FOO
138240
    1MOL0     O    1   8.217   5.861   5.268 -0.1581  0.0184 -0.2646
    1MOL0     C    2   8.252   5.980   5.264 -0.0277 -0.3290 -0.4803
    1MOL0     O    3   8.165   6.083   5.285  0.1254 -0.6157  0.1044
    1MOL0     C    4   8.042   6.048   5.337  0.3718 -0.0832 -0.1495
    1MOL0     C    5   7.937   5.993   5.256 -0.3009  0.2911  0.0033
    1MOL0     C    6   7.814   5.959   5.307  0.0322  0.4481  0.2566
    1MOL0     C    7   7.792   5.981   5.446 -0.2709  0.1341 -0.0185
    1MOL0     O    8   7.668   5.953   5.512 -0.4563 -0.0665  0.6366
    1MOL0     C    9   7.568   5.891   5.436  0.6926  0.3044  0.2318
    1MOL0     C   10   7.441   5.857   5.515  0.3571  0.0513  0.8890
    1MOL0     C   11   7.453   5.702   5.561 -0.6641  0.1630 -0.6037
    1MOL0     C   12   7.367   5.661   5.684  0.0511 -0.9097  0.0610
    1MOL0     C   13   7.236   5.615   5.639 -0.1303 -0.5339 -0.3626
    1MOL0     C   14   7.155   5.570   5.762 -0.5665 -0.3690  0.4218
    1MOL0     C   15   7.013   5.528   5.731  0.7420  0.3547  0.5479
    1MOL0     C   16   6.951   5.435   5.824  0.6733 -0.0118  0.3226
    1MOL0     N   17   6.803   5.422   5.797  0.5481  0.2433  0.1339
    1MOL0     C   18   6.710   5.388   5.895 -0.1118 -0.2634  0.3806
    1MOL0     C   19   6.595   5.384   5.827 -0.4023  0.1650 -0.4486
    1MOL0     C   20   6.455   5.376   5.887  0.2243  0.5769 -0.0243
    1MOL0     C   21   6.371   5.255   5.848  0.2533 -0.5458 -0.0581
    1MOL0     C   22   6.446   5.131   5.786 -0.1098  0.0080 -0.6848
    1MOL0     C   23   6.359   5.007   5.774 -0.2201  0.1268  0.1316
    1MOL0     O   24   6.293   4.973   5.885  0.4368  0.4555  0.2743
    1MOL0     C   25   6.170   4.900   5.881  0.4593 -0.1498 -0.7079
    1MOL0     C   26   6.135   4.811   5.777  0.3659 -0.4532  0.7606
    1MOL0     C   27   6.003   4.755   5.769  0.3658 -0.0356 -0.4196
    1MOL0     C   28   5.969   4.660   5.651  0.0351 -0.7715 -0.0117
    1MOL0     C   29   5.900   4.798   5.854  0.3723 -0.5090  0.1084
    1MOL0     C   30   5.762   4.763   5.845 -0.9136  0.4714  0.3527
    1MOL0     O   31   5.687   4.740   5.956 -0.5650  0.1610 -0.5117
    1MOL0     C   32   5.550   4.720   5.950 -0.1896  0.3884 -0.1303
    1MOL0     C   33   5.487   4.631   5.865 -0.1692 -0.2316 -0.1403
    1MOL0     C   34   5.355   4.618   5.881  0.5574  0.0500  0.2421
    1MOL0     C   35   5.274   4.692   5.965 -0.1804 -0.0496  1.0006
    1MOL0     O   36   5.140   4.690   5.928  0.3685  0.1647  0.2746
    1MOL0     C   37   5.046   4.744   6.022  0.0227  0.4735 -0.0821
    1MOL0     C   38   4.915   4.746   5.953 -0.0195  0.1743  0.2960
    1MOL0     C   39   4.806   4.789   6.051 -0.1393  0.2630  0.9347
    1MOL0     C   40   4.668   4.801   5.968 -0.8870  0.4660 -0.1663
    1MOL0     C   41   4.560   4.871   6.045 -0.0343  0.3024  0.4192
    1MOL0     C   42   4.431   4.904   5.973 -0.0907  0.2632 -0.0805
    1MOL0     C   43   4.311   4.959   6.067  0.7643 -0.0073  0.2661
    1MOL0     C   44   4.190   4.956   5.982  0.2449 -0.3305 -0.0230
    1MOL0    Cl   45   4.143   4.785   5.943 -0.5185 -0.2827  0.1841
    1MOL0     C   46   5.336   4.779   6.054 -0.7002 -0.2335 -0.2691
    1MOL0     C   47   5.474   4.789   6.051  0.2916  0.4066 -0.2302
    1MOL0     O   48   5.719   4.763   5.730  0.5104  0.5093  0.0575
    1MOL0     C   49   5.940   4.896   5.955 -0.1954 -0.4919 -0.1646
    1MOL0     C   50   6.072   4.942   5.965 -0.0742  0.1684  0.4513
    1MOL0     N   51   6.624   5.427   5.697  0.5571 -0.1590  0.6486
    1MOL0     N   52   6.749   5.446   5.671 -0.7003 -0.0584  0.4297
    1MOL0     C   53   7.882   6.051   5.524 -0.2623  0.4940 -0.1285
    1MOL0     C   54   8.009   6.087   5.472  0.5116  0.1596  0.1987
    1MOL0     C   55   8.391   6.020   5.236 -0.6904 -0.4855  0.5978
    1MOL0     C   56   8.425   6.150   5.205 -0.1205 -0.4432 -0.5620
    1MOL0     C   57   8.556   6.185   5.166 -0.4048  0.4250  0.0895
    1MOL0     C   58   8.652   6.088   5.152 -0.0865  0.1078  0.7188
    1MOL0     O   59   8.779   6.116   5.111 -0.7014 -0.4495  1.1207
    1MOL0     C   60   8.844   6.212   5.191  0.4527 -1.1727  0.4733
    1MOL0     C   61   8.996   6.194   5.181 -0.4328  0.4694  0.4449
    1MOL0     C   62   9.059   6.284   5.073  0.1869 -0.0318 -0.0607
    1MOL0     C   63   9.198   6.234   5.026 -0.3838 -0.2124 -0.7622
    1MOL0     C   64   9.292   6.229   5.144  0.8444 -0.0438 -0.4097
    1MOL0     C   65   9.365   6.242   5.240  1.1926  0.4645 -0.2347
    1MOL0     C   66   8.629   5.951   5.182  0.5854  0.3923 -0.3481
    1MOL0     C   67   8.495   5.917   5.229 -0.2683  1.0218  0.7140
    1MOL0     H   68   7.949   5.997   5.148  2.7812  0.2188  0.2566
    1MOL0     H   69   7.740   5.925   5.235  2.1080  0.4511 -2.0250
    1MOL0     H   70   7.538   5.949   5.349  2.9077 -0.0461 -0.8376
    1MOL0     H   71   7.605   5.799   5.391 -1.3782 -0.1839 -0.6114
    1MOL0     H   72   7.429   5.920   5.604 -0.4795 -0.0162  0.8336
    1MOL0     H   73   7.353   5.861   5.449  1.8768 -0.4044 -1.2879
    1MOL0     H   74   7.433   5.624   5.486  1.4989 -2.8734  1.7021
    1MOL0     H   75   7.553   5.676   5.595 -1.5408 -0.6557  1.5399
    1MOL0     H   76   7.413   5.578   5.739  0.4858 -1.0273 -0.4791
    1MOL0     H   77   7.350   5.738   5.760 -0.0137 -0.6981 -0.1663
    1MOL0     H   78   7.200   5.705   5.589  1.4654  0.9731  1.0780
    1MOL0     H   79   7.238   5.530   5.570 -0.4885 -3.0271  2.4956
    1MOL0     H   80   7.217   5.485   5.792  0.3967  0.1515 -0.0413
    1MOL0     H   81   7.158   5.639   5.847 -0.6312 -1.3818  1.2657
    1MOL0     H   82   6.956   5.622   5.722 -1.2821 -0.6323  2.0664
    1MOL0     H   83   7.004   5.477   5.635 -1.5998  1.1714  0.2622
    1MOL0     H   84   6.960   5.466   5.928 -2.3624 -1.6412  1.1909
    1MOL0     H   85   6.991   5.333   5.826 -2.8524 -1.5153  1.0642
    1MOL0     H   86   6.728   5.371   6.001  2.6207 -2.7393 -0.3459
    1MOL0     H   87   6.469   5.369   5.995  0.3691  0.9119 -0.0175
    1MOL0     H   88   6.393   5.465   5.875 -1.3306 -0.0121  2.8052
    1MOL0     H   89   6.301   5.285   5.770  0.3528  2.5912  0.9283
    1MOL0     H   90   6.315   5.224   5.937  1.8672  0.3684  1.3521
    1MOL0     H   91   6.527   5.110   5.858 -2.8303  1.5753  3.1591
    1MOL0     H   92   6.492   5.148   5.689  0.9358 -1.3287 -0.4624
    1MOL0     H   93   6.425   4.927   5.738 -1.2408 -1.0901  0.8989
    1MOL0     H   94   6.289   5.026   5.692  0.0214 -1.0152 -0.3509
    1MOL0     H   95   6.201   4.800   5.692  1.7609  4.0842  1.0088
    1MOL0     H   96   5.901   4.579   5.678 -1.9988  1.0602  0.5636
    1MOL0     H   97   5.934   4.718   5.565 -2.2333 -1.0790  0.6363
    1MOL0     H   98   6.067   4.620   5.623 -0.0615 -1.1008  0.1196
    1MOL0     H   99   5.545   4.562   5.804  0.8179 -0.1293  0.6432
    1MOL0     H  100   5.318   4.553   5.803 -0.5521 -2.2099  2.5272
    1MOL0     H  101   5.033   4.683   6.112 -2.2697  0.2235 -0.5295
    1MOL0     H  102   5.064   4.849   6.046 -2.6883  1.3116 -1.3524
    1MOL0     H  103   4.913   4.810   5.865 -1.6313 -2.9667 -2.1480
    1MOL0     H  104   4.892   4.649   5.908 -1.6389  0.7646 -0.1775
    1MOL0     H  105   4.835   4.880   6.104 -1.5759  1.8635 -0.9189
    1MOL0     H  106   4.788   4.707   6.122 -1.9390  0.5291  0.8359
    1MOL0     H  107   4.705   4.859   5.883  0.7390 -0.7851 -0.3622
    1MOL0     H  108   4.644   4.698   5.941 -2.9642  0.6530  0.7756
    1MOL0     H  109   4.601   4.959   6.095  1.7131 -0.8545  1.1205
    1MOL0     H  110   4.529   4.807   6.129  0.0683 -0.0722  0.1772
    1MOL0     H  111   4.440   4.983   5.898 -2.7289  1.4253  0.6729
    1MOL0     H  112   4.410   4.815   5.914 -1.3369 -1.1197  2.2938
    1MOL0     H  113   4.324   5.064   6.093  0.3638 -0.0536  0.6515
    1MOL0     H  114   4.301   4.900   6.158 -0.6839 -0.9731 -0.4894
    1MOL0     H  115   4.197   5.009   5.887 -1.0650  1.1421  0.6574
    1MOL0     H  116   4.101   4.995   6.032 -0.2857 -1.2000 -0.2661
    1MOL0     H  117   5.280   4.821   6.136 -2.0507 -0.3369 -1.1114
    1MOL0     H  118   5.526   4.862   6.112 -3.1142  2.5293  0.3798
    1MOL0     H  119   5.873   4.938   6.029 -0.0349 -3.0819  1.5666
    1MOL0     H  120   6.098   5.018   6.039  0.1159  1.1632 -0.6099
    1MOL0     H  121   7.850   6.082   5.623  1.6378 -0.6997  0.9052
    1MOL0     H  122   8.074   6.151   5.530 -0.4055  1.2171  0.0929
    1MOL0     H  123   8.346   6.225   5.206  1.0582  0.8944 -1.9761
    1MOL0     H  124   8.583   6.287   5.143  0.0744  0.7329  1.9100
    1MOL0     H  125   8.824   6.315   5.157  5.3346  0.1384  0.7758
    1MOL0     H  126   8.824   6.218   5.298 -0.8309  3.5139  0.1913
    1MOL0     H  127   9.016   6.089   5.158 -0.1239  0.3864  1.0570
    1MOL0     H  128   9.042   6.216   5.278 -0.2679  1.1644  0.2170
    1MOL0     H  129   9.054   6.387   5.110  0.4538 -0.6654  1.8335
    1MOL0     H  130   9.001   6.276   4.981  0.9743  0.9733 -0.6778
    1MOL0     H  131   9.240   6.290   4.942  0.8647 -0.5387 -0.3791
    1MOL0     H  132   9.185   6.131   4.990  0.9896 -0.7060  0.0649
    1MOL0     H  133   9.412   6.257   5.335  0.0521  0.4184  0.3561
    1MOL0     H  134   8.707   5.876   5.170  0.9974  0.7028  0.3122
    1MOL0     H  135   8.475   5.813   5.254  1.1417 -0.2599 -2.8087
    2MOL0     O  136   8.296   6.197   5.683  0.1803 -0.2032  0.3398
    2MOL0     C  137   8.350   6.303   5.701 -0.5522 -0.1794  0.1006
    2MOL0     O  138   8.283   6.424   5.741 -0.3542 -0.0084  0.3187
    2MOL0     C  139   8.155   6.407   5.777 -0.0821 -0.1741  0.1714
    2MOL0     C  140   8.131   6.348   5.907 -0.2633 -0.4085 -0.2478
    2MOL0     C  141   8.002   6.328   5.946  1.2822  0.0969  0.0998
    2MOL0     C  142   7.892   6.358   5.860 -0.1103  0.0028  0.4346
    2MOL0     O  143   7.767   6.326   5.896 -0.6025 -0.1446 -0.6116
    2MOL0     C  144   7.669   6.427   5.898  0.0232  0.1636  0.1404
    2MOL0     C  145   7.541   6.370   5.969 -0.4319 -0.3439 -0.4030
    2MOL0     C  146   7.416   6.452   5.927 -0.5049  0.9165 -0.5950
    2MOL0     C  147   7.304   6.402   6.021  1.0159 -0.8825 -0.5935
    2MOL0     C  148   7.164   6.438   5.984  0.2396 -0.2390  0.1762
    2MOL0     C  149   7.113   6.358   5.865 -0.0648  0.0616  0.3119
    2MOL0     C  150   6.994   6.403   5.793  0.1923 -0.0792  0.0143
    2MOL0     C  151   6.860   6.346   5.856  0.6978 -0.1390 -0.3088
    2MOL0     N  152   6.752   6.439   5.818 -0.0992  0.0789 -0.2141
    2MOL0     C  153   6.722   6.557   5.885 -0.3230  0.7957 -0.0568
    2MOL0     C  154   6.640   6.614   5.796  0.2905 -0.9008  0.3467
    2MOL0     C  155   6.582   6.759   5.795 -0.2171  0.2265 -0.0125
    2MOL0     C  156   6.445   6.779   5.727 -0.0799  0.1785  0.6251
    2MOL0     C  157   6.339   6.738   5.833 -0.3605  0.8742 -0.3412
    2MOL0     C  158   6.195   6.741   5.788 -0.7731  0.0011 -0.1136
    2MOL0     O  159   6.147   6.616   5.740  0.7029  0.0073  0.2304
    2MOL0     C  160   6.004   6.606   5.710 -0.1971  0.8451  1.1081
    2MOL0     C  161   5.927   6.717   5.688 -0.1052 -0.5367  0.2572
    2MOL0     C  162   5.795   6.704   5.655  0.1617 -0.7961  0.6739
    2MOL0     C  163   5.719   6.830   5.622 -0.7195 -0.1925 -0.2550
    2MOL0     C  164   5.730   6.572   5.640  0.0950 -0.4591 -0.1815
    2MOL0     C  165   5.588   6.541   5.593  1.0750 -0.2280 -0.0463
    2MOL0     O  166   5.562   6.411   5.558  0.1146  0.3504  0.2506
    2MOL0     C  167   5.439   6.356   5.554  0.4760 -0.1761 -0.2178
    2MOL0     C  168   5.412   6.275   5.441 -0.7009  0.8356  0.5292
    2MOL0     C  169   5.295   6.207   5.432  0.5108  0.9030 -0.3278
    2MOL0     C  170   5.197   6.229   5.530  0.2407  0.3699 -0.2753
    2MOL0     O  171   5.071   6.172   5.516  0.0960  0.2748  0.4562
    2MOL0     C  172   5.020   6.083   5.611  0.2458 -0.2474 -0.7740
    2MOL0     C  173   4.874   6.120   5.642  0.0805  0.4106 -0.5414
    2MOL0     C  174   4.784   6.093   5.520  0.5804  0.0203  0.7263
    2MOL0     C  175   4.639   6.152   5.556 -0.9653 -0.7962  0.4867
    2MOL0     C  176   4.538   6.103   5.450  0.3864  0.3276 -0.1193
    2MOL0     C  177   4.391   6.120   5.489  0.1829 -0.3201  0.2668
    2MOL0     C  178   4.297   6.062   5.377  0.2501  0.6012  0.8604
    2MOL0     C  179   4.159   6.047   5.442 -0.1447  0.0396 -1.2234
    2MOL0    Cl  180   4.046   5.985   5.322  0.3038 -0.5781 -0.1265
    2MOL0     C  181   5.222   6.306   5.643  0.7570  0.4932  0.5194
    2MOL0     C  182   5.341   6.367   5.656  0.6932 -0.3863  0.7794
    2MOL0     O  183   5.497   6.623   5.616 -0.2575  0.0740 -0.1383
    2MOL0     C  184   5.805   6.461   5.665  0.2733  1.0418 -0.4210
    2MOL0     C  185   5.941   6.476   5.697 -0.4825  0.0891 -0.0839
    2MOL0     N  186   6.612   6.531   5.692 -0.4531  0.7936  0.4252
    2MOL0     N  187   6.678   6.425   5.710  0.5473 -0.0860  0.1578
    2MOL0     C  188   7.916   6.410   5.735  0.4340 -1.0567  0.1262
    2MOL0     C  189   8.049   6.435   5.694  0.4483 -0.1694 -0.0742
    2MOL0     C  190   8.497   6.291   5.678  0.2691 -0.0527  0.2443
    2MOL0     C  191   8.541   6.183   5.597  1.0233 -0.3617  0.0114
    2MOL0     C  192   8.674   6.177   5.566 -0.3545 -0.0330 -0.4942
    2MOL0     C  193   8.766   6.274   5.611 -0.1806 -0.5430  0.2010
    2MOL0     O  194   8.899   6.254   5.576  0.1752  0.8565 -0.6503
    2MOL0     C  195   8.997   6.331   5.646 -0.3335 -0.2478 -0.6803
    2MOL0     C  196   9.138   6.272   5.630  0.7129 -0.1004 -0.2800
    2MOL0     C  197   9.156   6.135   5.688 -0.3296 -0.4249  0.4479
    2MOL0     C  198   9.304   6.084   5.656 -0.8434  0.8038 -0.1812
    2MOL0     C  199   9.311   6.034   5.521 -0.8667 -0.2419 -0.1407
    2MOL0     C  200   9.318   5.982   5.413 -0.2442 -0.1566  0.4181
    2MOL0     C  201   8.717   6.374   5.689 -0.1104  0.4371 -1.0208
    2MOL0     C  202   8.586   6.385   5.731 -0.0766  0.4486 -0.3841
    2MOL0     H  203   8.214   6.313   5.968  1.4640 -1.5331 -3.0333
    2MOL0     H  204   7.977   6.289   6.044 -2.7240 -1.6926 -1.4263
    2MOL0     H  205   7.706   6.510   5.959  0.6170 -0.3840  0.5381
    2MOL0     H  206   7.637   6.451   5.796 -0.6605 -0.2112  0.2626
    2MOL0     H  207   7.535   6.263   5.949 -0.7079 -0.5555  0.7361
    2MOL0     H  208   7.566   6.386   6.074  2.6960  0.1978 -1.1254
    2MOL0     H  209   7.437   6.560   5.932  0.1546  0.7774 -0.2321
    2MOL0     H  210   7.395   6.428   5.822  0.8096  4.4000 -1.8137
    2MOL0     H  211   7.313   6.294   6.035  3.0818 -0.8246 -1.2524
    2MOL0     H  212   7.314   6.435   6.125 -0.6438  0.6920 -0.8819
    2MOL0     H  213   7.098   6.427   6.071 -1.0533  3.4751 -0.1415
    2MOL0     H  214   7.166   6.545   5.961 -0.0572 -0.5122 -1.2202
    2MOL0     H  215   7.188   6.359   5.785 -0.4222  1.3840 -0.0247
    2MOL0     H  216   7.108   6.250   5.884  0.8354 -0.0229  0.1105
    2MOL0     H  217   6.997   6.512   5.786  0.6105  0.0085  1.3438
    2MOL0     H  218   6.993   6.365   5.690 -3.4395  1.2467 -0.5892
    2MOL0     H  219   6.869   6.356   5.964 -1.9100  2.6254 -0.1995
    2MOL0     H  220   6.839   6.241   5.835  0.7097 -0.1160 -0.4412
    2MOL0     H  221   6.780   6.606   5.962  2.0321 -0.5674 -0.8550
    2MOL0     H  222   6.580   6.794   5.898  3.0153 -0.5155  0.3978
    2MOL0     H  223   6.660   6.820   5.748  1.0842 -0.7260  0.8347
    2MOL0     H  224   6.440   6.724   5.633  1.0907  3.1854 -1.3583
    2MOL0     H  225   6.433   6.883   5.698  1.0729  0.3287  0.6404
    2MOL0     H  226   6.346   6.803   5.920 -0.8081  1.7003 -0.9086
    2MOL0     H  227   6.359   6.635   5.865 -2.6261  0.7905  0.9933
    2MOL0     H  228   6.178   6.830   5.728  0.6480  0.8210  0.6401
    2MOL0     H  229   6.127   6.748   5.873 -3.4575 -0.7004 -2.0675
    2MOL0     H  230   5.969   6.815   5.703 -0.1584 -0.1270 -1.9242
    2MOL0     H  231   5.629   6.843   5.683 -0.5351  0.3783 -0.1034
    2MOL0     H  232   5.775   6.923   5.635 -0.4988 -0.5238  1.5098
    2MOL0     H  233   5.690   6.826   5.517 -1.4643  1.5303 -0.1349
    2MOL0     H  234   5.475   6.279   5.353 -3.3542 -2.1564 -1.7616
    2MOL0     H  235   5.271   6.140   5.350 -0.9375 -0.3490  1.0825
    2MOL0     H  236   5.020   5.985   5.563  1.5053 -0.2065 -0.8801
    2MOL0     H  237   5.092   6.090   5.693  0.2254  0.3019 -0.7940
    2MOL0     H  238   4.836   6.049   5.716  1.8085  1.9305  1.9371
    2MOL0     H  239   4.869   6.220   5.687  0.2017 -0.1364  0.7362
    2MOL0     H  240   4.780   5.986   5.499 -0.1682  0.3484 -0.9050
    2MOL0     H  241   4.826   6.145   5.434 -2.1486 -1.2502 -1.5274
    2MOL0     H  242   4.607   6.113   5.653  0.7715 -0.1507  1.3472
    2MOL0     H  243   4.640   6.261   5.556 -1.1601 -0.7741  2.1790
    2MOL0     H  244   4.569   5.998   5.453  1.9438  0.7808  1.8288
    2MOL0     H  245   4.557   6.143   5.349  0.4343  3.2451  0.9321
    2MOL0     H  246   4.383   6.079   5.591 -1.0813 -0.5720  0.0766
    2MOL0     H  247   4.378   6.227   5.503  0.8818 -0.0373 -1.0923
    2MOL0     H  248   4.337   5.963   5.351 -1.6137  0.1017 -0.2967
    2MOL0     H  249   4.297   6.128   5.290 -1.5271  2.0150  1.8729
    2MOL0     H  250   4.115   6.142   5.474  0.8398  0.2334 -0.4141
    2MOL0     H  251   4.179   5.993   5.535  1.8258  1.0356 -1.0191
    2MOL0     H  252   5.146   6.322   5.719  0.1701  1.5212 -0.2513
    2MOL0     H  253   5.357   6.438   5.736  1.5409  0.1230  0.1621
    2MOL0     H  254   5.778   6.357   5.652  0.9728  0.7083  0.6159
    2MOL0     H  255   6.007   6.391   5.706  0.0752  0.5430  0.1456
    2MOL0     H  256   7.830   6.438   5.674 -0.9813 -3.4104  0.9016
    2MOL0     H  257   8.077   6.490   5.605 -0.8570 -0.1220 -0.4659
    2MOL0     H  258   8.467   6.116   5.554  0.2508  0.5167 -0.0409
    2MOL0     H  259   8.715   6.094   5.509 -2.3132 -0.8321 -0.8516
    2MOL0     H  260   8.997   6.432   5.605 -1.6548  0.0289 -0.0221
    2MOL0     H  261   8.970   6.323   5.751 -1.0999 -3.7657 -1.0320
    2MOL0     H  262   9.211   6.336   5.681 -1.0437  0.2785  1.9156
    2MOL0     H  263   9.160   6.267   5.523  4.0337 -1.1864  0.3558
    2MOL0     H  264   9.084   6.064   5.646 -1.7025  0.5133  1.1407
    2MOL0     H  265   9.152   6.149   5.797  0.2372 -2.9514  0.8625
    2MOL0     H  266   9.341   6.016   5.734 -4.3029 -1.9592 -0.7447
    2MOL0     H  267   9.379   6.163   5.669  1.5033 -1.4203  0.5976
    2MOL0     H  268   9.325   5.932   5.318  3.1885  1.4716 -0.3239
    2MOL0     H  269   8.786   6.449   5.727 -0.5780 -0.1377  1.1053
    2MOL0     H  270   8.563   6.459   5.806  0.0834  0.1348 -0.0207
    3MOL0     O  271   1.711  10.327   0.893 -0.6667  0.5110  0.7941
    3MOL0     C  272   1.788  10.232   0.887  0.2514  0.3668  0.1505
    3MOL0     O  273   1.759  10.100   0.862 -0.5408  0.0139 -0.0406
    3MOL0     C  274   1.628  10.067   0.817  0.6098 -0.6498 -0.2039
    3MOL0     C  275   1.576  10.124   0.697 -0.7520 -0.1896  0.6222
    3MOL0     C  276   1.449  10.086   0.657  0.3202 -0.7518  0.2150
    3MOL0     C  277   1.382   9.976   0.718  0.7304  0.1016  0.5409
    3MOL0     O  278   1.246   9.934   0.686  0.4428  0.0745 -0.9286
    3MOL0     C  279   1.176  10.006   0.585  0.1211 -0.3741  0.6532
    3MOL0     C  280   1.031   9.956   0.582  0.3155  0.1939 -0.5914
    3MOL0     C  281   0.956   9.963   0.719  0.1751  0.6363  0.5316
    3MOL0     C  282   0.904  10.102   0.739  0.1240  0.5282 -1.0831
    3MOL0     C  283   0.846  10.128   0.877  0.8477 -0.3675  0.0342
    3MOL0     C  284   0.701  10.095   0.880 -0.3608 -0.7263  0.0131
    3MOL0     C  285   0.650  10.098   1.010  0.2239 -0.3569  0.0848
    3MOL0     C  286   0.504  10.084   1.013  1.3913  0.3704 -0.0618
    3MOL0     N  287   0.460  10.107   1.155  0.2147  0.0890  0.4580
    3MOL0     C  288   0.396  10.020   1.229  0.0957 -0.4201 -0.8931
    3MOL0     C  289   0.376  10.071   1.350  0.2715  0.5407  0.6651
    3MOL0     C  290   0.290  10.014   1.460  0.6190  0.1945  0.3179
    3MOL0     C  291   0.147  10.025   1.434  0.2118 -0.3035 -0.1160
    3MOL0     C  292   0.065   9.973   1.550 -0.0648  0.8001 -1.3847
    3MOL0     C  293  -0.078   9.953   1.501  1.0510  0.8119 -0.5526
    3MOL0     O  294  -0.125  10.080   1.460 -0.0095  0.4548  0.3758
    3MOL0     C  295  -0.261  10.083   1.414  0.2693 -0.0905  0.6090
    3MOL0     C  296  -0.304  10.204   1.359 -0.7216 -0.4820 -0.0774
    3MOL0     C  297  -0.432  10.221   1.318 -0.6439 -0.2359  0.4184
    3MOL0     C  298  -0.466  10.351   1.264  0.0678  0.6017 -0.2204
    3MOL0     C  299  -0.531  10.122   1.339 -0.0666 -0.2095 -0.1499
    3MOL0     C  300  -0.681  10.137   1.328 -0.3922  0.8317 -0.4955
    3MOL0     O  301  -0.760  10.017   1.329 -0.3950  0.5127  0.0221
    3MOL0     C  302  -0.894  10.020   1.306 -0.0752 -0.0937  0.0003
    3MOL0     C  303  -0.946   9.901   1.256 -0.0808 -0.0450  0.3846
    3MOL0     C  304  -1.086   9.883   1.241 -0.3717 -0.1528  0.3926
    3MOL0     C  305  -1.174   9.986   1.280 -0.3803  0.0589  0.2251
    3MOL0     O  306  -1.308   9.973   1.263 -0.0355  0.1186 -0.1406
    3MOL0     C  307  -1.359   9.837   1.287  1.0856 -0.2304  0.1330
    3MOL0     C  308  -1.511   9.854   1.274 -0.0017  0.6440  0.4738
    3MOL0     C  309  -1.581   9.904   1.395  0.0324 -0.0528  0.7953
    3MOL0     C  310  -1.727   9.907   1.365 -0.0484 -0.8840 -0.6445
    3MOL0     C  311  -1.811   9.964   1.488  0.3147  0.2384  0.2794
    3MOL0     C  312  -1.966   9.987   1.454 -0.5168 -0.1926 -0.0005
    3MOL0     C  313  -2.055  10.055   1.556 -0.3139  0.6095 -0.3976
    3MOL0     C  314  -2.198  10.006   1.534 -0.0743  0.0733  0.4192
    3MOL0    Cl  315  -2.297  10.036   1.677 -0.0352  0.3121 -0.2297
    3MOL0     C  316  -1.124  10.099   1.339 -0.4447  0.8306 -0.6389
    3MOL0     C  317  -0.981  10.117   1.354  0.0435 -0.0081 -0.2816
    3MOL0     O  318  -0.727  10.250   1.305 -0.6156  0.9167 -0.0032
    3MOL0     C  319  -0.481   9.995   1.373 -0.1853  0.1266  0.8335
    3MOL0     C  320  -0.349   9.973   1.400 -0.8972 -0.6208  0.3903
    3MOL0     N  321   0.419  10.203   1.346  0.3896  0.0617 -0.1674
    3MOL0     N  322   0.459  10.222   1.223 -0.5399 -1.2218  0.6021
    3MOL0     C  323   1.436   9.918   0.829 -0.1297 -0.1198  0.5059
    3MOL0     C  324   1.556   9.961   0.875  0.5832 -0.1252  1.2593
    3MOL0     C  325   1.936  10.256   0.915  0.4982 -0.8775  0.9629
    3MOL0     C  326   1.971  10.365   0.997  0.0907 -0.1580  0.7280
    3MOL0     C  327   2.109  10.389   1.017 -0.3487 -0.9693  0.8632
    3MOL0     C  328   2.213  10.316   0.957 -0.1317  0.0109  1.1228
    3MOL0     O  329   2.347  10.341   0.953 -0.3628 -0.1225  0.3255
    3MOL0     C  330   2.397  10.461   1.006  0.0245  0.0882 -0.3579
    3MOL0     C  331   2.535  10.473   0.969 -0.1881 -0.2579  0.6818
    3MOL0     C  332   2.620  10.353   1.013  0.7046  0.7359 -0.2069
    3MOL0     C  333   2.764  10.358   0.974 -0.1169 -0.0537  0.8119
    3MOL0     C  334   2.846  10.272   1.064  0.0643 -0.4982 -0.0180
    3MOL0     C  335   2.901  10.186   1.131 -0.0627  0.0777 -0.5906
    3MOL0     C  336   2.169  10.210   0.886  1.3495  0.9342  0.5114
    3MOL0     C  337   2.036  10.179   0.859 -0.4970 -0.1617  0.1742
    3MOL0     H  338   1.628  10.209   0.654 -2.3025  0.5625  0.1672
    3MOL0     H  339   1.410  10.133   0.567 -1.0041 -1.0150  0.6297
    3MOL0     H  340   1.178  10.112   0.613 -1.2912 -0.7867  2.4992
    3MOL0     H  341   1.215   9.996   0.483 -0.7673  1.8981  0.0223
    3MOL0     H  342   0.968   9.992   0.500 -0.8968 -3.0339 -1.2337
    3MOL0     H  343   1.034   9.850   0.555  0.5402 -0.0470  0.3403
    3MOL0     H  344   0.872   9.893   0.723  0.8994 -0.2496  0.5223
    3MOL0     H  345   1.027   9.933   0.796 -1.0226  0.2195  1.4942
    3MOL0     H  346   0.989  10.170   0.729 -1.1901  2.7167  1.4397
    3MOL0     H  347   0.842  10.124   0.651 -1.5037  1.5353  0.2665
    3MOL0     H  348   0.890  10.050   0.940 -0.7276  0.4883  2.3161
    3MOL0     H  349   0.877  10.226   0.914  1.5452 -0.3199 -0.6418
    3MOL0     H  350   0.645  10.163   0.814  1.6534  0.2341 -0.7834
    3MOL0     H  351   0.687   9.996   0.835  0.5724 -0.4516 -0.9376
    3MOL0     H  352   0.691  10.020   1.075 -1.6044 -0.8646  0.7053
    3MOL0     H  353   0.675  10.194   1.056  0.6901 -0.7334  0.6258
    3MOL0     H  354   0.474   9.980   0.997  0.5589 -0.2647  4.3542
    3MOL0     H  355   0.450  10.148   0.943 -1.1801 -0.1560  1.2992
    3MOL0     H  356   0.356   9.926   1.192 -2.0541  0.2682 -0.4768
    3MOL0     H  357   0.322   9.912   1.484  2.2872  1.2271  2.8725
    3MOL0     H  358   0.304  10.081   1.545 -0.9009 -0.6661  1.2955
    3MOL0     H  359   0.117   9.983   1.337 -4.1853  2.1309 -0.0857
    3MOL0     H  360   0.134  10.133   1.423 -1.3843 -0.4433  0.2089
    3MOL0     H  361   0.046  10.039   1.634 -0.4287 -0.9786 -0.0146
    3MOL0     H  362   0.116   9.885   1.591 -0.6183  0.2618 -1.8400
    3MOL0     H  363  -0.141   9.901   1.574  0.1084  2.7048  0.0605
    3MOL0     H  364  -0.075   9.888   1.413  0.3823 -1.1400  0.8080
    3MOL0     H  365  -0.232  10.286   1.356 -0.9980 -0.2130 -3.9735
    3MOL0     H  366  -0.377  10.398   1.219  1.6176 -0.6409  1.4115
    3MOL0     H  367  -0.541  10.345   1.184 -1.4338  1.7248  1.0359
    3MOL0     H  368  -0.513  10.403   1.348  1.6185 -1.6565  2.1865
    3MOL0     H  369  -0.876   9.828   1.216 -0.3897  0.1156 -0.4825
    3MOL0     H  370  -1.122   9.791   1.196 -1.2984  0.0345  0.7358
    3MOL0     H  371  -1.330   9.767   1.209 -1.2367 -1.2129  0.0562
    3MOL0     H  372  -1.328   9.799   1.385  1.1816 -0.5278 -0.0134
    3MOL0     H  373  -1.520   9.921   1.188  0.4532 -0.6005 -0.5838
    3MOL0     H  374  -1.547   9.757   1.237  2.0843 -0.0887  0.2547
    3MOL0     H  375  -1.565  10.009   1.418 -5.3248  0.9909  1.0366
    3MOL0     H  376  -1.558   9.846   1.486  2.2260 -0.7666 -0.1478
    3MOL0     H  377  -1.733   9.972   1.277  2.3011 -1.4764 -1.3021
    3MOL0     H  378  -1.763   9.807   1.342 -1.7249 -0.3027 -0.7383
    3MOL0     H  379  -1.757  10.054   1.518 -0.6115  0.4565  1.3743
    3MOL0     H  380  -1.808   9.894   1.572  0.7199 -1.0263 -0.7704
    3MOL0     H  381  -1.972  10.035   1.356 -3.3482  0.7991  0.5814
    3MOL0     H  382  -2.000   9.884   1.440 -0.6071 -0.1936  0.2251
    3MOL0     H  383  -2.049  10.164   1.558 -3.2405  0.8617 -1.0281
    3MOL0     H  384  -2.025  10.008   1.650 -1.7802 -2.8283 -1.4913
    3MOL0     H  385  -2.202   9.897   1.523  0.7892  0.0283  0.4845
    3MOL0     H  386  -2.239  10.047   1.441 -2.2967  1.2073  1.8304
    3MOL0     H  387  -1.195  10.170   1.380 -1.7771 -0.0756 -1.3184
    3MOL0     H  388  -0.941  10.205   1.403 -1.1037  0.5137 -0.2680
    3MOL0     H  389  -0.549   9.913   1.395  0.6946 -0.0172  3.4056
    3MOL0     H  390  -0.317   9.874   1.432 -0.9532 -0.6540  0.3408
    3MOL0     H  391   1.382   9.837   0.877  1.3127 -0.8764  0.9443
    3MOL0     H  392   1.600   9.909   0.961 -0.5192 -0.7986  1.4298
    3MOL0     H  393   1.900  10.436   1.038 -0.8265  0.5579 -1.8865
    3MOL0     H  394   2.152  10.459   1.087  1.3642 -2.5179  1.4318
    3MOL0     H  395   2.347  10.553   0.973  0.5832 -0.2985 -2.3927
    3MOL0     H  396   2.397  10.458   1.116  2.1098 -0.4022 -0.3319
    3MOL0     H  397   2.584  10.561   1.012  1.5798 -0.5665 -0.5657
    3MOL0     H  398   2.542  10.480   0.860  1.5711 -1.0856  0.7138
    3MOL0     H  399   2.574  10.262   0.972 -0.8455  0.5696  1.7428
    3MOL0     H  400   2.625  10.341   1.121  2.2181 -0.6543 -0.3994
    3MOL0     H  401   2.810  10.457   0.983  1.0996 -0.7043  2.1868
    3MOL0     H  402   2.777  10.328   0.870 -0.4010 -0.7960  0.9847
    3MOL0     H  403   2.963  10.111   1.178  1.6990  0.9851 -1.3505
    3MOL0     H  404   2.233  10.135   0.841  0.4781 -0.5128  1.5919
    3MOL0     H  405   2.008  10.092   0.802 -1.4922  1.0597 -1.2738
    4MOL0     O  406   4.857   1.101   0.853 -0.2190 -0.3340 -0.1490
    4MOL0     C  407   4.914   0.985   0.840 -0.1934 -0.9466 -0.1980
    4MOL0     O  408   4.852   0.870   0.827  0.8552 -0.3720 -0.4683
    4MOL0     C  409   4.718   0.880   0.844 -0.0852  0.3433 -0.6421
    4MOL0     C  410   4.635   0.880   0.733  0.0307  0.1069  0.3749
    4MOL0     C  411   4.498   0.905   0.736 -0.2969  0.2415 -0.3038
    4MOL0     C  412   4.437   0.893   0.868 -0.4256  0.0782  0.8511
    4MOL0     O  413   4.309   0.928   0.880  0.1596  0.2850  0.8230
    4MOL0     C  414   4.229   0.857   0.784  0.7423 -0.7208 -0.6542
    4MOL0     C  415   4.090   0.847   0.830 -0.3604  0.0698  0.2948
    4MOL0     C  416   3.992   0.866   0.715  0.0276 -0.1831 -0.2170
    4MOL0     C  417   3.949   1.001   0.695  0.3015 -0.1828 -0.6608
    4MOL0     C  418   3.859   1.012   0.579  0.0617 -0.3119 -0.3330
    4MOL0     C  419   3.833   1.157   0.544  0.8670 -0.4199  0.0475
    4MOL0     C  420   3.755   1.174   0.409  0.2839  0.0353  0.0763
    4MOL0     C  421   3.629   1.086   0.391  0.4313  0.8064 -0.1655
    4MOL0     N  422   3.541   1.088   0.509  0.0274  0.4321  0.4460
    4MOL0     C  423   3.495   0.982   0.577 -0.0595  0.5106 -0.4712
    4MOL0     C  424   3.391   1.033   0.653 -0.2830 -0.6194 -0.4851
    4MOL0     C  425   3.321   0.933   0.752  0.2469  0.1566 -0.1252
    4MOL0     C  426   3.162   0.928   0.738 -1.0748 -0.8532  0.5915
    4MOL0     C  427   3.103   0.831   0.850 -0.5639 -0.3667 -0.0762
    4MOL0     C  428   2.957   0.857   0.848  0.0182  0.5090  0.2475
    4MOL0     O  429   2.881   0.778   0.933 -0.0049  0.4726 -0.6298
    4MOL0     C  430   2.747   0.803   0.950  0.5488 -0.4521  0.4902
    4MOL0     C  431   2.676   0.720   1.040 -0.2396  0.0078 -1.2814
    4MOL0     C  432   2.537   0.732   1.063 -0.5504  0.4205 -0.1825
    4MOL0     C  433   2.478   0.635   1.159 -0.5444  0.5839 -0.3653
    4MOL0     C  434   2.465   0.830   0.997 -0.3063  0.3676  0.7168
    4MOL0     C  435   2.312   0.840   1.011  0.0942  1.1249 -0.1837
    4MOL0     O  436   2.240   0.879   0.901 -0.0288  0.0107  0.0698
    4MOL0     C  437   2.108   0.889   0.901  0.1772  1.1990 -0.0143
    4MOL0     C  438   2.039   0.837   0.793 -0.1185  0.5464 -0.1250
    4MOL0     C  439   1.899   0.837   0.782 -0.1805  0.4235  0.1960
    4MOL0     C  440   1.822   0.911   0.872  0.1034  0.8591 -0.5449
    4MOL0     O  441   1.686   0.913   0.875  0.0202  0.2763  0.4563
    4MOL0     C  442   1.620   0.894   0.746  0.1775 -0.3987 -0.8518
    4MOL0     C  443   1.473   0.913   0.749  0.4754  0.7399  0.5039
    4MOL0     C  444   1.398   0.800   0.819 -0.5821  0.2919 -0.2295
    4MOL0     C  445   1.252   0.830   0.871  0.5006  0.6869  0.4122
    4MOL0     C  446   1.192   0.700   0.920 -0.2467  0.1058 -1.1567
    4MOL0     C  447   1.073   0.733   1.016 -0.0481  0.3291  0.5645
    4MOL0     C  448   0.945   0.773   0.944 -0.9582  0.2729 -0.0514
    4MOL0     C  449   0.828   0.773   1.050 -0.6058 -0.1734  0.7637
    4MOL0    Cl  450   0.689   0.808   0.957 -0.0908 -0.1178 -0.0665
    4MOL0     C  451   1.894   0.975   0.975 -0.0990  0.1722  0.0372
    4MOL0     C  452   2.036   0.964   0.987  0.1658 -0.4040  0.0968
    4MOL0     O  453   2.265   0.806   1.124  0.1855  0.9248 -0.2147
    4MOL0     C  454   2.527   0.902   0.898 -0.4092  0.0928 -0.0165
    4MOL0     C  455   2.668   0.891   0.876 -0.1680 -0.2638  0.3502
    4MOL0     N  456   3.375   1.163   0.625 -0.7073 -0.4990 -0.6847
    4MOL0     N  457   3.466   1.201   0.542 -0.0659 -0.2725  1.0100
    4MOL0     C  458   4.516   0.895   0.981  0.5944 -0.3397 -0.1595
    4MOL0     C  459   4.653   0.884   0.971  0.1227  0.3446 -0.0466
    4MOL0     C  460   5.053   0.980   0.813 -0.3840 -0.0733  0.7639
    4MOL0     C  461   5.121   0.855   0.803  0.0552 -0.2794 -0.7201
    4MOL0     C  462   5.261   0.852   0.794  0.1928 -0.4373 -0.8293
    4MOL0     C  463   5.333   0.974   0.778  1.1311 -0.0096  0.1284
    4MOL0     O  464   5.471   0.981   0.765  0.1107 -0.4734  0.5659
    4MOL0     C  465   5.551   0.872   0.828 -0.0779  0.2893  1.0144
    4MOL0     C  466   5.645   0.932   0.924  0.0192  0.4770  0.0667
    4MOL0     C  467   5.718   1.065   0.891 -0.5289 -0.3334  0.7925
    4MOL0     C  468   5.792   1.076   0.756 -0.4904  0.3927  0.5067
    4MOL0     C  469   5.920   0.995   0.751 -0.2518  0.4877 -0.1792
    4MOL0     C  470   6.020   0.931   0.763  0.0046 -0.3787 -0.5911
    4MOL0     C  471   5.270   1.092   0.765  0.2844 -0.2692 -0.3408
    4MOL0     C  472   5.131   1.096   0.798 -1.3258  0.5832  0.1777
    4MOL0     H  473   4.681   0.883   0.635  1.5531 -2.7369  0.9008
    4MOL0     H  474   4.450   0.936   0.644  0.8013  0.5281 -0.7987
    4MOL0     H  475   4.232   0.914   0.691 -1.7610 -0.1898 -0.4867
    4MOL0     H  476   4.261   0.757   0.758 -1.5704 -1.2980 -1.5438
    4MOL0     H  477   4.074   0.746   0.869 -1.4954 -0.3193 -1.1229
    4MOL0     H  478   4.067   0.915   0.913  3.9203  0.3060  1.5288
    4MOL0     H  479   4.033   0.823   0.623 -1.9780 -3.5800  0.3335
    4MOL0     H  480   3.905   0.802   0.730  1.3014 -1.3523  2.9272
    4MOL0     H  481   3.908   1.035   0.791  0.3597 -2.9201  0.4192
    4MOL0     H  482   4.043   1.054   0.675  1.0634 -0.3734  2.0136
    4MOL0     H  483   3.916   0.983   0.490 -0.5799 -0.6956 -0.6235
    4MOL0     H  484   3.766   0.956   0.596 -1.1383  1.6196 -0.3013
    4MOL0     H  485   3.790   1.204   0.633  0.6102  0.6367 -0.6199
    4MOL0     H  486   3.929   1.206   0.531  0.3579  0.4273 -0.6809
    4MOL0     H  487   3.708   1.272   0.410 -0.3858 -0.2458 -1.3446
    4MOL0     H  488   3.825   1.156   0.327  1.1119  1.5171  0.4184
    4MOL0     H  489   3.664   0.985   0.368 -1.1707 -0.1370  1.3144
    4MOL0     H  490   3.566   1.122   0.309 -0.8945 -0.2418  0.3677
    4MOL0     H  491   3.537   0.883   0.565  0.3735  0.2812  2.3043
    4MOL0     H  492   3.361   0.834   0.728  2.4700  0.2247  2.7605
    4MOL0     H  493   3.343   0.954   0.857  0.6477 -0.2144 -0.1329
    4MOL0     H  494   3.120   0.894   0.643 -0.4395  0.9787 -0.3899
    4MOL0     H  495   3.112   1.023   0.759 -2.7233 -0.9797 -2.2634
    4MOL0     H  496   3.140   0.866   0.947 -1.8913  1.3889 -0.1572
    4MOL0     H  497   3.144   0.731   0.834  2.4926  0.3201  2.3957
    4MOL0     H  498   2.920   0.838   0.747  0.4510 -0.9354  0.3439
    4MOL0     H  499   2.924   0.957   0.878 -4.8141 -0.5228 -0.8177
    4MOL0     H  500   2.746   0.653   1.090 -0.5629 -0.3561 -1.3117
    4MOL0     H  501   2.471   0.678   1.259  1.5935  1.4061 -0.5018
    4MOL0     H  502   2.387   0.583   1.128 -0.0007 -1.1526  0.8244
    4MOL0     H  503   2.551   0.555   1.174 -2.2482 -0.7795  1.0745
    4MOL0     H  504   2.104   0.791   0.720  0.7630  1.6029 -0.0379
    4MOL0     H  505   1.858   0.793   0.692  0.3006  3.7933 -1.8419
    4MOL0     H  506   1.662   0.966   0.675 -0.9752 -0.7669 -1.9474
    4MOL0     H  507   1.634   0.795   0.702  0.1849 -1.4033  1.2720
    4MOL0     H  508   1.450   1.009   0.795 -2.5547  0.2301  0.2687
    4MOL0     H  509   1.451   0.920   0.642  1.4407 -2.8274 -0.0687
    4MOL0     H  510   1.456   0.763   0.904  0.0352 -0.8090 -1.1054
    4MOL0     H  511   1.382   0.711   0.758 -3.0029  1.0899 -0.8566
    4MOL0     H  512   1.249   0.912   0.944 -1.0812  1.8952 -0.9279
    4MOL0     H  513   1.194   0.866   0.785 -1.3649  0.1933  1.4014
    4MOL0     H  514   1.273   0.654   0.978 -0.6382  1.7140  0.7446
    4MOL0     H  515   1.156   0.630   0.843 -4.7323  3.7625 -2.8252
    4MOL0     H  516   1.053   0.656   1.091  1.8433 -1.3004 -0.4827
    4MOL0     H  517   1.103   0.822   1.073 -0.9600  0.6505  0.5581
    4MOL0     H  518   0.917   0.697   0.871 -3.4355 -1.0318  2.0862
    4MOL0     H  519   0.965   0.873   0.905 -0.1856 -0.8744 -2.8609
    4MOL0     H  520   0.844   0.847   1.128 -2.4792  0.3778  0.6771
    4MOL0     H  521   0.818   0.684   1.113 -2.1963 -0.4701  0.1477
    4MOL0     H  522   1.846   1.050   1.037 -2.2527  0.1176 -1.4342
    4MOL0     H  523   2.099   0.995   1.070  1.3733  0.8147 -1.2140
    4MOL0     H  524   2.468   0.963   0.830  0.5586  0.2700 -0.7228
    4MOL0     H  525   2.709   0.966   0.808 -1.3685  0.9467  0.9164
    4MOL0     H  526   4.463   0.893   1.076  1.9518  1.5162  0.6860
    4MOL0     H  527   4.711   0.883   1.063 -2.1253 -1.3373  1.4657
    4MOL0     H  528   5.062   0.765   0.813 -0.9779  0.4789  0.1420
    4MOL0     H  529   5.309   0.755   0.796  2.1262  0.4799 -0.2144
    4MOL0     H  530   5.486   0.801   0.879 -3.7530  1.3712 -1.7359
    4MOL0     H  531   5.613   0.814   0.759  1.2993 -2.1675  4.0597
    4MOL0     H  532   5.719   0.853   0.942  0.9600  0.8568 -1.7872
    4MOL0     H  533   5.590   0.953   1.016  0.1648 -1.7702  0.7346
    4MOL0     H  534   5.806   1.075   0.955 -0.4003 -1.1378  0.7535
    4MOL0     H  535   5.645   1.146   0.891 -0.3159 -0.1374 -0.0592
    4MOL0     H  536   5.811   1.181   0.732 -1.2756  0.4036 -0.0897
    4MOL0     H  537   5.724   1.040   0.679  0.8401  2.9992 -2.0899
    4MOL0     H  538   6.117   0.893   0.786 -0.4928  0.1091  2.8314
    4MOL0     H  539   5.302   1.193   0.741  0.0234  0.3744  1.7684
    4MOL0     H  540   5.079   1.191   0.791  0.3605  1.6335  1.3556
    5MOL0     O  541  10.108   5.887   5.761 -0.1519  0.2446  0.0023
    5MOL0     C  542  10.129   5.931   5.875 -0.1916 -0.1278  0.6021
    5MOL0     O  543  10.125   6.060   5.907 -0.2321  0.4195 -0.3362
    5MOL0     C  544  10.122   6.154   5.802 -0.1279  0.3305 -0.9115
    5MOL0     C  545  10.228   6.184   5.716 -0.0396 -0.9107  0.3212
    5MOL0     C  546  10.214   6.292   5.629  0.2447  0.5039  0.4378
    5MOL0     C  547  10.099   6.372   5.634  0.9034 -0.6157 -0.1120
    5MOL0     O  548  10.093   6.481   5.546 -0.5351  0.3129 -0.5267
    5MOL0     C  549  10.006   6.592   5.570  0.2638 -0.0985  0.7006
    5MOL0     C  550  10.053   6.678   5.680  0.0974  0.1306 -0.7444
    5MOL0     C  551   9.962   6.805   5.694  0.6102  0.0104 -0.1985
    5MOL0     C  552   9.812   6.772   5.710  0.7706  0.7450  0.2845
    5MOL0     C  553   9.760   6.888   5.800 -0.5830  0.2006  0.7223
    5MOL0     C  554   9.607   6.899   5.824  0.0921  0.5487 -0.2079
    5MOL0     C  555   9.564   7.007   5.914 -0.0906  0.2400 -0.0824
    5MOL0     C  556   9.601   7.139   5.853 -0.6708 -0.4472 -0.1046
    5MOL0     N  557   9.485   7.179   5.773  0.4520  0.1253 -0.1814
    5MOL0     C  558   9.467   7.165   5.640 -0.2099  0.5156  0.3052
    5MOL0     C  559   9.333   7.190   5.617  0.0884 -0.4021 -0.2503
    5MOL0     C  560   9.272   7.229   5.489 -0.5610  0.2152  0.1756
    5MOL0     C  561   9.272   7.113   5.380 -0.7192 -0.4302  0.5342
    5MOL0     C  562   9.153   7.124   5.295  0.1590 -0.2171  0.1155
    5MOL0     C  563   9.032   7.062   5.372 -0.5700  0.3477  0.8581
    5MOL0     O  564   8.915   7.064   5.290 -0.3925 -0.0653  0.3311
    5MOL0     C  565   8.802   7.011   5.352  0.3123 -0.8753 -0.4416
    5MOL0     C  566   8.804   6.911   5.457 -0.0196  0.7677 -0.0297
    5MOL0     C  567   8.685   6.861   5.512 -0.1965 -0.6112  0.4938
    5MOL0     C  568   8.705   6.767   5.625 -0.9661  0.2814  0.6052
    5MOL0     C  569   8.560   6.913   5.470  0.5172  0.3941  0.8113
    5MOL0     C  570   8.434   6.857   5.518  0.8534  0.0359  0.7340
    5MOL0     O  571   8.323   6.876   5.444 -0.3424  0.4515 -0.3569
    5MOL0     C  572   8.198   6.873   5.485  0.6095 -0.3778  0.9685
    5MOL0     C  573   8.092   6.862   5.387 -0.6777 -0.0990 -0.0847
    5MOL0     C  574   7.960   6.858   5.417 -0.7384  0.4855 -0.2324
    5MOL0     C  575   7.921   6.889   5.543 -0.0948 -0.5415 -0.3861
    5MOL0     O  576   7.786   6.874   5.572  0.2410 -0.2292  0.1043
    5MOL0     C  577   7.743   6.815   5.697 -0.3271 -0.1511  0.6355
    5MOL0     C  578   7.603   6.777   5.695  0.6561 -0.2715  0.4585
    5MOL0     C  579   7.529   6.908   5.720  0.3992  0.6070  1.3902
    5MOL0     C  580   7.376   6.884   5.701 -0.1250  0.2610  0.5361
    5MOL0     C  581   7.331   6.836   5.563 -0.2384  0.2994 -0.4066
    5MOL0     C  582   7.185   6.825   5.533  0.8422  0.5880  0.3613
    5MOL0     C  583   7.116   6.703   5.587 -0.4078  0.7606  0.3725
    5MOL0     C  584   6.965   6.702   5.554 -0.4076  0.5733  0.3105
    5MOL0    Cl  585   6.879   6.841   5.622  0.3015 -0.5451  0.5942
    5MOL0     C  586   8.017   6.884   5.639  0.1694 -0.7202 -0.7641
    5MOL0     C  587   8.155   6.887   5.614  0.2341  0.3545 -0.7961
    5MOL0     O  588   8.437   6.785   5.616 -0.2669  0.0546 -0.6366
    5MOL0     C  589   8.559   7.003   5.361 -0.1923  0.0205 -0.1405
    5MOL0     C  590   8.680   7.061   5.312 -0.3752  0.1092 -0.1344
    5MOL0     N  591   9.276   7.240   5.741  0.4674  0.3306  0.5474
    5MOL0     N  592   9.368   7.227   5.836 -0.0700 -0.3679  0.7752
    5MOL0     C  593   9.996   6.346   5.730  0.1540  0.5375  0.2881
    5MOL0     C  594  10.005   6.230   5.806 -0.3253  0.5350  0.2274
    5MOL0     C  595  10.152   5.829   5.983 -0.0965  0.4106  0.6037
    5MOL0     C  596  10.139   5.689   5.955 -0.7454 -0.0748 -0.4201
    5MOL0     C  597  10.147   5.588   6.054  0.1597  0.1315  0.7141
    5MOL0     C  598  10.167   5.630   6.191  0.3667 -0.5728 -0.8622
    5MOL0     O  599  10.173   5.553   6.305  0.2397  0.0863  0.0942
    5MOL0     C  600  10.173   5.410   6.303  0.7114  0.7176  0.1722
    5MOL0     C  601  10.286   5.341   6.235  0.2898  0.5459  0.0523
    5MOL0     C  602  10.418   5.358   6.304  0.2671  0.0713 -0.3967
    5MOL0     C  603  10.508   5.456   6.235 -0.3487 -0.3773 -0.3631
    5MOL0     C  604  10.637   5.484   6.306 -0.8410  1.0758 -0.8009
    5MOL0     C  605  10.750   5.503   6.345  0.6055  0.2055 -0.1241
    5MOL0     C  606  10.173   5.768   6.211 -0.7131  0.2849 -0.3747
    5MOL0     C  607  10.170   5.863   6.117  0.3092 -0.0181  0.0122
    5MOL0     H  608  10.322   6.130   5.701  0.4426  0.5073 -2.3390
    5MOL0     H  609  10.285   6.321   5.553 -2.0560  2.0239 -1.2711
    5MOL0     H  610   9.995   6.652   5.479 -0.2216 -2.3155 -0.7839
    5MOL0     H  611   9.908   6.548   5.589  0.9485 -2.0691 -0.0970
    5MOL0     H  612  10.053   6.625   5.776  1.5468  1.4267  0.0095
    5MOL0     H  613  10.160   6.697   5.677  0.9067 -2.3643  3.4551
    5MOL0     H  614  10.002   6.851   5.785  3.2394 -0.4962 -1.0021
    5MOL0     H  615   9.976   6.882   5.618 -1.4321  0.8940  0.2477
    5MOL0     H  616   9.755   6.767   5.617 -2.3853 -0.0458  2.1236
    5MOL0     H  617   9.798   6.677   5.761 -2.5592  1.0265  0.1040
    5MOL0     H  618   9.812   6.877   5.896  0.7742 -0.5777 -0.0663
    5MOL0     H  619   9.807   6.979   5.760 -1.3560  0.6477  0.8075
    5MOL0     H  620   9.561   6.911   5.725  0.5657 -0.7684 -0.6065
    5MOL0     H  621   9.587   6.802   5.871  0.6338 -0.0074 -1.0842
    5MOL0     H  622   9.456   7.000   5.926 -0.3742 -0.7888 -2.5656
    5MOL0     H  623   9.609   6.990   6.012  1.5398 -1.0530 -0.9978
    5MOL0     H  624   9.692   7.139   5.793 -0.3972 -1.6176  0.2912
    5MOL0     H  625   9.612   7.206   5.938 -0.1386 -2.6702  1.6896
    5MOL0     H  626   9.553   7.150   5.575 -1.8991 -3.4912 -1.3478
    5MOL0     H  627   9.167   7.260   5.496 -1.2534 -1.4221 -1.7943
    5MOL0     H  628   9.327   7.315   5.451 -0.2973  1.3063  2.8365
    5MOL0     H  629   9.275   7.013   5.424  0.7475  0.1983  1.9566
    5MOL0     H  630   9.363   7.114   5.320 -2.1087 -2.0626 -1.7191
    5MOL0     H  631   9.174   7.079   5.197 -1.5529  1.5452 -1.1345
    5MOL0     H  632   9.127   7.229   5.277  2.4070  0.9454  2.9403
    5MOL0     H  633   9.014   7.112   5.467 -0.9489 -0.9958  1.5259
    5MOL0     H  634   9.055   6.959   5.403  0.6582  1.0576  2.4423
    5MOL0     H  635   8.900   6.877   5.495 -1.1745 -1.1723  1.2888
    5MOL0     H  636   8.808   6.766   5.663  0.1003  1.8881 -1.9626
    5MOL0     H  637   8.648   6.790   5.716 -0.4164 -0.2352  1.0937
    5MOL0     H  638   8.684   6.666   5.588  0.3101  0.3261 -0.3181
    5MOL0     H  639   8.116   6.843   5.283 -2.0347  0.2247 -0.4761
    5MOL0     H  640   7.892   6.817   5.344 -0.1093  1.0173 -1.1342
    5MOL0     H  641   7.806   6.728   5.715  0.9135  0.1583 -1.7906
    5MOL0     H  642   7.752   6.877   5.786 -2.3835  1.5431 -0.2478
    5MOL0     H  643   7.580   6.726   5.601  2.2848  2.0065 -1.2985
    5MOL0     H  644   7.597   6.711   5.783  4.7363  0.4450  1.4475
    5MOL0     H  645   7.549   6.986   5.646 -1.8298 -0.3994 -0.3989
    5MOL0     H  646   7.548   6.948   5.820  0.1907  3.3785  0.3923
    5MOL0     H  647   7.337   6.820   5.780 -0.5876  0.0188  0.1182
    5MOL0     H  648   7.326   6.980   5.719 -0.9650  0.3962 -2.1313
    5MOL0     H  649   7.380   6.740   5.547 -0.3282  0.5112 -2.1222
    5MOL0     H  650   7.369   6.905   5.487  0.4690 -0.4459 -0.7481
    5MOL0     H  651   7.135   6.916   5.568  1.5202  0.3293  2.1274
    5MOL0     H  652   7.182   6.825   5.424  1.2626 -0.5044  0.3360
    5MOL0     H  653   7.144   6.691   5.693  1.9514 -2.0466 -0.4263
    5MOL0     H  654   7.145   6.617   5.526 -0.8702 -0.7133  2.1242
    5MOL0     H  655   6.925   6.608   5.592  1.6572 -0.9262 -1.0356
    5MOL0     H  656   6.957   6.712   5.445  3.0248  1.5282  0.0287
    5MOL0     H  657   7.985   6.887   5.743 -0.1679  1.4935 -0.8931
    5MOL0     H  658   8.237   6.888   5.685  2.2560  1.3053 -2.9906
    5MOL0     H  659   8.474   7.033   5.301  1.0473  1.4015 -1.2747
    5MOL0     H  660   8.678   7.128   5.227  0.0787  0.6365  0.2639
    5MOL0     H  661   9.903   6.402   5.725 -0.1178 -0.0392 -2.3273
    5MOL0     H  662   9.927   6.201   5.876 -0.4206 -0.2099 -0.1831
    5MOL0     H  663  10.124   5.664   5.850  0.3252  0.9917 -0.8675
    5MOL0     H  664  10.146   5.486   6.017 -0.5298  0.0037  1.0755
    5MOL0     H  665  10.167   5.366   6.403  1.2548 -2.1859 -0.9694
    5MOL0     H  666  10.085   5.370   6.251  0.6082  0.0016  0.8711
    5MOL0     H  667  10.296   5.365   6.128  1.5740 -1.2467 -0.2717
    5MOL0     H  668  10.261   5.235   6.237 -0.3734  0.7068  1.1783
    5MOL0     H  669  10.459   5.259   6.326 -0.4722  0.2522  2.0893
    5MOL0     H  670  10.410   5.394   6.407 -1.0177 -2.6172  0.5580
    5MOL0     H  671  10.455   5.551   6.227 -2.0904 -1.3822 -1.3239
    5MOL0     H  672  10.529   5.426   6.132 -0.4709  2.5215 -1.3267
    5MOL0     H  673  10.849   5.532   6.373 -0.0433  0.6425  1.8741
    5MOL0     H  674  10.183   5.798   6.315  0.0867 -0.5299 -0.2065
    5MOL0     H  675  10.174   5.969   6.138 -0.2169  0.8407 -3.4781
    6MOL0     O  676   3.215   0.800   2.936 -0.7871  0.2411 -0.3640
    6MOL0     C  677   3.200   0.739   3.039  0.0259 -0.2105 -1.2355
    6MOL0     O  678   3.105   0.760   3.134 -0.2351  0.5589  0.8268
    6MOL0     C  679   2.994   0.819   3.088  0.2569 -0.3907  1.0976
    6MOL0     C  680   2.874   0.765   3.125  0.8431 -0.1616  0.9123
    6MOL0     C  681   2.753   0.817   3.075 -1.0710  0.4675 -0.6427
    6MOL0     C  682   2.747   0.932   2.998  0.5107 -0.4203  0.0305
    6MOL0     O  683   2.627   0.975   2.942  0.8652  0.0312 -0.3376
    6MOL0     C  684   2.550   1.055   3.045 -0.9034  0.2983  0.0666
    6MOL0     C  685   2.397   1.066   2.998 -0.2550  0.8765 -0.3023
    6MOL0     C  686   2.315   1.153   3.088  0.4960 -0.7096  0.5179
    6MOL0     C  687   2.168   1.146   3.043  0.0978  0.0141  0.3130
    6MOL0     C  688   2.092   1.262   3.105  0.3702  0.2779  0.6643
    6MOL0     C  689   2.069   1.248   3.259 -0.3955  0.3614 -0.0651
    6MOL0     C  690   1.975   1.360   3.306  0.6602  0.4507  0.9303
    6MOL0     C  691   1.943   1.363   3.458  0.3829  0.0433  0.4367
    6MOL0     N  692   1.884   1.237   3.500 -0.7682 -0.0122  0.2533
    6MOL0     C  693   1.745   1.222   3.521  0.1808  0.3726  0.1396
    6MOL0     C  694   1.738   1.105   3.603  0.2564 -0.7922 -0.2341
    6MOL0     C  695   1.607   1.052   3.668 -0.2310  0.4807 -1.3542
    6MOL0     C  696   1.538   0.959   3.567  1.0075 -0.3216  0.3570
    6MOL0     C  697   1.479   1.015   3.433  0.0242  0.9363 -0.1363
    6MOL0     C  698   1.406   1.148   3.459 -0.0744 -0.1095 -0.3408
    6MOL0     O  699   1.336   1.175   3.333  0.0962  0.5699 -0.1070
    6MOL0     C  700   1.230   1.255   3.331  0.1726  0.4805  0.7340
    6MOL0     C  701   1.155   1.263   3.211 -0.0582  0.1914  0.3601
    6MOL0     C  702   1.043   1.342   3.198  0.4935  0.4498 -0.1236
    6MOL0     C  703   0.985   1.370   3.055  0.7439  0.4022  0.3308
    6MOL0     C  704   1.011   1.430   3.304  0.4589 -0.0910  0.7100
    6MOL0     C  705   0.897   1.518   3.306 -0.0663  0.6870 -0.2483
    6MOL0     O  706   0.823   1.507   3.425 -0.3501  0.0441 -0.3603
    6MOL0     C  707   0.707   1.581   3.429 -0.9762 -0.3822  0.0317
    6MOL0     C  708   0.594   1.546   3.353 -0.6202  0.2537  1.0546
    6MOL0     C  709   0.476   1.621   3.358 -0.0273 -0.4455  0.1173
    6MOL0     C  710   0.472   1.741   3.432  0.0484  0.3312 -0.9817
    6MOL0     O  711   0.354   1.807   3.442 -0.1150 -0.3035 -0.1059
    6MOL0     C  712   0.352   1.948   3.487 -0.3668  0.5840  0.6916
    6MOL0     C  713   0.217   2.012   3.478  0.3699 -0.2918  0.8182
    6MOL0     C  714   0.110   1.982   3.594 -0.1323  0.8172  0.0244
    6MOL0     C  715  -0.014   2.072   3.575  1.2963  1.0413 -0.2875
    6MOL0     C  716  -0.126   2.040   3.676  0.0501  0.1639  1.3377
    6MOL0     C  717  -0.264   2.100   3.649  0.4048  0.0067  0.2964
    6MOL0     C  718  -0.312   2.067   3.507  0.0791  0.0237 -0.0576
    6MOL0     C  719  -0.444   2.129   3.483 -0.6922  0.0455  0.3542
    6MOL0    Cl  720  -0.481   2.100   3.309  0.0221  0.2237 -0.2719
    6MOL0     C  721   0.590   1.777   3.506 -0.6204  0.7120  0.0452
    6MOL0     C  722   0.707   1.699   3.508  0.0871 -0.5293 -1.0375
    6MOL0     O  723   0.864   1.584   3.208 -0.3854 -0.3617 -0.2245
    6MOL0     C  724   1.078   1.413   3.425 -0.5882 -0.7814 -0.8754
    6MOL0     C  725   1.187   1.330   3.438 -1.1471 -0.6519 -0.2949
    6MOL0     N  726   1.869   1.062   3.622 -0.3091 -0.6031  0.1141
    6MOL0     N  727   1.955   1.143   3.567 -0.0104 -0.6500  0.6348
    6MOL0     C  728   2.865   1.004   2.962 -0.2238  0.0001 -0.5661
    6MOL0     C  729   2.989   0.944   3.008 -0.2604  0.1577  0.3761
    6MOL0     C  730   3.303   0.631   3.068  0.0453 -0.2469  0.4575
    6MOL0     C  731   3.396   0.594   2.972  0.1353  0.1833  0.1921
    6MOL0     C  732   3.476   0.492   3.005 -0.3929 -0.2569  0.7766
    6MOL0     C  733   3.468   0.421   3.129 -0.8856  0.1558  0.7605
    6MOL0     O  734   3.552   0.318   3.162 -0.1591 -0.8554 -0.2536
    6MOL0     C  735   3.684   0.307   3.102 -0.2771 -0.0845  0.1946
    6MOL0     C  736   3.788   0.207   3.171  1.0763 -0.2959  0.2800
    6MOL0     C  737   3.823   0.247   3.312  0.3645 -0.4504 -0.0639
    6MOL0     C  738   3.724   0.195   3.413 -0.0666  0.8066 -0.6919
    6MOL0     C  739   3.777   0.182   3.550 -0.2183 -0.0777 -0.4588
    6MOL0     C  740   3.837   0.167   3.657 -0.7410  0.4240  0.1874
    6MOL0     C  741   3.377   0.462   3.222  0.1486  0.1141 -0.5986
    6MOL0     C  742   3.288   0.564   3.189 -0.1120  0.0023 -0.2967
    6MOL0     H  743   2.887   0.678   3.189 -1.2411 -0.2858  1.2280
    6MOL0     H  744   2.657   0.768   3.081 -1.2926  0.8962 -0.6652
    6MOL0     H  745   2.557   1.007   3.142  1.4173 -1.3325 -0.8080
    6MOL0     H  746   2.598   1.153   3.051 -0.0164  0.0324 -1.7278
    6MOL0     H  747   2.409   1.108   2.897  0.5805 -1.6496 -1.3202
    6MOL0     H  748   2.361   0.963   2.995 -0.5987  1.0027 -2.6489
    6MOL0     H  749   2.323   1.120   3.192 -1.9844 -1.2035  0.6079
    6MOL0     H  750   2.354   1.255   3.079 -3.2981  0.8725  0.4669
    6MOL0     H  751   2.167   1.157   2.934  1.8359 -1.0971  0.1384
    6MOL0     H  752   2.120   1.050   3.068 -1.5517  0.8669  0.5326
    6MOL0     H  753   2.147   1.354   3.083 -0.9807  1.4232  1.9033
    6MOL0     H  754   1.997   1.257   3.052  1.6939  0.8514 -1.9731
    6MOL0     H  755   2.028   1.150   3.283 -0.0255  0.5636  1.5066
    6MOL0     H  756   2.163   1.250   3.314  0.4893 -1.5704 -1.3921
    6MOL0     H  757   2.013   1.460   3.282  2.5117 -0.4750 -0.3099
    6MOL0     H  758   1.881   1.344   3.254  0.6368 -0.7875  1.3291
    6MOL0     H  759   1.870   1.439   3.487 -0.1568 -0.7579  1.2154
    6MOL0     H  760   2.033   1.375   3.517  2.1228 -2.7987 -1.3586
    6MOL0     H  761   1.673   1.294   3.483 -0.0969  0.8835  1.5814
    6MOL0     H  762   1.656   1.008   3.755  3.2248  1.7586 -2.4842
    6MOL0     H  763   1.548   1.136   3.705  1.8605  1.2374  0.5551
    6MOL0     H  764   1.458   0.902   3.614  1.5080 -1.7247 -0.4171
    6MOL0     H  765   1.627   0.897   3.549  2.0701  0.5301  2.3394
    6MOL0     H  766   1.405   0.946   3.390 -0.6047  0.7577  1.1742
    6MOL0     H  767   1.557   1.031   3.358  1.0542 -0.2693  0.6418
    6MOL0     H  768   1.479   1.227   3.479  0.7335 -1.3492  2.0086
    6MOL0     H  769   1.337   1.133   3.543 -0.1824  2.4235  0.1004
    6MOL0     H  770   1.185   1.196   3.131  1.0710 -2.3951  2.7611
    6MOL0     H  771   1.024   1.302   2.979  0.5612  2.8071 -2.0885
    6MOL0     H  772   0.876   1.362   3.059  0.7292  0.6264  0.3975
    6MOL0     H  773   1.013   1.469   3.017 -0.4498  1.3242  1.7108
    6MOL0     H  774   0.599   1.466   3.279  0.4233  0.3421  1.0091
    6MOL0     H  775   0.389   1.593   3.300  0.5506 -0.9845 -0.5094
    6MOL0     H  776   0.375   1.972   3.591 -1.0563  0.2216  0.9347
    6MOL0     H  777   0.432   1.987   3.423 -0.5334 -0.8676 -0.4417
    6MOL0     H  778   0.242   2.117   3.495  2.6878 -0.7916  0.7592
    6MOL0     H  779   0.168   1.988   3.383  2.1155  1.2151 -0.5331
    6MOL0     H  780   0.160   2.005   3.688 -0.2828 -2.2034  0.9455
    6MOL0     H  781   0.083   1.876   3.590  1.4329  0.3876  0.1263
    6MOL0     H  782  -0.006   2.181   3.579 -0.6666  1.2378 -0.6747
    6MOL0     H  783  -0.042   2.051   3.471  1.5247 -0.0395 -0.1446
    6MOL0     H  784  -0.091   2.092   3.766  1.7682  1.5935 -0.0622
    6MOL0     H  785  -0.137   1.932   3.686 -0.1220 -0.2396 -2.1271
    6MOL0     H  786  -0.335   2.057   3.720  1.7375 -1.1053  1.0141
    6MOL0     H  787  -0.254   2.209   3.661 -0.6990  0.1005  0.4738
    6MOL0     H  788  -0.320   1.958   3.512  1.2311 -0.0734  0.0215
    6MOL0     H  789  -0.237   2.083   3.429 -1.2323  1.2774 -1.0988
    6MOL0     H  790  -0.430   2.237   3.493  0.4444 -0.0370 -0.1999
    6MOL0     H  791  -0.520   2.092   3.553  0.1726  0.4228  1.5296
    6MOL0     H  792   0.594   1.866   3.568 -0.3570  1.8105 -1.4934
    6MOL0     H  793   0.791   1.730   3.569  0.3383 -2.1749 -0.4926
    6MOL0     H  794   1.052   1.476   3.509  1.4983 -0.7822 -0.1832
    6MOL0     H  795   1.250   1.338   3.526 -1.7819  1.4584  0.0286
    6MOL0     H  796   2.878   1.080   2.886  0.3508 -1.2368 -1.7649
    6MOL0     H  797   3.086   0.988   2.984  0.1334 -0.9966 -0.2446
    6MOL0     H  798   3.399   0.649   2.878 -1.5568  2.9305  1.6012
    6MOL0     H  799   3.550   0.455   2.935  0.5181  0.8203  1.1439
    6MOL0     H  800   3.667   0.261   3.003  0.2191  1.1179 -0.4647
    6MOL0     H  801   3.733   0.404   3.090  0.0567 -0.1193  1.2550
    6MOL0     H  802   3.881   0.219   3.115 -0.4595  1.9112 -2.0790
    6MOL0     H  803   3.750   0.105   3.163  1.0839 -0.2110 -1.3735
    6MOL0     H  804   3.817   0.355   3.328 -1.8540 -0.4232 -0.7387
    6MOL0     H  805   3.926   0.213   3.330  0.6091 -0.7847 -1.9197
    6MOL0     H  806   3.706   0.091   3.385 -0.1884  0.8617 -0.8199
    6MOL0     H  807   3.626   0.244   3.422 -0.5673 -0.5046  2.1776
    6MOL0     H  808   3.896   0.146   3.744  0.8291 -0.6775 -1.0731
    6MOL0     H  809   3.375   0.409   3.317  1.8010 -1.7340 -1.5090
    6MOL0     H  810   3.221   0.592   3.269 -1.2700 -2.9812 -0.1010
    7MOL0     O  811   8.149   9.858   4.791 -0.2047  0.1281 -0.4707
    7MOL0     C  812   8.207   9.889   4.689  0.2175 -0.2925 -0.7077
    7MOL0     O  813   8.143   9.957   4.590 -0.6078 -0.3149  0.1424
    7MOL0     C  814   8.009   9.945   4.587  0.0942 -0.0288 -0.0103
    7MOL0     C  815   7.936  10.057   4.631 -0.6254  1.0384  0.0313
    7MOL0     C  816   7.798  10.057   4.620  0.6180  0.1664 -0.2746
    7MOL0     C  817   7.731   9.951   4.557  0.6367  0.3312  0.8517
    7MOL0     O  818   7.593   9.939   4.549 -0.2955 -0.0428 -0.3404
    7MOL0     C  819   7.520  10.011   4.646 -0.0748 -0.0574 -0.1536
    7MOL0     C  820   7.378   9.958   4.641  0.1430 -0.0225 -0.3906
    7MOL0     C  821   7.272  10.066   4.684  0.1804 -0.5047  0.1013
    7MOL0     C  822   7.137  10.005   4.684  0.0066  0.6896 -0.2801
    7MOL0     C  823   7.021  10.108   4.708  0.5867 -0.5175 -0.6612
    7MOL0     C  824   6.888  10.048   4.684 -0.3728 -0.2904 -0.4821
    7MOL0     C  825   6.775  10.139   4.736  0.2833 -0.5631 -0.6344
    7MOL0     C  826   6.758  10.272   4.657  0.3037  0.5188 -0.3764
    7MOL0     N  827   6.631  10.338   4.679  0.1638 -0.0166 -0.2704
    7MOL0     C  828   6.529  10.357   4.589  0.3074  0.0159  0.8386
    7MOL0     C  829   6.448  10.448   4.642  0.0436 -0.0013 -0.3477
    7MOL0     C  830   6.328  10.512   4.576 -0.8804 -0.1343 -0.0718
    7MOL0     C  831   6.234  10.417   4.506  0.9389  0.1180 -0.0578
    7MOL0     C  832   6.116  10.487   4.438  1.0704  0.5414  1.0703
    7MOL0     C  833   6.007  10.535   4.528  0.9458 -0.7314 -0.1236
    7MOL0     O  834   5.959  10.439   4.625  0.1007  0.1009  0.4783
    7MOL0     C  835   5.825  10.419   4.608 -0.3146  0.3897 -1.3914
    7MOL0     C  836   5.788  10.287   4.583 -0.6335  0.1310 -0.1113
    7MOL0     C  837   5.650  10.257   4.570  0.1757 -0.9123 -0.0478
    7MOL0     C  838   5.615  10.116   4.544  0.3222  0.4775 -0.1864
    7MOL0     C  839   5.554  10.360   4.583  1.1000 -0.3879 -0.1937
    7MOL0     C  840   5.404  10.338   4.567 -0.5787 -0.6504  0.2625
    7MOL0     O  841   5.334  10.408   4.664  0.5055 -0.0753  0.4061
    7MOL0     C  842   5.199  10.418   4.647  0.4639  0.0442 -0.4510
    7MOL0     C  843   5.121  10.390   4.762 -0.1204 -0.1881 -1.1497
    7MOL0     C  844   4.985  10.406   4.752  0.4902 -0.6684  0.6494
    7MOL0     C  845   4.923  10.473   4.642 -0.2106  0.5917  0.0706
    7MOL0     O  846   4.793  10.500   4.617  0.4602  0.4596  0.2122
    7MOL0     C  847   4.708  10.522   4.738  0.8542 -0.6855  1.1549
    7MOL0     C  848   4.564  10.568   4.689 -0.2126 -0.0056 -0.8656
    7MOL0     C  849   4.514  10.460   4.601 -0.1481 -0.0510 -0.0401
    7MOL0     C  850   4.367  10.487   4.542 -0.0078 -0.3360 -0.8633
    7MOL0     C  851   4.321  10.361   4.463 -0.2248 -0.1762  0.0844
    7MOL0     C  852   4.204  10.381   4.369 -0.1197 -0.2806 -0.9181
    7MOL0     C  853   4.182  10.252   4.286  0.2352 -0.1456 -0.5196
    7MOL0     C  854   4.047  10.238   4.219 -0.2204 -0.7132 -1.2381
    7MOL0    Cl  855   4.005  10.399   4.155  0.2167 -0.0927 -0.2908
    7MOL0     C  856   5.000  10.497   4.537  0.5678 -0.4543  0.2438
    7MOL0     C  857   5.134  10.462   4.523 -0.7634 -0.1340 -0.5542
    7MOL0     O  858   5.364  10.255   4.496  0.2641  0.3550  0.9262
    7MOL0     C  859   5.592  10.495   4.617 -0.4726 -0.0518  0.1508
    7MOL0     C  860   5.732  10.517   4.628 -0.0023  0.1960 -0.4923
    7MOL0     N  861   6.493  10.491   4.768 -0.6154 -0.5897  0.4737
    7MOL0     N  862   6.606  10.425   4.785 -0.4842 -0.1298  0.4544
    7MOL0     C  863   7.803   9.848   4.501  0.2312  0.3795 -0.1947
    7MOL0     C  864   7.941   9.852   4.512 -0.1839 -0.2588  0.5249
    7MOL0     C  865   8.349   9.855   4.672  0.5838 -1.0714  0.9932
    7MOL0     C  866   8.431   9.927   4.578 -0.7949  0.5852  0.4459
    7MOL0     C  867   8.563   9.887   4.564 -0.8782 -0.0212  0.9884
    7MOL0     C  868   8.621   9.775   4.635 -0.4714 -0.1685  0.2102
    7MOL0     O  869   8.746   9.719   4.620 -0.2057  0.2508  0.8774
    7MOL0     C  870   8.839   9.769   4.520 -0.1584  1.3460 -0.0485
    7MOL0     C  871   8.985   9.746   4.558 -0.8304 -0.0741  0.3345
    7MOL0     C  872   9.011   9.595   4.597 -0.5855  0.6877  0.0015
    7MOL0     C  873   9.000   9.582   4.751  0.6716 -0.8298 -0.2369
    7MOL0     C  874   9.056   9.449   4.789 -0.0434  0.9076  0.4960
    7MOL0     C  875   9.107   9.342   4.824  0.5830 -0.3359  0.2412
    7MOL0     C  876   8.542   9.710   4.726  0.8792 -1.0337  0.2957
    7MOL0     C  877   8.407   9.751   4.744 -0.2027 -1.0825  0.0536
    7MOL0     H  878   7.988  10.136   4.685  0.7204 -0.0948  0.4416
    7MOL0     H  879   7.746  10.141   4.666 -1.0009 -0.2495 -1.2459
    7MOL0     H  880   7.556   9.998   4.748 -1.1085  2.0187  0.5292
    7MOL0     H  881   7.524  10.118   4.623  4.7137 -0.1433 -0.7004
    7MOL0     H  882   7.359   9.916   4.542 -0.5623  1.5591 -0.9708
    7MOL0     H  883   7.375   9.883   4.720  2.0900  0.4003  0.1532
    7MOL0     H  884   7.296  10.100   4.786  0.5671 -0.1364 -0.1107
    7MOL0     H  885   7.281  10.147   4.612  1.7228  0.2709  1.1177
    7MOL0     H  886   7.114   9.961   4.586 -1.6820 -0.8297  0.7227
    7MOL0     H  887   7.123   9.932   4.764  1.3634 -1.2685 -1.7647
    7MOL0     H  888   7.030  10.149   4.809 -0.0242 -1.3600 -0.2536
    7MOL0     H  889   7.035  10.178   4.625  2.4725 -4.5149 -4.0541
    7MOL0     H  890   6.875  10.038   4.576  2.8088 -0.5295 -0.9449
    7MOL0     H  891   6.879   9.945   4.721 -0.5907  0.0300  0.3676
    7MOL0     H  892   6.682  10.085   4.713 -1.3415  1.2828  1.1688
    7MOL0     H  893   6.784  10.162   4.843 -2.5928  0.9422 -0.6028
    7MOL0     H  894   6.762  10.245   4.551  2.5151  1.1990 -0.5155
    7MOL0     H  895   6.845  10.335   4.675  3.8423 -3.1381 -2.8377
    7MOL0     H  896   6.527  10.314   4.489 -1.1527  0.5709  0.5998
    7MOL0     H  897   6.270  10.571   4.648  1.6798  2.3352  0.1359
    7MOL0     H  898   6.368  10.587   4.507  1.2107 -0.9285  0.2076
    7MOL0     H  899   6.197  10.351   4.586  1.6061  1.2692  1.2455
    7MOL0     H  900   6.283  10.352   4.433 -0.2212 -1.9748  0.9186
    7MOL0     H  901   6.072  10.411   4.372  1.0383  0.0377  1.6605
    7MOL0     H  902   6.145  10.572   4.375  0.3484  0.4784  0.6402
    7MOL0     H  903   5.927  10.577   4.467  0.8252  0.8434  1.0589
    7MOL0     H  904   6.039  10.623   4.585 -2.2441  1.3435 -1.2329
    7MOL0     H  905   5.861  10.207   4.576  1.5485  2.1124 -1.4465
    7MOL0     H  906   5.583  10.096   4.441  2.3842 -0.3334 -0.7175
    7MOL0     H  907   5.694  10.046   4.572 -1.3981 -1.4138  0.1750
    7MOL0     H  908   5.530  10.082   4.604  1.1964 -2.7604 -0.5738
    7MOL0     H  909   5.167  10.361   4.856 -2.4638  0.0073  0.1223
    7MOL0     H  910   4.928  10.361   4.833  0.4122 -1.2718  0.2667
    7MOL0     H  911   4.703  10.436   4.805  1.6404 -2.2719 -0.7155
    7MOL0     H  912   4.751  10.611   4.785 -0.1817  0.3173  0.2502
    7MOL0     H  913   4.507  10.580   4.781  1.1011  1.2558 -0.1666
    7MOL0     H  914   4.571  10.669   4.647  2.0849  0.3849  0.2609
    7MOL0     H  915   4.512  10.364   4.654 -1.0710  0.8034  1.5260
    7MOL0     H  916   4.572  10.442   4.510  0.9469 -0.1463  0.6672
    7MOL0     H  917   4.290  10.510   4.616  0.2144  1.3454 -1.1254
    7MOL0     H  918   4.373  10.567   4.468  1.0530 -1.4926 -2.0789
    7MOL0     H  919   4.291  10.289   4.540  0.1199 -1.2997 -0.8085
    7MOL0     H  920   4.403  10.317   4.406  1.1100  3.0596 -0.7137
    7MOL0     H  921   4.113  10.396   4.428 -1.0191  0.2967 -2.3959
    7MOL0     H  922   4.225  10.470   4.309  1.5600 -1.2436 -1.8382
    7MOL0     H  923   4.188  10.163   4.350 -0.9675 -1.2328 -1.8392
    7MOL0     H  924   4.265  10.248   4.214  0.2743 -1.7101 -0.4204
    7MOL0     H  925   3.974  10.210   4.295  1.2135  1.8250  1.2884
    7MOL0     H  926   4.051  10.178   4.128 -0.0792 -0.0135 -1.7024
    7MOL0     H  927   4.946  10.531   4.449 -0.0735  3.1829  1.8166
    7MOL0     H  928   5.196  10.476   4.435  2.0902  0.1847  1.3469
    7MOL0     H  929   5.516  10.568   4.644  0.2460 -0.5831  4.2965
    7MOL0     H  930   5.770  10.616   4.651 -0.3988  0.4982 -1.1161
    7MOL0     H  931   7.754   9.761   4.460 -1.1233  0.2813  1.5200
    7MOL0     H  932   7.992   9.775   4.454 -1.0601 -0.5867  0.1680
    7MOL0     H  933   8.390  10.009   4.520 -4.1350 -1.0316  0.2630
    7MOL0     H  934   8.623   9.944   4.494 -2.6376  2.3067  1.2553
    7MOL0     H  935   8.837   9.723   4.421  2.9384 -0.3738  0.5628
    7MOL0     H  936   8.825   9.876   4.505 -0.8814  1.1899 -0.5547
    7MOL0     H  937   9.009   9.809   4.645  1.2377 -0.9006  0.4284
    7MOL0     H  938   9.055   9.770   4.478  0.0251  0.5598  1.2455
    7MOL0     H  939   9.112   9.573   4.563  0.1939  2.1737  1.2175
    7MOL0     H  940   8.944   9.528   4.543 -1.6715  2.4085 -0.8959
    7MOL0     H  941   8.898   9.580   4.793  0.6791 -3.4291 -0.1585
    7MOL0     H  942   9.061   9.658   4.800  1.8511  0.0559 -2.8951
    7MOL0     H  943   9.149   9.245   4.843 -2.8487 -1.6762  1.7360
    7MOL0     H  944   8.574   9.626   4.787 -0.5428 -2.2070 -0.5037
    7MOL0     H  945   8.339   9.695   4.808 -1.1376  1.7197  1.6443
    8MOL0     O  946   3.086  11.025   9.401  0.2326  0.2179 -0.4488
    8MOL0     C  947   3.163  10.981   9.485  0.3891  0.9336 -0.8317
    8MOL0     O  948   3.151  10.989   9.616  0.3511 -0.5659 -0.3512
    8MOL0     C  949   3.037  11.057   9.659  0.1699  0.1113  0.1721
    8MOL0     C  950   2.926  10.988   9.706 -0.3837  0.8404  1.0550
    8MOL0     C  951   2.817  11.055   9.748 -0.0335  0.3282 -0.2060
    8MOL0     C  952   2.804  11.190   9.723  0.5384 -0.4249 -0.3711
    8MOL0     O  953   2.682  11.239   9.752 -0.0776  0.2281 -0.3840
    8MOL0     C  954   2.620  11.318   9.649  0.4828  0.6129  0.6550
    8MOL0     C  955   2.586  11.463   9.699 -0.2456 -0.1872 -0.0546
    8MOL0     C  956   2.547  11.550   9.575  0.1773  0.1145 -0.8068
    8MOL0     C  957   2.467  11.673   9.619  0.2077  0.7230  0.1595
    8MOL0     C  958   2.427  11.752   9.498  0.2034  0.3793  0.3079
    8MOL0     C  959   2.321  11.682   9.406 -0.6225 -0.2561 -0.4144
    8MOL0     C  960   2.237  11.791   9.326 -0.3343  0.2324 -0.5191
    8MOL0     C  961   2.330  11.860   9.218  0.3417 -0.7877  0.1449
    8MOL0     N  962   2.242  11.928   9.123  0.7056  0.4837 -0.3619
    8MOL0     C  963   2.180  12.040   9.139  0.5870 -0.4940 -0.4009
    8MOL0     C  964   2.113  12.069   9.019 -0.6057  0.5818 -0.7957
    8MOL0     C  965   2.042  12.193   8.977  0.8095 -0.2841 -0.5047
    8MOL0     C  966   1.892  12.188   9.015 -0.6436  0.0301 -0.7265
    8MOL0     C  967   1.823  12.084   8.918 -0.1140 -0.5972 -0.4813
    8MOL0     C  968   1.676  12.105   8.910 -0.4835  0.6681 -0.8018
    8MOL0     O  969   1.620  12.027   8.810 -0.1648 -0.2686  0.7426
    8MOL0     C  970   1.483  12.009   8.819 -0.8225 -0.2471 -0.2618
    8MOL0     C  971   1.431  11.927   8.710  0.0644  0.9429 -0.1882
    8MOL0     C  972   1.296  11.885   8.695 -0.1336 -0.2204  0.4593
    8MOL0     C  973   1.263  11.808   8.567 -0.0624 -0.0719  0.0994
    8MOL0     C  974   1.205  11.924   8.801  0.2454 -0.9033  0.2182
    8MOL0     C  975   1.058  11.889   8.796  0.9718  0.0858  0.4867
    8MOL0     O  976   0.988  11.953   8.888  0.0058  0.2164  0.0105
    8MOL0     C  977   0.856  11.972   8.883 -0.5795  0.7659 -0.1554
    8MOL0     C  978   0.797  11.963   9.009 -0.3927  0.6338 -0.5005
    8MOL0     C  979   0.655  11.971   9.012  0.5262  0.3112 -0.5306
    8MOL0     C  980   0.575  11.991   8.899 -0.6813  0.3601 -0.2299
    8MOL0     O  981   0.439  12.003   8.909 -0.2692 -0.2123  0.0346
    8MOL0     C  982   0.350  11.960   8.814 -0.0691 -1.0243  0.4168
    8MOL0     C  983   0.277  12.083   8.740 -0.8036 -0.9998  0.4587
    8MOL0     C  984   0.122  12.069   8.744  0.2461  0.4615  0.3455
    8MOL0     C  985   0.063  12.195   8.688  0.6810 -0.2376  0.0863
    8MOL0     C  986  -0.090  12.181   8.675 -0.0690 -0.2181  1.1709
    8MOL0     C  987  -0.131  12.111   8.542 -0.6844  0.1006 -0.9897
    8MOL0     C  988  -0.280  12.079   8.523  0.3662  0.1623  0.0612
    8MOL0     C  989  -0.309  12.003   8.392 -0.4443 -0.5746 -0.3700
    8MOL0    Cl  990  -0.491  11.969   8.404 -0.1163  0.3202  0.4573
    8MOL0     C  991   0.642  12.014   8.776  0.1487  0.1680 -0.0658
    8MOL0     C  992   0.778  11.988   8.769  0.4555  0.1258 -0.0633
    8MOL0     O  993   1.020  11.803   8.712  0.2643 -0.3778 -0.5223
    8MOL0     C  994   1.267  11.995   8.908 -0.7947  0.0456 -0.0214
    8MOL0     C  995   1.398  12.033   8.920 -0.0614  0.2163 -0.3718
    8MOL0     N  996   2.136  11.956   8.939  0.3665 -0.2691 -0.5648
    8MOL0     N  997   2.214  11.875   9.004 -0.3969 -0.8427  0.5313
    8MOL0     C  998   2.914  11.262   9.672 -0.4380 -1.0454  0.4080
    8MOL0     C  999   3.034  11.196   9.646  0.2790 -0.3696 -1.1956
    8MOL0     C 1000   3.279  10.912   9.437  0.5082  0.3587  0.3625
    8MOL0     C 1001   3.386  10.876   9.520 -0.3531  0.3696  0.3261
    8MOL0     C 1002   3.495  10.811   9.456  0.1181 -0.3318  0.5911
    8MOL0     C 1003   3.491  10.762   9.326  0.3227  0.2186  0.1134
    8MOL0     O 1004   3.597  10.698   9.268  1.1228  0.1019  0.7457
    8MOL0     C 1005   3.708  10.644   9.343  0.2790  0.2049  0.6042
    8MOL0     C 1006   3.786  10.537   9.271  0.1510  0.5668  0.4085
    8MOL0     C 1007   3.700  10.416   9.228 -0.5403 -0.3748 -0.0923
    8MOL0     C 1008   3.786  10.326   9.139  0.6387 -0.1855 -0.3874
    8MOL0     C 1009   3.877  10.230   9.201 -0.9439  0.1063 -0.4119
    8MOL0     C 1010   3.953  10.153   9.261  0.3243  0.6735  0.5081
    8MOL0     C 1011   3.379  10.794   9.247 -1.6665 -0.5616  0.7796
    8MOL0     C 1012   3.280  10.870   9.297 -0.5012  0.1022 -0.0129
    8MOL0     H 1013   2.933  10.879   9.706 -3.4113  0.5803  0.4944
    8MOL0     H 1014   2.739  11.009   9.807  0.7210  0.1245  0.6625
    8MOL0     H 1015   2.681  11.319   9.558  0.3165 -0.4148  0.5182
    8MOL0     H 1016   2.523  11.274   9.625 -0.1003  2.4558 -0.5154
    8MOL0     H 1017   2.497  11.454   9.762  0.6329  1.2657  1.4695
    8MOL0     H 1018   2.666  11.514   9.752 -1.3963 -0.6099  2.2376
    8MOL0     H 1019   2.636  11.579   9.518  0.5756  1.8372  0.5989
    8MOL0     H 1020   2.477  11.489   9.518 -2.2079  2.3854 -0.4711
    8MOL0     H 1021   2.374  11.653   9.673  0.4468  2.1026  1.1640
    8MOL0     H 1022   2.523  11.739   9.687  1.2491  1.1700 -1.0917
    8MOL0     H 1023   2.373  11.838   9.540 -4.1082 -0.9130 -2.0019
    8MOL0     H 1024   2.513  11.793   9.443 -1.2132  1.9035 -0.8726
    8MOL0     H 1025   2.363  11.610   9.336 -3.2603 -0.1586 -2.2427
    8MOL0     H 1026   2.243  11.628   9.461 -0.3294  1.2018  1.5764
    8MOL0     H 1027   2.158  11.726   9.287 -3.2373  1.6431  2.4928
    8MOL0     H 1028   2.190  11.866   9.391  2.1647 -0.6577  2.5908
    8MOL0     H 1029   2.392  11.789   9.162 -1.2075 -2.5963  0.6248
    8MOL0     H 1030   2.405  11.921   9.268  0.8054 -1.6233  0.4807
    8MOL0     H 1031   2.179  12.097   9.231  0.9645 -2.1308  0.6614
    8MOL0     H 1032   2.099  12.273   9.024  2.2508 -0.7335 -1.4318
    8MOL0     H 1033   2.047  12.192   8.868 -3.7094 -1.3910 -0.9025
    8MOL0     H 1034   1.852  12.290   9.006 -0.2775  0.0495 -2.2606
    8MOL0     H 1035   1.877  12.165   9.121 -1.5136  2.3008 -0.2865
    8MOL0     H 1036   1.841  11.983   8.957 -0.7042 -0.1919  0.8795
    8MOL0     H 1037   1.866  12.104   8.819  0.4777 -0.0639 -0.1240
    8MOL0     H 1038   1.662  12.212   8.891  2.1784  1.3270  0.5438
    8MOL0     H 1039   1.634  12.081   9.008  2.5241 -1.1863  0.1467
    8MOL0     H 1040   1.496  11.904   8.626 -0.1436 -1.1164  0.1756
    8MOL0     H 1041   1.341  11.818   8.491 -1.0695  0.2356 -0.9189
    8MOL0     H 1042   1.249  11.703   8.592 -0.1588  0.0060  0.3752
    8MOL0     H 1043   1.169  11.839   8.519 -0.0116 -1.9698 -1.3206
    8MOL0     H 1044   0.864  11.954   9.093  0.8388 -0.3561 -1.5385
    8MOL0     H 1045   0.620  11.954   9.114  1.6325  2.1393  0.2122
    8MOL0     H 1046   0.395  11.889   8.745 -1.6443 -2.1829  0.5184
    8MOL0     H 1047   0.275  11.898   8.863  1.2477 -1.3539  2.0705
    8MOL0     H 1048   0.299  12.169   8.804 -2.0463 -1.9257  2.2138
    8MOL0     H 1049   0.316  12.092   8.638  0.2831  1.9837  1.0325
    8MOL0     H 1050   0.095  12.055   8.849  0.9807  1.5246  0.6992
    8MOL0     H 1051   0.096  11.988   8.675 -0.4232  0.6887  0.3221
    8MOL0     H 1052   0.080  12.283   8.750 -1.8379  1.8182 -1.8932
    8MOL0     H 1053   0.098  12.213   8.586 -2.1567  1.4696 -0.6902
    8MOL0     H 1054  -0.145  12.276   8.675  0.0854  0.0092 -2.1134
    8MOL0     H 1055  -0.132  12.123   8.758  1.5633  1.3500  3.1947
    8MOL0     H 1056  -0.103  12.182   8.464  1.0264 -1.7172 -2.1037
    8MOL0     H 1057  -0.074  12.019   8.525  2.5218  2.1267 -1.9797
    8MOL0     H 1058  -0.327  12.177   8.511 -1.1139 -0.2982  1.5749
    8MOL0     H 1059  -0.322  12.021   8.606  1.3263  2.7110  2.4718
    8MOL0     H 1060  -0.248  11.913   8.383  3.2134  1.5481  0.9830
    8MOL0     H 1061  -0.288  12.072   8.310  0.5429 -0.0816  0.2844
    8MOL0     H 1062   0.572  12.037   8.696 -0.8115  1.1596  1.0191
    8MOL0     H 1063   0.829  11.968   8.675  0.5798 -1.5982  0.3361
    8MOL0     H 1064   1.204  12.020   8.993  0.5379  0.2456  0.9380
    8MOL0     H 1065   1.427  12.072   9.017 -1.6026  0.4065  0.0383
    8MOL0     H 1066   2.918  11.369   9.654  1.3656 -0.6244  2.8419
    8MOL0     H 1067   3.120  11.251   9.608  1.9953 -1.6872  0.5632
    8MOL0     H 1068   3.383  10.919   9.620 -1.3231 -0.8953  0.8641
    8MOL0     H 1069   3.586  10.799   9.512 -0.8125  0.3217  2.3231
    8MOL0     H 1070   3.769  10.730   9.372 -3.3396  2.6896  1.4667
    8MOL0     H 1071   3.677  10.594   9.435  0.7121  3.0390  2.4356
    8MOL0     H 1072   3.874  10.498   9.323  1.7011 -0.0209 -2.4931
    8MOL0     H 1073   3.824  10.579   9.178 -0.4735  0.2286 -0.0056
    8MOL0     H 1074   3.618  10.453   9.166  0.6966  0.8761 -1.0486
    8MOL0     H 1075   3.657  10.361   9.312 -0.7592 -3.8692 -2.2815
    8MOL0     H 1076   3.840  10.386   9.065  1.9592  1.1381  1.5325
    8MOL0     H 1077   3.714  10.265   9.085 -0.9789  3.9113 -3.3678
    8MOL0     H 1078   4.005  10.092   9.332 -0.1851  0.8265  1.0224
    8MOL0     H 1079   3.361  10.752   9.149 -0.7207 -0.1162  0.4036
    8MOL0     H 1080   3.183  10.872   9.247 -1.3258 -1.2713  1.4607
    9MOL0     O 1081   2.029   6.448   7.012  0.4608  0.4243  0.0365
    9MOL0     C 1082   2.150   6.459   7.044 -0.1477  0.4231  0.6559
    9MOL0     O 1083   2.204   6.428   7.169  0.7842 -0.1272 -0.1486
    9MOL0     C 1084   2.122   6.414   7.277  0.3227 -1.0934 -0.2313
    9MOL0     C 1085   2.134   6.317   7.375 -0.5646 -0.3104 -0.6830
    9MOL0     C 1086   2.049   6.320   7.487 -0.2339 -0.1456  0.8405
    9MOL0     C 1087   1.955   6.420   7.504 -0.0430  0.0840 -0.3813
    9MOL0     O 1088   1.895   6.413   7.622 -0.1906 -0.3356  0.1883
    9MOL0     C 1089   1.825   6.535   7.664 -0.0021 -0.8820  0.5718
    9MOL0     C 1090   1.768   6.523   7.809 -0.1378  0.3305 -0.2965
    9MOL0     C 1091   1.649   6.435   7.814 -0.1302  0.1687 -0.5770
    9MOL0     C 1092   1.575   6.422   7.948  0.2596  0.0139 -0.0647
    9MOL0     C 1093   1.449   6.333   7.918 -0.3524 -0.6490  0.1295
    9MOL0     C 1094   1.472   6.186   7.855 -0.3934 -0.5126 -0.8068
    9MOL0     C 1095   1.354   6.104   7.832 -0.2869  0.2732 -0.1124
    9MOL0     C 1096   1.252   6.178   7.738 -0.1998  0.1043 -0.4946
    9MOL0     N 1097   1.135   6.092   7.734  0.2780  0.6908  0.0814
    9MOL0     C 1098   1.122   5.961   7.686  0.1258  0.0681  0.1118
    9MOL0     C 1099   0.989   5.933   7.704  0.5012  0.2169 -0.3421
    9MOL0     C 1100   0.941   5.793   7.670 -0.2378  0.3597  0.3391
    9MOL0     C 1101   0.865   5.781   7.534  0.7692  0.1597 -0.1404
    9MOL0     C 1102   0.715   5.802   7.580 -0.7002  0.0396  0.4653
    9MOL0     C 1103   0.624   5.770   7.468 -0.5961 -0.9448  1.7135
    9MOL0     O 1104   0.616   5.890   7.372  0.1242  0.4359 -0.8199
    9MOL0     C 1105   0.502   5.886   7.302  0.5859 -0.4427  0.5962
    9MOL0     C 1106   0.462   5.791   7.220  1.3893  0.9552 -0.4419
    9MOL0     C 1107   0.336   5.788   7.160 -0.4547 -0.8911  0.5738
    9MOL0     C 1108   0.310   5.673   7.074  0.6039 -0.1189  0.2984
    9MOL0     C 1109   0.245   5.894   7.177 -0.6191 -0.4803 -0.1307
    9MOL0     C 1110   0.108   5.898   7.133 -0.3567 -0.3501  0.1211
    9MOL0     O 1111   0.042   6.014   7.172 -0.0356  0.2847  0.5674
    9MOL0     C 1112  -0.098   6.014   7.173 -0.3722 -0.5769  1.1986
    9MOL0     C 1113  -0.166   6.072   7.063  0.5496 -0.1553  0.5801
    9MOL0     C 1114  -0.307   6.051   7.052 -0.1125 -0.5245 -0.9986
    9MOL0     C 1115  -0.366   5.975   7.148  0.7363 -0.6172 -0.3393
    9MOL0     O 1116  -0.498   5.944   7.126 -0.5348 -0.7660 -0.4754
    9MOL0     C 1117  -0.584   5.979   7.236  0.0870  0.0034 -0.7105
    9MOL0     C 1118  -0.728   5.929   7.204 -0.6667  0.1385 -0.3652
    9MOL0     C 1119  -0.755   5.785   7.165  0.1316 -0.7943  0.8163
    9MOL0     C 1120  -0.907   5.763   7.152  0.0184  0.2743 -0.2771
    9MOL0     C 1121  -0.936   5.618   7.091 -0.0925  0.1272 -0.0795
    9MOL0     C 1122  -1.088   5.587   7.072  0.5369 -0.3241 -0.7007
    9MOL0     C 1123  -1.115   5.440   7.048  0.1618 -0.6491 -0.1437
    9MOL0     C 1124  -1.059   5.378   6.928 -0.1843 -0.5565  0.4665
    9MOL0    Cl 1125  -1.106   5.465   6.771 -0.0181 -0.3723 -0.3641
    9MOL0     C 1126  -0.301   5.929   7.257  0.0154  0.3187  0.2064
    9MOL0     C 1127  -0.162   5.950   7.269 -0.5178 -0.6059 -0.3821
    9MOL0     O 1128   0.052   5.805   7.081  0.7938 -0.0793  0.0579
    9MOL0     C 1129   0.292   6.009   7.256 -0.3650  0.5497  0.3517
    9MOL0     C 1130   0.421   6.004   7.317  0.9594 -0.1492 -0.2385
    9MOL0     N 1131   0.929   6.038   7.768 -0.5863  0.9222  0.1839
    9MOL0     N 1132   1.019   6.129   7.794 -0.0914 -0.2470 -0.0290
    9MOL0     C 1133   1.943   6.520   7.412  0.2618  0.6631 -0.0258
    9MOL0     C 1134   2.023   6.517   7.300 -1.1197 -0.1945 -0.4479
    9MOL0     C 1135   2.248   6.508   6.948  0.3504  0.0141  0.1749
    9MOL0     C 1136   2.251   6.485   6.811 -0.5941  0.6399 -0.1300
    9MOL0     C 1137   2.357   6.530   6.723 -0.4067 -0.9036 -0.1260
    9MOL0     C 1138   2.469   6.600   6.782  0.2278 -0.6364 -0.1900
    9MOL0     O 1139   2.584   6.634   6.714  0.5129 -0.5215  0.6534
    9MOL0     C 1140   2.610   6.607   6.571 -0.0989  0.3424 -0.1621
    9MOL0     C 1141   2.760   6.631   6.538 -0.1035 -0.3308  0.0298
    9MOL0     C 1142   2.845   6.523   6.606 -0.4293  0.0548 -0.3786
    9MOL0     C 1143   2.975   6.496   6.518  0.4344 -0.4346  0.4669
    9MOL0     C 1144   3.070   6.424   6.604 -0.1247  0.1749  0.0030
    9MOL0     C 1145   3.141   6.371   6.683  0.1959  0.0197 -1.1762
    9MOL0     C 1146   2.463   6.622   6.918  0.4886  0.2252 -0.8155
    9MOL0     C 1147   2.360   6.575   7.000 -0.5367  0.3512 -0.4416
    9MOL0     H 1148   2.221   6.254   7.358 -0.2208  0.4964 -2.0663
    9MOL0     H 1149   2.052   6.246   7.566 -2.4998  1.2521  2.3445
    9MOL0     H 1150   1.891   6.622   7.661 -0.7999 -0.3129 -1.0812
    9MOL0     H 1151   1.740   6.551   7.598  1.0287  1.5895 -0.2503
    9MOL0     H 1152   1.845   6.483   7.875 -1.2308 -1.0580  0.1689
    9MOL0     H 1153   1.735   6.621   7.845 -0.5975 -0.0375  0.3014
    9MOL0     H 1154   1.574   6.466   7.741  3.8765  2.0952 -4.3471
    9MOL0     H 1155   1.688   6.335   7.790 -1.1098  0.3275 -3.1436
    9MOL0     H 1156   1.641   6.379   8.024  2.5692 -1.1416 -2.5416
    9MOL0     H 1157   1.540   6.522   7.972 -2.5139 -0.0696 -3.0812
    9MOL0     H 1158   1.401   6.318   8.015  0.0644  2.0657  0.8340
    9MOL0     H 1159   1.376   6.387   7.858  0.2414 -2.1367 -2.0649
    9MOL0     H 1160   1.525   6.199   7.760 -0.2001  0.0352 -0.6277
    9MOL0     H 1161   1.541   6.129   7.919 -0.5708  2.0457  1.9098
    9MOL0     H 1162   1.393   6.013   7.784 -0.6776 -0.2925  0.6277
    9MOL0     H 1163   1.301   6.077   7.923 -0.2397 -3.8857 -1.0713
    9MOL0     H 1164   1.283   6.203   7.636  1.7863 -0.3158 -0.0389
    9MOL0     H 1165   1.216   6.271   7.783 -0.2409  0.7959 -1.8876
    9MOL0     H 1166   1.200   5.902   7.639 -1.2724 -2.3866  0.6743
    9MOL0     H 1167   1.034   5.737   7.655 -0.5006  0.1943 -0.7056
    9MOL0     H 1168   0.885   5.740   7.747  0.6098  0.2152  0.8722
    9MOL0     H 1169   0.887   5.680   7.498 -0.5119  0.2598 -1.2883
    9MOL0     H 1170   0.905   5.844   7.454 -0.2104 -0.9730 -1.5690
    9MOL0     H 1171   0.693   5.905   7.609 -1.9366 -0.0743 -0.0011
    9MOL0     H 1172   0.677   5.733   7.655 -3.6857 -0.8045 -1.6425
    9MOL0     H 1173   0.524   5.765   7.511 -0.9498  1.5376  1.3578
    9MOL0     H 1174   0.651   5.675   7.422 -0.0202  0.4145 -0.9503
    9MOL0     H 1175   0.527   5.707   7.198 -0.6560 -0.8886  0.1174
    9MOL0     H 1176   0.263   5.701   6.979  1.6064  2.4803  0.4916
    9MOL0     H 1177   0.406   5.624   7.057  1.9774  2.4642  0.1382
    9MOL0     H 1178   0.247   5.606   7.134  1.6347  0.2086  1.7998
    9MOL0     H 1179  -0.115   6.105   6.973 -0.1696  0.3093  0.3286
    9MOL0     H 1180  -0.368   6.064   6.962 -0.3746  3.9465 -0.4107
    9MOL0     H 1181  -0.553   5.928   7.328 -0.7096  1.0418  0.1575
    9MOL0     H 1182  -0.581   6.085   7.261  0.5464 -0.2595  0.4157
    9MOL0     H 1183  -0.793   5.956   7.288 -0.3226 -0.7618  0.2007
    9MOL0     H 1184  -0.746   5.997   7.120  2.7980  0.3701 -1.1045
    9MOL0     H 1185  -0.704   5.709   7.225  1.4674  1.2771  2.4847
    9MOL0     H 1186  -0.717   5.774   7.063  2.1818 -2.6889  1.6953
    9MOL0     H 1187  -0.951   5.767   7.252 -0.1008 -0.4833 -0.2963
    9MOL0     H 1188  -0.953   5.848   7.099 -4.3222 -2.2290 -0.9942
    9MOL0     H 1189  -0.908   5.536   7.158 -0.9623  1.6855  2.3022
    9MOL0     H 1190  -0.874   5.612   7.000  0.8329  2.7661  0.3025
    9MOL0     H 1191  -1.138   5.615   7.165  2.0508  0.1991 -0.0106
    9MOL0     H 1192  -1.135   5.644   6.992  1.3779  0.6531 -0.5215
    9MOL0     H 1193  -1.224   5.426   7.042  0.2395 -0.9420 -1.0811
    9MOL0     H 1194  -1.088   5.385   7.138  1.0244 -1.9572 -1.1673
    9MOL0     H 1195  -1.085   5.272   6.924 -0.4998 -0.4524 -0.4145
    9MOL0     H 1196  -0.953   5.389   6.950 -0.1462  1.8186 -0.5339
    9MOL0     H 1197  -0.355   5.872   7.332 -1.0656  0.8646 -0.1317
    9MOL0     H 1198  -0.103   5.899   7.344  0.4334  0.0371 -0.6817
    9MOL0     H 1199   0.229   6.096   7.273  0.3405  0.5104  3.8267
    9MOL0     H 1200   0.460   6.078   7.386  0.8306 -0.3894  0.0923
    9MOL0     H 1201   1.860   6.589   7.416 -0.8727 -0.5799 -1.0459
    9MOL0     H 1202   2.002   6.603   7.237 -1.8460  0.5451  0.7703
    9MOL0     H 1203   2.167   6.444   6.756 -0.5812 -0.4801  0.6646
    9MOL0     H 1204   2.353   6.527   6.615 -0.6802 -2.1550 -0.0971
    9MOL0     H 1205   2.558   6.515   6.543 -1.3054  1.6056 -2.2802
    9MOL0     H 1206   2.550   6.680   6.516 -0.2931  0.1460 -0.2109
    9MOL0     H 1207   2.794   6.730   6.571  0.7706 -0.6530  0.1159
    9MOL0     H 1208   2.770   6.629   6.429  2.5578  0.4384  0.1874
    9MOL0     H 1209   2.779   6.437   6.618  0.2812 -0.4044  0.4659
    9MOL0     H 1210   2.884   6.554   6.704 -3.1310 -1.6029  1.3311
    9MOL0     H 1211   3.025   6.593   6.510  0.4451 -0.4866 -0.1441
    9MOL0     H 1212   2.951   6.447   6.423  0.6338  0.4779 -0.0676
    9MOL0     H 1213   3.205   6.337   6.762  0.9110 -1.4336 -2.3383
    9MOL0     H 1214   2.535   6.694   6.956  2.0556  0.1693 -3.4170
    9MOL0     H 1215   2.363   6.601   7.106 -4.4579  2.6649 -0.7074
   10MOL0     O 1216   4.017   9.404   2.732  0.2194  0.3061  0.4709
   10MOL0     C 1217   4.008   9.358   2.845  0.1809 -0.5248 -0.6179
   10MOL0     O 1218   3.894   9.303   2.900 -0.6708  0.4417  0.4677
   10MOL0     C 1219   3.774   9.294   2.838  0.5474 -0.6695 -0.3620
   10MOL0     C 1220   3.718   9.388   2.752  0.1381  0.1857 -0.5292
   10MOL0     C 1221   3.584   9.371   2.708  0.3326 -0.9289  0.4778
   10MOL0     C 1222   3.505   9.261   2.738 -0.4000 -0.4959  0.0999
   10MOL0     O 1223   3.374   9.254   2.698  0.4436 -0.3545 -0.2053
   10MOL0     C 1224   3.286   9.160   2.739  0.7371  0.0770  0.4205
   10MOL0     C 1225   3.144   9.214   2.704  0.5666  0.2985  0.4938
   10MOL0     C 1226   3.133   9.182   2.555  0.3885  0.6765 -0.1100
   10MOL0     C 1227   3.022   9.271   2.490 -0.1365  0.2196  0.1395
   10MOL0     C 1228   3.085   9.396   2.430  0.6540  0.0590 -0.2631
   10MOL0     C 1229   2.981   9.469   2.346  0.1409 -0.4930 -0.4722
   10MOL0     C 1230   3.024   9.617   2.315  0.1513  0.9165  0.9829
   10MOL0     C 1231   3.131   9.630   2.203 -0.8011  0.6116  0.1158
   10MOL0     N 1232   3.086   9.587   2.073  0.3833 -0.4381 -0.9656
   10MOL0     C 1233   2.991   9.658   1.998 -0.2582  0.0997 -0.3775
   10MOL0     C 1234   2.998   9.601   1.879  0.6310 -0.3519 -1.1149
   10MOL0     C 1235   2.917   9.649   1.758  0.3174  0.6159 -0.9260
   10MOL0     C 1236   2.780   9.575   1.764 -1.0054  0.2784  0.1504
   10MOL0     C 1237   2.687   9.613   1.643 -0.2198 -0.0808 -0.9229
   10MOL0     C 1238   2.628   9.760   1.648  0.0558 -0.7960 -0.1170
   10MOL0     O 1239   2.529   9.782   1.537 -0.3354  0.2807 -0.1359
   10MOL0     C 1240   2.400   9.738   1.555 -0.8772 -0.2873  0.6596
   10MOL0     C 1241   2.336   9.694   1.668  0.3378 -0.8104 -0.2391
   10MOL0     C 1242   2.205   9.657   1.679 -0.1877  0.2554 -0.4305
   10MOL0     C 1243   2.158   9.615   1.817 -0.0860 -0.1637  0.2675
   10MOL0     C 1244   2.121   9.664   1.564 -0.1483  0.0351  0.5596
   10MOL0     C 1245   1.981   9.619   1.569  0.0799 -0.7618  0.0099
   10MOL0     O 1246   1.929   9.563   1.685  1.0164  0.2599 -0.5880
   10MOL0     C 1247   1.805   9.500   1.669  0.2466  0.3528 -1.0261
   10MOL0     C 1248   1.689   9.568   1.642  0.4239  0.2067  0.0723
   10MOL0     C 1249   1.564   9.506   1.625  0.1515  0.4885 -1.4037
   10MOL0     C 1250   1.560   9.366   1.653 -0.2301 -1.1162 -0.0769
   10MOL0     O 1251   1.446   9.288   1.641 -0.5112  0.2404  0.1146
   10MOL0     C 1252   1.334   9.357   1.571 -0.3139 -0.2380 -0.2659
   10MOL0     C 1253   1.216   9.257   1.544 -0.1071 -0.0427 -0.5555
   10MOL0     C 1254   1.086   9.330   1.514  0.8017  0.1545 -0.3000
   10MOL0     C 1255   1.091   9.482   1.450  0.5029  0.9382 -0.0132
   10MOL0     C 1256   0.954   9.545   1.413 -0.1915  0.2112  0.0495
   10MOL0     C 1257   0.878   9.470   1.306  0.0535  0.6398 -0.0541
   10MOL0     C 1258   0.724   9.488   1.311 -0.0407 -0.3832 -0.2211
   10MOL0     C 1259   0.644   9.390   1.224 -0.3446 -0.3650 -0.9917
   10MOL0    Cl 1260   0.484   9.435   1.244 -0.0030 -0.2222 -0.0506
   10MOL0     C 1261   1.681   9.296   1.677  0.1197  0.1387 -0.0374
   10MOL0     C 1262   1.798   9.364   1.690 -0.3632 -0.7090 -0.2884
   10MOL0     O 1263   1.926   9.620   1.458 -0.1638 -0.3446 -0.4022
   10MOL0     C 1264   2.181   9.710   1.446  0.6269  0.6371  0.1608
   10MOL0     C 1265   2.314   9.745   1.438  0.1437 -0.0531 -0.2385
   10MOL0     N 1266   3.070   9.487   1.886 -0.7356 -1.0162  0.5162
   10MOL0     N 1267   3.118   9.476   2.004 -0.3053 -0.1014  0.0107
   10MOL0     C 1268   3.563   9.168   2.823 -0.5175  0.5146  0.5488
   10MOL0     C 1269   3.692   9.184   2.873 -1.0242 -0.0652 -0.5221
   10MOL0     C 1270   4.128   9.370   2.933 -0.4911 -0.3826 -0.2393
   10MOL0     C 1271   4.256   9.406   2.879  0.6593 -0.6110 -0.0473
   10MOL0     C 1272   4.369   9.408   2.958  0.7125 -0.2457 -0.8448
   10MOL0     C 1273   4.357   9.371   3.095 -0.1764 -0.5629  0.1720
   10MOL0     O 1274   4.480   9.375   3.168 -0.5495  0.2306 -0.1678
   10MOL0     C 1275   4.484   9.327   3.305 -0.2711 -0.2722 -0.1417
   10MOL0     C 1276   4.485   9.453   3.387 -0.1649  0.4183  0.4768
   10MOL0     C 1277   4.609   9.545   3.359 -1.2205 -0.5151 -0.1588
   10MOL0     C 1278   4.609   9.665   3.449  0.1379  0.2278  0.1979
   10MOL0     C 1279   4.740   9.720   3.482  0.5759 -0.0890  1.1137
   10MOL0     C 1280   4.836   9.787   3.513 -0.0169  1.7966  0.1346
   10MOL0     C 1281   4.232   9.347   3.147 -0.7227  0.5453 -0.2298
   10MOL0     C 1282   4.121   9.334   3.068 -0.6364 -0.0112 -0.2505
   10MOL0     H 1283   3.764   9.483   2.727  2.7915 -0.6116  0.9131
   10MOL0     H 1284   3.529   9.453   2.662  0.2015 -0.6240  1.1553
   10MOL0     H 1285   3.289   9.058   2.699 -2.6321 -0.0945  0.2819
   10MOL0     H 1286   3.293   9.157   2.848 -3.8592  0.6893  0.9507
   10MOL0     H 1287   3.062   9.173   2.765 -4.4416  2.2385 -4.1138
   10MOL0     H 1288   3.121   9.318   2.732  1.1873 -0.4930  4.5635
   10MOL0     H 1289   3.227   9.203   2.503 -0.7698  3.2981 -1.3814
   10MOL0     H 1290   3.109   9.075   2.556 -0.1670  0.7798 -0.8624
   10MOL0     H 1291   2.975   9.213   2.410 -0.8420 -0.3595  0.9529
   10MOL0     H 1292   2.948   9.295   2.567  0.1414  2.2319 -0.1751
   10MOL0     H 1293   3.121   9.466   2.505 -0.2374  2.4813 -1.9785
   10MOL0     H 1294   3.168   9.365   2.367 -0.5649 -1.4809 -1.2082
   10MOL0     H 1295   2.944   9.409   2.263 -0.8362 -0.2320 -0.2414
   10MOL0     H 1296   2.896   9.477   2.415 -0.3539  1.4956 -1.2290
   10MOL0     H 1297   2.933   9.675   2.299 -0.6271 -0.3912  0.5159
   10MOL0     H 1298   3.066   9.666   2.404 -2.0481  0.9937  2.0402
   10MOL0     H 1299   3.219   9.567   2.222 -1.4755 -0.0410  1.1556
   10MOL0     H 1300   3.168   9.733   2.199 -0.0208  0.3576  0.5178
   10MOL0     H 1301   2.946   9.753   2.026 -1.2789 -0.4408 -0.1279
   10MOL0     H 1302   2.905   9.758   1.756 -0.9538  0.4833 -1.0422
   10MOL0     H 1303   2.970   9.617   1.667 -0.9247  0.7490 -1.7241
   10MOL0     H 1304   2.736   9.608   1.859  0.2124 -2.8615  1.9428
   10MOL0     H 1305   2.796   9.467   1.768 -1.2830  0.2727  1.7539
   10MOL0     H 1306   2.599   9.549   1.651 -0.3946  0.2378 -0.2685
   10MOL0     H 1307   2.738   9.587   1.549 -0.5814 -0.2721 -1.0654
   10MOL0     H 1308   2.709   9.832   1.634 -2.3731  3.0739  3.4641
   10MOL0     H 1309   2.585   9.787   1.745  2.0900  2.0348  0.1023
   10MOL0     H 1310   2.390   9.691   1.762 -2.4315  1.7607  1.6403
   10MOL0     H 1311   2.131   9.510   1.804 -2.4248  0.5563 -1.2948
   10MOL0     H 1312   2.225   9.637   1.901 -1.1302  0.8251  0.8673
   10MOL0     H 1313   2.070   9.673   1.846  1.2070  1.6485  0.7728
   10MOL0     H 1314   1.695   9.676   1.631 -1.5648  0.5178  1.4966
   10MOL0     H 1315   1.483   9.569   1.588  0.2957  2.0892  0.8292
   10MOL0     H 1316   1.302   9.435   1.640  1.0165  0.0650  0.0339
   10MOL0     H 1317   1.369   9.404   1.478 -1.0059  0.3189 -0.2487
   10MOL0     H 1318   1.252   9.199   1.459  3.1467  0.2351  0.4824
   10MOL0     H 1319   1.193   9.197   1.633  2.3548  1.4693  1.2125
   10MOL0     H 1320   1.019   9.352   1.597  1.1975  3.3007 -0.6686
   10MOL0     H 1321   1.031   9.266   1.445  0.9436  0.9157 -1.1406
   10MOL0     H 1322   1.143   9.540   1.527  2.2638 -1.3408  0.6452
   10MOL0     H 1323   1.156   9.485   1.362  1.4099  1.2131  0.6518
   10MOL0     H 1324   0.967   9.652   1.395  2.8445  0.5946  3.4799
   10MOL0     H 1325   0.892   9.534   1.502  0.1455  0.2208  0.2838
   10MOL0     H 1326   0.915   9.515   1.214  0.3037  1.7433  0.5594
   10MOL0     H 1327   0.904   9.364   1.301 -1.5148  0.3080 -3.8439
   10MOL0     H 1328   0.706   9.593   1.288 -0.9666 -0.1903  1.3067
   10MOL0     H 1329   0.703   9.474   1.417 -0.4669  1.7326  0.0169
   10MOL0     H 1330   0.657   9.288   1.262  0.1597 -0.3082 -1.0020
   10MOL0     H 1331   0.674   9.402   1.120  1.6632  1.6880 -0.2601
   10MOL0     H 1332   1.687   9.189   1.692 -1.0482  0.1998  1.0404
   10MOL0     H 1333   1.887   9.305   1.706  1.6749  2.1154 -0.5579
   10MOL0     H 1334   2.123   9.718   1.355  1.5165  2.1204 -0.3119
   10MOL0     H 1335   2.353   9.775   1.342 -1.2179  1.5033 -0.3494
   10MOL0     H 1336   3.508   9.077   2.844 -0.2660  0.5468  1.3736
   10MOL0     H 1337   3.721   9.109   2.946  1.1032  0.6967 -0.5072
   10MOL0     H 1338   4.269   9.434   2.775 -0.1209 -0.6128 -0.1505
   10MOL0     H 1339   4.471   9.437   2.935  0.9367  1.8699  2.1854
   10MOL0     H 1340   4.403   9.263   3.342 -1.7457  1.1460 -0.8208
   10MOL0     H 1341   4.579   9.281   3.336  0.5999  0.1825 -1.9914
   10MOL0     H 1342   4.484   9.415   3.489  2.9257 -1.8536 -0.2043
   10MOL0     H 1343   4.392   9.509   3.372  0.0902  0.6044 -0.5559
   10MOL0     H 1344   4.609   9.586   3.257  2.3006 -1.4051 -0.6632
   10MOL0     H 1345   4.701   9.488   3.378 -1.2243 -0.1774  0.9288
   10MOL0     H 1346   4.557   9.657   3.545  0.4683 -2.9486  0.2238
   10MOL0     H 1347   4.558   9.750   3.402 -0.1959 -0.5853 -0.9515
   10MOL0     H 1348   4.913   9.845   3.560  0.8756 -1.2914  2.9067
   10MOL0     H 1349   4.226   9.333   3.255  3.4803  0.6650  0.1893
   10MOL0     H 1350   4.026   9.300   3.110 -1.0487  0.0541 -1.1111
   11MOL0     O 1351  10.642   0.722   4.269  1.0312 -0.1576 -1.0667
   11MOL0     C 1352  10.611   0.654   4.173 -0.1014  0.0698  0.4352
   11MOL0     O 1353  10.495   0.673   4.106  0.6856  0.0824  0.3581
   11MOL0     C 1354  10.419   0.792   4.108  1.3949 -0.3579  0.3981
   11MOL0     C 1355  10.465   0.923   4.124  0.8512 -0.0304 -0.1321
   11MOL0     C 1356  10.387   1.036   4.115  0.0015  0.4324  0.2953
   11MOL0     C 1357  10.255   1.025   4.073  0.2228 -0.4030  0.4395
   11MOL0     O 1358  10.199   1.147   4.056 -0.0576  0.2558  0.0725
   11MOL0     C 1359  10.080   1.162   3.977  0.3049  0.3380 -0.2093
   11MOL0     C 1360  10.044   1.305   3.970 -0.7078  0.5667 -0.5054
   11MOL0     C 1361   9.974   1.343   3.839 -0.4317  0.4716 -0.3454
   11MOL0     C 1362   9.939   1.488   3.855  0.4238  0.7201 -0.3838
   11MOL0     C 1363   9.864   1.542   3.733  0.3572  0.5469 -0.5198
   11MOL0     C 1364   9.728   1.484   3.719 -0.5365  0.4145 -1.1513
   11MOL0     C 1365   9.663   1.533   3.587 -0.0621 -0.2605 -0.2356
   11MOL0     C 1366   9.516   1.506   3.595 -0.1119 -0.3514  0.0507
   11MOL0     N 1367   9.436   1.553   3.482 -0.6194 -0.4280 -0.1400
   11MOL0     C 1368   9.444   1.498   3.351 -0.6779 -0.0490 -0.5550
   11MOL0     C 1369   9.332   1.551   3.298 -0.0389 -0.3249  0.1225
   11MOL0     C 1370   9.291   1.536   3.156  0.1786 -1.1022 -0.2996
   11MOL0     C 1371   9.381   1.622   3.066 -0.4129  0.1090  0.3417
   11MOL0     C 1372   9.385   1.774   3.086 -0.1506 -0.0655  0.8913
   11MOL0     C 1373   9.249   1.839   3.060 -0.7610 -0.3124 -0.2063
   11MOL0     O 1374   9.272   1.983   3.048  0.0857  0.7187  0.1141
   11MOL0     C 1375   9.158   2.059   3.038  1.1902  0.4968 -0.1925
   11MOL0     C 1376   9.130   2.167   3.121 -0.4660 -1.2713 -0.3378
   11MOL0     C 1377   9.007   2.238   3.115  0.7362 -0.5154 -0.1378
   11MOL0     C 1378   8.989   2.351   3.210  0.5426  0.5726  0.5711
   11MOL0     C 1379   8.908   2.193   3.027  0.1055 -0.7338  0.3120
   11MOL0     C 1380   8.766   2.253   3.017  0.0828 -0.1851 -0.6068
   11MOL0     O 1381   8.689   2.216   2.915  0.0171 -0.0730  0.3844
   11MOL0     C 1382   8.557   2.253   2.932  0.2760 -0.1696 -0.3228
   11MOL0     C 1383   8.513   2.368   2.874  0.8374 -0.2111  0.4806
   11MOL0     C 1384   8.379   2.422   2.895 -0.3258 -0.0578  0.2791
   11MOL0     C 1385   8.287   2.340   2.955  0.1446 -0.0832  0.4917
   11MOL0     O 1386   8.155   2.379   2.982 -0.4882  0.8253 -0.3246
   11MOL0     C 1387   8.106   2.507   2.939  0.3234  0.0277 -0.8954
   11MOL0     C 1388   8.126   2.619   3.041 -0.3871  0.0066 -0.2054
   11MOL0     C 1389   8.050   2.740   3.012  0.0459 -0.1004  0.0746
   11MOL0     C 1390   8.073   2.856   3.122  0.3166  0.8963  0.0010
   11MOL0     C 1391   8.018   2.986   3.063 -1.0260 -0.0962  0.4770
   11MOL0     C 1392   8.042   3.099   3.158  0.0149  0.2027  0.4391
   11MOL0     C 1393   7.999   3.230   3.091 -0.4305  0.5358  0.1658
   11MOL0     C 1394   7.931   3.329   3.185  0.1224 -0.3544 -0.5580
   11MOL0    Cl 1395   7.794   3.251   3.265 -0.0767  0.1243  0.1317
   11MOL0     C 1396   8.331   2.219   3.008  0.0728 -0.7338  0.3570
   11MOL0     C 1397   8.466   2.177   3.005  0.0719 -0.3463  1.5568
   11MOL0     O 1398   8.724   2.328   3.102 -0.2480  0.2812 -0.1400
   11MOL0     C 1399   8.933   2.080   2.954 -0.0044  0.5898  0.6466
   11MOL0     C 1400   9.060   2.021   2.954 -0.0672  0.5389 -0.5833
   11MOL0     N 1401   9.263   1.634   3.386 -0.3166 -0.0018  0.3031
   11MOL0     N 1402   9.325   1.625   3.498 -0.0973  0.0009 -1.0613
   11MOL0     C 1403  10.202   0.900   4.050  0.1502  0.6209 -0.6604
   11MOL0     C 1404  10.282   0.776   4.072  0.2539  0.2463  0.3133
   11MOL0     C 1405  10.719   0.564   4.110  0.5806  0.2656  0.5043
   11MOL0     C 1406  10.726   0.553   3.970 -0.6876  0.1051 -0.3260
   11MOL0     C 1407  10.819   0.462   3.914 -0.3687 -0.9032  0.6072
   11MOL0     C 1408  10.896   0.376   3.994 -1.1121  0.4102  0.7537
   11MOL0     O 1409  10.984   0.283   3.955  0.1261 -0.1117  0.4438
   11MOL0     C 1410  10.989   0.241   3.813 -0.2718 -0.5109 -0.4516
   11MOL0     C 1411  11.114   0.301   3.740  0.1401 -0.2777  0.6519
   11MOL0     C 1412  11.094   0.445   3.698 -0.3467  0.4725 -0.9283
   11MOL0     C 1413  11.199   0.467   3.589  0.8697  0.7387 -0.3239
   11MOL0     C 1414  11.335   0.495   3.644  0.5309 -0.9379 -0.4117
   11MOL0     C 1415  11.444   0.517   3.694  0.4935 -0.7597  1.6700
   11MOL0     C 1416  10.881   0.386   4.133 -0.1404  1.1946  0.4220
   11MOL0     C 1417  10.794   0.484   4.195 -0.6760  0.6169  0.4126
   11MOL0     H 1418  10.568   0.939   4.154  0.0385  2.1558  1.7423
   11MOL0     H 1419  10.439   1.127   4.141  3.1810 -1.0176 -0.4222
   11MOL0     H 1420  10.101   1.122   3.877  1.5771  2.5671 -0.9097
   11MOL0     H 1421   9.992   1.113   4.018  0.3323 -0.0382 -0.5899
   11MOL0     H 1422   9.978   1.339   4.051 -0.8807  0.8578 -0.7619
   11MOL0     H 1423  10.137   1.362   3.964 -0.2919 -0.0632 -0.1633
   11MOL0     H 1424  10.046   1.327   3.759 -0.8410 -0.4873 -0.5368
   11MOL0     H 1425   9.892   1.271   3.832 -1.7404  1.7191  1.2292
   11MOL0     H 1426   9.869   1.499   3.938  2.8784  0.3076  1.9020
   11MOL0     H 1427  10.029   1.548   3.877  1.8546 -1.2007 -0.7572
   11MOL0     H 1428   9.846   1.650   3.744 -1.6110  0.1797  0.2378
   11MOL0     H 1429   9.920   1.517   3.642  0.6795 -2.0238  0.3010
   11MOL0     H 1430   9.723   1.375   3.710  2.6427 -0.0560  1.1489
   11MOL0     H 1431   9.670   1.509   3.808 -2.0587 -3.0648 -0.9998
   11MOL0     H 1432   9.678   1.639   3.566 -2.9595  0.7684  2.1929
   11MOL0     H 1433   9.708   1.471   3.509  1.9874 -0.7815  1.2558
   11MOL0     H 1434   9.463   1.550   3.680 -0.2001  1.3490 -0.8349
   11MOL0     H 1435   9.513   1.397   3.597  0.6054 -0.3615  1.4878
   11MOL0     H 1436   9.521   1.442   3.298 -1.0546  0.6336 -1.8599
   11MOL0     H 1437   9.294   1.431   3.128 -0.7981 -0.9182 -1.1558
   11MOL0     H 1438   9.186   1.568   3.156  0.1481 -0.7260  3.2072
   11MOL0     H 1439   9.353   1.609   2.961  0.2959  0.7636  0.0601
   11MOL0     H 1440   9.477   1.571   3.074 -0.2274  0.6232  1.8706
   11MOL0     H 1441   9.454   1.817   3.013 -3.1958  1.4256 -1.2748
   11MOL0     H 1442   9.412   1.784   3.192 -0.2820 -0.8901  1.0133
   11MOL0     H 1443   9.200   1.822   3.156  2.4591  1.0100  1.8435
   11MOL0     H 1444   9.204   1.794   2.971 -0.7675 -0.2240 -0.2475
   11MOL0     H 1445   9.213   2.195   3.185  1.1462 -0.2373 -2.7351
   11MOL0     H 1446   9.093   2.377   3.234  1.6939 -2.1895 -1.0100
   11MOL0     H 1447   8.942   2.441   3.169 -0.4443  0.7061  1.9445
   11MOL0     H 1448   8.934   2.323   3.300 -0.0137 -1.5162 -0.3648
   11MOL0     H 1449   8.590   2.428   2.827  0.6227 -0.7218 -0.5519
   11MOL0     H 1450   8.352   2.520   2.855 -0.1465  0.0000  0.2974
   11MOL0     H 1451   8.143   2.528   2.838 -1.7163 -2.7155 -2.3607
   11MOL0     H 1452   7.997   2.502   2.929 -0.2125  0.1787  3.2725
   11MOL0     H 1453   8.095   2.565   3.131  0.1892  2.0301  1.2835
   11MOL0     H 1454   8.230   2.651   3.056 -0.8930  0.3804  3.4662
   11MOL0     H 1455   7.943   2.719   3.023 -0.2316 -0.2293 -2.2705
   11MOL0     H 1456   8.069   2.777   2.911 -2.2381  1.2430  0.0425
   11MOL0     H 1457   8.023   2.828   3.215  1.2704 -1.0504 -0.0159
   11MOL0     H 1458   8.180   2.867   3.140 -0.1345  1.5701  2.6268
   11MOL0     H 1459   7.917   2.958   3.031 -0.2535 -1.0819 -1.2112
   11MOL0     H 1460   8.065   3.015   2.968  0.5859 -0.8321  1.0197
   11MOL0     H 1461   7.995   3.088   3.256  0.6766 -2.6674  0.5374
   11MOL0     H 1462   8.150   3.102   3.176  0.1495  0.1878 -0.3116
   11MOL0     H 1463   7.930   3.204   3.009 -0.5249 -2.1591  0.9965
   11MOL0     H 1464   8.090   3.272   3.049  0.9875 -0.2707  2.2816
   11MOL0     H 1465   7.912   3.421   3.130 -1.5175 -0.5928 -0.4425
   11MOL0     H 1466   8.002   3.367   3.260 -1.1225  0.2862  0.3228
   11MOL0     H 1467   8.256   2.167   3.067  0.2502  0.1853  1.4278
   11MOL0     H 1468   8.507   2.087   3.047  1.3593  0.1857  1.4696
   11MOL0     H 1469   8.850   2.047   2.892 -1.3548  2.1838  1.5127
   11MOL0     H 1470   9.060   1.932   2.893 -0.3843  0.4470 -0.4519
   11MOL0     H 1471  10.099   0.889   4.016  0.1491  0.7548 -0.6982
   11MOL0     H 1472  10.240   0.677   4.059  3.1683 -1.0584 -0.0155
   11MOL0     H 1473  10.654   0.610   3.913 -0.6957 -0.1972 -0.6190
   11MOL0     H 1474  10.828   0.439   3.808  2.6194 -2.6566  1.1414
   11MOL0     H 1475  11.002   0.132   3.814  0.7087 -0.4446 -2.2689
   11MOL0     H 1476  10.896   0.255   3.757  0.1894 -2.1824 -1.7161
   11MOL0     H 1477  11.128   0.239   3.652 -0.4826 -0.8050  0.9178
   11MOL0     H 1478  11.208   0.275   3.790  0.3139 -0.3371  0.2947
   11MOL0     H 1479  11.100   0.523   3.775  2.6354 -0.6625  0.1257
   11MOL0     H 1480  10.999   0.465   3.648  0.3441  1.9065 -1.7461
   11MOL0     H 1481  11.180   0.549   3.519 -1.2478  0.2019 -0.4427
   11MOL0     H 1482  11.213   0.371   3.538 -2.1047 -0.3640  0.7100
   11MOL0     H 1483  11.545   0.522   3.729  0.2441  0.9468  2.2299
   11MOL0     H 1484  10.939   0.313   4.189 -0.8667 -0.2067 -0.6122
   11MOL0     H 1485  10.795   0.485   4.304 -1.1624  2.6649  0.4339
   12MOL0     O 1486   1.948  11.211  10.448  0.7674  0.0874  0.0012
   12MOL0     C 1487   1.977  11.088  10.443 -0.0606 -0.2091  0.3795
   12MOL0     O 1488   1.901  10.986  10.500 -0.1458 -0.2929 -0.5545
   12MOL0     C 1489   1.794  11.007  10.572  0.5640  0.4344  0.0326
   12MOL0     C 1490   1.697  11.103  10.550  0.0864  0.4651 -0.0321
   12MOL0     C 1491   1.583  11.105  10.631  0.3649 -0.3783 -0.2318
   12MOL0     C 1492   1.557  11.009  10.727  0.6826  0.6192 -0.3742
   12MOL0     O 1493   1.444  10.989  10.803 -0.0802  0.1362  0.2621
   12MOL0     C 1494   1.352  11.096  10.794  0.7043  0.6617  0.5802
   12MOL0     C 1495   1.226  11.055  10.880 -0.4220  0.1724  0.3844
   12MOL0     C 1496   1.119  11.164  10.889  0.0740  0.1786 -0.3376
   12MOL0     C 1497   0.982  11.103  10.912 -0.8579 -0.6502 -0.4359
   12MOL0     C 1498   0.950  11.118  11.063  0.1676 -0.6116 -0.0785
   12MOL0     C 1499   0.824  11.049  11.107  0.2393 -0.1286  0.2316
   12MOL0     C 1500   0.696  11.125  11.053  0.3303 -0.0064  0.8065
   12MOL0     C 1501   0.567  11.089  11.124 -1.0704 -0.1074  0.6553
   12MOL0     N 1502   0.450  11.120  11.058 -0.4292  0.2007  0.0546
   12MOL0     C 1503   0.328  11.076  11.103  0.7372  0.4175 -0.3566
   12MOL0     C 1504   0.236  11.146  11.037  0.2408  0.2318 -0.7468
   12MOL0     C 1505   0.084  11.135  11.047  0.1669  0.1709  0.2998
   12MOL0     C 1506   0.013  11.197  10.925 -0.2160  0.2310  0.5220
   12MOL0     C 1507  -0.140  11.201  10.927 -0.1297  0.3176 -0.0720
   12MOL0     C 1508  -0.199  11.248  11.058 -0.2855  0.1633  1.0131
   12MOL0     O 1509  -0.344  11.279  11.046 -0.4256 -0.0951  0.7929
   12MOL0     C 1510  -0.439  11.188  11.037 -0.4432  0.4748  0.6242
   12MOL0     C 1511  -0.428  11.047  11.069 -0.3276 -0.7251 -0.5915
   12MOL0     C 1512  -0.543  10.962  11.061  0.3028  0.1849  1.0590
   12MOL0     C 1513  -0.504  10.815  11.078 -0.5441 -0.0150  0.3668
   12MOL0     C 1514  -0.668  11.009  11.034 -0.1701  0.0417 -0.5957
   12MOL0     C 1515  -0.792  10.930  11.031  0.2759  0.0590 -0.2181
   12MOL0     O 1516  -0.787  10.802  11.077 -0.3558 -0.0828 -0.1509
   12MOL0     C 1517  -0.882  10.718  11.019 -0.1474 -0.2779 -0.7759
   12MOL0     C 1518  -0.858  10.639  10.906 -0.3171  0.4201  0.6837
   12MOL0     C 1519  -0.940  10.533  10.867 -0.0410  0.0717 -0.5351
   12MOL0     C 1520  -1.060  10.512  10.938 -0.4943  0.3808  0.8229
   12MOL0     O 1521  -1.146  10.408  10.906 -0.1653  0.1135 -0.2518
   12MOL0     C 1522  -1.135  10.352  10.776 -0.5008 -0.2157  0.8179
   12MOL0     C 1523  -1.266  10.272  10.754 -0.0125 -0.0851  0.1065
   12MOL0     C 1524  -1.276  10.143  10.851 -0.2695 -0.4766  0.1261
   12MOL0     C 1525  -1.408  10.074  10.824  1.2239  0.2559 -0.0914
   12MOL0     C 1526  -1.442   9.949  10.907  0.0321  1.0190 -0.4407
   12MOL0     C 1527  -1.577   9.888  10.860  0.3776  0.0946  0.5584
   12MOL0     C 1528  -1.606   9.788  10.966  0.0010  0.2343 -0.1646
   12MOL0     C 1529  -1.673   9.855  11.089  0.4660  0.2268 -0.5736
   12MOL0    Cl 1530  -1.835   9.914  11.049  0.4466  0.4332 -0.2494
   12MOL0     C 1531  -1.098  10.593  11.045 -0.3586  0.5170  0.5879
   12MOL0     C 1532  -1.011  10.703  11.082 -0.6134  0.2912  0.3330
   12MOL0     O 1533  -0.893  10.981  10.986  0.1179  0.0539  0.9788
   12MOL0     C 1534  -0.666  11.139  10.985  0.5895 -1.1097  0.1668
   12MOL0     C 1535  -0.560  11.232  10.991 -0.2617  0.9769  0.5028
   12MOL0     N 1536   0.304  11.236  10.956  0.6659  0.3728  0.0409
   12MOL0     N 1537   0.430  11.216  10.967  1.1150 -0.1926  0.2253
   12MOL0     C 1538   1.657  10.916  10.763  0.7745  0.6701 -0.1456
   12MOL0     C 1539   1.778  10.913  10.680  0.0036 -0.2604 -0.1872
   12MOL0     C 1540   2.103  11.050  10.363  0.0926 -1.0231 -0.7204
   12MOL0     C 1541   2.174  10.933  10.397  0.5209 -0.0087 -0.7578
   12MOL0     C 1542   2.290  10.895  10.329  1.0538  0.6764 -0.1150
   12MOL0     C 1543   2.346  10.974  10.230  0.1120 -0.2242 -0.0789
   12MOL0     O 1544   2.468  10.943  10.173 -0.1721  0.4361  0.6044
   12MOL0     C 1545   2.578  11.019  10.221  0.0224 -0.1589 -0.0498
   12MOL0     C 1546   2.710  10.940  10.206 -1.0002  0.8386  0.0264
   12MOL0     C 1547   2.705  10.804  10.275 -0.1263  0.6028 -0.6524
   12MOL0     C 1548   2.840  10.758  10.324  0.3815 -0.1279 -0.0034
   12MOL0     C 1549   2.919  10.715  10.206  0.0339  0.7387 -0.4650
   12MOL0     C 1550   2.982  10.664  10.115 -0.2843 -0.8199  0.9994
   12MOL0     C 1551   2.267  11.093  10.192  0.7210 -0.0305  0.1191
   12MOL0     C 1552   2.154  11.131  10.262 -0.9665  0.2569 -0.7297
   12MOL0     H 1553   1.711  11.185  10.480 -0.1962  1.2122  0.7607
   12MOL0     H 1554   1.512  11.184  10.611  1.0795  0.0367 -1.2333
   12MOL0     H 1555   1.400  11.188  10.828  0.2574  1.2329 -0.3044
   12MOL0     H 1556   1.315  11.115  10.693 -0.2815  0.7316  0.9333
   12MOL0     H 1557   1.197  10.971  10.817  0.1711  0.2078  0.0515
   12MOL0     H 1558   1.247  11.026  10.984  2.0257  0.0729 -0.0750
   12MOL0     H 1559   1.141  11.237  10.968  1.6939 -1.0258  0.4084
   12MOL0     H 1560   1.107  11.211  10.791  1.1767  0.1270 -0.5114
   12MOL0     H 1561   0.906  11.155  10.852 -1.6892 -0.1139  1.0062
   12MOL0     H 1562   0.976  10.996  10.892 -0.0217 -0.5053 -1.5192
   12MOL0     H 1563   1.031  11.082  11.126  0.3980  1.0213  0.6283
   12MOL0     H 1564   0.942  11.226  11.081 -3.3996 -0.9137  0.9991
   12MOL0     H 1565   0.831  10.943  11.083  2.4182  0.0038  0.0245
   12MOL0     H 1566   0.825  11.056  11.216 -0.8875 -2.7698  0.4827
   12MOL0     H 1567   0.701  11.234  11.053 -2.0910  0.1810 -0.4170
   12MOL0     H 1568   0.691  11.093  10.948  1.1334 -0.4250  0.8839
   12MOL0     H 1569   0.579  11.143  11.219  2.4397 -0.7601  0.7234
   12MOL0     H 1570   0.570  10.982  11.146  3.2447 -0.7973 -2.2334
   12MOL0     H 1571   0.307  11.006  11.183 -0.8327 -2.0796 -2.7736
   12MOL0     H 1572   0.043  11.035  11.065 -0.3235  0.2541 -0.2983
   12MOL0     H 1573   0.060  11.187  11.140  0.1972 -2.0110  1.6081
   12MOL0     H 1574   0.037  11.156  10.827 -2.7365 -0.5134  0.1367
   12MOL0     H 1575   0.046  11.301  10.913 -1.0190  0.3175 -1.3677
   12MOL0     H 1576  -0.188  11.104  10.911 -0.6383  0.5650 -0.0418
   12MOL0     H 1577  -0.179  11.269  10.851  0.3299  1.8880  1.0623
   12MOL0     H 1578  -0.140  11.331  11.100  0.8664  0.1568 -0.4935
   12MOL0     H 1579  -0.182  11.165  11.127  1.5823 -0.9779 -0.7095
   12MOL0     H 1580  -0.331  11.016  11.108 -0.2563  1.3978  1.0915
   12MOL0     H 1581  -0.560  10.769  11.160  1.8592 -0.9151  1.5912
   12MOL0     H 1582  -0.532  10.763  10.986  1.5801  3.6277 -2.6274
   12MOL0     H 1583  -0.397  10.804  11.096  0.0492  1.3127 -1.9055
   12MOL0     H 1584  -0.763  10.645  10.854  0.9927 -1.4185  2.6714
   12MOL0     H 1585  -0.911  10.463  10.789 -0.5380 -0.0329 -0.6322
   12MOL0     H 1586  -1.146  10.425  10.695 -1.6969  2.5173  3.2367
   12MOL0     H 1587  -1.047  10.288  10.769 -0.0137  0.2446  2.1935
   12MOL0     H 1588  -1.354  10.332  10.779 -1.0725 -1.3738 -0.3673
   12MOL0     H 1589  -1.269  10.238  10.650  2.7157 -0.1492 -0.0086
   12MOL0     H 1590  -1.272  10.166  10.957 -1.9035 -1.0730  0.3501
   12MOL0     H 1591  -1.204  10.068  10.818 -0.4882 -0.9074  0.6221
   12MOL0     H 1592  -1.483  10.151  10.845  3.2446  1.8457  1.8282
   12MOL0     H 1593  -1.421  10.053  10.717 -1.1636  0.1254  0.1582
   12MOL0     H 1594  -1.461   9.988  11.008 -1.3845  4.6002 -1.9100
   12MOL0     H 1595  -1.359   9.879  10.919 -0.2673  0.8252  0.5997
   12MOL0     H 1596  -1.654   9.965  10.852 -1.4951 -1.7130  0.3857
   12MOL0     H 1597  -1.560   9.842  10.762  0.4717  0.4139  0.4246
   12MOL0     H 1598  -1.517   9.740  11.008  0.4793 -0.3228 -1.7505
   12MOL0     H 1599  -1.669   9.710  10.922  0.9882 -0.0658 -1.0835
   12MOL0     H 1600  -1.615   9.932  11.140 -0.6571  0.8773 -0.2283
   12MOL0     H 1601  -1.677   9.770  11.157 -0.8013 -1.2715 -2.4180
   12MOL0     H 1602  -1.183  10.561  11.105 -1.1776 -0.2158 -0.9285
   12MOL0     H 1603  -1.042  10.760  11.169  1.6124  2.2417 -0.0477
   12MOL0     H 1604  -0.759  11.187  10.955  1.2802  0.2413  0.1113
   12MOL0     H 1605  -0.577  11.329  10.946 -1.6287  0.6751  0.3449
   12MOL0     H 1606   1.643  10.853  10.850  2.2268 -4.0246 -2.9557
   12MOL0     H 1607   1.863  10.846  10.693 -0.7911 -1.5325 -1.2957
   12MOL0     H 1608   2.146  10.866  10.478 -0.5543 -0.4724 -1.4864
   12MOL0     H 1609   2.336  10.803  10.362 -2.0141 -0.0395  2.6135
   12MOL0     H 1610   2.579  11.117  10.173  2.9085 -0.6633 -1.2399
   12MOL0     H 1611   2.558  11.040  10.326 -1.8333 -0.3651 -0.3256
   12MOL0     H 1612   2.784  11.006  10.254  0.8079 -1.3917  0.4891
   12MOL0     H 1613   2.758  10.931  10.107  2.2041  2.3910  1.2741
   12MOL0     H 1614   2.667  10.744  10.192 -2.7161  0.7711  0.3259
   12MOL0     H 1615   2.623  10.807  10.347  0.1085 -0.1488 -0.3380
   12MOL0     H 1616   2.823  10.675  10.393 -1.9624 -2.4686 -3.0748
   12MOL0     H 1617   2.892  10.843  10.369 -1.3292  0.7396  0.4216
   12MOL0     H 1618   3.040  10.629  10.033 -0.0376  0.9147  0.3919
   12MOL0     H 1619   2.310  11.164  10.122  0.2568  0.3926  0.2565
   12MOL0     H 1620   2.104  11.222  10.228  3.0687  1.7118 -3.4971
   13MOL0     O 1621   6.850   3.651   3.380 -0.0858  0.7569 -0.5656
   13MOL0     C 1622   6.833   3.542   3.440 -0.2109  0.3380  0.5841
   13MOL0     O 1623   6.712   3.486   3.479 -0.7433  0.1589 -0.0643
   13MOL0     C 1624   6.596   3.560   3.480 -0.0702 -0.3210 -0.2841
   13MOL0     C 1625   6.587   3.699   3.505  0.2045 -0.3136 -0.1177
   13MOL0     C 1626   6.462   3.769   3.510 -0.0531 -0.0268 -0.4469
   13MOL0     C 1627   6.350   3.697   3.471 -0.1043 -0.7893 -0.3367
   13MOL0     O 1628   6.231   3.761   3.480  0.4194 -0.3298 -0.3251
   13MOL0     C 1629   6.121   3.706   3.560 -0.2449  0.3913 -0.5244
   13MOL0     C 1630   6.026   3.818   3.598 -0.3501  0.5915  0.5359
   13MOL0     C 1631   5.906   3.770   3.682 -0.0186  0.6653  0.1429
   13MOL0     C 1632   5.821   3.892   3.742 -0.0863  0.4923  0.2709
   13MOL0     C 1633   5.686   3.851   3.794  0.2049  0.4572 -0.2094
   13MOL0     C 1634   5.622   3.952   3.882 -0.9744 -0.1235 -0.2398
   13MOL0     C 1635   5.473   3.920   3.909  0.5211  0.6478  0.5249
   13MOL0     C 1636   5.397   4.051   3.952 -0.3934  0.7382 -0.6612
   13MOL0     N 1637   5.259   4.019   3.959  0.8155  0.2099  0.0744
   13MOL0     C 1638   5.193   3.965   4.068  0.8998 -0.0917  0.4395
   13MOL0     C 1639   5.057   3.974   4.046  0.0316 -0.5613  0.0735
   13MOL0     C 1640   4.961   3.919   4.137  0.0289  0.0747 -0.5837
   13MOL0     C 1641   4.953   3.764   4.136  1.2829 -0.2293 -0.8495
   13MOL0     C 1642   4.908   3.709   4.268  0.7709  0.2972  0.9615
   13MOL0     C 1643   4.766   3.752   4.321 -0.4278 -0.3477  0.0965
   13MOL0     O 1644   4.677   3.768   4.214 -0.0446 -0.1128  0.5896
   13MOL0     C 1645   4.569   3.846   4.246  0.2348 -0.2955 -1.5678
   13MOL0     C 1646   4.478   3.875   4.149  0.3540 -0.8722  0.3489
   13MOL0     C 1647   4.377   3.970   4.167 -0.6592  0.4634  0.2898
   13MOL0     C 1648   4.317   4.021   4.048  0.0353 -0.4215  0.4855
   13MOL0     C 1649   4.331   4.005   4.291 -0.4724 -0.0138 -0.4726
   13MOL0     C 1650   4.218   4.100   4.322 -0.0542 -0.0747  0.6742
   13MOL0     O 1651   4.136   4.150   4.220  0.6742  0.6053 -0.1235
   13MOL0     C 1652   4.008   4.176   4.265 -0.7469  0.2530 -0.3491
   13MOL0     C 1653   3.910   4.096   4.215  0.6724  0.5131  0.3711
   13MOL0     C 1654   3.776   4.122   4.245  0.1960  0.3301  0.3127
   13MOL0     C 1655   3.731   4.241   4.299  1.1231  0.8846  0.0237
   13MOL0     O 1656   3.602   4.284   4.330  0.2107 -0.2645  0.2847
   13MOL0     C 1657   3.490   4.236   4.249  0.2715 -0.6119 -0.4399
   13MOL0     C 1658   3.360   4.307   4.283 -0.4336 -0.1611  0.1200
   13MOL0     C 1659   3.313   4.300   4.423 -0.1980  0.7228 -0.5339
   13MOL0     C 1660   3.193   4.388   4.460  0.0435  0.7924 -0.3871
   13MOL0     C 1661   3.143   4.343   4.606 -0.0329  0.3472 -0.2789
   13MOL0     C 1662   3.007   4.399   4.656  1.1192 -0.9141  0.5637
   13MOL0     C 1663   2.962   4.339   4.787  0.7457  0.4063 -0.0405
   13MOL0     C 1664   2.889   4.437   4.871 -0.7009 -0.2541  0.4155
   13MOL0    Cl 1665   2.720   4.464   4.796  0.1124  0.0637 -0.2059
   13MOL0     C 1666   3.827   4.327   4.340 -0.0183 -0.3001 -0.0268
   13MOL0     C 1667   3.966   4.299   4.329  0.5137 -0.2482 -0.6802
   13MOL0     O 1668   4.205   4.120   4.447  0.3267  0.2990  0.5357
   13MOL0     C 1669   4.407   3.952   4.400  0.1468  0.4624  0.1370
   13MOL0     C 1670   4.525   3.876   4.380 -0.2748 -0.5473 -0.7100
   13MOL0     N 1671   5.043   4.031   3.923  0.6806  0.1854 -0.2284
   13MOL0     N 1672   5.157   4.056   3.870  0.9159  0.4315 -0.0524
   13MOL0     C 1673   6.360   3.559   3.448 -0.4694 -0.2849 -0.1683
   13MOL0     C 1674   6.478   3.494   3.455  0.8722  1.3473  0.1107
   13MOL0     C 1675   6.961   3.487   3.497  0.2436 -0.1697 -0.1570
   13MOL0     C 1676   6.952   3.407   3.608 -0.2736  0.5415  0.9057
   13MOL0     C 1677   7.061   3.336   3.657  0.1113 -0.5092 -0.1539
   13MOL0     C 1678   7.184   3.331   3.582  0.3551  0.1409  0.8632
   13MOL0     O 1679   7.282   3.245   3.633  0.7417 -0.4035  0.2769
   13MOL0     C 1680   7.395   3.198   3.553  0.6094 -0.2182  0.0808
   13MOL0     C 1681   7.467   3.075   3.614  0.0229 -1.0946  0.2842
   13MOL0     C 1682   7.578   3.062   3.523 -0.4815 -0.2538 -0.5981
   13MOL0     C 1683   7.651   2.940   3.548  0.3549  0.1795  0.3248
   13MOL0     C 1684   7.588   2.820   3.496 -0.4771 -0.1654 -0.7259
   13MOL0     C 1685   7.533   2.717   3.462  0.5954  0.4287  0.8050
   13MOL0     C 1686   7.193   3.410   3.457 -0.5137  0.2777 -0.1680
   13MOL0     C 1687   7.079   3.488   3.427 -0.5573  0.5042 -0.9347
   13MOL0     H 1688   6.686   3.736   3.530  0.6139 -0.4589 -1.4243
   13MOL0     H 1689   6.460   3.872   3.544  1.8570 -0.2628  0.5600
   13MOL0     H 1690   6.069   3.640   3.490 -2.1488  0.1281  1.0622
   13MOL0     H 1691   6.165   3.656   3.647  3.3710  1.0202 -1.8130
   13MOL0     H 1692   6.082   3.888   3.659 -0.9116  2.9275 -1.4878
   13MOL0     H 1693   5.998   3.879   3.512  0.7591  0.6075  0.1704
   13MOL0     H 1694   5.840   3.713   3.616 -0.8745  2.1241 -0.3286
   13MOL0     H 1695   5.942   3.710   3.765  0.7539 -0.0558 -0.6937
   13MOL0     H 1696   5.869   3.926   3.834 -0.9600  0.3103  0.8053
   13MOL0     H 1697   5.827   3.974   3.670 -0.8685  0.0092 -0.3569
   13MOL0     H 1698   5.623   3.838   3.705  0.2199 -2.7423  0.1321
   13MOL0     H 1699   5.690   3.750   3.836  1.8490 -0.6967 -2.9086
   13MOL0     H 1700   5.679   3.952   3.976 -0.8180 -0.0894 -0.3337
   13MOL0     H 1701   5.631   4.053   3.840  0.1151 -0.4319 -0.8002
   13MOL0     H 1702   5.429   3.868   3.824  0.3156  2.3243 -0.4301
   13MOL0     H 1703   5.460   3.853   3.996 -1.0783  0.6651  0.3309
   13MOL0     H 1704   5.417   4.129   3.878 -1.6735 -0.3152 -2.2066
   13MOL0     H 1705   5.430   4.083   4.051  0.6684  1.6889 -1.2840
   13MOL0     H 1706   5.233   3.922   4.159  0.4024 -0.0113  0.7036
   13MOL0     H 1707   4.986   3.951   4.239 -1.7557  1.5238 -0.5420
   13MOL0     H 1708   4.858   3.949   4.116 -0.7948 -2.2282 -0.1219
   13MOL0     H 1709   5.054   3.727   4.115  1.3548  0.2613 -1.3877
   13MOL0     H 1710   4.881   3.730   4.061  0.0161 -3.2005  1.4968
   13MOL0     H 1711   4.993   3.731   4.333  2.6514 -0.1715 -1.2263
   13MOL0     H 1712   4.911   3.601   4.249 -0.4719  0.7229 -2.3373
   13MOL0     H 1713   4.783   3.846   4.373 -1.3845  0.1181 -0.4036
   13MOL0     H 1714   4.729   3.681   4.395  0.0488  1.3206  2.0045
   13MOL0     H 1715   4.499   3.835   4.051 -0.4633 -1.3119  0.3368
   13MOL0     H 1716   4.219   3.985   4.015  0.5532 -3.1472  1.6715
   13MOL0     H 1717   4.315   4.130   4.057 -1.1023 -0.3014 -0.8715
   13MOL0     H 1718   4.391   3.998   3.970 -0.5207 -1.6541  0.2954
   13MOL0     H 1719   3.929   3.999   4.170 -1.1506 -1.4820  3.5136
   13MOL0     H 1720   3.707   4.042   4.220 -0.0298  0.4683  0.4957
   13MOL0     H 1721   3.500   4.241   4.141 -5.5222 -1.9544 -1.3954
   13MOL0     H 1722   3.468   4.132   4.275 -4.4731  0.1971 -0.2991
   13MOL0     H 1723   3.380   4.412   4.259  0.2888 -0.3779 -0.2487
   13MOL0     H 1724   3.282   4.274   4.213 -1.4509  2.1906  0.0288
   13MOL0     H 1725   3.396   4.320   4.491 -0.4027 -0.0974 -0.0375
   13MOL0     H 1726   3.292   4.195   4.445  0.1982  0.8049  0.3087
   13MOL0     H 1727   3.215   4.495   4.453  2.4318  0.3050 -1.2634
   13MOL0     H 1728   3.111   4.365   4.391 -0.4096 -0.3798  0.5093
   13MOL0     H 1729   3.219   4.373   4.680 -2.6138  0.5038  2.4884
   13MOL0     H 1730   3.137   4.234   4.604 -1.2517  0.3674  1.0209
   13MOL0     H 1731   3.018   4.507   4.662 -5.9093  0.2042  1.8466
   13MOL0     H 1732   2.926   4.385   4.584  0.7338  0.2366  0.7605
   13MOL0     H 1733   3.057   4.312   4.834  1.9164  2.6309 -0.9615
   13MOL0     H 1734   2.904   4.247   4.775  3.3063 -1.8588  3.3585
   13MOL0     H 1735   2.948   4.529   4.875 -1.0181 -0.0388  0.1812
   13MOL0     H 1736   2.878   4.396   4.972 -0.9447  0.2959  0.6145
   13MOL0     H 1737   3.806   4.419   4.394  0.3919 -1.4924  2.3230
   13MOL0     H 1738   4.035   4.379   4.353  0.1682 -0.0943 -0.1818
   13MOL0     H 1739   4.371   3.956   4.503 -0.2265  0.9432 -0.0094
   13MOL0     H 1740   4.580   3.835   4.464  1.1293 -0.8551 -1.7319
   13MOL0     H 1741   6.270   3.507   3.420  1.1260 -2.5301 -1.4754
   13MOL0     H 1742   6.479   3.386   3.445 -2.3111  1.2697 -0.2977
   13MOL0     H 1743   6.859   3.389   3.661 -1.3031 -0.4633 -1.1133
   13MOL0     H 1744   7.053   3.279   3.749 -0.2981  0.2861  0.3217
   13MOL0     H 1745   7.350   3.173   3.456  0.6924 -0.4808  0.1082
   13MOL0     H 1746   7.453   3.290   3.537 -0.4938  0.4116 -0.4435
   13MOL0     H 1747   7.405   2.986   3.627 -0.0570 -1.0247  0.3827
   13MOL0     H 1748   7.502   3.096   3.715  1.7313  2.2379 -0.8558
   13MOL0     H 1749   7.645   3.148   3.534 -1.3387  0.5473 -1.4620
   13MOL0     H 1750   7.547   3.069   3.418 -1.0585 -1.2135 -0.5048
   13MOL0     H 1751   7.671   2.931   3.655  1.0056  1.7260  0.3519
   13MOL0     H 1752   7.750   2.956   3.505  0.5250  0.7406  0.9024
   13MOL0     H 1753   7.488   2.625   3.431  0.9263  0.2701  0.7969
   13MOL0     H 1754   7.284   3.403   3.399 -0.4094  1.8367 -0.2297
   13MOL0     H 1755   7.090   3.547   3.336 -2.3542  0.7301 -1.0399
   14MOL0     O 1756   4.974   5.297   5.232  0.0372  0.5364  0.2107
   14MOL0     C 1757   5.008   5.343   5.342 -0.0731 -0.3177  0.7842
   14MOL0     O 1758   4.924   5.402   5.434  0.0936  0.7680  0.0191
   14MOL0     C 1759   4.785   5.386   5.436 -0.1852 -0.2984  0.0829
   14MOL0     C 1760   4.704   5.295   5.367  0.4280  0.2957  0.0368
   14MOL0     C 1761   4.566   5.283   5.391  0.1944 -0.5260  0.0751
   14MOL0     C 1762   4.502   5.365   5.486  0.0869  0.4199  0.0559
   14MOL0     O 1763   4.368   5.367   5.520  0.4231 -0.0200  0.2043
   14MOL0     C 1764   4.276   5.276   5.454 -0.4068  0.5410 -0.3644
   14MOL0     C 1765   4.132   5.298   5.509 -0.3382 -0.4822  0.9264
   14MOL0     C 1766   4.118   5.317   5.660  1.2081  0.2861  0.3650
   14MOL0     C 1767   3.978   5.359   5.699 -0.4457  0.0203  1.1338
   14MOL0     C 1768   3.970   5.382   5.857  0.1189  0.4564 -0.1211
   14MOL0     C 1769   3.825   5.404   5.887 -0.5954 -0.6313  0.2769
   14MOL0     C 1770   3.820   5.462   6.035  0.4232 -0.4663 -0.5283
   14MOL0     C 1771   3.683   5.488   6.099  0.7238  0.1590 -0.4471
   14MOL0     N 1772   3.569   5.516   6.007 -0.5260  0.1756  0.4256
   14MOL0     C 1773   3.535   5.643   5.957 -0.6991 -0.4173 -0.5117
   14MOL0     C 1774   3.415   5.622   5.897 -0.3430 -0.6207 -0.7046
   14MOL0     C 1775   3.336   5.730   5.831  0.2045  0.5592  1.2063
   14MOL0     C 1776   3.236   5.796   5.934 -0.1244 -0.0891  0.0851
   14MOL0     C 1777   3.175   5.930   5.887  0.1883 -0.1156 -0.2164
   14MOL0     C 1778   3.022   5.917   5.884  0.5834 -0.3935  0.4717
   14MOL0     O 1779   2.957   6.045   5.845  0.0372  0.8307  0.1194
   14MOL0     C 1780   2.828   6.043   5.788  0.0539  0.4231  0.3777
   14MOL0     C 1781   2.741   6.145   5.828 -0.2300 -0.0083  0.8951
   14MOL0     C 1782   2.610   6.159   5.766  0.7723  0.4699  0.1853
   14MOL0     C 1783   2.515   6.256   5.831  0.2679 -0.9361  0.6518
   14MOL0     C 1784   2.576   6.067   5.663  0.7577  0.3206 -0.4078
   14MOL0     C 1785   2.451   6.087   5.574  0.8955  0.8008  0.7971
   14MOL0     O 1786   2.413   5.981   5.492 -0.5789  0.2333 -0.8504
   14MOL0     C 1787   2.315   5.984   5.409  0.4012  0.0276  0.5924
   14MOL0     C 1788   2.313   5.883   5.311 -1.1605 -0.8759 -0.1846
   14MOL0     C 1789   2.207   5.861   5.215 -0.6928  0.5104 -0.3050
   14MOL0     C 1790   2.102   5.955   5.203  0.7377  0.0545 -0.8563
   14MOL0     O 1791   2.016   5.961   5.100  0.0840 -0.0075  0.2960
   14MOL0     C 1792   1.942   5.833   5.081  0.3204  0.5555  0.2123
   14MOL0     C 1793   1.812   5.841   4.998  0.0304 -0.5363  0.1509
   14MOL0     C 1794   1.846   5.899   4.863  0.8821 -0.3936 -0.8826
   14MOL0     C 1795   1.738   5.860   4.765 -0.0174 -0.2548 -0.5566
   14MOL0     C 1796   1.748   5.933   4.629 -0.0452  0.1789 -0.4661
   14MOL0     C 1797   1.678   5.849   4.519  0.3031  0.5647 -0.8972
   14MOL0     C 1798   1.662   5.929   4.387  0.1191 -0.7055 -1.1189
   14MOL0     C 1799   1.575   5.839   4.307 -0.1126  0.2199 -0.1757
   14MOL0    Cl 1800   1.540   5.923   4.149 -0.0840 -0.2294 -0.1878
   14MOL0     C 1801   2.098   6.056   5.303  0.4487 -0.2774  0.3052
   14MOL0     C 1802   2.202   6.073   5.395 -0.1753 -0.7239 -0.6045
   14MOL0     O 1803   2.410   6.203   5.558 -0.3209 -0.8243 -0.1237
   14MOL0     C 1804   2.660   5.961   5.634 -0.2309 -0.0506 -0.6683
   14MOL0     C 1805   2.784   5.944   5.697 -0.5332 -0.1479 -0.6100
   14MOL0     N 1806   3.387   5.485   5.902 -0.5317  0.1584  0.5431
   14MOL0     N 1807   3.481   5.426   5.962  0.0038 -0.3189  0.3127
   14MOL0     C 1808   4.582   5.447   5.557  0.0873  0.8517  0.2714
   14MOL0     C 1809   4.714   5.464   5.541 -0.4467 -0.0552  0.6429
   14MOL0     C 1810   5.156   5.333   5.370 -0.1202 -0.3040 -0.5554
   14MOL0     C 1811   5.213   5.347   5.493  0.2473  0.0471 -0.8135
   14MOL0     C 1812   5.351   5.363   5.514  0.1538  0.6676 -0.3240
   14MOL0     C 1813   5.437   5.370   5.401  0.0302  0.3400 -0.4511
   14MOL0     O 1814   5.572   5.373   5.406 -0.3104 -0.3973  0.2691
   14MOL0     C 1815   5.636   5.392   5.533 -0.0497 -0.4742  0.7089
   14MOL0     C 1816   5.784   5.421   5.505  0.1152  0.8664  0.1530
   14MOL0     C 1817   5.833   5.567   5.479 -0.0512 -1.1561  0.4176
   14MOL0     C 1818   5.987   5.582   5.464 -0.2317 -0.4949  0.0188
   14MOL0     C 1819   6.061   5.534   5.579 -0.2115  0.3775  0.2315
   14MOL0     C 1820   6.114   5.506   5.682  0.7151 -0.6084  0.5394
   14MOL0     C 1821   5.380   5.354   5.274 -0.3025 -0.5596 -0.1153
   14MOL0     C 1822   5.241   5.340   5.256 -0.3502 -0.0455 -0.8095
   14MOL0     H 1823   4.749   5.218   5.305 -0.1219 -0.0559  0.0734
   14MOL0     H 1824   4.506   5.200   5.356 -1.3209  0.9078 -0.8828
   14MOL0     H 1825   4.284   5.279   5.345  1.3838 -2.2547 -0.4008
   14MOL0     H 1826   4.302   5.176   5.489 -0.5086  0.4548 -0.5328
   14MOL0     H 1827   4.088   5.389   5.466  0.4636  0.4810  2.0624
   14MOL0     H 1828   4.071   5.213   5.475  0.3140  0.6606 -3.8753
   14MOL0     H 1829   4.136   5.222   5.710 -0.3289  0.0460  0.5168
   14MOL0     H 1830   4.191   5.390   5.697  1.0681  1.0526 -0.8161
   14MOL0     H 1831   3.949   5.447   5.642  1.0985  0.0970  0.4130
   14MOL0     H 1832   3.910   5.276   5.676 -1.5251  1.0209  0.6315
   14MOL0     H 1833   4.005   5.292   5.907  0.5474  0.7436  0.0988
   14MOL0     H 1834   4.038   5.460   5.893  0.2050 -0.6809  2.3740
   14MOL0     H 1835   3.782   5.484   5.825  0.1235  0.3715  1.0453
   14MOL0     H 1836   3.767   5.311   5.890 -0.7742 -0.5124  2.7944
   14MOL0     H 1837   3.880   5.392   6.094  0.3320  0.1857  0.3594
   14MOL0     H 1838   3.868   5.560   6.024 -1.0222  0.1503 -1.7233
   14MOL0     H 1839   3.704   5.572   6.165 -1.6373  0.3952  0.0897
   14MOL0     H 1840   3.654   5.402   6.160  0.9870  0.6187  0.3440
   14MOL0     H 1841   3.594   5.733   5.974 -2.0216  0.1527  1.4232
   14MOL0     H 1842   3.407   5.810   5.809 -0.1043 -0.0806 -2.7014
   14MOL0     H 1843   3.280   5.676   5.754  4.0463 -2.2340  0.0856
   14MOL0     H 1844   3.301   5.813   6.020  3.2060 -0.3045 -2.1955
   14MOL0     H 1845   3.153   5.727   5.949 -0.2708 -0.4445 -2.0466
   14MOL0     H 1846   3.214   5.951   5.787 -0.3419 -1.6005 -0.7730
   14MOL0     H 1847   3.197   6.009   5.958  1.6010  0.4447 -1.2297
   14MOL0     H 1848   2.984   5.878   5.979 -1.8113 -0.1110 -0.3047
   14MOL0     H 1849   3.009   5.843   5.805 -1.1966  0.6199 -0.2431
   14MOL0     H 1850   2.777   6.213   5.904  0.3406  0.7113 -0.0102
   14MOL0     H 1851   2.490   6.335   5.761  2.3395 -1.2599 -0.5111
   14MOL0     H 1852   2.417   6.212   5.855  0.0672  0.2418  2.1544
   14MOL0     H 1853   2.554   6.304   5.921 -1.5415 -0.4373  1.2214
   14MOL0     H 1854   2.394   5.811   5.307 -0.6741 -0.4094  0.8522
   14MOL0     H 1855   2.210   5.783   5.139 -0.8164  1.7477 -1.6231
   14MOL0     H 1856   2.001   5.763   5.022 -1.2258 -0.7369  0.1313
   14MOL0     H 1857   1.916   5.796   5.180  0.9292 -1.1755 -0.2416
   14MOL0     H 1858   1.769   5.740   4.991  1.5779 -1.1123 -1.9529
   14MOL0     H 1859   1.739   5.912   5.037  0.2342  1.6423 -3.1063
   14MOL0     H 1860   1.946   5.886   4.820  1.0647  1.0507 -0.9218
   14MOL0     H 1861   1.827   6.005   4.879 -2.7898 -1.0826  0.0491
   14MOL0     H 1862   1.752   5.753   4.746 -2.3196 -0.5063 -1.0864
   14MOL0     H 1863   1.642   5.878   4.814 -0.6727  0.2428 -1.9704
   14MOL0     H 1864   1.852   5.929   4.595  0.5832 -4.1002  1.3374
   14MOL0     H 1865   1.713   6.036   4.640  1.2292  0.4550  1.8776
   14MOL0     H 1866   1.743   5.766   4.491  1.6871  0.8517  1.2871
   14MOL0     H 1867   1.580   5.817   4.555 -0.4333  1.6483 -1.8468
   14MOL0     H 1868   1.758   5.946   4.337  0.8650 -0.3299  0.3663
   14MOL0     H 1869   1.615   6.022   4.421 -2.0594 -2.8767  2.4058
   14MOL0     H 1870   1.478   5.831   4.357 -0.7508  0.5181 -1.3150
   14MOL0     H 1871   1.623   5.746   4.275 -0.3227 -0.2824  0.9378
   14MOL0     H 1872   2.010   6.120   5.302 -0.7047 -1.7593 -1.5285
   14MOL0     H 1873   2.189   6.160   5.459 -1.3836  0.3808 -2.2364
   14MOL0     H 1874   2.625   5.893   5.558 -3.4793  1.9456 -1.1469
   14MOL0     H 1875   2.849   5.866   5.658 -2.2841 -1.3490 -1.2726
   14MOL0     H 1876   4.540   5.511   5.634 -0.3893  2.3423 -1.1591
   14MOL0     H 1877   4.776   5.524   5.607  1.5729 -1.3601  0.0342
   14MOL0     H 1878   5.142   5.352   5.575 -0.7324  2.5327 -1.6997
   14MOL0     H 1879   5.405   5.372   5.608 -0.8759  0.1680  0.3340
   14MOL0     H 1880   5.587   5.471   5.590 -1.0044 -0.9350  0.5449
   14MOL0     H 1881   5.633   5.293   5.579  0.3120  0.1572  2.1690
   14MOL0     H 1882   5.818   5.371   5.414  1.3352  2.0570 -0.0920
   14MOL0     H 1883   5.849   5.387   5.586  1.3073 -1.3724 -1.6336
   14MOL0     H 1884   5.803   5.632   5.562  0.0094 -0.0967 -0.3828
   14MOL0     H 1885   5.786   5.598   5.386 -1.3917 -1.2491  1.0423
   14MOL0     H 1886   6.013   5.688   5.451 -0.6028 -0.3006  0.8033
   14MOL0     H 1887   6.021   5.530   5.374  2.2164 -2.4363  1.8949
   14MOL0     H 1888   6.164   5.481   5.773  0.1525 -1.8438  0.5316
   14MOL0     H 1889   5.440   5.356   5.184  0.1707 -2.0024  0.1430
   14MOL0     H 1890   5.208   5.323   5.154 -1.6714  0.3002 -0.4592
   15MOL0     O 1891   5.918   5.175   2.200  0.1858 -0.2917  0.1791
   15MOL0     C 1892   5.958   5.242   2.295  0.1396  0.3310  0.0788
   15MOL0     O 1893   5.901   5.230   2.420 -0.4748  0.5922 -0.5434
   15MOL0     C 1894   5.778   5.179   2.448  0.3771  0.6071 -0.0658
   15MOL0     C 1895   5.707   5.077   2.381 -0.0379 -0.4344  0.1346
   15MOL0     C 1896   5.589   5.033   2.435 -0.2846  0.5313  0.2832
   15MOL0     C 1897   5.533   5.075   2.555  0.5404  0.5276  0.2372
   15MOL0     O 1898   5.420   5.016   2.612  0.3756  0.1575 -0.0039
   15MOL0     C 1899   5.407   4.876   2.599 -0.4617  0.4084  0.2868
   15MOL0     C 1900   5.305   4.828   2.704  0.2964 -0.2929  0.0282
   15MOL0     C 1901   5.161   4.858   2.645  0.0982  0.4824 -0.6297
   15MOL0     C 1902   5.092   4.721   2.627 -0.2508 -0.3947  0.0315
   15MOL0     C 1903   4.944   4.738   2.628  0.9844  0.7611 -0.1677
   15MOL0     C 1904   4.878   4.604   2.597 -0.1578 -0.4599  0.5582
   15MOL0     C 1905   4.724   4.616   2.583 -0.1481 -0.1347  0.1623
   15MOL0     C 1906   4.682   4.686   2.451  0.3422 -0.1936 -0.8590
   15MOL0     N 1907   4.539   4.679   2.418 -0.1026  0.6104  0.0041
   15MOL0     C 1908   4.466   4.802   2.419 -0.7713  0.1198  0.9313
   15MOL0     C 1909   4.348   4.762   2.363  0.1675 -0.4057 -0.4460
   15MOL0     C 1910   4.215   4.845   2.326 -1.1465  0.5203  0.0998
   15MOL0     C 1911   4.093   4.792   2.404  0.1256  0.5782  0.0946
   15MOL0     C 1912   4.054   4.889   2.517 -0.3095  1.4114 -0.2917
   15MOL0     C 1913   3.978   4.794   2.610  0.2863 -0.0156 -0.4859
   15MOL0     O 1914   3.878   4.869   2.676  0.3989 -0.6001  0.4544
   15MOL0     C 1915   3.742   4.861   2.652 -0.2523 -0.4519  0.9467
   15MOL0     C 1916   3.656   4.905   2.750  0.6806 -0.4728 -0.2936
   15MOL0     C 1917   3.524   4.866   2.745  0.6148 -0.3763  0.1022
   15MOL0     C 1918   3.433   4.909   2.853  1.7129  0.5330  0.3779
   15MOL0     C 1919   3.466   4.812   2.630  0.1442 -0.4020 -0.5776
   15MOL0     C 1920   3.318   4.781   2.611  0.0121  0.2418  0.1374
   15MOL0     O 1921   3.268   4.779   2.481 -0.6658  0.3782 -0.3667
   15MOL0     C 1922   3.128   4.759   2.469  0.8209  0.5168 -0.9311
   15MOL0     C 1923   3.069   4.851   2.390  0.4044  0.4532 -0.2982
   15MOL0     C 1924   2.931   4.856   2.373 -0.1648  0.7847 -0.5751
   15MOL0     C 1925   2.853   4.757   2.430 -0.5559  0.1475  1.1053
   15MOL0     O 1926   2.718   4.759   2.410 -0.0842 -0.0906 -0.5088
   15MOL0     C 1927   2.654   4.637   2.367 -0.8510  0.3837 -0.6622
   15MOL0     C 1928   2.513   4.666   2.318  0.4754  0.4760 -0.2230
   15MOL0     C 1929   2.421   4.733   2.424 -1.1314 -0.6045 -0.3292
   15MOL0     C 1930   2.278   4.674   2.431  0.3560  0.2021  0.0431
   15MOL0     C 1931   2.181   4.767   2.517 -0.1424 -0.2059 -0.0249
   15MOL0     C 1932   2.038   4.716   2.523 -0.8909  0.2908  0.0876
   15MOL0     C 1933   1.959   4.799   2.633  0.1203 -1.0047 -0.1631
   15MOL0     C 1934   1.827   4.738   2.668 -0.1750 -0.3281 -0.0067
   15MOL0    Cl 1935   1.726   4.769   2.522  0.0452  0.0603 -0.3964
   15MOL0     C 1936   2.914   4.653   2.496  0.0721 -0.1329  1.0741
   15MOL0     C 1937   3.051   4.653   2.519 -0.6097  0.6826  0.7757
   15MOL0     O 1938   3.248   4.754   2.707 -0.5583 -0.4165 -0.5145
   15MOL0     C 1939   3.547   4.792   2.518 -0.1059  0.1449  0.1150
   15MOL0     C 1940   3.683   4.819   2.531 -0.0399  0.3161 -0.4270
   15MOL0     N 1941   4.349   4.626   2.337 -0.2495 -0.2923 -0.2104
   15MOL0     N 1942   4.463   4.578   2.373 -1.1029 -0.4669  0.4971
   15MOL0     C 1943   5.609   5.167   2.628  0.4248 -0.1808 -1.0326
   15MOL0     C 1944   5.730   5.217   2.579 -0.1033 -0.7302 -0.3018
   15MOL0     C 1945   6.088   5.325   2.283  0.6799 -0.1085  0.6025
   15MOL0     C 1946   6.128   5.371   2.159  0.3479 -0.4839 -0.0720
   15MOL0     C 1947   6.238   5.455   2.149  0.0487 -0.4118  0.1623
   15MOL0     C 1948   6.318   5.490   2.257 -0.1563 -0.2419 -0.6903
   15MOL0     O 1949   6.438   5.564   2.254  0.0809 -0.4175  0.4181
   15MOL0     C 1950   6.471   5.638   2.134 -0.7585 -0.8689  0.1168
   15MOL0     C 1951   6.397   5.773   2.149 -0.3661 -0.4789  0.5489
   15MOL0     C 1952   6.472   5.859   2.257  0.5943 -0.2278  0.4790
   15MOL0     C 1953   6.399   5.993   2.281 -0.3164  0.0298 -0.1055
   15MOL0     C 1954   6.479   6.071   2.382  1.4549  0.5481  0.1164
   15MOL0     C 1955   6.546   6.128   2.466  0.1077  0.2249  0.0615
   15MOL0     C 1956   6.280   5.434   2.383 -0.5217 -0.2590  0.9842
   15MOL0     C 1957   6.163   5.362   2.392  0.2616  0.0787 -0.1730
   15MOL0     H 1958   5.739   5.027   2.290 -1.3125 -0.8134 -0.1137
   15MOL0     H 1959   5.539   4.957   2.377  0.6914 -1.5485  2.0032
   15MOL0     H 1960   5.380   4.850   2.496  1.4716 -2.0495  0.3146
   15MOL0     H 1961   5.502   4.827   2.622 -1.9491 -4.2141 -2.1877
   15MOL0     H 1962   5.324   4.722   2.720 -0.3011 -1.0918 -3.6030
   15MOL0     H 1963   5.327   4.883   2.796  3.6914 -1.2525 -0.0785
   15MOL0     H 1964   5.101   4.912   2.719 -1.3500 -0.8153 -0.7985
   15MOL0     H 1965   5.163   4.909   2.548 -1.6279 -0.1248 -1.0183
   15MOL0     H 1966   5.137   4.675   2.539  2.3267  0.1778  0.9607
   15MOL0     H 1967   5.114   4.666   2.719 -1.2168 -0.2875  0.3370
   15MOL0     H 1968   4.914   4.771   2.728  1.5766  0.0584  0.2517
   15MOL0     H 1969   4.909   4.812   2.556 -0.8041  1.1633  1.0580
   15MOL0     H 1970   4.924   4.566   2.505  0.8378  2.1615 -0.0916
   15MOL0     H 1971   4.903   4.525   2.668 -0.8303  1.5881  3.1989
   15MOL0     H 1972   4.694   4.511   2.579  1.0587 -0.4837 -0.0835
   15MOL0     H 1973   4.683   4.663   2.673 -1.1453  0.4831 -0.5878
   15MOL0     H 1974   4.731   4.634   2.368 -1.1505 -0.9528 -1.3076
   15MOL0     H 1975   4.727   4.786   2.450 -1.4636  0.6892 -0.1170
   15MOL0     H 1976   4.515   4.891   2.458 -1.2229 -0.0814  2.0104
   15MOL0     H 1977   4.246   4.944   2.362  3.7750 -1.7010  3.0867
   15MOL0     H 1978   4.194   4.835   2.220 -1.1215  2.7275 -0.1719
   15MOL0     H 1979   4.098   4.690   2.441 -3.0414  1.5300  3.7195
   15MOL0     H 1980   4.008   4.801   2.336 -2.0796 -1.1856  2.4243
   15MOL0     H 1981   4.009   4.984   2.486 -1.2841  2.0301  2.6255
   15MOL0     H 1982   4.139   4.928   2.573 -0.9658  3.1376 -0.4383
   15MOL0     H 1983   4.053   4.743   2.672  2.3218  2.2008 -0.9772
   15MOL0     H 1984   3.923   4.719   2.551  1.5180 -1.0533 -0.3710
   15MOL0     H 1985   3.705   4.953   2.834  0.4200  0.5635 -0.7212
   15MOL0     H 1986   3.343   4.957   2.813  2.2386  3.0929  2.0424
   15MOL0     H 1987   3.415   4.836   2.933 -0.5662  0.4818 -0.1149
   15MOL0     H 1988   3.470   5.001   2.900 -0.5742  0.8331  1.7852
   15MOL0     H 1989   3.128   4.923   2.336 -1.0927  2.1266  0.1795
   15MOL0     H 1990   2.906   4.924   2.292  0.4472 -1.5541 -2.8740
   15MOL0     H 1991   2.712   4.580   2.294 -3.0744 -2.4068 -0.4305
   15MOL0     H 1992   2.650   4.571   2.454  1.1606 -1.4833 -1.8908
   15MOL0     H 1993   2.526   4.730   2.230 -0.9148  1.2626  0.1211
   15MOL0     H 1994   2.464   4.573   2.290 -0.0519 -0.1320  2.4645
   15MOL0     H 1995   2.412   4.841   2.407  1.3732 -0.1879  0.5494
   15MOL0     H 1996   2.465   4.713   2.522 -1.0031  0.1725 -0.2237
   15MOL0     H 1997   2.247   4.675   2.326  1.3220 -1.7145 -0.3185
   15MOL0     H 1998   2.283   4.572   2.472 -0.3490 -0.1798 -0.7904
   15MOL0     H 1999   2.181   4.866   2.469  2.9462 -1.3563 -2.7586
   15MOL0     H 2000   2.216   4.769   2.621  0.4587 -0.9988 -0.2031
   15MOL0     H 2001   1.993   4.726   2.424 -1.0388 -0.6398  0.0458
   15MOL0     H 2002   2.029   4.610   2.549 -0.0477 -0.0029 -0.7882
   15MOL0     H 2003   1.943   4.901   2.596  1.3974 -1.1821 -1.3106
   15MOL0     H 2004   2.018   4.811   2.725  1.4687  0.9892 -1.2059
   15MOL0     H 2005   1.787   4.790   2.756 -1.2709 -0.2693 -0.5252
   15MOL0     H 2006   1.848   4.632   2.682  0.1784 -0.2125  0.3872
   15MOL0     H 2007   2.856   4.576   2.546 -0.1090  0.2246  1.4165
   15MOL0     H 2008   3.087   4.568   2.576  1.8509 -0.3726 -2.0804
   15MOL0     H 2009   3.497   4.755   2.430  0.4260 -0.4167  0.0388
   15MOL0     H 2010   3.745   4.795   2.446 -1.5941  2.2238 -2.1970
   15MOL0     H 2011   5.576   5.195   2.728  1.2458 -0.9345 -0.5327
   15MOL0     H 2012   5.774   5.294   2.643 -1.3387 -1.0605  1.0100
   15MOL0     H 2013   6.062   5.351   2.075 -0.5657 -0.9055  0.7251
   15MOL0     H 2014   6.253   5.489   2.047  1.3664 -2.1719 -0.2864
   15MOL0     H 2015   6.578   5.658   2.140 -1.1347  1.5178  0.0790
   15MOL0     H 2016   6.448   5.579   2.045 -1.0463  0.1409 -0.4930
   15MOL0     H 2017   6.289   5.759   2.161 -0.3812  0.1556  1.2188
   15MOL0     H 2018   6.412   5.824   2.053  0.0328 -1.3180  0.1557
   15MOL0     H 2019   6.576   5.870   2.224 -0.2541  0.0817 -2.3365
   15MOL0     H 2020   6.468   5.807   2.354 -1.0739 -2.4578 -0.6771
   15MOL0     H 2021   6.298   5.976   2.321  1.4367 -2.2442  3.9762
   15MOL0     H 2022   6.390   6.047   2.186 -0.8586 -0.1723 -0.1758
   15MOL0     H 2023   6.598   6.184   2.541  0.5759 -0.4129  0.2212
   15MOL0     H 2024   6.342   5.454   2.470  0.3364  0.5095  0.2230
   15MOL0     H 2025   6.130   5.343   2.493  3.4848  0.6891  1.1072
   16MOL0     O 2026  10.141   1.813   4.836  0.1305 -0.8310  0.9143
   16MOL0     C 2027  10.174   1.768   4.730  0.4131 -0.0334  0.3528
   16MOL0     O 2028  10.096   1.695   4.645  0.0225 -0.8007  1.3683
   16MOL0     C 2029   9.955   1.694   4.653  0.4486 -0.2020  0.0604
   16MOL0     C 2030   9.873   1.789   4.714  0.4008  0.1147 -0.7276
   16MOL0     C 2031   9.736   1.774   4.714 -0.7004 -0.0677 -0.0037
   16MOL0     C 2032   9.681   1.665   4.642  0.2578  0.5542 -0.0775
   16MOL0     O 2033   9.546   1.623   4.658  0.1961 -0.4349  0.4354
   16MOL0     C 2034   9.469   1.693   4.763 -0.0463 -0.0240 -1.0331
   16MOL0     C 2035   9.328   1.637   4.786 -0.3372  0.5246  1.1752
   16MOL0     C 2036   9.257   1.613   4.645 -0.0644 -0.1572 -0.3350
   16MOL0     C 2037   9.097   1.600   4.672 -0.7345  0.2746 -0.4026
   16MOL0     C 2038   9.025   1.595   4.541 -0.5995 -0.1037 -0.3694
   16MOL0     C 2039   8.881   1.545   4.543 -0.8328  0.6927  0.2490
   16MOL0     C 2040   8.804   1.574   4.410 -0.3176 -0.5730 -0.8193
   16MOL0     C 2041   8.839   1.460   4.303 -0.1004 -0.3850 -0.0140
   16MOL0     N 2042   8.770   1.468   4.173  0.5993  0.3389 -1.0734
   16MOL0     C 2043   8.642   1.524   4.155 -1.0059  0.2413 -0.3183
   16MOL0     C 2044   8.618   1.499   4.023  0.7367  0.2262  0.1424
   16MOL0     C 2045   8.499   1.542   3.945 -0.1170 -0.0800  0.0107
   16MOL0     C 2046   8.428   1.423   3.890  0.0743  0.4061  0.4218
   16MOL0     C 2047   8.303   1.454   3.801 -0.6266  0.7185  0.5036
   16MOL0     C 2048   8.211   1.336   3.769  0.4936  0.2269  0.2306
   16MOL0     O 2049   8.283   1.222   3.714  0.4163  0.4759  0.4124
   16MOL0     C 2050   8.210   1.104   3.679  0.0126 -0.2013 -0.3311
   16MOL0     C 2051   8.072   1.097   3.676 -0.0196 -1.2573  0.8654
   16MOL0     C 2052   8.005   0.980   3.641  0.1708 -0.5838 -0.0933
   16MOL0     C 2053   7.851   0.972   3.657 -0.1864  0.0351 -0.3771
   16MOL0     C 2054   8.088   0.869   3.605  1.2965 -0.3440  0.3844
   16MOL0     C 2055   8.026   0.741   3.552  0.2524 -0.4424 -0.3077
   16MOL0     O 2056   7.898   0.745   3.517  0.1958  0.4369 -0.2506
   16MOL0     C 2057   7.832   0.653   3.440 -0.6245 -0.7002 -0.5841
   16MOL0     C 2058   7.744   0.707   3.343 -0.6857 -0.1602  0.7245
   16MOL0     C 2059   7.679   0.632   3.254 -0.3795  0.0937  0.3188
   16MOL0     C 2060   7.697   0.495   3.248  0.0480 -0.7969  0.9252
   16MOL0     O 2061   7.628   0.424   3.155  0.3309  0.4078  0.2231
   16MOL0     C 2062   7.594   0.287   3.199  0.0752 -0.8122  1.1447
   16MOL0     C 2063   7.487   0.222   3.112 -0.3332  0.5120 -0.2173
   16MOL0     C 2064   7.353   0.295   3.112  0.1557  0.4267  0.3824
   16MOL0     C 2065   7.284   0.269   2.981 -0.0697 -1.3184  0.8419
   16MOL0     C 2066   7.171   0.374   2.974 -0.2386 -0.0512  0.7144
   16MOL0     C 2067   7.094   0.372   2.843  0.0262 -0.9562  0.4911
   16MOL0     C 2068   7.005   0.506   2.843  0.5071 -0.7517  0.0586
   16MOL0     C 2069   6.931   0.505   2.703 -0.5763 -0.2472  0.2383
   16MOL0    Cl 2070   7.046   0.568   2.584 -0.3718  0.4587 -0.4385
   16MOL0     C 2071   7.789   0.445   3.339  0.1537  0.4695 -0.3822
   16MOL0     C 2072   7.849   0.515   3.441 -0.2455 -0.4081 -0.8111
   16MOL0     O 2073   8.107   0.652   3.528  0.0328  0.4512 -0.4099
   16MOL0     C 2074   8.230   0.878   3.604  0.3248  0.6317 -1.2138
   16MOL0     C 2075   8.288   1.005   3.640 -0.1759  0.2641 -0.4081
   16MOL0     N 2076   8.722   1.422   3.966  0.2406 -0.0156 -0.4835
   16MOL0     N 2077   8.809   1.406   4.053  0.2529 -0.0495 -0.2813
   16MOL0     C 2078   9.759   1.568   4.587 -0.6963  1.4911 -0.2968
   16MOL0     C 2079   9.898   1.586   4.591 -0.3014 -0.4795 -0.5252
   16MOL0     C 2080  10.311   1.780   4.696 -0.3070 -0.9854  0.6993
   16MOL0     C 2081  10.388   1.884   4.746  0.2489  0.8214  0.0874
   16MOL0     C 2082  10.520   1.897   4.725 -0.1981 -0.8094  1.2601
   16MOL0     C 2083  10.585   1.787   4.660  0.9255  0.5752 -0.4508
   16MOL0     O 2084  10.720   1.801   4.639 -0.2302 -0.6956 -0.0849
   16MOL0     C 2085  10.791   1.700   4.566  0.0293  0.0666 -0.1319
   16MOL0     C 2086  10.943   1.726   4.582  0.1467  0.2087  0.2900
   16MOL0     C 2087  10.993   1.683   4.723 -0.3442 -0.0402 -0.1925
   16MOL0     C 2088  11.140   1.644   4.727 -0.3842 -0.5455  0.2598
   16MOL0     C 2089  11.222   1.751   4.675  0.2801 -0.5413 -0.5742
   16MOL0     C 2090  11.298   1.842   4.638  0.1739 -0.1389 -0.4727
   16MOL0     C 2091  10.510   1.683   4.608  1.0501 -0.1379  0.4761
   16MOL0     C 2092  10.371   1.681   4.623 -0.3236  0.0241 -0.3145
   16MOL0     H 2093   9.908   1.863   4.786 -0.3011  0.3649 -0.6374
   16MOL0     H 2094   9.676   1.837   4.778 -0.0104 -0.4282  1.0313
   16MOL0     H 2095   9.524   1.682   4.857 -2.7079 -3.3024  0.3157
   16MOL0     H 2096   9.456   1.797   4.730 -0.9941  0.2081  0.0468
   16MOL0     H 2097   9.336   1.537   4.828  3.9346 -0.0245 -0.4260
   16MOL0     H 2098   9.276   1.706   4.852  2.0059  0.3973  3.3058
   16MOL0     H 2099   9.276   1.700   4.581 -1.2061  1.0922  0.9561
   16MOL0     H 2100   9.297   1.523   4.598 -1.2028 -1.2423  0.6991
   16MOL0     H 2101   9.078   1.509   4.729 -0.5847 -2.3157 -4.1295
   16MOL0     H 2102   9.054   1.689   4.719 -0.9225  0.7246 -1.3996
   16MOL0     H 2103   9.032   1.691   4.489 -0.5426 -0.2825 -0.6988
   16MOL0     H 2104   9.078   1.518   4.483 -0.9162 -0.8149  0.2727
   16MOL0     H 2105   8.884   1.437   4.559  1.0773  0.3886 -1.5942
   16MOL0     H 2106   8.836   1.595   4.629 -1.2631 -0.7905  0.9105
   16MOL0     H 2107   8.697   1.568   4.433 -0.3265  0.4897 -0.4885
   16MOL0     H 2108   8.825   1.675   4.373  2.2814 -0.9647 -0.5355
   16MOL0     H 2109   8.825   1.365   4.356 -0.9446 -1.5082 -2.1498
   16MOL0     H 2110   8.945   1.463   4.276 -0.7866  0.0201 -2.9552
   16MOL0     H 2111   8.582   1.581   4.226 -1.1778  0.0700 -0.3258
   16MOL0     H 2112   8.427   1.599   4.005 -0.9109 -2.5365  1.5929
   16MOL0     H 2113   8.531   1.614   3.870  0.4258  0.7592  1.0142
   16MOL0     H 2114   8.403   1.351   3.968 -0.7261  0.6519  0.4007
   16MOL0     H 2115   8.506   1.379   3.827  0.5548  1.5554  0.2004
   16MOL0     H 2116   8.339   1.498   3.708  1.0665 -2.1945 -0.3555
   16MOL0     H 2117   8.247   1.531   3.853 -0.8891  1.2683 -0.5722
   16MOL0     H 2118   8.129   1.369   3.703 -0.7954  1.6963  2.4413
   16MOL0     H 2119   8.167   1.302   3.863  1.2348 -2.7510 -0.4057
   16MOL0     H 2120   8.022   1.188   3.707  0.5200 -0.5689 -0.2178
   16MOL0     H 2121   7.809   0.975   3.556 -2.3291 -1.1954  0.4155
   16MOL0     H 2122   7.827   0.879   3.710  2.2414  0.0577  0.9087
   16MOL0     H 2123   7.807   1.058   3.708  0.3868  1.2063 -1.7820
   16MOL0     H 2124   7.743   0.816   3.342  2.4264 -0.0293 -0.0897
   16MOL0     H 2125   7.621   0.686   3.180  1.6960  0.1821 -1.3153
   16MOL0     H 2126   7.681   0.224   3.220  0.3518  0.2335  3.6135
   16MOL0     H 2127   7.542   0.285   3.295 -0.2931 -0.6030  0.9480
   16MOL0     H 2128   7.536   0.220   3.014  3.2394  0.2651  1.4320
   16MOL0     H 2129   7.480   0.122   3.155 -1.5656  0.5389 -0.3171
   16MOL0     H 2130   7.379   0.402   3.114  1.5378  0.1107  1.4113
   16MOL0     H 2131   7.294   0.270   3.200  0.4089  0.1212  0.4660
   16MOL0     H 2132   7.359   0.298   2.906 -0.3019 -1.8289  0.4005
   16MOL0     H 2133   7.242   0.168   2.972 -2.9841 -0.0186 -2.2367
   16MOL0     H 2134   7.222   0.471   2.975  1.6399 -1.0095  0.4510
   16MOL0     H 2135   7.109   0.362   3.063  1.5329  1.9600  2.3168
   16MOL0     H 2136   7.156   0.371   2.753  2.3261 -3.3253  1.9457
   16MOL0     H 2137   7.027   0.286   2.838  0.0554 -1.0569  1.6267
   16MOL0     H 2138   7.063   0.597   2.860 -0.5804  0.3481 -1.7682
   16MOL0     H 2139   6.939   0.495   2.929  1.9518  0.2016  1.3465
   16MOL0     H 2140   6.839   0.564   2.706  2.4710  5.1462  1.7181
   16MOL0     H 2141   6.917   0.399   2.681  0.5073  0.1860 -3.0523
   16MOL0     H 2142   7.819   0.341   3.325  0.0338  0.4380 -0.4046
   16MOL0     H 2143   7.918   0.471   3.512 -2.7399 -2.2167  0.6906
   16MOL0     H 2144   8.295   0.797   3.574  0.5009  0.1509  0.3559
   16MOL0     H 2145   8.395   1.012   3.651 -0.2508 -1.1942  2.1454
   16MOL0     H 2146   9.725   1.476   4.540  1.5864 -1.1423  2.7345
   16MOL0     H 2147   9.960   1.501   4.565 -0.7688 -1.7739  2.2983
   16MOL0     H 2148  10.338   1.964   4.800 -1.3324 -0.2017  0.2040
   16MOL0     H 2149  10.571   1.986   4.760  0.6270 -0.4500 -0.7302
   16MOL0     H 2150  10.760   1.604   4.609  0.4490 -0.5439 -1.1775
   16MOL0     H 2151  10.760   1.691   4.462  0.9188 -3.5958 -0.2204
   16MOL0     H 2152  10.965   1.832   4.569 -0.3705  0.2318 -0.4667
   16MOL0     H 2153  10.991   1.669   4.502 -2.4479  0.2521 -1.4320
   16MOL0     H 2154  10.931   1.598   4.754  1.2979 -0.3526  2.4828
   16MOL0     H 2155  10.983   1.768   4.790  3.4329 -0.4126  1.0399
   16MOL0     H 2156  11.162   1.552   4.673 -2.9685 -1.2866  0.3410
   16MOL0     H 2157  11.165   1.628   4.832 -4.3633 -0.8233  1.3187
   16MOL0     H 2158  11.363   1.920   4.603  0.9265  0.1793  1.5151
   16MOL0     H 2159  10.546   1.602   4.545 -0.5046 -0.8629  0.4975
   16MOL0     H 2160  10.313   1.592   4.600  0.4498 -0.7049  0.4531
   17MOL0     O 2161   3.951  11.219   7.075 -0.2833 -0.0674 -0.2838
   17MOL0     C 2162   3.989  11.320   7.148  0.3768 -0.3778  0.1223
   17MOL0     O 2163   3.902  11.399   7.232 -0.5708 -0.5923  0.1170
   17MOL0     C 2164   3.768  11.386   7.225 -0.0917  0.4164 -0.0473
   17MOL0     C 2165   3.697  11.414   7.342 -0.1479 -0.4132 -0.5263
   17MOL0     C 2166   3.551  11.397   7.346  0.5069 -0.0104  0.0235
   17MOL0     C 2167   3.474  11.362   7.230  0.7627 -0.1093  0.2426
   17MOL0     O 2168   3.337  11.373   7.240 -0.2243  0.1385  0.4025
   17MOL0     C 2169   3.262  11.335   7.127 -0.0185  0.3731  0.0103
   17MOL0     C 2170   3.117  11.378   7.151 -0.0820 -0.5230 -1.1054
   17MOL0     C 2171   3.028  11.357   7.028  0.3255  0.0431  0.0476
   17MOL0     C 2172   2.892  11.439   7.034  0.3070  0.1776 -1.1290
   17MOL0     C 2173   2.792  11.378   6.943  0.1353 -0.9937 -0.3412
   17MOL0     C 2174   2.719  11.255   7.011 -0.2473 -0.4608  0.3483
   17MOL0     C 2175   2.610  11.196   6.920 -0.4018 -0.5117  0.1865
   17MOL0     C 2176   2.505  11.104   6.988 -0.5633  0.5980 -0.3016
   17MOL0     N 2177   2.402  11.181   7.059 -0.3459  0.0349 -0.1082
   17MOL0     C 2178   2.404  11.213   7.192 -0.3554  0.4083  0.1234
   17MOL0     C 2179   2.277  11.242   7.225  0.4300  0.4240 -0.2952
   17MOL0     C 2180   2.237  11.263   7.369 -0.0486  0.3279  0.4238
   17MOL0     C 2181   2.083  11.276   7.379  0.8570 -0.1651 -0.4747
   17MOL0     C 2182   2.042  11.295   7.525  0.1124  0.2681  0.0826
   17MOL0     C 2183   1.907  11.365   7.536  0.3016 -0.2970  0.1062
   17MOL0     O 2184   1.930  11.499   7.486 -0.2516  0.5138 -0.6109
   17MOL0     C 2185   1.827  11.577   7.448  0.3722 -0.6685  0.1303
   17MOL0     C 2186   1.853  11.683   7.359 -0.1079 -0.3112 -0.7098
   17MOL0     C 2187   1.743  11.752   7.291 -0.4091  0.0488  0.0256
   17MOL0     C 2188   1.790  11.839   7.179  1.0389 -0.3120  0.2683
   17MOL0     C 2189   1.610  11.726   7.324 -0.0018  0.9595  0.3839
   17MOL0     C 2190   1.482  11.766   7.243 -1.0540 -0.0776  0.6446
   17MOL0     O 2191   1.371  11.704   7.282 -0.1295  0.4574 -0.0670
   17MOL0     C 2192   1.254  11.714   7.217 -0.0021  0.4232 -0.6456
   17MOL0     C 2193   1.235  11.694   7.079 -0.3028 -0.8921  0.6586
   17MOL0     C 2194   1.110  11.691   7.015 -0.1988 -0.0043  0.2149
   17MOL0     C 2195   0.995  11.692   7.096 -0.2051  0.2668  0.4769
   17MOL0     O 2196   0.868  11.666   7.041  0.1203 -0.6261  0.0833
   17MOL0     C 2197   0.874  11.583   6.922 -0.0053 -0.1350  0.0704
   17MOL0     C 2198   0.744  11.514   6.901 -0.8792  0.5077 -0.5333
   17MOL0     C 2199   0.625  11.608   6.870  0.0537  0.2589  0.5541
   17MOL0     C 2200   0.632  11.657   6.720  0.5132 -0.9378  0.1452
   17MOL0     C 2201   0.503  11.740   6.694  0.3397  0.7485 -0.3078
   17MOL0     C 2202   0.368  11.651   6.688 -1.0344 -0.8834 -0.7759
   17MOL0     C 2203   0.247  11.731   6.637  0.4914 -0.5733  0.5004
   17MOL0     C 2204   0.118  11.651   6.616 -0.3518  0.1418 -0.6229
   17MOL0    Cl 2205   0.135  11.545   6.471 -0.5111 -0.2493  0.2188
   17MOL0     C 2206   1.007  11.697   7.239 -0.7564 -0.5573 -0.2414
   17MOL0     C 2207   1.140  11.711   7.293  0.7024  0.3766  0.7201
   17MOL0     O 2208   1.489  11.846   7.153 -0.4881  0.2621 -0.3529
   17MOL0     C 2209   1.596  11.630   7.427  0.4008  0.7492  0.5338
   17MOL0     C 2210   1.696  11.560   7.486  0.4616  0.3749 -0.4226
   17MOL0     N 2211   2.201  11.244   7.109 -0.3600  0.1086 -0.6545
   17MOL0     N 2212   2.282  11.214   7.009  0.3907  0.3260 -0.0857
   17MOL0     C 2213   3.546  11.339   7.115 -0.6662 -0.2671  0.3472
   17MOL0     C 2214   3.689  11.352   7.110  0.5144  0.6088 -0.0585
   17MOL0     C 2215   4.131  11.345   7.136  0.8995 -0.4302 -0.0179
   17MOL0     C 2216   4.194  11.416   7.242  0.5052  0.7101 -0.6329
   17MOL0     C 2217   4.323  11.465   7.223 -0.1811 -0.3621  0.4186
   17MOL0     C 2218   4.391  11.430   7.108  0.0178 -0.4117  0.1982
   17MOL0     O 2219   4.515  11.470   7.063  0.5266  0.1940  0.3996
   17MOL0     C 2220   4.560  11.598   7.124  0.4722  0.0918  0.0885
   17MOL0     C 2221   4.696  11.627   7.066  0.5389 -0.4043 -0.7684
   17MOL0     C 2222   4.798  11.509   7.086  0.0839  0.5350 -0.0736
   17MOL0     C 2223   4.923  11.531   7.004 -0.2091  0.5920 -0.9507
   17MOL0     C 2224   5.016  11.416   7.013  0.0603 -0.1178 -0.6341
   17MOL0     C 2225   5.096  11.323   7.020 -0.1894  0.5654  0.8424
   17MOL0     C 2226   4.330  11.351   7.004 -0.1066 -0.9884  0.0399
   17MOL0     C 2227   4.198  11.323   7.015  0.6244  0.3557  0.2566
   17MOL0     H 2228   3.745  11.456   7.430 -0.2307 -0.4364 -0.4687
   17MOL0     H 2229   3.497  11.399   7.441  2.6975  1.7393  1.3433
   17MOL0     H 2230   3.298  11.394   7.041  0.4575  0.2483  0.1208
   17MOL0     H 2231   3.269  11.227   7.110 -0.8602  0.5600 -1.7641
   17MOL0     H 2232   3.080  11.322   7.237  0.8203  0.5151 -0.0154
   17MOL0     H 2233   3.115  11.483   7.181 -0.5625 -0.4116 -1.5214
   17MOL0     H 2234   3.085  11.383   6.938  0.4456 -1.6086 -0.3872
   17MOL0     H 2235   2.996  11.253   7.015 -2.8269  0.7749  1.1341
   17MOL0     H 2236   2.851  11.441   7.135  0.8593  0.1475 -0.8979
   17MOL0     H 2237   2.908  11.542   7.002  0.5416  1.1565  1.8937
   17MOL0     H 2238   2.711  11.450   6.927  0.6923 -0.0747  0.8013
   17MOL0     H 2239   2.838  11.350   6.848 -0.1028 -0.8673 -0.4936
   17MOL0     H 2240   2.793  11.179   7.039  0.6635  0.6187  0.9768
   17MOL0     H 2241   2.668  11.294   7.099  0.4997  1.6476 -0.0937
   17MOL0     H 2242   2.549  11.266   6.863 -0.3438 -1.8433 -1.5897
   17MOL0     H 2243   2.657  11.135   6.842 -4.4253 -1.3921 -1.7806
   17MOL0     H 2244   2.564  11.039   7.054  1.4795  2.0711 -0.5565
   17MOL0     H 2245   2.454  11.034   6.922  0.0680 -2.0899  1.9006
   17MOL0     H 2246   2.495  11.196   7.249  2.3561 -0.2996 -3.9481
   17MOL0     H 2247   2.262  11.181   7.437 -3.5775  0.2793  1.8559
   17MOL0     H 2248   2.288  11.350   7.412  1.8728 -0.7064  0.4009
   17MOL0     H 2249   2.036  11.187   7.337 -1.5516  1.5430 -1.6662
   17MOL0     H 2250   2.046  11.364   7.325 -1.0013  0.6612  1.9428
   17MOL0     H 2251   2.117  11.349   7.584 -0.8956  1.3562  0.3946
   17MOL0     H 2252   2.023  11.198   7.572 -1.4647 -0.0745 -1.1746
   17MOL0     H 2253   1.872  11.384   7.638  0.8600  1.2190  0.0325
   17MOL0     H 2254   1.827  11.315   7.480  1.8008  0.1541 -2.6026
   17MOL0     H 2255   1.957  11.691   7.328  0.8821 -1.4492  1.9585
   17MOL0     H 2256   1.898  11.829   7.164  0.9584 -0.3342 -0.3166
   17MOL0     H 2257   1.743  11.816   7.082 -0.5242  1.8412  0.4374
   17MOL0     H 2258   1.770  11.945   7.199  0.6448 -0.1636 -0.8078
   17MOL0     H 2259   1.330  11.695   7.026  1.3112  0.8049  3.3020
   17MOL0     H 2260   1.104  11.697   6.907 -0.8119 -0.0515  0.2429
   17MOL0     H 2261   0.898  11.641   6.832  2.0296 -3.1802 -1.5474
   17MOL0     H 2262   0.947  11.502   6.931 -0.8690 -1.5408 -3.5153
   17MOL0     H 2263   0.756  11.439   6.823  0.9642  0.4710 -0.2579
   17MOL0     H 2264   0.714  11.461   6.992  0.0392 -0.8646 -0.9954
   17MOL0     H 2265   0.630  11.695   6.936 -0.9578  1.1406 -0.4739
   17MOL0     H 2266   0.530  11.557   6.886  1.3707 -3.1669 -1.4576
   17MOL0     H 2267   0.716  11.726   6.717 -1.3758  1.5262  0.7536
   17MOL0     H 2268   0.639  11.575   6.648 -1.2595  0.8860 -2.2689
   17MOL0     H 2269   0.500  11.787   6.596 -1.4562 -0.5989 -0.9555
   17MOL0     H 2270   0.491  11.814   6.774 -2.0351  1.1157 -0.9331
   17MOL0     H 2271   0.388  11.554   6.640  2.6383  0.0087 -1.4224
   17MOL0     H 2272   0.342  11.610   6.786 -2.9365 -1.4218 -1.4633
   17MOL0     H 2273   0.270  11.780   6.542  0.5565  1.1765  1.3775
   17MOL0     H 2274   0.236  11.818   6.703  3.4096  4.5168 -4.6887
   17MOL0     H 2275   0.037  11.724   6.605 -1.9320 -1.6365 -1.4529
   17MOL0     H 2276   0.100  11.579   6.696 -0.5024 -0.9240 -1.5791
   17MOL0     H 2277   0.919  11.696   7.303 -1.2645  0.6784 -0.8707
   17MOL0     H 2278   1.160  11.719   7.399  0.3999  2.6007  0.6432
   17MOL0     H 2279   1.495  11.604   7.458  0.5802 -2.0159 -0.8859
   17MOL0     H 2280   1.674  11.485   7.561  1.7506  0.4738  0.0807
   17MOL0     H 2281   3.493  11.313   7.024 -0.3280  0.4189 -0.0478
   17MOL0     H 2282   3.726  11.323   7.012 -1.7740 -0.1339 -0.7676
   17MOL0     H 2283   4.144  11.446   7.333 -1.5302 -0.7705 -1.1919
   17MOL0     H 2284   4.366  11.522   7.305  1.4464  0.9572 -1.2756
   17MOL0     H 2285   4.481  11.672   7.109  0.4158 -0.2351 -1.3076
   17MOL0     H 2286   4.574  11.588   7.232 -2.1844  1.8383  0.7000
   17MOL0     H 2287   4.743  11.710   7.120  3.4654 -2.2253 -0.3093
   17MOL0     H 2288   4.679  11.651   6.960 -3.7016  1.0054  0.0296
   17MOL0     H 2289   4.757  11.414   7.051  2.2375  0.2432 -2.0545
   17MOL0     H 2290   4.822  11.509   7.193 -1.9891  1.1169  0.4388
   17MOL0     H 2291   4.970  11.622   7.042 -1.3420  0.2715  1.3693
   17MOL0     H 2292   4.908  11.549   6.897  0.3045  3.1361 -0.6591
   17MOL0     H 2293   5.145  11.229   7.028 -3.3184 -1.4174 -0.9294
   17MOL0     H 2294   4.384  11.307   6.921  0.8330 -0.5157  0.3767
   17MOL0     H 2295   4.144  11.277   6.933  0.9924 -1.8707  1.2115
   18MOL0     O 2296   5.635  10.621   6.085 -0.7490 -0.3229 -0.1704
   18MOL0     C 2297   5.625  10.500   6.098 -0.2145  0.0509  0.0611
   18MOL0     O 2298   5.508  10.425   6.081 -0.0096  0.0763 -0.2611
   18MOL0     C 2299   5.394  10.494   6.061  1.1106  0.0789 -0.1752
   18MOL0     C 2300   5.353  10.623   6.098  0.0999  0.4678  0.0205
   18MOL0     C 2301   5.230  10.676   6.060  0.4811 -0.0957  0.0728
   18MOL0     C 2302   5.139  10.598   5.990  1.0804  0.2063  0.2230
   18MOL0     O 2303   5.026  10.646   5.929 -0.7709  0.0838  0.6457
   18MOL0     C 2304   4.981  10.776   5.950  0.2074 -0.1412  0.9575
   18MOL0     C 2305   4.854  10.806   5.874  0.9290 -0.2575 -0.2224
   18MOL0     C 2306   4.735  10.725   5.930 -0.7677  0.1758 -0.5192
   18MOL0     C 2307   4.611  10.737   5.844 -0.1766 -1.0045 -0.8373
   18MOL0     C 2308   4.529  10.601   5.832 -0.9262 -0.2914 -0.6404
   18MOL0     C 2309   4.394  10.639   5.783  0.5331 -0.2643  0.5644
   18MOL0     C 2310   4.309  10.512   5.796 -0.3246 -0.2401  0.0791
   18MOL0     C 2311   4.162  10.548   5.773 -0.4859 -0.2574 -0.4449
   18MOL0     N 2312   4.072  10.429   5.786  0.6652 -0.3136 -0.4602
   18MOL0     C 2313   4.050  10.355   5.904 -0.7195  0.7830  1.0573
   18MOL0     C 2314   3.944  10.283   5.884  0.4260  0.6485  0.5333
   18MOL0     C 2315   3.876  10.185   5.984 -0.1375  0.2814  0.7290
   18MOL0     C 2316   3.725  10.187   5.951 -0.8264  0.2957 -0.4380
   18MOL0     C 2317   3.648  10.110   6.056  0.4209  0.0439 -0.7292
   18MOL0     C 2318   3.507  10.058   6.003 -0.7494  0.1329 -0.4793
   18MOL0     O 2319   3.421  10.177   6.012 -0.2182 -0.2169 -0.4245
   18MOL0     C 2320   3.290  10.168   5.973  0.0154  0.0193  1.1797
   18MOL0     C 2321   3.221  10.054   5.942 -0.1426 -0.0800  0.1203
   18MOL0     C 2322   3.082  10.065   5.922  0.0755 -0.1700  0.4249
   18MOL0     C 2323   3.018   9.940   5.868 -0.5833 -0.5964  0.3182
   18MOL0     C 2324   3.005  10.182   5.932  0.3771  0.8657 -0.7340
   18MOL0     C 2325   2.860  10.190   5.936  0.8510 -0.3236 -0.1917
   18MOL0     O 2326   2.792  10.082   5.979  1.0570 -0.1293  0.3265
   18MOL0     C 2327   2.659  10.083   6.013  0.4429 -0.6643  0.2270
   18MOL0     C 2328   2.593   9.969   5.980  0.2737 -0.1376  0.1743
   18MOL0     C 2329   2.456   9.944   6.010 -0.4897  0.8607 -1.0164
   18MOL0     C 2330   2.385  10.048   6.066 -0.4726  0.0831 -0.4118
   18MOL0     O 2331   2.245  10.031   6.076 -0.2078  0.1067 -0.5699
   18MOL0     C 2332   2.178  10.041   6.209 -0.6939 -0.6703  0.1078
   18MOL0     C 2333   2.029  10.056   6.186 -0.5020 -0.0084  0.3939
   18MOL0     C 2334   1.998  10.190   6.125  0.6352  0.2529  0.5260
   18MOL0     C 2335   1.841  10.194   6.127 -0.7038  0.4629 -0.3062
   18MOL0     C 2336   1.793  10.320   6.045  0.1403 -1.2790 -0.2570
   18MOL0     C 2337   1.647  10.307   6.024  0.2331  0.0629 -0.3274
   18MOL0     C 2338   1.598  10.422   5.922 -0.7703  0.3051  0.7631
   18MOL0     C 2339   1.475  10.501   5.978  0.3480 -0.5370 -0.4785
   18MOL0    Cl 2340   1.319  10.409   5.992  0.4489 -0.1554 -0.6277
   18MOL0     C 2341   2.443  10.165   6.099  0.7245  0.6106 -0.2985
   18MOL0     C 2342   2.585  10.181   6.074  0.3809  0.1462  0.5223
   18MOL0     O 2343   2.806  10.296   5.902 -0.1501 -0.1175 -0.0382
   18MOL0     C 2344   3.083  10.297   5.951 -0.1557  0.5457 -0.0695
   18MOL0     C 2345   3.221  10.289   5.970 -0.3869 -0.2604 -0.8107
   18MOL0     N 2346   3.913  10.294   5.748  0.0679 -0.1532 -0.3656
   18MOL0     N 2347   3.985  10.385   5.686  0.4360  0.6734  0.2052
   18MOL0     C 2348   5.171  10.464   5.959 -0.0784 -0.2141  1.2090
   18MOL0     C 2349   5.299  10.421   5.986 -0.2083  0.1605  0.1294
   18MOL0     C 2350   5.740  10.415   6.149  0.0858 -0.5946  0.2118
   18MOL0     C 2351   5.719  10.291   6.194 -0.1562  0.5543  0.8509
   18MOL0     C 2352   5.817  10.199   6.227  0.4896  0.6971  0.0080
   18MOL0     C 2353   5.949  10.232   6.222 -0.0619 -0.0307  1.0808
   18MOL0     O 2354   6.058  10.149   6.241  0.4681  0.4938 -0.3132
   18MOL0     C 2355   6.034  10.006   6.272 -1.0851 -0.9138  0.0738
   18MOL0     C 2356   6.176   9.940   6.296 -0.1878  0.3258  0.0239
   18MOL0     C 2357   6.137   9.798   6.348  0.0810  1.1973  0.2218
   18MOL0     C 2358   6.265   9.718   6.371 -0.1161 -0.1644 -0.2512
   18MOL0     C 2359   6.242   9.572   6.379  0.5825  1.2631 -0.8993
   18MOL0     C 2360   6.221   9.443   6.394 -1.1947  0.1058  0.1838
   18MOL0     C 2361   5.978  10.368   6.178 -0.7031  0.8753  0.1357
   18MOL0     C 2362   5.875  10.457   6.147  0.1533 -0.5561 -0.4066
   18MOL0     H 2363   5.421  10.679   6.161  0.7403  1.9595 -1.8848
   18MOL0     H 2364   5.208  10.780   6.083 -1.0826 -0.1088 -1.1490
   18MOL0     H 2365   4.966  10.790   6.058  0.1499 -0.8647  1.0499
   18MOL0     H 2366   5.048  10.856   5.919 -1.2819  1.3806  1.5382
   18MOL0     H 2367   4.822  10.910   5.881 -2.1375 -1.1603  2.9307
   18MOL0     H 2368   4.860  10.783   5.768  2.4819  0.4194 -0.2974
   18MOL0     H 2369   4.768  10.621   5.939 -0.5686  0.3806  1.4984
   18MOL0     H 2370   4.710  10.740   6.035  0.9164 -2.1415  0.2921
   18MOL0     H 2371   4.549  10.817   5.886 -0.2728 -1.9539  0.9119
   18MOL0     H 2372   4.642  10.763   5.742 -0.0689 -1.5807 -0.9565
   18MOL0     H 2373   4.582  10.536   5.762 -0.3310  1.0704 -1.4958
   18MOL0     H 2374   4.527  10.564   5.935 -0.1257  3.2531  0.8223
   18MOL0     H 2375   4.347  10.722   5.837  0.1180 -0.4647  0.5164
   18MOL0     H 2376   4.394  10.665   5.677 -1.9949 -1.6778  0.1451
   18MOL0     H 2377   4.348  10.439   5.725 -3.4558 -1.1320 -0.9152
   18MOL0     H 2378   4.324  10.471   5.897  0.9648  1.1225  0.4784
   18MOL0     H 2379   4.160  10.591   5.673  1.4896  1.8604  0.3395
   18MOL0     H 2380   4.129  10.619   5.849 -2.1838 -0.0506 -1.3317
   18MOL0     H 2381   4.106  10.355   5.997  0.5868 -0.9741  0.3369
   18MOL0     H 2382   3.910  10.083   5.966 -2.8927 -1.2230  3.2925
   18MOL0     H 2383   3.902  10.206   6.088 -1.3713 -0.0528  1.1209
   18MOL0     H 2384   3.709  10.150   5.850 -0.7743  0.0618 -0.3622
   18MOL0     H 2385   3.680  10.287   5.950  1.6501  1.4786 -0.2662
   18MOL0     H 2386   3.633  10.166   6.149 -0.1128  0.0981 -0.8452
   18MOL0     H 2387   3.708  10.019   6.068 -1.6640 -1.1808  1.3449
   18MOL0     H 2388   3.466   9.983   6.071 -0.3152  1.8163  1.7411
   18MOL0     H 2389   3.506  10.022   5.900  3.0623  2.6396 -1.6158
   18MOL0     H 2390   3.267   9.956   5.940 -0.6967 -0.4872  2.9417
   18MOL0     H 2391   3.091   9.885   5.809  0.2575 -0.1816  0.9485
   18MOL0     H 2392   3.001   9.881   5.959  2.8120  1.8459  2.7689
   18MOL0     H 2393   2.928   9.942   5.805  1.6674 -1.4542 -3.1880
   18MOL0     H 2394   2.641   9.884   5.934 -0.7984  0.3430 -1.9479
   18MOL0     H 2395   2.412   9.851   5.975  3.3339 -0.3990 -3.1504
   18MOL0     H 2396   2.199   9.958   6.276  1.2939 -0.1373  0.1985
   18MOL0     H 2397   2.211  10.136   6.253  1.6170  0.2821 -3.2514
   18MOL0     H 2398   1.982   9.976   6.128 -1.7344  1.5516 -0.8309
   18MOL0     H 2399   1.969  10.049   6.278 -1.2025 -0.9053 -0.1159
   18MOL0     H 2400   2.041  10.202   6.025 -1.5748  1.1344 -0.3940
   18MOL0     H 2401   2.031  10.274   6.188  1.6148  1.8395 -1.9796
   18MOL0     H 2402   1.799  10.101   6.087  0.5658 -0.0757 -0.4447
   18MOL0     H 2403   1.801  10.195   6.229 -0.0206  1.5689 -0.0371
   18MOL0     H 2404   1.842  10.342   5.949  1.8855  1.4075  1.1200
   18MOL0     H 2405   1.810  10.414   6.099  3.9001 -1.2116 -1.2288
   18MOL0     H 2406   1.621  10.208   5.986  1.2189 -0.7575  1.0631
   18MOL0     H 2407   1.598  10.328   6.119 -1.0105 -1.3538 -0.6143
   18MOL0     H 2408   1.577  10.373   5.827  2.5824  1.0747 -0.4827
   18MOL0     H 2409   1.673  10.492   5.884 -0.9711  0.2927  0.3336
   18MOL0     H 2410   1.455  10.586   5.913  2.5853  0.2120 -0.2716
   18MOL0     H 2411   1.499  10.537   6.079 -1.0695  0.7983 -0.5988
   18MOL0     H 2412   2.392  10.257   6.126  0.1734  0.5872 -1.2188
   18MOL0     H 2413   2.638  10.266   6.118  1.6196 -1.0491  1.4275
   18MOL0     H 2414   3.045  10.399   5.949 -1.2598  0.1309 -0.8674
   18MOL0     H 2415   3.282  10.377   5.988 -0.9723  0.2812 -1.4326
   18MOL0     H 2416   5.107  10.400   5.898  1.8501  2.2595 -3.9970
   18MOL0     H 2417   5.318  10.322   5.947  0.2719  0.2431  0.1489
   18MOL0     H 2418   5.615  10.261   6.194 -1.2631  3.8296 -1.0957
   18MOL0     H 2419   5.789  10.105   6.273  1.6273  0.9209  1.2222
   18MOL0     H 2420   5.971  10.006   6.361  0.1154  2.4213  1.0594
   18MOL0     H 2421   5.985   9.968   6.182  0.9935 -0.1082 -1.4734
   18MOL0     H 2422   6.214   9.997   6.381 -0.1017 -1.1619  1.0089
   18MOL0     H 2423   6.233   9.943   6.203  0.6867 -0.9351  0.4984
   18MOL0     H 2424   6.080   9.751   6.267  0.8879  1.6386 -0.6262
   18MOL0     H 2425   6.077   9.802   6.439  0.7601 -0.1114  0.7523
   18MOL0     H 2426   6.307   9.757   6.465  0.6072  2.3264 -1.4992
   18MOL0     H 2427   6.336   9.729   6.288  0.9426 -0.3348  0.6128
   18MOL0     H 2428   6.187   9.343   6.411 -0.6590 -0.3923 -1.5180
   18MOL0     H 2429   6.081  10.395   6.156  0.0812 -1.6621  0.4196
   18MOL0     H 2430   5.907  10.557   6.119  0.7702 -1.1374 -1.8845
   19MOL0     O 2431  11.210   7.808   1.597  1.2053 -0.4451  0.5171
   19MOL0     C 2432  11.300   7.883   1.635 -0.5442 -1.1739  1.0003
   19MOL0     O 2433  11.287   8.013   1.666 -0.3587 -0.4797  0.4527
   19MOL0     C 2434  11.156   8.056   1.674  0.3799 -0.4809  0.6440
   19MOL0     C 2435  11.110   8.157   1.598  0.4607 -0.2648 -0.1635
   19MOL0     C 2436  10.979   8.214   1.620  0.5190 -0.0227 -0.9079
   19MOL0     C 2437  10.893   8.157   1.710 -0.2918  0.8885 -0.4579
   19MOL0     O 2438  10.762   8.187   1.718  0.5741 -0.2364 -0.1075
   19MOL0     C 2439  10.723   8.321   1.712  0.8404  0.7268  0.7886
   19MOL0     C 2440  10.567   8.338   1.713 -0.3933  0.7797 -0.3204
   19MOL0     C 2441  10.501   8.244   1.821 -0.2951 -1.0289  0.1155
   19MOL0     C 2442  10.347   8.275   1.822  0.5092 -0.0336 -0.7868
   19MOL0     C 2443  10.315   8.422   1.868 -0.7576  0.2394 -0.3915
   19MOL0     C 2444  10.169   8.452   1.836  0.5639  0.4552 -0.9500
   19MOL0     C 2445  10.130   8.449   1.684 -0.4206 -0.1081 -0.2977
   19MOL0     C 2446   9.994   8.523   1.657 -0.3948 -0.3120  0.4760
   19MOL0     N 2447   9.884   8.454   1.730  0.5135  0.2630  0.1132
   19MOL0     C 2448   9.781   8.528   1.781  0.1800 -0.0565 -0.1978
   19MOL0     C 2449   9.688   8.440   1.817 -0.3631  0.2769  0.6693
   19MOL0     C 2450   9.558   8.464   1.899  0.1036 -0.2924 -0.3959
   19MOL0     C 2451   9.591   8.476   2.042 -0.2833 -0.1022 -0.4636
   19MOL0     C 2452   9.477   8.415   2.119  0.3100 -0.2236 -0.5592
   19MOL0     C 2453   9.340   8.486   2.105  0.2562  0.1236 -0.4115
   19MOL0     O 2454   9.272   8.452   2.233  0.1849 -0.2206  0.3464
   19MOL0     C 2455   9.153   8.508   2.249 -0.5682 -0.1429 -0.2349
   19MOL0     C 2456   9.129   8.551   2.377 -0.8043 -0.5668 -0.5499
   19MOL0     C 2457   9.009   8.616   2.406 -0.1999 -0.1455  0.3032
   19MOL0     C 2458   8.989   8.673   2.540 -0.3174 -0.1891  0.0709
   19MOL0     C 2459   8.910   8.626   2.303  0.4719  0.2444 -1.2911
   19MOL0     C 2460   8.780   8.696   2.317 -0.1742  0.3794 -0.2415
   19MOL0     O 2461   8.661   8.627   2.280  0.2641 -0.0962 -0.5197
   19MOL0     C 2462   8.542   8.661   2.344  0.3862 -0.1399  0.5147
   19MOL0     C 2463   8.421   8.609   2.280 -0.3207 -0.8437  0.4456
   19MOL0     C 2464   8.292   8.654   2.312 -0.6082  0.3860 -0.4364
   19MOL0     C 2465   8.275   8.718   2.434  1.7245 -0.2300 -0.0931
   19MOL0     O 2466   8.139   8.744   2.456  0.0162 -0.5662 -0.2806
   19MOL0     C 2467   8.108   8.856   2.542  0.3613  0.1354  0.0993
   19MOL0     C 2468   7.958   8.859   2.546  0.6629 -0.1074  0.3990
   19MOL0     C 2469   7.911   8.960   2.442  0.2827 -0.1401  0.0664
   19MOL0     C 2470   7.757   8.948   2.431 -0.2538  0.8302  1.0336
   19MOL0     C 2471   7.716   9.045   2.323 -0.2640 -0.4700 -0.1111
   19MOL0     C 2472   7.727   8.989   2.171 -0.3832 -0.2715 -1.2997
   19MOL0     C 2473   7.645   9.089   2.087 -0.8503 -0.0669  0.4081
   19MOL0     C 2474   7.644   9.048   1.937  0.1066  0.5626  0.3555
   19MOL0    Cl 2475   7.804   9.073   1.864  0.3349 -0.4733 -0.2926
   19MOL0     C 2476   8.384   8.756   2.506  0.2630 -0.0744 -0.1271
   19MOL0     C 2477   8.518   8.725   2.466 -0.3435 -0.4702 -0.4562
   19MOL0     O 2478   8.790   8.811   2.355 -0.0956  0.2064 -0.5846
   19MOL0     C 2479   8.938   8.584   2.174  0.5920 -0.1922  0.7714
   19MOL0     C 2480   9.060   8.529   2.140  0.5626  0.1290 -0.6246
   19MOL0     N 2481   9.727   8.313   1.787  0.2257 -1.3180 -0.1152
   19MOL0     N 2482   9.848   8.322   1.732 -0.1165  0.5020 -0.5350
   19MOL0     C 2483  10.937   8.052   1.784  0.1191  0.0071  0.2941
   19MOL0     C 2484  11.073   8.013   1.781  0.9334  0.3912 -0.2840
   19MOL0     C 2485  11.431   7.828   1.659 -0.9894  0.5311  0.6759
   19MOL0     C 2486  11.454   7.691   1.625  0.4195 -0.4097 -0.8568
   19MOL0     C 2487  11.577   7.630   1.644 -0.0076  0.1713 -1.0849
   19MOL0     C 2488  11.685   7.697   1.698 -0.3277 -0.2753 -0.5974
   19MOL0     O 2489  11.813   7.651   1.721  0.1927  0.3773 -0.0373
   19MOL0     C 2490  11.826   7.495   1.721 -0.0018 -0.2435 -0.0046
   19MOL0     C 2491  11.876   7.440   1.590  0.0551  0.4650  0.3608
   19MOL0     C 2492  12.026   7.477   1.575  0.2890  0.6390 -0.2057
   19MOL0     C 2493  12.115   7.378   1.494  0.1141  0.0233 -0.1097
   19MOL0     C 2494  12.252   7.434   1.479 -0.4616  0.0942 -0.7427
   19MOL0     C 2495  12.356   7.493   1.483 -0.2694  0.5833  0.2619
   19MOL0     C 2496  11.675   7.842   1.716  0.6260 -0.3993  0.2438
   19MOL0     C 2497  11.549   7.904   1.699  0.2901 -0.1159  0.2799
   19MOL0     H 2498  11.177   8.202   1.526 -0.2770  2.3440  0.6472
   19MOL0     H 2499  10.944   8.286   1.547 -0.0097 -1.9761 -2.7034
   19MOL0     H 2500  10.763   8.367   1.803  1.1237  0.6798  0.6871
   19MOL0     H 2501  10.760   8.376   1.626 -1.2295  1.0371  0.0384
   19MOL0     H 2502  10.541   8.443   1.725  1.3673  1.3716 -1.4453
   19MOL0     H 2503  10.540   8.298   1.614 -0.7956 -0.2173  0.1701
   19MOL0     H 2504  10.510   8.138   1.798 -0.3458 -1.0600  0.2451
   19MOL0     H 2505  10.551   8.274   1.913  1.7489  1.9393 -1.7717
   19MOL0     H 2506  10.298   8.245   1.728 -0.9132 -1.6786  0.4310
   19MOL0     H 2507  10.307   8.199   1.890  0.9776  0.0208 -0.4492
   19MOL0     H 2508  10.332   8.428   1.976  1.6756  2.9774 -0.8238
   19MOL0     H 2509  10.378   8.501   1.826  0.6668 -0.4901  0.3157
   19MOL0     H 2510  10.112   8.373   1.885  3.0613 -2.2115 -2.0310
   19MOL0     H 2511  10.142   8.547   1.884  0.4362  0.3319 -0.7747
   19MOL0     H 2512  10.210   8.498   1.629 -0.7466 -1.9901 -2.6325
   19MOL0     H 2513  10.109   8.348   1.645 -2.9063 -0.5238  1.7818
   19MOL0     H 2514   9.974   8.538   1.550 -1.9237  0.1075  0.7922
   19MOL0     H 2515  10.012   8.623   1.699 -0.4320  0.0519 -0.3414
   19MOL0     H 2516   9.755   8.633   1.790 -3.6437 -0.8944  0.0425
   19MOL0     H 2517   9.508   8.551   1.855 -1.9232 -1.7560 -1.1162
   19MOL0     H 2518   9.489   8.382   1.878 -1.2007  0.5766  0.3146
   19MOL0     H 2519   9.616   8.581   2.061 -0.6542  0.1478 -1.2766
   19MOL0     H 2520   9.678   8.413   2.063 -1.4183 -1.6256 -0.1316
   19MOL0     H 2521   9.498   8.423   2.226  2.2086  1.8822 -1.0136
   19MOL0     H 2522   9.466   8.313   2.082  1.8818 -0.1775 -1.2561
   19MOL0     H 2523   9.293   8.457   2.011 -1.2147  1.0201  0.0105
   19MOL0     H 2524   9.356   8.594   2.103 -1.2876  0.4000  0.3734
   19MOL0     H 2525   9.203   8.526   2.453 -1.2862  1.7230  0.7743
   19MOL0     H 2526   9.077   8.644   2.598 -0.9955 -0.5735  0.9369
   19MOL0     H 2527   8.984   8.782   2.542  0.6917 -0.1296 -0.1207
   19MOL0     H 2528   8.898   8.634   2.587  0.3435 -1.0333  0.6613
   19MOL0     H 2529   8.419   8.555   2.186 -1.7205 -2.5604  1.3975
   19MOL0     H 2530   8.205   8.638   2.249 -0.8093 -0.3004  0.0108
   19MOL0     H 2531   8.138   8.846   2.647 -1.1760 -0.2070  0.5372
   19MOL0     H 2532   8.152   8.948   2.504 -0.6807  1.1095  1.1870
   19MOL0     H 2533   7.904   8.765   2.532  0.8122 -0.6688  3.1158
   19MOL0     H 2534   7.919   8.896   2.641 -0.9182  2.6032 -1.1548
   19MOL0     H 2535   7.958   8.937   2.345  0.7536  0.3780  0.1659
   19MOL0     H 2536   7.936   9.062   2.472 -1.8163  0.5921 -0.4957
   19MOL0     H 2537   7.719   8.850   2.400 -2.9701  1.3085  2.5527
   19MOL0     H 2538   7.710   8.971   2.527 -0.2912 -1.0327  1.4970
   19MOL0     H 2539   7.780   9.133   2.337  1.9418 -1.5699 -2.5228
   19MOL0     H 2540   7.608   9.058   2.337 -0.6426 -3.3707  0.3065
   19MOL0     H 2541   7.829   8.989   2.134  0.9487  1.7493  1.9214
   19MOL0     H 2542   7.691   8.886   2.161  0.0891 -0.7131  0.9568
   19MOL0     H 2543   7.677   9.191   2.111  1.1943 -0.1749 -1.5119
   19MOL0     H 2544   7.542   9.074   2.120 -0.1947 -2.7938  1.4680
   19MOL0     H 2545   7.576   9.112   1.880  0.5283 -1.2559 -2.3768
   19MOL0     H 2546   7.601   8.947   1.934  0.1512  0.3797  3.0215
   19MOL0     H 2547   8.365   8.799   2.604 -3.4489  3.1070 -1.9594
   19MOL0     H 2548   8.594   8.750   2.538  0.2877 -0.3504 -1.1504
   19MOL0     H 2549   8.867   8.603   2.094  0.5579  0.3620  0.9308
   19MOL0     H 2550   9.096   8.509   2.039 -0.6049  0.7998 -1.1960
   19MOL0     H 2551  10.867   8.004   1.852  0.1984  0.9106  1.0393
   19MOL0     H 2552  11.108   7.949   1.862 -1.6757 -2.0915 -0.9146
   19MOL0     H 2553  11.379   7.617   1.600  0.2675 -0.5665  0.0161
   19MOL0     H 2554  11.591   7.526   1.618  2.6967 -0.3590  1.9906
   19MOL0     H 2555  11.900   7.472   1.798 -1.1807  0.0622  1.2420
   19MOL0     H 2556  11.737   7.437   1.747 -0.7025  0.5208 -0.6411
   19MOL0     H 2557  11.818   7.501   1.520 -0.2428  0.3307  0.4888
   19MOL0     H 2558  11.860   7.331   1.592  3.8509 -0.2229  2.3348
   19MOL0     H 2559  12.067   7.487   1.676 -0.7821 -3.0391  0.7395
   19MOL0     H 2560  12.026   7.574   1.525  1.4312 -0.2580 -2.0205
   19MOL0     H 2561  12.075   7.362   1.393 -0.9588  0.9287  0.1548
   19MOL0     H 2562  12.124   7.285   1.551 -1.9392  0.5842  1.2361
   19MOL0     H 2563  12.447   7.545   1.506 -0.2680 -0.7047  3.8266
   19MOL0     H 2564  11.754   7.909   1.748  0.9775 -1.4740  1.7739
   19MOL0     H 2565  11.532   8.012   1.700 -1.7187 -0.3852 -0.1230
   20MOL0     O 2566   3.356   3.439   6.103 -0.4422 -0.5062  0.0586
   20MOL0     C 2567   3.480   3.421   6.124 -0.0217  0.6716 -0.1589
   20MOL0     O 2568   3.528   3.395   6.254  0.5421 -0.0747  0.2206
   20MOL0     C 2569   3.453   3.428   6.360  0.4005 -0.0571 -0.7927
   20MOL0     C 2570   3.448   3.332   6.466  0.3196  0.0356 -0.4516
   20MOL0     C 2571   3.372   3.351   6.575 -0.5316  1.0802 -0.1955
   20MOL0     C 2572   3.293   3.462   6.594 -0.4018 -0.2391  0.6229
   20MOL0     O 2573   3.212   3.472   6.709 -0.0203 -0.1573  0.3088
   20MOL0     C 2574   3.148   3.595   6.738  0.7771 -0.0820  0.0455
   20MOL0     C 2575   3.094   3.585   6.872  0.5973 -0.3357  0.4962
   20MOL0     C 2576   2.990   3.696   6.886  0.2319 -0.7374 -0.4657
   20MOL0     C 2577   2.962   3.720   7.038 -0.2175  0.2154 -1.4951
   20MOL0     C 2578   2.867   3.843   7.063  0.1324 -0.2902 -0.4569
   20MOL0     C 2579   2.930   3.981   7.084 -0.1415 -1.1028  0.7441
   20MOL0     C 2580   2.978   4.046   6.951  1.0447 -0.0736 -0.6780
   20MOL0     C 2581   2.958   4.198   6.956  0.4131  0.3825  0.0027
   20MOL0     N 2582   2.823   4.238   6.921 -0.0278  0.6146  0.3703
   20MOL0     C 2583   2.745   4.206   6.814  0.3978 -0.3912  0.2469
   20MOL0     C 2584   2.619   4.233   6.857  0.4082  0.1743  0.0625
   20MOL0     C 2585   2.500   4.223   6.768  0.1582 -0.5096 -0.4050
   20MOL0     C 2586   2.384   4.181   6.854  0.6529  0.2833 -0.0491
   20MOL0     C 2587   2.275   4.128   6.752  0.7476 -0.3163  0.1157
   20MOL0     C 2588   2.130   4.115   6.807  0.2570  0.3256  0.3846
   20MOL0     O 2589   2.090   4.242   6.861  0.2749  0.4007  0.0048
   20MOL0     C 2590   1.961   4.253   6.911  0.2642 -0.2818 -0.7646
   20MOL0     C 2591   1.848   4.165   6.891  0.0279 -0.0349  0.8400
   20MOL0     C 2592   1.724   4.183   6.952  0.1417  0.3381 -0.1753
   20MOL0     C 2593   1.631   4.072   6.945 -0.2988  0.9087 -0.4805
   20MOL0     C 2594   1.703   4.299   7.032  0.8522  0.2012 -0.0347
   20MOL0     C 2595   1.580   4.322   7.106 -0.4301 -0.4417 -0.1882
   20MOL0     O 2596   1.461   4.281   7.052  0.4739  0.2393  0.4407
   20MOL0     C 2597   1.341   4.342   7.079  0.3080 -0.3382 -0.1792
   20MOL0     C 2598   1.330   4.478   7.107  0.3474  0.3914  0.3347
   20MOL0     C 2599   1.205   4.531   7.141  0.2487 -0.0012  0.2311
   20MOL0     C 2600   1.092   4.462   7.142  0.1311 -0.2478  0.0452
   20MOL0     O 2601   0.966   4.517   7.171 -0.2822  0.0609  0.4736
   20MOL0     C 2602   0.945   4.662   7.191 -0.4177 -0.8042  0.3962
   20MOL0     C 2603   0.794   4.687   7.207  0.3848  0.5406  1.3560
   20MOL0     C 2604   0.761   4.814   7.284 -0.0548  0.6703  0.1139
   20MOL0     C 2605   0.799   4.943   7.209  0.1961  0.3627 -0.2791
   20MOL0     C 2606   0.780   5.082   7.282  0.3333  0.4965 -0.2440
   20MOL0     C 2607   0.637   5.150   7.286  0.1555  0.3436 -0.4110
   20MOL0     C 2608   0.592   5.205   7.154  0.2806 -0.4054  0.2170
   20MOL0     C 2609   0.485   5.316   7.170  0.3369  0.3198 -0.4030
   20MOL0    Cl 2610   0.355   5.304   7.298 -0.1277 -0.3038 -0.6293
   20MOL0     C 2611   1.098   4.329   7.096 -0.5170  0.2772 -0.0086
   20MOL0     C 2612   1.229   4.267   7.068  0.1929  0.6034 -0.8802
   20MOL0     O 2613   1.589   4.395   7.203  0.5785 -0.1240 -0.6806
   20MOL0     C 2614   1.808   4.396   7.044  0.0919  0.9252  0.2877
   20MOL0     C 2615   1.937   4.371   6.986  0.4523  0.9182  0.4109
   20MOL0     N 2616   2.613   4.276   6.981  0.2663 -1.2124 -0.3066
   20MOL0     N 2617   2.734   4.278   7.021 -0.8615 -0.2679  0.7099
   20MOL0     C 2618   3.310   3.564   6.497  0.0542 -0.4589  0.1599
   20MOL0     C 2619   3.380   3.543   6.383  0.3927  0.1862 -0.4249
   20MOL0     C 2620   3.572   3.422   6.001 -0.0411 -0.1879 -0.1554
   20MOL0     C 2621   3.703   3.387   6.013  0.1050  0.2898  0.1063
   20MOL0     C 2622   3.787   3.388   5.905 -0.5770 -0.5195  0.1977
   20MOL0     C 2623   3.746   3.422   5.787 -0.3666  0.4586  0.6574
   20MOL0     O 2624   3.845   3.423   5.696 -0.4503  0.6994  0.1105
   20MOL0     C 2625   3.815   3.484   5.570  0.0408 -0.3420 -0.9945
   20MOL0     C 2626   3.933   3.466   5.473 -0.5209 -0.2494 -0.5719
   20MOL0     C 2627   4.067   3.462   5.530 -0.2488 -0.1686  1.0359
   20MOL0     C 2628   4.173   3.496   5.430  0.0725 -0.6399 -0.6656
   20MOL0     C 2629   4.303   3.458   5.479  0.0058 -0.7438  0.4445
   20MOL0     C 2630   4.409   3.430   5.530 -0.1358 -0.5488  0.6813
   20MOL0     C 2631   3.610   3.455   5.769 -0.0858  0.3759 -0.8512
   20MOL0     C 2632   3.521   3.456   5.872 -0.0097 -0.3206  0.1387
   20MOL0     H 2633   3.508   3.242   6.462  2.5239  1.4318 -0.8434
   20MOL0     H 2634   3.363   3.271   6.648 -0.6557  1.3425  0.0810
   20MOL0     H 2635   3.214   3.680   6.721  0.9242 -0.2260 -0.0993
   20MOL0     H 2636   3.062   3.608   6.671  0.7606  1.9936  0.4004
   20MOL0     H 2637   3.037   3.495   6.899 -2.0961  1.5005  1.3702
   20MOL0     H 2638   3.180   3.588   6.939 -0.9951  0.0272  2.6062
   20MOL0     H 2639   3.019   3.783   6.827 -0.5172 -1.4141 -1.8827
   20MOL0     H 2640   2.900   3.675   6.828  1.5787  1.1578 -3.4913
   20MOL0     H 2641   2.909   3.632   7.075  0.8677  0.0019 -0.3556
   20MOL0     H 2642   3.058   3.739   7.088 -0.0360  1.4601 -2.2718
   20MOL0     H 2643   2.792   3.852   6.984  0.2048  0.8901 -0.4087
   20MOL0     H 2644   2.820   3.813   7.157  0.3367 -1.8549 -0.8189
   20MOL0     H 2645   2.856   4.047   7.131 -2.6091 -2.8037 -0.5175
   20MOL0     H 2646   3.019   3.968   7.146 -0.8873  1.0790  2.4259
   20MOL0     H 2647   3.082   4.014   6.946  0.7693 -1.2137  0.4508
   20MOL0     H 2648   2.938   4.012   6.855  2.2192 -0.8229 -0.9191
   20MOL0     H 2649   3.025   4.236   6.877  1.2032 -1.1067 -0.0976
   20MOL0     H 2650   2.994   4.231   7.054  0.1303  0.4916  0.0693
   20MOL0     H 2651   2.791   4.177   6.721 -1.0097 -0.2078 -0.5391
   20MOL0     H 2652   2.493   4.313   6.706  0.7062  0.2589  0.6313
   20MOL0     H 2653   2.516   4.139   6.700 -0.5756 -0.6045 -0.4745
   20MOL0     H 2654   2.341   4.262   6.913 -1.3576  1.3038 -2.6848
   20MOL0     H 2655   2.414   4.102   6.923  0.8642  0.7637  0.4169
   20MOL0     H 2656   2.302   4.029   6.714  0.7368 -0.9077  1.5816
   20MOL0     H 2657   2.254   4.200   6.672 -0.2249  1.6014  1.9944
   20MOL0     H 2658   2.132   4.044   6.891  0.2640 -0.2447 -0.0882
   20MOL0     H 2659   2.057   4.089   6.730  0.1408 -2.4662  1.3097
   20MOL0     H 2660   1.868   4.068   6.847 -2.9843 -0.3234 -0.1160
   20MOL0     H 2661   1.666   3.984   6.890 -0.0443 -0.5608  1.9356
   20MOL0     H 2662   1.594   4.037   7.042 -0.5754 -1.0989 -1.2491
   20MOL0     H 2663   1.549   4.097   6.877  1.1534 -0.8785 -3.0770
   20MOL0     H 2664   1.410   4.548   7.130 -0.6078  0.8371  2.6508
   20MOL0     H 2665   1.213   4.630   7.185  0.3223 -1.1553  3.0708
   20MOL0     H 2666   0.993   4.702   7.281  1.4821 -0.4735 -0.7162
   20MOL0     H 2667   0.988   4.714   7.105 -2.7176  0.1904 -0.2338
   20MOL0     H 2668   0.746   4.688   7.109  1.1929  0.8837  0.9567
   20MOL0     H 2669   0.755   4.606   7.269  1.5808  0.2673  1.7822
   20MOL0     H 2670   0.805   4.819   7.384  2.1053  2.7341 -0.8263
   20MOL0     H 2671   0.652   4.817   7.292 -0.0213 -1.3484  2.7388
   20MOL0     H 2672   0.906   4.941   7.185  0.2103  0.1171 -0.1996
   20MOL0     H 2673   0.737   4.947   7.119 -2.0572  0.0828  1.1891
   20MOL0     H 2674   0.858   5.146   7.237  2.1539 -0.1853  1.7464
   20MOL0     H 2675   0.816   5.065   7.384 -2.3847  1.2211  0.9134
   20MOL0     H 2676   0.560   5.077   7.314  0.3528  0.3814  0.2541
   20MOL0     H 2677   0.627   5.231   7.360  0.9318 -0.2405  0.3476
   20MOL0     H 2678   0.550   5.128   7.088 -3.1075 -0.0507  1.7960
   20MOL0     H 2679   0.676   5.256   7.105  1.8504 -2.0460  1.0488
   20MOL0     H 2680   0.423   5.334   7.081  1.1850  0.6535 -0.9472
   20MOL0     H 2681   0.528   5.416   7.187  1.2272  0.2144 -1.8496
   20MOL0     H 2682   1.015   4.260   7.084  0.4822 -1.2611  1.4109
   20MOL0     H 2683   1.239   4.161   7.048  1.5859  0.6172 -0.3566
   20MOL0     H 2684   1.789   4.486   7.103 -1.7605  0.2474  0.7912
   20MOL0     H 2685   2.025   4.432   7.003  0.8250  0.8419 -1.0787
   20MOL0     H 2686   3.254   3.656   6.505  1.3011  0.2241  1.5432
   20MOL0     H 2687   3.387   3.618   6.306  1.5964  0.4245 -0.0991
   20MOL0     H 2688   3.749   3.354   6.106  1.8411  0.0440 -0.7903
   20MOL0     H 2689   3.891   3.358   5.907 -1.3049 -3.4343 -0.4129
   20MOL0     H 2690   3.722   3.452   5.523 -1.1706 -0.1628  1.1623
   20MOL0     H 2691   3.800   3.592   5.582  0.1627 -0.1822 -2.1669
   20MOL0     H 2692   3.927   3.544   5.396  2.1501 -0.0753 -0.7173
   20MOL0     H 2693   3.919   3.370   5.423  0.0688 -0.7495  0.2098
   20MOL0     H 2694   4.086   3.372   5.590  1.2878 -0.4646  0.1584
   20MOL0     H 2695   4.072   3.554   5.590  1.1623  1.7084 -1.7522
   20MOL0     H 2696   4.171   3.600   5.394  0.3727  0.1486  1.4511
   20MOL0     H 2697   4.158   3.443   5.336  1.7769  1.1383 -2.0337
   20MOL0     H 2698   4.505   3.408   5.571  0.5965 -0.1912 -0.7830
   20MOL0     H 2699   3.584   3.491   5.670  0.8468  0.7769 -0.9580
   20MOL0     H 2700   3.414   3.468   5.860 -0.3979 -2.5128  0.8901
   21MOL0     O 2701   2.076   3.826   6.674  0.4469  0.8753  0.4704
   21MOL0     C 2702   1.959   3.811   6.664  0.1353 -0.2831  0.3700
   21MOL0     O 2703   1.876   3.889   6.588  0.3363  0.4164  0.5873
   21MOL0     C 2704   1.920   4.000   6.509  0.5845 -0.6936  0.3665
   21MOL0     C 2705   1.842   4.115   6.483 -0.3160 -0.8377  0.0532
   21MOL0     C 2706   1.887   4.224   6.410  0.4567  0.1919  1.2326
   21MOL0     C 2707   2.004   4.210   6.333  0.3862  0.6614  0.2683
   21MOL0     O 2708   2.040   4.314   6.246 -0.3696 -0.3403  0.7437
   21MOL0     C 2709   2.116   4.276   6.120 -0.2826 -0.3549 -0.3243
   21MOL0     C 2710   2.116   4.384   6.008  0.2891 -0.0135 -0.0570
   21MOL0     C 2711   1.979   4.447   6.009  0.6062 -0.3767  0.5836
   21MOL0     C 2712   1.862   4.344   5.988  0.2170  0.2006 -0.2604
   21MOL0     C 2713   1.743   4.404   5.911  0.6905  0.1205  0.4253
   21MOL0     C 2714   1.773   4.421   5.767  0.2087 -0.4056  0.1993
   21MOL0     C 2715   1.673   4.507   5.686  1.4869 -0.1228  0.2142
   21MOL0     C 2716   1.530   4.456   5.703  0.1668  0.2732  0.4945
   21MOL0     N 2717   1.429   4.522   5.615 -0.2549 -0.1734  0.1453
   21MOL0     C 2718   1.355   4.627   5.657  0.2727  0.0549  0.0146
   21MOL0     C 2719   1.281   4.658   5.545 -0.6970  0.0028  0.0402
   21MOL0     C 2720   1.195   4.775   5.524  0.3644 -0.1684 -0.2995
   21MOL0     C 2721   1.049   4.741   5.552 -0.3019  0.0570  0.3577
   21MOL0     C 2722   0.955   4.816   5.454 -0.1968 -0.4580 -0.2314
   21MOL0     C 2723   0.814   4.772   5.483 -1.0466  0.7566 -0.6134
   21MOL0     O 2724   0.713   4.833   5.404  0.2863  0.4809  0.1092
   21MOL0     C 2725   0.597   4.764   5.415  0.2086 -0.5126  0.4856
   21MOL0     C 2726   0.543   4.680   5.516  0.1688 -0.1430 -0.7400
   21MOL0     C 2727   0.414   4.626   5.514 -0.0654  0.0008 -0.3562
   21MOL0     C 2728   0.347   4.553   5.630  0.9370  0.8996  0.0990
   21MOL0     C 2729   0.330   4.644   5.400  1.0518 -0.0108  0.0089
   21MOL0     C 2730   0.189   4.607   5.383  0.1737 -0.0506 -0.6299
   21MOL0     O 2731   0.119   4.694   5.298 -0.4167 -0.7701 -0.4836
   21MOL0     C 2732   0.004   4.661   5.231  0.7173 -0.0140 -0.5665
   21MOL0     C 2733  -0.071   4.538   5.232 -0.2696 -0.1226  0.7554
   21MOL0     C 2734  -0.185   4.517   5.145  0.6183  0.1740  0.5803
   21MOL0     C 2735  -0.227   4.617   5.061 -0.0366 -0.1958 -0.4182
   21MOL0     O 2736  -0.345   4.607   4.991  0.7375 -0.9722  0.3293
   21MOL0     C 2737  -0.463   4.640   5.068  0.0811  0.1239 -0.2995
   21MOL0     C 2738  -0.591   4.633   4.992 -0.3302 -0.4203  0.1927
   21MOL0     C 2739  -0.641   4.498   4.969  0.1653 -0.6922 -0.0864
   21MOL0     C 2740  -0.749   4.478   4.868  0.9382 -0.3070  0.5881
   21MOL0     C 2741  -0.886   4.533   4.913  0.2237 -0.1892 -0.6521
   21MOL0     C 2742  -1.004   4.476   4.830 -0.2144 -0.0422  1.3320
   21MOL0     C 2743  -1.140   4.510   4.877  0.1756  0.2381  0.0686
   21MOL0     C 2744  -1.188   4.408   4.978 -0.1718  0.2460  0.3449
   21MOL0    Cl 2745  -1.362   4.435   5.042 -0.1964  0.1164 -0.0029
   21MOL0     C 2746  -0.168   4.740   5.067 -0.4396 -0.2567 -0.8283
   21MOL0     C 2747  -0.053   4.758   5.145  0.6581  0.4694 -0.5983
   21MOL0     O 2748   0.143   4.507   5.429 -0.0631  0.1060 -0.4956
   21MOL0     C 2749   0.388   4.706   5.285 -0.0944 -0.6818  0.2554
   21MOL0     C 2750   0.517   4.776   5.301 -0.0359  0.1398  0.6682
   21MOL0     N 2751   1.299   4.560   5.445 -0.3132  0.3839  0.0705
   21MOL0     N 2752   1.389   4.483   5.493  0.7247 -1.0463 -0.1872
   21MOL0     C 2753   2.081   4.094   6.349 -0.7077  0.8383  0.6593
   21MOL0     C 2754   2.040   3.993   6.437  0.5093  0.0991  0.2053
   21MOL0     C 2755   1.889   3.694   6.733 -0.6433 -0.2176 -0.2258
   21MOL0     C 2756   1.954   3.622   6.835 -0.0922 -0.6872 -0.6620
   21MOL0     C 2757   1.890   3.518   6.899 -0.3042  0.3880 -0.1529
   21MOL0     C 2758   1.751   3.483   6.865 -0.1937 -0.0585  0.5756
   21MOL0     O 2759   1.678   3.381   6.916 -0.2932 -0.4404  0.4010
   21MOL0     C 2760   1.722   3.322   7.036  1.1100  0.6994 -0.1098
   21MOL0     C 2761   1.798   3.197   6.995  0.2824  0.6261 -0.2982
   21MOL0     C 2762   1.708   3.077   6.958  1.0921  0.9599 -0.3309
   21MOL0     C 2763   1.796   2.966   6.903 -0.4176 -0.8474  0.5597
   21MOL0     C 2764   1.872   2.903   7.009 -0.4892  0.0883  0.4840
   21MOL0     C 2765   1.928   2.846   7.098  0.0440 -0.2878  0.1530
   21MOL0     C 2766   1.684   3.548   6.759 -0.5630 -0.1881  0.3354
   21MOL0     C 2767   1.754   3.657   6.697 -1.1141  0.1825 -0.5960
   21MOL0     H 2768   1.752   4.125   6.543 -0.2100  0.7892 -0.0246
   21MOL0     H 2769   1.824   4.312   6.404 -0.1022 -0.2209  0.8799
   21MOL0     H 2770   2.221   4.264   6.147 -0.0102  0.3941 -1.0319
   21MOL0     H 2771   2.081   4.187   6.067 -0.4074 -0.9928  0.7919
   21MOL0     H 2772   2.175   4.473   6.034 -2.1844  2.0585 -1.0432
   21MOL0     H 2773   2.138   4.343   5.909  2.2708 -2.3619  1.2456
   21MOL0     H 2774   1.970   4.506   6.101  0.4792  1.6880 -0.6792
   21MOL0     H 2775   1.979   4.522   5.930  1.5493  0.0885  1.0066
   21MOL0     H 2776   1.895   4.253   5.938 -0.2522 -0.1023 -0.0232
   21MOL0     H 2777   1.843   4.308   6.089 -0.3484  0.3531 -0.3066
   21MOL0     H 2778   1.658   4.336   5.926  0.8355  0.0444  0.9151
   21MOL0     H 2779   1.721   4.502   5.954 -1.4255  0.0248 -0.3215
   21MOL0     H 2780   1.870   4.472   5.759  0.1119 -0.5148 -2.7716
   21MOL0     H 2781   1.781   4.321   5.723 -2.2542 -0.7980  0.5140
   21MOL0     H 2782   1.669   4.613   5.713 -0.9483  0.0258 -0.4980
   21MOL0     H 2783   1.711   4.511   5.583  0.0593  1.5969 -0.2976
   21MOL0     H 2784   1.511   4.467   5.810  4.4726  2.3933  1.2758
   21MOL0     H 2785   1.520   4.351   5.674  1.6104  0.4847 -0.9392
   21MOL0     H 2786   1.360   4.692   5.743  2.6983  2.1887 -1.5742
   21MOL0     H 2787   1.229   4.860   5.584  0.2936 -0.8014  0.6520
   21MOL0     H 2788   1.223   4.814   5.425  0.4193  0.9961  0.1622
   21MOL0     H 2789   1.022   4.778   5.651 -1.9042 -1.6734  0.6344
   21MOL0     H 2790   1.020   4.635   5.546 -3.2918  0.8662 -2.7689
   21MOL0     H 2791   0.979   4.801   5.348  1.9239  0.4396  0.0591
   21MOL0     H 2792   0.966   4.925   5.460 -1.7148 -0.1365 -2.2226
   21MOL0     H 2793   0.792   4.777   5.590 -3.0198 -0.4766 -0.9179
   21MOL0     H 2794   0.799   4.665   5.469 -2.6442  0.4383  2.6770
   21MOL0     H 2795   0.601   4.664   5.607 -0.0708  2.6083  0.0050
   21MOL0     H 2796   0.408   4.551   5.721 -0.1979  0.2998  0.8644
   21MOL0     H 2797   0.255   4.599   5.666 -0.2008 -0.7389 -0.5581
   21MOL0     H 2798   0.328   4.449   5.600  0.0490  0.4811  1.9856
   21MOL0     H 2799  -0.059   4.466   5.313 -1.8418 -0.6076  0.5897
   21MOL0     H 2800  -0.243   4.425   5.149 -0.6242  0.9813  2.7133
   21MOL0     H 2801  -0.473   4.563   5.145  0.7450 -1.1826 -1.4930
   21MOL0     H 2802  -0.451   4.741   5.110 -1.3797  0.2801 -0.2085
   21MOL0     H 2803  -0.676   4.688   5.032 -0.7786  0.4488 -1.8059
   21MOL0     H 2804  -0.567   4.680   4.896 -1.0320  0.0446  0.2360
   21MOL0     H 2805  -0.678   4.462   5.066  0.9902 -2.1292 -0.2855
   21MOL0     H 2806  -0.556   4.441   4.932  0.7566  0.5952 -0.7874
   21MOL0     H 2807  -0.721   4.519   4.770 -0.6865  1.0566  0.6568
   21MOL0     H 2808  -0.758   4.369   4.871  2.2567 -0.4159  2.7466
   21MOL0     H 2809  -0.891   4.643   4.911 -0.8121 -0.2314 -0.8660
   21MOL0     H 2810  -0.893   4.502   5.018  3.6113  0.7343 -0.0123
   21MOL0     H 2811  -0.990   4.518   4.730  0.3773 -3.2222 -0.0650
   21MOL0     H 2812  -0.992   4.367   4.825 -0.2669  0.0083 -0.0734
   21MOL0     H 2813  -1.204   4.510   4.788  2.8820 -0.8506 -2.0017
   21MOL0     H 2814  -1.148   4.605   4.931 -0.9645 -0.6570  1.5386
   21MOL0     H 2815  -1.117   4.397   5.060  0.1613 -0.0863  0.0192
   21MOL0     H 2816  -1.188   4.309   4.932 -0.5791  0.4766 -0.1617
   21MOL0     H 2817  -0.215   4.824   5.017 -1.9892 -1.5340 -1.5835
   21MOL0     H 2818  -0.008   4.857   5.149 -1.1089  1.2803  0.3720
   21MOL0     H 2819   0.340   4.711   5.188  0.7045  0.0576 -0.1205
   21MOL0     H 2820   0.541   4.817   5.204 -2.5055 -2.3257 -1.1620
   21MOL0     H 2821   2.174   4.076   6.296 -0.7489  1.0247  0.5188
   21MOL0     H 2822   2.090   3.897   6.430 -0.9697 -0.5991 -3.7705
   21MOL0     H 2823   2.056   3.652   6.859  0.9882 -3.7610 -0.9326
   21MOL0     H 2824   1.953   3.464   6.969 -2.1204 -0.0404  1.2321
   21MOL0     H 2825   1.769   3.398   7.099 -0.5188  0.6296  1.2674
   21MOL0     H 2826   1.637   3.284   7.094  0.3567  2.0008 -0.3338
   21MOL0     H 2827   1.857   3.155   7.076 -1.8260 -0.9707  0.5154
   21MOL0     H 2828   1.860   3.220   6.908  0.4668  0.2339 -0.2702
   21MOL0     H 2829   1.639   3.108   6.879  0.5721  3.1305  0.8869
   21MOL0     H 2830   1.652   3.050   7.048 -1.2505  1.4291 -1.5554
   21MOL0     H 2831   1.866   2.992   6.823  0.7846 -2.2218  1.1276
   21MOL0     H 2832   1.730   2.896   6.851  1.2300 -1.2024 -1.1995
   21MOL0     H 2833   1.964   2.797   7.186 -2.7161 -2.0415  0.4389
   21MOL0     H 2834   1.592   3.504   6.722 -0.6001 -2.7017  3.0818
   21MOL0     H 2835   1.714   3.698   6.605  3.7189  0.5401 -2.8873
   22MOL0     O 2836   9.007   4.426   5.344  0.2749 -0.1758  0.1890
   22MOL0     C 2837   9.117   4.402   5.292 -0.1757  0.0926 -0.1849
   22MOL0     O 2838   9.165   4.451   5.174  0.7067 -0.3657  0.2284
   22MOL0     C 2839   9.085   4.549   5.101  0.5555  0.3965 -0.1316
   22MOL0     C 2840   9.145   4.658   5.054 -0.2585 -1.1219  0.3080
   22MOL0     C 2841   9.073   4.749   4.973  0.5429 -0.2175  0.0272
   22MOL0     C 2842   8.935   4.723   4.946 -0.3692 -0.3372  0.0861
   22MOL0     O 2843   8.862   4.812   4.867 -0.5683  0.4220 -0.4817
   22MOL0     C 2844   8.910   4.940   4.837 -1.2380 -0.3375 -0.8134
   22MOL0     C 2845   8.790   5.037   4.812  0.1833 -0.7211 -0.4493
   22MOL0     C 2846   8.670   4.968   4.744  1.0141  0.4348  1.1026
   22MOL0     C 2847   8.544   5.057   4.720 -0.0743  0.4475 -0.5575
   22MOL0     C 2848   8.434   4.970   4.673  0.4099  0.1112  0.3879
   22MOL0     C 2849   8.446   4.956   4.530 -0.0392 -0.4735 -0.0211
   22MOL0     C 2850   8.309   4.966   4.461 -0.2311 -0.3993  0.6366
   22MOL0     C 2851   8.318   4.942   4.313  0.5029  0.7600 -0.1013
   22MOL0     N 2852   8.355   5.055   4.231 -1.1570 -0.2188 -0.4061
   22MOL0     C 2853   8.280   5.174   4.216  0.3282 -0.0672  0.4370
   22MOL0     C 2854   8.339   5.257   4.137 -0.8302  0.2610  0.7269
   22MOL0     C 2855   8.285   5.383   4.083  0.7899 -0.0784 -0.0110
   22MOL0     C 2856   8.161   5.370   3.989 -0.1967 -0.6258  0.3191
   22MOL0     C 2857   8.185   5.296   3.861 -0.6573  0.6610  0.6171
   22MOL0     C 2858   8.051   5.267   3.790  0.6047 -0.7902 -0.4150
   22MOL0     O 2859   7.991   5.399   3.751 -0.8769 -0.2905  0.2067
   22MOL0     C 2860   7.862   5.407   3.700 -0.9744  1.0930  0.3475
   22MOL0     C 2861   7.850   5.460   3.574 -0.7409  0.4873 -0.0927
   22MOL0     C 2862   7.738   5.472   3.496  0.0148  0.4350  0.0343
   22MOL0     C 2863   7.752   5.540   3.360  0.1710  0.3216  0.8007
   22MOL0     C 2864   7.618   5.430   3.557 -0.1374 -0.3988  0.1756
   22MOL0     C 2865   7.481   5.441   3.490 -0.8530 -0.1480 -0.3166
   22MOL0     O 2866   7.388   5.373   3.554  0.1204  0.0144  0.1038
   22MOL0     C 2867   7.272   5.344   3.479 -0.7587 -0.4132 -1.3305
   22MOL0     C 2868   7.275   5.243   3.388 -0.6362 -0.2084 -0.5013
   22MOL0     C 2869   7.160   5.201   3.331  0.2045  1.1720 -0.6999
   22MOL0     C 2870   7.037   5.256   3.362  0.3241  0.9444 -0.4132
   22MOL0     O 2871   6.937   5.185   3.293  0.1801 -0.5238  0.0772
   22MOL0     C 2872   6.801   5.238   3.296 -1.3333  0.8124 -0.5406
   22MOL0     C 2873   6.715   5.128   3.229 -0.1612 -0.9268  0.1128
   22MOL0     C 2874   6.568   5.181   3.224  0.5947 -0.0341 -0.7608
   22MOL0     C 2875   6.487   5.105   3.125 -0.4499  0.2149 -0.0199
   22MOL0     C 2876   6.335   5.126   3.132  0.3963 -0.2930  0.3827
   22MOL0     C 2877   6.307   5.278   3.091  0.2531 -0.2251 -0.9229
   22MOL0     C 2878   6.161   5.301   3.050 -0.2487 -0.8865 -0.3969
   22MOL0     C 2879   6.109   5.233   2.927  0.0500 -0.8444  0.0864
   22MOL0    Cl 2880   6.180   5.295   2.773  0.2302 -0.0518 -0.0413
   22MOL0     C 2881   7.025   5.362   3.455 -0.1628 -0.2152 -0.5153
   22MOL0     C 2882   7.153   5.411   3.504 -1.0004 -0.1975 -1.0764
   22MOL0     O 2883   7.470   5.499   3.385 -0.1169 -0.7282 -0.4406
   22MOL0     C 2884   7.624   5.381   3.691  0.1858 -0.1638 -0.6584
   22MOL0     C 2885   7.743   5.365   3.759 -0.0360  0.5780  0.4542
   22MOL0     N 2886   8.457   5.195   4.098  0.5504  0.2831  0.8648
   22MOL0     N 2887   8.457   5.068   4.151 -0.3576 -0.1476 -0.1362
   22MOL0     C 2888   8.879   4.607   4.984  0.1466 -0.1872 -0.1546
   22MOL0     C 2889   8.952   4.514   5.060 -0.3649 -0.3147 -0.4635
   22MOL0     C 2890   9.208   4.315   5.373 -0.3650  0.2633 -0.2926
   22MOL0     C 2891   9.161   4.228   5.469  0.2981 -0.1432 -1.3180
   22MOL0     C 2892   9.249   4.152   5.556 -0.8276  0.7840  0.7715
   22MOL0     C 2893   9.389   4.171   5.543  0.3455 -0.4954  0.4383
   22MOL0     O 2894   9.471   4.091   5.630 -0.0713 -0.0347  0.5911
   22MOL0     C 2895   9.611   4.098   5.598 -0.6136  0.7702  1.2827
   22MOL0     C 2896   9.676   4.012   5.703 -0.1624  0.1252 -0.2287
   22MOL0     C 2897   9.825   4.013   5.683  0.3840  1.5191  0.2416
   22MOL0     C 2898   9.914   3.944   5.780  1.2575 -0.5264 -0.2095
   22MOL0     C 2899  10.044   3.915   5.712  0.0689 -0.4708 -0.8334
   22MOL0     C 2900  10.132   3.868   5.658 -0.0624  1.0283  0.2798
   22MOL0     C 2901   9.435   4.249   5.435 -0.4267  0.0397 -0.6962
   22MOL0     C 2902   9.349   4.316   5.351  0.0230 -0.5743  0.0169
   22MOL0     H 2903   9.250   4.670   5.079 -0.7927  1.1246  1.8150
   22MOL0     H 2904   9.109   4.849   4.952 -2.7329  1.0730 -0.0810
   22MOL0     H 2905   8.975   4.978   4.917  0.6146 -3.7397 -0.4823
   22MOL0     H 2906   8.964   4.928   4.742 -0.3668  0.2907 -0.4119
   22MOL0     H 2907   8.754   5.073   4.909 -0.8278 -4.0818  0.5615
   22MOL0     H 2908   8.820   5.125   4.755  1.7361  0.6779  2.3362
   22MOL0     H 2909   8.706   4.921   4.652  0.6605  2.4780 -0.1503
   22MOL0     H 2910   8.640   4.886   4.810  2.9094 -1.0269  0.2572
   22MOL0     H 2911   8.517   5.100   4.817 -0.9047  0.2068 -0.6719
   22MOL0     H 2912   8.558   5.148   4.661  0.0139  0.5629 -0.3581
   22MOL0     H 2913   8.439   4.867   4.709  1.0077 -1.0078 -2.5903
   22MOL0     H 2914   8.333   5.007   4.695 -0.7308 -2.2185 -0.6363
   22MOL0     H 2915   8.509   5.034   4.486 -0.3900  0.5732  1.2551
   22MOL0     H 2916   8.499   4.863   4.511  0.6522 -0.4210  1.4809
   22MOL0     H 2917   8.244   4.888   4.502 -0.0487  0.3758  2.4566
   22MOL0     H 2918   8.268   5.065   4.480 -1.0520 -1.3110  4.4180
   22MOL0     H 2919   8.223   4.904   4.274  0.5952 -0.5955  0.8988
   22MOL0     H 2920   8.398   4.868   4.304 -0.2509 -0.4079  2.1167
   22MOL0     H 2921   8.184   5.199   4.260  0.6393  4.1941 -0.9185
   22MOL0     H 2922   8.259   5.453   4.163 -1.1281 -2.0554  1.2214
   22MOL0     H 2923   8.372   5.419   4.027  0.9393 -2.6405 -1.5856
   22MOL0     H 2924   8.117   5.469   3.974  2.7316  0.5743 -0.9622
   22MOL0     H 2925   8.094   5.307   4.049  0.8524 -2.4709 -0.3563
   22MOL0     H 2926   8.239   5.202   3.878 -0.3004 -0.6089 -5.4010
   22MOL0     H 2927   8.242   5.363   3.796 -1.2203  0.2195 -0.3465
   22MOL0     H 2928   7.981   5.205   3.848  0.1291 -0.6642 -0.8518
   22MOL0     H 2929   8.085   5.215   3.700  3.9624 -0.2294  0.3904
   22MOL0     H 2930   7.950   5.484   3.539  1.1373 -2.1568  2.8963
   22MOL0     H 2931   7.853   5.558   3.322  0.0127 -0.6342 -0.1494
   22MOL0     H 2932   7.709   5.470   3.287 -0.0516  0.8986  0.3756
   22MOL0     H 2933   7.700   5.636   3.354 -0.7035 -0.1647  0.3009
   22MOL0     H 2934   7.371   5.200   3.361  0.3552  0.9910  0.9642
   22MOL0     H 2935   7.174   5.127   3.253  1.2856  0.1438  0.4240
   22MOL0     H 2936   6.764   5.262   3.397 -0.4453 -0.3170  0.0749
   22MOL0     H 2937   6.783   5.330   3.239  0.3907  1.5885  0.1087
   22MOL0     H 2938   6.757   5.119   3.128  0.0886 -0.0358  0.1253
   22MOL0     H 2939   6.732   5.031   3.276  2.1968 -0.2677  0.7392
   22MOL0     H 2940   6.558   5.287   3.200 -1.9948 -0.4800 -1.9931
   22MOL0     H 2941   6.520   5.170   3.322 -0.1516 -0.3434 -1.1500
   22MOL0     H 2942   6.517   5.118   3.021 -2.9005  4.7100 -0.4499
   22MOL0     H 2943   6.495   5.001   3.157 -0.5246 -0.4121 -1.9375
   22MOL0     H 2944   6.312   5.116   3.238  0.0827 -1.9011  0.1901
   22MOL0     H 2945   6.279   5.056   3.069 -0.9373  3.0167 -2.5337
   22MOL0     H 2946   6.318   5.329   3.188 -0.2971 -1.9292  0.0755
   22MOL0     H 2947   6.375   5.322   3.017 -1.5355  0.9067 -1.9571
   22MOL0     H 2948   6.145   5.409   3.051 -2.0745 -1.0977  1.3280
   22MOL0     H 2949   6.111   5.262   3.140  4.4432  0.0400  2.9918
   22MOL0     H 2950   6.003   5.258   2.916  0.3051  1.9416  2.6142
   22MOL0     H 2951   6.117   5.125   2.941  1.1754 -0.4624  3.0691
   22MOL0     H 2952   6.924   5.389   3.481 -0.6765 -1.9291 -0.6341
   22MOL0     H 2953   7.146   5.487   3.581  1.3222 -1.3167  0.3312
   22MOL0     H 2954   7.533   5.352   3.742 -1.3163  0.6854 -2.6974
   22MOL0     H 2955   7.742   5.327   3.861 -2.6487  0.5526  0.4848
   22MOL0     H 2956   8.772   4.591   4.969  0.1585  0.9752 -1.8165
   22MOL0     H 2957   8.920   4.413   5.086  1.5089 -1.8016 -3.3759
   22MOL0     H 2958   9.054   4.218   5.488  0.4338 -0.0500 -0.4382
   22MOL0     H 2959   9.209   4.072   5.617 -2.8104  0.1755 -1.2143
   22MOL0     H 2960   9.630   4.054   5.499  3.0260  1.5842  1.4963
   22MOL0     H 2961   9.645   4.201   5.597  0.1251  0.5400  1.9640
   22MOL0     H 2962   9.643   3.908   5.701  0.4497 -0.1760  2.1945
   22MOL0     H 2963   9.660   4.051   5.804 -0.1769 -1.1389  0.2769
   22MOL0     H 2964   9.858   4.118   5.677  2.2058  1.0426  1.1293
   22MOL0     H 2965   9.835   3.972   5.582  0.2078  0.7510  0.5333
   22MOL0     H 2966   9.867   3.850   5.810  1.7934 -0.6232  0.3224
   22MOL0     H 2967   9.935   4.011   5.864  4.1327 -0.0178 -1.2179
   22MOL0     H 2968  10.217   3.820   5.613 -0.1837  0.6844  0.4154
   22MOL0     H 2969   9.543   4.261   5.424 -0.5267  1.1857 -0.6216
   22MOL0     H 2970   9.393   4.372   5.269 -0.3319  1.5945  1.2290
   23MOL0     O 2971   3.066   7.560   5.102 -0.2291 -0.7367 -0.6336
   23MOL0     C 2972   3.095   7.444   5.093 -0.0836  0.1113  0.0471
   23MOL0     O 2973   3.010   7.340   5.064 -0.4950 -0.4593 -0.0050
   23MOL0     C 2974   2.877   7.363   5.052 -0.5127  0.2420 -0.1166
   23MOL0     C 2975   2.815   7.412   5.166  0.6858 -0.8143  0.3905
   23MOL0     C 2976   2.682   7.451   5.151 -0.0481  0.0501  0.1887
   23MOL0     C 2977   2.611   7.417   5.038 -0.6291  0.1307  0.1007
   23MOL0     O 2978   2.478   7.461   5.035  0.7427 -0.4471  0.0890
   23MOL0     C 2979   2.421   7.472   4.907  0.0977  0.0105  0.0713
   23MOL0     C 2980   2.291   7.553   4.926  0.1369 -0.4175 -0.1704
   23MOL0     C 2981   2.209   7.602   4.803  0.3014  0.1110 -0.3716
   23MOL0     C 2982   2.082   7.691   4.849 -0.6002  1.0934 -0.0368
   23MOL0     C 2983   1.992   7.704   4.722 -0.4827  0.2691 -0.0880
   23MOL0     C 2984   1.880   7.817   4.738 -0.3709  0.0980  0.6518
   23MOL0     C 2985   1.770   7.824   4.623  0.0001  0.3679 -0.2384
   23MOL0     C 2986   1.825   7.835   4.482  0.3248 -0.1673 -0.5224
   23MOL0     N 2987   1.708   7.818   4.390 -0.4972 -0.0917 -0.0549
   23MOL0     C 2988   1.598   7.895   4.366  0.2581  0.0373 -0.1555
   23MOL0     C 2989   1.538   7.825   4.269 -0.0291 -0.4729  0.3809
   23MOL0     C 2990   1.408   7.857   4.192  0.2835  0.5428  0.7031
   23MOL0     C 2991   1.374   8.011   4.210 -0.1509 -0.6404  0.0781
   23MOL0     C 2992   1.443   8.098   4.108  0.0289  0.3554 -0.7732
   23MOL0     C 2993   1.422   8.249   4.134 -0.9580 -0.1109  0.3776
   23MOL0     O 2994   1.280   8.268   4.114 -0.0323 -0.0693 -0.6245
   23MOL0     C 2995   1.243   8.395   4.072 -0.3657  0.2680  0.5151
   23MOL0     C 2996   1.295   8.518   4.122  0.4362 -0.5454  0.0322
   23MOL0     C 2997   1.269   8.649   4.081  0.7681  0.4319  0.0748
   23MOL0     C 2998   1.328   8.775   4.150 -0.5538 -0.2346  0.2643
   23MOL0     C 2999   1.158   8.666   3.998  0.1840  0.2761 -0.4584
   23MOL0     C 3000   1.082   8.797   3.964 -0.6861  0.5923  0.2195
   23MOL0     O 3001   1.042   8.804   3.839 -0.3501 -0.1802 -0.3764
   23MOL0     C 3002   1.007   8.931   3.785  0.4924  0.2792  0.8272
   23MOL0     C 3003   0.891   8.930   3.705 -0.0500 -0.1059 -0.0639
   23MOL0     C 3004   0.830   9.052   3.670  0.7188 -0.5836 -0.8255
   23MOL0     C 3005   0.893   9.173   3.692  0.0182 -0.7173  0.1454
   23MOL0     O 3006   0.828   9.289   3.640 -0.0899 -0.1286 -0.1760
   23MOL0     C 3007   0.905   9.406   3.610 -0.1859 -0.7827 -0.2475
   23MOL0     C 3008   0.817   9.493   3.524  0.8890 -1.3018 -0.1735
   23MOL0     C 3009   0.676   9.517   3.590 -0.8002  0.2236  1.3334
   23MOL0     C 3010   0.601   9.642   3.550 -0.0723  0.0065 -0.5552
   23MOL0     C 3011   0.501   9.599   3.451  0.6081 -0.6559  0.0246
   23MOL0     C 3012   0.442   9.733   3.390 -0.1422 -0.4259 -0.7409
   23MOL0     C 3013   0.339   9.695   3.281 -0.7147 -0.3608  0.3815
   23MOL0     C 3014   0.258   9.808   3.218 -0.4057  0.4880  1.2725
   23MOL0    Cl 3015   0.100   9.817   3.303 -0.0927  0.2754  0.3037
   23MOL0     C 3016   1.014   9.180   3.761 -0.5567 -0.2325 -0.8408
   23MOL0     C 3017   1.069   9.062   3.823 -0.0015  0.0211 -0.3334
   23MOL0     O 3018   1.073   8.882   4.046  1.1546 -0.5750  0.2384
   23MOL0     C 3019   1.103   8.549   3.936 -0.6504  0.3120 -0.7164
   23MOL0     C 3020   1.149   8.416   3.974 -0.6469  0.3372  0.0657
   23MOL0     N 3021   1.612   7.714   4.228 -0.1875  0.3794 -0.1836
   23MOL0     N 3022   1.708   7.705   4.310  0.0114  0.5391  0.5759
   23MOL0     C 3023   2.673   7.354   4.933 -0.0676  0.8179 -0.2821
   23MOL0     C 3024   2.807   7.328   4.935 -0.5110  0.7794  0.8916
   23MOL0     C 3025   3.237   7.423   5.105 -0.2309  0.4926  0.4265
   23MOL0     C 3026   3.323   7.518   5.060 -0.1125  0.4973 -0.2193
   23MOL0     C 3027   3.457   7.491   5.059  1.0002 -0.5826 -0.3873
   23MOL0     C 3028   3.511   7.367   5.103  0.1222  0.2121 -0.3947
   23MOL0     O 3029   3.646   7.350   5.087 -0.3288  0.1664 -0.1988
   23MOL0     C 3030   3.676   7.214   5.103  0.2786 -0.1168  0.5240
   23MOL0     C 3031   3.827   7.209   5.060 -0.4666 -0.2185 -0.8196
   23MOL0     C 3032   3.914   7.148   5.175  0.6157  0.1837 -0.1547
   23MOL0     C 3033   3.980   7.249   5.256 -0.7490  0.0882 -0.7427
   23MOL0     C 3034   3.877   7.345   5.312  0.1317  0.3670 -0.5474
   23MOL0     C 3035   3.799   7.440   5.338 -0.3472 -0.2812  0.3475
   23MOL0     C 3036   3.418   7.272   5.157  0.7585 -0.5099  0.0266
   23MOL0     C 3037   3.283   7.301   5.143  0.4173  0.6860  0.6702
   23MOL0     H 3038   2.878   7.438   5.250  1.5869 -1.4781 -0.0575
   23MOL0     H 3039   2.631   7.516   5.221 -3.2145 -0.5321 -1.3514
   23MOL0     H 3040   2.486   7.526   4.837 -0.2706  1.1004  0.5531
   23MOL0     H 3041   2.394   7.374   4.865  0.7747 -1.1431  2.1910
   23MOL0     H 3042   2.228   7.482   4.981 -1.7984 -0.5086 -2.3484
   23MOL0     H 3043   2.316   7.639   4.988  1.1793  0.0445 -1.1995
   23MOL0     H 3044   2.278   7.650   4.734 -0.5044  3.3534  0.9280
   23MOL0     H 3045   2.159   7.521   4.748 -0.6002  1.7978 -2.1294
   23MOL0     H 3046   2.027   7.649   4.934  2.5508  1.1458  2.1961
   23MOL0     H 3047   2.111   7.794   4.870 -1.1766  1.0348  1.1231
   23MOL0     H 3048   2.054   7.727   4.635 -0.7223  0.4148 -0.2214
   23MOL0     H 3049   1.945   7.607   4.705  1.3195 -0.3167 -2.2369
   23MOL0     H 3050   1.829   7.803   4.833 -0.4052  0.3337  0.6701
   23MOL0     H 3051   1.930   7.914   4.733 -0.0156 -0.0988 -3.9890
   23MOL0     H 3052   1.721   7.729   4.647  1.0326 -0.0131  0.4082
   23MOL0     H 3053   1.695   7.902   4.640 -0.7792 -0.4685  0.2925
   23MOL0     H 3054   1.900   7.758   4.461  0.2565  0.0488 -1.5834
   23MOL0     H 3055   1.892   7.921   4.472  1.1869 -0.6742  0.6162
   23MOL0     H 3056   1.569   7.987   4.417 -1.2228 -0.6141  0.2002
   23MOL0     H 3057   1.426   7.841   4.085 -0.8038 -0.7342  0.6889
   23MOL0     H 3058   1.322   7.795   4.218  0.7913 -0.5840 -0.2202
   23MOL0     H 3059   1.388   8.048   4.313  0.0500  0.9649 -0.4984
   23MOL0     H 3060   1.266   8.019   4.200 -0.1552  1.1666  1.0882
   23MOL0     H 3061   1.428   8.079   4.001 -1.6929 -2.3566 -0.1556
   23MOL0     H 3062   1.551   8.078   4.110 -0.1670 -0.8613 -1.2410
   23MOL0     H 3063   1.481   8.307   4.064 -1.9399  0.2637 -0.1650
   23MOL0     H 3064   1.453   8.277   4.235  0.0138  1.2335 -0.2663
   23MOL0     H 3065   1.355   8.522   4.212 -2.2592  1.3776  1.8651
   23MOL0     H 3066   1.332   8.867   4.091  2.9030  0.9149  2.0604
   23MOL0     H 3067   1.275   8.796   4.243  0.0637  0.5036  0.4550
   23MOL0     H 3068   1.432   8.748   4.169 -0.8353 -0.5968  1.3457
   23MOL0     H 3069   0.855   8.836   3.666 -1.3241  1.0029 -1.6678
   23MOL0     H 3070   0.748   9.061   3.600  1.0025 -2.2900 -1.4481
   23MOL0     H 3071   0.929   9.468   3.697 -0.1042  0.0954 -0.8833
   23MOL0     H 3072   1.004   9.384   3.568 -0.5020 -4.1798  0.4350
   23MOL0     H 3073   0.865   9.590   3.510  1.0214 -0.8414  2.8202
   23MOL0     H 3074   0.802   9.444   3.427  0.2159  1.6471 -1.6834
   23MOL0     H 3075   0.704   9.528   3.695  0.0166 -1.7577  1.3641
   23MOL0     H 3076   0.621   9.423   3.583  2.1313 -1.5851  0.9450
   23MOL0     H 3077   0.552   9.683   3.639  0.6014 -0.1303 -0.1190
   23MOL0     H 3078   0.676   9.714   3.515  1.3360 -2.7872 -3.9160
   23MOL0     H 3079   0.423   9.539   3.500  1.6573 -0.7224  1.7228
   23MOL0     H 3080   0.549   9.532   3.379  1.6962 -0.2494  0.3484
   23MOL0     H 3081   0.394   9.795   3.466  0.6506 -0.2041 -0.4073
   23MOL0     H 3082   0.523   9.786   3.340  0.0239 -0.7563 -0.8264
   23MOL0     H 3083   0.280   9.610   3.315  1.5828 -2.5958 -0.9001
   23MOL0     H 3084   0.405   9.652   3.205  1.4364  0.6092  1.6018
   23MOL0     H 3085   0.250   9.773   3.115  0.7005 -1.0459  1.6679
   23MOL0     H 3086   0.303   9.907   3.224 -0.7179  0.8589 -1.4671
   23MOL0     H 3087   1.053   9.281   3.772  0.7136 -0.6215 -1.5472
   23MOL0     H 3088   1.139   9.069   3.905  0.2198 -0.5289 -0.4642
   23MOL0     H 3089   1.024   8.556   3.862 -1.9079 -0.7399  0.4731
   23MOL0     H 3090   1.093   8.335   3.929  2.6784 -1.9112 -0.3575
   23MOL0     H 3091   2.614   7.306   4.856 -1.1298 -2.7053  2.4435
   23MOL0     H 3092   2.865   7.282   4.856 -1.5149  1.5524 -0.3384
   23MOL0     H 3093   3.295   7.613   5.016 -1.0584  0.0867 -0.5412
   23MOL0     H 3094   3.525   7.570   5.031  0.9372  0.3195  1.7622
   23MOL0     H 3095   3.657   7.187   5.207 -0.6188 -0.8771  0.1753
   23MOL0     H 3096   3.616   7.162   5.028  0.5800  1.4577 -0.8837
   23MOL0     H 3097   3.862   7.307   5.029  0.0236  0.3434  1.3072
   23MOL0     H 3098   3.823   7.139   4.976 -3.6392  0.7583 -1.5954
   23MOL0     H 3099   3.997   7.083   5.145  1.9702  2.3307 -1.2978
   23MOL0     H 3100   3.845   7.089   5.235  0.3176  0.2022 -0.4744
   23MOL0     H 3101   4.050   7.304   5.193 -0.9386 -0.3543 -1.3455
   23MOL0     H 3102   4.032   7.199   5.339 -1.2201 -2.6044 -1.9896
   23MOL0     H 3103   3.723   7.513   5.356  0.8296  0.7232  1.4721
   23MOL0     H 3104   3.427   7.167   5.183 -2.3121 -1.1064 -0.9009
   23MOL0     H 3105   3.216   7.230   5.192 -0.7997  2.2518  1.3367
   24MOL0     O 3106   8.016   2.122   9.674 -0.8594  0.0856  0.6938
   24MOL0     C 3107   8.020   2.025   9.749 -0.5016 -0.3432  0.4108
   24MOL0     O 3108   7.912   1.965   9.799  0.0935 -0.7519  0.5336
   24MOL0     C 3109   7.789   2.014   9.790  0.3180 -0.7113  0.5563
   24MOL0     C 3110   7.756   2.149   9.804  0.2164  0.4955  1.1191
   24MOL0     C 3111   7.622   2.190   9.813 -0.6426 -0.4246 -0.5891
   24MOL0     C 3112   7.520   2.101   9.777  0.2425  0.0254 -0.0492
   24MOL0     O 3113   7.385   2.128   9.768  0.1891  0.1107 -0.7094
   24MOL0     C 3114   7.348   2.272   9.756 -0.3214 -0.3445 -0.2653
   24MOL0     C 3115   7.195   2.283   9.738 -0.0824  0.4638 -0.3279
   24MOL0     C 3116   7.103   2.240   9.854  1.0424  0.0857 -0.4805
   24MOL0     C 3117   7.091   2.083   9.873  0.0922 -0.0251 -0.0074
   24MOL0     C 3118   6.973   2.055   9.979 -0.1146  0.0832  0.1472
   24MOL0     C 3119   6.949   1.904   9.999  0.8463  0.0567  0.1638
   24MOL0     C 3120   6.990   1.816   9.871  0.3272  0.3594  0.0931
   24MOL0     C 3121   6.963   1.669   9.900  0.0119  0.6370  0.1328
   24MOL0     N 3122   6.822   1.645   9.906  0.5129  0.5376  0.3009
   24MOL0     C 3123   6.725   1.663   9.802  0.6205  0.0063  0.4233
   24MOL0     C 3124   6.604   1.677   9.868  1.0814  0.4725  0.6672
   24MOL0     C 3125   6.472   1.698   9.792 -0.2652 -0.7936  0.5451
   24MOL0     C 3126   6.405   1.571   9.751 -0.3967 -1.8981  0.7737
   24MOL0     C 3127   6.364   1.484   9.866 -0.1095 -0.7103 -0.5016
   24MOL0     C 3128   6.268   1.370   9.817  0.4023 -1.0160 -0.1388
   24MOL0     O 3129   6.155   1.429   9.760 -0.2476  0.0730 -0.1756
   24MOL0     C 3130   6.032   1.419   9.814 -0.1220 -0.0703  0.3080
   24MOL0     C 3131   6.006   1.488   9.929 -0.7804 -0.4115  0.0672
   24MOL0     C 3132   5.883   1.491   9.989  0.1683  0.2937  0.7085
   24MOL0     C 3133   5.872   1.574  10.118  1.0087  0.0616 -0.2922
   24MOL0     C 3134   5.778   1.418   9.930  0.2313  0.5650  0.6682
   24MOL0     C 3135   5.639   1.426   9.974  0.9242 -0.4172 -0.1529
   24MOL0     O 3136   5.550   1.444   9.876  0.3146  0.6621  0.4066
   24MOL0     C 3137   5.414   1.412   9.894  0.1674  0.4787  0.2317
   24MOL0     C 3138   5.328   1.466   9.800 -0.9329 -0.0928  0.4802
   24MOL0     C 3139   5.194   1.436   9.796 -0.2638  0.0221 -0.2491
   24MOL0     C 3140   5.141   1.347   9.883  0.4805  0.7494  0.0760
   24MOL0     O 3141   5.009   1.325   9.864 -0.9302 -0.1924 -0.2044
   24MOL0     C 3142   4.977   1.189   9.859 -0.2739  0.0448 -0.7285
   24MOL0     C 3143   4.866   1.163   9.771  0.3104  1.0765  0.2085
   24MOL0     C 3144   4.727   1.216   9.826 -0.1160 -0.8027  0.5014
   24MOL0     C 3145   4.615   1.127   9.791  0.3831 -0.3519 -0.3888
   24MOL0     C 3146   4.477   1.179   9.832 -0.2433 -0.5631  0.3386
   24MOL0     C 3147   4.476   1.228   9.980 -0.1545 -0.6354  0.0637
   24MOL0     C 3148   4.344   1.309  10.008  0.6769  0.1384  0.4319
   24MOL0     C 3149   4.345   1.407  10.125  0.0265  0.4292 -0.6270
   24MOL0    Cl 3150   4.406   1.328  10.270  0.0488  0.0530 -0.1793
   24MOL0     C 3151   5.229   1.282   9.972  0.6475  0.6769 -0.0524
   24MOL0     C 3152   5.365   1.319   9.977 -0.0091 -0.4521 -0.7829
   24MOL0     O 3153   5.615   1.425  10.096  0.0485 -0.0763  0.1624
   24MOL0     C 3154   5.801   1.350   9.803  0.1169  0.1425 -0.1906
   24MOL0     C 3155   5.931   1.345   9.750 -0.3841 -0.0329  0.4731
   24MOL0     N 3156   6.622   1.663  10.003 -0.2482  0.6756 -0.1226
   24MOL0     N 3157   6.753   1.649  10.025 -0.1694  0.2490  0.0028
   24MOL0     C 3158   7.557   1.966   9.768 -0.6807  0.1771 -0.8460
   24MOL0     C 3159   7.684   1.921   9.784  0.1990 -0.7336  0.9419
   24MOL0     C 3160   8.152   1.982   9.786  0.0243 -0.4259 -0.7418
   24MOL0     C 3161   8.176   1.902   9.897  0.6435 -0.1765 -0.8804
   24MOL0     C 3162   8.299   1.854   9.945 -0.5129  0.2010  0.2592
   24MOL0     C 3163   8.408   1.892   9.868 -0.0056 -0.9501  0.1296
   24MOL0     O 3164   8.538   1.854   9.889  0.6257  0.7177  0.1812
   24MOL0     C 3165   8.576   1.782  10.001  0.0277  0.0158 -0.4079
   24MOL0     C 3166   8.701   1.696   9.976 -0.0431  0.2339  0.0366
   24MOL0     C 3167   8.822   1.736  10.057 -0.4277  0.8876  0.8426
   24MOL0     C 3168   8.949   1.644  10.035 -0.5699 -1.6015  0.0359
   24MOL0     C 3169   9.066   1.672  10.120  0.3573  0.3564  0.1142
   24MOL0     C 3170   9.154   1.680  10.199 -0.5936 -0.7678  0.6453
   24MOL0     C 3171   8.391   1.963   9.753  0.3036 -0.1227 -0.9617
   24MOL0     C 3172   8.263   2.010   9.713  0.0214 -0.7546  0.3754
   24MOL0     H 3173   7.841   2.215   9.819 -1.3133  2.7844  0.3484
   24MOL0     H 3174   7.610   2.297   9.826 -2.4830 -0.4150 -1.9501
   24MOL0     H 3175   7.379   2.330   9.843 -2.7048  2.2707 -0.9995
   24MOL0     H 3176   7.401   2.311   9.669  1.4025  0.4986  1.0921
   24MOL0     H 3177   7.162   2.382   9.704 -0.2899  1.7368  3.1357
   24MOL0     H 3178   7.159   2.212   9.663  0.7649  1.7466 -2.0137
   24MOL0     H 3179   7.128   2.286   9.950 -1.2735  0.0264  0.2173
   24MOL0     H 3180   7.005   2.283   9.832  1.3753  0.0262 -2.1852
   24MOL0     H 3181   7.068   2.044   9.773 -0.7431  0.1066  0.1238
   24MOL0     H 3182   7.187   2.050   9.911  1.0957  1.3836 -1.1975
   24MOL0     H 3183   6.994   2.089  10.080 -1.6090 -1.4800  1.0247
   24MOL0     H 3184   6.882   2.110   9.954 -1.0780 -0.4994  2.2098
   24MOL0     H 3185   7.005   1.871  10.087  2.0041  0.1128 -0.5257
   24MOL0     H 3186   6.844   1.895  10.026  0.5944  1.5637 -0.2244
   24MOL0     H 3187   6.939   1.831   9.776 -1.1929  0.2963  0.8635
   24MOL0     H 3188   7.096   1.820   9.846 -0.1227  1.1688 -1.8396
   24MOL0     H 3189   7.016   1.637   9.990 -1.0630 -1.2235  0.1531
   24MOL0     H 3190   7.007   1.609   9.820  2.1743  0.4520  1.3847
   24MOL0     H 3191   6.743   1.652   9.695 -0.2156 -0.7943  0.3472
   24MOL0     H 3192   6.417   1.759   9.864  2.0173  2.5007 -0.2852
   24MOL0     H 3193   6.480   1.763   9.704 -0.9528  2.4513  2.6964
   24MOL0     H 3194   6.460   1.515   9.675  1.8133  1.2327 -0.1340
   24MOL0     H 3195   6.310   1.605   9.709  0.7456  0.4386 -0.0839
   24MOL0     H 3196   6.310   1.543   9.940  0.4222 -0.3479 -0.3957
   24MOL0     H 3197   6.444   1.433   9.920  0.9321  3.8464  2.8483
   24MOL0     H 3198   6.239   1.317   9.908 -0.9293 -1.3856 -0.7656
   24MOL0     H 3199   6.311   1.305   9.740 -0.3656  1.7571 -3.1234
   24MOL0     H 3200   6.084   1.545   9.978 -3.1074  1.1604  2.2059
   24MOL0     H 3201   5.977   1.588  10.148  1.3855  0.4672 -1.7251
   24MOL0     H 3202   5.828   1.672  10.100  1.8514  0.4059 -0.5145
   24MOL0     H 3203   5.813   1.523  10.194  1.3671  0.9065  0.5692
   24MOL0     H 3204   5.372   1.535   9.729 -1.0912  0.4625  0.9106
   24MOL0     H 3205   5.131   1.485   9.722  1.2809  1.6609 -0.5338
   24MOL0     H 3206   5.052   1.123   9.816  0.5417 -0.0393  0.7713
   24MOL0     H 3207   4.966   1.149   9.960 -1.6369 -2.0712 -1.6494
   24MOL0     H 3208   4.874   1.194   9.666  0.3932 -0.6264 -0.3257
   24MOL0     H 3209   4.861   1.054   9.763 -0.3776  1.1275 -0.1358
   24MOL0     H 3210   4.707   1.318   9.791 -0.3347 -0.0394  2.6903
   24MOL0     H 3211   4.744   1.225   9.933  0.7091  0.5988  0.2768
   24MOL0     H 3212   4.604   1.130   9.683 -0.4817  1.5892 -0.2818
   24MOL0     H 3213   4.638   1.026   9.827  0.2756 -0.7579 -1.4357
   24MOL0     H 3214   4.395   1.109   9.814 -1.6475  0.7190  1.5004
   24MOL0     H 3215   4.452   1.266   9.769  2.9545 -0.3962 -0.8909
   24MOL0     H 3216   4.483   1.146  10.052 -0.4250  1.7025  2.9552
   24MOL0     H 3217   4.556   1.300   9.996 -1.0439  1.0125 -2.2826
   24MOL0     H 3218   4.265   1.236  10.030 -0.6051  2.0335  2.5885
   24MOL0     H 3219   4.297   1.361   9.923  0.0821 -0.9035  0.1019
   24MOL0     H 3220   4.247   1.440  10.160 -0.2682 -1.4845  0.4700
   24MOL0     H 3221   4.417   1.485  10.097 -1.3280  1.9539 -0.0094
   24MOL0     H 3222   5.203   1.196  10.033 -1.3356  1.0519 -0.2959
   24MOL0     H 3223   5.433   1.264  10.042  2.8922  2.0077 -1.5177
   24MOL0     H 3224   5.712   1.307   9.759 -0.8703  0.8149  1.0702
   24MOL0     H 3225   5.954   1.295   9.656 -0.3274  0.8597 -0.0002
   24MOL0     H 3226   7.482   1.890   9.750  0.9326 -1.8178  0.3985
   24MOL0     H 3227   7.704   1.815   9.780  0.5089 -0.6577  0.1992
   24MOL0     H 3228   8.087   1.882   9.957  0.8546 -2.1851 -1.1927
   24MOL0     H 3229   8.314   1.824  10.048  5.6684 -1.5757 -0.7588
   24MOL0     H 3230   8.589   1.836  10.095 -1.0781 -1.2819  0.5220
   24MOL0     H 3231   8.494   1.711  10.017  1.9852 -2.1334  0.7825
   24MOL0     H 3232   8.736   1.698   9.872 -0.5021 -1.0516 -0.1667
   24MOL0     H 3233   8.670   1.594  10.002 -2.0349  0.9081  0.5164
   24MOL0     H 3234   8.795   1.725  10.163  2.5571 -0.1496  1.5838
   24MOL0     H 3235   8.851   1.837  10.028 -2.0230  1.3349  0.6735
   24MOL0     H 3236   8.976   1.668   9.932 -3.8364  3.3196 -0.0090
   24MOL0     H 3237   8.919   1.540  10.047 -0.2965 -1.4937  1.9120
   24MOL0     H 3238   9.226   1.692  10.278 -0.2203  0.1346  0.1743
   24MOL0     H 3239   8.480   1.981   9.694 -0.4596 -0.0823 -2.1445
   24MOL0     H 3240   8.246   2.077   9.630 -2.7160 -1.5868  0.1676
   25MOL0     O 3241   4.395   8.652   6.696  0.9068 -0.6076 -0.0835
   25MOL0     C 3242   4.515   8.662   6.729 -1.1674 -0.1688  0.0112
   25MOL0     O 3243   4.570   8.770   6.797  0.3135 -0.0191  0.3765
   25MOL0     C 3244   4.491   8.826   6.902 -0.4281 -0.3971 -0.1734
   25MOL0     C 3245   4.520   8.958   6.933 -0.7853  0.0627  0.1885
   25MOL0     C 3246   4.453   9.023   7.046 -0.0372  0.5324 -0.3179
   25MOL0     C 3247   4.350   8.966   7.115  0.2825  0.2203  0.1301
   25MOL0     O 3248   4.275   9.023   7.210  0.1610 -0.5884  0.9149
   25MOL0     C 3249   4.156   9.079   7.155 -0.2913 -0.0717  0.7369
   25MOL0     C 3250   4.071   9.141   7.271 -0.8082 -0.1607  0.0469
   25MOL0     C 3251   3.940   9.185   7.210 -0.9579 -0.4280 -0.2482
   25MOL0     C 3252   3.849   9.279   7.294  0.3401 -0.8646 -0.9099
   25MOL0     C 3253   3.704   9.287   7.234  0.1319  0.0867 -0.6672
   25MOL0     C 3254   3.702   9.369   7.106 -0.1219 -0.2889  0.6906
   25MOL0     C 3255   3.737   9.519   7.113  0.2669 -0.4599  0.6742
   25MOL0     C 3256   3.880   9.546   7.060 -0.1494  0.2821  0.0252
   25MOL0     N 3257   3.893   9.690   7.037  0.6143 -0.0674 -0.2297
   25MOL0     C 3258   3.827   9.767   6.947 -0.1832  0.2263  0.4515
   25MOL0     C 3259   3.865   9.898   6.975  0.6868  0.4571 -0.3266
   25MOL0     C 3260   3.814  10.022   6.906 -0.4397  0.6491 -0.6321
   25MOL0     C 3261   3.689   9.997   6.816  0.1049  0.2133  0.6388
   25MOL0     C 3262   3.639  10.123   6.746  0.9196  0.3794 -0.2645
   25MOL0     C 3263   3.528  10.176   6.829 -0.4138  0.3818  0.5758
   25MOL0     O 3264   3.404  10.105   6.803  0.0714 -0.4275  0.1893
   25MOL0     C 3265   3.296  10.157   6.866  0.5182  0.3581 -0.2221
   25MOL0     C 3266   3.295  10.268   6.952 -0.9486 -0.4379  0.6271
   25MOL0     C 3267   3.167  10.309   7.002 -1.1722  0.5769  0.1966
   25MOL0     C 3268   3.168  10.429   7.093 -0.0439 -0.7860  0.1956
   25MOL0     C 3269   3.042  10.244   6.971 -0.0601  0.9660 -0.2998
   25MOL0     C 3270   2.912  10.271   7.036  0.1941 -0.1927 -0.3321
   25MOL0     O 3271   2.809  10.183   6.994 -0.2027 -0.9875 -0.0356
   25MOL0     C 3272   2.678  10.226   7.021 -0.8982  0.2617  0.1790
   25MOL0     C 3273   2.604  10.297   6.922  0.2808 -0.2203  0.4513
   25MOL0     C 3274   2.482  10.350   6.949 -0.4802 -0.4448  0.0660
   25MOL0     C 3275   2.431  10.346   7.077 -0.6217  0.6399 -0.1063
   25MOL0     O 3276   2.311  10.407   7.092  0.1052 -0.3410 -0.6271
   25MOL0     C 3277   2.224  10.381   7.203  0.3906 -0.2492  0.3732
   25MOL0     C 3278   2.075  10.416   7.158 -0.2436 -1.0046 -0.0128
   25MOL0     C 3279   1.990  10.364   7.275  0.3861  0.1416 -0.1781
   25MOL0     C 3280   1.848  10.404   7.257  0.1621  0.4654 -0.1241
   25MOL0     C 3281   1.760  10.376   7.385 -0.4128 -0.0294 -0.9264
   25MOL0     C 3282   1.625  10.448   7.384 -0.2320  0.2207 -0.2597
   25MOL0     C 3283   1.552  10.386   7.505 -0.3868  0.0148 -0.1460
   25MOL0     C 3284   1.406  10.369   7.467  0.2015 -0.1102  0.4248
   25MOL0    Cl 3285   1.328  10.521   7.430 -0.0322  0.0690 -0.2303
   25MOL0     C 3286   2.497  10.271   7.177  0.1915  0.1987 -0.5439
   25MOL0     C 3287   2.620  10.208   7.151 -0.1707 -0.3663  0.6840
   25MOL0     O 3288   2.892  10.364   7.111  0.1683  0.0606 -0.0280
   25MOL0     C 3289   3.056  10.144   6.874 -0.3803  0.2832 -0.4652
   25MOL0     C 3290   3.177  10.096   6.819 -0.1226 -0.4623 -0.4974
   25MOL0     N 3291   3.968   9.889   7.068 -0.6225 -0.1549  0.1554
   25MOL0     N 3292   3.973   9.771   7.111  0.4763 -0.2013  0.2674
   25MOL0     C 3293   4.324   8.835   7.084  0.6523 -0.5514  0.2895
   25MOL0     C 3294   4.390   8.769   6.976 -0.2620 -0.1727  0.0545
   25MOL0     C 3295   4.611   8.564   6.666 -0.0498 -0.2180  0.2925
   25MOL0     C 3296   4.742   8.567   6.719 -0.0705  0.0738  0.1034
   25MOL0     C 3297   4.834   8.474   6.667 -0.0252  0.3076 -0.0024
   25MOL0     C 3298   4.801   8.387   6.562 -0.1505  1.4188 -0.7952
   25MOL0     O 3299   4.894   8.298   6.510 -0.2294  0.7076  0.1455
   25MOL0     C 3300   5.029   8.312   6.551  0.1512 -0.3882  0.1768
   25MOL0     C 3301   5.118   8.222   6.459 -0.0171  0.6284 -0.4309
   25MOL0     C 3302   5.093   8.214   6.313 -0.2506  0.0582 -0.9882
   25MOL0     C 3303   5.198   8.144   6.226 -0.6248 -0.1257 -0.9405
   25MOL0     C 3304   5.332   8.183   6.261  0.5419 -0.4004  0.5096
   25MOL0     C 3305   5.449   8.217   6.263  0.6127  0.0441  0.0908
   25MOL0     C 3306   4.665   8.393   6.508 -0.2367  0.4797 -0.3887
   25MOL0     C 3307   4.572   8.478   6.564  0.2002 -0.0735  0.4324
   25MOL0     H 3308   4.595   9.020   6.885 -0.9346  1.1024  1.2630
   25MOL0     H 3309   4.484   9.123   7.074  0.5718  1.0847 -2.7043
   25MOL0     H 3310   4.189   9.159   7.088 -0.4225  2.6723  3.6905
   25MOL0     H 3311   4.102   9.003   7.099 -2.9094  2.7835 -0.8925
   25MOL0     H 3312   4.050   9.067   7.348  0.9783 -0.5151  0.2257
   25MOL0     H 3313   4.131   9.223   7.311 -0.5343  0.0812 -0.8202
   25MOL0     H 3314   3.953   9.215   7.105  0.3842 -2.9328 -0.8757
   25MOL0     H 3315   3.879   9.095   7.200 -1.6629  0.1676 -1.5369
   25MOL0     H 3316   3.829   9.238   7.394 -3.3835 -0.3033 -1.2691
   25MOL0     H 3317   3.903   9.372   7.310 -1.1297 -0.1731  0.2390
   25MOL0     H 3318   3.673   9.185   7.213 -1.0367  0.5898 -1.4823
   25MOL0     H 3319   3.637   9.323   7.313  0.4653 -1.9056  0.5961
   25MOL0     H 3320   3.749   9.309   7.027 -4.4930 -3.1082 -0.1064
   25MOL0     H 3321   3.596   9.359   7.081 -0.0277  0.6720 -0.1656
   25MOL0     H 3322   3.665   9.570   7.048  1.3734 -1.4526 -1.4164
   25MOL0     H 3323   3.737   9.555   7.216  3.0911  0.4984  0.4174
   25MOL0     H 3324   3.893   9.498   6.963  2.0478  1.8392 -0.5371
   25MOL0     H 3325   3.957   9.501   7.124  0.8180 -2.1043 -2.6376
   25MOL0     H 3326   3.762   9.736   6.866  0.6795 -0.1841 -0.0872
   25MOL0     H 3327   3.787  10.093   6.984  0.0083 -0.0164  0.1517
   25MOL0     H 3328   3.896  10.073   6.855  0.8331 -1.8354 -1.2592
   25MOL0     H 3329   3.609   9.953   6.877 -0.3291 -1.2946 -0.9097
   25MOL0     H 3330   3.701   9.928   6.732  2.4274  1.8757 -0.5031
   25MOL0     H 3331   3.590  10.104   6.651 -0.4670 -0.3312  0.5535
   25MOL0     H 3332   3.714  10.200   6.729  1.8032 -0.5376 -0.5709
   25MOL0     H 3333   3.523  10.283   6.806  1.7469  1.1459  3.1928
   25MOL0     H 3334   3.551  10.167   6.935  3.6466 -0.8199 -0.2285
   25MOL0     H 3335   3.379  10.324   6.993 -0.3958 -0.9460  0.1824
   25MOL0     H 3336   3.262  10.484   7.098 -1.1301  1.0790  2.0589
   25MOL0     H 3337   3.089  10.503   7.077 -0.7529 -1.3068  1.1545
   25MOL0     H 3338   3.162  10.389   7.195  1.4036 -1.8397 -0.1046
   25MOL0     H 3339   2.646  10.307   6.823  2.6090  1.0648  1.4892
   25MOL0     H 3340   2.409  10.392   6.881  0.9181  0.6707 -0.7910
   25MOL0     H 3341   2.224  10.275   7.232 -1.5654  0.3753  2.9886
   25MOL0     H 3342   2.254  10.441   7.289  4.9076 -0.4468 -0.8550
   25MOL0     H 3343   2.070  10.526   7.155  1.9507 -0.7932  1.2105
   25MOL0     H 3344   2.036  10.380   7.063  1.9812 -1.7170 -0.7113
   25MOL0     H 3345   2.029  10.406   7.368 -0.6814 -0.4867  0.5715
   25MOL0     H 3346   1.986  10.255   7.286 -1.5676  0.1573 -0.3931
   25MOL0     H 3347   1.855  10.513   7.252  0.4240  0.4044 -1.2858
   25MOL0     H 3348   1.804  10.354   7.171 -0.8092  0.6330  0.2647
   25MOL0     H 3349   1.812  10.393   7.479 -1.6710  1.2292 -0.4165
   25MOL0     H 3350   1.735  10.269   7.381 -0.8129 -0.0059  0.5496
   25MOL0     H 3351   1.652  10.554   7.394  2.0507 -0.3576  0.4481
   25MOL0     H 3352   1.569  10.417   7.295 -0.1996  1.0951 -0.5945
   25MOL0     H 3353   1.564  10.462   7.583  3.5355 -3.0790  2.6561
   25MOL0     H 3354   1.600  10.293   7.535  2.9190  1.0609 -1.6714
   25MOL0     H 3355   1.355  10.317   7.549 -1.5539  1.2167  0.2368
   25MOL0     H 3356   1.397  10.302   7.382  1.0789 -1.3567  1.2655
   25MOL0     H 3357   2.455  10.261   7.276 -0.0163  2.5053 -0.3540
   25MOL0     H 3358   2.662  10.144   7.228 -1.4986  0.7468  2.3989
   25MOL0     H 3359   2.972  10.079   6.855 -0.5226  0.1089  0.7288
   25MOL0     H 3360   3.172  10.019   6.742 -0.8515  0.1757 -1.0933
   25MOL0     H 3361   4.248   8.777   7.136 -0.8361  1.4017  0.4154
   25MOL0     H 3362   4.373   8.662   6.969  2.2794 -0.6222 -0.2432
   25MOL0     H 3363   4.765   8.637   6.798  0.3129  2.0895 -1.7074
   25MOL0     H 3364   4.936   8.477   6.705  0.7940 -2.6639 -1.6406
   25MOL0     H 3365   5.053   8.419   6.548 -1.6861  0.0608  0.1515
   25MOL0     H 3366   5.045   8.280   6.654  2.9049  3.9001  1.3605
   25MOL0     H 3367   5.120   8.120   6.498 -0.7299  0.9668  0.5442
   25MOL0     H 3368   5.216   8.270   6.468  1.0442 -1.6816  1.4582
   25MOL0     H 3369   5.087   8.322   6.298  0.7749  0.9682  3.5292
   25MOL0     H 3370   4.996   8.172   6.284  0.5913 -2.2872 -0.6460
   25MOL0     H 3371   5.181   8.178   6.124 -2.7164  2.3690  0.1230
   25MOL0     H 3372   5.185   8.035   6.225  0.4586 -0.3508  1.4495
   25MOL0     H 3373   5.553   8.243   6.256  2.1773 -5.3130 -1.5075
   25MOL0     H 3374   4.635   8.330   6.425  1.2135  1.1022 -1.4329
   25MOL0     H 3375   4.468   8.477   6.532  0.5991 -0.4480 -0.8778
   26MOL0     O 3376   5.582   9.223   1.107  0.2988  0.0037 -0.3360
   26MOL0     C 3377   5.646   9.281   1.022  0.4711  0.2719 -0.2662
   26MOL0     O 3378   5.609   9.313   0.891  0.2697  0.9511  0.0122
   26MOL0     C 3379   5.482   9.275   0.859  0.1659 -0.0667  0.4769
   26MOL0     C 3380   5.365   9.293   0.937  0.4849  0.1300 -0.4720
   26MOL0     C 3381   5.240   9.259   0.886 -0.3377  0.4983  0.2362
   26MOL0     C 3382   5.232   9.195   0.765  0.7513 -0.2362  0.7576
   26MOL0     O 3383   5.104   9.162   0.726  1.0321 -0.4060  0.0952
   26MOL0     C 3384   5.080   9.075   0.615 -0.0917  0.5019 -0.8230
   26MOL0     C 3385   4.932   9.071   0.591  0.0144 -0.8673 -0.1073
   26MOL0     C 3386   4.900   8.960   0.487  0.2804  0.6952 -0.4052
   26MOL0     C 3387   4.749   8.965   0.456 -0.0754  0.0875  0.2945
   26MOL0     C 3388   4.719   8.881   0.328 -0.7447 -0.5491  0.9033
   26MOL0     C 3389   4.582   8.896   0.266 -0.1516  0.5302  0.5903
   26MOL0     C 3390   4.557   8.794   0.146 -0.2009 -0.1609 -0.1775
   26MOL0     C 3391   4.412   8.775   0.083 -0.0737  0.4480 -0.0467
   26MOL0     N 3392   4.323   8.892   0.092 -0.5855 -0.4232 -0.2903
   26MOL0     C 3393   4.341   9.020   0.048  0.7953 -0.0607  0.3897
   26MOL0     C 3394   4.225   9.080   0.066 -0.0209 -0.9534 -1.0197
   26MOL0     C 3395   4.170   9.221   0.037 -0.4716  0.4746  0.3420
   26MOL0     C 3396   4.023   9.237  -0.010 -1.0009 -0.8004  0.5962
   26MOL0     C 3397   4.008   9.252  -0.167 -0.0192 -0.1325 -0.5692
   26MOL0     C 3398   3.854   9.264  -0.196 -0.1725  0.2441  0.3628
   26MOL0     O 3399   3.819   9.399  -0.183  0.5687 -0.9619 -0.1571
   26MOL0     C 3400   3.690   9.427  -0.223  1.0551 -0.3153 -0.4283
   26MOL0     C 3401   3.656   9.563  -0.225  0.2473 -0.1126 -0.3314
   26MOL0     C 3402   3.536   9.616  -0.264 -0.0437 -0.3132 -0.1106
   26MOL0     C 3403   3.540   9.772  -0.271 -0.5190  0.0806 -0.1245
   26MOL0     C 3404   3.431   9.526  -0.304 -0.0953 -0.7734 -0.0965
   26MOL0     C 3405   3.308   9.566  -0.371 -0.0863  0.1500 -0.6170
   26MOL0     O 3406   3.210   9.474  -0.389 -0.0032 -0.0218 -0.5269
   26MOL0     C 3407   3.108   9.513  -0.476  1.3259  0.2290 -0.5718
   26MOL0     C 3408   3.044   9.641  -0.468 -0.3624  0.8600  0.3197
   26MOL0     C 3409   2.934   9.662  -0.558 -1.2384  0.2172 -0.0467
   26MOL0     C 3410   2.898   9.571  -0.663 -0.9395  0.1762  0.0926
   26MOL0     O 3411   2.806   9.589  -0.758  0.4713 -0.0059 -0.3151
   26MOL0     C 3412   2.714   9.695  -0.761  0.5757 -0.3792 -0.2148
   26MOL0     C 3413   2.608   9.686  -0.869  0.4061  0.2770  0.4296
   26MOL0     C 3414   2.491   9.583  -0.853  0.1823  0.5057 -0.0597
   26MOL0     C 3415   2.381   9.614  -0.959 -0.2871  0.4582 -0.2695
   26MOL0     C 3416   2.263   9.509  -0.967 -0.6741 -0.1786 -0.4180
   26MOL0     C 3417   2.149   9.565  -1.064 -0.4736  0.2500 -0.0778
   26MOL0     C 3418   2.042   9.462  -1.087  0.1445 -0.1402 -0.4520
   26MOL0     C 3419   1.971   9.489  -1.213 -0.0976 -0.0923  0.5050
   26MOL0    Cl 3420   2.072   9.455  -1.351  0.0104 -0.0822 -0.2493
   26MOL0     C 3421   2.976   9.451  -0.675 -0.8182 -0.2555 -0.2816
   26MOL0     C 3422   3.072   9.425  -0.575 -0.1364 -0.0891  0.5965
   26MOL0     O 3423   3.297   9.679  -0.397 -0.3662  0.6598 -0.7581
   26MOL0     C 3424   3.454   9.387  -0.306 -0.1353  0.0572  0.1633
   26MOL0     C 3425   3.582   9.338  -0.270  0.3530  0.3118 -0.3008
   26MOL0     N 3426   4.137   8.994   0.132 -0.6914 -0.4482  0.9792
   26MOL0     N 3427   4.203   8.890   0.152  0.7644  0.8321 -0.4342
   26MOL0     C 3428   5.347   9.178   0.688 -0.2726  0.0492 -0.6770
   26MOL0     C 3429   5.467   9.221   0.737 -0.3729  0.5727  0.6413
   26MOL0     C 3430   5.785   9.322   1.056 -0.0920 -1.8358 -0.1108
   26MOL0     C 3431   5.861   9.261   1.161 -0.9329 -0.0613  0.3755
   26MOL0     C 3432   6.000   9.294   1.175  0.5955 -0.7726 -0.0483
   26MOL0     C 3433   6.070   9.391   1.098  0.7595  0.2625  0.4414
   26MOL0     O 3434   6.199   9.425   1.124 -0.3380 -0.0416  0.5508
   26MOL0     C 3435   6.266   9.497   1.024  0.4280 -0.5150  0.1866
   26MOL0     C 3436   6.404   9.509   1.070  0.2692  0.0579 -0.1728
   26MOL0     C 3437   6.481   9.580   0.966 -1.6253 -0.2746 -0.1389
   26MOL0     C 3438   6.633   9.589   1.003  0.7317 -0.0002 -0.0820
   26MOL0     C 3439   6.671   9.659   1.127  0.0459  0.1151  0.4204
   26MOL0     C 3440   6.709   9.720   1.225 -0.0638  0.6997 -0.0027
   26MOL0     C 3441   5.985   9.458   1.005  0.7077  0.4890 -0.7324
   26MOL0     C 3442   5.852   9.422   0.984  0.3909  0.2495  0.2989
   26MOL0     H 3443   5.373   9.331   1.038 -2.2898 -1.2871  0.3665
   26MOL0     H 3444   5.147   9.266   0.941 -1.2533 -1.3969 -0.9900
   26MOL0     H 3445   5.141   9.102   0.528  1.1242 -2.1295 -0.9028
   26MOL0     H 3446   5.110   8.975   0.650  0.0301  0.6557 -0.4870
   26MOL0     H 3447   4.876   9.048   0.682 -1.9533 -1.7885 -1.4625
   26MOL0     H 3448   4.897   9.167   0.552  1.4491 -0.7397 -1.1642
   26MOL0     H 3449   4.962   8.966   0.398  1.6799  0.0222  0.4930
   26MOL0     H 3450   4.929   8.871   0.544  2.7477 -0.2926 -3.0208
   26MOL0     H 3451   4.696   8.920   0.540  1.4232 -0.4461  0.9765
   26MOL0     H 3452   4.702   9.063   0.441 -1.3080 -0.7840 -2.2436
   26MOL0     H 3453   4.787   8.916   0.250 -0.7624  0.4255  1.3045
   26MOL0     H 3454   4.735   8.777   0.357  1.6109 -0.0644  1.5451
   26MOL0     H 3455   4.512   8.861   0.342  0.8707 -3.1109  0.0331
   26MOL0     H 3456   4.561   9.000   0.239  1.7770  0.6813 -0.4936
   26MOL0     H 3457   4.611   8.839   0.062 -0.9694  0.2872 -0.4448
   26MOL0     H 3458   4.606   8.700   0.174  6.3038  1.7122 -3.3666
   26MOL0     H 3459   4.357   8.702   0.143  1.4413 -1.4077 -0.8131
   26MOL0     H 3460   4.432   8.739  -0.018  0.9765 -2.9557  1.2365
   26MOL0     H 3461   4.427   9.056  -0.009  1.8087 -2.5075  0.2385
   26MOL0     H 3462   4.194   9.282   0.125  0.0287  1.4188 -0.4135
   26MOL0     H 3463   4.235   9.261  -0.042  0.3002 -2.4549 -0.6199
   26MOL0     H 3464   3.965   9.314   0.043 -1.7527 -1.8833  1.4135
   26MOL0     H 3465   3.961   9.151   0.019 -1.3156 -0.5094  0.7935
   26MOL0     H 3466   4.059   9.166  -0.211  2.6187  0.8848  0.3436
   26MOL0     H 3467   4.052   9.347  -0.198 -2.4607  1.3447  0.1931
   26MOL0     H 3468   3.789   9.199  -0.137 -0.2155  0.4672  0.5582
   26MOL0     H 3469   3.850   9.230  -0.300 -1.2113 -0.4633  0.6221
   26MOL0     H 3470   3.726   9.632  -0.180  0.2167 -1.1205  1.3284
   26MOL0     H 3471   3.462   9.821  -0.212 -0.4878  2.9406 -2.2566
   26MOL0     H 3472   3.622   9.824  -0.221 -2.2747  0.6968  2.3350
   26MOL0     H 3473   3.543   9.794  -0.378  2.0253 -1.7100 -0.5086
   26MOL0     H 3474   3.074   9.716  -0.396  2.6436 -0.6541  0.8226
   26MOL0     H 3475   2.870   9.748  -0.538 -2.1782  0.5876 -3.8124
   26MOL0     H 3476   2.670   9.700  -0.662  2.2172 -2.6901  0.7100
   26MOL0     H 3477   2.763   9.789  -0.790 -1.1401  1.5004  2.4878
   26MOL0     H 3478   2.560   9.785  -0.866 -1.9036 -0.7741  0.1388
   26MOL0     H 3479   2.657   9.681  -0.966 -0.5050  1.2451 -0.1012
   26MOL0     H 3480   2.437   9.589  -0.757 -0.7879 -1.5966 -0.3948
   26MOL0     H 3481   2.516   9.477  -0.867 -3.4159 -0.3904 -0.8118
   26MOL0     H 3482   2.341   9.713  -0.933  0.5998 -0.0921  3.6791
   26MOL0     H 3483   2.418   9.621  -1.062 -1.7944  0.3113 -0.8552
   26MOL0     H 3484   2.227   9.502  -0.864 -0.6471  2.6595 -0.1383
   26MOL0     H 3485   2.303   9.411  -0.995  0.0820 -0.4614  1.5559
   26MOL0     H 3486   2.102   9.657  -1.029 -2.1471 -1.2508  1.7706
   26MOL0     H 3487   2.201   9.586  -1.159 -0.7784  1.4164 -0.0011
   26MOL0     H 3488   1.969   9.472  -1.006  1.0322  0.8087  0.2648
   26MOL0     H 3489   2.080   9.360  -1.094  0.8847  0.1925 -1.4747
   26MOL0     H 3490   1.940   9.593  -1.227  0.4616  0.2109  1.4530
   26MOL0     H 3491   1.878   9.433  -1.204 -0.3730  0.4269  0.9576
   26MOL0     H 3492   2.977   9.377  -0.755  0.8344  1.0480 -1.5282
   26MOL0     H 3493   3.135   9.337  -0.585 -1.7504 -1.2428  0.1277
   26MOL0     H 3494   3.383   9.314  -0.343 -1.1816  0.1415  1.9074
   26MOL0     H 3495   3.610   9.235  -0.290  1.6807  0.7678 -0.9420
   26MOL0     H 3496   5.345   9.143   0.586 -0.7373 -1.3864 -0.2010
   26MOL0     H 3497   5.552   9.199   0.674 -1.6156  0.6465 -1.1354
   26MOL0     H 3498   5.807   9.183   1.213 -1.3168  0.0790  0.1916
   26MOL0     H 3499   6.056   9.252   1.258 -2.6010 -0.2125  2.6076
   26MOL0     H 3500   6.261   9.433   0.935 -1.7545  1.2866 -1.1023
   26MOL0     H 3501   6.225   9.596   1.001  2.0670 -0.2189 -1.8048
   26MOL0     H 3502   6.451   9.412   1.087  0.5752  0.4653  1.4320
   26MOL0     H 3503   6.406   9.575   1.157  1.9603  1.0129 -0.9002
   26MOL0     H 3504   6.441   9.679   0.941 -0.5180  1.1395  3.1621
   26MOL0     H 3505   6.486   9.523   0.873  5.4584 -0.6807 -0.0125
   26MOL0     H 3506   6.686   9.629   0.916  1.3106  1.7149  1.0213
   26MOL0     H 3507   6.661   9.485   1.020  1.4763 -0.0915 -1.6983
   26MOL0     H 3508   6.715   9.762   1.323 -0.7911  0.2191  0.2544
   26MOL0     H 3509   6.023   9.545   0.952  1.6563 -0.5527 -1.8488
   26MOL0     H 3510   5.793   9.476   0.910  1.7198  2.8839  1.0372
   27MOL0     O 3511   5.234  10.123   7.902 -0.0985 -0.2121  0.0509
   27MOL0     C 3512   5.240  10.044   7.995 -0.2173  0.5603 -0.0613
   27MOL0     O 3513   5.137   9.982   8.062  0.8062 -0.2041 -0.4115
   27MOL0     C 3514   5.003   9.984   8.018  0.7184  0.2392 -0.2168
   27MOL0     C 3515   4.936  10.099   7.968 -0.8749 -0.0465  0.7590
   27MOL0     C 3516   4.799  10.093   7.954 -1.4625 -0.0514 -0.0760
   27MOL0     C 3517   4.716   9.981   7.984 -0.3374 -0.0638 -0.5011
   27MOL0     O 3518   4.582   9.981   7.964  0.6841  0.3888 -0.3283
   27MOL0     C 3519   4.490   9.910   8.048 -0.8958 -0.3041 -0.0566
   27MOL0     C 3520   4.354   9.933   7.996 -0.1738 -0.8260  0.5302
   27MOL0     C 3521   4.240   9.930   8.112  0.4530 -0.9638 -0.3390
   27MOL0     C 3522   4.101   9.961   8.053  0.5638  0.7994  0.0425
   27MOL0     C 3523   3.999   9.967   8.174  0.2262 -1.1394 -0.5010
   27MOL0     C 3524   3.875  10.038   8.121  0.3997 -0.1574 -0.4516
   27MOL0     C 3525   3.773  10.072   8.230  0.2195  0.2641 -0.7660
   27MOL0     C 3526   3.653   9.971   8.223  0.4119  0.2254 -0.4144
   27MOL0     N 3527   3.537  10.014   8.290  0.3367  0.6758 -0.0221
   27MOL0     C 3528   3.403   9.997   8.266  1.2788 -0.2767 -0.3241
   27MOL0     C 3529   3.336  10.075   8.360 -0.1321  0.5767 -0.2897
   27MOL0     C 3530   3.192  10.097   8.384  0.0289 -0.6607  0.0857
   27MOL0     C 3531   3.133   9.978   8.470  0.5486  0.0316  0.0563
   27MOL0     C 3532   2.998  10.009   8.534  0.6524 -0.3787 -0.3664
   27MOL0     C 3533   2.906  10.087   8.450  0.7660 -0.6555 -0.0642
   27MOL0     O 3534   2.783  10.082   8.519  0.1065  0.0735 -0.1837
   27MOL0     C 3535   2.705  10.195   8.534  0.1682 -0.0368 -0.0262
   27MOL0     C 3536   2.597  10.195   8.622 -0.0192  0.1711  0.5332
   27MOL0     C 3537   2.531  10.310   8.651  0.7647 -1.1603 -0.1038
   27MOL0     C 3538   2.408  10.296   8.739  0.2176  0.3664 -0.1579
   27MOL0     C 3539   2.563  10.429   8.598 -0.7891  1.0436  0.8556
   27MOL0     C 3540   2.502  10.567   8.628 -0.2091  0.2950 -0.7127
   27MOL0     O 3541   2.510  10.653   8.526 -0.4002  0.5373 -0.8753
   27MOL0     C 3542   2.439  10.764   8.539 -0.2696 -0.6302  0.1303
   27MOL0     C 3543   2.501  10.892   8.544 -0.4477 -0.1349  0.8529
   27MOL0     C 3544   2.416  11.002   8.544  0.1881 -0.0664  0.5144
   27MOL0     C 3545   2.274  10.996   8.529  0.9164 -0.3224  0.1169
   27MOL0     O 3546   2.202  11.117   8.520  0.1008 -0.3618  0.1737
   27MOL0     C 3547   2.061  11.110   8.526 -0.5820 -0.2228  0.7863
   27MOL0     C 3548   2.003  11.246   8.545 -0.0735  0.3851  0.0271
   27MOL0     C 3549   1.972  11.279   8.688  0.2167  0.0705  0.0608
   27MOL0     C 3550   1.829  11.236   8.730  0.4105 -0.2050 -0.4292
   27MOL0     C 3551   1.784  11.289   8.871  0.5789  0.0091 -0.5789
   27MOL0     C 3552   1.635  11.252   8.899 -0.2871 -0.4791 -0.4945
   27MOL0     C 3553   1.621  11.281   9.047  0.4069  0.8028 -0.0395
   27MOL0     C 3554   1.477  11.264   9.103 -0.3531  0.2315  0.0362
   27MOL0    Cl 3555   1.475  11.298   9.282 -0.1264 -0.1396  0.3486
   27MOL0     C 3556   2.216  10.862   8.513  0.9533  0.1091  0.3890
   27MOL0     C 3557   2.298  10.756   8.529  0.3495  0.1639 -0.1751
   27MOL0     O 3558   2.447  10.593   8.741  0.5166 -0.4332 -0.4743
   27MOL0     C 3559   2.675  10.435   8.516  0.2275 -0.2096  0.4398
   27MOL0     C 3560   2.741  10.321   8.475 -0.5249 -0.3246 -1.0321
   27MOL0     N 3561   3.435  10.127   8.445 -0.0985  0.1809  0.4692
   27MOL0     N 3562   3.548  10.079   8.404 -0.0570 -0.2366 -0.3530
   27MOL0     C 3563   4.785   9.871   8.038  0.0884 -0.0550 -0.2697
   27MOL0     C 3564   4.925   9.871   8.058  0.0389  0.0828  0.0688
   27MOL0     C 3565   5.364  10.023   8.068 -0.2600  0.0141 -0.2405
   27MOL0     C 3566   5.480  10.080   8.019  0.5653  0.5743  0.3700
   27MOL0     C 3567   5.602  10.068   8.084  1.0186 -0.1541  0.0908
   27MOL0     C 3568   5.600  10.016   8.216 -0.0947 -0.2817 -0.3813
   27MOL0     O 3569   5.708  10.020   8.302 -0.8591  0.2522 -0.5233
   27MOL0     C 3570   5.830  10.091   8.261 -0.5408 -0.0708 -0.0908
   27MOL0     C 3571   5.931  10.088   8.382 -0.3175 -0.9155  0.1319
   27MOL0     C 3572   5.883  10.169   8.504  0.3294  0.1389  0.1357
   27MOL0     C 3573   5.991  10.200   8.603 -0.0753  0.2904 -0.4728
   27MOL0     C 3574   6.114  10.264   8.559  0.4257  0.0626  0.2628
   27MOL0     C 3575   6.217  10.317   8.527  0.2142 -1.1425 -0.8454
   27MOL0     C 3576   5.484   9.970   8.274 -0.4367 -0.1227  0.3389
   27MOL0     C 3577   5.360   9.973   8.203 -0.6276  0.0250  0.5542
   27MOL0     H 3578   4.985  10.194   7.949  1.1859 -1.7041 -3.5307
   27MOL0     H 3579   4.752  10.185   7.921 -0.4288  1.4954  2.4555
   27MOL0     H 3580   4.522   9.806   8.060 -1.6885 -0.4148  1.4122
   27MOL0     H 3581   4.499   9.957   8.146 -0.2577  2.1786 -1.2211
   27MOL0     H 3582   4.355  10.030   7.947 -0.4812  0.0850  2.2435
   27MOL0     H 3583   4.335   9.848   7.930  1.2571  1.2610 -2.8580
   27MOL0     H 3584   4.235   9.840   8.174 -2.6155 -0.3293  0.4882
   27MOL0     H 3585   4.264  10.008   8.184 -1.3104 -3.1655  2.9280
   27MOL0     H 3586   4.102  10.059   8.003  2.6933 -0.1482 -1.9906
   27MOL0     H 3587   4.079   9.883   7.979  5.5923 -1.7700  0.8218
   27MOL0     H 3588   3.962   9.872   8.211  1.3353 -1.4689 -0.1804
   27MOL0     H 3589   4.044  10.024   8.256 -2.2056  0.5165 -0.2141
   27MOL0     H 3590   3.910  10.127   8.067  0.9896 -0.7063 -0.9857
   27MOL0     H 3591   3.841   9.961   8.051  1.2908  0.5538 -1.7147
   27MOL0     H 3592   3.818  10.067   8.330  0.4849 -1.0994 -0.9322
   27MOL0     H 3593   3.745  10.177   8.220  2.6704  1.0163 -0.5200
   27MOL0     H 3594   3.683   9.874   8.265 -1.5902 -1.7775 -3.2110
   27MOL0     H 3595   3.621   9.944   8.122 -0.3063 -1.0840  0.1248
   27MOL0     H 3596   3.352   9.943   8.187  0.3516 -2.2664  1.5274
   27MOL0     H 3597   3.188  10.186   8.447  0.2978  1.5249 -2.8430
   27MOL0     H 3598   3.140  10.110   8.289  3.0289 -2.3468 -1.9456
   27MOL0     H 3599   3.194   9.939   8.552 -0.0389 -0.7038  0.1535
   27MOL0     H 3600   3.118   9.891   8.405 -0.1615 -1.3641  1.9832
   27MOL0     H 3601   3.010  10.064   8.628 -0.9519 -0.3479 -0.1380
   27MOL0     H 3602   2.945   9.920   8.570  0.4599  0.4431  1.5217
   27MOL0     H 3603   2.896  10.051   8.347 -3.0743  0.2198 -0.1827
   27MOL0     H 3604   2.944  10.189   8.443 -0.4610  0.0041  2.0295
   27MOL0     H 3605   2.557  10.106   8.670  2.0390 -1.0574  0.0461
   27MOL0     H 3606   2.398  10.195   8.779 -0.1178 -0.3755 -1.9927
   27MOL0     H 3607   2.406  10.376   8.813 -0.0313  0.3552 -0.1502
   27MOL0     H 3608   2.320  10.292   8.674 -0.3411 -2.4989  0.6147
   27MOL0     H 3609   2.609  10.899   8.545 -0.5422  2.3419  1.4072
   27MOL0     H 3610   2.458  11.102   8.546 -0.2692  0.3418 -3.4167
   27MOL0     H 3611   2.025  11.081   8.427  0.5203  2.8249 -0.6262
   27MOL0     H 3612   2.029  11.047   8.610  1.6756  1.5262  3.1393
   27MOL0     H 3613   2.062  11.326   8.499  0.1884  0.4563  0.4829
   27MOL0     H 3614   1.913  11.252   8.482 -1.9089  3.1204  2.6129
   27MOL0     H 3615   1.980  11.386   8.708 -1.9322  0.0804  1.1673
   27MOL0     H 3616   2.041  11.228   8.756 -2.0649 -2.5565  0.5693
   27MOL0     H 3617   1.754  11.271   8.659 -1.9181 -0.9913  1.5242
   27MOL0     H 3618   1.818  11.127   8.738  2.1882 -0.2605  3.0682
   27MOL0     H 3619   1.799  11.398   8.870 -2.3005  0.7400  4.4764
   27MOL0     H 3620   1.838  11.247   8.956  0.4204  0.5290 -0.2167
   27MOL0     H 3621   1.565  11.304   8.833 -2.7614 -1.0891  1.5235
   27MOL0     H 3622   1.623  11.145   8.879  1.0558 -0.7818  0.1861
   27MOL0     H 3623   1.649  11.385   9.066 -1.0823  1.6788 -2.1770
   27MOL0     H 3624   1.675  11.209   9.108 -2.6382 -1.5290  0.1237
   27MOL0     H 3625   1.432  11.165   9.092 -0.7074  0.6480 -3.5040
   27MOL0     H 3626   1.416  11.339   9.052  0.2516  1.3355  0.8935
   27MOL0     H 3627   2.116  10.837   8.479  1.8258 -0.3006 -2.0417
   27MOL0     H 3628   2.269  10.652   8.519 -1.5486  0.7172 -0.6404
   27MOL0     H 3629   2.711  10.528   8.472 -1.0041  0.2342  0.3289
   27MOL0     H 3630   2.827  10.336   8.410  2.4606 -0.3985  2.5941
   27MOL0     H 3631   4.732   9.783   8.073  0.6676  0.1980  1.3037
   27MOL0     H 3632   4.979   9.796   8.116  3.6527  3.6627  1.8985
   27MOL0     H 3633   5.481  10.091   7.911 -1.0644 -0.4196  0.2175
   27MOL0     H 3634   5.696  10.084   8.034  1.5863 -2.4534  0.2829
   27MOL0     H 3635   5.867  10.034   8.175  0.9354 -1.5022  1.4257
   27MOL0     H 3636   5.805  10.193   8.230  0.4514 -0.6338 -3.1238
   27MOL0     H 3637   6.017  10.135   8.334 -0.0737 -2.3461 -0.9096
   27MOL0     H 3638   5.953   9.987   8.419  0.4384 -0.0157  2.2842
   27MOL0     H 3639   5.793  10.120   8.543 -0.8167  1.8928 -0.1752
   27MOL0     H 3640   5.848  10.265   8.465 -0.6174 -0.7294 -1.2802
   27MOL0     H 3641   6.017  10.100   8.640 -2.2412 -0.9474 -2.0535
   27MOL0     H 3642   5.959  10.250   8.694 -0.8003  0.1897 -0.6663
   27MOL0     H 3643   6.312  10.365   8.515  0.2866 -0.6075  1.3651
   27MOL0     H 3644   5.472   9.933   8.375 -1.5313 -0.6073  0.0529
   27MOL0     H 3645   5.274   9.927   8.250  2.0852 -2.9353  3.1972
   28MOL0     O 3646   6.920  10.765   0.922 -0.7985 -0.6926 -0.1006
   28MOL0     C 3647   6.900  10.885   0.949 -0.0291  0.3745  0.0280
   28MOL0     O 3648   6.781  10.930   0.994 -0.2349  0.6028 -0.0338
   28MOL0     C 3649   6.674  10.848   0.976  0.7180 -0.2891 -0.0404
   28MOL0     C 3650   6.615  10.830   0.849 -0.3530 -0.8996  0.1339
   28MOL0     C 3651   6.499  10.758   0.825  0.4458  0.1136 -0.5292
   28MOL0     C 3652   6.440  10.689   0.931 -0.3094 -0.4980 -0.6496
   28MOL0     O 3653   6.327  10.612   0.926  0.2976  0.6639 -0.4617
   28MOL0     C 3654   6.237  10.626   0.823 -0.6135  0.4474  0.0723
   28MOL0     C 3655   6.093  10.584   0.878 -0.0725  0.4402 -0.0948
   28MOL0     C 3656   5.995  10.596   0.762 -0.7430 -0.1010 -0.2341
   28MOL0     C 3657   5.855  10.569   0.820  0.3047 -0.4069 -0.4561
   28MOL0     C 3658   5.752  10.549   0.706 -0.4235  0.6438  0.4291
   28MOL0     C 3659   5.730  10.673   0.619 -0.4437  1.2034  0.2070
   28MOL0     C 3660   5.588  10.672   0.564 -0.7055  0.1510  0.3296
   28MOL0     C 3661   5.548  10.549   0.481  0.4980  0.1861 -0.5916
   28MOL0     N 3662   5.396  10.532   0.483  0.1434 -0.3569  0.5245
   28MOL0     C 3663   5.320  10.628   0.436 -0.1187  0.1217  0.8454
   28MOL0     C 3664   5.195  10.598   0.478  0.0813 -0.3213  0.3778
   28MOL0     C 3665   5.069  10.671   0.443  0.7109  0.7248  0.5717
   28MOL0     C 3666   5.070  10.822   0.464 -0.4303 -0.0323 -0.0560
   28MOL0     C 3667   5.138  10.862   0.597 -0.1084 -0.6735 -0.8799
   28MOL0     C 3668   5.054  10.836   0.720 -0.1804  0.3886  0.0912
   28MOL0     O 3669   4.933  10.903   0.693  0.3525 -0.2792 -0.2026
   28MOL0     C 3670   4.832  10.909   0.787  0.0017  0.7776  0.2889
   28MOL0     C 3671   4.855  10.923   0.922  0.7243  0.3035  0.2630
   28MOL0     C 3672   4.740  10.918   1.012 -0.7573 -0.2326 -0.0790
   28MOL0     C 3673   4.759  10.942   1.166 -0.4219 -0.3974  0.7646
   28MOL0     C 3674   4.613  10.896   0.959  0.4229  0.2164  0.0495
   28MOL0     C 3675   4.483  10.879   1.036  0.3478 -0.1012 -0.5451
   28MOL0     O 3676   4.400  10.777   0.989 -0.0161 -0.8159 -0.3149
   28MOL0     C 3677   4.269  10.762   1.036 -0.7381  0.4630  1.1012
   28MOL0     C 3678   4.223  10.630   1.078 -1.0526 -0.7674  0.5288
   28MOL0     C 3679   4.090  10.615   1.114  0.2467  0.5918 -0.1484
   28MOL0     C 3680   4.001  10.731   1.110  0.3833 -0.9410 -0.3034
   28MOL0     O 3681   3.874  10.716   1.167 -0.3212 -0.1546 -0.3466
   28MOL0     C 3682   3.768  10.786   1.102  0.1912 -0.2398 -0.3531
   28MOL0     C 3683   3.634  10.701   1.121 -0.0670  0.3426 -0.1317
   28MOL0     C 3684   3.510  10.790   1.127 -0.8756 -0.4333  0.4184
   28MOL0     C 3685   3.388  10.708   1.097  0.1360  0.5451 -0.7577
   28MOL0     C 3686   3.271  10.798   1.094 -0.7631 -0.6211  0.1647
   28MOL0     C 3687   3.147  10.745   1.035 -0.1937 -0.0531  0.2485
   28MOL0     C 3688   3.018  10.825   1.061 -0.1629 -0.1554  0.3389
   28MOL0     C 3689   2.900  10.760   0.984  0.0203 -0.9311 -0.0141
   28MOL0    Cl 3690   2.753  10.848   1.030 -0.2920  0.3947 -0.3730
   28MOL0     C 3691   4.056  10.856   1.073  0.0636 -0.6686  0.9462
   28MOL0     C 3692   4.182  10.867   1.037  0.8467  0.1639 -0.0215
   28MOL0     O 3693   4.456  10.962   1.130 -0.2968  1.1414  0.5676
   28MOL0     C 3694   4.592  10.897   0.823 -0.5558  0.2286  0.2825
   28MOL0     C 3695   4.697  10.913   0.737 -0.7215 -0.5021  0.6975
   28MOL0     N 3696   5.200  10.495   0.570 -0.1424 -0.4341  0.4959
   28MOL0     N 3697   5.324  10.446   0.565 -0.3249 -0.3143 -0.4009
   28MOL0     C 3698   6.509  10.696   1.056 -0.1701  0.0239  0.2994
   28MOL0     C 3699   6.619  10.781   1.081 -0.4561  0.6159  0.1343
   28MOL0     C 3700   7.019  10.973   0.961  0.6138 -0.7285  0.0264
   28MOL0     C 3701   7.006  11.108   0.972  0.2597 -0.4749 -0.0521
   28MOL0     C 3702   7.119  11.184   0.984  0.4137  1.1783  0.2784
   28MOL0     C 3703   7.251  11.142   0.965 -0.1031  0.5260 -0.2987
   28MOL0     O 3704   7.368  11.210   0.984 -0.2195 -0.1691  0.2641
   28MOL0     C 3705   7.359  11.353   1.004  0.2708 -0.1214  0.4948
   28MOL0     C 3706   7.508  11.406   1.008 -0.4781  0.0870  0.1950
   28MOL0     C 3707   7.570  11.457   0.875  0.4773 -0.0612  0.8022
   28MOL0     C 3708   7.710  11.521   0.904 -0.8664  0.8294 -0.5405
   28MOL0     C 3709   7.774  11.592   0.792 -0.2697 -0.0802  0.5229
   28MOL0     C 3710   7.836  11.654   0.707  0.5582  0.4718 -0.1220
   28MOL0     C 3711   7.269  11.004   0.959  0.5939  0.4513 -0.4164
   28MOL0     C 3712   7.151  10.919   0.954  0.4533  0.7739 -0.0830
   28MOL0     H 3713   6.658  10.876   0.761 -1.4153 -2.1996 -1.1244
   28MOL0     H 3714   6.450  10.754   0.729  0.2470  0.0592 -0.4272
   28MOL0     H 3715   6.232  10.725   0.776 -0.2863  0.3238 -0.2284
   28MOL0     H 3716   6.264  10.551   0.747  1.4013  0.2351  0.9478
   28MOL0     H 3717   6.094  10.478   0.904  2.0324  0.1946 -1.0477
   28MOL0     H 3718   6.059  10.640   0.966 -2.7729  1.2281 -1.5257
   28MOL0     H 3719   5.994  10.692   0.709  0.8695  0.5863  0.9089
   28MOL0     H 3720   6.027  10.523   0.687  1.0384  0.7889 -0.3962
   28MOL0     H 3721   5.864  10.479   0.881 -0.1458 -0.6466 -0.7414
   28MOL0     H 3722   5.825  10.658   0.877 -1.4937 -0.4239 -1.3351
   28MOL0     H 3723   5.772  10.462   0.643  1.7090 -0.0935  1.9949
   28MOL0     H 3724   5.654  10.530   0.751 -0.8744 -0.4560 -0.9364
   28MOL0     H 3725   5.745  10.759   0.685  1.3230  0.1933  1.1871
   28MOL0     H 3726   5.810  10.671   0.545 -1.8013  1.1588 -1.3329
   28MOL0     H 3727   5.525  10.678   0.653  0.6111  1.2261  1.2203
   28MOL0     H 3728   5.575  10.767   0.512 -0.8065  0.4849  0.9538
   28MOL0     H 3729   5.595  10.458   0.521  2.7261  0.8280 -1.6138
   28MOL0     H 3730   5.589  10.555   0.380 -0.1177 -3.9944 -1.2622
   28MOL0     H 3731   5.354  10.716   0.383 -0.1111  0.9524  2.1611
   28MOL0     H 3732   5.050  10.640   0.340  1.1745  0.3495  0.5935
   28MOL0     H 3733   4.990  10.621   0.501 -3.0181  2.2714 -2.6566
   28MOL0     H 3734   4.972  10.866   0.447  0.0793  0.2755 -2.6924
   28MOL0     H 3735   5.147  10.862   0.397  1.8103 -2.3952  0.9285
   28MOL0     H 3736   5.158  10.970   0.591 -2.1738 -0.1892 -0.0290
   28MOL0     H 3737   5.237  10.818   0.616 -0.0772 -0.1351  0.2808
   28MOL0     H 3738   5.098  10.875   0.812  1.5749 -0.9885 -0.1201
   28MOL0     H 3739   5.038  10.730   0.741 -2.3932  0.6665 -0.0014
   28MOL0     H 3740   4.950  10.934   0.972 -0.7615  3.0517  2.8047
   28MOL0     H 3741   4.715  11.041   1.187 -1.5366 -1.0861  1.8018
   28MOL0     H 3742   4.713  10.869   1.232 -2.4126  2.3944  2.7291
   28MOL0     H 3743   4.867  10.949   1.182 -0.1290  1.3514 -1.4742
   28MOL0     H 3744   4.291  10.545   1.083 -0.6207 -0.4069  0.9767
   28MOL0     H 3745   4.047  10.522   1.150  3.6700 -1.7289 -1.5303
   28MOL0     H 3746   3.751  10.887   1.140 -1.7356 -0.5987 -0.1138
   28MOL0     H 3747   3.789  10.795   0.995 -0.0197  0.8252 -0.3180
   28MOL0     H 3748   3.622  10.620   1.050 -0.0889 -0.9505  1.2939
   28MOL0     H 3749   3.647  10.659   1.222 -0.1170  1.0530  0.1815
   28MOL0     H 3750   3.523  10.866   1.050  2.5313  1.6241  2.7147
   28MOL0     H 3751   3.510  10.853   1.217  1.0727  0.4590 -0.1488
   28MOL0     H 3752   3.395  10.655   1.001 -2.0838 -0.0392 -0.6540
   28MOL0     H 3753   3.381  10.630   1.173 -0.1944  1.8788  0.6251
   28MOL0     H 3754   3.291  10.897   1.053  0.8549 -1.3741 -0.9824
   28MOL0     H 3755   3.246  10.809   1.200  1.7112  0.1686  0.7305
   28MOL0     H 3756   3.171  10.738   0.929  0.8879 -1.0373  0.5390
   28MOL0     H 3757   3.129  10.644   1.074 -0.4024  1.3963  4.3849
   28MOL0     H 3758   3.014  10.928   1.023 -0.8029  0.4761  2.0244
   28MOL0     H 3759   2.997  10.824   1.168  0.4118 -1.7567  0.4582
   28MOL0     H 3760   2.876  10.658   1.016  1.6544 -0.4735  3.0701
   28MOL0     H 3761   2.919  10.752   0.877 -0.1658  1.5247 -0.2743
   28MOL0     H 3762   3.992  10.943   1.089 -2.0682 -1.5243 -2.0897
   28MOL0     H 3763   4.211  10.962   0.994 -3.3893  2.4980  1.5942
   28MOL0     H 3764   4.496  10.868   0.782 -0.5557 -0.8040  0.9877
   28MOL0     H 3765   4.669  10.902   0.632 -0.5353 -2.3093  0.8078
   28MOL0     H 3766   6.470  10.633   1.136  0.6416 -1.0150 -0.0952
   28MOL0     H 3767   6.664  10.780   1.179 -1.4644  0.3129  0.6037
   28MOL0     H 3768   6.911  11.159   0.977 -0.0043 -0.9903  0.2269
   28MOL0     H 3769   7.095  11.289   0.998  0.3121  1.1258  0.5009
   28MOL0     H 3770   7.298  11.397   0.924  0.4769  2.9945  1.9183
   28MOL0     H 3771   7.316  11.377   1.102  1.6063  2.8894  0.4520
   28MOL0     H 3772   7.568  11.323   1.046  2.6865  1.9470 -0.3569
   28MOL0     H 3773   7.498  11.486   1.082  0.8397 -2.3837  3.2805
   28MOL0     H 3774   7.508  11.534   0.828  1.3563  0.8717  1.1056
   28MOL0     H 3775   7.576  11.372   0.806  1.3011  0.9176 -0.3850
   28MOL0     H 3776   7.776  11.441   0.938 -1.8522  0.8710  1.6567
   28MOL0     H 3777   7.697  11.589   0.989  0.5408 -0.8025  1.0566
   28MOL0     H 3778   7.891  11.719   0.642  0.3486 -0.3570 -1.1658
   28MOL0     H 3779   7.370  10.963   0.956  0.5486  0.4176 -1.8593
   28MOL0     H 3780   7.175  10.813   0.946  0.5434  0.7236  0.7627
   29MOL0     O 3781   4.778   5.051   8.038  0.5322  0.0495 -0.8965
   29MOL0     C 3782   4.855   5.141   8.079  0.6518  0.5091  0.6533
   29MOL0     O 3783   4.821   5.267   8.087  0.1707 -0.6970 -0.2598
   29MOL0     C 3784   4.686   5.296   8.085 -0.3776 -0.2278 -0.2424
   29MOL0     C 3785   4.605   5.256   8.185  0.6208 -0.3034 -0.7319
   29MOL0     C 3786   4.469   5.311   8.199  0.8887 -0.0115  0.9667
   29MOL0     C 3787   4.428   5.410   8.113  0.8487  0.2848  0.1396
   29MOL0     O 3788   4.300   5.463   8.119 -0.5454  0.2524  0.1953
   29MOL0     C 3789   4.196   5.372   8.101 -0.1328 -0.4306  0.5774
   29MOL0     C 3790   4.053   5.427   8.102  1.1785  0.1191 -0.6553
   29MOL0     C 3791   3.952   5.321   8.057 -0.0844 -0.0827  0.8431
   29MOL0     C 3792   3.929   5.205   8.164  0.8967 -0.1109 -0.9523
   29MOL0     C 3793   3.799   5.134   8.124 -0.2384 -1.0683  0.4848
   29MOL0     C 3794   3.760   5.032   8.235  0.3372 -0.7313  0.3119
   29MOL0     C 3795   3.642   4.947   8.185 -0.4072  0.3859  1.3097
   29MOL0     C 3796   3.608   4.828   8.279  0.3601 -0.3171 -0.6318
   29MOL0     N 3797   3.512   4.730   8.223  0.0662  0.0355  0.5218
   29MOL0     C 3798   3.390   4.760   8.163 -0.2668 -0.1526 -0.1247
   29MOL0     C 3799   3.334   4.641   8.125 -0.5494 -0.3183 -0.4092
   29MOL0     C 3800   3.202   4.606   8.062  1.0784 -0.2201 -0.4021
   29MOL0     C 3801   3.071   4.661   8.127  0.3837 -0.1570 -0.2891
   29MOL0     C 3802   2.945   4.613   8.057 -0.0597  0.3382 -0.6960
   29MOL0     C 3803   2.815   4.683   8.113 -0.2767  0.7248 -0.5384
   29MOL0     O 3804   2.702   4.649   8.027  0.5609  0.2626 -0.0273
   29MOL0     C 3805   2.587   4.727   8.046 -0.1894  0.0479 -0.8005
   29MOL0     C 3806   2.478   4.698   7.962 -0.7925  0.6271  0.6829
   29MOL0     C 3807   2.354   4.760   7.981 -0.1027  0.3876 -0.5752
   29MOL0     C 3808   2.248   4.731   7.873  0.9699 -0.0173  0.6138
   29MOL0     C 3809   2.336   4.856   8.077 -0.7849  0.2851 -0.0415
   29MOL0     C 3810   2.203   4.921   8.096  0.6470  0.3046 -0.8388
   29MOL0     O 3811   2.102   4.826   8.119  0.4159 -1.0996 -0.7078
   29MOL0     C 3812   1.977   4.880   8.118  0.7867  0.4465 -0.3640
   29MOL0     C 3813   1.879   4.873   8.013 -0.1423 -0.3009 -0.8104
   29MOL0     C 3814   1.746   4.905   8.040 -0.2450  0.5422 -0.0759
   29MOL0     C 3815   1.705   4.970   8.153 -0.4172 -1.2145 -0.3858
   29MOL0     O 3816   1.573   5.011   8.177 -0.3392  0.4341  0.2018
   29MOL0     C 3817   1.503   5.090   8.079  0.4360 -1.1574 -0.9802
   29MOL0     C 3818   1.437   5.200   8.145 -0.5967  0.2441 -0.3795
   29MOL0     C 3819   1.340   5.283   8.070 -0.3719  0.3480  0.2698
   29MOL0     C 3820   1.399   5.370   7.956  0.0338 -0.2427 -0.2776
   29MOL0     C 3821   1.305   5.487   7.926  0.2448 -0.9000 -0.6286
   29MOL0     C 3822   1.271   5.571   8.039 -0.3742 -0.7183 -0.6467
   29MOL0     C 3823   1.197   5.701   7.993 -0.2211  0.5059  0.7445
   29MOL0     C 3824   1.185   5.791   8.121 -0.4361  0.4393  0.6558
   29MOL0    Cl 3825   1.344   5.859   8.166  0.3992 -0.0092  0.5513
   29MOL0     C 3826   1.797   4.987   8.257 -0.3482 -0.1154  0.4983
   29MOL0     C 3827   1.933   4.939   8.234 -0.7628  0.1138 -0.0527
   29MOL0     O 3828   2.193   5.037   8.127  0.2918 -0.6712 -0.5617
   29MOL0     C 3829   2.448   4.902   8.152 -0.1851  0.6985 -0.0276
   29MOL0     C 3830   2.571   4.833   8.140 -0.2979  0.2948  0.9489
   29MOL0     N 3831   3.431   4.541   8.148  0.5866 -0.0160  0.1486
   29MOL0     N 3832   3.535   4.598   8.192  1.1871  0.4302  0.4689
   29MOL0     C 3833   4.515   5.464   8.020 -0.3517  0.0330  0.2515
   29MOL0     C 3834   4.647   5.405   8.004  0.6277  0.1315  0.1630
   29MOL0     C 3835   5.001   5.102   8.088  0.2505  0.3579  0.2701
   29MOL0     C 3836   5.037   4.975   8.134  0.4330  0.5103 -0.2190
   29MOL0     C 3837   5.169   4.935   8.133  0.5264 -0.3624  0.2462
   29MOL0     C 3838   5.271   5.028   8.091  0.5242  0.1719 -0.1872
   29MOL0     O 3839   5.405   5.000   8.072  0.2744  0.4634 -1.0331
   29MOL0     C 3840   5.447   4.869   8.113 -0.0763 -0.9487  0.1413
   29MOL0     C 3841   5.604   4.868   8.105  0.2936  0.5272 -0.5688
   29MOL0     C 3842   5.671   4.976   8.024 -0.4885 -0.4013 -0.3596
   29MOL0     C 3843   5.645   4.945   7.880 -0.7639 -0.1370 -0.5296
   29MOL0     C 3844   5.695   5.058   7.801 -0.6986 -0.7268 -0.5606
   29MOL0     C 3845   5.739   5.154   7.732  0.5666 -0.8434 -0.6788
   29MOL0     C 3846   5.231   5.159   8.047  0.8641  0.3807  0.4315
   29MOL0     C 3847   5.097   5.190   8.039  0.0426  0.4949  0.4153
   29MOL0     H 3848   4.629   5.178   8.256 -0.1778  2.5016  2.9742
   29MOL0     H 3849   4.411   5.275   8.284  0.6880 -0.6088  0.5823
   29MOL0     H 3850   4.222   5.331   8.003  2.3833 -1.4934  1.5826
   29MOL0     H 3851   4.202   5.293   8.177  1.2767 -1.3634 -0.4478
   29MOL0     H 3852   4.028   5.457   8.204  0.4899  1.1307 -1.1063
   29MOL0     H 3853   4.049   5.513   8.034 -0.3545  0.2523 -0.4266
   29MOL0     H 3854   3.862   5.382   8.056  2.0450  3.3051  0.3844
   29MOL0     H 3855   3.984   5.276   7.963  0.8780  1.3846  0.4411
   29MOL0     H 3856   4.013   5.136   8.152  1.1873  0.4874 -2.6826
   29MOL0     H 3857   3.922   5.235   8.269  0.2650  2.2129 -1.6028
   29MOL0     H 3858   3.724   5.211   8.105  1.0663  0.2527  0.5110
   29MOL0     H 3859   3.815   5.079   8.030 -0.9197  0.4899 -0.5700
   29MOL0     H 3860   3.847   4.969   8.257  1.7805  1.4019  1.1250
   29MOL0     H 3861   3.730   5.070   8.333  0.1024 -1.6740  0.6121
   29MOL0     H 3862   3.558   5.011   8.159 -0.4776  0.7764  2.4392
   29MOL0     H 3863   3.676   4.897   8.094  0.0732  2.8687  0.0570
   29MOL0     H 3864   3.556   4.874   8.364 -0.6298 -0.5303 -1.1053
   29MOL0     H 3865   3.703   4.787   8.314  1.2720  2.3628  0.2328
   29MOL0     H 3866   3.335   4.853   8.159  0.2395  0.1555  0.0503
   29MOL0     H 3867   3.209   4.638   7.958  0.1412  0.3958 -0.2895
   29MOL0     H 3868   3.190   4.498   8.049  0.4333  0.1071 -3.1412
   29MOL0     H 3869   3.069   4.770   8.124  0.0243 -0.1529 -0.0453
   29MOL0     H 3870   3.064   4.636   8.234  0.1985 -3.3640 -0.9537
   29MOL0     H 3871   2.936   4.504   8.057 -0.5404  0.3140  1.8474
   29MOL0     H 3872   2.956   4.658   7.958 -0.0983  1.2242 -0.3080
   29MOL0     H 3873   2.843   4.788   8.124  1.2868  0.3670 -0.7876
   29MOL0     H 3874   2.806   4.654   8.219  1.1187  0.6301 -0.4267
   29MOL0     H 3875   2.492   4.627   7.882  1.4600 -0.6756  2.1179
   29MOL0     H 3876   2.169   4.666   7.912 -0.5967  1.7293  0.5186
   29MOL0     H 3877   2.200   4.819   7.829  1.6734  0.1086  0.0866
   29MOL0     H 3878   2.288   4.679   7.786  0.2272 -1.1822  0.9487
   29MOL0     H 3879   1.898   4.825   7.917 -1.4783 -0.8585 -0.8264
   29MOL0     H 3880   1.668   4.874   7.970  0.6840 -4.2125  0.6639
   29MOL0     H 3881   1.566   5.118   7.994 -0.5737 -4.0468 -2.8807
   29MOL0     H 3882   1.426   5.028   8.030 -3.0745  1.2460  1.0459
   29MOL0     H 3883   1.371   5.160   8.223 -0.2485  1.5403  0.6223
   29MOL0     H 3884   1.501   5.270   8.200 -2.2251 -0.6887  3.0202
   29MOL0     H 3885   1.295   5.337   8.154 -1.6448 -2.9242  1.8632
   29MOL0     H 3886   1.259   5.220   8.033 -1.2910  0.0277  2.6702
   29MOL0     H 3887   1.480   5.431   7.997 -0.4375 -0.1490  0.5305
   29MOL0     H 3888   1.424   5.315   7.865 -2.8688 -1.2628 -0.5688
   29MOL0     H 3889   1.217   5.444   7.877 -1.4863  0.2259  1.3443
   29MOL0     H 3890   1.356   5.550   7.853 -1.1476  3.1475  1.5856
   29MOL0     H 3891   1.209   5.526   8.116  0.4137  0.5819  0.8129
   29MOL0     H 3892   1.367   5.589   8.089  0.0603 -0.5581 -1.5104
   29MOL0     H 3893   1.095   5.677   7.960  0.1279 -0.8035  0.5591
   29MOL0     H 3894   1.242   5.746   7.904  0.7131 -1.9151 -0.1080
   29MOL0     H 3895   1.148   5.726   8.201 -0.2653  1.6866  1.7762
   29MOL0     H 3896   1.112   5.869   8.098  0.8310  1.6330  0.5889
   29MOL0     H 3897   1.777   5.047   8.345  2.1128 -0.4950  1.4064
   29MOL0     H 3898   2.006   4.952   8.313 -1.0929 -0.0727  0.2900
   29MOL0     H 3899   2.444   4.977   8.230 -4.0131  0.6761  0.0273
   29MOL0     H 3900   2.653   4.870   8.201  0.8183 -0.3691 -0.1029
   29MOL0     H 3901   4.494   5.560   7.973 -1.4939  0.5044  1.6606
   29MOL0     H 3902   4.706   5.460   7.931 -0.0696  0.8569  0.1299
   29MOL0     H 3903   4.962   4.906   8.172 -0.4309  1.4056 -0.2583
   29MOL0     H 3904   5.189   4.832   8.164 -0.3869 -0.6140  0.0254
   29MOL0     H 3905   5.410   4.841   8.212 -0.4684 -0.0338  0.2668
   29MOL0     H 3906   5.405   4.809   8.032 -2.8700  0.9460  0.0457
   29MOL0     H 3907   5.634   4.766   8.080 -1.4677  0.2788 -1.8554
   29MOL0     H 3908   5.647   4.882   8.205  0.2876 -0.9769 -0.3293
   29MOL0     H 3909   5.778   4.961   8.043 -0.1603  1.9685 -0.0738
   29MOL0     H 3910   5.622   5.068   8.055  0.1464 -0.1521 -0.0763
   29MOL0     H 3911   5.538   4.931   7.865 -1.7730  1.2250  4.0790
   29MOL0     H 3912   5.697   4.854   7.848 -1.5773 -0.1246 -1.9762
   29MOL0     H 3913   5.758   5.237   7.667 -0.9444 -2.1122 -2.8714
   29MOL0     H 3914   5.307   5.233   8.024 -1.6380  2.5818 -1.4324
   29MOL0     H 3915   5.061   5.287   8.004 -4.1520 -1.0928 -0.2482
   30MOL0     O 3916  10.307  10.746   7.761  0.3238  0.0487  0.6390
   30MOL0     C 3917  10.390  10.679   7.830 -0.5243 -0.4022  0.0632
   30MOL0     O 3918  10.371  10.627   7.959 -0.2782 -0.5680 -0.1355
   30MOL0     C 3919  10.252  10.657   8.013  0.7678 -0.0116  0.1130
   30MOL0     C 3920  10.143  10.576   7.998 -0.3011  0.4889  0.1418
   30MOL0     C 3921  10.018  10.592   8.065 -0.3126  0.5458  0.1730
   30MOL0     C 3922  10.003  10.697   8.154  1.4036 -0.2292 -0.2514
   30MOL0     O 3923   9.886  10.694   8.233 -0.0120 -0.1702  0.3990
   30MOL0     C 3924   9.902  10.706   8.373  0.1631 -0.0598 -0.1726
   30MOL0     C 3925   9.770  10.675   8.437 -0.6750 -0.2906  0.3742
   30MOL0     C 3926   9.687  10.801   8.472  0.0467  1.0032  0.4068
   30MOL0     C 3927   9.570  10.767   8.557 -0.5098 -0.5359  0.7865
   30MOL0     C 3928   9.467  10.872   8.558  0.2122  0.2736  0.1939
   30MOL0     C 3929   9.357  10.833   8.664  0.5614 -0.3740 -0.3189
   30MOL0     C 3930   9.250  10.926   8.648  0.3739 -0.2192  0.0037
   30MOL0     C 3931   9.144  10.906   8.752 -0.6192  0.3661  0.0463
   30MOL0     N 3932   9.046  11.006   8.740  0.8764  0.2031  0.2492
   30MOL0     C 3933   9.060  11.134   8.788  0.3903  0.2123  0.0605
   30MOL0     C 3934   8.938  11.186   8.805  0.0421  0.9495 -0.2556
   30MOL0     C 3935   8.918  11.323   8.873 -0.3036 -0.3605 -0.1790
   30MOL0     C 3936   8.936  11.316   9.025 -0.3029  0.3439  1.2789
   30MOL0     C 3937   9.012  11.441   9.073  0.4945 -0.0094  0.1961
   30MOL0     C 3938   8.945  11.576   9.065 -1.2596 -0.0659 -0.5953
   30MOL0     O 3939   8.945  11.630   8.932  0.3152 -0.1426 -0.2939
   30MOL0     C 3940   8.840  11.707   8.891  0.5842 -0.2208  0.1102
   30MOL0     C 3941   8.820  11.708   8.752  0.3994  0.0659 -0.0173
   30MOL0     C 3942   8.701  11.768   8.692  0.6776  0.2881 -0.5695
   30MOL0     C 3943   8.671  11.727   8.547 -0.1306 -0.3251  0.3981
   30MOL0     C 3944   8.610  11.839   8.779  0.5744 -0.7520  0.1637
   30MOL0     C 3945   8.495  11.916   8.721  0.9296  0.0553 -0.3167
   30MOL0     O 3946   8.394  11.940   8.808  0.1135  0.8229 -0.1020
   30MOL0     C 3947   8.280  12.020   8.775 -0.1471  0.3219  0.6486
   30MOL0     C 3948   8.284  12.133   8.689 -0.4370 -0.0648 -0.3755
   30MOL0     C 3949   8.174  12.218   8.672 -0.3130  0.4082  0.4826
   30MOL0     C 3950   8.054  12.187   8.736 -0.1122  0.3031 -0.2959
   30MOL0     O 3951   7.941  12.271   8.724 -0.1202  0.3410  0.1614
   30MOL0     C 3952   7.818  12.237   8.796 -0.4520  0.7996 -0.6647
   30MOL0     C 3953   7.705  12.341   8.753 -0.2184 -0.0567  0.2179
   30MOL0     C 3954   7.563  12.263   8.734  0.4046 -0.4949  0.2027
   30MOL0     C 3955   7.459  12.353   8.663  1.0722 -0.3192 -0.0560
   30MOL0     C 3956   7.333  12.284   8.619  0.3564 -0.5880 -0.1853
   30MOL0     C 3957   7.240  12.390   8.548 -0.2988  0.2074  0.3926
   30MOL0     C 3958   7.115  12.337   8.484  0.4011  0.0172  0.0851
   30MOL0     C 3959   7.141  12.252   8.363 -0.4250 -0.8022 -0.2792
   30MOL0    Cl 3960   6.974  12.204   8.294 -0.3122 -0.4544  0.0187
   30MOL0     C 3961   8.051  12.075   8.808 -0.0824  0.3923 -0.6531
   30MOL0     C 3962   8.161  11.986   8.827 -0.5173 -0.0707 -0.0008
   30MOL0     O 3963   8.493  11.946   8.601 -0.4881 -0.3934 -0.3809
   30MOL0     C 3964   8.633  11.836   8.918 -1.0388 -0.7091 -0.5323
   30MOL0     C 3965   8.746  11.772   8.969 -0.0072  0.1949 -2.0176
   30MOL0     N 3966   8.845  11.099   8.757 -0.5102  0.6699 -0.1680
   30MOL0     N 3967   8.913  10.997   8.718 -0.2002  0.1709  0.4828
   30MOL0     C 3968  10.116  10.779   8.182 -0.1635  0.2745  0.3444
   30MOL0     C 3969  10.234  10.764   8.107 -0.3993 -0.1262 -0.3999
   30MOL0     C 3970  10.505  10.617   7.753 -0.5232 -1.1958 -0.3659
   30MOL0     C 3971  10.498  10.588   7.620 -0.1572  1.1282 -0.0424
   30MOL0     C 3972  10.614  10.544   7.554 -0.9144  0.1066  0.7170
   30MOL0     C 3973  10.735  10.523   7.621  0.1142  0.1731  0.5428
   30MOL0     O 3974  10.851  10.504   7.551 -0.5170 -0.5109 -0.6575
   30MOL0     C 3975  10.981  10.520   7.606 -0.8791 -1.0049  0.5225
   30MOL0     C 3976  11.081  10.482   7.503  0.2613 -0.3912  0.7632
   30MOL0     C 3977  11.230  10.496   7.550 -0.1093 -0.6023 -1.1807
   30MOL0     C 3978  11.331  10.464   7.434  0.3942  0.6448 -0.9392
   30MOL0     C 3979  11.330  10.551   7.324  0.3360 -0.6729 -0.5536
   30MOL0     C 3980  11.336  10.624   7.225  0.6001  0.0980 -0.0935
   30MOL0     C 3981  10.741  10.535   7.758 -0.0916  0.4878  0.8274
   30MOL0     C 3982  10.626  10.587   7.821 -0.4151  0.3865  0.2190
   30MOL0     H 3983  10.151  10.491   7.932 -3.6624 -2.1280  2.7132
   30MOL0     H 3984   9.934  10.524   8.055  0.0759 -0.1346  1.3037
   30MOL0     H 3985   9.975  10.633   8.409  0.7954  1.5771  2.0846
   30MOL0     H 3986   9.948  10.801   8.401  1.9315 -0.9101  0.0094
   30MOL0     H 3987   9.712  10.602   8.380  0.3164 -0.0265 -1.0266
   30MOL0     H 3988   9.798  10.629   8.533  1.7799 -1.4858 -0.8266
   30MOL0     H 3989   9.749  10.877   8.521 -0.9228  0.1694  3.1491
   30MOL0     H 3990   9.659  10.858   8.383  1.5433  1.8661  0.4601
   30MOL0     H 3991   9.515  10.688   8.505 -0.3907 -0.0638 -0.0780
   30MOL0     H 3992   9.606  10.749   8.658  2.0732  2.6990  0.6175
   30MOL0     H 3993   9.517  10.962   8.595  0.9835 -0.0088 -0.1593
   30MOL0     H 3994   9.433  10.888   8.455 -0.9832  0.1747  0.5529
   30MOL0     H 3995   9.314  10.733   8.653 -1.8971  0.4688  0.7585
   30MOL0     H 3996   9.409  10.837   8.760 -1.7875 -0.6342  1.0487
   30MOL0     H 3997   9.283  11.030   8.660  0.6512 -0.3865  0.7438
   30MOL0     H 3998   9.210  10.916   8.547  3.6476  0.3582 -1.5115
   30MOL0     H 3999   9.196  10.899   8.847  0.0258  0.5831 -0.2822
   30MOL0     H 4000   9.102  10.807   8.732 -3.6657  1.6524 -0.4726
   30MOL0     H 4001   9.157  11.174   8.817 -1.3776  4.1947  1.0627
   30MOL0     H 4002   8.982  11.398   8.827 -1.5924  1.6195  1.0908
   30MOL0     H 4003   8.816  11.355   8.850 -0.2175 -0.8892 -1.3238
   30MOL0     H 4004   8.992  11.229   9.059 -0.6190  0.2996  1.6913
   30MOL0     H 4005   8.838  11.314   9.072 -0.4577  4.7331  1.5492
   30MOL0     H 4006   9.103  11.429   9.013  0.3358 -3.0954  0.4153
   30MOL0     H 4007   9.031  11.422   9.180  1.1115  2.3042  0.5442
   30MOL0     H 4008   9.013  11.644   9.117  0.7090 -2.1392 -0.3336
   30MOL0     H 4009   8.850  11.561   9.117 -0.3378 -0.4375  1.0562
   30MOL0     H 4010   8.901  11.670   8.690  0.5560 -1.5012  1.0744
   30MOL0     H 4011   8.568  11.741   8.517 -0.3629  1.2297  1.7754
   30MOL0     H 4012   8.737  11.798   8.497  0.6872 -0.7876  0.7821
   30MOL0     H 4013   8.701  11.625   8.519  0.5286 -0.5880  1.9319
   30MOL0     H 4014   8.380  12.159   8.646 -0.6794  1.5748  0.0421
   30MOL0     H 4015   8.168  12.294   8.595 -0.1116 -0.9020 -0.8889
   30MOL0     H 4016   7.788  12.134   8.777  0.3132  0.5173 -0.4024
   30MOL0     H 4017   7.845  12.232   8.902  0.7358 -4.7081 -0.9109
   30MOL0     H 4018   7.678  12.402   8.840 -1.1855 -1.5076  0.9784
   30MOL0     H 4019   7.733  12.403   8.667 -0.7129  0.8146  0.6744
   30MOL0     H 4020   7.539  12.221   8.832 -0.7608  1.0945  0.6341
   30MOL0     H 4021   7.583  12.180   8.665  1.6608 -1.6909  1.9343
   30MOL0     H 4022   7.424  12.429   8.735 -1.2198 -1.6788  0.3672
   30MOL0     H 4023   7.508  12.403   8.579 -2.0175  1.4793 -0.9755
   30MOL0     H 4024   7.283  12.243   8.708 -0.3964  0.8094  0.0681
   30MOL0     H 4025   7.366  12.198   8.560  1.1006 -0.6673  0.3299
   30MOL0     H 4026   7.202  12.464   8.620  2.0770  0.3124  1.6470
   30MOL0     H 4027   7.297  12.451   8.477  1.9560  0.2890  2.1752
   30MOL0     H 4028   7.053  12.422   8.454  0.1862 -0.2402 -0.2078
   30MOL0     H 4029   7.055  12.280   8.556  1.7471  0.1963  1.4081
   30MOL0     H 4030   7.193  12.163   8.399 -1.4309 -0.5213  2.0897
   30MOL0     H 4031   7.202  12.312   8.294 -1.5224  1.2678  0.4614
   30MOL0     H 4032   7.962  12.056   8.866  0.2693  1.0474  0.1234
   30MOL0     H 4033   8.165  11.912   8.907  0.1524  0.5034  0.5094
   30MOL0     H 4034   8.567  11.894   8.981 -1.2817  0.1057 -1.5060
   30MOL0     H 4035   8.771  11.759   9.074  0.5933 -1.4122 -2.3239
   30MOL0     H 4036  10.125  10.863   8.251 -1.8532  1.4072 -0.7364
   30MOL0     H 4037  10.317  10.832   8.125 -1.8497  1.1165  2.3429
   30MOL0     H 4038  10.407  10.618   7.569 -1.9794 -2.0343  1.0615
   30MOL0     H 4039  10.626  10.516   7.449  0.8692 -2.5127  1.5246
   30MOL0     H 4040  11.008  10.621   7.639  2.5969 -1.8733  0.8052
   30MOL0     H 4041  10.997  10.464   7.699 -0.6931  2.3098  2.6633
   30MOL0     H 4042  11.060  10.544   7.416 -0.8602  1.0489  2.0082
   30MOL0     H 4043  11.074  10.381   7.463  1.8591  0.5214 -2.0640
   30MOL0     H 4044  11.246  10.435   7.640  1.6834  1.2003 -0.2045
   30MOL0     H 4045  11.236  10.601   7.578 -3.0241 -0.0967 -2.0492
   30MOL0     H 4046  11.323  10.362   7.396  1.5890  0.5221 -0.8980
   30MOL0     H 4047  11.429  10.474   7.482 -1.1298  0.2509  2.5968
   30MOL0     H 4048  11.350  10.685   7.138  2.3725 -1.7906 -1.2050
   30MOL0     H 4049  10.829  10.529   7.822 -0.4203 -0.0118  1.2418
   30MOL0     H 4050  10.631  10.604   7.928 -3.7360 -1.0014  0.7207
   31MOL0     O 4051   9.934   6.563  11.089  0.1459 -0.4425  0.0936
   31MOL0     C 4052  10.006   6.568  10.985 -0.2441 -0.4506  0.3305
   31MOL0     O 4053   9.959   6.545  10.862 -0.1825  0.4900 -0.0290
   31MOL0     C 4054   9.829   6.541  10.847  0.6932  0.9273  0.2961
   31MOL0     C 4055   9.749   6.653  10.865  0.1814  0.9516 -0.6092
   31MOL0     C 4056   9.613   6.648  10.847 -0.4989 -0.5169 -0.7069
   31MOL0     C 4057   9.554   6.534  10.793  0.4761  0.3292 -0.0317
   31MOL0     O 4058   9.418   6.519  10.773  0.6884 -0.0914  1.2158
   31MOL0     C 4059   9.336   6.623  10.834  0.3863 -0.8812 -0.6633
   31MOL0     C 4060   9.198   6.580  10.820  0.5200  0.3167  0.1358
   31MOL0     C 4061   9.098   6.683  10.885 -0.4589  0.0819  0.4437
   31MOL0     C 4062   8.974   6.605  10.931  0.8887  0.4382  0.5477
   31MOL0     C 4063   8.880   6.691  11.009  0.5856 -0.5089 -0.1780
   31MOL0     C 4064   8.843   6.830  10.935  0.0423  0.1260 -0.2558
   31MOL0     C 4065   8.787   6.802  10.791 -0.1568 -0.9353  1.0722
   31MOL0     C 4066   8.639   6.772  10.766  0.3636  0.4813 -0.1523
   31MOL0     N 4067   8.547   6.870  10.828  0.7773  0.1987 -0.0804
   31MOL0     C 4068   8.536   7.003  10.799 -0.2304  0.2015 -0.0319
   31MOL0     C 4069   8.431   7.051  10.861  0.6549  0.8014  0.1517
   31MOL0     C 4070   8.378   7.189  10.845  0.4783 -0.2982 -0.4085
   31MOL0     C 4071   8.229   7.203  10.877  0.0190  0.0354  0.1673
   31MOL0     C 4072   8.134   7.115  10.788 -0.7209 -0.0253  1.0496
   31MOL0     C 4073   8.002   7.110  10.859 -0.2413 -0.7301 -0.6536
   31MOL0     O 4074   7.958   7.243  10.896 -0.1880 -0.0554 -0.3212
   31MOL0     C 4075   7.829   7.256  10.936  0.1274 -0.1309 -0.3492
   31MOL0     C 4076   7.748   7.146  10.969 -0.0646 -0.0796  0.4046
   31MOL0     C 4077   7.613   7.163  10.997  0.1971  0.0912  0.2422
   31MOL0     C 4078   7.533   7.034  11.029 -0.2456 -0.1483  0.4624
   31MOL0     C 4079   7.556   7.295  11.006 -0.3115  0.0116  0.7685
   31MOL0     C 4080   7.414   7.326  11.032  0.3725  0.3211 -0.1110
   31MOL0     O 4081   7.368   7.454  10.993 -0.9276  0.0772  0.0342
   31MOL0     C 4082   7.236   7.474  10.974  0.8050  0.2699 -0.1640
   31MOL0     C 4083   7.195   7.605  10.961 -0.2485 -0.5933  0.2491
   31MOL0     C 4084   7.065   7.639  10.943  1.2741 -0.2684  0.6379
   31MOL0     C 4085   6.970   7.538  10.929 -0.4546 -0.2926  0.7261
   31MOL0     O 4086   6.838   7.577  10.885 -0.2947  0.3037  0.5805
   31MOL0     C 4087   6.723   7.516  10.953 -0.0851 -0.2642  0.8137
   31MOL0     C 4088   6.585   7.586  10.924 -0.1260 -0.1677  0.0562
   31MOL0     C 4089   6.586   7.747  10.935 -0.6437  0.4857  0.3220
   31MOL0     C 4090   6.446   7.792  10.916 -0.9810  0.5032 -0.6176
   31MOL0     C 4091   6.447   7.939  10.894  0.7289  0.4363 -0.1809
   31MOL0     C 4092   6.308   7.983  10.874  0.3035  0.5505 -0.0273
   31MOL0     C 4093   6.310   8.120  10.807  0.2664 -0.8226 -0.5384
   31MOL0     C 4094   6.174   8.190  10.798 -0.1637  0.1604  1.0275
   31MOL0    Cl 4095   6.077   8.125  10.675 -0.0247  0.0671 -0.4405
   31MOL0     C 4096   7.006   7.399  10.936  0.0183  0.8679 -0.4825
   31MOL0     C 4097   7.139   7.372  10.959  0.8100 -0.3335  0.0280
   31MOL0     O 4098   7.350   7.252  11.105  0.1074 -0.1842 -0.1609
   31MOL0     C 4099   7.644   7.410  10.962 -0.0661  0.8574 -0.2631
   31MOL0     C 4100   7.776   7.380  10.932  0.8215 -0.2318 -0.0716
   31MOL0     N 4101   8.377   6.944  10.937 -0.0766 -0.3262 -0.2927
   31MOL0     N 4102   8.445   6.837  10.902  0.1325 -0.2670  0.0309
   31MOL0     C 4103   9.629   6.417  10.780 -0.7007  0.2295  0.1053
   31MOL0     C 4104   9.765   6.425  10.793  0.0803  0.7638 -0.1751
   31MOL0     C 4105  10.144   6.586  11.001 -0.9080 -0.8272  0.4506
   31MOL0     C 4106  10.236   6.568  10.897  0.2705 -0.7736 -0.1685
   31MOL0     C 4107  10.371   6.599  10.923 -0.5904 -0.1621  0.4653
   31MOL0     C 4108  10.420   6.639  11.041  0.0307  0.2332 -0.2887
   31MOL0     O 4109  10.549   6.681  11.060 -0.0883  0.1009  0.1605
   31MOL0     C 4110  10.617   6.623  11.169  0.0398  0.0916 -0.4282
   31MOL0     C 4111  10.767   6.651  11.169  0.4197  0.3299  0.6030
   31MOL0     C 4112  10.831   6.597  11.036 -0.8527  0.3011 -0.1580
   31MOL0     C 4113  10.990   6.597  11.053 -0.2990 -0.0538 -0.6327
   31MOL0     C 4114  11.070   6.602  10.932  0.7292  0.4384  0.3465
   31MOL0     C 4115  11.129   6.623  10.828 -0.3567  0.3952 -0.6242
   31MOL0     C 4116  10.329   6.660  11.143 -0.0671 -0.7273 -0.0862
   31MOL0     C 4117  10.191   6.630  11.124  0.1439  0.2248 -0.6195
   31MOL0     H 4118   9.797   6.742  10.905 -0.8273  0.4853  1.8381
   31MOL0     H 4119   9.572   6.739  10.890  0.0892 -1.1187  1.2270
   31MOL0     H 4120   9.372   6.629  10.937 -2.3755  0.9938  0.3185
   31MOL0     H 4121   9.335   6.723  10.791 -1.6286 -0.2296  0.7467
   31MOL0     H 4122   9.183   6.576  10.712 -3.1431 -4.0256  0.5417
   31MOL0     H 4123   9.192   6.479  10.860  0.3790 -0.1117 -0.9380
   31MOL0     H 4124   9.140   6.730  10.975  0.6054 -2.0554  1.1422
   31MOL0     H 4125   9.071   6.753  10.806  2.5117 -0.1948 -0.9434
   31MOL0     H 4126   8.921   6.565  10.844 -1.4427  1.1435  1.5844
   31MOL0     H 4127   8.998   6.519  10.993 -0.8716 -0.5083 -0.0204
   31MOL0     H 4128   8.781   6.649  11.030 -0.7811  2.9566  1.0952
   31MOL0     H 4129   8.938   6.712  11.099  1.1705  0.1064 -0.6885
   31MOL0     H 4130   8.766   6.886  10.989 -0.2046  0.3139 -0.7880
   31MOL0     H 4131   8.933   6.892  10.929 -0.1056  0.2803 -1.0733
   31MOL0     H 4132   8.805   6.892  10.732  0.4133 -2.5484 -1.3755
   31MOL0     H 4133   8.841   6.723  10.737  1.8295  3.4392 -4.2877
   31MOL0     H 4134   8.621   6.674  10.811  0.5837  0.6885  0.4038
   31MOL0     H 4135   8.622   6.760  10.659 -0.0196  1.9236 -0.2728
   31MOL0     H 4136   8.600   7.054  10.728 -1.9573 -0.1692 -1.9588
   31MOL0     H 4137   8.433   7.252  10.916  1.3717  1.1180 -2.2652
   31MOL0     H 4138   8.393   7.217  10.740 -2.3682 -0.4547 -0.9491
   31MOL0     H 4139   8.196   7.307  10.874  0.3195  0.1356  0.2958
   31MOL0     H 4140   8.222   7.167  10.980  2.6258  0.2299  0.4828
   31MOL0     H 4141   8.170   7.012  10.784  0.1168  0.1158  3.3997
   31MOL0     H 4142   8.124   7.154  10.686  0.6272  0.3806  1.0547
   31MOL0     H 4143   8.010   7.056  10.953 -1.1988 -1.4686 -0.9787
   31MOL0     H 4144   7.930   7.046  10.808 -1.0720 -1.4491  1.3496
   31MOL0     H 4145   7.777   7.043  10.951 -0.7537  0.2036 -3.1394
   31MOL0     H 4146   7.506   7.039  11.134  0.7135  1.6407  0.6635
   31MOL0     H 4147   7.447   7.038  10.962  2.2717 -1.7563 -3.2491
   31MOL0     H 4148   7.589   6.943  11.006 -0.0996  0.7161 -3.4131
   31MOL0     H 4149   7.272   7.682  10.962  1.4712 -2.2613  1.1352
   31MOL0     H 4150   7.031   7.741  10.933  2.6243  0.3617  1.9748
   31MOL0     H 4151   6.706   7.413  10.922  1.1790  0.0871 -1.3080
   31MOL0     H 4152   6.739   7.515  11.061 -1.3512  0.6610  1.0290
   31MOL0     H 4153   6.538   7.558  10.829  0.2323  1.4896 -0.6482
   31MOL0     H 4154   6.511   7.562  11.001 -1.3085  0.4702 -0.8583
   31MOL0     H 4155   6.654   7.795  10.864 -0.7159  0.9663  0.5737
   31MOL0     H 4156   6.627   7.772  11.033 -2.7570  1.1300  1.0929
   31MOL0     H 4157   6.410   7.742  10.826  0.9909 -0.9357 -0.6756
   31MOL0     H 4158   6.383   7.746  10.993 -1.8603  1.3599 -0.8115
   31MOL0     H 4159   6.506   7.970  10.807  0.3387  1.9438  0.0623
   31MOL0     H 4160   6.498   7.985  10.979  3.4385 -0.3721 -1.2496
   31MOL0     H 4161   6.260   7.913  10.806  3.6105 -0.6542 -1.3382
   31MOL0     H 4162   6.257   7.987  10.971 -0.8965  0.4261 -0.6355
   31MOL0     H 4163   6.344   8.108  10.704 -1.0074  1.8589 -1.3512
   31MOL0     H 4164   6.379   8.190  10.853 -1.7191  0.5215  0.5516
   31MOL0     H 4165   6.205   8.292  10.771  0.7813 -0.3928 -0.0400
   31MOL0     H 4166   6.113   8.187  10.889 -5.4823  1.3039 -2.0757
   31MOL0     H 4167   6.928   7.326  10.918 -0.4398  0.8135  1.5581
   31MOL0     H 4168   7.164   7.267  10.967 -1.3811 -1.0816 -1.8570
   31MOL0     H 4169   7.624   7.516  10.964  1.4254  1.1517  1.3106
   31MOL0     H 4170   7.843   7.459  10.898  1.2238  0.3934  2.0151
   31MOL0     H 4171   9.581   6.322  10.760 -1.7462  1.3052 -3.3501
   31MOL0     H 4172   9.835   6.343  10.774  0.4286  0.8899  0.4985
   31MOL0     H 4173  10.216   6.522  10.801 -0.7885 -0.7620  0.0421
   31MOL0     H 4174  10.450   6.591  10.849  2.8145  0.2501  3.7451
   31MOL0     H 4175  10.569   6.663  11.258 -0.8317 -0.7019 -0.5291
   31MOL0     H 4176  10.615   6.514  11.172  1.2323  0.0647  2.2649
   31MOL0     H 4177  10.810   6.586  11.245 -0.8370 -0.8542  0.3450
   31MOL0     H 4178  10.788   6.757  11.187  0.8583  0.0024  2.1373
   31MOL0     H 4179  10.804   6.661  10.952 -0.3088 -0.8707 -1.2541
   31MOL0     H 4180  10.797   6.495  11.012  1.4875 -0.8918  1.1806
   31MOL0     H 4181  11.013   6.510  11.115  2.2158  1.9862  1.5288
   31MOL0     H 4182  11.018   6.685  11.111  1.5682 -0.9156 -0.1596
   31MOL0     H 4183  11.179   6.629  10.734 -1.1991 -1.6967 -1.2734
   31MOL0     H 4184  10.347   6.705  11.240 -1.2694 -0.5202  0.0560
   31MOL0     H 4185  10.125   6.654  11.206 -3.4180 -1.6326 -2.7195
   32MOL0     O 4186   6.364   5.494   9.117 -0.0371  0.4472  0.1924
   32MOL0     C 4187   6.366   5.604   9.064  0.5508  0.1191  0.5140
   32MOL0     O 4188   6.256   5.669   9.011 -0.8222  0.0337 -0.6172
   32MOL0     C 4189   6.131   5.617   9.037 -0.5594 -0.1280  0.2821
   32MOL0     C 4190   6.037   5.711   9.075 -0.0715 -0.4138  0.7259
   32MOL0     C 4191   5.905   5.681   9.098  0.0825  0.6858 -0.1757
   32MOL0     C 4192   5.860   5.553   9.066 -0.9078  0.3716 -0.6754
   32MOL0     O 4193   5.730   5.524   9.064 -0.5241  0.7668  0.2440
   32MOL0     C 4194   5.628   5.623   9.079  0.2465  0.2779  0.1279
   32MOL0     C 4195   5.501   5.548   9.097  0.6956  0.1329 -0.2146
   32MOL0     C 4196   5.407   5.652   9.159 -0.3677 -0.2793  0.2080
   32MOL0     C 4197   5.268   5.594   9.172 -1.2639 -0.0423  0.3524
   32MOL0     C 4198   5.172   5.708   9.195 -0.1078 -0.3387 -0.2359
   32MOL0     C 4199   5.032   5.658   9.220  0.5656  0.3338 -0.0223
   32MOL0     C 4200   4.922   5.760   9.198 -0.1958  0.0353 -0.2005
   32MOL0     C 4201   4.785   5.699   9.163  0.3536 -0.0121 -0.4529
   32MOL0     N 4202   4.734   5.602   9.266  0.2033  0.0957 -0.0230
   32MOL0     C 4203   4.746   5.607   9.400  0.1200 -0.2472  0.1305
   32MOL0     C 4204   4.706   5.489   9.452 -1.1467 -0.1671  0.7362
   32MOL0     C 4205   4.685   5.449   9.597 -0.1120  0.6257 -0.5155
   32MOL0     C 4206   4.538   5.446   9.650 -0.3739  0.0740 -0.4935
   32MOL0     C 4207   4.455   5.580   9.642  0.0024  0.2188  0.7344
   32MOL0     C 4208   4.528   5.708   9.700  0.3854  0.1566  0.3018
   32MOL0     O 4209   4.447   5.817   9.664 -0.1552  0.0193  0.2583
   32MOL0     C 4210   4.311   5.823   9.704 -0.4056 -1.1032 -0.4402
   32MOL0     C 4211   4.265   5.770   9.830  0.6063  0.5753 -0.0807
   32MOL0     C 4212   4.132   5.791   9.868 -1.1670  0.0550  1.0806
   32MOL0     C 4213   4.087   5.727  10.005  0.4440 -0.2581 -0.0666
   32MOL0     C 4214   4.042   5.876   9.796  0.1654  0.5375 -0.1040
   32MOL0     C 4215   3.903   5.895   9.826 -0.5077 -0.3461 -0.1793
   32MOL0     O 4216   3.848   5.807   9.913 -0.3969 -0.6053  0.0319
   32MOL0     C 4217   3.720   5.841   9.964 -0.6614  0.2144 -0.2683
   32MOL0     C 4218   3.626   5.743   9.990  0.9758  0.0091 -0.5308
   32MOL0     C 4219   3.501   5.760  10.055 -0.1140 -0.0009  0.5651
   32MOL0     C 4220   3.464   5.885  10.103  0.5394  0.7286  1.0039
   32MOL0     O 4221   3.350   5.923  10.167 -0.9455 -0.0125  0.3175
   32MOL0     C 4222   3.228   5.865  10.121  0.7654 -0.4261 -0.1923
   32MOL0     C 4223   3.167   5.787  10.241 -0.0792 -0.4369  0.2664
   32MOL0     C 4224   3.030   5.730  10.182  0.3175 -0.5214  0.8171
   32MOL0     C 4225   2.918   5.817  10.241 -0.1879  0.0459 -0.3622
   32MOL0     C 4226   2.787   5.755  10.185  0.1342 -1.1064 -0.2842
   32MOL0     C 4227   2.662   5.833  10.225  0.6916 -0.0814  0.0434
   32MOL0     C 4228   2.526   5.768  10.170  0.5959  0.4085  0.2939
   32MOL0     C 4229   2.412   5.871  10.168 -0.6335  0.4121  0.4139
   32MOL0    Cl 4230   2.353   5.891  10.341 -0.2896  0.2725 -0.0341
   32MOL0     C 4231   3.568   5.980  10.078 -0.8214 -0.3496 -0.4473
   32MOL0     C 4232   3.687   5.965  10.014  0.0593  0.3595 -1.1482
   32MOL0     O 4233   3.849   5.994   9.781 -0.1846  0.5905 -0.3502
   32MOL0     C 4234   4.090   5.927   9.674  0.7628  1.7258 -0.2560
   32MOL0     C 4235   4.226   5.898   9.625  0.7054 -0.2342 -0.0344
   32MOL0     N 4236   4.665   5.406   9.348  1.1786 -0.0095  0.6170
   32MOL0     N 4237   4.683   5.477   9.242 -0.0007  0.2054  0.3065
   32MOL0     C 4238   5.948   5.455   9.033 -0.0613  0.2123 -0.0387
   32MOL0     C 4239   6.084   5.489   9.012 -0.6100  0.9112 -0.6108
   32MOL0     C 4240   6.486   5.673   9.027 -0.2069 -0.2561  0.2081
   32MOL0     C 4241   6.610   5.613   9.039  0.0676  0.7229 -0.5592
   32MOL0     C 4242   6.732   5.671   8.999  0.4001  0.0331  1.0201
   32MOL0     C 4243   6.727   5.797   8.948  0.2081  0.1071  0.2167
   32MOL0     O 4244   6.851   5.846   8.913 -0.2555  0.2000  0.3928
   32MOL0     C 4245   6.852   5.986   8.870  0.0518 -0.3545  0.0896
   32MOL0     C 4246   7.004   6.014   8.834 -0.1150 -0.3957 -0.0248
   32MOL0     C 4247   7.041   6.162   8.833  0.8479 -0.3979  0.6886
   32MOL0     C 4248   7.013   6.238   8.692 -1.2781  0.4550 -0.5527
   32MOL0     C 4249   6.875   6.219   8.653 -0.9647  0.1674 -0.7936
   32MOL0     C 4250   6.761   6.216   8.630 -0.2597  0.2764 -0.0246
   32MOL0     C 4251   6.607   5.863   8.943 -0.4014 -0.2512 -0.5760
   32MOL0     C 4252   6.487   5.806   8.985 -0.2641 -0.0648  0.3645
   32MOL0     H 4253   6.073   5.812   9.092 -2.8013  0.6333  0.7843
   32MOL0     H 4254   5.829   5.746   9.140 -1.8828 -0.6240 -1.5471
   32MOL0     H 4255   5.648   5.683   9.169 -0.4262  0.1806  0.3424
   32MOL0     H 4256   5.624   5.685   8.989 -1.8123 -1.5078 -1.1017
   32MOL0     H 4257   5.468   5.509   9.000  2.7985  1.0846 -1.3867
   32MOL0     H 4258   5.511   5.464   9.166 -0.9356  0.4802  0.4935
   32MOL0     H 4259   5.451   5.690   9.251  3.1134 -1.9217 -0.5900
   32MOL0     H 4260   5.394   5.740   9.096  4.0571 -0.8930 -2.0226
   32MOL0     H 4261   5.248   5.553   9.072  2.1231  0.4934 -0.6723
   32MOL0     H 4262   5.260   5.512   9.245  0.8907 -0.5430  0.0750
   32MOL0     H 4263   5.204   5.765   9.283 -0.6765  1.1772 -0.9554
   32MOL0     H 4264   5.166   5.768   9.104  1.2245  1.5615  0.8619
   32MOL0     H 4265   5.007   5.567   9.164 -4.0307 -1.4764  4.3118
   32MOL0     H 4266   5.017   5.623   9.322  1.1474 -0.6403 -0.2524
   32MOL0     H 4267   4.915   5.825   9.286  2.0245 -0.0323  0.0908
   32MOL0     H 4268   4.956   5.821   9.113 -1.2093 -0.5536 -1.0461
   32MOL0     H 4269   4.788   5.646   9.067 -2.9838 -1.8017  0.2382
   32MOL0     H 4270   4.713   5.780   9.149 -0.4152 -0.1569  2.0393
   32MOL0     H 4271   4.776   5.694   9.457 -3.4214 -1.1745  3.8739
   32MOL0     H 4272   4.723   5.346   9.602 -1.0313  0.3043  0.1922
   32MOL0     H 4273   4.750   5.505   9.666  2.3358  0.8943 -2.8930
   32MOL0     H 4274   4.548   5.413   9.754  4.3564 -0.3566 -0.8510
   32MOL0     H 4275   4.489   5.367   9.592  1.5121 -2.9085  1.6836
   32MOL0     H 4276   4.364   5.551   9.694 -0.6875  0.0448 -0.5178
   32MOL0     H 4277   4.434   5.600   9.536  0.7102  2.7172  1.0033
   32MOL0     H 4278   4.626   5.721   9.652 -0.2433 -0.2188 -1.1411
   32MOL0     H 4279   4.547   5.704   9.808  0.9632  0.2305  0.2083
   32MOL0     H 4280   4.327   5.710   9.896 -0.9980  0.9564  1.8767
   32MOL0     H 4281   3.995   5.668  10.004 -0.5523  1.1811 -2.4551
   32MOL0     H 4282   4.166   5.670  10.057 -0.8415 -1.3839  0.7134
   32MOL0     H 4283   4.071   5.820  10.059 -1.6951 -0.2773 -0.6100
   32MOL0     H 4284   3.637   5.641   9.954  0.4061  0.5746 -2.4245
   32MOL0     H 4285   3.439   5.675  10.082 -0.2399  0.5922  2.2418
   32MOL0     H 4286   3.165   5.947  10.085  0.5529 -0.0830  0.9216
   32MOL0     H 4287   3.245   5.790  10.043  4.5114 -0.3764  0.3941
   32MOL0     H 4288   3.234   5.704  10.267  0.9397  0.2928  0.0505
   32MOL0     H 4289   3.163   5.859  10.323  0.8714  1.0091 -0.8952
   32MOL0     H 4290   3.016   5.631  10.228  1.1598 -0.5846  0.9506
   32MOL0     H 4291   3.033   5.732  10.073  0.3275  0.7218  0.8283
   32MOL0     H 4292   2.916   5.809  10.350  0.2328  1.0462 -0.2658
   32MOL0     H 4293   2.938   5.922  10.218 -0.3512  0.0812 -0.3437
   32MOL0     H 4294   2.778   5.653  10.222 -1.6308 -0.2056  2.0421
   32MOL0     H 4295   2.803   5.750  10.077  2.5006 -2.2718  0.0532
   32MOL0     H 4296   2.647   5.835  10.334  2.3075  1.3282  0.2763
   32MOL0     H 4297   2.677   5.938  10.198  1.0668 -0.0097  0.5250
   32MOL0     H 4298   2.493   5.674  10.215  0.2185 -0.4213 -1.6451
   32MOL0     H 4299   2.544   5.741  10.066  0.4153 -1.4437  0.7167
   32MOL0     H 4300   2.331   5.843  10.100  0.1766  4.1230 -2.4106
   32MOL0     H 4301   2.449   5.967  10.129 -0.0758  2.4898  5.3010
   32MOL0     H 4302   3.545   6.081  10.110  0.3339  0.0269 -0.7622
   32MOL0     H 4303   3.757   6.046   9.998 -0.0619  0.6581 -0.1937
   32MOL0     H 4304   4.023   5.984   9.611 -0.1334  1.3856  0.3715
   32MOL0     H 4305   4.261   5.929   9.527 -0.7048 -3.1050 -1.5782
   32MOL0     H 4306   5.915   5.352   9.018  2.4704 -0.7560  0.5117
   32MOL0     H 4307   6.151   5.409   8.981 -2.5895 -2.1685  2.3407
   32MOL0     H 4308   6.610   5.515   9.084 -0.7643  0.1279 -1.7944
   32MOL0     H 4309   6.824   5.615   9.011  0.3805  0.3943  3.5201
   32MOL0     H 4310   6.786   6.008   8.785  0.5540  2.2079  0.2859
   32MOL0     H 4311   6.823   6.040   8.960  0.3344 -0.5771  0.3157
   32MOL0     H 4312   7.015   5.973   8.733  0.4453 -1.3804  0.4228
   32MOL0     H 4313   7.067   5.953   8.900  0.2076  0.2336  0.2505
   32MOL0     H 4314   7.148   6.167   8.858  0.2146  0.3132  3.5786
   32MOL0     H 4315   6.993   6.221   8.911 -0.7525  0.6010 -0.9685
   32MOL0     H 4316   7.084   6.199   8.618  0.7518  1.6393  0.6794
   32MOL0     H 4317   7.040   6.343   8.703  2.9117 -0.4281 -0.7305
   32MOL0     H 4318   6.657   6.213   8.603 -0.3579 -0.6342  0.4347
   32MOL0     H 4319   6.597   5.963   8.903  3.2396  0.0314 -1.0584
   32MOL0     H 4320   6.400   5.871   8.989  0.5306  1.0599 -0.1537
   33MOL0     O 4321   8.086  10.798   7.500  0.0684  0.2038 -0.1580
   33MOL0     C 4322   8.018  10.869   7.576 -0.3770 -0.4450 -1.1927
   33MOL0     O 4323   7.977  10.835   7.705  0.3981  0.3773  0.4658
   33MOL0     C 4324   8.020  10.718   7.756  0.0285  0.1845 -0.0205
   33MOL0     C 4325   7.995  10.593   7.691 -1.5485  0.0715  0.3608
   33MOL0     C 4326   8.049  10.473   7.747 -0.3858  0.7197  0.2080
   33MOL0     C 4327   8.122  10.476   7.858  0.1995  0.2880  0.6690
   33MOL0     O 4328   8.177  10.369   7.921  0.3320  0.0251  0.5103
   33MOL0     C 4329   8.147  10.240   7.864 -0.3883  0.6545 -0.0115
   33MOL0     C 4330   8.234  10.136   7.920  0.2182 -0.1823  0.2718
   33MOL0     C 4331   8.177  10.076   8.048  0.6776 -0.8137  0.5755
   33MOL0     C 4332   8.286  10.016   8.129 -0.3039  0.6440 -0.1684
   33MOL0     C 4333   8.241   9.996   8.270  0.0607 -0.9316  0.4202
   33MOL0     C 4334   8.365   9.983   8.353 -0.2267 -0.0511 -0.5937
   33MOL0     C 4335   8.323   9.962   8.496 -0.5979  0.3733  0.3524
   33MOL0     C 4336   8.443   9.971   8.592 -0.1138 -0.2157 -0.5148
   33MOL0     N 4337   8.399   9.948   8.731 -0.1720  0.4305 -0.0576
   33MOL0     C 4338   8.295  10.012   8.808  0.1048  0.0266  0.0979
   33MOL0     C 4339   8.301   9.956   8.928 -0.5442  0.0305 -0.3674
   33MOL0     C 4340   8.201   9.986   9.038  0.1530 -0.3590  0.0044
   33MOL0     C 4341   8.078   9.887   9.042 -0.3797 -0.7714 -0.1942
   33MOL0     C 4342   8.108   9.733   9.032 -0.8561  0.4669  0.1933
   33MOL0     C 4343   8.167   9.693   9.167 -0.0726 -0.5689  0.2299
   33MOL0     O 4344   8.127   9.562   9.212  0.2679 -0.2116 -0.4540
   33MOL0     C 4345   7.996   9.539   9.245  0.0258 -0.1507 -0.0109
   33MOL0     C 4346   7.898   9.639   9.264  0.5672  0.3627  0.5674
   33MOL0     C 4347   7.767   9.601   9.296 -0.4121 -0.8242  0.5405
   33MOL0     C 4348   7.674   9.716   9.318  0.0167 -0.4379  0.1576
   33MOL0     C 4349   7.738   9.461   9.322  1.1771 -0.2231  0.9758
   33MOL0     C 4350   7.604   9.407   9.373 -0.0405 -0.3276 -0.2199
   33MOL0     O 4351   7.554   9.302   9.307 -0.6720  0.6384  0.1015
   33MOL0     C 4352   7.440   9.244   9.355 -0.4759  0.3304 -0.7760
   33MOL0     C 4353   7.460   9.115   9.406  0.3910 -0.2926 -0.0069
   33MOL0     C 4354   7.344   9.041   9.452 -0.2867 -0.5943  0.0469
   33MOL0     C 4355   7.213   9.092   9.440 -0.5044  0.2154  0.4604
   33MOL0     O 4356   7.108   9.013   9.472  0.5723  0.3324  0.5215
   33MOL0     C 4357   6.975   9.050   9.416  0.3093 -0.2162  0.6382
   33MOL0     C 4358   6.862   8.955   9.451 -0.9612 -0.5995  0.8650
   33MOL0     C 4359   6.730   9.030   9.495 -0.0307 -0.5570 -0.0391
   33MOL0     C 4360   6.753   9.116   9.619  0.0608  0.5441 -0.3868
   33MOL0     C 4361   6.633   9.197   9.671  0.0449 -0.0094 -0.4280
   33MOL0     C 4362   6.512   9.108   9.715 -0.3400  0.2446 -1.8374
   33MOL0     C 4363   6.385   9.188   9.741  1.0347  0.4169 -0.2817
   33MOL0     C 4364   6.273   9.078   9.758  0.0634  0.5324  0.0286
   33MOL0    Cl 4365   6.220   9.047   9.590  0.0170  0.3456  0.5944
   33MOL0     C 4366   7.204   9.223   9.382 -0.1378  0.0299 -0.5645
   33MOL0     C 4367   7.312   9.304   9.353 -0.3214  0.2983  0.0645
   33MOL0     O 4368   7.543   9.474   9.458 -0.9173 -0.2010  0.2056
   33MOL0     C 4369   7.843   9.365   9.309  0.0876 -0.0069  0.3279
   33MOL0     C 4370   7.965   9.407   9.266 -0.8572  0.0747  0.0882
   33MOL0     N 4371   8.406   9.876   8.933  0.1984 -0.5816 -0.3022
   33MOL0     N 4372   8.460   9.867   8.814 -0.2358 -0.5760 -0.3833
   33MOL0     C 4373   8.142  10.596   7.922  0.5135  0.1955 -0.1344
   33MOL0     C 4374   8.088  10.719   7.871  0.0492  0.3818  0.2132
   33MOL0     C 4375   7.959  10.990   7.517 -0.5542  0.4308  0.4058
   33MOL0     C 4376   8.023  11.055   7.408 -0.4687 -0.1721 -0.8781
   33MOL0     C 4377   7.971  11.168   7.355 -0.5145  0.1001 -0.0289
   33MOL0     C 4378   7.851  11.215   7.403 -0.2206 -0.1705  0.9568
   33MOL0     O 4379   7.802  11.336   7.357 -0.1740 -0.0584 -0.0083
   33MOL0     C 4380   7.856  11.398   7.240 -0.0971  0.0877  0.0070
   33MOL0     C 4381   7.773  11.525   7.212 -0.2604  0.4997 -0.1465
   33MOL0     C 4382   7.634  11.494   7.154 -0.1756  0.5518  0.3842
   33MOL0     C 4383   7.584  11.610   7.066 -0.0458  0.1812 -0.6884
   33MOL0     C 4384   7.679  11.646   6.967  0.2974 -0.2438 -0.2073
   33MOL0     C 4385   7.757  11.682   6.879  0.0413  0.7581  0.2873
   33MOL0     C 4386   7.784  11.148   7.501 -0.1810 -0.3752 -0.2531
   33MOL0     C 4387   7.840  11.040   7.567  0.7843  0.8315 -0.1143
   33MOL0     H 4388   7.935  10.584   7.601 -0.4689  0.2077 -0.3942
   33MOL0     H 4389   8.039  10.376   7.699  2.9619  1.9062 -3.3809
   33MOL0     H 4390   8.042  10.219   7.884  0.0624 -2.2480 -0.1578
   33MOL0     H 4391   8.170  10.234   7.758 -2.1523 -4.8265 -0.4165
   33MOL0     H 4392   8.244  10.051   7.852  0.4208 -1.0499  1.3699
   33MOL0     H 4393   8.330  10.188   7.930 -1.2075  3.2541 -2.0283
   33MOL0     H 4394   8.120  10.151   8.103 -0.4951 -1.0341 -0.3102
   33MOL0     H 4395   8.110   9.991   8.031  1.4165 -1.8292  2.4770
   33MOL0     H 4396   8.324   9.920   8.093  0.0557  0.8392 -0.3137
   33MOL0     H 4397   8.371  10.085   8.126 -0.9328  1.5544  1.6589
   33MOL0     H 4398   8.189  10.089   8.295 -0.2567  0.0360 -3.2436
   33MOL0     H 4399   8.170   9.913   8.275  1.1757 -1.8534  1.7956
   33MOL0     H 4400   8.424   9.900   8.312  1.5835  0.5513  0.6915
   33MOL0     H 4401   8.428  10.072   8.342 -0.1790  0.0044  0.1028
   33MOL0     H 4402   8.248  10.040   8.516 -1.9694 -0.5190 -1.0534
   33MOL0     H 4403   8.273   9.867   8.514  0.2042 -0.0373  0.4284
   33MOL0     H 4404   8.492  10.068   8.596 -0.8252  0.1364 -0.1774
   33MOL0     H 4405   8.522   9.901   8.562  1.5985  1.4769 -0.1483
   33MOL0     H 4406   8.217  10.075   8.768 -0.0221 -0.6412 -0.7256
   33MOL0     H 4407   8.249   9.979   9.136 -1.2083 -0.6183  0.6751
   33MOL0     H 4408   8.177  10.092   9.025 -1.0197 -0.5314  0.6149
   33MOL0     H 4409   8.024   9.903   8.948 -0.1298 -0.3390 -0.2677
   33MOL0     H 4410   8.008   9.917   9.120  0.2371 -2.6109  1.1438
   33MOL0     H 4411   8.170   9.712   8.944 -1.5839 -0.3646 -0.1261
   33MOL0     H 4412   8.009   9.691   9.015 -0.3548  0.1312 -2.2608
   33MOL0     H 4413   8.141   9.767   9.242  0.2283  1.5103 -1.6129
   33MOL0     H 4414   8.276   9.695   9.155 -0.1378  3.3767 -1.2125
   33MOL0     H 4415   7.921   9.745   9.253 -1.2834  0.5019 -4.1809
   33MOL0     H 4416   7.573   9.679   9.339  1.4869 -4.0385  1.6906
   33MOL0     H 4417   7.692   9.777   9.407 -2.2077  2.0572 -0.9771
   33MOL0     H 4418   7.683   9.791   9.239 -0.3362 -1.2905 -0.7126
   33MOL0     H 4419   7.561   9.079   9.419  0.2005 -0.2334  1.8737
   33MOL0     H 4420   7.362   8.938   9.480 -2.2262 -1.5956 -2.0299
   33MOL0     H 4421   6.946   9.151   9.447  1.5008  0.5316 -0.6101
   33MOL0     H 4422   6.975   9.040   9.307  0.4942 -3.0503  0.8257
   33MOL0     H 4423   6.837   8.894   9.363 -0.1884  1.1855 -0.6525
   33MOL0     H 4424   6.900   8.894   9.534  2.6489  0.2673  0.0333
   33MOL0     H 4425   6.639   8.970   9.498 -0.3769 -0.0340  2.6008
   33MOL0     H 4426   6.707   9.107   9.421  0.1907 -2.0423 -1.7178
   33MOL0     H 4427   6.780   9.057   9.707 -0.2317 -0.2266 -0.8005
   33MOL0     H 4428   6.840   9.183   9.620  0.0997  0.7977  4.4517
   33MOL0     H 4429   6.586   9.268   9.602 -2.6702  0.1985  1.4794
   33MOL0     H 4430   6.665   9.259   9.756 -0.6326 -0.9205  0.5268
   33MOL0     H 4431   6.481   9.041   9.634 -1.4834  1.6142 -2.5866
   33MOL0     H 4432   6.524   9.049   9.806 -2.5834  2.7113  0.2167
   33MOL0     H 4433   6.357   9.253   9.658  3.1888 -0.5859 -1.8966
   33MOL0     H 4434   6.403   9.252   9.828  0.2693  0.4608 -0.1512
   33MOL0     H 4435   6.187   9.121   9.810 -0.3608  0.8420 -0.8973
   33MOL0     H 4436   6.296   8.985   9.810  1.1991  1.4140  1.1533
   33MOL0     H 4437   7.102   9.255   9.363 -0.3011  0.3091  0.7142
   33MOL0     H 4438   7.297   9.395   9.296  1.0925 -0.0190 -0.8473
   33MOL0     H 4439   7.832   9.266   9.351 -0.6493  0.7151  1.9031
   33MOL0     H 4440   8.041   9.331   9.256  0.2845  1.3715 -1.5159
   33MOL0     H 4441   8.195  10.611   8.016 -2.1411 -2.3586  2.0034
   33MOL0     H 4442   8.092  10.804   7.938 -1.3502  0.9268 -0.3627
   33MOL0     H 4443   8.112  11.027   7.353  0.6728 -1.4955  1.5210
   33MOL0     H 4444   8.034  11.220   7.284 -0.4529  3.3071  2.1397
   33MOL0     H 4445   7.955  11.436   7.265  1.4730 -1.7204 -3.0049
   33MOL0     H 4446   7.856  11.332   7.153 -1.5343  0.8378 -0.6056
   33MOL0     H 4447   7.829  11.590   7.143 -0.5098  1.4410  0.5124
   33MOL0     H 4448   7.766  11.583   7.305 -0.5555  0.2500 -0.0147
   33MOL0     H 4449   7.560  11.483   7.234  1.6598 -0.4884  2.0265
   33MOL0     H 4450   7.633  11.397   7.104  1.2144 -1.0677  3.2104
   33MOL0     H 4451   7.561  11.699   7.126 -0.9979 -1.3207  1.3075
   33MOL0     H 4452   7.487  11.595   7.018  0.4763 -2.4957 -1.0768
   33MOL0     H 4453   7.816  11.726   6.801 -1.3348  0.3384 -1.0448
   33MOL0     H 4454   7.685  11.179   7.532 -0.5880 -1.5843 -0.2906
   33MOL0     H 4455   7.785  10.997   7.651  0.6996  1.7781  0.3211
   34MOL0     O 4456   5.604   3.511  10.096  0.2098  0.9858  0.7007
   34MOL0     C 4457   5.657   3.446  10.189 -0.0892  0.4897  0.6778
   34MOL0     O 4458   5.594   3.360  10.269 -1.0327 -0.4114 -0.7050
   34MOL0     C 4459   5.458   3.327  10.261 -0.2827  0.4623  0.8607
   34MOL0     C 4460   5.419   3.241  10.358 -0.2061  0.1497  0.3302
   34MOL0     C 4461   5.290   3.197  10.365 -0.5726  0.3901 -0.3703
   34MOL0     C 4462   5.185   3.251  10.287 -0.1480 -0.2252 -0.2113
   34MOL0     O 4463   5.058   3.212  10.291  0.4530  0.3860 -0.0104
   34MOL0     C 4464   5.005   3.188  10.422 -0.5563 -0.1440 -0.3547
   34MOL0     C 4465   4.881   3.276  10.437  0.7423  0.0995  0.0034
   34MOL0     C 4466   4.786   3.242  10.332  0.9249  0.1363  0.2263
   34MOL0     C 4467   4.648   3.278  10.381  0.2953  0.1536  0.1673
   34MOL0     C 4468   4.541   3.261  10.268  0.0374 -0.0876  0.3338
   34MOL0     C 4469   4.403   3.224  10.319  0.5326  0.2428 -0.1322
   34MOL0     C 4470   4.323   3.308  10.420  0.1038 -0.0066  0.4036
   34MOL0     C 4471   4.195   3.235  10.465 -0.7488  0.1982 -1.1431
   34MOL0     N 4472   4.096   3.220  10.358 -0.2574 -0.1328  0.7610
   34MOL0     C 4473   3.982   3.284  10.360 -0.1030 -0.7076  0.3104
   34MOL0     C 4474   3.915   3.250  10.249  0.0899  0.5859  0.4205
   34MOL0     C 4475   3.784   3.309  10.198 -0.5123  0.0832 -0.1430
   34MOL0     C 4476   3.667   3.231  10.263 -0.6378 -1.2665  0.5817
   34MOL0     C 4477   3.524   3.265  10.202 -0.3592  0.5358  0.2566
   34MOL0     C 4478   3.474   3.401  10.227  0.1909 -0.1189  0.4072
   34MOL0     O 4479   3.378   3.436  10.128 -0.0492 -0.1167 -0.9120
   34MOL0     C 4480   3.254   3.463  10.182 -0.2778  1.1043 -0.6154
   34MOL0     C 4481   3.188   3.392  10.280  0.8100  0.4271 -0.3771
   34MOL0     C 4482   3.062   3.432  10.336  0.7015  0.5720 -0.5915
   34MOL0     C 4483   3.003   3.339  10.446 -0.1299 -0.8060  0.0317
   34MOL0     C 4484   3.002   3.544  10.274 -0.3067 -0.2227 -0.0769
   34MOL0     C 4485   2.864   3.598  10.316  0.3816  0.3210 -0.3839
   34MOL0     O 4486   2.806   3.538  10.425 -0.1474 -0.1772 -0.6592
   34MOL0     C 4487   2.668   3.538  10.432  0.0052 -0.4989 -1.1868
   34MOL0     C 4488   2.574   3.540  10.329  0.2787  0.1389 -0.9015
   34MOL0     C 4489   2.433   3.551  10.342 -0.1261 -0.1398  0.3070
   34MOL0     C 4490   2.382   3.553  10.463  0.2747  0.3555 -0.4670
   34MOL0     O 4491   2.254   3.544  10.501 -0.3516  0.2549  0.4054
   34MOL0     C 4492   2.149   3.542  10.403  0.9737 -0.0706  0.6092
   34MOL0     C 4493   2.023   3.534  10.495 -0.5687 -0.1791 -0.3308
   34MOL0     C 4494   1.904   3.500  10.411 -0.1449 -0.1637  0.0127
   34MOL0     C 4495   1.786   3.500  10.509  1.2851 -0.0484  0.2396
   34MOL0     C 4496   1.660   3.504  10.423 -0.6797 -0.1974 -0.3248
   34MOL0     C 4497   1.537   3.541  10.514 -0.6152  1.0648 -0.4186
   34MOL0     C 4498   1.408   3.561  10.431 -0.3774  0.3195  0.4060
   34MOL0     C 4499   1.290   3.568  10.521  0.2606  0.3781 -0.0096
   34MOL0    Cl 4500   1.158   3.643  10.453  0.1652 -0.0562  0.1224
   34MOL0     C 4501   2.462   3.545  10.576  0.0269 -0.8331 -0.2822
   34MOL0     C 4502   2.604   3.536  10.561 -0.6652  0.3132 -0.0771
   34MOL0     O 4503   2.813   3.687  10.253  0.0166 -0.8002 -0.0814
   34MOL0     C 4504   3.079   3.618  10.188  0.6303  0.0631 -0.1355
   34MOL0     C 4505   3.197   3.573  10.136  0.8407 -0.7281  0.0851
   34MOL0     N 4506   3.989   3.150  10.178  0.1609 -0.3932  0.2239
   34MOL0     N 4507   4.101   3.136  10.247 -0.1994  0.9346 -0.1776
   34MOL0     C 4508   5.225   3.335  10.184 -0.7284 -0.0939 -0.0619
   34MOL0     C 4509   5.362   3.371  10.167  0.3351  0.0273  0.8793
   34MOL0     C 4510   5.802   3.467  10.222  0.0763  0.4984 -0.1937
   34MOL0     C 4511   5.873   3.386  10.307 -0.3947  0.0690  0.3133
   34MOL0     C 4512   6.014   3.389  10.330 -0.0464  0.1152 -0.4099
   34MOL0     C 4513   6.082   3.494  10.268 -0.3421  0.6580 -0.7458
   34MOL0     O 4514   6.216   3.515  10.271 -0.7650 -0.0183 -0.4233
   34MOL0     C 4515   6.313   3.427  10.335 -0.0844 -0.4186 -0.4980
   34MOL0     C 4516   6.449   3.495  10.357  1.0055 -0.1504 -0.1417
   34MOL0     C 4517   6.498   3.529  10.217 -0.3272  0.3786  0.6399
   34MOL0     C 4518   6.618   3.629  10.211 -0.1104  0.3097  0.0058
   34MOL0     C 4519   6.734   3.600  10.295 -0.8581 -0.0477  0.6402
   34MOL0     C 4520   6.821   3.572  10.379  0.2504 -0.1906  0.7325
   34MOL0     C 4521   6.008   3.579  10.189  0.4880 -0.2651  0.8699
   34MOL0     C 4522   5.871   3.565  10.156  0.6696  0.7793  0.3864
   34MOL0     H 4523   5.493   3.194  10.422  2.0110 -2.5315 -3.7509
   34MOL0     H 4524   5.267   3.114  10.432  1.8838 -0.6279 -0.7000
   34MOL0     H 4525   4.984   3.086  10.452  1.9304 -0.2757  1.2472
   34MOL0     H 4526   5.067   3.245  10.491  0.0563 -0.6519 -0.4762
   34MOL0     H 4527   4.845   3.250  10.537  3.1514 -0.4329  0.8134
   34MOL0     H 4528   4.907   3.382  10.439  1.7043 -0.1323  0.1847
   34MOL0     H 4529   4.811   3.294  10.238  0.4783  4.2236  2.1283
   34MOL0     H 4530   4.785   3.134  10.319 -2.0264  0.1270 -0.2055
   34MOL0     H 4531   4.624   3.199  10.453 -0.6629 -0.8543 -1.2168
   34MOL0     H 4532   4.629   3.372  10.433  0.0995  0.0870  0.2188
   34MOL0     H 4533   4.546   3.353  10.210  1.0493 -1.2585 -1.5241
   34MOL0     H 4534   4.575   3.181  10.202 -0.6369 -0.6041  0.6004
   34MOL0     H 4535   4.338   3.208  10.232  0.0108  0.3431  0.2329
   34MOL0     H 4536   4.407   3.120  10.353 -1.1545  0.3306  0.4533
   34MOL0     H 4537   4.377   3.328  10.513 -1.3581  0.5854  1.1611
   34MOL0     H 4538   4.294   3.399  10.368 -2.6571 -1.3379 -0.6175
   34MOL0     H 4539   4.145   3.306  10.531  1.5066  0.6554  0.2177
   34MOL0     H 4540   4.223   3.148  10.525  1.6500  1.1004 -0.8386
   34MOL0     H 4541   3.960   3.360  10.434  2.3994  0.7625 -0.3439
   34MOL0     H 4542   3.780   3.414  10.228 -1.2794  0.0910 -0.2632
   34MOL0     H 4543   3.787   3.317  10.089  1.7798  2.4203  0.0128
   34MOL0     H 4544   3.673   3.254  10.370 -0.7054 -0.5329  0.4357
   34MOL0     H 4545   3.686   3.124  10.249  1.2592 -0.8755 -0.1305
   34MOL0     H 4546   3.456   3.189  10.240 -4.4627  3.4495 -0.5493
   34MOL0     H 4547   3.527   3.250  10.094 -0.4946  0.0009  0.3241
   34MOL0     H 4548   3.547   3.483  10.233 -0.1613  0.8911 -4.7805
   34MOL0     H 4549   3.427   3.402  10.326 -0.9522  2.1110 -0.0841
   34MOL0     H 4550   3.239   3.299  10.303 -1.3862 -0.9218 -0.6705
   34MOL0     H 4551   2.900   3.310  10.426 -1.0869  1.8239  0.8107
   34MOL0     H 4552   3.065   3.252  10.470  1.7484 -0.2323 -2.3114
   34MOL0     H 4553   2.998   3.406  10.532  0.6047  0.2406 -0.7141
   34MOL0     H 4554   2.602   3.530  10.225  1.6932 -1.5760 -0.4102
   34MOL0     H 4555   2.373   3.551  10.252 -0.8371 -5.0788  0.5281
   34MOL0     H 4556   2.148   3.629  10.337  3.4056 -1.8244 -1.9799
   34MOL0     H 4557   2.150   3.456  10.336 -0.5056  0.4037 -0.0540
   34MOL0     H 4558   2.045   3.449  10.561 -0.5834  0.6602  0.7673
   34MOL0     H 4559   2.015   3.630  10.545 -2.4681 -2.3816  4.1009
   34MOL0     H 4560   1.901   3.402  10.363 -1.5641  0.3447 -1.0227
   34MOL0     H 4561   1.890   3.579  10.336 -0.6543 -0.6637 -0.4350
   34MOL0     H 4562   1.786   3.418  10.581 -0.0440  2.0037  2.7364
   34MOL0     H 4563   1.784   3.588  10.573 -1.9641  0.4166 -0.3233
   34MOL0     H 4564   1.650   3.405  10.378 -1.3446 -0.3351  0.1065
   34MOL0     H 4565   1.678   3.579  10.345 -3.2240  1.6683  0.7215
   34MOL0     H 4566   1.515   3.456  10.580 -0.0354 -0.5132 -2.1772
   34MOL0     H 4567   1.555   3.635  10.567 -1.7326  2.5389 -2.5292
   34MOL0     H 4568   1.411   3.480  10.358  4.8496 -0.5469  1.1454
   34MOL0     H 4569   1.434   3.648  10.369  0.3404 -0.5402 -0.5277
   34MOL0     H 4570   1.314   3.610  10.619  0.3867 -0.8620  0.5126
   34MOL0     H 4571   1.257   3.467  10.547 -3.8419  1.5461  0.0632
   34MOL0     H 4572   2.419   3.537  10.675 -2.9434 -3.8236 -1.5997
   34MOL0     H 4573   2.680   3.546  10.637 -0.0004  1.2168 -0.8522
   34MOL0     H 4574   3.037   3.712  10.154 -1.1609 -1.3851 -2.2392
   34MOL0     H 4575   3.247   3.636  10.064  2.4493 -3.1418 -1.0170
   34MOL0     H 4576   5.155   3.373  10.110 -1.3011 -3.2966 -1.3402
   34MOL0     H 4577   5.387   3.436  10.083 -0.8055 -0.3452  0.2197
   34MOL0     H 4578   5.827   3.302  10.357 -1.7991 -0.2248 -1.3890
   34MOL0     H 4579   6.061   3.316  10.395 -0.5433  1.1447  1.1521
   34MOL0     H 4580   6.280   3.386  10.431  2.4065  0.2671  0.7463
   34MOL0     H 4581   6.331   3.339  10.273 -1.0862 -2.2623  1.6765
   34MOL0     H 4582   6.515   3.427  10.410 -1.0224 -1.5744  0.6824
   34MOL0     H 4583   6.436   3.580  10.425  1.6320 -1.0832  1.1765
   34MOL0     H 4584   6.420   3.567  10.151 -0.9220 -2.5170 -0.4937
   34MOL0     H 4585   6.542   3.442  10.168  3.2526  1.6144  1.3824
   34MOL0     H 4586   6.573   3.720  10.253 -3.9785 -0.6205 -1.6526
   34MOL0     H 4587   6.661   3.642  10.111  1.6259 -2.4013  0.3194
   34MOL0     H 4588   6.888   3.552  10.460  0.1595  1.3755  1.2222
   34MOL0     H 4589   6.070   3.662  10.155  0.4291  0.0805  1.5991
   34MOL0     H 4590   5.833   3.643  10.091  2.7069  0.6968 -0.9932
   35MOL0     O 4591   0.969   7.353   8.099 -0.1147  0.1046 -0.0411
   35MOL0     C 4592   1.008   7.427   8.008  0.4408 -0.2663 -0.0904
   35MOL0     O 4593   0.926   7.499   7.929 -0.0913  0.2813  0.1346
   35MOL0     C 4594   0.797   7.510   7.974 -0.0916 -0.1194 -0.8734
   35MOL0     C 4595   0.692   7.453   7.893 -1.2043 -0.3072  0.1091
   35MOL0     C 4596   0.555   7.473   7.925 -0.1173  0.1210  0.2762
   35MOL0     C 4597   0.520   7.546   8.036  0.3426  0.1093  0.8833
   35MOL0     O 4598   0.380   7.550   8.077  0.0596 -0.0963 -0.2056
   35MOL0     C 4599   0.340   7.608   8.198 -0.2432 -0.0760 -0.1709
   35MOL0     C 4600   0.192   7.576   8.213  0.3525  0.9919 -0.1061
   35MOL0     C 4601   0.105   7.612   8.085  0.2116  0.2159 -0.3839
   35MOL0     C 4602  -0.044   7.591   8.117  0.8432  0.1209 -0.1723
   35MOL0     C 4603  -0.129   7.614   7.998 -0.1999 -0.4393  0.3193
   35MOL0     C 4604  -0.100   7.516   7.883 -1.1858  0.7164  0.2732
   35MOL0     C 4605  -0.192   7.559   7.766 -0.6803  0.5690  0.3308
   35MOL0     C 4606  -0.162   7.470   7.639 -0.5453 -0.0425  0.1024
   35MOL0     N 4607  -0.147   7.556   7.519  1.3419  0.4545 -0.2984
   35MOL0     C 4608  -0.053   7.648   7.498  0.7051 -0.5572  0.6951
   35MOL0     C 4609  -0.092   7.708   7.379 -0.7711 -0.3818  0.4201
   35MOL0     C 4610  -0.035   7.839   7.331  0.2366 -0.1287  0.0952
   35MOL0     C 4611   0.118   7.851   7.362  0.3959  0.0520  0.6327
   35MOL0     C 4612   0.182   7.936   7.255  0.9844  0.2515 -0.8232
   35MOL0     C 4613   0.330   7.942   7.265  0.0309 -0.4026 -0.4766
   35MOL0     O 4614   0.385   7.839   7.194  0.2096  0.3846 -0.2493
   35MOL0     C 4615   0.524   7.839   7.183  0.3877 -0.0289  0.1120
   35MOL0     C 4616   0.611   7.930   7.244 -0.2339  0.5188  0.2058
   35MOL0     C 4617   0.749   7.924   7.216 -0.0293  0.3297 -0.7277
   35MOL0     C 4618   0.830   8.034   7.279 -0.3429 -0.2482 -0.7046
   35MOL0     C 4619   0.805   7.818   7.144 -0.4211  0.5389 -0.2373
   35MOL0     C 4620   0.949   7.802   7.112 -0.5660  0.2876  0.0584
   35MOL0     O 4621   0.988   7.723   7.006  0.5140 -0.1158  0.3686
   35MOL0     C 4622   1.112   7.715   6.989  0.2210  1.0090  0.1250
   35MOL0     C 4623   1.182   7.800   6.904 -0.5285  0.0642 -0.9349
   35MOL0     C 4624   1.320   7.785   6.903  0.2163 -0.0534  0.1621
   35MOL0     C 4625   1.391   7.698   6.979  0.0592 -0.6165  0.3615
   35MOL0     O 4626   1.529   7.713   6.972  0.0685 -0.3356  0.5000
   35MOL0     C 4627   1.603   7.661   7.083 -0.6178  0.5322  0.9312
   35MOL0     C 4628   1.753   7.688   7.059 -0.1384  0.6110  0.3304
   35MOL0     C 4629   1.783   7.830   7.096 -0.4544 -0.2054  0.0289
   35MOL0     C 4630   1.934   7.850   7.124 -0.3779 -0.2916 -0.4008
   35MOL0     C 4631   1.979   7.989   7.080 -0.4738  0.0897 -1.1274
   35MOL0     C 4632   1.924   8.111   7.161 -0.4345  0.8965 -0.3623
   35MOL0     C 4633   2.005   8.236   7.128  0.2118  0.1644  1.4693
   35MOL0     C 4634   2.085   8.287   7.254 -0.2474 -0.3349 -1.2594
   35MOL0    Cl 4635   1.966   8.338   7.380 -0.1302  0.1881  0.1208
   35MOL0     C 4636   1.322   7.614   7.065 -0.2974  0.1911  0.1678
   35MOL0     C 4637   1.185   7.623   7.069 -0.2448 -0.2745 -0.3428
   35MOL0     O 4638   1.031   7.866   7.183 -0.3592 -0.2231 -0.3805
   35MOL0     C 4639   0.721   7.734   7.079  1.1916 -0.0917  0.3192
   35MOL0     C 4640   0.579   7.741   7.098 -0.2892 -0.5877  0.6241
   35MOL0     N 4641  -0.199   7.637   7.327  0.2735 -0.4438  0.4351
   35MOL0     N 4642  -0.235   7.544   7.413 -0.4116 -0.5757 -0.6924
   35MOL0     C 4643   0.619   7.599   8.121 -0.0892  0.4106  0.0394
   35MOL0     C 4644   0.757   7.584   8.085 -0.0585  0.6245 -0.1451
   35MOL0     C 4645   1.153   7.421   7.988  0.1889 -0.9228  0.6898
   35MOL0     C 4646   1.246   7.336   8.054 -0.5836 -0.2561  0.4188
   35MOL0     C 4647   1.382   7.340   8.017  0.3182  0.4753 -0.8516
   35MOL0     C 4648   1.431   7.438   7.935  0.6838 -0.1983  0.0798
   35MOL0     O 4649   1.569   7.411   7.905  0.8326 -0.2020  0.0478
   35MOL0     C 4650   1.633   7.509   7.819  0.6370 -0.8137 -0.4493
   35MOL0     C 4651   1.677   7.631   7.899 -0.3807  0.9114  0.7438
   35MOL0     C 4652   1.732   7.596   8.035 -0.0406  0.0712 -0.7312
   35MOL0     C 4653   1.876   7.554   8.016 -0.2242 -0.3236  0.4193
   35MOL0     C 4654   1.902   7.425   7.952 -0.1796  0.0048  0.3124
   35MOL0     C 4655   1.950   7.325   7.907  0.8166 -0.4017  1.4707
   35MOL0     C 4656   1.336   7.527   7.872 -0.5318 -0.5530 -0.3479
   35MOL0     C 4657   1.201   7.518   7.899  0.7290 -0.3269  0.3402
   35MOL0     H 4658   0.710   7.407   7.796 -0.0016  0.0686  0.1300
   35MOL0     H 4659   0.468   7.432   7.875 -1.1461  1.9685  0.4728
   35MOL0     H 4660   0.384   7.557   8.285 -3.4161 -0.2500  1.4902
   35MOL0     H 4661   0.349   7.717   8.207 -3.8284  0.5003 -1.7954
   35MOL0     H 4662   0.184   7.468   8.228 -0.8580  0.6781 -2.4693
   35MOL0     H 4663   0.147   7.619   8.303  0.3736 -1.6565  1.2684
   35MOL0     H 4664   0.127   7.715   8.057 -2.1331  0.3510 -2.0588
   35MOL0     H 4665   0.143   7.560   7.996 -2.3782 -0.3763 -1.2252
   35MOL0     H 4666  -0.044   7.488   8.155  1.4282  1.0505  2.6033
   35MOL0     H 4667  -0.072   7.660   8.198 -0.0219  1.5767 -1.6646
   35MOL0     H 4668  -0.235   7.602   8.023 -0.3411 -3.1555 -1.1850
   35MOL0     H 4669  -0.115   7.715   7.958 -1.0637 -1.5720 -3.2091
   35MOL0     H 4670   0.002   7.533   7.848 -1.5055  2.0768 -0.0627
   35MOL0     H 4671  -0.114   7.409   7.900 -1.3071  0.7501  0.3835
   35MOL0     H 4672  -0.295   7.538   7.797 -1.6870  0.5158 -2.7106
   35MOL0     H 4673  -0.179   7.662   7.735 -3.0012  0.4173 -1.3981
   35MOL0     H 4674  -0.238   7.393   7.625 -0.9753  0.3617  0.2153
   35MOL0     H 4675  -0.066   7.419   7.655  0.0926  1.1325  0.1557
   35MOL0     H 4676   0.011   7.697   7.570 -0.9430 -0.1019  1.9130
   35MOL0     H 4677  -0.047   7.849   7.222  2.0492 -3.2284 -0.5365
   35MOL0     H 4678  -0.084   7.922   7.382 -0.8744  0.0006 -1.1374
   35MOL0     H 4679   0.165   7.752   7.364 -0.3917 -0.3268  2.2414
   35MOL0     H 4680   0.143   7.885   7.463  2.1306  0.4172  0.1147
   35MOL0     H 4681   0.143   8.038   7.252  1.0257  0.2531 -3.4200
   35MOL0     H 4682   0.157   7.897   7.156 -1.6035 -1.3513  0.3472
   35MOL0     H 4683   0.370   7.928   7.366 -0.6455  2.5632  0.3024
   35MOL0     H 4684   0.359   8.034   7.214 -1.7090  1.2886  1.4197
   35MOL0     H 4685   0.566   8.004   7.310 -0.8521  0.8175 -0.5395
   35MOL0     H 4686   0.867   8.003   7.377 -0.4090 -1.5814 -1.0839
   35MOL0     H 4687   0.910   8.076   7.217  2.2974 -1.0498  1.9606
   35MOL0     H 4688   0.760   8.116   7.297  2.6782  1.7899  3.1046
   35MOL0     H 4689   1.132   7.883   6.856  1.9522  1.1597 -1.8122
   35MOL0     H 4690   1.382   7.857   6.851  1.0214 -1.9060 -1.5796
   35MOL0     H 4691   1.580   7.712   7.177  1.3121  0.8169  1.2894
   35MOL0     H 4692   1.593   7.552   7.088  0.7732  0.3121 -0.2765
   35MOL0     H 4693   1.813   7.624   7.123  0.6596 -0.1609 -1.1461
   35MOL0     H 4694   1.778   7.661   6.956 -0.7977 -0.2801  0.3921
   35MOL0     H 4695   1.732   7.853   7.190 -0.8708 -0.6090 -0.0965
   35MOL0     H 4696   1.758   7.897   7.013 -1.4672  0.3265  0.7473
   35MOL0     H 4697   1.951   7.844   7.232  3.0838 -1.5014 -0.8993
   35MOL0     H 4698   1.999   7.780   7.071 -1.6435 -1.2925 -0.6844
   35MOL0     H 4699   1.952   8.005   6.975 -0.8726 -0.7344 -1.1556
   35MOL0     H 4700   2.088   7.982   7.074 -0.6665 -3.3960 -3.6277
   35MOL0     H 4701   1.819   8.132   7.141 -0.1348  2.1538 -0.6930
   35MOL0     H 4702   1.929   8.088   7.268  0.6490 -0.3647 -0.6525
   35MOL0     H 4703   1.940   8.318   7.094  1.5278  0.1846 -1.2655
   35MOL0     H 4704   2.075   8.220   7.045  0.8233 -0.2217  2.0486
   35MOL0     H 4705   2.152   8.369   7.226  0.1234  0.2329  1.0586
   35MOL0     H 4706   2.148   8.208   7.296 -2.0462 -0.8724  0.5942
   35MOL0     H 4707   1.386   7.553   7.128  1.2819  0.3899 -1.1703
   35MOL0     H 4708   1.129   7.565   7.141  1.2026  1.0140  1.9293
   35MOL0     H 4709   0.754   7.666   7.001 -0.8684 -1.1930  0.3290
   35MOL0     H 4710   0.506   7.684   7.042  1.8371 -0.8781 -2.0962
   35MOL0     H 4711   0.596   7.653   8.212  2.2105  0.5680  0.5928
   35MOL0     H 4712   0.831   7.621   8.156 -0.4739 -0.6851  1.0207
   35MOL0     H 4713   1.220   7.259   8.126  0.0092 -0.3892  0.4952
   35MOL0     H 4714   1.448   7.265   8.059  0.7097  2.5044  2.4924
   35MOL0     H 4715   1.718   7.461   7.771  0.1229 -2.6181  0.3138
   35MOL0     H 4716   1.574   7.533   7.730  1.4450  0.1974 -0.7247
   35MOL0     H 4717   1.596   7.703   7.912 -1.0699  0.2569  0.1949
   35MOL0     H 4718   1.743   7.678   7.826 -1.2572  1.8795  0.5480
   35MOL0     H 4719   1.676   7.512   8.079 -2.7687  2.2817  0.3572
   35MOL0     H 4720   1.708   7.678   8.104  0.1496  0.4425 -1.1060
   35MOL0     H 4721   1.909   7.569   8.119 -0.6400  3.5288  0.1494
   35MOL0     H 4722   1.934   7.627   7.958  2.7346 -3.1061 -0.4040
   35MOL0     H 4723   1.994   7.235   7.869 -1.0147 -1.0165  0.6771
   35MOL0     H 4724   1.359   7.597   7.793 -3.5920 -1.9900 -2.6912
   35MOL0     H 4725   1.134   7.579   7.840 -0.6478 -2.4837 -0.4571
   36MOL0     O 4726   1.195   9.512  10.691 -0.2490  0.1803 -0.0403
   36MOL0     C 4727   1.276   9.595  10.735 -0.3557 -0.1277  1.0749
   36MOL0     O 4728   1.282   9.728  10.707  0.2845  0.3015 -0.4046
   36MOL0     C 4729   1.182   9.776  10.626 -0.4434  0.8240  0.7413
   36MOL0     C 4730   1.066   9.819  10.678  0.3627  0.2632 -0.2869
   36MOL0     C 4731   0.963   9.856  10.596 -0.1362 -1.0688 -0.7331
   36MOL0     C 4732   0.965   9.847  10.455  0.0782  0.1258 -0.3004
   36MOL0     O 4733   0.856   9.888  10.393  0.4028  0.1251 -0.6299
   36MOL0     C 4734   0.811  10.019  10.390 -0.0209  0.3267 -0.0945
   36MOL0     C 4735   0.675  10.024  10.327  0.3408  0.0456  0.3876
   36MOL0     C 4736   0.570   9.956  10.409 -0.7699  0.0902 -0.2152
   36MOL0     C 4737   0.432   9.960  10.338  0.3085  0.6732 -0.3708
   36MOL0     C 4738   0.315   9.878  10.399  0.0979  0.4031  0.0368
   36MOL0     C 4739   0.183   9.914  10.337 -0.6161 -0.4856 -0.1557
   36MOL0     C 4740   0.079   9.804  10.380 -0.1449 -0.8457  0.3253
   36MOL0     C 4741  -0.064   9.853  10.344 -0.8174  0.5154  0.7511
   36MOL0     N 4742  -0.167   9.749  10.371  0.2694  0.6427  0.6240
   36MOL0     C 4743  -0.227   9.713  10.490 -0.3309 -0.3596 -0.2083
   36MOL0     C 4744  -0.307   9.615  10.458  0.5540  0.0146 -0.8231
   36MOL0     C 4745  -0.397   9.545  10.556  0.1249 -0.5433  0.1019
   36MOL0     C 4746  -0.534   9.610  10.564 -0.3593  0.0335  0.3362
   36MOL0     C 4747  -0.628   9.568  10.683  0.6244 -0.0206 -0.2648
   36MOL0     C 4748  -0.669   9.428  10.670  0.6060  1.0742  0.2165
   36MOL0     O 4749  -0.768   9.402  10.773  0.2253  0.1364 -0.6760
   36MOL0     C 4750  -0.790   9.268  10.801 -0.3922 -0.5986  0.5414
   36MOL0     C 4751  -0.757   9.166  10.721 -0.3639 -0.0765  0.1673
   36MOL0     C 4752  -0.802   9.040  10.737 -0.6031  0.4806  0.3098
   36MOL0     C 4753  -0.771   8.939  10.628  0.2494 -0.3378  0.0247
   36MOL0     C 4754  -0.878   9.005  10.853  0.3366 -0.2517 -0.3048
   36MOL0     C 4755  -0.924   8.873  10.888 -0.5469  0.5029 -0.2272
   36MOL0     O 4756  -0.987   8.857  11.003 -0.4558  0.1352 -0.3779
   36MOL0     C 4757  -1.030   8.731  11.036  0.3191 -0.7493 -0.8142
   36MOL0     C 4758  -0.994   8.676  11.160  0.1314  0.2658  0.0082
   36MOL0     C 4759  -1.039   8.554  11.201 -0.0098  0.2123 -0.1864
   36MOL0     C 4760  -1.121   8.476  11.122  0.3354  0.7725  0.0491
   36MOL0     O 4761  -1.165   8.350  11.163  0.0703 -0.1843 -0.1384
   36MOL0     C 4762  -1.279   8.290  11.097  0.3598  0.1280  1.4633
   36MOL0     C 4763  -1.303   8.154  11.161 -0.3233 -0.0290 -0.1560
   36MOL0     C 4764  -1.175   8.067  11.195 -0.4823 -0.7422  0.4738
   36MOL0     C 4765  -1.103   8.021  11.064  0.2429 -0.2725  0.0942
   36MOL0     C 4766  -0.973   7.934  11.087  0.4044 -0.6039  0.4456
   36MOL0     C 4767  -0.846   8.022  11.116 -0.2674  0.1457 -0.2066
   36MOL0     C 4768  -0.730   7.920  11.145  0.1172 -0.0998 -0.1891
   36MOL0     C 4769  -0.684   7.859  11.010 -0.6156  0.1885 -0.7277
   36MOL0    Cl 4770  -0.563   7.736  11.019  0.1469  0.5329 -0.4769
   36MOL0     C 4771  -1.161   8.528  11.004 -0.2009 -0.3538  0.2758
   36MOL0     C 4772  -1.118   8.654  10.961  1.1138  0.3914 -0.1718
   36MOL0     O 4773  -0.878   8.775  10.819  0.3198 -0.8275 -0.2659
   36MOL0     C 4774  -0.896   9.110  10.944 -0.0829  0.2301 -0.7654
   36MOL0     C 4775  -0.852   9.236  10.919 -0.4538 -0.5720 -0.0935
   36MOL0     N 4776  -0.307   9.590  10.317  0.6189  0.6048 -0.7694
   36MOL0     N 4777  -0.223   9.674  10.273  0.6020 -0.0290  0.7746
   36MOL0     C 4778   1.086   9.813  10.395 -0.0982 -0.4748 -0.0174
   36MOL0     C 4779   1.197   9.773  10.484 -0.2757 -0.5763 -0.3035
   36MOL0     C 4780   1.382   9.544  10.821  0.0415 -0.0428 -0.1812
   36MOL0     C 4781   1.401   9.407  10.831 -0.1053 -0.0346  0.6249
   36MOL0     C 4782   1.496   9.350  10.917  1.0997 -0.3728 -0.0448
   36MOL0     C 4783   1.589   9.435  10.986  1.1101  0.1775  0.4538
   36MOL0     O 4784   1.685   9.358  11.055  0.0815  0.2218 -0.3942
   36MOL0     C 4785   1.789   9.435  11.110 -0.4766  0.2656  0.2230
   36MOL0     C 4786   1.886   9.331  11.169  0.5982 -0.3072  0.1995
   36MOL0     C 4787   1.997   9.403  11.247  0.0566  0.0687  0.2366
   36MOL0     C 4788   2.121   9.306  11.251  0.7797 -0.9557  0.0169
   36MOL0     C 4789   2.215   9.345  11.359  0.0686 -0.4278  0.5101
   36MOL0     C 4790   2.307   9.365  11.440 -0.0882  0.3943  0.0381
   36MOL0     C 4791   1.576   9.576  10.978  0.4078 -0.2758  0.6941
   36MOL0     C 4792   1.472   9.626  10.888 -0.9180  0.0956 -0.9472
   36MOL0     H 4793   1.058   9.840  10.784  0.5323  1.2782 -0.4666
   36MOL0     H 4794   0.869   9.878  10.645  1.3850  0.9556  1.4546
   36MOL0     H 4795   0.798  10.063  10.490  0.8604 -0.4523  0.3784
   36MOL0     H 4796   0.883  10.076  10.330  0.9480  0.4755  1.1663
   36MOL0     H 4797   0.653  10.126  10.296 -0.6417 -0.4094 -0.4971
   36MOL0     H 4798   0.687   9.974  10.230 -3.9604  1.3488 -1.0265
   36MOL0     H 4799   0.600   9.851  10.407  3.8353  1.2045 -0.5111
   36MOL0     H 4800   0.561  10.009  10.504  0.6112  0.9179 -0.5240
   36MOL0     H 4801   0.398  10.063  10.326  0.6652  0.8128 -0.2179
   36MOL0     H 4802   0.454   9.907  10.245  1.5029  0.7276 -0.1367
   36MOL0     H 4803   0.331   9.770  10.387  1.0372  0.1991  2.4536
   36MOL0     H 4804   0.309   9.897  10.507 -1.4232 -3.1600  0.7325
   36MOL0     H 4805   0.155  10.012  10.375  1.9815  0.8564 -1.4243
   36MOL0     H 4806   0.193   9.917  10.228  0.3963 -1.6791 -0.1176
   36MOL0     H 4807   0.096   9.712  10.323 -0.7426  0.0036 -1.3023
   36MOL0     H 4808   0.078   9.783  10.487 -0.5883 -0.4321  0.4080
   36MOL0     H 4809  -0.064   9.876  10.237  2.6563 -2.0377  0.0171
   36MOL0     H 4810  -0.084   9.939  10.408 -0.8206  0.4606  0.8233
   36MOL0     H 4811  -0.195   9.746  10.588  3.8073 -2.3644 -0.6213
   36MOL0     H 4812  -0.396   9.438  10.535 -0.6097 -0.1936 -1.9038
   36MOL0     H 4813  -0.350   9.550  10.655 -0.2823 -1.0541  0.3221
   36MOL0     H 4814  -0.590   9.597  10.471 -0.2455  0.1780  0.2467
   36MOL0     H 4815  -0.525   9.716  10.588  0.7136 -0.1142  0.6379
   36MOL0     H 4816  -0.713   9.635  10.668  1.2632  1.8288  3.3107
   36MOL0     H 4817  -0.586   9.583  10.783  2.7780  0.8037 -1.2534
   36MOL0     H 4818  -0.577   9.370  10.674  2.5597  3.6852 -2.6672
   36MOL0     H 4819  -0.717   9.402  10.575  2.1290  0.8818 -0.5268
   36MOL0     H 4820  -0.693   9.175  10.633 -1.1078 -0.1843 -0.3898
   36MOL0     H 4821  -0.736   8.995  10.541 -0.1477 -0.2412 -0.0725
   36MOL0     H 4822  -0.696   8.868  10.663 -0.5380 -0.3172  1.8363
   36MOL0     H 4823  -0.860   8.882  10.599 -0.9113  0.9721  0.9144
   36MOL0     H 4824  -0.928   8.727  11.230 -0.4132  1.1558 -0.1017
   36MOL0     H 4825  -1.007   8.505  11.293  1.1652  0.3751 -0.4890
   36MOL0     H 4826  -1.365   8.358  11.095 -0.8255 -1.3554  0.4290
   36MOL0     H 4827  -1.249   8.271  10.994  1.9426 -2.6780  2.3451
   36MOL0     H 4828  -1.374   8.174  11.242 -1.0976  0.7905 -1.0197
   36MOL0     H 4829  -1.359   8.100  11.084  0.3914  2.3118 -2.4221
   36MOL0     H 4830  -1.217   7.974  11.236 -0.9580  0.4226  2.8366
   36MOL0     H 4831  -1.108   8.120  11.263 -0.6779  0.6543 -0.3837
   36MOL0     H 4832  -1.169   7.967  10.995  2.4561 -1.1764 -1.4554
   36MOL0     H 4833  -1.069   8.109  11.009 -0.0344  0.7426  1.5161
   36MOL0     H 4834  -0.955   7.870  11.001  1.0310 -0.0379  0.1479
   36MOL0     H 4835  -1.004   7.872  11.172  1.4325 -1.2304  0.3693
   36MOL0     H 4836  -0.831   8.084  11.027 -1.3309 -1.9608 -1.9401
   36MOL0     H 4837  -0.866   8.087  11.202  1.1930 -0.4565  0.6167
   36MOL0     H 4838  -0.758   7.840  11.214  2.8732  0.7471  2.1604
   36MOL0     H 4839  -0.649   7.977  11.191  0.1694  0.3979 -0.8889
   36MOL0     H 4840  -0.650   7.944  10.950  0.3010 -0.7116 -1.5172
   36MOL0     H 4841  -0.770   7.825  10.953  0.3330 -0.1217 -2.0108
   36MOL0     H 4842  -1.230   8.479  10.936 -0.4264  0.2729  0.0444
   36MOL0     H 4843  -1.154   8.689  10.865  2.8268  2.5579 -0.1082
   36MOL0     H 4844  -0.933   9.088  11.043  2.0941  1.0728  0.3007
   36MOL0     H 4845  -0.861   9.319  10.989 -1.3541 -1.1467  0.4977
   36MOL0     H 4846   1.098   9.818  10.287  1.5019  2.5644  0.2052
   36MOL0     H 4847   1.295   9.752  10.442  1.1376  1.8091  1.5340
   36MOL0     H 4848   1.345   9.332  10.776 -0.4422  0.8553 -0.2875
   36MOL0     H 4849   1.494   9.241  10.925 -1.1556 -0.5536 -1.8881
   36MOL0     H 4850   1.852   9.486  11.036 -0.2707  1.0779  0.9456
   36MOL0     H 4851   1.759   9.516  11.176  2.8930  1.0472  0.9973
   36MOL0     H 4852   1.924   9.270  11.087  0.6638  1.0960 -0.8446
   36MOL0     H 4853   1.825   9.262  11.230 -1.0715 -1.5211 -2.6531
   36MOL0     H 4854   1.965   9.441  11.345  0.9174  1.0545  0.1556
   36MOL0     H 4855   2.033   9.492  11.195  0.0404  0.9430  1.6478
   36MOL0     H 4856   2.165   9.315  11.151  1.5105  0.7597  0.4561
   36MOL0     H 4857   2.084   9.205  11.272 -0.8012 -0.2147  1.0040
   36MOL0     H 4858   2.381   9.390  11.513  1.4065 -1.0533 -0.8991
   36MOL0     H 4859   1.639   9.655  11.020 -0.7785  0.0564  1.9095
   36MOL0     H 4860   1.469   9.734  10.873 -1.9693 -0.0776 -2.1455
   37MOL0     O 4861   4.666   7.597   8.715 -0.4160 -0.4154 -0.1962
   37MOL0     C 4862   4.665   7.499   8.791 -0.9062  0.0893 -0.8383
   37MOL0     O 4863   4.551   7.432   8.840 -0.2085 -0.0665 -0.8574
   37MOL0     C 4864   4.424   7.479   8.859 -0.4405 -0.0892 -0.9845
   37MOL0     C 4865   4.328   7.378   8.845  0.2545 -0.5394 -0.5189
   37MOL0     C 4866   4.197   7.419   8.844  0.2640 -1.0512 -1.1651
   37MOL0     C 4867   4.161   7.549   8.880  0.8485 -0.3028  0.0797
   37MOL0     O 4868   4.032   7.587   8.893  0.2922  0.2879 -0.2565
   37MOL0     C 4869   4.012   7.635   9.030  0.3096  0.3076  0.7370
   37MOL0     C 4870   3.882   7.574   9.092  0.3849 -0.5615  0.2960
   37MOL0     C 4871   3.825   7.651   9.216  0.5688 -0.2686  0.6613
   37MOL0     C 4872   3.746   7.782   9.172 -0.0609 -0.0186 -0.4684
   37MOL0     C 4873   3.676   7.849   9.296 -0.2493  0.4528  1.2267
   37MOL0     C 4874   3.618   7.980   9.258  0.0530  0.2975 -0.5786
   37MOL0     C 4875   3.573   8.054   9.382  0.2914  0.5528  0.3191
   37MOL0     C 4876   3.548   8.204   9.332 -0.1781  0.5537  1.0171
   37MOL0     N 4877   3.432   8.203   9.238 -0.0257 -0.2337 -0.3743
   37MOL0     C 4878   3.444   8.229   9.100  0.2127 -1.3258  0.3743
   37MOL0     C 4879   3.316   8.204   9.057 -0.1384  0.1952 -0.8856
   37MOL0     C 4880   3.256   8.212   8.918 -0.2038  0.2300 -1.0472
   37MOL0     C 4881   3.305   8.352   8.863  0.2468  0.2822 -0.2297
   37MOL0     C 4882   3.222   8.389   8.737  0.1884 -0.1121  0.0290
   37MOL0     C 4883   3.270   8.534   8.705 -0.2541  0.9699 -0.9673
   37MOL0     O 4884   3.207   8.563   8.578 -0.0473 -0.0069  0.0283
   37MOL0     C 4885   3.093   8.634   8.580 -0.0995  0.5437 -0.0517
   37MOL0     C 4886   3.002   8.634   8.687 -0.1620 -0.1942 -0.1554
   37MOL0     C 4887   2.879   8.695   8.680  0.1695 -0.2582 -0.4021
   37MOL0     C 4888   2.791   8.679   8.805  0.0911 -0.2242  0.1722
   37MOL0     C 4889   2.840   8.777   8.568 -0.3178  0.7184  0.3250
   37MOL0     C 4890   2.717   8.853   8.557  0.2108  0.3888 -0.2150
   37MOL0     O 4891   2.643   8.870   8.669 -0.1971  0.3320 -0.2877
   37MOL0     C 4892   2.532   8.954   8.673  0.1154  0.9028  0.0916
   37MOL0     C 4893   2.427   8.939   8.579  0.5444  0.3405 -0.2069
   37MOL0     C 4894   2.305   9.015   8.597 -0.3048 -0.0291 -0.9025
   37MOL0     C 4895   2.290   9.110   8.700 -0.3205  0.3785 -0.3354
   37MOL0     O 4896   2.171   9.174   8.727  0.5568 -0.1890  0.2820
   37MOL0     C 4897   2.094   9.214   8.610  0.8430 -0.1360 -0.4442
   37MOL0     C 4898   2.005   9.343   8.639  0.1000  0.4397 -0.8090
   37MOL0     C 4899   2.086   9.463   8.672 -0.2725 -0.1313  0.5233
   37MOL0     C 4900   1.997   9.590   8.689 -0.3104 -0.1693  1.2002
   37MOL0     C 4901   2.058   9.708   8.610  0.4710 -0.0585 -0.3229
   37MOL0     C 4902   2.177   9.776   8.684 -0.3238  0.7453  0.0361
   37MOL0     C 4903   2.260   9.850   8.579 -0.3285  0.4797 -0.7207
   37MOL0     C 4904   2.183   9.940   8.490 -0.4736  0.5701 -0.1634
   37MOL0    Cl 4905   2.098  10.081   8.591 -0.3366 -0.0992  0.2424
   37MOL0     C 4906   2.402   9.132   8.777 -1.2261 -0.2448 -0.3301
   37MOL0     C 4907   2.516   9.057   8.776 -0.5076  0.6294  1.3376
   37MOL0     O 4908   2.683   8.892   8.441 -0.5809  0.3280 -0.1243
   37MOL0     C 4909   2.943   8.791   8.470 -0.2997 -0.8981 -0.1304
   37MOL0     C 4910   3.060   8.712   8.468 -0.2949  0.7539  0.0519
   37MOL0     N 4911   3.236   8.175   9.164  0.9589  0.6547 -0.2783
   37MOL0     N 4912   3.297   8.180   9.273 -0.4186  0.4098  0.5958
   37MOL0     C 4913   4.263   7.644   8.892 -0.2016  0.4039  0.3753
   37MOL0     C 4914   4.395   7.611   8.878 -0.1802 -0.5863  0.6760
   37MOL0     C 4915   4.798   7.451   8.841  0.0021  0.5695 -0.3374
   37MOL0     C 4916   4.921   7.516   8.815  0.1785 -0.3260 -0.3995
   37MOL0     C 4917   5.043   7.461   8.859 -0.6411 -0.0429 -0.2554
   37MOL0     C 4918   5.045   7.337   8.929  0.1950 -0.2923  0.4079
   37MOL0     O 4919   5.167   7.275   8.954 -1.0359  0.8809  0.0001
   37MOL0     C 4920   5.163   7.152   9.035 -0.4659  0.2767  0.3132
   37MOL0     C 4921   5.155   7.189   9.181 -0.5166 -1.4749 -0.5422
   37MOL0     C 4922   5.221   7.335   9.204 -0.7097  0.2983 -0.5666
   37MOL0     C 4923   5.228   7.368   9.351 -0.2540  1.0831  0.4407
   37MOL0     C 4924   5.288   7.494   9.365  0.4565 -0.6993  0.5240
   37MOL0     C 4925   5.326   7.608   9.376  0.2427  0.4469 -0.0459
   37MOL0     C 4926   4.923   7.279   8.964 -0.7903  0.0369  0.4043
   37MOL0     C 4927   4.803   7.334   8.925 -1.1247 -0.6244  0.6679
   37MOL0     H 4928   4.352   7.273   8.828 -0.6021 -0.6351 -1.2587
   37MOL0     H 4929   4.116   7.348   8.833  0.0335 -1.4922  2.1523
   37MOL0     H 4930   4.093   7.609   9.099 -0.5260 -0.1551  1.5744
   37MOL0     H 4931   3.999   7.744   9.036  1.0037  0.3179  3.3743
   37MOL0     H 4932   3.801   7.583   9.019  0.3476 -0.4612  0.3500
   37MOL0     H 4933   3.893   7.471   9.125  1.2372 -1.2266 -1.8879
   37MOL0     H 4934   3.760   7.582   9.270  0.0265 -1.2925 -1.2033
   37MOL0     H 4935   3.897   7.674   9.295 -0.7130  1.3002  1.4270
   37MOL0     H 4936   3.817   7.854   9.132  1.4150  0.0797  2.1011
   37MOL0     H 4937   3.670   7.758   9.097 -1.4365  2.1981  0.1298
   37MOL0     H 4938   3.601   7.776   9.328 -0.6320  0.9821  1.5455
   37MOL0     H 4939   3.754   7.855   9.373  0.7323 -1.6212  0.4757
   37MOL0     H 4940   3.705   8.027   9.211  1.3716 -2.0891 -0.7077
   37MOL0     H 4941   3.533   7.969   9.191  0.2505 -3.1424 -0.4130
   37MOL0     H 4942   3.481   8.008   9.420  0.3574 -0.8153 -1.0661
   37MOL0     H 4943   3.641   8.059   9.467  1.3225  0.0620 -0.4650
   37MOL0     H 4944   3.634   8.248   9.280  0.3461  0.4942  1.8222
   37MOL0     H 4945   3.519   8.259   9.421  1.3365  0.9092  1.3272
   37MOL0     H 4946   3.531   8.262   9.046  2.1938 -2.6250  2.5977
   37MOL0     H 4947   3.295   8.122   8.869 -1.6329  0.1562 -2.0992
   37MOL0     H 4948   3.147   8.207   8.928 -0.1307  1.5634  0.9009
   37MOL0     H 4949   3.412   8.351   8.840 -0.2540 -1.4706 -3.0145
   37MOL0     H 4950   3.293   8.420   8.948 -0.7306 -0.8570  0.5730
   37MOL0     H 4951   3.118   8.384   8.769 -0.0178 -0.6740 -0.7000
   37MOL0     H 4952   3.229   8.319   8.654 -0.2532 -1.3165  0.9762
   37MOL0     H 4953   3.379   8.535   8.696 -0.1529  3.4813 -0.3305
   37MOL0     H 4954   3.244   8.598   8.790  0.3792 -0.1506  0.1014
   37MOL0     H 4955   3.012   8.569   8.773 -1.5355 -2.0672 -1.3329
   37MOL0     H 4956   2.690   8.644   8.782 -0.5042  1.4534  0.1282
   37MOL0     H 4957   2.834   8.592   8.857 -3.0799 -2.3289 -0.4612
   37MOL0     H 4958   2.799   8.762   8.875  0.9135 -0.8090  0.8050
   37MOL0     H 4959   2.428   8.862   8.503 -2.7546  0.0088 -0.0467
   37MOL0     H 4960   2.219   8.996   8.533 -0.7049 -1.6638  0.0545
   37MOL0     H 4961   2.150   9.216   8.516  0.4638 -1.7803 -0.7410
   37MOL0     H 4962   2.016   9.141   8.586  0.4818  0.5640 -1.4623
   37MOL0     H 4963   1.947   9.367   8.549 -1.2753 -0.4359 -0.1837
   37MOL0     H 4964   1.941   9.324   8.725  0.4178 -1.0990 -0.8939
   37MOL0     H 4965   2.150   9.478   8.585 -1.7430  2.2708 -0.2493
   37MOL0     H 4966   2.149   9.438   8.758 -1.2943 -2.5407  0.6737
   37MOL0     H 4967   1.903   9.565   8.639 -0.1028 -2.0510  1.6613
   37MOL0     H 4968   1.988   9.612   8.796  0.8688 -0.6605  1.4215
   37MOL0     H 4969   1.981   9.784   8.596  0.4402 -0.1769 -0.8247
   37MOL0     H 4970   2.079   9.655   8.517 -1.2540 -0.8026 -0.3235
   37MOL0     H 4971   2.144   9.855   8.752  2.0983  2.1235 -0.3183
   37MOL0     H 4972   2.237   9.706   8.744  2.0555  3.0613  0.5133
   37MOL0     H 4973   2.308   9.773   8.518 -0.7466 -0.3075 -0.0847
   37MOL0     H 4974   2.343   9.906   8.624  0.6262 -0.7592 -0.8639
   37MOL0     H 4975   2.114   9.876   8.435  1.1464 -1.2183 -0.2308
   37MOL0     H 4976   2.250   9.992   8.421  0.8455 -1.6288 -0.6096
   37MOL0     H 4977   2.387   9.223   8.835  2.1731  0.2160  0.0352
   37MOL0     H 4978   2.604   9.074   8.837  1.4142  2.7582 -1.7802
   37MOL0     H 4979   2.930   8.865   8.392  1.0273 -0.0055  0.4661
   37MOL0     H 4980   3.128   8.718   8.384  0.7957 -2.4651  0.5790
   37MOL0     H 4981   4.242   7.743   8.930 -0.8421  0.5429 -0.3122
   37MOL0     H 4982   4.480   7.679   8.883 -0.2035 -0.4717 -0.2981
   37MOL0     H 4983   4.910   7.605   8.754 -0.6674 -0.2769 -0.1760
   37MOL0     H 4984   5.134   7.513   8.830  0.4933 -1.8521 -0.1134
   37MOL0     H 4985   5.077   7.088   9.009  1.0377 -1.2130 -1.2484
   37MOL0     H 4986   5.258   7.103   9.013  0.0288  1.5346 -0.4490
   37MOL0     H 4987   5.203   7.112   9.243  0.8975  0.0814  0.3881
   37MOL0     H 4988   5.049   7.203   9.204  0.1696  3.0556  0.8571
   37MOL0     H 4989   5.173   7.414   9.147 -1.0628  0.2551 -0.3275
   37MOL0     H 4990   5.325   7.314   9.175  0.5357  0.4506  3.1501
   37MOL0     H 4991   5.284   7.294   9.409  1.5976  1.5765 -0.6589
   37MOL0     H 4992   5.124   7.364   9.386  0.0133  2.1659  1.4321
   37MOL0     H 4993   5.338   7.714   9.378  0.4493  0.4783  3.5146
   37MOL0     H 4994   4.916   7.191   9.028  0.9807  0.0166  0.6338
   37MOL0     H 4995   4.717   7.286   8.970 -0.9256 -0.7061  0.9604
   38MOL0     O 4996   3.811   7.095  10.359  0.2120  0.5674 -0.3554
   38MOL0     C 4997   3.874   7.120  10.465 -0.0694 -0.9957 -0.5254
   38MOL0     O 4998   3.826   7.179  10.578  0.1640 -0.0613 -0.0395
   38MOL0     C 4999   3.695   7.226  10.574 -0.3561 -0.2403 -0.4432
   38MOL0     C 5000   3.596   7.128  10.565 -0.1024  0.0981  0.1774
   38MOL0     C 5001   3.454   7.166  10.555 -0.4648  1.0632 -0.3720
   38MOL0     C 5002   3.416   7.297  10.554  0.2093 -0.7682  0.0389
   38MOL0     O 5003   3.286   7.340  10.542 -0.6291  1.0614 -0.3258
   38MOL0     C 5004   3.239   7.470  10.578 -0.5825  0.4417  0.0571
   38MOL0     C 5005   3.095   7.439  10.584  0.1136 -0.5063  0.7811
   38MOL0     C 5006   3.014   7.572  10.607 -0.0907  0.1991  0.7894
   38MOL0     C 5007   2.858   7.550  10.621 -0.5622  0.3072  0.0187
   38MOL0     C 5008   2.792   7.690  10.624  0.2441 -0.0141 -0.2624
   38MOL0     C 5009   2.764   7.749  10.479 -0.3991 -1.0330 -0.1880
   38MOL0     C 5010   2.623   7.815  10.473  0.2974 -0.4475 -0.3732
   38MOL0     C 5011   2.515   7.715  10.466 -0.0474 -0.1118 -0.1870
   38MOL0     N 5012   2.375   7.771  10.466  0.1159 -0.0163  0.2069
   38MOL0     C 5013   2.328   7.862  10.378  0.1464  0.4032 -0.3693
   38MOL0     C 5014   2.201   7.827  10.348 -0.4667 -0.3146  0.4159
   38MOL0     C 5015   2.108   7.879  10.239  0.3963 -0.3957 -0.5294
   38MOL0     C 5016   1.975   7.922  10.302  0.5702  0.0778 -0.1576
   38MOL0     C 5017   1.868   7.814  10.285 -0.0393  0.0241  0.2883
   38MOL0     C 5018   1.735   7.863  10.348 -0.2805 -0.5833  0.0020
   38MOL0     O 5019   1.652   7.754  10.325 -0.1453 -0.1466 -0.2474
   38MOL0     C 5020   1.524   7.760  10.381 -0.5336 -0.3341 -0.6983
   38MOL0     C 5021   1.473   7.864  10.462 -0.2398  1.0752  0.6977
   38MOL0     C 5022   1.339   7.854  10.514 -0.1096  0.7228  0.7110
   38MOL0     C 5023   1.292   7.980  10.583 -0.0711  0.1546 -0.3023
   38MOL0     C 5024   1.265   7.737  10.497 -0.6487  0.2038 -0.5263
   38MOL0     C 5025   1.130   7.712  10.543  0.7129  0.9893  0.4477
   38MOL0     O 5026   1.067   7.816  10.604 -0.0365  1.3120 -0.5474
   38MOL0     C 5027   0.932   7.806  10.649 -0.0178 -0.4423  1.1897
   38MOL0     C 5028   0.827   7.753  10.570 -0.6006  0.2920 -0.4280
   38MOL0     C 5029   0.695   7.758  10.612 -0.0344 -0.5787  0.1352
   38MOL0     C 5030   0.659   7.809  10.738 -0.1717 -0.5824 -0.1999
   38MOL0     O 5031   0.529   7.805  10.769 -0.0384 -0.1733 -0.0669
   38MOL0     C 5032   0.479   7.867  10.890 -1.3432  0.5578 -0.0789
   38MOL0     C 5033   0.340   7.835  10.920 -0.3953  0.8385  0.9530
   38MOL0     C 5034   0.239   7.884  10.811  0.3564 -0.3487 -0.1988
   38MOL0     C 5035   0.100   7.858  10.856 -0.0203  0.5659  0.4356
   38MOL0     C 5036   0.054   7.936  10.971 -0.9121 -0.6445 -0.9219
   38MOL0     C 5037  -0.093   7.923  10.978 -0.3863  0.2535 -0.5708
   38MOL0     C 5038  -0.161   8.014  11.073  0.0661  0.5962 -0.0608
   38MOL0     C 5039  -0.304   8.033  11.035  1.1868 -0.3085  0.0549
   38MOL0    Cl 5040  -0.398   8.088  11.183 -0.2776  0.0275  0.1802
   38MOL0     C 5041   0.765   7.869  10.818 -0.9048 -0.0303 -0.1046
   38MOL0     C 5042   0.896   7.867  10.764  0.1773  0.0033  0.5893
   38MOL0     O 5043   1.078   7.600  10.513  0.0779 -0.0717  0.0115
   38MOL0     C 5044   1.323   7.633  10.415  0.3323  0.0617 -0.1767
   38MOL0     C 5045   1.450   7.648  10.359  0.9806  0.2370 -0.4872
   38MOL0     N 5046   2.176   7.710  10.425  0.6131 -0.3042  0.1387
   38MOL0     N 5047   2.277   7.684  10.497 -0.2057  0.0209 -0.3775
   38MOL0     C 5048   3.517   7.392  10.554 -0.2004 -0.0695  0.8695
   38MOL0     C 5049   3.653   7.358  10.555  0.8248  0.3562  0.5177
   38MOL0     C 5050   4.017   7.098  10.458  0.8294 -0.3167 -0.4219
   38MOL0     C 5051   4.107   7.150  10.555  0.6278  0.6303 -0.3806
   38MOL0     C 5052   4.242   7.135  10.538  0.5970 -0.8764 -0.0429
   38MOL0     C 5053   4.303   7.069  10.438  0.4880 -0.4944  0.2490
   38MOL0     O 5054   4.440   7.047  10.447 -0.6866 -0.1485  0.0402
   38MOL0     C 5055   4.518   7.012  10.329 -0.9032 -0.0238  0.2553
   38MOL0     C 5056   4.565   6.862  10.327 -0.0015  0.2155 -0.0635
   38MOL0     C 5057   4.679   6.836  10.217 -0.0354  0.8974 -0.1484
   38MOL0     C 5058   4.724   6.683  10.241  0.4296 -0.0988 -0.7751
   38MOL0     C 5059   4.790   6.626  10.122 -0.1199 -0.8656  0.3619
   38MOL0     C 5060   4.840   6.581  10.017  0.5976 -0.0901 -0.4525
   38MOL0     C 5061   4.220   7.027  10.338  0.3290 -0.0014  0.2448
   38MOL0     C 5062   4.077   7.053  10.336 -1.0605 -1.1138 -0.0442
   38MOL0     H 5063   3.635   7.027  10.579 -2.9206 -1.4390 -1.9493
   38MOL0     H 5064   3.377   7.090  10.550  0.4232  0.2287 -1.8235
   38MOL0     H 5065   3.287   7.498  10.671  2.5383 -1.7285 -0.7338
   38MOL0     H 5066   3.261   7.543  10.499 -1.4275  0.1383 -0.4768
   38MOL0     H 5067   3.059   7.407  10.486 -2.2283  2.1018  0.6675
   38MOL0     H 5068   3.061   7.374  10.665  0.8848  0.4589  1.9039
   38MOL0     H 5069   3.053   7.614  10.700  1.4527 -1.5485  0.9867
   38MOL0     H 5070   3.029   7.638  10.521  1.5336  2.3282  2.6037
   38MOL0     H 5071   2.812   7.486  10.544 -0.7055 -0.0279  0.3774
   38MOL0     H 5072   2.832   7.487  10.707 -1.8978 -2.9550 -2.5518
   38MOL0     H 5073   2.699   7.677  10.681  0.1699 -2.4545 -0.8174
   38MOL0     H 5074   2.856   7.753  10.686 -1.4136  0.1187  1.4150
   38MOL0     H 5075   2.831   7.833  10.458  1.4978 -2.5326 -0.4236
   38MOL0     H 5076   2.780   7.674  10.401  2.1848  1.6034 -2.4301
   38MOL0     H 5077   2.602   7.877  10.560  0.5186 -0.4432 -0.3218
   38MOL0     H 5078   2.622   7.875  10.381  0.1951 -0.0621 -0.1197
   38MOL0     H 5079   2.519   7.628  10.533 -1.3732 -2.1199 -2.5404
   38MOL0     H 5080   2.521   7.661  10.371 -0.0513 -0.6382  0.1099
   38MOL0     H 5081   2.387   7.944  10.337  1.1162  0.3180  0.7941
   38MOL0     H 5082   2.160   7.963  10.190 -3.0559  1.6787 -0.9879
   38MOL0     H 5083   2.102   7.806  10.158 -1.5532 -1.2933  0.3532
   38MOL0     H 5084   1.932   8.014  10.261  0.3226  1.2481  2.5065
   38MOL0     H 5085   2.005   7.938  10.406  2.6882  0.9084 -0.8387
   38MOL0     H 5086   1.891   7.718  10.330  0.2803 -1.3635 -2.6471
   38MOL0     H 5087   1.849   7.787  10.181 -0.8020 -0.1004  0.4524
   38MOL0     H 5088   1.709   7.958  10.300  1.9574  0.7769  1.2969
   38MOL0     H 5089   1.754   7.879  10.455  0.1310 -1.1461  0.0192
   38MOL0     H 5090   1.537   7.951  10.473  0.5486  0.6747 -0.5407
   38MOL0     H 5091   1.254   7.972  10.685  2.1662  1.5039  0.7067
   38MOL0     H 5092   1.380   8.043  10.594 -1.0170  1.6836 -1.0685
   38MOL0     H 5093   1.223   8.030  10.514 -0.2743  1.5025  0.8415
   38MOL0     H 5094   0.848   7.699  10.479  1.9861  0.4752 -0.0251
   38MOL0     H 5095   0.617   7.727  10.543 -1.2988 -1.2128  1.7728
   38MOL0     H 5096   0.536   7.830  10.976 -1.1903  3.2480  1.0949
   38MOL0     H 5097   0.500   7.974  10.889  2.6972 -0.0586  0.6651
   38MOL0     H 5098   0.337   7.726  10.924  0.5231  0.5440 -2.5976
   38MOL0     H 5099   0.312   7.875  11.018  0.5777  0.1671  1.5221
   38MOL0     H 5100   0.256   7.812  10.731  0.9629 -0.0529 -0.3422
   38MOL0     H 5101   0.261   7.987  10.782 -1.3839  0.3284  0.7815
   38MOL0     H 5102   0.037   7.877  10.769 -0.2143  0.7318  0.6095
   38MOL0     H 5103   0.094   7.752  10.880 -3.2526  0.9181  1.6261
   38MOL0     H 5104   0.084   8.039  10.951 -3.1059  0.8118  2.3208
   38MOL0     H 5105   0.095   7.910  11.070 -0.9128  1.8412 -0.1912
   38MOL0     H 5106  -0.131   7.941  10.877  0.8801  2.3245 -0.7239
   38MOL0     H 5107  -0.122   7.825  11.018 -0.5081  0.8861  0.9197
   38MOL0     H 5108  -0.117   8.114  11.080  1.8651 -0.2602  1.6636
   38MOL0     H 5109  -0.164   7.962  11.169 -1.8961 -1.9420 -1.3529
   38MOL0     H 5110  -0.356   7.944  10.997 -2.3602  2.3285 -1.9680
   38MOL0     H 5111  -0.312   8.113  10.960 -2.6871 -0.1163  0.4379
   38MOL0     H 5112   0.758   7.922  10.913  2.7508 -1.4368  1.1421
   38MOL0     H 5113   0.956   7.926  10.833 -1.9631  0.5515  2.0877
   38MOL0     H 5114   1.280   7.533  10.414 -0.5426  0.4252  0.2472
   38MOL0     H 5115   1.490   7.557  10.316  0.7282  0.3466 -0.9620
   38MOL0     H 5116   3.485   7.494  10.535 -1.4117 -0.2243  1.9689
   38MOL0     H 5117   3.735   7.427  10.539  1.4103 -1.0684 -3.8379
   38MOL0     H 5118   4.067   7.204  10.640 -0.6137 -0.0300 -0.5185
   38MOL0     H 5119   4.290   7.174  10.627 -1.5242  0.5011  0.5741
   38MOL0     H 5120   4.476   7.042  10.233  2.0289  2.2727 -0.4726
   38MOL0     H 5121   4.614   7.065  10.340 -1.1948  0.1155  2.7830
   38MOL0     H 5122   4.485   6.790  10.306 -1.4190  1.7512 -0.2088
   38MOL0     H 5123   4.590   6.828  10.428 -1.4678 -1.7814 -0.3105
   38MOL0     H 5124   4.771   6.894  10.223  2.0675 -2.0236 -1.6243
   38MOL0     H 5125   4.636   6.844  10.116 -0.9602 -1.0009  0.0428
   38MOL0     H 5126   4.640   6.619  10.270  0.6427  0.1743  0.4733
   38MOL0     H 5127   4.786   6.684  10.331 -2.2440  2.5603  1.2098
   38MOL0     H 5128   4.877   6.540   9.925  2.7359 -1.4346  0.9227
   38MOL0     H 5129   4.265   6.988  10.247  2.7260  0.9472  0.9428
   38MOL0     H 5130   4.028   7.031  10.242 -0.1756  0.5651 -0.9432
   39MOL0     O 5131   1.879  10.983   9.009  0.7039  0.4909 -0.5006
   39MOL0     C 5132   1.941  10.977   9.114  0.3962  0.5765  0.1638
   39MOL0     O 5133   1.885  10.954   9.241 -0.2938 -0.3021  0.0016
   39MOL0     C 5134   1.753  10.951   9.263  0.0123 -0.7273  0.1003
   39MOL0     C 5135   1.667  10.873   9.185 -0.3655 -0.4696  0.5883
   39MOL0     C 5136   1.532  10.864   9.223  0.2591  0.2183  0.0712
   39MOL0     C 5137   1.472  10.928   9.328  0.4719 -0.7470 -1.0224
   39MOL0     O 5138   1.336  10.905   9.349 -0.0234  0.7574  0.1442
   39MOL0     C 5139   1.269  10.993   9.442  0.2146 -0.1664 -0.8415
   39MOL0     C 5140   1.125  11.013   9.418  0.1758 -0.2099  0.3760
   39MOL0     C 5141   1.088  11.082   9.281  0.6230 -0.7796 -0.1632
   39MOL0     C 5142   1.086  10.975   9.167  0.5364  1.5299 -1.0130
   39MOL0     C 5143   1.036  11.040   9.041  0.3876  0.5180  0.2316
   39MOL0     C 5144   1.149  11.123   8.974  0.3328  0.4903 -0.0056
   39MOL0     C 5145   1.248  11.037   8.886 -0.1402  0.2833 -0.8427
   39MOL0     C 5146   1.180  10.970   8.766  0.6422 -0.3072 -1.1740
   39MOL0     N 5147   1.141  11.066   8.659  0.4823 -0.4501 -0.5939
   39MOL0     C 5148   1.026  11.136   8.638 -0.4369  0.5479 -0.5286
   39MOL0     C 5149   1.027  11.165   8.506  0.4036 -0.3221  0.6281
   39MOL0     C 5150   0.917  11.247   8.439 -0.3648  0.3205 -0.4024
   39MOL0     C 5151   0.924  11.394   8.420  0.3292 -0.1697  0.1742
   39MOL0     C 5152   1.060  11.448   8.368  0.0546 -0.6952 -0.3661
   39MOL0     C 5153   1.082  11.590   8.408 -1.1150 -0.0256 -1.8605
   39MOL0     O 5154   1.031  11.678   8.319 -0.0532  0.1159 -0.2580
   39MOL0     C 5155   0.905  11.735   8.334 -0.7192  0.1577 -0.1561
   39MOL0     C 5156   0.808  11.710   8.442  0.4169 -0.2926  0.6110
   39MOL0     C 5157   0.678  11.769   8.440 -0.3393 -0.4277 -0.1757
   39MOL0     C 5158   0.594  11.747   8.563 -0.4015 -0.0338  0.0776
   39MOL0     C 5159   0.632  11.849   8.336 -0.3847  0.4823 -0.4016
   39MOL0     C 5160   0.499  11.923   8.320 -0.4593 -0.2003  0.7526
   39MOL0     O 5161   0.478  11.987   8.200  0.8151  0.0570  0.5025
   39MOL0     C 5162   0.355  12.022   8.166  0.9064 -0.2371  0.6345
   39MOL0     C 5163   0.337  12.133   8.087 -0.3726  0.6422 -0.2874
   39MOL0     C 5164   0.208  12.167   8.042  0.0870  0.4502 -0.5187
   39MOL0     C 5165   0.095  12.094   8.087  0.7652  0.4112  0.6890
   39MOL0     O 5166  -0.026  12.132   8.034 -0.6099  0.3447 -0.2865
   39MOL0     C 5167  -0.042  12.077   7.902  0.7478 -0.2081  0.4152
   39MOL0     C 5168  -0.187  12.091   7.851  0.0924 -0.0515 -0.3054
   39MOL0     C 5169  -0.292  12.050   7.951  0.1430 -0.2406 -0.5460
   39MOL0     C 5170  -0.423  12.046   7.874  1.0634  0.5763  0.8137
   39MOL0     C 5171  -0.545  12.018   7.971  0.9930  0.2747 -0.1480
   39MOL0     C 5172  -0.691  12.012   7.917 -0.4131 -0.1844  0.3777
   39MOL0     C 5173  -0.791  12.003   8.031 -0.4916 -0.3528 -0.3089
   39MOL0     C 5174  -0.861  11.868   8.038  0.4836  0.4100  0.4423
   39MOL0    Cl 5175  -0.996  11.851   8.167  0.3440 -0.1566  0.3311
   39MOL0     C 5176   0.107  11.981   8.163  0.0602 -0.2276  0.6612
   39MOL0     C 5177   0.236  11.941   8.203  0.5407 -0.3268 -0.3789
   39MOL0     O 5178   0.425  11.919   8.420  0.4700  0.1439 -0.0335
   39MOL0     C 5179   0.729  11.873   8.238 -0.0150  0.0668  0.2345
   39MOL0     C 5180   0.858  11.819   8.231  0.1067 -0.1195 -1.5876
   39MOL0     N 5181   1.138  11.117   8.449  0.2585 -1.1074 -0.1472
   39MOL0     N 5182   1.203  11.050   8.534  0.3660  0.5181  0.2824
   39MOL0     C 5183   1.559  11.005   9.411 -0.0406 -0.4355 -0.3313
   39MOL0     C 5184   1.695  11.018   9.378  0.1303  0.5499  0.2061
   39MOL0     C 5185   2.083  10.969   9.086 -0.4459 -0.0515  1.2910
   39MOL0     C 5186   2.141  10.972   8.955 -0.2238  0.3392 -0.1872
   39MOL0     C 5187   2.276  10.962   8.940 -0.5979 -0.2702  0.1536
   39MOL0     C 5188   2.367  10.958   9.052  0.9691 -0.2127 -0.5974
   39MOL0     O 5189   2.502  10.949   9.046 -0.5821  0.1566  0.9895
   39MOL0     C 5190   2.562  10.887   8.921  0.0222 -0.8921 -0.0775
   39MOL0     C 5191   2.710  10.930   8.914 -0.0472 -0.5160  0.1784
   39MOL0     C 5192   2.722  11.084   8.903 -0.2560 -0.2147 -0.2075
   39MOL0     C 5193   2.682  11.127   8.760  0.0040  0.1267  0.2837
   39MOL0     C 5194   2.734  11.256   8.738 -0.3566  0.7860 -0.6319
   39MOL0     C 5195   2.767  11.370   8.714 -0.2298  0.2627 -0.0735
   39MOL0     C 5196   2.313  10.968   9.181 -0.0186 -0.7376 -0.3640
   39MOL0     C 5197   2.174  10.973   9.198 -0.3397 -0.0780  0.7571
   39MOL0     H 5198   1.707  10.814   9.104 -1.2901 -1.5521  0.8996
   39MOL0     H 5199   1.480  10.804   9.149 -2.7996 -0.0766  2.2673
   39MOL0     H 5200   1.271  10.947   9.541 -0.8385  1.7155  0.1184
   39MOL0     H 5201   1.312  11.093   9.446 -1.3466  0.5132  2.2085
   39MOL0     H 5202   1.070  10.919   9.432  2.3615 -1.6918 -0.5756
   39MOL0     H 5203   1.090  11.083   9.495  0.6874 -0.8704  1.2367
   39MOL0     H 5204   0.988  11.124   9.297  0.9426 -0.2343  0.4185
   39MOL0     H 5205   1.159  11.161   9.255  1.5498 -2.4577 -3.3649
   39MOL0     H 5206   1.181  10.927   9.146 -0.5611 -0.2697 -2.0930
   39MOL0     H 5207   1.004  10.904   9.182  1.3513  0.2322 -2.4500
   39MOL0     H 5208   0.994  10.958   8.982  0.5020 -1.2960  2.5209
   39MOL0     H 5209   0.955  11.100   9.081  0.9461  0.2107  1.9195
   39MOL0     H 5210   1.114  11.201   8.905  0.1845 -0.9484 -1.6063
   39MOL0     H 5211   1.207  11.174   9.052  0.4163  2.0422 -1.0424
   39MOL0     H 5212   1.337  11.093   8.855  1.3801 -0.6369  1.5846
   39MOL0     H 5213   1.282  10.959   8.954 -1.2491 -0.7955 -1.4875
   39MOL0     H 5214   1.084  10.926   8.792  0.6654  1.2519  2.0599
   39MOL0     H 5215   1.248  10.896   8.723  0.7454 -0.6915 -0.3761
   39MOL0     H 5216   0.942  11.157   8.704  0.4417 -0.0726  0.8193
   39MOL0     H 5217   0.910  11.215   8.334 -2.5256  3.6092 -1.4322
   39MOL0     H 5218   0.827  11.224   8.496 -0.5479  0.2557 -0.7133
   39MOL0     H 5219   0.895  11.443   8.514  0.4346 -0.8478  0.5657
   39MOL0     H 5220   0.849  11.426   8.348 -0.5470 -1.8832  0.2649
   39MOL0     H 5221   1.075  11.433   8.261 -1.0834 -3.7764 -0.2071
   39MOL0     H 5222   1.140  11.388   8.412  3.2672  2.4009 -1.5118
   39MOL0     H 5223   1.192  11.595   8.404 -1.0774  0.1945 -0.7904
   39MOL0     H 5224   1.053  11.612   8.511 -0.5500 -2.4651 -1.1195
   39MOL0     H 5225   0.827  11.654   8.532 -1.5908 -1.0819  0.5959
   39MOL0     H 5226   0.498  11.710   8.528 -0.3600 -0.0330 -0.0385
   39MOL0     H 5227   0.648  11.682   8.633 -0.8545  0.1342  0.5961
   39MOL0     H 5228   0.565  11.836   8.620  0.6795 -1.3691  2.9441
   39MOL0     H 5229   0.421  12.190   8.049  0.7950 -0.6137  0.3202
   39MOL0     H 5230   0.189  12.256   7.983  1.2959  0.4410 -0.9453
   39MOL0     H 5231   0.026  12.130   7.834 -1.3048 -1.0416 -2.4943
   39MOL0     H 5232  -0.014  11.971   7.898  0.2010 -0.4769  2.4634
   39MOL0     H 5233  -0.208  12.196   7.828 -0.7181 -0.2884 -0.6747
   39MOL0     H 5234  -0.191  12.026   7.764 -2.1434  2.4457 -2.2304
   39MOL0     H 5235  -0.296  12.115   8.039 -0.5037 -1.3711  0.2862
   39MOL0     H 5236  -0.271  11.948   7.987 -0.9445 -0.4067 -0.3535
   39MOL0     H 5237  -0.450  12.135   7.815 -1.1457 -0.3197  0.4052
   39MOL0     H 5238  -0.425  11.960   7.806  1.5010  2.5860 -1.9486
   39MOL0     H 5239  -0.543  12.100   8.045 -0.7907  0.5149 -0.3202
   39MOL0     H 5240  -0.521  11.926   8.025  0.6362  0.9674  1.2427
   39MOL0     H 5241  -0.710  12.090   7.843  0.2522 -1.6343 -1.4131
   39MOL0     H 5242  -0.683  11.920   7.857  0.8265  0.6913 -0.8748
   39MOL0     H 5243  -0.867  12.082   8.025 -1.8246 -1.5283  0.4114
   39MOL0     H 5244  -0.730  12.011   8.121  0.3111 -1.0095 -0.7774
   39MOL0     H 5245  -0.794  11.781   8.038  0.3371  0.2946 -0.2547
   39MOL0     H 5246  -0.908  11.856   7.940  2.7480  0.4982 -0.7262
   39MOL0     H 5247   0.016  11.930   8.193 -0.5220  1.1318  1.2770
   39MOL0     H 5248   0.234  11.849   8.261 -1.5044 -0.0546  0.0291
   39MOL0     H 5249   0.704  11.934   8.152 -1.6121 -0.4895  0.2737
   39MOL0     H 5250   0.911  11.847   8.141  0.4990  0.8911 -1.0509
   39MOL0     H 5251   1.531  11.037   9.510 -1.1389 -1.6398 -0.2288
   39MOL0     H 5252   1.767  11.065   9.444  0.5947 -1.3663  1.1180
   39MOL0     H 5253   2.085  10.992   8.864 -0.0374 -1.2167 -0.6720
   39MOL0     H 5254   2.315  10.960   8.839  0.4731  1.0649  0.5138
   39MOL0     H 5255   2.554  10.779   8.933 -1.3698 -1.1231 -2.3681
   39MOL0     H 5256   2.508  10.929   8.836 -1.9572  2.0885  2.4504
   39MOL0     H 5257   2.767  10.875   8.838  2.8119  0.4644  1.4644
   39MOL0     H 5258   2.763  10.901   9.005  2.1629 -0.9894 -1.1767
   39MOL0     H 5259   2.824  11.110   8.934  0.4129 -0.8972 -1.7629
   39MOL0     H 5260   2.663  11.126   8.985  2.2261 -0.2773  1.7207
   39MOL0     H 5261   2.574  11.134   8.749  0.1356  2.8313  0.2014
   39MOL0     H 5262   2.720  11.066   8.677  0.0388 -2.7478  2.2748
   39MOL0     H 5263   2.793  11.471   8.692 -0.5572  0.3854  0.0977
   39MOL0     H 5264   2.382  10.977   9.265 -1.9375  3.0607  1.0804
   39MOL0     H 5265   2.130  10.983   9.297  0.0011  0.2219  0.8779
   40MOL0     O 5266   8.397   8.513   3.099  0.3700  0.8482  0.1767
   40MOL0     C 5267   8.488   8.426   3.113 -0.4350  0.7404 -0.3423
   40MOL0     O 5268   8.474   8.312   3.188 -0.3482 -0.0206 -0.6478
   40MOL0     C 5269   8.377   8.299   3.284 -0.3629  0.0813 -0.5267
   40MOL0     C 5270   8.311   8.403   3.356  0.0565  0.1260 -0.0243
   40MOL0     C 5271   8.203   8.374   3.440 -0.4790 -0.1286 -0.2800
   40MOL0     C 5272   8.161   8.239   3.466  0.5678  0.0705 -0.4715
   40MOL0     O 5273   8.062   8.212   3.560  0.3052 -0.3392 -1.0849
   40MOL0     C 5274   7.971   8.111   3.525  0.0339  1.2032 -0.8485
   40MOL0     C 5275   7.833   8.127   3.584  0.7242  0.5445  0.1816
   40MOL0     C 5276   7.828   8.070   3.729  0.0041 -0.7515 -0.2285
   40MOL0     C 5277   7.864   8.186   3.831  0.6944  1.2130  0.4811
   40MOL0     C 5278   7.768   8.304   3.842  0.1453  0.3215 -0.5872
   40MOL0     C 5279   7.640   8.262   3.926  0.5916 -0.8174 -0.2071
   40MOL0     C 5280   7.666   8.234   4.075 -0.7112 -0.1577  0.1372
   40MOL0     C 5281   7.553   8.293   4.159 -0.8004 -0.3382  0.2299
   40MOL0     N 5282   7.416   8.248   4.114  0.6736 -0.4115  0.4604
   40MOL0     C 5283   7.336   8.322   4.023  0.1832  0.4310 -0.4102
   40MOL0     C 5284   7.232   8.239   3.999 -0.3409  0.6084 -0.7787
   40MOL0     C 5285   7.109   8.262   3.912  0.3485 -0.1197  0.2516
   40MOL0     C 5286   7.003   8.151   3.926 -0.0017 -1.0596 -0.1326
   40MOL0     C 5287   6.903   8.130   3.805  0.4266  0.6699 -0.4713
   40MOL0     C 5288   6.817   7.996   3.825  0.7611  0.0959 -0.0028
   40MOL0     O 5289   6.732   8.009   3.932 -0.2935 -0.2353  0.3945
   40MOL0     C 5290   6.596   7.996   3.915 -0.6935 -0.0771  0.5083
   40MOL0     C 5291   6.522   7.973   4.031  0.1977  1.1009  0.7639
   40MOL0     C 5292   6.381   7.954   4.029  0.8774  0.1377  0.3445
   40MOL0     C 5293   6.314   7.941   4.167 -0.5418  0.3471  0.3240
   40MOL0     C 5294   6.314   7.975   3.909  0.0124  0.2051  0.3021
   40MOL0     C 5295   6.163   7.962   3.895  0.2362 -0.1368 -0.7995
   40MOL0     O 5296   6.109   7.972   3.773  0.1625 -0.2251  0.7042
   40MOL0     C 5297   5.985   7.907   3.755  0.3040  0.2973  0.4432
   40MOL0     C 5298   5.894   7.981   3.683 -0.2667 -0.4492 -0.6584
   40MOL0     C 5299   5.771   7.934   3.645  0.2293 -0.5361 -0.3431
   40MOL0     C 5300   5.717   7.814   3.683 -0.4796  0.5058  0.0481
   40MOL0     O 5301   5.580   7.780   3.648  0.0504  0.2762  0.2131
   40MOL0     C 5302   5.543   7.642   3.644 -0.0075 -0.8586 -0.7132
   40MOL0     C 5303   5.411   7.631   3.565 -0.5866 -0.8551 -0.6419
   40MOL0     C 5304   5.389   7.492   3.513 -0.5267  0.1200 -0.2012
   40MOL0     C 5305   5.243   7.459   3.491  0.3937 -0.1697  0.8019
   40MOL0     C 5306   5.178   7.545   3.384 -0.4176  0.5082 -0.7440
   40MOL0     C 5307   5.035   7.508   3.343  0.1663  0.4777  0.2606
   40MOL0     C 5308   5.007   7.360   3.350  0.6689  0.0561  0.4443
   40MOL0     C 5309   4.876   7.323   3.269  0.3814  0.0611 -0.3473
   40MOL0    Cl 5310   4.881   7.349   3.089 -0.3586  0.6734  0.2185
   40MOL0     C 5311   5.810   7.724   3.744 -0.0392  0.5105  0.8113
   40MOL0     C 5312   5.938   7.775   3.787  0.5600 -0.1646 -0.3010
   40MOL0     O 5313   6.106   7.906   3.989 -0.3636  0.0644  0.6223
   40MOL0     C 5314   6.380   8.011   3.791 -0.2332 -0.7176  0.7283
   40MOL0     C 5315   6.520   8.015   3.796 -0.0249  0.3380  0.0852
   40MOL0     N 5316   7.257   8.117   4.060  0.4652 -0.3324 -0.6252
   40MOL0     N 5317   7.366   8.123   4.126  0.4847 -0.6252  0.4142
   40MOL0     C 5318   8.237   8.134   3.405  0.7706 -0.0529  0.4050
   40MOL0     C 5319   8.328   8.163   3.303 -0.0076 -0.4323 -0.4213
   40MOL0     C 5320   8.621   8.429   3.047 -0.0513  0.0308  0.0457
   40MOL0     C 5321   8.637   8.481   2.921 -0.5486 -0.5970 -0.4256
   40MOL0     C 5322   8.760   8.478   2.858  0.2926  0.5712 -0.0356
   40MOL0     C 5323   8.868   8.419   2.924  0.3792  0.6362  0.2229
   40MOL0     O 5324   8.996   8.433   2.873  0.5139  0.2948  0.3801
   40MOL0     C 5325   9.115   8.399   2.952 -0.0619 -0.2457  0.1936
   40MOL0     C 5326   9.231   8.442   2.876  0.0206  0.3875 -0.0062
   40MOL0     C 5327   9.250   8.354   2.747 -0.2864 -0.7206 -0.1558
   40MOL0     C 5328   9.373   8.409   2.672 -0.1167 -0.1784 -0.7539
   40MOL0     C 5329   9.404   8.320   2.555 -0.5383 -0.7313  0.5195
   40MOL0     C 5330   9.436   8.241   2.464  0.8223  0.0232 -0.2541
   40MOL0     C 5331   8.852   8.375   3.048  0.3105 -0.1071 -0.5450
   40MOL0     C 5332   8.733   8.380   3.113  0.0672 -0.0866 -0.4444
   40MOL0     H 5333   8.341   8.506   3.340 -2.7616  1.2251  1.1249
   40MOL0     H 5334   8.150   8.451   3.496 -1.7878 -2.2435  1.5904
   40MOL0     H 5335   7.965   8.116   3.416  0.6851  2.2942 -0.8439
   40MOL0     H 5336   8.014   8.011   3.540  0.2402  1.5767  1.2237
   40MOL0     H 5337   7.797   8.230   3.581  0.3356  0.6372  3.7985
   40MOL0     H 5338   7.761   8.061   3.534  0.4277 -0.6073  2.0397
   40MOL0     H 5339   7.726   8.031   3.741 -0.4392 -0.7334 -3.0817
   40MOL0     H 5340   7.902   7.993   3.751  0.8411  0.6863  2.3335
   40MOL0     H 5341   7.882   8.138   3.928 -1.8096 -0.3563  0.2466
   40MOL0     H 5342   7.955   8.237   3.797  1.4352 -0.1444  0.3877
   40MOL0     H 5343   7.823   8.382   3.894 -1.2765  1.0821 -0.1874
   40MOL0     H 5344   7.735   8.322   3.739 -2.4878 -1.6533 -0.2186
   40MOL0     H 5345   7.579   8.352   3.926  0.0274 -1.1897  0.1856
   40MOL0     H 5346   7.594   8.174   3.879  0.5230 -1.1034  0.3862
   40MOL0     H 5347   7.672   8.125   4.082  1.3640 -0.1143 -0.2649
   40MOL0     H 5348   7.763   8.273   4.109 -0.9284  0.4790  0.0337
   40MOL0     H 5349   7.542   8.402   4.160  0.7237 -0.1613  0.6133
   40MOL0     H 5350   7.573   8.264   4.262 -0.6958  0.7092  0.5173
   40MOL0     H 5351   7.348   8.426   3.993  0.6324  0.1976 -1.0295
   40MOL0     H 5352   7.065   8.362   3.921 -1.3388 -0.6083 -1.7563
   40MOL0     H 5353   7.131   8.268   3.805 -0.1368  0.9811  0.2034
   40MOL0     H 5354   6.947   8.163   4.019  0.0798  1.2612 -0.3240
   40MOL0     H 5355   7.060   8.059   3.943  1.6997 -0.2255 -0.9777
   40MOL0     H 5356   6.948   8.136   3.706  1.0479  0.1716 -0.2317
   40MOL0     H 5357   6.840   8.218   3.814  0.9809  1.0367 -0.0989
   40MOL0     H 5358   6.882   7.908   3.833  0.8213 -0.6318 -5.3362
   40MOL0     H 5359   6.769   7.981   3.729  0.9341  1.7990 -0.3850
   40MOL0     H 5360   6.573   7.962   4.126  2.6438 -1.2642 -0.6641
   40MOL0     H 5361   6.386   7.935   4.249  0.7614 -1.4264 -0.8605
   40MOL0     H 5362   6.245   8.022   4.192  0.0074  0.5869  1.0837
   40MOL0     H 5363   6.263   7.844   4.158 -1.1809  0.8240 -1.8358
   40MOL0     H 5364   5.921   8.083   3.656  1.4369 -0.2801  1.4282
   40MOL0     H 5365   5.697   7.995   3.594  0.0821 -1.2774 -1.0327
   40MOL0     H 5366   5.623   7.594   3.587  0.4061  1.1828 -1.9320
   40MOL0     H 5367   5.519   7.613   3.746 -1.7692  0.6115 -0.6563
   40MOL0     H 5368   5.334   7.667   3.634  2.3576  0.0880  2.4328
   40MOL0     H 5369   5.413   7.697   3.478 -0.1283 -2.2063 -1.6838
   40MOL0     H 5370   5.443   7.419   3.574 -1.8651  1.6586  3.1007
   40MOL0     H 5371   5.447   7.488   3.421  0.0245 -0.5720  0.1661
   40MOL0     H 5372   5.231   7.359   3.449  1.4602 -0.1551  0.4196
   40MOL0     H 5373   5.183   7.472   3.581  1.6217  0.0908  1.6138
   40MOL0     H 5374   5.253   7.533   3.306  0.5030 -2.5718  0.4793
   40MOL0     H 5375   5.182   7.652   3.406  1.1551  0.4599 -0.7254
   40MOL0     H 5376   4.968   7.558   3.413  1.4473 -0.1455  1.9949
   40MOL0     H 5377   5.022   7.539   3.239 -1.0136 -1.0680 -0.0944
   40MOL0     H 5378   4.990   7.346   3.457  0.0848 -1.4349  0.1803
   40MOL0     H 5379   5.082   7.297   3.304 -0.0849  0.7940 -1.9382
   40MOL0     H 5380   4.793   7.379   3.313 -0.3600 -1.1452 -0.1714
   40MOL0     H 5381   4.847   7.220   3.289 -2.4625  0.5329 -1.5576
   40MOL0     H 5382   5.783   7.620   3.757 -0.6184  0.4404 -0.7153
   40MOL0     H 5383   6.000   7.699   3.833 -0.4810 -2.1022 -1.9921
   40MOL0     H 5384   6.335   8.021   3.692  0.1760 -3.4077  0.1919
   40MOL0     H 5385   6.574   8.043   3.706  0.8861  0.5840  0.6967
   40MOL0     H 5386   8.216   8.029   3.426 -0.7658  0.2678  0.5830
   40MOL0     H 5387   8.383   8.093   3.241 -0.4501  1.7502 -3.5184
   40MOL0     H 5388   8.553   8.535   2.880 -0.0676 -0.2199 -0.9271
   40MOL0     H 5389   8.781   8.529   2.765 -0.6326  3.2368  1.0896
   40MOL0     H 5390   9.118   8.452   3.048 -0.3492 -1.6408  1.0033
   40MOL0     H 5391   9.119   8.293   2.976  1.2501 -0.5170 -1.0964
   40MOL0     H 5392   9.322   8.430   2.935  0.8191 -0.4446 -1.3588
   40MOL0     H 5393   9.211   8.547   2.852 -2.0411  0.0590  0.1195
   40MOL0     H 5394   9.166   8.335   2.680  0.8422 -2.4186 -1.1757
   40MOL0     H 5395   9.273   8.253   2.782 -0.1426 -1.1757 -1.5036
   40MOL0     H 5396   9.462   8.409   2.736 -0.1258 -0.0373 -0.7401
   40MOL0     H 5397   9.372   8.508   2.626  0.2567  0.1623 -0.0541
   40MOL0     H 5398   9.466   8.169   2.391  1.9711  0.1566  0.0723
   40MOL0     H 5399   8.935   8.346   3.112 -0.3591 -0.6505  0.0924
   40MOL0     H 5400   8.728   8.350   3.218  2.0824 -1.3113 -0.6384
   41MOL0     O 5401   2.957   7.230   8.111 -0.8525 -1.0072  0.5049
   41MOL0     C 5402   2.891   7.130   8.139  0.4923 -0.1924 -0.6318
   41MOL0     O 5403   2.771   7.131   8.208  0.1540 -0.2051  0.2550
   41MOL0     C 5404   2.727   7.251   8.256  0.3589 -0.3337  0.3259
   41MOL0     C 5405   2.690   7.256   8.388 -0.0010  0.5215 -0.0211
   41MOL0     C 5406   2.646   7.372   8.450  0.5000  0.8208  1.0408
   41MOL0     C 5407   2.619   7.495   8.367 -0.8261  0.6276 -0.2753
   41MOL0     O 5408   2.570   7.608   8.434 -0.0720  0.4874 -0.1217
   41MOL0     C 5409   2.556   7.733   8.361 -0.0251  0.3649  0.9092
   41MOL0     C 5410   2.479   7.824   8.463  0.0993 -1.1104  0.9872
   41MOL0     C 5411   2.566   7.857   8.581 -0.4252  0.0235 -0.7563
   41MOL0     C 5412   2.487   7.937   8.678 -0.7828  0.1999  0.3599
   41MOL0     C 5413   2.584   8.012   8.764  0.3849 -0.5177  0.5608
   41MOL0     C 5414   2.521   8.117   8.849 -0.1493  0.8699 -0.3754
   41MOL0     C 5415   2.465   8.060   8.980  0.3680 -0.1349 -0.0365
   41MOL0     C 5416   2.329   8.000   8.976 -0.9132 -0.7127  0.7738
   41MOL0     N 5417   2.234   8.110   8.944 -0.0708 -0.0622  0.4158
   41MOL0     C 5418   2.190   8.208   9.039 -0.4692  0.0153  0.0602
   41MOL0     C 5419   2.114   8.291   8.966  0.2304 -1.0879  0.1427
   41MOL0     C 5420   2.048   8.423   9.004 -0.2494  0.0190 -0.6171
   41MOL0     C 5421   1.896   8.413   9.024 -0.3041 -1.3092 -0.4114
   41MOL0     C 5422   1.842   8.559   9.058 -0.3752 -0.1160  1.0213
   41MOL0     C 5423   1.686   8.563   9.050  0.4837  0.0565  0.2518
   41MOL0     O 5424   1.645   8.533   9.188 -0.1028  0.4103  0.2422
   41MOL0     C 5425   1.511   8.528   9.218 -0.1169  0.1076 -0.4086
   41MOL0     C 5426   1.478   8.531   9.352  0.7056  0.0538  0.2098
   41MOL0     C 5427   1.345   8.520   9.403  0.2730 -0.0904 -0.5749
   41MOL0     C 5428   1.334   8.522   9.559 -0.3556 -0.6332  0.2366
   41MOL0     C 5429   1.245   8.509   9.308  0.7165  0.4012  0.1934
   41MOL0     C 5430   1.099   8.509   9.347  0.3297 -0.1200 -0.4318
   41MOL0     O 5431   1.064   8.476   9.474  0.2675 -0.0906 -0.5728
   41MOL0     C 5432   0.932   8.472   9.504  1.1093 -0.8950  0.9668
   41MOL0     C 5433   0.875   8.352   9.542 -0.1512  0.6233  0.6163
   41MOL0     C 5434   0.746   8.350   9.585  0.3870 -0.4362 -1.4619
   41MOL0     C 5435   0.662   8.455   9.577 -0.6057 -0.6619 -0.5760
   41MOL0     O 5436   0.535   8.437   9.631  0.4862 -0.1747 -0.7425
   41MOL0     C 5437   0.424   8.503   9.572  0.1680 -0.6907 -0.3336
   41MOL0     C 5438   0.297   8.416   9.575 -1.0718  0.0937 -0.1046
   41MOL0     C 5439   0.241   8.395   9.712 -0.3556  0.6645  0.0502
   41MOL0     C 5440   0.188   8.526   9.793  0.2321 -0.3872 -1.1167
   41MOL0     C 5441   0.132   8.480   9.932  0.6807 -0.8776  0.1037
   41MOL0     C 5442   0.045   8.595   9.985  0.8532  0.1698 -0.7288
   41MOL0     C 5443   0.049   8.604  10.131 -0.3550  0.2059  0.3747
   41MOL0     C 5444   0.028   8.469  10.206  0.0549  0.0416  0.4400
   41MOL0    Cl 5445   0.044   8.497  10.380 -0.2571  0.0885 -0.1128
   41MOL0     C 5446   0.707   8.573   9.516  0.7911 -0.1325  0.2824
   41MOL0     C 5447   0.840   8.583   9.479  0.3475 -1.2504  0.2049
   41MOL0     O 5448   1.023   8.541   9.254  0.8530  0.2427 -0.8540
   41MOL0     C 5449   1.279   8.508   9.172 -0.6731  0.1390 -0.4411
   41MOL0     C 5450   1.410   8.519   9.130 -0.2428  0.4534 -0.3564
   41MOL0     N 5451   2.105   8.233   8.841  0.3052  0.4283  0.2245
   41MOL0     N 5452   2.175   8.131   8.828 -0.6000  0.0578 -0.6423
   41MOL0     C 5453   2.655   7.487   8.230  0.0380  0.2887 -0.0581
   41MOL0     C 5454   2.715   7.373   8.181 -0.0474  0.5852 -0.1198
   41MOL0     C 5455   2.942   6.996   8.103  0.2201  0.1569 -0.0175
   41MOL0     C 5456   3.041   6.986   8.001 -0.8224 -0.7058  0.0815
   41MOL0     C 5457   3.093   6.854   7.973 -0.3416  1.0119  0.0795
   41MOL0     C 5458   3.055   6.742   8.044  0.7637 -0.4065  0.4951
   41MOL0     O 5459   3.104   6.618   8.029  0.5450  0.4488  0.0372
   41MOL0     C 5460   3.177   6.588   7.914 -0.7425 -0.2005  0.6574
   41MOL0     C 5461   3.208   6.441   7.920 -0.9418  0.7758 -0.1180
   41MOL0     C 5462   3.304   6.396   8.036  0.1060 -0.2240  0.6953
   41MOL0     C 5463   3.364   6.259   8.013 -0.1827  0.3039  0.9740
   41MOL0     C 5464   3.427   6.252   7.875 -0.4173 -0.8938 -0.2354
   41MOL0     C 5465   3.482   6.264   7.767  0.8089  0.0554 -0.0217
   41MOL0     C 5466   2.963   6.755   8.148  0.0008  0.6764  0.3728
   41MOL0     C 5467   2.893   6.881   8.161 -0.3465 -0.4779 -0.1829
   41MOL0     H 5468   2.694   7.165   8.446 -0.8928 -0.2350 -1.1159
   41MOL0     H 5469   2.629   7.371   8.557 -1.8532  1.3759  0.7292
   41MOL0     H 5470   2.650   7.778   8.330 -0.4126  1.4592  1.2564
   41MOL0     H 5471   2.489   7.713   8.278 -1.4041  0.7004  1.9026
   41MOL0     H 5472   2.451   7.915   8.409  4.6389  0.7546  1.3174
   41MOL0     H 5473   2.386   7.775   8.493  1.0056 -1.4391  3.5271
   41MOL0     H 5474   2.587   7.765   8.636 -0.7690  0.1710 -0.3784
   41MOL0     H 5475   2.656   7.905   8.542  0.5540 -0.3699  0.9400
   41MOL0     H 5476   2.423   8.009   8.625 -1.8147 -0.1972  1.0442
   41MOL0     H 5477   2.424   7.863   8.728 -2.0839  1.7542  1.1482
   41MOL0     H 5478   2.636   7.938   8.825  1.2368 -0.4866 -0.1085
   41MOL0     H 5479   2.661   8.056   8.700  1.8653  0.3264  2.8027
   41MOL0     H 5480   2.601   8.187   8.874 -0.9937  1.3180  1.2244
   41MOL0     H 5481   2.442   8.166   8.790 -0.7310 -0.9434 -1.1720
   41MOL0     H 5482   2.526   7.978   9.020 -2.1214 -1.4169  1.4085
   41MOL0     H 5483   2.468   8.140   9.054  0.9883 -0.3362  0.1642
   41MOL0     H 5484   2.300   7.959   9.073 -1.6525 -0.0049  0.8628
   41MOL0     H 5485   2.328   7.917   8.905 -3.9550 -0.4014  0.3123
   41MOL0     H 5486   2.218   8.214   9.144  4.1098 -2.8360 -0.7177
   41MOL0     H 5487   2.096   8.466   9.093  0.8109 -1.9422 -0.1833
   41MOL0     H 5488   2.064   8.495   8.924 -0.7345  1.9162  0.9300
   41MOL0     H 5489   1.877   8.344   9.107  2.1588  0.6199  1.9252
   41MOL0     H 5490   1.853   8.385   8.927  0.4544  1.7145 -1.7305
   41MOL0     H 5491   1.876   8.617   8.972 -0.3788 -1.4446  0.0803
   41MOL0     H 5492   1.882   8.595   9.153 -1.3060 -0.3151  1.4983
   41MOL0     H 5493   1.638   8.493   8.981 -0.4468  0.2176  0.7205
   41MOL0     H 5494   1.655   8.664   9.020 -0.3215 -0.6875 -1.5479
   41MOL0     H 5495   1.551   8.534   9.433 -0.6673  0.1253  1.4900
   41MOL0     H 5496   1.320   8.417   9.588  0.8927 -1.0516 -0.5889
   41MOL0     H 5497   1.425   8.561   9.606 -0.1865 -0.7763  0.0288
   41MOL0     H 5498   1.252   8.585   9.594 -0.3907 -1.2827  1.4032
   41MOL0     H 5499   0.941   8.267   9.555 -1.6448 -0.4787  1.2761
   41MOL0     H 5500   0.714   8.263   9.643 -0.6331  1.2698  0.6629
   41MOL0     H 5501   0.412   8.599   9.623  0.7083  0.4659 -2.2812
   41MOL0     H 5502   0.443   8.531   9.468 -2.7020  3.3695 -0.0056
   41MOL0     H 5503   0.226   8.464   9.507  1.9243  0.7117 -3.0040
   41MOL0     H 5504   0.322   8.317   9.536  2.3146  1.6067 -2.2324
   41MOL0     H 5505   0.330   8.352   9.760  0.5867 -1.4301 -3.2569
   41MOL0     H 5506   0.169   8.315   9.696  0.0859  0.3863 -0.5868
   41MOL0     H 5507   0.264   8.603   9.811 -0.3448  0.1551 -0.9528
   41MOL0     H 5508   0.109   8.578   9.739 -1.0108 -1.6108 -0.5428
   41MOL0     H 5509   0.221   8.459   9.992  2.1172 -3.7839 -2.7183
   41MOL0     H 5510   0.074   8.388   9.930  2.9051 -2.4021  1.4694
   41MOL0     H 5511   0.091   8.683   9.940  0.8064  1.0154  0.8417
   41MOL0     H 5512  -0.057   8.591   9.945  1.4608  0.2813 -2.3912
   41MOL0     H 5513  -0.022   8.682  10.159  1.7620  2.7935 -1.0306
   41MOL0     H 5514   0.145   8.646  10.164  0.3683 -0.8260 -0.3751
   41MOL0     H 5515   0.104   8.392  10.190 -0.3573 -0.0506 -1.2826
   41MOL0     H 5516  -0.071   8.431  10.178 -1.4986  2.1388  2.7214
   41MOL0     H 5517   0.641   8.656   9.495  0.8140 -0.5261 -1.4386
   41MOL0     H 5518   0.869   8.678   9.435 -1.4470 -0.0855  1.3745
   41MOL0     H 5519   1.197   8.498   9.101 -0.8440  0.1225 -0.2399
   41MOL0     H 5520   1.433   8.527   9.024 -1.4191  0.4106 -0.6348
   41MOL0     H 5521   2.634   7.576   8.171  0.9902 -0.0239 -0.9010
   41MOL0     H 5522   2.755   7.371   8.080  0.5145  1.2420  0.0827
   41MOL0     H 5523   3.080   7.070   7.944 -1.9632 -1.2158 -1.5483
   41MOL0     H 5524   3.163   6.846   7.890 -0.4439  0.1004  0.0703
   41MOL0     H 5525   3.112   6.605   7.827  0.6112 -1.7784 -0.7414
   41MOL0     H 5526   3.271   6.642   7.902 -1.2563  0.1993 -2.7577
   41MOL0     H 5527   3.247   6.407   7.824 -1.9029 -2.1624  0.4040
   41MOL0     H 5528   3.120   6.380   7.944  0.3187 -0.8434  0.6328
   41MOL0     H 5529   3.250   6.400   8.131 -1.3347  0.5895 -0.1216
   41MOL0     H 5530   3.382   6.469   8.056 -1.2945  1.5016  0.1247
   41MOL0     H 5531   3.289   6.181   8.028 -1.8387  1.1160 -2.2130
   41MOL0     H 5532   3.445   6.239   8.084  3.1051  3.5142 -1.5072
   41MOL0     H 5533   3.523   6.257   7.668 -0.1821 -1.7182 -0.3590
   41MOL0     H 5534   2.928   6.659   8.185 -1.4016  1.2328  0.5576
   41MOL0     H 5535   2.809   6.890   8.229 -1.1793  0.2405 -1.2771
   42MOL0     O 5536   4.442   5.841   5.633  0.5794  0.0416  0.7375
   42MOL0     C 5537   4.433   5.747   5.712 -0.0049 -0.7376  0.7234
   42MOL0     O 5538   4.323   5.687   5.753 -0.2833  0.3313  0.1340
   42MOL0     C 5539   4.213   5.703   5.672  0.5172  0.1876 -0.3803
   42MOL0     C 5540   4.206   5.657   5.540 -0.5657  1.1934 -0.1782
   42MOL0     C 5541   4.086   5.660   5.469 -0.3345  0.1187 -0.9209
   42MOL0     C 5542   3.964   5.691   5.537  0.2050 -0.2092  0.5887
   42MOL0     O 5543   3.854   5.693   5.449 -0.2628  0.5068 -0.7170
   42MOL0     C 5544   3.729   5.663   5.514  1.1633 -0.3930  0.6655
   42MOL0     C 5545   3.615   5.672   5.411 -0.6129  0.6880 -0.4927
   42MOL0     C 5546   3.493   5.606   5.465  0.4439  0.0377  0.1355
   42MOL0     C 5547   3.488   5.454   5.441 -0.3507 -0.0311  0.1666
   42MOL0     C 5548   3.386   5.382   5.537  0.4822 -0.0377 -0.0699
   42MOL0     C 5549   3.247   5.431   5.503  0.9913  1.0386 -0.0519
   42MOL0     C 5550   3.140   5.340   5.566  0.0412 -0.0773  0.5991
   42MOL0     C 5551   3.114   5.380   5.713  0.7670 -0.2402 -0.4146
   42MOL0     N 5552   3.021   5.291   5.784  0.3729  0.5349 -0.5058
   42MOL0     C 5553   2.882   5.284   5.774 -0.4598 -0.0211  0.0532
   42MOL0     C 5554   2.853   5.188   5.854  1.0873 -0.8991 -0.0506
   42MOL0     C 5555   2.704   5.144   5.890 -0.3507 -0.1809 -0.0978
   42MOL0     C 5556   2.645   5.067   5.771  0.0162  0.3328 -0.9525
   42MOL0     C 5557   2.732   4.942   5.744 -0.5738  0.1520  0.0392
   42MOL0     C 5558   2.692   4.867   5.621 -0.3580 -0.8959  0.2882
   42MOL0     O 5559   2.598   4.761   5.646 -0.3071 -0.1178 -0.0838
   42MOL0     C 5560   2.465   4.775   5.620  0.1251  0.9145  0.9017
   42MOL0     C 5561   2.388   4.652   5.635  0.8516 -0.0939  0.3072
   42MOL0     C 5562   2.248   4.649   5.619  0.5377  0.2003 -0.0044
   42MOL0     C 5563   2.183   4.528   5.670 -0.0665  0.0241  0.2130
   42MOL0     C 5564   2.180   4.764   5.574  0.0366 -0.5078 -0.1939
   42MOL0     C 5565   2.031   4.768   5.562 -0.1083 -1.0013 -0.3725
   42MOL0     O 5566   1.968   4.888   5.526  0.2334  0.2095  0.0966
   42MOL0     C 5567   1.837   4.909   5.481 -0.2429  0.2720  0.2509
   42MOL0     C 5568   1.723   4.822   5.498 -0.4490  0.2665 -0.1303
   42MOL0     C 5569   1.594   4.875   5.470 -0.0698  0.1410  0.1505
   42MOL0     C 5570   1.585   5.004   5.417  0.5596 -0.8877 -0.1216
   42MOL0     O 5571   1.464   5.063   5.406  0.4641  0.3642 -0.1443
   42MOL0     C 5572   1.385   5.030   5.289 -0.3672 -0.0066  0.2549
   42MOL0     C 5573   1.263   5.119   5.283  0.9303 -0.5784 -0.3329
   42MOL0     C 5574   1.162   5.088   5.173  0.2556 -0.1251  0.2832
   42MOL0     C 5575   1.208   5.138   5.040 -0.5772 -0.2675  0.5286
   42MOL0     C 5576   1.117   5.097   4.930  0.0750 -0.3014  0.6967
   42MOL0     C 5577   1.158   5.168   4.802 -0.3532 -0.4828 -0.0920
   42MOL0     C 5578   1.073   5.115   4.689  0.1195  0.0122  0.3842
   42MOL0     C 5579   1.135   5.143   4.552  0.0997 -0.9502  0.2800
   42MOL0    Cl 5580   1.203   5.311   4.533  0.7063 -0.0105 -0.1115
   42MOL0     C 5581   1.699   5.085   5.401  1.1884 -0.3139  0.0098
   42MOL0     C 5582   1.819   5.037   5.435  0.1024 -0.2395  0.0430
   42MOL0     O 5583   1.961   4.664   5.574 -0.2134 -0.1178 -0.5785
   42MOL0     C 5584   2.259   4.880   5.560  0.8075  0.9565  1.4365
   42MOL0     C 5585   2.399   4.882   5.582  0.8486 -1.0474  0.5416
   42MOL0     N 5586   2.964   5.143   5.926 -0.0070 -0.0931  0.2498
   42MOL0     N 5587   3.070   5.200   5.876 -0.8732  0.0902  1.0899
   42MOL0     C 5588   3.969   5.735   5.671 -0.6660  0.3045 -0.3511
   42MOL0     C 5589   4.097   5.739   5.737  0.0579  0.8957 -0.3179
   42MOL0     C 5590   4.558   5.720   5.784  0.2503  0.3236 -0.1199
   42MOL0     C 5591   4.677   5.778   5.749  0.4968 -0.1844 -0.5207
   42MOL0     C 5592   4.792   5.765   5.822 -0.3893 -0.2428 -0.8938
   42MOL0     C 5593   4.790   5.684   5.939 -0.3280  0.2858 -0.6166
   42MOL0     O 5594   4.900   5.659   6.019 -0.3588 -0.3314  0.5330
   42MOL0     C 5595   5.036   5.687   5.979 -0.1051 -0.1559 -0.6327
   42MOL0     C 5596   5.084   5.578   5.886 -0.2309 -0.5732 -0.5669
   42MOL0     C 5597   5.234   5.584   5.860 -1.1277  0.3546 -0.0851
   42MOL0     C 5598   5.276   5.699   5.767 -0.1376 -0.4572 -0.1871
   42MOL0     C 5599   5.421   5.697   5.735 -0.3057  0.1758 -1.0046
   42MOL0     C 5600   5.531   5.704   5.705  0.0807  0.4630 -0.5749
   42MOL0     C 5601   4.670   5.621   5.974 -0.5741  0.1609  0.4940
   42MOL0     C 5602   4.555   5.641   5.901  0.1316  0.1859  0.6726
   42MOL0     H 5603   4.299   5.611   5.507 -0.7801  0.3385  0.3879
   42MOL0     H 5604   4.089   5.624   5.366  1.2722  2.2141 -1.6907
   42MOL0     H 5605   3.734   5.560   5.551 -0.9740 -1.2891 -1.3267
   42MOL0     H 5606   3.697   5.725   5.599  0.3828  0.8104 -0.4807
   42MOL0     H 5607   3.589   5.773   5.379 -1.1491  1.0757  1.0856
   42MOL0     H 5608   3.642   5.629   5.314  0.0080  5.8428 -2.9322
   42MOL0     H 5609   3.481   5.623   5.572 -2.1059  0.4669 -0.1675
   42MOL0     H 5610   3.406   5.653   5.418  0.4597  0.0875  0.1577
   42MOL0     H 5611   3.452   5.423   5.342 -0.6615  1.4451 -0.2137
   42MOL0     H 5612   3.591   5.417   5.435 -0.2184  0.4838 -0.9972
   42MOL0     H 5613   3.386   5.273   5.520 -1.0555  0.0176 -0.5779
   42MOL0     H 5614   3.419   5.401   5.639  1.3231  0.9340 -0.5063
   42MOL0     H 5615   3.231   5.537   5.522  3.4004  1.7083 -1.4242
   42MOL0     H 5616   3.240   5.421   5.394 -1.1304  2.4351 -0.1179
   42MOL0     H 5617   3.044   5.356   5.516  0.2687  1.2938  0.5547
   42MOL0     H 5618   3.170   5.235   5.561  0.7661  0.1554 -0.2471
   42MOL0     H 5619   3.074   5.482   5.707 -2.2874 -1.3099 -0.1297
   42MOL0     H 5620   3.209   5.386   5.767  1.1403  2.8578 -1.1879
   42MOL0     H 5621   2.825   5.338   5.699 -0.8067 -0.9254 -0.3612
   42MOL0     H 5622   2.699   5.077   5.976  1.0599 -0.9477 -0.5901
   42MOL0     H 5623   2.645   5.234   5.913 -0.8268 -0.5906  0.2970
   42MOL0     H 5624   2.650   5.143   5.693  2.8497  1.9503  0.6110
   42MOL0     H 5625   2.545   5.031   5.796 -0.3431 -1.1459 -4.0542
   42MOL0     H 5626   2.736   4.865   5.822  2.5772 -0.3461 -0.4497
   42MOL0     H 5627   2.839   4.965   5.738 -0.6612  0.7866  0.8049
   42MOL0     H 5628   2.785   4.823   5.586  0.3673  1.6437 -1.2453
   42MOL0     H 5629   2.660   4.937   5.543  2.4333 -1.1412 -1.1993
   42MOL0     H 5630   2.439   4.569   5.684  0.2705  0.2837  1.5975
   42MOL0     H 5631   2.127   4.550   5.761 -0.1494  1.4547 -0.1700
   42MOL0     H 5632   2.112   4.480   5.601 -2.0165  1.2172  1.2843
   42MOL0     H 5633   2.264   4.456   5.682 -0.1907 -0.2317 -0.4175
   42MOL0     H 5634   1.734   4.721   5.536 -1.0294  0.7859  1.4727
   42MOL0     H 5635   1.503   4.817   5.476  0.3725 -0.6772 -0.7087
   42MOL0     H 5636   1.447   5.040   5.200 -0.1402 -0.6814  0.3354
   42MOL0     H 5637   1.349   4.926   5.288  1.5720 -0.7428  1.5101
   42MOL0     H 5638   1.212   5.124   5.380  0.0655  3.2778 -0.8157
   42MOL0     H 5639   1.309   5.217   5.268  1.1069 -0.3581  1.4250
   42MOL0     H 5640   1.077   5.147   5.210 -0.0199 -0.4359  0.1491
   42MOL0     H 5641   1.138   4.982   5.180  2.2704 -0.6332  0.0997
   42MOL0     H 5642   1.223   5.246   5.041  0.2806 -0.3641 -0.3804
   42MOL0     H 5643   1.307   5.091   5.033 -1.2548 -1.8743  1.2585
   42MOL0     H 5644   1.016   5.129   4.956  0.2605  2.1680 -1.2808
   42MOL0     H 5645   1.125   4.989   4.912 -0.2940 -0.7669  3.0441
   42MOL0     H 5646   1.149   5.276   4.821  0.8967 -0.7998  2.8443
   42MOL0     H 5647   1.264   5.144   4.786  0.1411  0.3098  1.6752
   42MOL0     H 5648   0.978   5.168   4.682  0.0537 -0.0553  0.7544
   42MOL0     H 5649   1.072   5.006   4.699  1.8698 -0.6263 -3.9004
   42MOL0     H 5650   1.067   5.136   4.467 -0.6432  0.9247  0.6539
   42MOL0     H 5651   1.217   5.071   4.548  1.5576  0.5044  1.8657
   42MOL0     H 5652   1.698   5.181   5.350  0.7935  0.4421  1.4086
   42MOL0     H 5653   1.904   5.101   5.413  0.1957 -0.7653 -1.2416
   42MOL0     H 5654   2.218   4.977   5.533 -0.3993  0.4109  1.2648
   42MOL0     H 5655   2.439   4.983   5.572 -3.1435  0.9726  2.6988
   42MOL0     H 5656   3.878   5.759   5.725 -0.5681 -2.5495  1.2258
   42MOL0     H 5657   4.103   5.755   5.844 -1.6191 -1.4589  0.1912
   42MOL0     H 5658   4.681   5.845   5.664  1.0849 -1.4984 -1.5605
   42MOL0     H 5659   4.875   5.829   5.795 -1.2941  0.9510 -0.9430
   42MOL0     H 5660   5.043   5.787   5.935 -2.0345  0.1573 -0.3109
   42MOL0     H 5661   5.099   5.682   6.068 -0.8482 -2.4172 -0.1608
   42MOL0     H 5662   5.032   5.589   5.791  0.1602  1.4084 -0.5863
   42MOL0     H 5663   5.071   5.476   5.925 -1.3828 -1.2346 -2.5612
   42MOL0     H 5664   5.267   5.491   5.813  1.6141  0.5129  1.3187
   42MOL0     H 5665   5.289   5.593   5.954 -0.2878  4.7102 -0.8015
   42MOL0     H 5666   5.251   5.794   5.816 -1.7141 -0.7761 -0.3027
   42MOL0     H 5667   5.217   5.694   5.675  1.5911  0.6427 -1.4044
   42MOL0     H 5668   5.637   5.701   5.684  0.7005 -2.9350  2.1690
   42MOL0     H 5669   4.676   5.549   6.055 -1.1166  0.8876  1.1961
   42MOL0     H 5670   4.466   5.581   5.916 -1.6720  2.3736 -0.5761
   43MOL0     O 5671   0.258   2.073  11.256  0.1266 -0.0733  1.0923
   43MOL0     C 5672   0.303   1.987  11.176  0.2940 -1.3068 -0.5708
   43MOL0     O 5673   0.250   1.950  11.059 -0.0280 -0.9253  0.0987
   43MOL0     C 5674   0.146   2.031  11.014 -0.2504 -0.2013 -0.6138
   43MOL0     C 5675   0.026   1.976  10.990  0.2245 -0.4084 -0.1430
   43MOL0     C 5676  -0.084   2.047  10.952  0.4241  0.7358  0.3474
   43MOL0     C 5677  -0.071   2.185  10.937 -0.0446 -0.6766 -0.3847
   43MOL0     O 5678  -0.192   2.247  10.918 -0.0136 -0.2358 -0.3712
   43MOL0     C 5679  -0.191   2.336  10.811  0.2227  0.6388  0.9153
   43MOL0     C 5680  -0.333   2.399  10.785  0.0686  0.2521  0.2712
   43MOL0     C 5681  -0.445   2.303  10.744  0.4918 -0.8118  0.6285
   43MOL0     C 5682  -0.581   2.368  10.760  0.3371 -0.2370 -0.5793
   43MOL0     C 5683  -0.692   2.269  10.782 -0.2780 -0.3091 -0.8308
   43MOL0     C 5684  -0.698   2.165  10.673  0.2104  0.1434  0.0938
   43MOL0     C 5685  -0.715   2.220  10.533  0.6290 -0.3459  0.1048
   43MOL0     C 5686  -0.800   2.131  10.439  0.3136 -0.2956 -0.7389
   43MOL0     N 5687  -0.741   1.999  10.425 -1.2564  0.6199  0.6208
   43MOL0     C 5688  -0.796   1.886  10.489  0.3009 -1.2144 -0.7339
   43MOL0     C 5689  -0.707   1.789  10.454 -0.2460  0.0267  0.4023
   43MOL0     C 5690  -0.726   1.641  10.481  0.5335 -0.2691  0.4961
   43MOL0     C 5691  -0.861   1.589  10.412  0.2574  0.1064  0.9499
   43MOL0     C 5692  -0.848   1.437  10.432  0.3686 -1.0612  0.5274
   43MOL0     C 5693  -0.988   1.372  10.414 -0.7538  0.2233 -0.0416
   43MOL0     O 5694  -1.059   1.398  10.540  0.1654  0.0614  0.3964
   43MOL0     C 5695  -1.171   1.333  10.570  0.8731 -0.1107  1.3240
   43MOL0     C 5696  -1.237   1.376  10.686 -0.9062  0.6142  0.0600
   43MOL0     C 5697  -1.360   1.328  10.723  0.2347 -0.2589 -0.7388
   43MOL0     C 5698  -1.416   1.405  10.852  0.9292  0.2035  0.2576
   43MOL0     C 5699  -1.433   1.238  10.652 -0.1126  1.0029  0.4882
   43MOL0     C 5700  -1.559   1.167  10.694 -0.1828 -0.3190  0.0552
   43MOL0     O 5701  -1.617   1.086  10.596  0.6658 -0.1406  0.1948
   43MOL0     C 5702  -1.736   1.026  10.613 -0.5481 -0.2094  0.4333
   43MOL0     C 5703  -1.835   1.052  10.700 -0.2989 -0.7557  0.4694
   43MOL0     C 5704  -1.959   0.985  10.693 -0.5161 -0.8665 -0.2849
   43MOL0     C 5705  -1.985   0.897  10.587 -0.1975 -0.6742 -0.2803
   43MOL0     O 5706  -2.114   0.856  10.578 -0.0916  1.1355 -0.6304
   43MOL0     C 5707  -2.174   0.835  10.446 -0.4021  0.5239  0.2823
   43MOL0     C 5708  -2.322   0.844  10.460 -0.2354  0.1651 -0.0156
   43MOL0     C 5709  -2.390   0.828  10.324 -0.3197  0.2825 -0.4505
   43MOL0     C 5710  -2.531   0.881  10.342 -0.4621  0.0697 -0.2151
   43MOL0     C 5711  -2.621   0.841  10.228 -1.0013  1.1079  0.2564
   43MOL0     C 5712  -2.743   0.931  10.238  0.5441 -0.0942 -0.2028
   43MOL0     C 5713  -2.844   0.896  10.118 -1.0123 -0.2004 -0.3069
   43MOL0     C 5714  -2.956   0.990  10.122  0.0326 -0.2499  0.3375
   43MOL0    Cl 5715  -3.065   0.939   9.990  0.0202  0.4036 -0.7264
   43MOL0     C 5716  -1.882   0.872  10.488 -0.0857 -0.1424  0.8499
   43MOL0     C 5717  -1.761   0.934  10.512 -0.2711  0.3638  0.3687
   43MOL0     O 5718  -1.597   1.182  10.811 -0.4729 -0.3260  0.3585
   43MOL0     C 5719  -1.367   1.193  10.532  0.8017 -0.6063  0.1756
   43MOL0     C 5720  -1.242   1.238  10.488  0.2119 -0.2317  0.4495
   43MOL0     N 5721  -0.605   1.844  10.379  0.1448 -0.3609 -0.3519
   43MOL0     N 5722  -0.622   1.970  10.353  0.3058  0.1697 -0.4569
   43MOL0     C 5723   0.056   2.243  10.944  0.5726  0.0966 -1.2136
   43MOL0     C 5724   0.171   2.172  10.990  0.3821 -0.1578 -0.6402
   43MOL0     C 5725   0.429   1.921  11.206 -0.1846  0.3753 -0.7707
   43MOL0     C 5726   0.491   1.929  11.334  0.3163 -0.6728  0.8152
   43MOL0     C 5727   0.611   1.868  11.366 -0.2052  0.3786 -0.2690
   43MOL0     C 5728   0.683   1.799  11.263 -0.0058 -0.2110 -0.7271
   43MOL0     O 5729   0.791   1.725  11.295 -0.2576 -0.5087 -0.2750
   43MOL0     C 5730   0.823   1.693  11.436  0.1236 -0.1042 -0.0401
   43MOL0     C 5731   0.947   1.610  11.438 -0.1230  0.0492 -0.4132
   43MOL0     C 5732   0.985   1.562  11.584  0.1988  0.7341 -0.1801
   43MOL0     C 5733   1.127   1.507  11.597  0.1404  0.7955 -0.0735
   43MOL0     C 5734   1.156   1.371  11.546  0.2781 -0.6438  0.4015
   43MOL0     C 5735   1.191   1.265  11.523  1.0063  0.4888 -0.1696
   43MOL0     C 5736   0.623   1.779  11.141  0.5994  1.2045  0.7601
   43MOL0     C 5737   0.501   1.844  11.112 -0.3927 -0.2529  0.6830
   43MOL0     H 5738   0.020   1.873  11.023 -0.9588 -0.7779 -1.3896
   43MOL0     H 5739  -0.185   2.007  10.957  0.9358 -1.1120 -2.0008
   43MOL0     H 5740  -0.127   2.420  10.838 -0.0001  0.8572  0.7799
   43MOL0     H 5741  -0.153   2.279  10.725 -1.1675 -1.3934  1.5630
   43MOL0     H 5742  -0.351   2.466  10.870  1.0952  0.7544  0.1044
   43MOL0     H 5743  -0.325   2.470  10.702 -0.8835  0.3207  0.2278
   43MOL0     H 5744  -0.427   2.303  10.636 -2.3509  2.4960 -0.0112
   43MOL0     H 5745  -0.448   2.203  10.788  2.6408 -1.4383 -0.4999
   43MOL0     H 5746  -0.580   2.423  10.855 -3.4090  1.8251 -1.5530
   43MOL0     H 5747  -0.603   2.434  10.676  2.5918 -0.1544 -1.1781
   43MOL0     H 5748  -0.695   2.223  10.882 -2.3240  0.2964 -0.5659
   43MOL0     H 5749  -0.784   2.328  10.769  0.7542  1.5645 -0.0335
   43MOL0     H 5750  -0.604   2.111  10.667  0.6672  0.7956  1.1567
   43MOL0     H 5751  -0.790   2.106  10.684 -1.8297  2.8627 -1.1626
   43MOL0     H 5752  -0.758   2.321  10.534  3.3614  0.9296 -0.9779
   43MOL0     H 5753  -0.615   2.227  10.489  0.4580 -1.3901 -0.4897
   43MOL0     H 5754  -0.805   2.171  10.337 -0.2405  2.0314  0.1259
   43MOL0     H 5755  -0.907   2.131  10.463  0.5284 -0.3526  0.2731
   43MOL0     H 5756  -0.886   1.879  10.549 -0.9373  3.0171 -1.7942
   43MOL0     H 5757  -0.641   1.593  10.432  1.5503  1.8149  0.1072
   43MOL0     H 5758  -0.730   1.618  10.588 -3.2529 -1.4341  0.2521
   43MOL0     H 5759  -0.877   1.614  10.307 -1.6775 -1.4161  0.8143
   43MOL0     H 5760  -0.943   1.635  10.468 -1.7053  0.1252 -1.7671
   43MOL0     H 5761  -0.818   1.427  10.536 -1.2676 -0.5589  1.0736
   43MOL0     H 5762  -0.782   1.404  10.351 -0.5514  4.9876 -3.4424
   43MOL0     H 5763  -0.974   1.264  10.420  0.7893  0.4829  2.9656
   43MOL0     H 5764  -1.043   1.404  10.325 -2.2082  0.1055  0.7778
   43MOL0     H 5765  -1.181   1.444  10.749  2.9795 -1.3394 -0.9501
   43MOL0     H 5766  -1.383   1.365  10.948 -0.2320  1.5174  1.2495
   43MOL0     H 5767  -1.392   1.511  10.842  2.7947 -0.3338 -1.7444
   43MOL0     H 5768  -1.525   1.390  10.850  0.5968  2.2850 -1.5835
   43MOL0     H 5769  -1.815   1.126  10.777 -0.4151  0.6072 -0.7646
   43MOL0     H 5770  -2.034   1.014  10.767  0.3086  1.2898 -0.2216
   43MOL0     H 5771  -2.136   0.916  10.384  2.3674 -1.4168 -0.7606
   43MOL0     H 5772  -2.159   0.734  10.406  0.3154  0.6559  0.2160
   43MOL0     H 5773  -2.366   0.769  10.527 -0.3294  0.4823  0.2845
   43MOL0     H 5774  -2.345   0.944  10.499 -0.7035 -0.1219  0.4542
   43MOL0     H 5775  -2.389   0.726  10.285  1.9366  0.6189 -1.3824
   43MOL0     H 5776  -2.332   0.879  10.247  0.8609 -2.2240 -1.3288
   43MOL0     H 5777  -2.576   0.862  10.440  0.8334  1.9574  0.8102
   43MOL0     H 5778  -2.515   0.989  10.339  1.4797 -0.1974 -1.7823
   43MOL0     H 5779  -2.660   0.741  10.245  0.5193  0.5879  0.9013
   43MOL0     H 5780  -2.574   0.851  10.130 -2.2144 -3.0084 -0.9027
   43MOL0     H 5781  -2.793   0.932  10.335 -0.3524  2.5997 -0.6032
   43MOL0     H 5782  -2.709   1.031  10.208 -2.5133  1.1630  0.1714
   43MOL0     H 5783  -2.884   0.795  10.131  1.0118 -0.9341  0.6859
   43MOL0     H 5784  -2.787   0.914  10.026  2.9341 -0.1220  1.9288
   43MOL0     H 5785  -2.917   1.091  10.108  2.8776 -0.9569  2.2023
   43MOL0     H 5786  -3.009   0.988  10.218  0.2402  1.6585  0.5301
   43MOL0     H 5787  -1.891   0.803  10.404  1.5604  0.0630  0.4811
   43MOL0     H 5788  -1.674   0.916  10.449  0.4343  0.7367  1.2057
   43MOL0     H 5789  -1.417   1.116  10.473 -2.7736  0.7385  1.2058
   43MOL0     H 5790  -1.199   1.201  10.396 -1.2462 -0.8640 -0.0044
   43MOL0     H 5791   0.066   2.347  10.914 -1.8504  0.9246  0.5493
   43MOL0     H 5792   0.266   2.224  10.998 -0.0438  0.6286 -0.5642
   43MOL0     H 5793   0.427   1.980  11.405 -1.9907 -0.1281 -1.4963
   43MOL0     H 5794   0.667   1.896  11.454  3.2688  2.1991 -2.8219
   43MOL0     H 5795   0.838   1.784  11.494  1.2492 -0.7294  0.6851
   43MOL0     H 5796   0.746   1.635  11.487 -0.8830  1.4230  0.2442
   43MOL0     H 5797   1.033   1.660  11.394  1.5468 -3.2032 -1.1973
   43MOL0     H 5798   0.936   1.526  11.369 -3.5738 -0.1656  0.2175
   43MOL0     H 5799   0.918   1.481  11.612  0.9282 -0.3899 -1.5440
   43MOL0     H 5800   0.977   1.643  11.657  2.3273  0.5261  0.3406
   43MOL0     H 5801   1.139   1.508  11.705 -1.0819  0.8998  0.0673
   43MOL0     H 5802   1.198   1.583  11.561  2.0521 -0.7036  0.4071
   43MOL0     H 5803   1.224   1.163  11.515 -2.5837 -0.7206 -1.6595
   43MOL0     H 5804   0.666   1.701  11.080  0.3847  1.8400 -0.2378
   43MOL0     H 5805   0.470   1.817  11.012  0.9037  3.2210 -0.8169
   44MOL0     O 5806   1.583  10.536   9.993 -0.3140 -0.4088  0.5985
   44MOL0     C 5807   1.495  10.562  10.075  0.3854 -0.2873 -0.4729
   44MOL0     O 5808   1.512  10.564  10.213  0.3105 -0.0525  0.5781
   44MOL0     C 5809   1.635  10.549  10.272  0.0145  0.0836 -0.4615
   44MOL0     C 5810   1.700  10.427  10.248 -0.3022 -0.3210 -0.1875
   44MOL0     C 5811   1.824  10.399  10.305 -0.6032  0.5301 -0.2588
   44MOL0     C 5812   1.894  10.499  10.377 -0.2527  0.1896  0.8055
   44MOL0     O 5813   2.020  10.467  10.426  0.0310 -0.3257 -0.0356
   44MOL0     C 5814   2.107  10.574  10.479  0.5887 -0.3685  0.3948
   44MOL0     C 5815   2.144  10.562  10.621 -0.7452 -0.3993  0.0544
   44MOL0     C 5816   2.018  10.547  10.717 -0.4808 -0.0908 -0.5057
   44MOL0     C 5817   2.049  10.565  10.863 -1.1859  0.0498  0.1253
   44MOL0     C 5818   1.933  10.513  10.954  0.5417  0.3134  0.4593
   44MOL0     C 5819   1.809  10.612  10.944 -0.4140 -0.0963 -0.1516
   44MOL0     C 5820   1.711  10.594  11.060 -0.2168  0.3055 -0.7564
   44MOL0     C 5821   1.622  10.475  11.038 -0.6078 -0.3302 -0.0413
   44MOL0     N 5822   1.481  10.502  11.075 -0.3812 -0.9057 -0.1867
   44MOL0     C 5823   1.411  10.604  11.002 -0.7593  0.6551 -0.1910
   44MOL0     C 5824   1.282  10.601  11.037  0.7324  0.3407  0.1768
   44MOL0     C 5825   1.180  10.713  11.004  0.5267  0.6170  0.2791
   44MOL0     C 5826   1.082  10.753  11.112  0.6428  0.5886  1.0826
   44MOL0     C 5827   1.017  10.638  11.185 -0.4173  0.7747  0.4994
   44MOL0     C 5828   0.885  10.667  11.256 -0.6066  0.4513  0.2004
   44MOL0     O 5829   0.790  10.679  11.149  0.1360  0.0494  1.0785
   44MOL0     C 5830   0.653  10.706  11.173 -0.3993  0.4358 -0.0027
   44MOL0     C 5831   0.575  10.698  11.055  0.1758 -0.1712  0.3619
   44MOL0     C 5832   0.436  10.693  11.061 -0.2097  0.0401  0.3512
   44MOL0     C 5833   0.358  10.678  10.928  0.7612  0.1666  0.8007
   44MOL0     C 5834   0.370  10.702  11.189  0.0821 -0.2991 -0.3773
   44MOL0     C 5835   0.220  10.702  11.210 -0.4672  0.3504 -0.2860
   44MOL0     O 5836   0.165  10.762  11.326 -0.1275 -0.1776  0.4546
   44MOL0     C 5837   0.030  10.779  11.336 -0.3175 -0.4660  0.1737
   44MOL0     C 5838  -0.053  10.670  11.365 -0.5083 -0.1070  0.1512
   44MOL0     C 5839  -0.191  10.689  11.371 -0.5031  0.1014  0.4767
   44MOL0     C 5840  -0.246  10.814  11.369  0.2068 -0.5144 -0.0561
   44MOL0     O 5841  -0.380  10.827  11.415  0.0724  0.1523  0.0344
   44MOL0     C 5842  -0.454  10.724  11.475  0.1495 -0.3540 -0.2333
   44MOL0     C 5843  -0.600  10.763  11.484 -0.5080  0.0286  0.2718
   44MOL0     C 5844  -0.695  10.644  11.503  0.1911 -0.2053  0.5188
   44MOL0     C 5845  -0.838  10.684  11.510 -0.3596 -0.2986  0.0343
   44MOL0     C 5846  -0.945  10.573  11.527  0.3938  0.0930  0.1107
   44MOL0     C 5847  -1.084  10.623  11.490 -0.0609  0.4154 -0.2744
   44MOL0     C 5848  -1.197  10.534  11.537 -0.2740  0.3358 -0.2542
   44MOL0     C 5849  -1.330  10.600  11.495  0.6902 -0.5187  0.1144
   44MOL0    Cl 5850  -1.353  10.601  11.319  0.1720  0.3691  0.0111
   44MOL0     C 5851  -0.165  10.922  11.334 -0.7152 -0.7123 -1.1749
   44MOL0     C 5852  -0.023  10.904  11.324 -0.3983  0.0940  0.9418
   44MOL0     O 5853   0.152  10.655  11.125  0.0279  0.1249 -0.1366
   44MOL0     C 5854   0.452  10.708  11.307  0.3471  0.0895 -0.5148
   44MOL0     C 5855   0.587  10.715  11.295 -0.7193  0.3921 -0.2312
   44MOL0     N 5856   1.265  10.491  11.121 -0.4908  0.2906  0.5212
   44MOL0     N 5857   1.385  10.437  11.146 -0.4457  0.4308 -0.0648
   44MOL0     C 5858   1.832  10.618  10.412  0.2440  0.1020 -0.1351
   44MOL0     C 5859   1.708  10.639  10.355 -0.1043  0.4416  0.0993
   44MOL0     C 5860   1.347  10.562  10.031 -0.5678 -0.0293 -0.1830
   44MOL0     C 5861   1.306  10.535   9.897 -0.2977  0.1029 -0.5891
   44MOL0     C 5862   1.169  10.551   9.874  0.1337  0.1563  0.6049
   44MOL0     C 5863   1.071  10.587   9.970 -0.1778 -0.1461  0.6468
   44MOL0     O 5864   0.935  10.607   9.945  0.0605  0.5884  0.1957
   44MOL0     C 5865   0.898  10.619   9.807 -0.7898  0.2883 -0.1715
   44MOL0     C 5866   0.746  10.633   9.786  0.6258 -0.5423  0.2995
   44MOL0     C 5867   0.663  10.529   9.857  0.5442  0.4016 -0.4418
   44MOL0     C 5868   0.510  10.538   9.827 -0.4437 -0.7476  0.3387
   44MOL0     C 5869   0.463  10.551   9.684  0.1223 -0.3989  0.5757
   44MOL0     C 5870   0.418  10.587   9.575  0.4311  0.3465 -0.2466
   44MOL0     C 5871   1.116  10.613  10.097  0.1007  0.1992  0.2325
   44MOL0     C 5872   1.257  10.599  10.132  1.0585 -0.4159  0.1510
   44MOL0     H 5873   1.655  10.346  10.191  0.1311 -0.3313 -0.5195
   44MOL0     H 5874   1.879  10.307  10.285  1.4333  1.2828  1.5784
   44MOL0     H 5875   2.203  10.577  10.426  0.3142 -2.1997 -0.2540
   44MOL0     H 5876   2.069  10.673  10.453  2.0009 -0.0479 -0.6188
   44MOL0     H 5877   2.195  10.466  10.622 -0.6166 -0.4429 -2.7222
   44MOL0     H 5878   2.217  10.634  10.659  0.8768 -2.0611  0.1999
   44MOL0     H 5879   1.933  10.611  10.692 -2.1063 -2.5604 -1.5939
   44MOL0     H 5880   1.979  10.445  10.711 -0.3315 -0.3990  2.6059
   44MOL0     H 5881   2.134  10.498  10.880 -0.5692  1.0856  1.2583
   44MOL0     H 5882   2.081  10.668  10.880 -0.0169 -0.5117  1.5910
   44MOL0     H 5883   1.909  10.407  10.937  2.0335  0.1443 -0.8664
   44MOL0     H 5884   1.964  10.514  11.059  0.1775  1.1427  0.5649
   44MOL0     H 5885   1.855  10.711  10.945 -2.0158  0.7193 -2.0131
   44MOL0     H 5886   1.753  10.611  10.850 -0.2929  0.5442 -0.2294
   44MOL0     H 5887   1.765  10.585  11.154  1.0121 -0.5625 -1.5159
   44MOL0     H 5888   1.649  10.684  11.064  0.0116  0.4195  1.2153
   44MOL0     H 5889   1.653  10.389  11.099  2.1420  0.8662  0.4129
   44MOL0     H 5890   1.615  10.455  10.930  1.3676 -1.2290 -0.0504
   44MOL0     H 5891   1.459  10.676  10.937  0.1047 -0.7544 -1.1903
   44MOL0     H 5892   1.230  10.803  10.967  1.1262 -1.2647 -4.1496
   44MOL0     H 5893   1.117  10.676  10.923 -1.8802  1.4580  1.6656
   44MOL0     H 5894   1.004  10.802  11.053  0.7858 -2.1270 -1.6323
   44MOL0     H 5895   1.131  10.810  11.191 -2.6939 -0.9079  4.5398
   44MOL0     H 5896   1.085  10.605  11.264 -0.1715 -0.8568 -0.3412
   44MOL0     H 5897   1.005  10.553  11.118 -1.4750  0.7520  0.6914
   44MOL0     H 5898   0.908  10.754  11.318  0.0407  0.3316  0.1343
   44MOL0     H 5899   0.864  10.586  11.327  1.7605 -1.5515 -1.2078
   44MOL0     H 5900   0.631  10.693  10.962  3.2032 -0.5643  2.0483
   44MOL0     H 5901   0.267  10.739  10.925 -0.3496 -1.4253 -2.2923
   44MOL0     H 5902   0.411  10.695  10.834 -1.6793  1.4300 -0.4780
   44MOL0     H 5903   0.320  10.576  10.920 -0.1830  0.5961 -0.9187
   44MOL0     H 5904  -0.016  10.570  11.386 -0.0940 -0.8671 -3.5148
   44MOL0     H 5905  -0.262  10.607  11.378 -0.2944  0.0274  2.1263
   44MOL0     H 5906  -0.453  10.632  11.416 -1.2503  0.5038 -1.6917
   44MOL0     H 5907  -0.420  10.715  11.578 -0.6368  2.7172  0.4101
   44MOL0     H 5908  -0.622  10.824  11.571 -3.9394  0.1055 -0.4788
   44MOL0     H 5909  -0.636  10.823  11.400 -1.6998  0.6216  1.1705
   44MOL0     H 5910  -0.668  10.586  11.591 -1.2697 -1.4364  0.1927
   44MOL0     H 5911  -0.701  10.578  11.416  0.8956 -0.4146  0.6237
   44MOL0     H 5912  -0.845  10.754  11.594  0.3214 -1.7579  1.3541
   44MOL0     H 5913  -0.862  10.746  11.424 -1.7067  2.4937  2.2271
   44MOL0     H 5914  -0.937  10.531  11.628  2.3207 -1.2946 -0.5490
   44MOL0     H 5915  -0.921  10.485  11.467  3.1406 -0.6726  2.1070
   44MOL0     H 5916  -1.091  10.725  11.531  0.0204  0.7477 -1.0650
   44MOL0     H 5917  -1.084  10.628  11.381  1.9119  0.3383 -0.3139
   44MOL0     H 5918  -1.195  10.517  11.645 -2.8307 -0.9395 -0.3282
   44MOL0     H 5919  -1.186  10.430  11.503 -0.6372 -0.2870  1.4322
   44MOL0     H 5920  -1.335  10.703  11.531 -0.9119 -1.1408  1.8374
   44MOL0     H 5921  -1.411  10.539  11.536  2.2531 -2.8420 -0.0492
   44MOL0     H 5922  -0.207  11.022  11.334 -1.2008 -0.9000 -0.1467
   44MOL0     H 5923   0.031  10.997  11.312 -2.5248  1.6347  2.5842
   44MOL0     H 5924   0.405  10.711  11.405  0.8118 -1.7879 -0.1997
   44MOL0     H 5925   0.645  10.721  11.387 -1.8453  0.5435  0.4927
   44MOL0     H 5926   1.874  10.695  10.475  5.1242  0.2109 -3.0425
   44MOL0     H 5927   1.674  10.741  10.373  1.3570  0.8024  0.9400
   44MOL0     H 5928   1.367  10.497   9.816  3.4285  1.4420  1.3903
   44MOL0     H 5929   1.123  10.512   9.784 -2.0367  0.9301  1.3202
   44MOL0     H 5930   0.950  10.704   9.761  0.0702 -0.2337 -0.1952
   44MOL0     H 5931   0.936  10.533   9.751  0.3957  0.6107  0.0955
   44MOL0     H 5932   0.738  10.617   9.678 -2.7936 -0.6360  0.4617
   44MOL0     H 5933   0.713  10.731   9.822 -1.3816 -0.1923 -2.2432
   44MOL0     H 5934   0.676  10.555   9.963  0.8484 -0.7555 -0.1768
   44MOL0     H 5935   0.688  10.424   9.837  0.6336  0.3902 -0.2709
   44MOL0     H 5936   0.472  10.627   9.878  0.8352 -0.3038  0.5363
   44MOL0     H 5937   0.446  10.455   9.859 -0.7686 -0.4642  0.4393
   44MOL0     H 5938   0.385  10.628   9.482 -0.6663  2.7607  1.1195
   44MOL0     H 5939   1.045  10.641  10.175 -0.0400 -1.4440  0.7304
   44MOL0     H 5940   1.277  10.639  10.230 -1.4495  0.7997  0.2644
   45MOL0     O 5941   5.438   1.835   5.217 -0.1748 -0.3465  0.0423
   45MOL0     C 5942   5.350   1.813   5.131  0.9664  0.0340 -0.7498
   45MOL0     O 5943   5.218   1.808   5.155  0.5759  0.1734  0.1212
   45MOL0     C 5944   5.166   1.854   5.271  0.3116  0.6106 -0.9603
   45MOL0     C 5945   5.048   1.789   5.315 -0.5416 -0.7633  0.1234
   45MOL0     C 5946   4.997   1.824   5.439  0.4951  0.0431 -0.0525
   45MOL0     C 5947   5.057   1.921   5.525  0.1880  0.5861  0.3252
   45MOL0     O 5948   5.004   1.945   5.644  0.2778  0.0594  0.4870
   45MOL0     C 5949   4.998   1.850   5.747 -0.7974  0.0901  0.0498
   45MOL0     C 5950   4.864   1.873   5.825  0.2959 -1.3017  0.3532
   45MOL0     C 5951   4.828   1.754   5.908 -0.0689 -0.3934  0.2968
   45MOL0     C 5952   4.719   1.778   6.010 -0.3071  0.1888  0.0872
   45MOL0     C 5953   4.682   1.655   6.095  1.1711  0.3563 -0.0901
   45MOL0     C 5954   4.558   1.681   6.180 -0.7669 -0.0180 -0.0710
   45MOL0     C 5955   4.537   1.575   6.281  0.1570  0.6572 -0.2249
   45MOL0     C 5956   4.400   1.569   6.343 -0.2195 -0.1839 -0.1328
   45MOL0     N 5957   4.294   1.537   6.251 -0.2113  0.3858 -0.4805
   45MOL0     C 5958   4.208   1.621   6.188 -0.6292  0.0738 -0.4566
   45MOL0     C 5959   4.158   1.552   6.085  0.0905  0.7644  0.0794
   45MOL0     C 5960   4.085   1.599   5.961 -0.5216 -0.4879 -0.2656
   45MOL0     C 5961   3.939   1.593   5.979 -0.2203  0.4035  0.6122
   45MOL0     C 5962   3.888   1.454   6.018 -0.0893 -0.0039 -0.4654
   45MOL0     C 5963   3.738   1.442   6.005  0.5134 -0.2363  0.1323
   45MOL0     O 5964   3.669   1.536   6.097  0.7788  0.3067  0.0879
   45MOL0     C 5965   3.533   1.533   6.092 -0.1595  0.5706  0.4807
   45MOL0     C 5966   3.471   1.629   6.168  0.4388  0.8160 -0.2687
   45MOL0     C 5967   3.333   1.651   6.162  0.0403  0.9375 -0.6206
   45MOL0     C 5968   3.287   1.751   6.260  0.0473 -0.4198 -0.2496
   45MOL0     C 5969   3.244   1.573   6.072 -0.6613  0.3020 -0.2944
   45MOL0     C 5970   3.100   1.580   6.070  1.0070  0.0469 -0.0309
   45MOL0     O 5971   3.026   1.683   6.138  0.0002 -0.9446 -0.5334
   45MOL0     C 5972   2.889   1.701   6.114 -0.3799  0.0727  0.4822
   45MOL0     C 5973   2.832   1.828   6.114  0.0169 -0.3703  0.1761
   45MOL0     C 5974   2.690   1.841   6.082  0.4292 -0.1516  0.1390
   45MOL0     C 5975   2.612   1.732   6.075  0.0324 -0.0989 -0.6334
   45MOL0     O 5976   2.479   1.751   6.056 -0.8532 -0.3518 -0.2865
   45MOL0     C 5977   2.386   1.638   6.034 -0.2432 -0.1384  0.1307
   45MOL0     C 5978   2.252   1.684   5.980 -0.7308  0.0572 -0.5173
   45MOL0     C 5979   2.185   1.768   6.084 -0.2926  0.4642  0.3062
   45MOL0     C 5980   2.039   1.799   6.043 -0.0720 -0.9745  0.5756
   45MOL0     C 5981   1.953   1.874   6.150 -0.9589  0.0329 -0.3128
   45MOL0     C 5982   1.805   1.825   6.124 -0.1106  0.2925 -0.1050
   45MOL0     C 5983   1.715   1.899   6.229  0.0369 -0.1003  0.0319
   45MOL0     C 5984   1.573   1.855   6.205  0.9066  0.1014 -0.2614
   45MOL0    Cl 5985   1.547   1.682   6.215 -0.1358  0.0967 -0.2749
   45MOL0     C 5986   2.661   1.601   6.093 -0.7067 -0.2288  0.6201
   45MOL0     C 5987   2.800   1.594   6.108 -0.0538 -0.2847 -0.1703
   45MOL0     O 5988   3.052   1.485   6.009  0.2730 -0.3166  0.4182
   45MOL0     C 5989   3.311   1.466   6.002 -0.4253  0.0473 -0.7137
   45MOL0     C 5990   3.451   1.438   6.017 -0.9292 -0.8026  1.1980
   45MOL0     N 5991   4.205   1.426   6.096 -0.5936 -0.0794 -0.6782
   45MOL0     N 5992   4.283   1.409   6.201 -0.0515 -0.1901 -0.3411
   45MOL0     C 5993   5.163   1.990   5.475 -0.2694 -0.2699 -0.4936
   45MOL0     C 5994   5.210   1.963   5.348 -0.1207 -0.3747 -0.1100
   45MOL0     C 5995   5.388   1.798   4.995 -0.3742 -0.1042  0.2300
   45MOL0     C 5996   5.519   1.824   4.953  0.2089 -0.1112  0.0457
   45MOL0     C 5997   5.553   1.815   4.818  0.2153 -0.8700  0.8961
   45MOL0     C 5998   5.453   1.779   4.720 -0.3119 -1.0826  0.3072
   45MOL0     O 5999   5.457   1.777   4.582  0.2598 -0.0632 -0.0174
   45MOL0     C 6000   5.586   1.777   4.527 -0.2058  0.2540 -0.1920
   45MOL0     C 6001   5.587   1.720   4.379  0.0134  0.2038 -0.3478
   45MOL0     C 6002   5.473   1.784   4.294 -0.3200 -0.1893  0.5682
   45MOL0     C 6003   5.481   1.754   4.140  0.8271  0.4668 -0.4694
   45MOL0     C 6004   5.608   1.793   4.085 -0.3594  0.1811  0.5452
   45MOL0     C 6005   5.713   1.829   4.041  0.6758  0.0565 -0.3096
   45MOL0     C 6006   5.325   1.744   4.770 -0.4189  1.0042 -0.0588
   45MOL0     C 6007   5.291   1.752   4.904  0.2098 -0.1448  0.1934
   45MOL0     H 6008   5.001   1.712   5.254  1.0163 -1.1610 -0.6330
   45MOL0     H 6009   4.908   1.770   5.468  0.2938 -0.3719 -1.3666
   45MOL0     H 6010   4.989   1.750   5.705 -1.0640  1.0717 -2.3928
   45MOL0     H 6011   5.088   1.854   5.808 -0.2403  0.7013 -0.7893
   45MOL0     H 6012   4.865   1.967   5.882 -1.8494 -0.1288 -1.3494
   45MOL0     H 6013   4.774   1.881   5.763  2.3052  2.6400 -2.4659
   45MOL0     H 6014   4.805   1.670   5.842  0.1022  0.7055 -1.2082
   45MOL0     H 6015   4.917   1.730   5.967 -0.7377 -0.5743  1.2552
   45MOL0     H 6016   4.744   1.863   6.074 -1.6390  0.9162 -0.3158
   45MOL0     H 6017   4.629   1.806   5.955 -0.0661  1.0921  0.1394
   45MOL0     H 6018   4.663   1.574   6.024  1.2607  1.6288 -1.6172
   45MOL0     H 6019   4.765   1.630   6.162  0.7376  0.3049  0.4333
   45MOL0     H 6020   4.569   1.778   6.228 -0.9047  0.0088 -0.0930
   45MOL0     H 6021   4.466   1.688   6.121 -1.0201  0.9147  0.4155
   45MOL0     H 6022   4.546   1.475   6.238 -3.7905  0.8403 -1.8976
   45MOL0     H 6023   4.617   1.587   6.355  2.1117  2.8261 -2.4797
   45MOL0     H 6024   4.387   1.664   6.395 -1.3793  0.0082 -0.7359
   45MOL0     H 6025   4.397   1.504   6.432  1.7058  1.3127  1.1113
   45MOL0     H 6026   4.196   1.729   6.199  2.0239  0.5349 -1.3725
   45MOL0     H 6027   4.115   1.704   5.946 -0.2344 -0.7128 -1.3735
   45MOL0     H 6028   4.101   1.551   5.864 -1.2736  1.7524 -1.5855
   45MOL0     H 6029   3.896   1.617   5.882  0.0961 -0.6305  0.2005
   45MOL0     H 6030   3.904   1.671   6.047 -1.7340 -1.6721  2.3488
   45MOL0     H 6031   3.913   1.454   6.124  1.0556 -1.3527 -0.7039
   45MOL0     H 6032   3.939   1.371   5.968 -0.5697 -0.7034  0.1676
   45MOL0     H 6033   3.709   1.338   6.022 -0.5431 -0.2457 -1.4432
   45MOL0     H 6034   3.720   1.469   5.900  1.1190  0.5720  0.2276
   45MOL0     H 6035   3.527   1.693   6.236  0.5558 -0.0070  0.4261
   45MOL0     H 6036   3.246   1.699   6.347 -0.2868 -0.8452 -0.6533
   45MOL0     H 6037   3.369   1.820   6.282  0.5676 -0.6089 -1.4828
   45MOL0     H 6038   3.216   1.823   6.219  0.6521 -0.6217 -1.7151
   45MOL0     H 6039   2.896   1.915   6.121 -1.5003  1.0186 -1.8673
   45MOL0     H 6040   2.635   1.932   6.062 -0.7450 -0.8814 -0.0166
   45MOL0     H 6041   2.430   1.570   5.961 -0.2838 -0.6814  0.6057
   45MOL0     H 6042   2.369   1.584   6.128 -1.5660  0.1546  0.0721
   45MOL0     H 6043   2.273   1.738   5.888  1.5905  1.1372  0.5629
   45MOL0     H 6044   2.185   1.598   5.964 -2.7676  0.9934  2.0398
   45MOL0     H 6045   2.244   1.860   6.086  0.6474  0.0828 -3.1178
   45MOL0     H 6046   2.183   1.726   6.185  1.4789  0.6727  0.4632
   45MOL0     H 6047   2.044   1.856   5.950  4.6803 -2.2068 -0.1696
   45MOL0     H 6048   1.989   1.706   6.013 -2.3254 -0.1508  1.5858
   45MOL0     H 6049   1.962   1.983   6.138 -0.3746 -0.1079 -1.2255
   45MOL0     H 6050   1.977   1.846   6.252  1.5189 -1.4954 -1.2222
   45MOL0     H 6051   1.789   1.854   6.020  1.2456 -0.6669 -0.6168
   45MOL0     H 6052   1.801   1.716   6.138  1.9146 -0.4696 -3.8256
   45MOL0     H 6053   1.715   2.007   6.211 -2.7133  0.1528  1.0983
   45MOL0     H 6054   1.744   1.887   6.334  2.2859 -1.8135 -0.7071
   45MOL0     H 6055   1.532   1.901   6.114  1.7762  2.2885  0.3819
   45MOL0     H 6056   1.516   1.899   6.288  1.0226 -2.5062  1.3158
   45MOL0     H 6057   2.601   1.510   6.090 -1.3079  0.1258  1.4763
   45MOL0     H 6058   2.840   1.493   6.116  1.3864  0.4284  2.6524
   45MOL0     H 6059   3.260   1.388   5.946 -1.8032  0.3760  0.0403
   45MOL0     H 6060   3.503   1.353   5.974  2.5845  0.8539  1.7667
   45MOL0     H 6061   5.196   2.073   5.536 -1.7133 -0.2503  0.2950
   45MOL0     H 6062   5.283   2.035   5.312 -0.3462  1.1430  2.2121
   45MOL0     H 6063   5.592   1.866   5.021 -0.4025 -1.9978  1.9914
   45MOL0     H 6064   5.655   1.846   4.798 -0.3467 -0.4571 -1.6524
   45MOL0     H 6065   5.621   1.881   4.535 -0.9350  0.4335  0.8484
   45MOL0     H 6066   5.660   1.715   4.578 -1.3538 -0.9688  0.0393
   45MOL0     H 6067   5.568   1.612   4.370 -0.4470  0.3683 -1.4196
   45MOL0     H 6068   5.688   1.745   4.347  0.1961  0.7922  0.6371
   45MOL0     H 6069   5.476   1.893   4.309  1.9674 -0.1646  0.1767
   45MOL0     H 6070   5.384   1.740   4.341 -0.4142 -0.5213  0.0861
   45MOL0     H 6071   5.401   1.817   4.099 -0.5953 -1.9871 -1.6590
   45MOL0     H 6072   5.457   1.649   4.124  2.1961 -0.0776  0.8560
   45MOL0     H 6073   5.792   1.886   3.998  0.8806  0.2059  0.2630
   45MOL0     H 6074   5.250   1.720   4.696 -1.4423 -0.5247  1.4139
   45MOL0     H 6075   5.192   1.729   4.940 -0.3615  0.0384 -1.2116
   46MOL0     O 6076  10.306   6.471   1.372  0.2204  1.0339  0.0816
   46MOL0     C 6077  10.364   6.468   1.263 -0.0781 -0.7033  0.4180
   46MOL0     O 6078  10.313   6.520   1.148 -0.1483 -0.1655  0.2399
   46MOL0     C 6079  10.185   6.565   1.131 -1.1665  0.7862 -0.2972
   46MOL0     C 6080  10.076   6.517   1.209  0.2758 -0.1384 -0.0215
   46MOL0     C 6081   9.946   6.572   1.187 -0.3303  0.2237 -0.7602
   46MOL0     C 6082   9.920   6.651   1.079 -0.9194 -0.5024 -0.1538
   46MOL0     O 6083   9.792   6.693   1.046 -0.0088 -0.4193 -0.5395
   46MOL0     C 6084   9.735   6.634   0.930 -0.1599 -0.4403  0.0797
   46MOL0     C 6085   9.614   6.722   0.882 -0.0211  0.8790 -0.4051
   46MOL0     C 6086   9.509   6.772   0.987  0.4570 -0.4425 -0.0942
   46MOL0     C 6087   9.391   6.831   0.920  0.2056  0.1794 -0.2388
   46MOL0     C 6088   9.272   6.863   1.012  0.2884  0.4006  0.1158
   46MOL0     C 6089   9.314   6.969   1.125  0.7519  0.2042 -0.3591
   46MOL0     C 6090   9.384   7.096   1.066  0.1659  0.6462  0.2876
   46MOL0     C 6091   9.407   7.203   1.172 -0.2065 -0.0618  0.1300
   46MOL0     N 6092   9.473   7.320   1.114  0.1379 -0.3595 -0.2452
   46MOL0     C 6093   9.599   7.331   1.063  1.1215 -0.4754  0.1602
   46MOL0     C 6094   9.616   7.466   1.041  0.1000  0.1687 -0.1708
   46MOL0     C 6095   9.730   7.554   1.006  0.7180 -0.6841 -0.0808
   46MOL0     C 6096   9.816   7.547   1.129 -0.0179  0.1818  0.1768
   46MOL0     C 6097   9.746   7.624   1.241  0.0760 -0.7231 -0.4556
   46MOL0     C 6098   9.699   7.768   1.222  0.2965  0.6110  1.0844
   46MOL0     O 6099   9.675   7.821   1.349 -0.0076 -0.0269  0.3759
   46MOL0     C 6100   9.564   7.780   1.423  0.5308  0.3062  0.0831
   46MOL0     C 6101   9.457   7.706   1.367 -0.1663  0.6064 -0.3261
   46MOL0     C 6102   9.335   7.694   1.439  0.2810  0.3321 -0.3831
   46MOL0     C 6103   9.228   7.628   1.369 -0.2773  0.6142  0.3392
   46MOL0     C 6104   9.329   7.737   1.574 -0.1770 -0.3485 -0.2590
   46MOL0     C 6105   9.205   7.742   1.642 -0.6720  0.2614  0.5356
   46MOL0     O 6106   9.209   7.667   1.756  0.1530 -0.0235 -0.4139
   46MOL0     C 6107   9.097   7.680   1.831  0.0532 -0.6011  0.3746
   46MOL0     C 6108   8.988   7.593   1.847  0.0465 -0.0089  0.2239
   46MOL0     C 6109   8.881   7.625   1.935 -0.4498 -0.0608 -0.3480
   46MOL0     C 6110   8.886   7.733   2.024  0.9793 -0.1540 -0.2467
   46MOL0     O 6111   8.789   7.753   2.120  0.0504 -0.5934  0.5203
   46MOL0     C 6112   8.714   7.874   2.094 -0.1666  0.6643 -0.3895
   46MOL0     C 6113   8.567   7.862   2.134 -0.1246  0.5452  1.1091
   46MOL0     C 6114   8.547   7.893   2.279 -1.0931  0.2433  0.1696
   46MOL0     C 6115   8.390   7.869   2.296 -1.4525 -0.1841 -0.4628
   46MOL0     C 6116   8.335   7.873   2.439  0.4072  0.5780  0.4376
   46MOL0     C 6117   8.187   7.845   2.424 -0.6887  0.1988  0.2438
   46MOL0     C 6118   8.136   7.809   2.571 -0.3093  0.4240  0.6842
   46MOL0     C 6119   7.993   7.765   2.572 -0.0226  0.2952 -0.0419
   46MOL0    Cl 6120   7.883   7.902   2.559 -0.1986  0.2983 -0.1210
   46MOL0     C 6121   8.990   7.826   2.010  0.1619  0.0380  0.1636
   46MOL0     C 6122   9.089   7.808   1.910 -0.0632  0.2226 -0.1986
   46MOL0     O 6123   9.115   7.812   1.597  0.8135  0.2035 -0.3355
   46MOL0     C 6124   9.441   7.803   1.626 -0.0223 -0.0773 -0.2753
   46MOL0     C 6125   9.552   7.830   1.553 -0.6387 -0.1372  0.0062
   46MOL0     N 6126   9.493   7.532   1.065 -0.4266 -0.2639 -0.0743
   46MOL0     N 6127   9.416   7.442   1.101  0.0720 -0.3211 -0.5631
   46MOL0     C 6128  10.032   6.680   0.998  0.4307 -0.0802 -0.1500
   46MOL0     C 6129  10.162   6.649   1.028  0.4913  0.2068 -0.2859
   46MOL0     C 6130  10.493   6.399   1.248 -0.4851 -0.0337 -0.8733
   46MOL0     C 6131  10.530   6.305   1.340 -0.1512  0.1089  0.1548
   46MOL0     C 6132  10.643   6.226   1.332 -0.2733 -0.2471  0.1449
   46MOL0     C 6133  10.720   6.245   1.214 -0.1009  0.4102 -0.0282
   46MOL0     O 6134  10.829   6.169   1.196  0.0174  0.2111  0.3726
   46MOL0     C 6135  10.815   6.030   1.208  0.0091  0.5479 -0.1266
   46MOL0     C 6136  10.956   5.978   1.163  0.7021 -0.0520  0.9273
   46MOL0     C 6137  11.067   6.039   1.243  0.7719 -0.1864  0.0607
   46MOL0     C 6138  11.203   5.967   1.213 -0.3974  0.1784  0.0453
   46MOL0     C 6139  11.312   6.026   1.297 -0.4102  0.6533 -0.4150
   46MOL0     C 6140  11.401   6.066   1.381 -0.6032  0.5321  0.2952
   46MOL0     C 6141  10.683   6.330   1.115  0.0464 -0.3025  0.2459
   46MOL0     C 6142  10.573   6.413   1.127  0.8457  0.7041  0.2115
   46MOL0     H 6143  10.087   6.442   1.286 -1.1847 -0.3088  0.0521
   46MOL0     H 6144   9.866   6.532   1.249 -1.5803  1.3973 -1.5529
   46MOL0     H 6145   9.813   6.616   0.856  1.7782  0.9587  1.6812
   46MOL0     H 6146   9.695   6.537   0.964 -1.2092  0.6134  2.0285
   46MOL0     H 6147   9.656   6.814   0.841  1.3812  0.2085 -0.5136
   46MOL0     H 6148   9.569   6.676   0.793  0.1680 -0.4665  0.1675
   46MOL0     H 6149   9.475   6.681   1.038  0.6020 -1.3513 -1.5501
   46MOL0     H 6150   9.546   6.853   1.050 -2.2325  1.9169 -1.3726
   46MOL0     H 6151   9.427   6.910   0.854  0.9601 -0.8979 -1.1625
   46MOL0     H 6152   9.361   6.753   0.849  1.8428  0.0034 -0.7799
   46MOL0     H 6153   9.190   6.901   0.950  0.1536 -0.5860 -0.3225
   46MOL0     H 6154   9.237   6.772   1.061 -2.6573  1.8080  0.8988
   46MOL0     H 6155   9.218   7.006   1.163  0.5623  0.8146 -1.3918
   46MOL0     H 6156   9.364   6.921   1.210 -1.1695 -0.0600  0.6841
   46MOL0     H 6157   9.481   7.071   1.022  0.2958  0.9289  0.4108
   46MOL0     H 6158   9.329   7.135   0.980 -0.8259  0.3794  0.7823
   46MOL0     H 6159   9.472   7.163   1.250  1.3583  4.6086  1.5642
   46MOL0     H 6160   9.308   7.220   1.214 -1.3226  0.6181 -2.5663
   46MOL0     H 6161   9.680   7.259   1.062  0.7603 -0.9129 -1.3991
   46MOL0     H 6162   9.780   7.511   0.919 -0.5629 -2.4330 -0.0070
   46MOL0     H 6163   9.708   7.658   0.980  0.9294 -0.3458  1.0437
   46MOL0     H 6164   9.915   7.582   1.098 -0.7373  0.3141 -2.1873
   46MOL0     H 6165   9.826   7.443   1.162 -4.4381 -1.8844 -3.8197
   46MOL0     H 6166   9.810   7.634   1.328 -1.7121 -0.1728  0.8598
   46MOL0     H 6167   9.664   7.560   1.276 -0.6534  0.3624 -0.1208
   46MOL0     H 6168   9.617   7.773   1.150 -0.3853  0.3319  1.8199
   46MOL0     H 6169   9.781   7.835   1.195  0.9674 -1.4930 -2.6407
   46MOL0     H 6170   9.460   7.677   1.263  2.0263  3.2836 -1.1265
   46MOL0     H 6171   9.239   7.620   1.260 -1.9838 -0.9203  0.2293
   46MOL0     H 6172   9.225   7.529   1.416  3.1455 -1.5365 -3.2950
   46MOL0     H 6173   9.133   7.681   1.385 -0.3660  0.3231  0.7757
   46MOL0     H 6174   8.994   7.515   1.773  3.8479  1.3682 -1.2251
   46MOL0     H 6175   8.797   7.557   1.946  0.5963 -1.1276  1.7381
   46MOL0     H 6176   8.760   7.958   2.146 -1.5063  1.2809 -0.1552
   46MOL0     H 6177   8.707   7.893   1.986 -0.3183 -3.8529 -1.3791
   46MOL0     H 6178   8.514   7.940   2.078  1.0671  0.0190 -0.8359
   46MOL0     H 6179   8.528   7.766   2.098  1.8033  0.9064 -2.2775
   46MOL0     H 6180   8.586   7.992   2.305 -0.5053 -0.2407  1.2142
   46MOL0     H 6181   8.603   7.816   2.333  0.8631 -1.3681 -3.7743
   46MOL0     H 6182   8.339   7.959   2.259 -1.7110  0.4309  1.2994
   46MOL0     H 6183   8.351   7.777   2.252 -1.8789 -0.4879  0.5242
   46MOL0     H 6184   8.356   7.974   2.477  0.2939  2.1139 -3.1562
   46MOL0     H 6185   8.378   7.798   2.506  0.1075  0.0418  0.0286
   46MOL0     H 6186   8.131   7.928   2.379 -2.0659 -1.1980 -0.7486
   46MOL0     H 6187   8.160   7.761   2.359  3.1120  0.3031 -1.7325
   46MOL0     H 6188   8.158   7.897   2.632  0.5413  1.4052 -0.9375
   46MOL0     H 6189   8.198   7.732   2.618 -0.4824  0.9754  1.8503
   46MOL0     H 6190   7.980   7.714   2.668  1.7456 -0.7958 -0.3455
   46MOL0     H 6191   7.972   7.699   2.488 -0.4438  1.4393 -0.8689
   46MOL0     H 6192   8.973   7.911   2.075 -2.5490  0.3838 -0.8674
   46MOL0     H 6193   9.162   7.887   1.898  1.9108 -1.1999  1.6718
   46MOL0     H 6194   9.445   7.845   1.726  1.5659  2.4687 -1.2875
   46MOL0     H 6195   9.637   7.881   1.596  0.8421 -1.1886 -1.5512
   46MOL0     H 6196  10.006   6.733   0.907 -0.9608 -0.3690  0.0638
   46MOL0     H 6197  10.252   6.671   0.971 -0.1803 -2.7439 -2.7956
   46MOL0     H 6198  10.459   6.300   1.422 -0.9654 -0.0118 -0.5445
   46MOL0     H 6199  10.688   6.159   1.404  1.5199  2.3797  1.6392
   46MOL0     H 6200  10.794   5.993   1.308 -2.6177  0.2698 -0.6947
   46MOL0     H 6201  10.729   5.996   1.149 -0.4641  0.1025  0.7964
   46MOL0     H 6202  10.964   6.012   1.059 -2.0459  3.2901  1.6383
   46MOL0     H 6203  10.964   5.869   1.175 -1.7166 -0.3240  0.6830
   46MOL0     H 6204  11.041   6.030   1.349  0.0714 -0.0318 -0.0945
   46MOL0     H 6205  11.076   6.148   1.233  3.3599 -0.4473 -1.4643
   46MOL0     H 6206  11.232   6.001   1.113 -3.2351  2.8868 -0.0145
   46MOL0     H 6207  11.198   5.858   1.215  1.1742 -0.0898 -3.3976
   46MOL0     H 6208  11.470   6.103   1.454  1.6240  0.4349 -1.6406
   46MOL0     H 6209  10.748   6.319   1.029 -2.3937 -1.7415 -1.5164
   46MOL0     H 6210  10.546   6.478   1.044  1.2043 -1.0593 -1.3719
   47MOL0     O 6211   2.591   2.581   1.921  0.4004 -0.3305  0.0305
   47MOL0     C 6212   2.611   2.649   1.822 -0.4536 -0.3614  0.9592
   47MOL0     O 6213   2.512   2.688   1.727  0.7349 -0.0441  0.2069
   47MOL0     C 6214   2.384   2.673   1.776  0.5935  0.3832  0.2038
   47MOL0     C 6215   2.305   2.788   1.796  0.0504 -0.5162 -0.0494
   47MOL0     C 6216   2.179   2.775   1.849  0.3582 -0.7753  0.3713
   47MOL0     C 6217   2.120   2.650   1.880 -0.0320  0.8888  0.4397
   47MOL0     O 6218   1.987   2.648   1.937  0.6693 -0.3989 -0.1866
   47MOL0     C 6219   1.913   2.524   1.918 -0.5497 -0.4463 -0.6199
   47MOL0     C 6220   1.762   2.540   1.931  0.1274  0.5814 -0.4473
   47MOL0     C 6221   1.695   2.399   1.912 -0.0970 -1.2742 -0.1326
   47MOL0     C 6222   1.551   2.421   1.852 -0.2687 -0.1186  0.0317
   47MOL0     C 6223   1.499   2.281   1.809 -0.9898  0.3665 -0.7318
   47MOL0     C 6224   1.349   2.296   1.772  0.0133  0.7184 -0.2581
   47MOL0     C 6225   1.293   2.163   1.723  0.6354  0.6586 -0.5188
   47MOL0     C 6226   1.156   2.165   1.657  0.0603 -0.0515  0.3404
   47MOL0     N 6227   1.054   2.231   1.731 -0.0418 -0.2939 -0.3292
   47MOL0     C 6228   1.029   2.366   1.750  0.6889  0.1388  0.2472
   47MOL0     C 6229   0.942   2.369   1.856  1.1152 -0.5647  0.3233
   47MOL0     C 6230   0.892   2.504   1.912  0.6885 -0.3263  0.0833
   47MOL0     C 6231   0.731   2.515   1.890 -0.7876 -0.6572  0.5522
   47MOL0     C 6232   0.683   2.639   1.962  0.7990 -0.1964  0.0427
   47MOL0     C 6233   0.526   2.653   1.957  0.6883 -0.7780 -0.3727
   47MOL0     O 6234   0.472   2.605   2.080 -0.5982  0.1642  0.0126
   47MOL0     C 6235   0.336   2.591   2.090 -0.0566  0.7292 -0.7850
   47MOL0     C 6236   0.282   2.596   2.221 -0.5590  0.5900  0.9434
   47MOL0     C 6237   0.146   2.594   2.241  0.9673 -0.8873 -0.2923
   47MOL0     C 6238   0.103   2.601   2.384  0.1837  0.5121 -0.0319
   47MOL0     C 6239   0.052   2.598   2.133 -0.0908 -0.4899  0.7922
   47MOL0     C 6240  -0.102   2.599   2.140  0.2879  0.2081 -0.2211
   47MOL0     O 6241  -0.180   2.584   2.035 -0.4674 -0.3203  0.4128
   47MOL0     C 6242  -0.309   2.533   2.054 -0.4245  0.3766 -1.0698
   47MOL0     C 6243  -0.333   2.396   2.058  0.3141  0.4264  0.6205
   47MOL0     C 6244  -0.462   2.348   2.069 -0.4304 -0.3339 -0.6397
   47MOL0     C 6245  -0.577   2.434   2.064  0.0690  0.2387  0.2825
   47MOL0     O 6246  -0.708   2.392   2.072  0.0740 -0.4547  0.3508
   47MOL0     C 6247  -0.743   2.254   2.097 -1.0512  0.0949 -0.7509
   47MOL0     C 6248  -0.894   2.244   2.085  0.6064  0.7473  0.6328
   47MOL0     C 6249  -0.937   2.243   1.933  0.6542 -0.0520  0.3447
   47MOL0     C 6250  -1.087   2.217   1.924  0.4245  0.4718 -0.0824
   47MOL0     C 6251  -1.116   2.178   1.776 -0.0677  0.1724  0.1042
   47MOL0     C 6252  -1.269   2.162   1.752  0.3372 -0.2031  0.7256
   47MOL0     C 6253  -1.353   2.290   1.751 -0.0487  0.8416  1.0035
   47MOL0     C 6254  -1.505   2.253   1.725  0.0770  0.0941 -0.2080
   47MOL0    Cl 6255  -1.568   2.124   1.829 -0.1083  0.6577 -0.0090
   47MOL0     C 6256  -0.553   2.572   2.056  0.5430  0.6156 -0.1079
   47MOL0     C 6257  -0.421   2.619   2.057 -0.4529  0.9870 -0.5758
   47MOL0     O 6258  -0.148   2.627   2.248 -0.2603  0.4708 -1.1674
   47MOL0     C 6259   0.108   2.590   2.000  0.8624  0.1879 -0.4913
   47MOL0     C 6260   0.247   2.584   1.981  0.3391  0.1643 -0.3758
   47MOL0     N 6261   0.902   2.245   1.898 -0.0698  0.0446 -0.8660
   47MOL0     N 6262   0.969   2.166   1.822 -0.3169 -0.1475 -0.3905
   47MOL0     C 6263   2.194   2.532   1.846 -0.3126 -0.5677  0.4565
   47MOL0     C 6264   2.328   2.548   1.795 -0.4695 -0.6759 -0.6792
   47MOL0     C 6265   2.752   2.692   1.798 -0.5882 -0.6059 -0.2685
   47MOL0     C 6266   2.803   2.730   1.674 -0.1405 -0.2315 -0.5091
   47MOL0     C 6267   2.942   2.759   1.659  0.4497  0.2195 -0.5401
   47MOL0     C 6268   3.037   2.750   1.767  0.0887 -0.3505  0.6649
   47MOL0     O 6269   3.169   2.785   1.763  0.3836 -0.5241  0.3913
   47MOL0     C 6270   3.221   2.823   1.634 -0.0471 -0.2761  0.3164
   47MOL0     C 6271   3.360   2.898   1.645 -0.3872  0.7992  0.9904
   47MOL0     C 6272   3.457   2.831   1.739 -1.0624 -0.8144 -0.2911
   47MOL0     C 6273   3.595   2.897   1.725 -0.1008 -0.3679 -0.8313
   47MOL0     C 6274   3.603   3.030   1.781 -0.6813 -0.1674  0.0257
   47MOL0     C 6275   3.609   3.136   1.829  0.0057 -0.4920 -0.1406
   47MOL0     C 6276   2.987   2.702   1.882  0.3593  0.6238  0.5124
   47MOL0     C 6277   2.847   2.682   1.901 -0.6729 -0.1823 -0.0408
   47MOL0     H 6278   2.348   2.883   1.767 -0.4828  0.1443  1.2002
   47MOL0     H 6279   2.118   2.864   1.867  0.8516 -0.5061  0.7476
   47MOL0     H 6280   1.931   2.484   1.818 -3.1026 -0.1456 -1.2951
   47MOL0     H 6281   1.957   2.447   1.982 -0.9585 -1.2009 -1.2166
   47MOL0     H 6282   1.747   2.581   2.031  2.0872 -1.9554  1.0212
   47MOL0     H 6283   1.736   2.612   1.853  1.8525  1.9274  0.1704
   47MOL0     H 6284   1.751   2.325   1.853 -0.3541 -2.9406  1.6256
   47MOL0     H 6285   1.679   2.357   2.012 -0.8961 -0.3633  0.1355
   47MOL0     H 6286   1.484   2.466   1.926 -0.0250  0.0223  0.1698
   47MOL0     H 6287   1.558   2.487   1.766 -3.4206  0.6090  0.2224
   47MOL0     H 6288   1.554   2.252   1.719  1.7543  2.1869  0.2337
   47MOL0     H 6289   1.508   2.206   1.887 -2.4635 -0.2235 -1.0813
   47MOL0     H 6290   1.296   2.325   1.863 -1.7346 -0.2385 -0.9157
   47MOL0     H 6291   1.335   2.371   1.693 -0.4392  2.2621  1.2359
   47MOL0     H 6292   1.363   2.113   1.655  0.0133 -2.0854  0.7180
   47MOL0     H 6293   1.272   2.109   1.816 -2.9567 -1.5079 -2.3746
   47MOL0     H 6294   1.130   2.063   1.629  0.6318 -0.2134  0.3816
   47MOL0     H 6295   1.176   2.210   1.559  4.0661  0.8561  1.3853
   47MOL0     H 6296   1.068   2.446   1.687 -3.0304  1.0505 -1.1697
   47MOL0     H 6297   0.908   2.517   2.019 -1.4832  2.0221  0.2164
   47MOL0     H 6298   0.939   2.585   1.856  1.6479  1.1293  2.8508
   47MOL0     H 6299   0.683   2.425   1.929  3.7789 -3.2200  0.9827
   47MOL0     H 6300   0.714   2.537   1.784  1.1275  1.9525  0.6775
   47MOL0     H 6301   0.730   2.727   1.916  3.1382 -0.8514  1.0913
   47MOL0     H 6302   0.708   2.624   2.067  0.9028 -1.2904 -0.1331
   47MOL0     H 6303   0.485   2.617   1.862  1.2436 -0.2385 -0.8315
   47MOL0     H 6304   0.503   2.760   1.954  1.5131 -0.5305  1.0827
   47MOL0     H 6305   0.353   2.607   2.303 -0.4101 -1.4346  1.1365
   47MOL0     H 6306   0.034   2.519   2.407 -1.5663  2.7817  3.7204
   47MOL0     H 6307   0.186   2.593   2.455 -0.4502 -1.0763  0.5725
   47MOL0     H 6308   0.052   2.695   2.405  2.1482  1.2854  1.6118
   47MOL0     H 6309  -0.247   2.331   2.042  0.5275  1.0010 -0.6949
   47MOL0     H 6310  -0.469   2.240   2.078 -0.1154 -0.2556  0.8411
   47MOL0     H 6311  -0.694   2.192   2.021 -0.9929 -0.1840 -0.4887
   47MOL0     H 6312  -0.704   2.218   2.193  1.5664  2.0572 -0.9643
   47MOL0     H 6313  -0.930   2.151   2.129  0.0672 -0.2551 -1.7918
   47MOL0     H 6314  -0.954   2.320   2.135 -2.6535  0.1220 -1.9918
   47MOL0     H 6315  -0.873   2.167   1.887  0.0810 -0.2025 -0.2192
   47MOL0     H 6316  -0.925   2.339   1.883 -2.0024  0.4584  0.5642
   47MOL0     H 6317  -1.107   2.137   1.995 -1.1829  1.5233  0.6930
   47MOL0     H 6318  -1.152   2.299   1.953 -0.0709  1.2076 -2.9509
   47MOL0     H 6319  -1.064   2.086   1.748  3.0153  1.4670  1.1669
   47MOL0     H 6320  -1.076   2.259   1.714  0.4723 -1.5829 -1.9864
   47MOL0     H 6321  -1.290   2.121   1.653  1.1182 -1.6150  1.1202
   47MOL0     H 6322  -1.303   2.088   1.825 -1.4264 -0.2640 -0.0822
   47MOL0     H 6323  -1.311   2.338   1.661 -2.0323 -0.0224 -0.4537
   47MOL0     H 6324  -1.343   2.332   1.851 -1.7512 -0.4759  1.7597
   47MOL0     H 6325  -1.513   2.244   1.617 -0.9169 -1.2716 -0.0555
   47MOL0     H 6326  -1.560   2.344   1.748 -1.2084 -0.7896  0.3269
   47MOL0     H 6327  -0.638   2.638   2.068 -1.0874 -1.3023 -0.6290
   47MOL0     H 6328  -0.407   2.724   2.081 -0.8202  0.3565  2.9846
   47MOL0     H 6329   0.038   2.575   1.919 -0.9969  3.8932  0.2079
   47MOL0     H 6330   0.288   2.550   1.886  3.7580 -1.9486  1.6780
   47MOL0     H 6331   2.159   2.432   1.868 -3.0676 -0.0125 -0.9583
   47MOL0     H 6332   2.390   2.460   1.784  2.2268  0.9516  0.3434
   47MOL0     H 6333   2.738   2.742   1.588 -0.5609  1.1001 -0.0269
   47MOL0     H 6334   2.977   2.783   1.559 -1.4923 -0.5900 -1.4638
   47MOL0     H 6335   3.246   2.729   1.583 -0.6888 -0.3449  0.1219
   47MOL0     H 6336   3.159   2.873   1.559  2.2074  0.4729 -1.1448
   47MOL0     H 6337   3.355   3.000   1.684  2.0563  1.2284  0.3723
   47MOL0     H 6338   3.410   2.889   1.548 -3.2808  0.4057 -0.5623
   47MOL0     H 6339   3.457   2.723   1.722 -2.1468 -0.9326  0.3287
   47MOL0     H 6340   3.426   2.847   1.843 -0.4538 -4.3506  0.5586
   47MOL0     H 6341   3.635   2.905   1.623  1.6377 -1.2428 -0.2636
   47MOL0     H 6342   3.665   2.835   1.782  0.4555  3.5185  3.2342
   47MOL0     H 6343   3.638   3.235   1.858 -3.2558  0.9053 -1.1581
   47MOL0     H 6344   3.049   2.656   1.959  1.1318 -2.9257 -1.9478
   47MOL0     H 6345   2.810   2.651   1.998 -2.3232  0.9016 -0.2852
   48MOL0     O 6346   5.829   5.076   8.506  0.3815 -0.3345 -0.4400
   48MOL0     C 6347   5.888   5.099   8.401 -0.6336 -0.6811  0.7523
   48MOL0     O 6348   5.832   5.171   8.299  0.0247 -0.1826 -0.2553
   48MOL0     C 6349   5.722   5.245   8.326  0.1869  0.9352 -0.4096
   48MOL0     C 6350   5.725   5.382   8.338  0.1246 -0.3558 -0.7595
   48MOL0     C 6351   5.610   5.462   8.334 -0.2759 -0.3110  0.5122
   48MOL0     C 6352   5.484   5.395   8.320 -0.5041 -0.6573  0.2466
   48MOL0     O 6353   5.376   5.475   8.300 -0.5198  0.2249  0.3369
   48MOL0     C 6354   5.247   5.420   8.334  0.2978  1.7146  0.5941
   48MOL0     C 6355   5.146   5.534   8.335 -0.7527  0.3899 -0.1598
   48MOL0     C 6356   5.000   5.489   8.343  0.8866  0.7724 -0.6577
   48MOL0     C 6357   4.911   5.597   8.401 -0.0085  0.1844  0.8486
   48MOL0     C 6358   4.771   5.552   8.393 -0.3507 -0.1836  0.1084
   48MOL0     C 6359   4.677   5.670   8.405  0.3635 -0.2612 -0.2933
   48MOL0     C 6360   4.525   5.642   8.395 -0.5460  0.2744 -0.1655
   48MOL0     C 6361   4.483   5.540   8.502 -0.0951  0.3246 -0.7940
   48MOL0     N 6362   4.341   5.522   8.508  0.0034  0.4846  0.8480
   48MOL0     C 6363   4.240   5.613   8.541 -0.2682 -0.2362 -0.5716
   48MOL0     C 6364   4.127   5.551   8.535 -0.9381  1.0430 -0.1640
   48MOL0     C 6365   3.996   5.606   8.562  0.4255 -0.4247 -0.2141
   48MOL0     C 6366   3.930   5.659   8.444 -0.3371 -0.9186  0.5792
   48MOL0     C 6367   3.788   5.703   8.487  0.1246 -0.5543 -0.1905
   48MOL0     C 6368   3.701   5.761   8.371  0.1299  0.5533 -0.2978
   48MOL0     O 6369   3.558   5.750   8.392  0.4258 -0.0416  0.1042
   48MOL0     C 6370   3.489   5.849   8.458  0.2683  0.0429 -0.2165
   48MOL0     C 6371   3.358   5.839   8.449 -0.2827 -0.3367  1.0180
   48MOL0     C 6372   3.265   5.921   8.517 -0.5515 -0.1791 -0.7882
   48MOL0     C 6373   3.124   5.881   8.523  0.5560 -0.1272 -0.0975
   48MOL0     C 6374   3.316   6.039   8.584  0.8615  0.4031  0.0799
   48MOL0     C 6375   3.224   6.138   8.657 -0.6120 -0.5957 -0.1785
   48MOL0     O 6376   3.285   6.253   8.690  0.3863  0.0800 -0.5430
   48MOL0     C 6377   3.212   6.356   8.748  1.2012  0.9533 -0.0740
   48MOL0     C 6378   3.133   6.435   8.673  0.0546 -0.4312  0.0811
   48MOL0     C 6379   3.059   6.539   8.722 -0.3520 -0.8844 -0.2397
   48MOL0     C 6380   3.061   6.566   8.862 -0.1533 -0.3123 -0.1654
   48MOL0     O 6381   2.972   6.663   8.915  0.3807  0.2848 -0.6588
   48MOL0     C 6382   2.948   6.666   9.057  0.9348  0.1664  0.6089
   48MOL0     C 6383   2.810   6.711   9.091  1.0717  0.1897  0.0701
   48MOL0     C 6384   2.807   6.764   9.228  0.2128 -0.5935  0.1874
   48MOL0     C 6385   2.678   6.821   9.282 -0.0901  0.2543 -1.5935
   48MOL0     C 6386   2.659   6.794   9.435  0.5924  0.4486 -0.0938
   48MOL0     C 6387   2.544   6.881   9.485 -0.2154 -0.3279 -0.1888
   48MOL0     C 6388   2.533   6.853   9.633  0.7657 -0.4504 -1.0429
   48MOL0     C 6389   2.405   6.901   9.710  0.1888 -0.5232  0.6993
   48MOL0    Cl 6390   2.258   6.865   9.612 -0.0864 -0.0447 -0.0682
   48MOL0     C 6391   3.143   6.485   8.943  0.2897 -0.2355 -0.8997
   48MOL0     C 6392   3.212   6.377   8.889 -0.2886  0.3966 -0.3766
   48MOL0     O 6393   3.105   6.126   8.639 -0.0434  0.1187 -0.1797
   48MOL0     C 6394   3.457   6.052   8.595  0.6336  0.2237 -0.7118
   48MOL0     C 6395   3.540   5.958   8.531  0.3044 -0.2824 -0.0315
   48MOL0     N 6396   4.146   5.416   8.494 -0.4327  0.7358  0.7087
   48MOL0     N 6397   4.274   5.402   8.476 -0.0988  0.1660 -0.1017
   48MOL0     C 6398   5.474   5.262   8.328 -0.4466  0.0641  0.2949
   48MOL0     C 6399   5.596   5.187   8.327 -0.0540 -0.3959  0.4134
   48MOL0     C 6400   6.026   5.052   8.377 -0.3030 -0.0569  0.4337
   48MOL0     C 6401   6.097   5.107   8.275 -0.4155  0.1836  0.4820
   48MOL0     C 6402   6.217   5.048   8.224  0.7800  0.4905  0.2843
   48MOL0     C 6403   6.272   4.936   8.294  0.0309  0.8954 -0.1043
   48MOL0     O 6404   6.379   4.868   8.256 -0.1563  0.3900 -0.3221
   48MOL0     C 6405   6.451   4.909   8.135 -0.0914  0.0260  0.9339
   48MOL0     C 6406   6.561   4.801   8.110  1.2336 -0.7413  0.2467
   48MOL0     C 6407   6.626   4.828   7.969 -0.0073  0.5968 -0.6399
   48MOL0     C 6408   6.678   4.697   7.906 -0.0591 -0.0929  0.1170
   48MOL0     C 6409   6.791   4.649   7.986  0.1421 -0.3412 -0.5569
   48MOL0     C 6410   6.875   4.612   8.066  0.2917  0.1174  0.2680
   48MOL0     C 6411   6.212   4.898   8.413 -1.3932 -0.3701 -0.3017
   48MOL0     C 6412   6.092   4.950   8.447  0.8713  1.3352 -0.7526
   48MOL0     H 6413   5.823   5.429   8.334 -0.4240  0.8930 -0.0026
   48MOL0     H 6414   5.615   5.569   8.320 -1.4244 -0.2554  0.3682
   48MOL0     H 6415   5.220   5.339   8.265  2.4061  1.7870 -0.3991
   48MOL0     H 6416   5.256   5.373   8.433  2.6905  0.9449  0.0795
   48MOL0     H 6417   5.173   5.591   8.425  1.1506  0.3313 -0.6481
   48MOL0     H 6418   5.144   5.589   8.241 -0.6928 -1.1892 -1.1062
   48MOL0     H 6419   4.962   5.454   8.247  1.7528  2.7016 -1.7344
   48MOL0     H 6420   4.991   5.408   8.417 -1.6814  1.6844  0.1214
   48MOL0     H 6421   4.948   5.615   8.502  0.3402 -0.2023  0.7922
   48MOL0     H 6422   4.927   5.690   8.345  0.2017 -0.6782 -0.5748
   48MOL0     H 6423   4.755   5.505   8.296  1.9484 -0.8033 -0.0397
   48MOL0     H 6424   4.753   5.485   8.478 -2.2702 -1.0613 -0.9213
   48MOL0     H 6425   4.690   5.720   8.502 -0.1565 -0.4130 -0.1407
   48MOL0     H 6426   4.716   5.748   8.339  0.1220  1.3409  1.3862
   48MOL0     H 6427   4.475   5.738   8.412 -0.7657  0.5218 -1.9767
   48MOL0     H 6428   4.493   5.605   8.298 -3.6133  2.0332  0.0267
   48MOL0     H 6429   4.519   5.576   8.599 -1.0875 -1.7558  0.3931
   48MOL0     H 6430   4.523   5.443   8.472 -0.1549  0.6084 -1.8181
   48MOL0     H 6431   4.264   5.717   8.562  0.3960 -0.5142  0.1116
   48MOL0     H 6432   3.934   5.521   8.592 -2.0950  0.4529 -2.4992
   48MOL0     H 6433   3.995   5.672   8.649  2.1148 -2.7329  1.6694
   48MOL0     H 6434   3.924   5.576   8.373 -1.1929 -0.0218 -0.4315
   48MOL0     H 6435   3.993   5.734   8.395  1.6783 -2.0181  1.3650
   48MOL0     H 6436   3.792   5.774   8.570 -1.0589  2.6378 -2.6478
   48MOL0     H 6437   3.726   5.617   8.514  2.4759 -1.9750  1.0231
   48MOL0     H 6438   3.736   5.697   8.290  4.1986 -3.8458  4.2046
   48MOL0     H 6439   3.727   5.861   8.335 -1.4088  0.9063 -0.4664
   48MOL0     H 6440   3.337   5.752   8.389  1.8047  0.4300 -0.9335
   48MOL0     H 6441   3.078   5.890   8.622 -2.4846  1.1952 -1.4901
   48MOL0     H 6442   3.069   5.942   8.451  1.1793  0.7503  0.1532
   48MOL0     H 6443   3.108   5.775   8.502  0.8038 -0.4701  1.3074
   48MOL0     H 6444   3.141   6.422   8.565  3.4627  3.0463 -0.3422
   48MOL0     H 6445   3.013   6.599   8.645 -0.6457 -0.0050  0.6063
   48MOL0     H 6446   2.956   6.570   9.110 -0.5028 -0.1275  0.3326
   48MOL0     H 6447   3.020   6.737   9.099 -1.2525  3.2524 -0.5139
   48MOL0     H 6448   2.786   6.782   9.012  0.3006  2.0918  1.9312
   48MOL0     H 6449   2.736   6.631   9.082  1.6353 -0.8052  3.0953
   48MOL0     H 6450   2.879   6.846   9.237 -0.2373 -0.0910 -0.6664
   48MOL0     H 6451   2.835   6.684   9.298  2.2048 -0.0304  0.1016
   48MOL0     H 6452   2.669   6.929   9.263  2.9333  0.4561 -2.3877
   48MOL0     H 6453   2.589   6.777   9.237 -1.3663  1.3965 -0.3075
   48MOL0     H 6454   2.744   6.827   9.496  0.8109  1.6402 -1.0214
   48MOL0     H 6455   2.628   6.691   9.453  1.5728 -0.6373 -3.7794
   48MOL0     H 6456   2.554   6.985   9.452 -2.5042 -0.6531 -2.1807
   48MOL0     H 6457   2.460   6.830   9.437  0.4791 -1.1957 -0.5009
   48MOL0     H 6458   2.617   6.900   9.685 -0.4091  0.3649  0.1581
   48MOL0     H 6459   2.534   6.746   9.655  1.7028 -1.2287 -4.3149
   48MOL0     H 6460   2.404   7.010   9.716  1.5951 -0.5499  2.3073
   48MOL0     H 6461   2.406   6.863   9.813 -1.7486 -2.6612  0.0108
   48MOL0     H 6462   3.146   6.495   9.051 -2.5213  1.3761 -0.8552
   48MOL0     H 6463   3.278   6.310   8.943  1.0880 -0.4015 -2.8448
   48MOL0     H 6464   3.500   6.141   8.639 -1.4081  1.0215 -0.2331
   48MOL0     H 6465   3.644   5.989   8.524  0.4716 -0.8332 -0.0271
   48MOL0     H 6466   5.383   5.203   8.325  0.2258 -0.9845 -0.8336
   48MOL0     H 6467   5.592   5.080   8.314 -1.0883 -0.2602 -0.4780
   48MOL0     H 6468   6.059   5.200   8.234  0.8257  0.6026  0.2545
   48MOL0     H 6469   6.261   5.099   8.138  1.7652  1.5951  1.4028
   48MOL0     H 6470   6.385   4.909   8.048  0.4792  0.4230  0.4989
   48MOL0     H 6471   6.494   5.007   8.159 -2.1870  1.5550 -1.1725
   48MOL0     H 6472   6.523   4.699   8.111  1.9004 -1.0822 -2.3786
   48MOL0     H 6473   6.636   4.816   8.188  1.5562 -1.4977  0.0890
   48MOL0     H 6474   6.705   4.903   7.981 -0.6744  1.4167 -1.2785
   48MOL0     H 6475   6.559   4.864   7.890  0.2420  1.8664 -0.3070
   48MOL0     H 6476   6.702   4.732   7.806  0.7533  0.2338  0.4185
   48MOL0     H 6477   6.596   4.624   7.906  1.3349 -1.8719  2.9781
   48MOL0     H 6478   6.966   4.567   8.101  0.8373 -0.5489 -1.8565
   48MOL0     H 6479   6.255   4.817   8.471  2.2575  1.5279 -0.0093
   48MOL0     H 6480   6.043   4.906   8.533 -1.7308 -0.5518 -2.9897
   49MOL0     O 6481   8.165   1.266   2.652 -0.3521 -0.4382 -0.1698
   49MOL0     C 6482   8.196   1.300   2.765 -0.3369 -0.1570  1.3276
   49MOL0     O 6483   8.115   1.352   2.860 -0.5195  0.1498  0.7817
   49MOL0     C 6484   7.983   1.370   2.839  0.0244  0.5544 -0.2591
   49MOL0     C 6485   7.943   1.451   2.735 -0.1741 -0.0232  0.5047
   49MOL0     C 6486   7.802   1.475   2.717  0.4229  0.2486  0.1240
   49MOL0     C 6487   7.707   1.418   2.798 -0.5583 -0.1645 -0.1845
   49MOL0     O 6488   7.577   1.445   2.777  0.2608 -0.1235 -0.1438
   49MOL0     C 6489   7.488   1.327   2.739  0.4632  0.5086 -0.1773
   49MOL0     C 6490   7.403   1.384   2.616  0.3504 -0.1970 -0.0237
   49MOL0     C 6491   7.308   1.495   2.668  0.0774  0.3843  0.1722
   49MOL0     C 6492   7.195   1.537   2.569 -0.1816  0.8845  0.5812
   49MOL0     C 6493   7.145   1.669   2.606  0.5017  0.0414  0.7875
   49MOL0     C 6494   7.042   1.717   2.505 -1.1781 -0.6681 -0.4756
   49MOL0     C 6495   7.039   1.869   2.482  0.7225  0.2024  0.0569
   49MOL0     C 6496   6.945   1.926   2.599 -0.6799  0.1843  0.5466
   49MOL0     N 6497   6.804   1.902   2.573  0.8145  0.4977 -0.4718
   49MOL0     C 6498   6.741   1.937   2.455 -0.0965  0.3174  0.7314
   49MOL0     C 6499   6.612   1.917   2.465  0.0407  0.3674 -0.5554
   49MOL0     C 6500   6.501   1.937   2.355 -0.5663  0.0606 -0.2910
   49MOL0     C 6501   6.383   2.028   2.404 -0.4571 -0.3702  0.1069
   49MOL0     C 6502   6.260   1.944   2.449 -0.3856  0.4831 -0.3180
   49MOL0     C 6503   6.128   2.019   2.467 -1.2583  0.5321 -0.1233
   49MOL0     O 6504   6.058   2.040   2.347 -0.2872  0.1161 -0.0704
   49MOL0     C 6505   5.925   2.068   2.367  0.0559 -1.4289  0.4170
   49MOL0     C 6506   5.847   2.069   2.253 -0.3725 -0.8219 -0.5675
   49MOL0     C 6507   5.709   2.096   2.253  0.6694  0.2953 -0.0144
   49MOL0     C 6508   5.636   2.089   2.126 -0.3386  0.6832  0.3153
   49MOL0     C 6509   5.648   2.134   2.375 -0.0487 -0.0713  0.8937
   49MOL0     C 6510   5.494   2.173   2.385  0.2013 -0.5493  0.3096
   49MOL0     O 6511   5.410   2.184   2.276 -0.1471 -0.3695  0.5851
   49MOL0     C 6512   5.275   2.196   2.308  0.1471 -0.2468  1.0509
   49MOL0     C 6513   5.207   2.315   2.288 -0.1263  0.9640 -0.8191
   49MOL0     C 6514   5.080   2.322   2.340 -0.3996 -0.3239  1.1466
   49MOL0     C 6515   5.016   2.219   2.410 -0.0097 -0.5421 -0.0587
   49MOL0     O 6516   4.887   2.239   2.455  0.0564 -0.6482 -0.9746
   49MOL0     C 6517   4.827   2.113   2.483  0.3600  0.8234 -0.5835
   49MOL0     C 6518   4.679   2.128   2.521 -0.6043  0.8467  0.1442
   49MOL0     C 6519   4.615   1.988   2.536  0.1382 -0.1131  0.1830
   49MOL0     C 6520   4.463   2.010   2.565  0.6621  0.3298  0.7279
   49MOL0     C 6521   4.392   1.869   2.565 -0.7443  0.2575  0.8021
   49MOL0     C 6522   4.234   1.892   2.590  0.6440 -0.2062 -0.5979
   49MOL0     C 6523   4.155   1.758   2.623  0.9197  0.3459  0.7477
   49MOL0     C 6524   4.175   1.647   2.504  0.3572  0.6356  0.8114
   49MOL0    Cl 6525   4.119   1.722   2.346 -0.1713  0.0294 -0.6034
   49MOL0     C 6526   5.094   2.101   2.430 -0.2265  0.0621 -0.5762
   49MOL0     C 6527   5.215   2.076   2.366  1.0573  0.1454  0.1090
   49MOL0     O 6528   5.468   2.202   2.502 -0.2530 -0.5756 -0.0464
   49MOL0     C 6529   5.729   2.139   2.489  0.3000  0.0451 -0.0102
   49MOL0     C 6530   5.865   2.116   2.487  0.7660 -0.7066  0.1831
   49MOL0     N 6531   6.598   1.860   2.589 -0.4412  0.6677  0.2630
   49MOL0     N 6532   6.706   1.854   2.656 -0.3048  0.6261  0.0958
   49MOL0     C 6533   7.748   1.330   2.907 -0.5480  0.2891 -0.6656
   49MOL0     C 6534   7.891   1.317   2.933  0.9683  0.3332  0.1989
   49MOL0     C 6535   8.352   1.288   2.796 -0.5457  0.3989  0.2658
   49MOL0     C 6536   8.438   1.208   2.717 -0.4133 -0.4657 -0.2918
   49MOL0     C 6537   8.576   1.202   2.742  0.6521  0.7493  0.4814
   49MOL0     C 6538   8.634   1.271   2.849  0.2657  0.8352  0.1333
   49MOL0     O 6539   8.762   1.256   2.873  0.0219 -0.4359  0.5200
   49MOL0     C 6540   8.785   1.191   2.999  0.0888  0.1142  0.6423
   49MOL0     C 6541   8.936   1.181   3.037  0.4167  0.4105 -0.2858
   49MOL0     C 6542   9.006   1.315   3.030  0.1861  0.6386 -0.4290
   49MOL0     C 6543   8.946   1.429   3.104  0.0359 -0.0661  0.5752
   49MOL0     C 6544   8.963   1.420   3.247 -0.1323 -0.7804  0.3723
   49MOL0     C 6545   8.995   1.407   3.361 -0.3251  0.1984 -0.8440
   49MOL0     C 6546   8.556   1.355   2.932 -0.4954 -0.5417 -0.5534
   49MOL0     C 6547   8.415   1.359   2.901  0.4925 -0.2461 -0.4137
   49MOL0     H 6548   8.016   1.500   2.671 -0.5400 -1.7920 -1.4008
   49MOL0     H 6549   7.766   1.543   2.641 -1.6614  1.7946  2.3453
   49MOL0     H 6550   7.540   1.234   2.715 -2.6300 -2.3913  3.1930
   49MOL0     H 6551   7.424   1.305   2.825  1.0127  0.0912  0.1291
   49MOL0     H 6552   7.482   1.421   2.549  0.7235  0.2635  0.6567
   49MOL0     H 6553   7.343   1.305   2.570 -0.5763  1.3124 -1.5265
   49MOL0     H 6554   7.255   1.449   2.751 -0.6977 -2.6962 -1.8702
   49MOL0     H 6555   7.367   1.583   2.697 -0.8033  1.4217 -1.0385
   49MOL0     H 6556   7.227   1.539   2.465 -1.3496  1.2439  0.2080
   49MOL0     H 6557   7.117   1.461   2.581 -0.6353  1.2378 -0.1100
   49MOL0     H 6558   7.098   1.682   2.704  1.3633  0.5916  1.1424
   49MOL0     H 6559   7.232   1.736   2.616 -1.5271  2.6801  2.0106
   49MOL0     H 6560   7.074   1.692   2.403  0.5534 -2.0578  0.3642
   49MOL0     H 6561   6.950   1.662   2.526 -0.2730 -2.2508 -0.4771
   49MOL0     H 6562   7.137   1.917   2.491  1.5120 -1.4235  0.6438
   49MOL0     H 6563   6.999   1.897   2.384 -0.5816  0.1920  0.5591
   49MOL0     H 6564   6.948   2.035   2.598 -0.9514  0.2097 -0.8736
   49MOL0     H 6565   6.986   1.896   2.696 -0.2815 -0.3417  0.2243
   49MOL0     H 6566   6.783   1.979   2.364  1.7576 -3.4183 -0.3144
   49MOL0     H 6567   6.545   1.979   2.264 -0.5895 -0.3600 -0.4995
   49MOL0     H 6568   6.464   1.840   2.321  1.3440 -0.9656  0.3898
   49MOL0     H 6569   6.345   2.087   2.320  1.5488  0.1418 -0.4822
   49MOL0     H 6570   6.416   2.092   2.486 -1.1965  0.8872 -0.5400
   49MOL0     H 6571   6.284   1.903   2.547  1.6207  0.4802 -0.7746
   49MOL0     H 6572   6.238   1.857   2.387  1.6590  0.8487 -1.6415
   49MOL0     H 6573   6.143   2.113   2.521 -2.4336 -0.0074  1.2167
   49MOL0     H 6574   6.068   1.955   2.532 -1.1417 -0.7630 -1.2532
   49MOL0     H 6575   5.888   2.039   2.157  0.4443 -1.3772 -0.0546
   49MOL0     H 6576   5.585   2.183   2.106 -2.2689 -0.2890  0.3492
   49MOL0     H 6577   5.708   2.074   2.045  1.0978  1.6543  1.3693
   49MOL0     H 6578   5.572   2.000   2.133  1.6337 -0.6901  2.6901
   49MOL0     H 6579   5.254   2.395   2.231  1.5931 -0.0277 -0.8777
   49MOL0     H 6580   5.023   2.407   2.305 -0.6286 -1.1006 -0.4801
   49MOL0     H 6581   4.834   2.052   2.392 -1.2571 -1.4552  0.7081
   49MOL0     H 6582   4.882   2.063   2.563 -0.6076 -0.6705 -0.8165
   49MOL0     H 6583   4.669   2.175   2.619  1.5108 -1.3033  1.5058
   49MOL0     H 6584   4.623   2.180   2.443 -0.9453 -2.4316 -2.0006
   49MOL0     H 6585   4.659   1.918   2.608 -1.6023 -2.3170 -0.7905
   49MOL0     H 6586   4.634   1.940   2.440  2.8863  2.3934 -0.6844
   49MOL0     H 6587   4.457   2.065   2.659 -1.4503  0.2959  0.6729
   49MOL0     H 6588   4.419   2.071   2.485  3.1492  0.1961 -0.8783
   49MOL0     H 6589   4.434   1.804   2.642  1.0167  0.8729  0.3954
   49MOL0     H 6590   4.408   1.822   2.468 -2.8061 -1.6296  1.2923
   49MOL0     H 6591   4.225   1.945   2.685 -1.1145  0.7179 -1.2325
   49MOL0     H 6592   4.192   1.951   2.508  1.1811  1.6751  0.4392
   49MOL0     H 6593   4.050   1.788   2.631  0.9234  1.2467 -1.8426
   49MOL0     H 6594   4.179   1.709   2.718 -4.8530 -2.6131  1.0942
   49MOL0     H 6595   4.122   1.557   2.537 -0.5235  0.3828 -1.1829
   49MOL0     H 6596   4.281   1.633   2.484  0.9470  0.0811  3.7787
   49MOL0     H 6597   5.053   2.016   2.483 -0.6768  0.4523 -0.2856
   49MOL0     H 6598   5.263   1.981   2.385  1.3021  0.4796  1.2468
   49MOL0     H 6599   5.679   2.166   2.582 -3.3107  0.4373 -1.8875
   49MOL0     H 6600   5.904   2.137   2.587 -1.5498  3.8580  0.4018
   49MOL0     H 6601   7.668   1.299   2.973 -1.4575 -0.2956 -1.9988
   49MOL0     H 6602   7.921   1.257   3.018  1.6192 -1.1809 -1.0532
   49MOL0     H 6603   8.394   1.163   2.629  0.5167 -0.1889 -0.9142
   49MOL0     H 6604   8.638   1.143   2.674  4.2552  2.9773  1.5870
   49MOL0     H 6605   8.738   1.248   3.080 -1.1496  1.5938 -1.0383
   49MOL0     H 6606   8.744   1.090   3.005  1.7864 -0.6286  0.3706
   49MOL0     H 6607   8.979   1.113   2.963  0.8412  1.9593 -1.5115
   49MOL0     H 6608   8.945   1.131   3.133  1.1999  0.2906 -0.4171
   49MOL0     H 6609   9.005   1.337   2.923 -3.4496 -0.2702 -0.7254
   49MOL0     H 6610   9.105   1.299   3.073 -0.7740 -0.3903  1.5112
   49MOL0     H 6611   8.842   1.441   3.072  0.4433  0.3927 -0.6279
   49MOL0     H 6612   8.998   1.521   3.074  0.0723  0.9671  3.4400
   49MOL0     H 6613   9.037   1.386   3.458  0.0514 -1.8518 -1.3900
   49MOL0     H 6614   8.614   1.419   2.997  0.2626  0.3283 -2.0152
   49MOL0     H 6615   8.354   1.433   2.952  0.3517 -0.2349 -0.5998
   50MOL0     O 6616  10.350   9.677   3.984  0.2727  0.5369  0.9793
   50MOL0     C 6617  10.436   9.734   3.920 -0.5591 -0.3358 -0.3492
   50MOL0     O 6618  10.416   9.868   3.868  0.4100  1.3861 -0.2779
   50MOL0     C 6619  10.321   9.954   3.923  0.7806  0.1108 -0.5659
   50MOL0     C 6620  10.200   9.929   3.985 -0.1414  0.1909 -0.0964
   50MOL0     C 6621  10.101  10.016   4.020  0.6734  0.1325 -0.5288
   50MOL0     C 6622  10.127  10.149   4.007  0.2629 -0.8029  0.6258
   50MOL0     O 6623  10.031  10.243   4.050 -0.4594  0.1893  0.2867
   50MOL0     C 6624  10.056  10.381   4.057 -0.6954  0.0696  0.3148
   50MOL0     C 6625   9.940  10.449   4.143 -0.0687 -0.5676 -0.7464
   50MOL0     C 6626   9.895  10.588   4.085 -0.3717  0.1846  0.1012
   50MOL0     C 6627   9.812  10.674   4.178  0.1324 -0.0911  0.6248
   50MOL0     C 6628   9.674  10.619   4.217  0.5106  0.1334  0.4763
   50MOL0     C 6629   9.579  10.580   4.104 -0.1029  0.0608 -0.2514
   50MOL0     C 6630   9.469  10.488   4.160 -0.5817 -0.0813 -0.8538
   50MOL0     C 6631   9.369  10.543   4.269  0.0163 -0.0850 -0.1779
   50MOL0     N 6632   9.273  10.628   4.188 -0.3003 -0.4591  0.1285
   50MOL0     C 6633   9.156  10.592   4.122  0.4995  0.0593 -0.7851
   50MOL0     C 6634   9.101  10.704   4.079  0.4805 -0.0047  0.2560
   50MOL0     C 6635   8.977  10.714   4.006 -0.1013 -0.3755  0.0315
   50MOL0     C 6636   8.854  10.760   4.093  0.4131 -0.2026 -0.1357
   50MOL0     C 6637   8.836  10.669   4.222  0.3959  0.6863  0.1206
   50MOL0     C 6638   8.812  10.520   4.190 -0.2296 -0.6132 -0.1954
   50MOL0     O 6639   8.712  10.492   4.093 -0.3200  0.0534 -0.3494
   50MOL0     C 6640   8.581  10.527   4.130  0.1362 -0.3596 -0.1413
   50MOL0     C 6641   8.548  10.580   4.252  1.0665  0.4845 -0.8393
   50MOL0     C 6642   8.416  10.642   4.265 -0.5262 -0.6532  0.6149
   50MOL0     C 6643   8.396  10.700   4.398  0.5264 -0.4812  0.2592
   50MOL0     C 6644   8.318  10.637   4.161  0.7444 -0.1720  0.2871
   50MOL0     C 6645   8.182  10.680   4.172  0.2728  0.3539 -0.6319
   50MOL0     O 6646   8.117  10.665   4.052  0.3671 -0.0028 -0.3128
   50MOL0     C 6647   7.983  10.680   4.050 -0.3594  0.1780 -0.1474
   50MOL0     C 6648   7.898  10.573   4.025  0.5415  0.0896  0.7608
   50MOL0     C 6649   7.756  10.599   3.999  0.1664  0.3730 -0.7843
   50MOL0     C 6650   7.696  10.719   4.026  0.6637 -0.5309  0.6640
   50MOL0     O 6651   7.566  10.752   3.990  0.8871  0.2552 -0.0929
   50MOL0     C 6652   7.465  10.652   4.019  0.3791  0.5754 -0.5150
   50MOL0     C 6653   7.329  10.711   3.982 -0.9228 -0.0497 -0.0750
   50MOL0     C 6654   7.320  10.776   3.837  0.6301 -0.4082  0.2871
   50MOL0     C 6655   7.179  10.789   3.782  0.0461 -0.1131 -0.0860
   50MOL0     C 6656   7.182  10.786   3.629  0.9369 -0.5062  0.5623
   50MOL0     C 6657   7.036  10.766   3.568 -0.1105  1.1399  0.0560
   50MOL0     C 6658   6.987  10.906   3.528 -0.1872  0.9130 -0.3464
   50MOL0     C 6659   6.875  10.881   3.428  0.0824  0.0384 -0.2785
   50MOL0    Cl 6660   6.723  10.828   3.507 -0.0067 -0.0887 -0.7835
   50MOL0     C 6661   7.781  10.825   4.061  0.5708  0.6132  0.1648
   50MOL0     C 6662   7.915  10.803   4.082 -0.4689 -0.3552 -0.0273
   50MOL0     O 6663   8.138  10.730   4.278  0.2502 -0.9190  0.5279
   50MOL0     C 6664   8.361  10.569   4.042 -0.6081  0.2778 -0.4253
   50MOL0     C 6665   8.491  10.523   4.029 -0.0648  1.0861 -0.2400
   50MOL0     N 6666   9.182  10.804   4.127  0.2165 -0.4994  0.5205
   50MOL0     N 6667   9.280  10.762   4.201  1.0168 -0.3991 -0.8618
   50MOL0     C 6668  10.251  10.186   3.947  0.9696 -0.6065 -0.7805
   50MOL0     C 6669  10.351  10.086   3.914  0.0428 -0.0397  0.6237
   50MOL0     C 6670  10.561   9.656   3.878 -0.4564  0.1291  0.4802
   50MOL0     C 6671  10.557   9.513   3.899 -0.6160 -0.2244 -0.2090
   50MOL0     C 6672  10.688   9.446   3.890 -0.0727 -0.6955 -0.8606
   50MOL0     C 6673  10.803   9.513   3.855  0.4128  0.4162  0.0275
   50MOL0     O 6674  10.918   9.435   3.878  0.3939  0.1498 -0.2930
   50MOL0     C 6675  11.055   9.480   3.851  0.3635  0.7219 -0.8555
   50MOL0     C 6676  11.117   9.563   3.963 -0.5433  0.1785 -0.1429
   50MOL0     C 6677  11.123   9.477   4.090 -0.6958 -0.3985 -0.7718
   50MOL0     C 6678  11.196   9.335   4.080 -1.3493 -0.4282 -0.6364
   50MOL0     C 6679  11.339   9.358   4.050  1.2903 -0.6397  0.3903
   50MOL0     C 6680  11.444   9.387   4.011 -0.8963 -0.8613 -0.6117
   50MOL0     C 6681  10.801   9.653   3.834 -0.7607 -0.6083  0.8268
   50MOL0     C 6682  10.683   9.729   3.844  0.6579 -0.2303 -0.3243
   50MOL0     H 6683  10.154   9.831   4.000 -1.4673  0.4123 -2.3228
   50MOL0     H 6684  10.004   9.985   4.056  1.0968  1.1704  1.6368
   50MOL0     H 6685  10.150  10.393   4.111 -0.7286 -0.6922  0.5536
   50MOL0     H 6686  10.071  10.431   3.961  2.3888  0.3687  0.8710
   50MOL0     H 6687   9.853  10.384   4.140  0.0301 -0.6766 -2.2084
   50MOL0     H 6688   9.968  10.452   4.249 -2.6008 -1.8587  0.0261
   50MOL0     H 6689   9.990  10.634   4.055 -1.5359  1.2297 -2.2217
   50MOL0     H 6690   9.850  10.577   3.986  0.8204 -1.4077 -0.2990
   50MOL0     H 6691   9.865  10.696   4.271  2.7420 -2.0117 -0.2962
   50MOL0     H 6692   9.794  10.766   4.121 -0.0186 -0.2377  0.4327
   50MOL0     H 6693   9.703  10.528   4.271  3.0333  1.4386  1.4933
   50MOL0     H 6694   9.618  10.695   4.273 -1.2962 -0.3291 -0.6421
   50MOL0     H 6695   9.532  10.673   4.071 -2.1776 -0.1771  1.8031
   50MOL0     H 6696   9.636  10.536   4.022 -0.7793 -1.2924 -0.0136
   50MOL0     H 6697   9.402  10.467   4.076 -2.0723  1.1700 -0.0320
   50MOL0     H 6698   9.508  10.390   4.190  1.5177  1.2017  0.8891
   50MOL0     H 6699   9.431  10.587   4.348  1.4159 -2.2127 -0.0052
   50MOL0     H 6700   9.322  10.454   4.310 -0.8474  0.0780 -0.7947
   50MOL0     H 6701   9.129  10.488   4.106 -1.0532  0.2391  0.5108
   50MOL0     H 6702   8.992  10.789   3.927 -0.7266 -0.4645 -0.1827
   50MOL0     H 6703   8.952  10.616   3.963 -0.8009  0.3205 -1.2371
   50MOL0     H 6704   8.760  10.748   4.039  0.2304  2.3351 -0.4813
   50MOL0     H 6705   8.861  10.863   4.128  0.4993  0.1095 -1.0512
   50MOL0     H 6706   8.760  10.714   4.286  0.6275  1.8900 -0.4150
   50MOL0     H 6707   8.923  10.654   4.287  0.3799 -0.7244 -0.1636
   50MOL0     H 6708   8.802  10.464   4.283  2.0286 -0.8528 -0.0414
   50MOL0     H 6709   8.906  10.496   4.140 -0.5719  0.9048 -1.6779
   50MOL0     H 6710   8.621  10.576   4.332  0.2705 -0.6296 -0.1382
   50MOL0     H 6711   8.335  10.791   4.392  0.3887 -0.5761  0.2386
   50MOL0     H 6712   8.357  10.620   4.461 -1.4792 -0.9089 -1.4271
   50MOL0     H 6713   8.496  10.727   4.434  0.8170 -1.6601  0.3572
   50MOL0     H 6714   7.943  10.477   4.001  1.3265  0.7974 -0.8086
   50MOL0     H 6715   7.685  10.519   3.980  0.7005 -1.0983  2.7177
   50MOL0     H 6716   7.482  10.567   3.952  2.5127  0.0676  0.5582
   50MOL0     H 6717   7.471  10.612   4.121 -0.6041 -2.7302 -1.6064
   50MOL0     H 6718   7.250  10.636   3.996 -1.4829  0.8649  2.0724
   50MOL0     H 6719   7.303  10.789   4.054 -1.0708  0.8717 -1.1027
   50MOL0     H 6720   7.371  10.714   3.762  1.4828  0.0369  0.4877
   50MOL0     H 6721   7.376  10.869   3.827  2.1921 -1.5589 -2.9544
   50MOL0     H 6722   7.125  10.695   3.799  1.0225 -0.6397  0.1536
   50MOL0     H 6723   7.139  10.882   3.825 -0.9458  1.6123 -4.2222
   50MOL0     H 6724   7.239  10.705   3.583 -2.1992 -2.3714 -0.3425
   50MOL0     H 6725   7.227  10.877   3.588 -0.0892 -0.7053 -1.1361
   50MOL0     H 6726   7.047  10.704   3.478 -3.6555  1.4759 -0.7195
   50MOL0     H 6727   6.960  10.720   3.631  1.4913 -1.7733  0.0323
   50MOL0     H 6728   7.059  10.966   3.470 -0.2843 -0.8198 -2.4055
   50MOL0     H 6729   6.955  10.972   3.609  2.1267  1.8293 -0.0792
   50MOL0     H 6730   6.905  10.811   3.349 -1.0823 -0.1759 -0.5455
   50MOL0     H 6731   6.869  10.977   3.376  1.6740  1.3380  1.7980
   50MOL0     H 6732   7.728  10.919   4.057 -3.1323 -1.2311  1.0757
   50MOL0     H 6733   7.978  10.883   4.117 -3.9133  0.8666  4.2425
   50MOL0     H 6734   8.298  10.551   3.955 -2.0393 -1.2316  0.8612
   50MOL0     H 6735   8.523  10.470   3.941  1.2166  0.4166  0.5939
   50MOL0     H 6736  10.271  10.293   3.941 -2.8493  0.6111  2.9967
   50MOL0     H 6737  10.447  10.110   3.869  0.9502 -0.3094  2.3367
   50MOL0     H 6738  10.462   9.468   3.926 -1.0046  1.6319  1.7855
   50MOL0     H 6739  10.690   9.341   3.917 -1.6353 -0.2710  1.1668
   50MOL0     H 6740  11.120   9.392   3.845 -0.4701  0.0004  0.2408
   50MOL0     H 6741  11.066   9.527   3.753 -0.6310  2.1743 -0.2989
   50MOL0     H 6742  11.064   9.658   3.974  1.8178  1.4322  1.5813
   50MOL0     H 6743  11.219   9.592   3.935  0.0523  1.2959  2.7521
   50MOL0     H 6744  11.018   9.457   4.112 -1.2148  2.5118 -0.1159
   50MOL0     H 6745  11.167   9.530   4.175  1.0892 -2.4647 -0.3192
   50MOL0     H 6746  11.157   9.271   4.000  0.9027 -0.2683 -1.9437
   50MOL0     H 6747  11.179   9.269   4.166 -0.3853 -2.0943 -1.6455
   50MOL0     H 6748  11.539   9.400   3.964 -0.3311 -1.4915  0.3215
   50MOL0     H 6749  10.893   9.705   3.810 -2.0165  0.2712 -2.7578
   50MOL0     H 6750  10.673   9.837   3.844  0.9258 -0.1991 -0.9550
   51MOL0     O 6751   2.048   3.996   9.384 -0.1186 -1.0993  0.0486
   51MOL0     C 6752   2.076   3.893   9.446  0.0145  0.8795  0.4215
   51MOL0     O 6753   1.978   3.803   9.478 -0.0084  0.5189  0.0834
   51MOL0     C 6754   1.847   3.823   9.449  0.9807  0.7478  0.1819
   51MOL0     C 6755   1.764   3.757   9.541 -1.0141 -0.4338 -0.0175
   51MOL0     C 6756   1.627   3.785   9.541 -0.5301  0.0957 -0.5105
   51MOL0     C 6757   1.568   3.865   9.446 -0.8301  0.3285  0.8197
   51MOL0     O 6758   1.436   3.905   9.446 -0.6637  0.1170 -0.2092
   51MOL0     C 6759   1.345   3.827   9.513 -0.3507 -0.2913 -0.0802
   51MOL0     C 6760   1.207   3.855   9.466  0.6249  0.6691  0.5237
   51MOL0     C 6761   1.097   3.784   9.544 -0.1450 -0.9855 -0.3947
   51MOL0     C 6762   0.959   3.830   9.497 -0.4045 -1.0428 -0.3838
   51MOL0     C 6763   0.825   3.749   9.527 -1.1814 -0.4410 -0.3521
   51MOL0     C 6764   0.814   3.617   9.453 -0.1340  0.0117 -0.6248
   51MOL0     C 6765   0.682   3.546   9.467 -0.3778  0.6835 -0.0509
   51MOL0     C 6766   0.693   3.411   9.415 -0.2684  0.9773 -0.2780
   51MOL0     N 6767   0.568   3.344   9.410  0.6308  0.3464 -0.5656
   51MOL0     C 6768   0.444   3.388   9.357 -0.2457  0.3259  0.5728
   51MOL0     C 6769   0.362   3.280   9.361 -0.3495  0.5998 -0.2863
   51MOL0     C 6770   0.228   3.262   9.298  0.0637  0.2271  0.0549
   51MOL0     C 6771   0.234   3.165   9.173 -0.5951  0.4774 -0.7780
   51MOL0     C 6772   0.096   3.127   9.123  0.6497 -0.2741  0.4438
   51MOL0     C 6773   0.099   3.087   8.976  0.5393 -0.1591 -0.0968
   51MOL0     O 6774   0.124   3.199   8.897 -0.4079 -0.3877  1.1408
   51MOL0     C 6775   0.031   3.251   8.818 -0.2896  0.4523  0.2927
   51MOL0     C 6776   0.075   3.336   8.715 -0.1098  0.4868 -0.1449
   51MOL0     C 6777  -0.015   3.397   8.619  0.2632 -0.2688 -0.7404
   51MOL0     C 6778   0.038   3.501   8.530  0.4551  0.2387  0.5594
   51MOL0     C 6779  -0.157   3.380   8.637  0.6419  0.5385  0.9488
   51MOL0     C 6780  -0.261   3.422   8.535 -0.2627  0.6400 -0.9992
   51MOL0     O 6781  -0.229   3.493   8.427  0.1614 -0.7620 -0.1587
   51MOL0     C 6782  -0.327   3.511   8.336  0.0433 -0.3842  0.3850
   51MOL0     C 6783  -0.358   3.397   8.257 -0.6171 -0.1782 -0.2020
   51MOL0     C 6784  -0.481   3.404   8.195  1.0133 -0.0904 -0.3270
   51MOL0     C 6785  -0.557   3.522   8.183  0.2540 -0.9025 -0.2592
   51MOL0     O 6786  -0.665   3.513   8.106  0.1937 -0.0712  0.3187
   51MOL0     C 6787  -0.733   3.640   8.075 -0.4877  0.7449  0.3621
   51MOL0     C 6788  -0.850   3.612   7.980  0.3883 -0.1996 -0.5330
   51MOL0     C 6789  -0.948   3.494   8.026  0.3975 -0.5849 -0.0440
   51MOL0     C 6790  -1.078   3.509   7.937  0.4540 -0.7731  0.3243
   51MOL0     C 6791  -1.196   3.422   7.983  0.0402  0.3702  0.4067
   51MOL0     C 6792  -1.305   3.440   7.878  0.1304 -0.3174 -0.5978
   51MOL0     C 6793  -1.405   3.332   7.911  0.2329  0.0942 -0.2165
   51MOL0     C 6794  -1.481   3.295   7.787 -0.0876 -0.3119  0.6848
   51MOL0    Cl 6795  -1.577   3.148   7.822 -0.2712 -0.0555  0.3736
   51MOL0     C 6796  -0.513   3.641   8.261  0.4687 -0.0737  0.7470
   51MOL0     C 6797  -0.407   3.627   8.341  0.4879  0.0196 -0.5271
   51MOL0     O 6798  -0.371   3.381   8.561 -0.6297  0.6640  0.5074
   51MOL0     C 6799  -0.198   3.286   8.736 -0.3475 -0.0673 -0.4326
   51MOL0     C 6800  -0.101   3.231   8.823  1.0162 -0.0464  0.4427
   51MOL0     N 6801   0.442   3.180   9.419  0.4262  0.4412 -0.1991
   51MOL0     N 6802   0.559   3.212   9.453 -0.0900  0.1453  0.1629
   51MOL0     C 6803   1.650   3.908   9.334  0.4257 -0.6196 -0.9932
   51MOL0     C 6804   1.789   3.893   9.344 -0.0450  0.0766  0.0762
   51MOL0     C 6805   2.215   3.853   9.459  0.1091  0.0940  0.7717
   51MOL0     C 6806   2.258   3.733   9.506  0.2104 -0.4497 -0.1833
   51MOL0     C 6807   2.395   3.696   9.520 -0.0544  0.3333 -0.7376
   51MOL0     C 6808   2.494   3.788   9.480  0.5314  0.0906  0.0520
   51MOL0     O 6809   2.618   3.740   9.488 -0.2490  0.2236  0.1237
   51MOL0     C 6810   2.727   3.842   9.504 -0.0949  0.1577 -0.0111
   51MOL0     C 6811   2.865   3.785   9.480  0.2166 -0.1082 -0.0086
   51MOL0     C 6812   2.963   3.898   9.467 -0.4911 -0.2612 -0.0421
   51MOL0     C 6813   3.007   3.963   9.597  0.3345 -0.7022  0.1170
   51MOL0     C 6814   2.902   4.057   9.652 -1.0710 -0.1623 -0.9259
   51MOL0     C 6815   2.818   4.124   9.702 -0.5460  0.1500 -0.3432
   51MOL0     C 6816   2.451   3.910   9.431 -0.5572  0.1151  0.2716
   51MOL0     C 6817   2.316   3.940   9.425 -0.2770 -0.7344 -0.1360
   51MOL0     H 6818   1.802   3.700   9.626 -5.1041 -0.5148  1.9969
   51MOL0     H 6819   1.565   3.755   9.625  0.9346  0.4185  0.7482
   51MOL0     H 6820   1.361   3.720   9.504 -2.0020 -0.5907  0.1296
   51MOL0     H 6821   1.347   3.844   9.621 -2.6806 -2.6186  0.4458
   51MOL0     H 6822   1.187   3.961   9.448 -0.3878  0.3174 -0.5885
   51MOL0     H 6823   1.203   3.806   9.368  0.6842  0.4584  0.6240
   51MOL0     H 6824   1.100   3.675   9.533  3.2089 -0.8934 -1.6095
   51MOL0     H 6825   1.103   3.804   9.652 -0.0830 -3.9065  0.2299
   51MOL0     H 6826   0.940   3.930   9.537  0.8052 -0.8474 -0.2682
   51MOL0     H 6827   0.962   3.850   9.390  4.0941  3.0421  0.1659
   51MOL0     H 6828   0.819   3.730   9.634 -1.1911  0.6900 -0.1348
   51MOL0     H 6829   0.742   3.817   9.506 -1.0136  0.5112  1.8225
   51MOL0     H 6830   0.840   3.635   9.348 -2.8480  0.0504 -1.3509
   51MOL0     H 6831   0.887   3.542   9.484 -1.4801 -0.6890  0.9862
   51MOL0     H 6832   0.658   3.543   9.573  3.1318 -0.8126  0.8671
   51MOL0     H 6833   0.608   3.611   9.419 -2.6906  0.4682  2.9697
   51MOL0     H 6834   0.777   3.355   9.457 -0.4314  1.1259  0.2554
   51MOL0     H 6835   0.718   3.421   9.309  2.5775 -4.8974 -0.5599
   51MOL0     H 6836   0.428   3.482   9.305 -0.7794  1.1364  2.1160
   51MOL0     H 6837   0.159   3.213   9.367 -1.0756  0.1577 -1.0822
   51MOL0     H 6838   0.178   3.357   9.276 -1.0905 -0.4523 -0.3562
   51MOL0     H 6839   0.279   3.074   9.211 -0.5313  0.5280 -0.7330
   51MOL0     H 6840   0.293   3.214   9.095  2.0559 -0.9890  0.1812
   51MOL0     H 6841   0.019   3.205   9.126  1.5939  0.6968 -0.1825
   51MOL0     H 6842   0.062   3.049   9.191 -1.4010  1.4318  1.5075
   51MOL0     H 6843   0.005   3.038   8.949 -1.5379  2.6284  1.5449
   51MOL0     H 6844   0.185   3.021   8.956  2.1639  1.3578  1.5229
   51MOL0     H 6845   0.182   3.351   8.708  0.1152 -1.2245 -0.8149
   51MOL0     H 6846   0.141   3.525   8.556  0.3136  2.4219 -0.6470
   51MOL0     H 6847   0.043   3.471   8.425  2.1531 -1.1075  0.9890
   51MOL0     H 6848  -0.017   3.593   8.552  1.1247  0.4288  1.5015
   51MOL0     H 6849  -0.296   3.308   8.249  0.2566  0.5391 -1.9897
   51MOL0     H 6850  -0.516   3.319   8.139  2.3501 -0.0085 -1.3393
   51MOL0     H 6851  -0.784   3.679   8.163  0.4223 -0.8994  1.6584
   51MOL0     H 6852  -0.660   3.703   8.024 -0.2129 -0.0477 -0.2470
   51MOL0     H 6853  -0.912   3.702   7.976 -4.3641 -3.1045 -0.1040
   51MOL0     H 6854  -0.821   3.602   7.875  1.6800 -0.2222 -0.1974
   51MOL0     H 6855  -0.977   3.490   8.132  2.8466 -1.1621  0.6637
   51MOL0     H 6856  -0.897   3.399   8.009 -1.4779 -1.4982 -0.8791
   51MOL0     H 6857  -1.114   3.613   7.938  0.4475 -0.7513  2.3871
   51MOL0     H 6858  -1.052   3.491   7.832 -1.3133 -1.7561  0.0158
   51MOL0     H 6859  -1.234   3.456   8.080  1.2455 -0.7165  1.2930
   51MOL0     H 6860  -1.154   3.321   7.991  0.0422  0.4184  1.0964
   51MOL0     H 6861  -1.339   3.544   7.885  0.6338  0.0032 -2.5501
   51MOL0     H 6862  -1.272   3.424   7.775 -1.2215  0.8274 -1.2558
   51MOL0     H 6863  -1.479   3.361   7.986 -1.0390 -1.0148 -0.9928
   51MOL0     H 6864  -1.361   3.239   7.950 -2.5037 -0.6369  1.3180
   51MOL0     H 6865  -1.413   3.269   7.705  1.7556  2.1790  1.3158
   51MOL0     H 6866  -1.547   3.374   7.751 -1.1700 -0.8111  1.5163
   51MOL0     H 6867  -0.566   3.733   8.241  0.7754 -0.3383 -1.6042
   51MOL0     H 6868  -0.402   3.714   8.406  0.6347  0.6600 -1.3760
   51MOL0     H 6869  -0.300   3.254   8.759 -0.5519  1.3014  0.7018
   51MOL0     H 6870  -0.140   3.168   8.902 -0.4237 -0.5419 -0.6248
   51MOL0     H 6871   1.599   3.963   9.256 -1.6349 -1.2009 -0.1075
   51MOL0     H 6872   1.840   3.949   9.265 -0.2083 -1.9865 -1.5773
   51MOL0     H 6873   2.174   3.667   9.523 -1.1816  1.1290 -0.5994
   51MOL0     H 6874   2.413   3.599   9.564 -3.3209  0.0170  0.1896
   51MOL0     H 6875   2.710   3.912   9.422  0.8808 -2.2918 -2.4947
   51MOL0     H 6876   2.724   3.890   9.602 -0.5726  1.1981 -0.5260
   51MOL0     H 6877   2.867   3.742   9.379 -1.4869 -2.7478  0.9642
   51MOL0     H 6878   2.898   3.703   9.545  1.0152  1.3499  1.4761
   51MOL0     H 6879   2.919   3.971   9.398 -2.8792 -1.8018 -0.2468
   51MOL0     H 6880   3.055   3.859   9.421 -1.8873 -3.4003 -0.4247
   51MOL0     H 6881   3.095   4.028   9.590 -0.0126 -0.2675 -0.3844
   51MOL0     H 6882   3.023   3.888   9.674  0.6135  0.7741  1.5508
   51MOL0     H 6883   2.758   4.196   9.755  1.3002  0.7324  1.0990
   51MOL0     H 6884   2.522   3.981   9.391 -2.3003  0.9541 -1.5360
   51MOL0     H 6885   2.289   4.038   9.387 -0.2991 -0.8248 -0.3552
   52MOL0     O 6886   5.902   3.374   3.514  0.1932 -0.5867 -0.2116
   52MOL0     C 6887   5.840   3.453   3.436 -0.4667  1.0178 -0.8285
   52MOL0     O 6888   5.896   3.504   3.318  0.0304 -0.5340 -0.0912
   52MOL0     C 6889   6.003   3.446   3.252  0.3758 -0.0179 -0.6372
   52MOL0     C 6890   6.036   3.308   3.248  0.5295 -0.4900 -0.5203
   52MOL0     C 6891   6.164   3.264   3.210 -0.1584  0.6245  0.7031
   52MOL0     C 6892   6.260   3.355   3.176 -0.5577 -0.7075  0.6732
   52MOL0     O 6893   6.386   3.302   3.159  0.4586  0.4958  0.1742
   52MOL0     C 6894   6.483   3.396   3.121  0.3103 -0.4598 -1.2705
   52MOL0     C 6895   6.627   3.344   3.113 -0.9485  0.1805  1.0645
   52MOL0     C 6896   6.662   3.247   3.227  0.4210  0.1023 -0.2109
   52MOL0     C 6897   6.814   3.214   3.224 -0.0681 -0.6974 -0.8086
   52MOL0     C 6898   6.856   3.145   3.349  0.4401 -0.6409 -0.1044
   52MOL0     C 6899   7.007   3.107   3.343  0.0157 -0.1487  0.3941
   52MOL0     C 6900   7.048   3.018   3.459  0.0723  0.8763  0.8767
   52MOL0     C 6901   6.984   2.879   3.462 -0.6726 -0.2312 -0.3607
   52MOL0     N 6902   7.005   2.787   3.355 -0.0810  0.0854 -0.3979
   52MOL0     C 6903   7.120   2.722   3.322 -0.0660 -1.4508  0.2182
   52MOL0     C 6904   7.087   2.671   3.202  0.2038 -0.3536  0.7536
   52MOL0     C 6905   7.188   2.604   3.114  0.0883 -0.0603 -0.3049
   52MOL0     C 6906   7.160   2.451   3.095  0.3226  0.2274  0.3490
   52MOL0     C 6907   7.092   2.423   2.955  0.0447  0.1750 -0.2850
   52MOL0     C 6908   6.942   2.462   2.974 -0.8436  0.2804  0.8289
   52MOL0     O 6909   6.861   2.380   2.884  0.2027 -0.3702  1.3603
   52MOL0     C 6910   6.728   2.378   2.903  0.4287  0.5538  0.0579
   52MOL0     C 6911   6.659   2.265   2.857 -0.2825 -0.0342 -0.9510
   52MOL0     C 6912   6.526   2.240   2.892 -0.5147  0.2647 -0.4187
   52MOL0     C 6913   6.464   2.114   2.831 -0.0556  0.2017  0.0395
   52MOL0     C 6914   6.448   2.337   2.964 -0.5678  0.9146 -0.0741
   52MOL0     C 6915   6.309   2.319   3.017 -0.4765 -0.4412 -0.5479
   52MOL0     O 6916   6.279   2.411   3.115  0.2417  0.8279  0.2444
   52MOL0     C 6917   6.151   2.435   3.166  0.3874  0.2388  1.3210
   52MOL0     C 6918   6.138   2.517   3.278  0.1342  0.8810  0.4555
   52MOL0     C 6919   6.024   2.562   3.334  0.5466 -0.5158  0.2293
   52MOL0     C 6920   5.903   2.508   3.277  1.2360  0.2382 -0.2366
   52MOL0     O 6921   5.784   2.525   3.347 -0.5897 -0.2119 -0.4386
   52MOL0     C 6922   5.660   2.480   3.302 -0.0738 -0.1606 -0.3415
   52MOL0     C 6923   5.560   2.577   3.362 -0.1470  1.0808  0.4473
   52MOL0     C 6924   5.423   2.541   3.307 -0.4345 -0.0609  0.5952
   52MOL0     C 6925   5.345   2.660   3.261  0.2707 -0.7342 -0.1874
   52MOL0     C 6926   5.201   2.628   3.214 -0.2828 -0.2901 -0.9194
   52MOL0     C 6927   5.112   2.666   3.324 -0.2975  0.1155 -0.2060
   52MOL0     C 6928   4.970   2.629   3.283  0.7365  0.3123  0.3180
   52MOL0     C 6929   4.950   2.476   3.281 -0.4561  0.8124  0.0915
   52MOL0    Cl 6930   4.768   2.435   3.282  0.1425  0.3924 -0.6638
   52MOL0     C 6931   5.907   2.438   3.156  0.3693  0.2484 -0.6733
   52MOL0     C 6932   6.030   2.410   3.092 -0.5333 -0.0752  0.1670
   52MOL0     O 6933   6.230   2.243   2.967  0.1988 -0.2444 -0.5729
   52MOL0     C 6934   6.515   2.449   3.007 -0.0784 -0.1513 -0.3916
   52MOL0     C 6935   6.660   2.467   2.981 -0.2424 -0.6388  0.2598
   52MOL0     N 6936   6.951   2.681   3.174 -0.6589  0.4237 -0.1491
   52MOL0     N 6937   6.910   2.754   3.275  0.6941  0.0850 -0.0405
   52MOL0     C 6938   6.223   3.490   3.161  0.4446  0.7155 -0.2476
   52MOL0     C 6939   6.095   3.531   3.200 -0.4805  0.7259 -0.3148
   52MOL0     C 6940   5.710   3.498   3.485 -0.5649  1.1317 -0.5155
   52MOL0     C 6941   5.635   3.578   3.399  1.0211 -0.2695  0.4810
   52MOL0     C 6942   5.510   3.630   3.445  0.4875  0.1967  0.1755
   52MOL0     C 6943   5.450   3.579   3.562  0.0453 -0.1456  0.1295
   52MOL0     O 6944   5.324   3.612   3.614 -0.2753 -0.5102 -0.2666
   52MOL0     C 6945   5.270   3.748   3.585  0.7659 -0.1174  0.4054
   52MOL0     C 6946   5.134   3.753   3.648  0.2497 -1.4660  0.4883
   52MOL0     C 6947   5.048   3.631   3.610 -0.3869 -0.9553 -0.4115
   52MOL0     C 6948   4.909   3.650   3.674 -0.5686 -0.3244 -0.4459
   52MOL0     C 6949   4.796   3.566   3.614  0.0848 -0.1364 -0.6585
   52MOL0     C 6950   4.709   3.505   3.553  0.7157  0.6113 -0.3353
   52MOL0     C 6951   5.516   3.488   3.636 -0.4966  0.0908 -0.4883
   52MOL0     C 6952   5.646   3.443   3.595 -0.0484  0.5836  0.9937
   52MOL0     H 6953   5.972   3.232   3.293 -2.5505 -1.8208 -6.2185
   52MOL0     H 6954   6.191   3.160   3.228  1.4024  0.7751 -0.5848
   52MOL0     H 6955   6.458   3.425   3.019  1.1569 -0.3015 -1.4372
   52MOL0     H 6956   6.492   3.479   3.192 -0.1507 -2.5466  1.4088
   52MOL0     H 6957   6.651   3.297   3.018  0.0018 -0.3146  1.5320
   52MOL0     H 6958   6.696   3.429   3.116 -0.5617 -0.0281 -0.7777
   52MOL0     H 6959   6.644   3.296   3.323  0.4077 -2.8976  1.4115
   52MOL0     H 6960   6.603   3.156   3.213 -0.3119  0.6296 -0.6204
   52MOL0     H 6961   6.838   3.155   3.135 -2.2018 -1.4686 -0.9328
   52MOL0     H 6962   6.864   3.311   3.225 -0.7412 -0.1032  4.4023
   52MOL0     H 6963   6.832   3.201   3.440  1.2748  1.0660 -0.9095
   52MOL0     H 6964   6.787   3.061   3.360 -1.8852  1.1467 -0.4407
   52MOL0     H 6965   7.036   3.067   3.245  0.0768 -0.3731  0.5043
   52MOL0     H 6966   7.064   3.201   3.344  0.4242 -0.3780 -0.1667
   52MOL0     H 6967   7.156   3.006   3.450  0.1355  2.5064 -1.4780
   52MOL0     H 6968   7.030   3.069   3.554 -1.8325 -1.6579  1.9837
   52MOL0     H 6969   6.876   2.889   3.471 -0.4086  1.1111  2.5438
   52MOL0     H 6970   7.010   2.823   3.552  1.1684  0.1378 -0.6100
   52MOL0     H 6971   7.217   2.726   3.371  0.8009 -0.0375 -1.5293
   52MOL0     H 6972   7.189   2.661   3.020  2.7713  0.5037 -0.0051
   52MOL0     H 6973   7.292   2.618   3.145 -0.3069  1.0866  0.5682
   52MOL0     H 6974   7.101   2.411   3.178  1.7029  0.8152  1.6755
   52MOL0     H 6975   7.259   2.403   3.092  0.5201  0.6467  0.0543
   52MOL0     H 6976   7.094   2.316   2.934  3.7487  0.1709 -0.5116
   52MOL0     H 6977   7.136   2.483   2.875 -0.1610  1.9927  0.9052
   52MOL0     H 6978   6.914   2.564   2.946 -3.3898 -0.9719 -1.6717
   52MOL0     H 6979   6.904   2.436   3.074  1.1537 -0.0039  1.5658
   52MOL0     H 6980   6.719   2.184   2.815 -0.9013 -1.0412  0.0476
   52MOL0     H 6981   6.520   2.057   2.756 -0.6112 -0.6336  0.2574
   52MOL0     H 6982   6.438   2.054   2.918  0.6479 -0.2562 -0.0608
   52MOL0     H 6983   6.376   2.156   2.780  0.1312  0.5339 -0.0132
   52MOL0     H 6984   6.225   2.544   3.337 -0.6936 -0.8515  2.6009
   52MOL0     H 6985   6.017   2.616   3.428 -0.6562  1.9934 -1.2113
   52MOL0     H 6986   5.649   2.488   3.193 -1.1445  1.5166 -0.1316
   52MOL0     H 6987   5.644   2.375   3.331 -0.8547 -0.3297 -1.3460
   52MOL0     H 6988   5.564   2.570   3.471 -1.9738  2.0097  0.6131
   52MOL0     H 6989   5.585   2.681   3.336 -0.0414  0.6692 -1.2417
   52MOL0     H 6990   5.375   2.501   3.397  0.1252 -0.1084  0.8710
   52MOL0     H 6991   5.437   2.475   3.220  0.0782  2.9229 -1.7419
   52MOL0     H 6992   5.342   2.744   3.331 -0.3187 -2.6715  2.2181
   52MOL0     H 6993   5.400   2.704   3.177 -0.3966  0.5637  0.0355
   52MOL0     H 6994   5.195   2.523   3.183 -0.8601  0.0778 -2.1045
   52MOL0     H 6995   5.172   2.678   3.121 -1.9324 -0.4453 -0.5039
   52MOL0     H 6996   5.146   2.626   3.420 -0.5157 -1.6530 -0.8405
   52MOL0     H 6997   5.118   2.774   3.341  1.2976  0.3204 -1.7271
   52MOL0     H 6998   4.946   2.664   3.182  1.6593 -2.7308 -1.0984
   52MOL0     H 6999   4.903   2.668   3.360 -1.3295 -1.0522 -0.6984
   52MOL0     H 7000   4.987   2.426   3.371 -1.0250 -0.4306 -0.3514
   52MOL0     H 7001   5.002   2.439   3.193 -2.1754 -0.9086 -0.2544
   52MOL0     H 7002   5.817   2.394   3.115 -0.0316  1.7192 -1.4272
   52MOL0     H 7003   6.017   2.362   2.995  0.6506  0.9428 -0.5236
   52MOL0     H 7004   6.453   2.527   3.050  1.3795  1.6251 -1.3660
   52MOL0     H 7005   6.705   2.557   3.021 -0.9757 -0.0172 -0.2722
   52MOL0     H 7006   6.276   3.572   3.113  2.9659  1.9804  4.1140
   52MOL0     H 7007   6.072   3.637   3.193  0.6669  1.3816  3.5567
   52MOL0     H 7008   5.681   3.609   3.306  0.6739 -0.5894  0.1956
   52MOL0     H 7009   5.463   3.709   3.389 -0.6041  0.4492  1.4100
   52MOL0     H 7010   5.341   3.820   3.627  1.3058 -0.7589  0.6099
   52MOL0     H 7011   5.258   3.748   3.476  1.1547 -3.1525  0.2646
   52MOL0     H 7012   5.081   3.842   3.613  2.2430  0.5382  2.2249
   52MOL0     H 7013   5.136   3.763   3.757  1.2380 -2.5680  0.5880
   52MOL0     H 7014   5.091   3.537   3.647 -0.2023  0.1142  2.3045
   52MOL0     H 7015   5.046   3.636   3.501 -3.1544 -1.4527 -0.4332
   52MOL0     H 7016   4.883   3.756   3.663  0.0210  0.0062  1.1287
   52MOL0     H 7017   4.921   3.628   3.781  2.1626 -1.2283 -0.8686
   52MOL0     H 7018   4.648   3.453   3.483  0.4892  3.4636 -2.4548
   52MOL0     H 7019   5.465   3.445   3.721  0.9367  0.8839  0.8238
   52MOL0     H 7020   5.694   3.374   3.664 -3.8340 -2.4186  0.9760
   53MOL0     O 7021   5.534   1.320   2.257  0.2959 -0.3969 -0.2208
   53MOL0     C 7022   5.527   1.289   2.374 -0.0228 -1.1044  0.8384
   53MOL0     O 7023   5.414   1.261   2.450  0.0786 -0.3054  0.1825
   53MOL0     C 7024   5.291   1.266   2.391 -0.9581  0.9607 -0.7213
   53MOL0     C 7025   5.247   1.392   2.348  0.0825  1.3175  0.4222
   53MOL0     C 7026   5.126   1.401   2.274  0.1219 -0.2374  0.2467
   53MOL0     C 7027   5.044   1.291   2.255  0.2753  0.4454  0.4469
   53MOL0     O 7028   4.919   1.322   2.189 -0.0568 -0.4153 -0.3068
   53MOL0     C 7029   4.869   1.228   2.096  0.2707 -0.3121  0.0531
   53MOL0     C 7030   4.726   1.204   2.134  0.5251  0.2742  0.3935
   53MOL0     C 7031   4.647   1.338   2.129  1.0681  0.1955  0.1839
   53MOL0     C 7032   4.500   1.294   2.177  0.7697  0.4322  0.0542
   53MOL0     C 7033   4.415   1.419   2.164  0.3426  0.2484  0.1057
   53MOL0     C 7034   4.288   1.389   2.234  0.3059 -0.3941 -0.1867
   53MOL0     C 7035   4.201   1.271   2.178  0.4157  0.5108  0.3970
   53MOL0     C 7036   4.049   1.274   2.179 -0.5389  0.0822 -0.1705
   53MOL0     N 7037   3.981   1.281   2.305  0.4818  1.2119 -0.1631
   53MOL0     C 7038   3.896   1.383   2.333  0.1887 -0.4153 -0.6714
   53MOL0     C 7039   3.849   1.364   2.459 -0.4250  0.6213  0.5840
   53MOL0     C 7040   3.747   1.434   2.538  0.6257 -1.0295  0.2139
   53MOL0     C 7041   3.610   1.458   2.466  0.0215 -1.3246  0.8520
   53MOL0     C 7042   3.512   1.532   2.555  0.0199  0.0934 -0.2463
   53MOL0     C 7043   3.374   1.538   2.490  0.9716  0.4231 -0.5114
   53MOL0     O 7044   3.262   1.581   2.581 -0.3704  0.4282 -0.9522
   53MOL0     C 7045   3.146   1.606   2.534  0.8833 -0.6360  0.3356
   53MOL0     C 7046   3.095   1.543   2.416  1.7725  0.5826 -0.6767
   53MOL0     C 7047   2.980   1.600   2.356  0.3529  0.2723  0.2347
   53MOL0     C 7048   2.919   1.529   2.238 -0.0717 -0.4087 -0.3243
   53MOL0     C 7049   2.917   1.714   2.404  0.8470  0.5931 -0.7116
   53MOL0     C 7050   2.787   1.780   2.356 -0.1198  0.0190  0.3847
   53MOL0     O 7051   2.714   1.838   2.458  0.3297  0.1594 -0.9066
   53MOL0     C 7052   2.580   1.842   2.437  0.4238 -0.3762 -0.3078
   53MOL0     C 7053   2.519   1.952   2.376  0.7770  0.6549  0.5747
   53MOL0     C 7054   2.380   1.966   2.366  0.2465  0.1750  0.1747
   53MOL0     C 7055   2.299   1.848   2.391  0.6725 -0.6082 -0.2770
   53MOL0     O 7056   2.172   1.865   2.367  0.1440  0.2183 -0.5828
   53MOL0     C 7057   2.081   1.766   2.416 -0.4133 -0.2485 -0.1651
   53MOL0     C 7058   1.950   1.779   2.359  0.0188 -0.1933 -0.3765
   53MOL0     C 7059   1.856   1.676   2.407  0.1881 -0.1584 -0.2578
   53MOL0     C 7060   1.750   1.647   2.303 -1.2815 -0.0979  0.3742
   53MOL0     C 7061   1.628   1.594   2.372 -0.3957 -0.2920 -0.6262
   53MOL0     C 7062   1.517   1.565   2.278  0.3501  0.6325 -0.3342
   53MOL0     C 7063   1.404   1.477   2.330 -0.1879  0.0131  0.2825
   53MOL0     C 7064   1.297   1.481   2.219 -0.1829 -0.1151  0.1772
   53MOL0    Cl 7065   1.343   1.376   2.079  0.1763  0.0915 -0.2738
   53MOL0     C 7066   2.366   1.731   2.429  0.2642  0.7883  0.1216
   53MOL0     C 7067   2.506   1.729   2.456 -0.4364 -0.1730 -0.3497
   53MOL0     O 7068   2.753   1.756   2.237  0.2802  0.0702 -0.6509
   53MOL0     C 7069   2.957   1.756   2.533  0.4644  0.0857  0.5732
   53MOL0     C 7070   3.072   1.704   2.595 -0.2887 -0.2088 -0.5141
   53MOL0     N 7071   3.912   1.252   2.509 -0.1993  1.0337 -0.4433
   53MOL0     N 7072   3.996   1.202   2.420 -0.7633  0.1654 -0.1804
   53MOL0     C 7073   5.086   1.163   2.306 -0.3187  0.1935  0.3096
   53MOL0     C 7074   5.208   1.154   2.383 -0.1877  0.3170 -0.0106
   53MOL0     C 7075   5.651   1.263   2.437  0.1349 -0.7811  0.5720
   53MOL0     C 7076   5.656   1.171   2.531  0.1022  0.3033  0.0746
   53MOL0     C 7077   5.783   1.139   2.585 -0.0006  0.6268 -0.0966
   53MOL0     C 7078   5.896   1.196   2.540  0.0552 -0.2227 -0.5964
   53MOL0     O 7079   6.020   1.141   2.562  0.9290 -0.0434 -0.0839
   53MOL0     C 7080   6.084   1.152   2.690  0.7409 -0.2114 -0.1049
   53MOL0     C 7081   6.132   1.291   2.733 -0.3139  0.6842 -0.1008
   53MOL0     C 7082   6.255   1.341   2.664 -0.3813 -0.3869 -0.7087
   53MOL0     C 7083   6.382   1.246   2.670  0.9730  0.1474 -0.4759
   53MOL0     C 7084   6.390   1.166   2.798  0.1857 -0.4815  0.3314
   53MOL0     C 7085   6.390   1.084   2.889 -0.2188  0.6944 -0.4298
   53MOL0     C 7086   5.893   1.298   2.451  0.3785 -0.7516  0.4255
   53MOL0     C 7087   5.768   1.338   2.406 -0.8221  0.2040 -0.8412
   53MOL0     H 7088   5.310   1.480   2.340  0.4929  1.2124  1.9697
   53MOL0     H 7089   5.082   1.495   2.240  0.2080  0.4139  1.8457
   53MOL0     H 7090   4.862   1.276   1.999 -0.8067  1.1845  0.8323
   53MOL0     H 7091   4.921   1.132   2.087 -0.8948 -0.9906  0.2729
   53MOL0     H 7092   4.690   1.124   2.068  1.8392  0.4187 -0.5450
   53MOL0     H 7093   4.726   1.177   2.240  0.5831 -1.7241 -0.0692
   53MOL0     H 7094   4.683   1.407   2.205 -1.9281  0.8194  1.2018
   53MOL0     H 7095   4.644   1.386   2.031  0.5704  0.9681  0.5668
   53MOL0     H 7096   4.460   1.214   2.114 -0.9339  0.3583  1.1620
   53MOL0     H 7097   4.504   1.258   2.280  1.2581  1.3440  0.3645
   53MOL0     H 7098   4.466   1.498   2.220  1.3107  0.6967 -1.3557
   53MOL0     H 7099   4.413   1.454   2.060 -0.0091  0.8267  0.3004
   53MOL0     H 7100   4.310   1.367   2.339 -3.3739  0.4769  0.9208
   53MOL0     H 7101   4.234   1.484   2.235  1.1542  0.0953 -0.1100
   53MOL0     H 7102   4.226   1.268   2.072 -1.4885  0.8118 -0.1005
   53MOL0     H 7103   4.235   1.183   2.233  0.2245  1.4061  1.9970
   53MOL0     H 7104   4.012   1.191   2.118  1.8523 -1.5637  0.5012
   53MOL0     H 7105   4.032   1.371   2.129  0.4212 -0.1183 -0.9075
   53MOL0     H 7106   3.875   1.467   2.267  1.6271  0.1578 -0.4510
   53MOL0     H 7107   3.715   1.374   2.623  0.1223 -1.4644 -0.2674
   53MOL0     H 7108   3.792   1.532   2.560  0.8065 -1.6646  2.9175
   53MOL0     H 7109   3.573   1.359   2.440 -2.7535  0.1135 -1.1450
   53MOL0     H 7110   3.622   1.519   2.375 -1.9020 -1.3224  0.5770
   53MOL0     H 7111   3.551   1.633   2.567 -0.0742  0.2818 -1.4333
   53MOL0     H 7112   3.511   1.477   2.650  0.7820 -0.6186 -0.6362
   53MOL0     H 7113   3.355   1.436   2.456  1.1100  0.7140 -1.4785
   53MOL0     H 7114   3.380   1.613   2.411  0.4925  0.9782 -0.0350
   53MOL0     H 7115   3.139   1.452   2.377  1.1558  0.1702 -0.4234
   53MOL0     H 7116   2.818   1.492   2.259  0.4813 -1.7507  0.1010
   53MOL0     H 7117   2.921   1.601   2.156 -1.9799  2.5259  2.0076
   53MOL0     H 7118   2.986   1.446   2.215  0.8866  0.8270 -2.1993
   53MOL0     H 7119   2.579   2.037   2.343 -1.2349  1.1835 -2.0444
   53MOL0     H 7120   2.336   2.061   2.338 -2.5452 -1.2829 -0.7161
   53MOL0     H 7121   2.117   1.665   2.391  0.5492  0.2730 -0.9595
   53MOL0     H 7122   2.082   1.759   2.525  0.1157 -0.4583 -0.1765
   53MOL0     H 7123   1.907   1.875   2.392  0.5123  0.4232 -1.4844
   53MOL0     H 7124   1.965   1.785   2.251  4.3434  0.7392  0.1089
   53MOL0     H 7125   1.815   1.704   2.504  3.2325 -1.4563  1.5487
   53MOL0     H 7126   1.915   1.584   2.418  1.4218  0.6649  0.3346
   53MOL0     H 7127   1.730   1.738   2.246 -2.6750 -1.3204 -1.2130
   53MOL0     H 7128   1.782   1.570   2.232 -0.5617 -1.9506  2.5864
   53MOL0     H 7129   1.592   1.670   2.442 -3.2708 -0.2824 -1.9627
   53MOL0     H 7130   1.650   1.504   2.432  0.9393 -0.2406 -1.0202
   53MOL0     H 7131   1.479   1.659   2.237 -2.4848 -1.1855 -2.1796
   53MOL0     H 7132   1.571   1.507   2.203 -1.1551  0.3324 -1.2234
   53MOL0     H 7133   1.353   1.503   2.423 -0.1801 -2.6285  1.1078
   53MOL0     H 7134   1.430   1.373   2.349 -4.3584 -1.4422 -0.8908
   53MOL0     H 7135   1.287   1.582   2.176 -1.1607 -1.0750 -2.0346
   53MOL0     H 7136   1.200   1.452   2.259 -0.5186  0.5698 -0.1054
   53MOL0     H 7137   2.318   1.634   2.438  1.1371  0.3983  0.7152
   53MOL0     H 7138   2.558   1.640   2.490  0.4931  0.7242  0.6466
   53MOL0     H 7139   2.914   1.846   2.576  0.8355  1.3148 -1.4755
   53MOL0     H 7140   3.098   1.746   2.692  1.6567  2.4592 -2.0384
   53MOL0     H 7141   5.024   1.074   2.302 -2.8534  1.8860 -0.0506
   53MOL0     H 7142   5.241   1.056   2.417  0.6314 -0.1621 -2.0668
   53MOL0     H 7143   5.562   1.135   2.571  0.5398 -1.8842 -0.7042
   53MOL0     H 7144   5.786   1.064   2.664  1.7203 -2.7663 -3.0671
   53MOL0     H 7145   6.017   1.118   2.769  0.0347  1.7681  0.1990
   53MOL0     H 7146   6.158   1.071   2.687  0.9164 -0.0731  0.4118
   53MOL0     H 7147   6.148   1.297   2.841 -0.1136  1.6073 -0.1773
   53MOL0     H 7148   6.050   1.362   2.717  1.2475  2.3360 -1.0522
   53MOL0     H 7149   6.280   1.431   2.722  0.2798 -0.6728 -0.5431
   53MOL0     H 7150   6.236   1.379   2.563  1.2755  1.3990 -0.4153
   53MOL0     H 7151   6.469   1.311   2.659  2.9639 -2.2691 -0.0010
   53MOL0     H 7152   6.382   1.187   2.577 -0.6214 -1.7695  0.6468
   53MOL0     H 7153   6.411   1.022   2.973 -3.6134  2.5133  2.0053
   53MOL0     H 7154   5.984   1.354   2.430  0.1238 -0.9950 -1.4407
   53MOL0     H 7155   5.764   1.427   2.344 -2.8324 -0.7772 -2.2213
   54MOL0     O 7156   8.655   3.457   4.574  0.8434 -0.1617 -0.0314
   54MOL0     C 7157   8.643   3.387   4.672 -0.1621 -0.2993 -0.4905
   54MOL0     O 7158   8.525   3.348   4.731 -0.3665 -0.1206 -0.0288
   54MOL0     C 7159   8.413   3.349   4.652  0.1136  0.9051 -1.3388
   54MOL0     C 7160   8.402   3.285   4.532  1.0006  0.0807  0.0410
   54MOL0     C 7161   8.287   3.290   4.462  1.6611 -0.1139 -0.2219
   54MOL0     C 7162   8.170   3.345   4.518  0.0020 -0.7616 -0.3185
   54MOL0     O 7163   8.045   3.343   4.451 -0.5221  0.4266  0.2620
   54MOL0     C 7164   8.009   3.251   4.355  0.7688 -0.3394  0.1011
   54MOL0     C 7165   7.887   3.301   4.276 -0.1462 -0.0956  0.1122
   54MOL0     C 7166   7.765   3.303   4.368 -0.4794 -0.2900 -0.3527
   54MOL0     C 7167   7.631   3.290   4.294  0.3390  0.1305  1.4158
   54MOL0     C 7168   7.524   3.340   4.389  0.0608 -0.2829  0.2867
   54MOL0     C 7169   7.403   3.394   4.307  0.4456  0.3403  0.5254
   54MOL0     C 7170   7.422   3.539   4.278  0.3116 -0.2705  0.2655
   54MOL0     C 7171   7.407   3.628   4.400  0.9136 -0.1070 -0.0399
   54MOL0     N 7172   7.281   3.710   4.399 -0.1320  0.2976  0.2448
   54MOL0     C 7173   7.280   3.832   4.460 -0.5796  0.2635  0.1797
   54MOL0     C 7174   7.150   3.868   4.442  0.0096 -0.8233  0.6356
   54MOL0     C 7175   7.086   3.994   4.497  0.1335 -0.3851 -0.2720
   54MOL0     C 7176   6.951   3.981   4.569 -0.6153  0.1307  0.4488
   54MOL0     C 7177   6.887   4.110   4.609 -0.0589 -0.3069  0.1054
   54MOL0     C 7178   6.738   4.082   4.646 -0.8862  0.2364 -0.4257
   54MOL0     O 7179   6.700   4.182   4.742  0.2376 -0.5651 -0.2486
   54MOL0     C 7180   6.565   4.179   4.789 -0.1246 -0.3407 -0.8676
   54MOL0     C 7181   6.494   4.298   4.811 -0.3661 -0.5881  0.4976
   54MOL0     C 7182   6.363   4.311   4.861 -0.7136  0.0495  1.2108
   54MOL0     C 7183   6.302   4.448   4.889  1.0442 -0.4440 -0.2658
   54MOL0     C 7184   6.292   4.189   4.873 -0.0998  0.3353  0.3622
   54MOL0     C 7185   6.150   4.187   4.904 -0.7385  0.0636 -0.2713
   54MOL0     O 7186   6.086   4.277   4.982  0.6136  0.0973 -0.5613
   54MOL0     C 7187   5.945   4.272   5.003  0.0322  0.9521 -0.4362
   54MOL0     C 7188   5.874   4.383   5.020 -0.0836 -0.0781  0.7123
   54MOL0     C 7189   5.736   4.384   5.062 -0.9157  0.0271 -0.4701
   54MOL0     C 7190   5.664   4.265   5.070 -1.0108  0.8384  1.0400
   54MOL0     O 7191   5.530   4.244   5.070  0.6369 -0.0463  0.1861
   54MOL0     C 7192   5.446   4.358   5.076 -0.0239 -0.4445  0.5130
   54MOL0     C 7193   5.294   4.328   5.069  0.9111 -0.0496 -0.2482
   54MOL0     C 7194   5.259   4.202   5.155  0.7582  0.7389  0.0468
   54MOL0     C 7195   5.106   4.192   5.207 -0.5925  0.1859  0.0975
   54MOL0     C 7196   5.024   4.149   5.084 -0.3638  1.0406  0.3012
   54MOL0     C 7197   4.872   4.148   5.126  0.0666  0.5481 -0.3221
   54MOL0     C 7198   4.805   4.283   5.161  0.3195  0.2713 -0.2132
   54MOL0     C 7199   4.662   4.256   5.200  0.4175  0.0898 -0.1050
   54MOL0    Cl 7200   4.636   4.158   5.347  0.1475  0.3260 -0.0017
   54MOL0     C 7201   5.739   4.145   5.052 -0.1234  0.4726 -0.3523
   54MOL0     C 7202   5.880   4.145   5.030  0.7523  1.0512  0.4154
   54MOL0     O 7203   6.094   4.096   4.840  0.0927  0.1874 -0.4426
   54MOL0     C 7204   6.357   4.066   4.834  0.1770 -0.5161  0.3552
   54MOL0     C 7205   6.489   4.066   4.800 -0.1883 -0.1724  0.1405
   54MOL0     N 7206   7.075   3.763   4.388 -0.9397  0.5181 -0.1787
   54MOL0     N 7207   7.154   3.669   4.364 -0.4268  0.5214 -0.4142
   54MOL0     C 7208   8.181   3.396   4.648 -0.4552  1.0722 -0.3398
   54MOL0     C 7209   8.299   3.390   4.722  0.4344 -0.3685 -0.0381
   54MOL0     C 7210   8.760   3.334   4.747 -0.3523 -0.6563 -0.2286
   54MOL0     C 7211   8.871   3.317   4.674 -1.0933  1.1397 -0.1489
   54MOL0     C 7212   8.989   3.261   4.730  0.0947  0.0467 -0.0049
   54MOL0     C 7213   8.982   3.223   4.865  0.0377  0.3743 -0.5846
   54MOL0     O 7214   9.083   3.156   4.932  0.1977 -0.5591 -0.2758
   54MOL0     C 7215   9.223   3.157   4.899  0.6058  0.9344  0.3492
   54MOL0     C 7216   9.303   3.068   4.984 -0.2287  0.1332  0.1887
   54MOL0     C 7217   9.258   2.916   4.995 -0.3990  0.1176  0.3050
   54MOL0     C 7218   9.235   2.845   4.854 -0.1714 -0.3386 -0.3225
   54MOL0     C 7219   9.177   2.710   4.870  0.4872  0.2637 -0.1361
   54MOL0     C 7220   9.154   2.593   4.887  0.3589 -0.7851  0.0182
   54MOL0     C 7221   8.864   3.239   4.939 -0.4011  0.2982 -0.1168
   54MOL0     C 7222   8.756   3.303   4.877 -0.1169  1.0945 -0.6531
   54MOL0     H 7223   8.485   3.225   4.496  0.7331 -0.0393 -0.3845
   54MOL0     H 7224   8.286   3.250   4.361 -1.9333  0.8009 -0.6786
   54MOL0     H 7225   8.091   3.246   4.283  0.6433  1.2357 -0.1696
   54MOL0     H 7226   7.992   3.149   4.391  0.8071 -1.2541 -2.2878
   54MOL0     H 7227   7.914   3.400   4.238  2.0914  0.8255  3.5821
   54MOL0     H 7228   7.875   3.234   4.191  1.4093  0.9576 -0.9972
   54MOL0     H 7229   7.763   3.226   4.446 -0.7355 -1.6735 -1.6782
   54MOL0     H 7230   7.766   3.398   4.424 -1.8379  0.3699 -1.3894
   54MOL0     H 7231   7.624   3.356   4.207 -2.7782  1.6543  2.6737
   54MOL0     H 7232   7.601   3.191   4.259 -0.5478  1.3593 -1.5778
   54MOL0     H 7233   7.491   3.251   4.445 -2.8915 -0.4672 -1.5112
   54MOL0     H 7234   7.551   3.407   4.471 -0.4883 -0.2510  0.4447
   54MOL0     H 7235   7.369   3.323   4.231 -0.6546 -3.0514  3.9083
   54MOL0     H 7236   7.317   3.392   4.374 -2.7495  0.5790 -3.1606
   54MOL0     H 7237   7.517   3.558   4.226  0.3870 -0.5033  0.3133
   54MOL0     H 7238   7.350   3.558   4.198  0.5635 -1.0435 -0.1619
   54MOL0     H 7239   7.495   3.694   4.397  0.6711  0.1808 -1.6414
   54MOL0     H 7240   7.409   3.581   4.498  1.0211  1.6548  0.8336
   54MOL0     H 7241   7.351   3.894   4.514 -0.9379 -1.0912  2.3504
   54MOL0     H 7242   7.152   4.020   4.580  0.7797  0.5633 -1.0482
   54MOL0     H 7243   7.075   4.071   4.419 -0.3871  0.7917  0.9222
   54MOL0     H 7244   6.977   3.917   4.654  0.8452 -2.2733 -1.6645
   54MOL0     H 7245   6.885   3.915   4.512 -1.1435 -0.7578  2.0268
   54MOL0     H 7246   6.893   4.176   4.522  1.2590  1.2230  1.2936
   54MOL0     H 7247   6.941   4.159   4.691 -1.5529  2.1124 -0.2431
   54MOL0     H 7248   6.728   3.980   4.683 -0.0248  0.2565 -0.1244
   54MOL0     H 7249   6.683   4.090   4.552  0.7003  2.4586 -1.2356
   54MOL0     H 7250   6.550   4.387   4.784  0.1809 -1.1132 -0.1447
   54MOL0     H 7251   6.363   4.529   4.848 -0.6516 -0.6302 -3.5245
   54MOL0     H 7252   6.206   4.453   4.838  0.8361 -0.7133  0.0955
   54MOL0     H 7253   6.288   4.476   4.994  0.0078  3.1889 -1.2168
   54MOL0     H 7254   5.929   4.476   5.014  0.7468 -0.6471 -1.8312
   54MOL0     H 7255   5.691   4.478   5.092 -0.0146 -0.3033  2.1531
   54MOL0     H 7256   5.466   4.408   5.172  0.2961  2.9812 -1.1918
   54MOL0     H 7257   5.471   4.435   5.003  0.9176  1.2882  2.5338
   54MOL0     H 7258   5.238   4.411   5.113  2.9142  0.4435  1.5201
   54MOL0     H 7259   5.259   4.309   4.967  2.1070 -1.8888 -0.3599
   54MOL0     H 7260   5.327   4.209   5.241 -0.8430 -2.1604  1.7249
   54MOL0     H 7261   5.293   4.112   5.104  3.4182  0.5622  1.9247
   54MOL0     H 7262   5.104   4.111   5.281 -0.8192 -0.2553 -0.3800
   54MOL0     H 7263   5.073   4.284   5.257 -1.8401 -0.3473  0.3025
   54MOL0     H 7264   5.063   4.057   5.041 -3.2272 -0.0656 -0.1588
   54MOL0     H 7265   5.026   4.229   5.009 -0.3961  1.2217  0.4909
   54MOL0     H 7266   4.812   4.103   5.047  0.4923 -0.3397 -0.1567
   54MOL0     H 7267   4.861   4.084   5.214  1.8938  0.6328  0.0141
   54MOL0     H 7268   4.794   4.357   5.081 -3.1553 -0.2728 -0.3735
   54MOL0     H 7269   4.849   4.322   5.254  0.0172  1.0203 -0.3795
   54MOL0     H 7270   4.611   4.202   5.120  0.4191  2.9875 -2.2029
   54MOL0     H 7271   4.600   4.346   5.208 -1.0102 -0.8264 -0.5156
   54MOL0     H 7272   5.687   4.055   5.081  2.6186 -0.6002  1.7004
   54MOL0     H 7273   5.926   4.047   5.033 -0.0015  0.6773 -0.0323
   54MOL0     H 7274   6.297   3.977   4.820 -1.0462  0.2636  0.5115
   54MOL0     H 7275   6.524   3.966   4.778  1.0717  0.3648 -0.3622
   54MOL0     H 7276   8.090   3.415   4.703  0.8310  0.4044  2.1871
   54MOL0     H 7277   8.297   3.434   4.820  1.1396  2.0801 -1.0582
   54MOL0     H 7278   8.867   3.326   4.566  1.6583 -1.6371 -0.6116
   54MOL0     H 7279   9.079   3.231   4.676  0.0963 -3.2905  1.5887
   54MOL0     H 7280   9.236   3.122   4.796 -2.4347 -0.5394  0.3609
   54MOL0     H 7281   9.253   3.262   4.911  2.4497  0.9036 -2.8214
   54MOL0     H 7282   9.297   3.100   5.089  1.5040 -0.0176  0.3749
   54MOL0     H 7283   9.406   3.064   4.948 -0.5625 -0.9753 -0.6877
   54MOL0     H 7284   9.164   2.915   5.052 -1.2773  1.7560 -1.0326
   54MOL0     H 7285   9.325   2.863   5.063 -0.1016  1.6831  1.2885
   54MOL0     H 7286   9.332   2.829   4.807  0.4548  0.1576  0.7948
   54MOL0     H 7287   9.168   2.902   4.788  0.2847  2.4035  1.4593
   54MOL0     H 7288   9.129   2.489   4.898 -0.6566 -0.8769 -2.5495
   54MOL0     H 7289   8.857   3.197   5.039  1.0281  0.9829  0.3063
   54MOL0     H 7290   8.657   3.305   4.923  0.9724  1.6488  1.8224
   55MOL0     O 7291   9.591   4.589   5.414  0.6084 -0.0037  0.2283
   55MOL0     C 7292   9.647   4.685   5.460  0.0868 -0.2630  0.3541
   55MOL0     O 7293   9.586   4.793   5.528 -0.3092  0.7704 -0.2760
   55MOL0     C 7294   9.455   4.781   5.558 -0.0599 -1.0634  0.2045
   55MOL0     C 7295   9.423   4.801   5.691 -0.0481 -0.1401  0.8393
   55MOL0     C 7296   9.296   4.807   5.736  0.1647 -0.1606 -0.4164
   55MOL0     C 7297   9.188   4.783   5.653 -0.8325 -0.4130 -0.0686
   55MOL0     O 7298   9.056   4.770   5.699  0.0142  0.3035 -0.2377
   55MOL0     C 7299   9.018   4.637   5.676 -0.4565  0.3598 -1.2272
   55MOL0     C 7300   8.874   4.594   5.714 -0.0982 -0.6363 -0.2547
   55MOL0     C 7301   8.788   4.676   5.626 -0.1721  0.0872 -0.7981
   55MOL0     C 7302   8.642   4.654   5.664  0.9694 -0.3922 -0.1162
   55MOL0     C 7303   8.554   4.766   5.600  0.4824 -0.6968 -0.5499
   55MOL0     C 7304   8.511   4.746   5.462  0.2449 -0.6509  0.9243
   55MOL0     C 7305   8.382   4.664   5.436 -1.0410 -0.7734  0.6821
   55MOL0     C 7306   8.262   4.745   5.485  0.4886  0.1502 -1.2515
   55MOL0     N 7307   8.140   4.695   5.425 -0.1998 -0.5373  0.0940
   55MOL0     C 7308   8.119   4.672   5.289  0.2867  0.3937 -0.9947
   55MOL0     C 7309   7.999   4.614   5.282 -0.0348 -0.1696  0.2461
   55MOL0     C 7310   7.935   4.576   5.142 -0.0775 -0.5528 -0.1270
   55MOL0     C 7311   7.802   4.642   5.133 -0.2066 -0.0498  1.2646
   55MOL0     C 7312   7.729   4.578   5.011 -0.6008 -0.2293  0.2608
   55MOL0     C 7313   7.595   4.639   4.978 -0.6347  0.3917 -0.0023
   55MOL0     O 7314   7.521   4.551   4.889 -0.3171  0.7859  0.2901
   55MOL0     C 7315   7.399   4.591   4.842  0.5570  0.2326  0.5307
   55MOL0     C 7316   7.326   4.478   4.811 -0.2192  0.5648  0.0702
   55MOL0     C 7317   7.199   4.494   4.758  0.7618  0.4071  0.0101
   55MOL0     C 7318   7.129   4.370   4.707 -0.2169  0.3980 -0.5836
   55MOL0     C 7319   7.139   4.623   4.744  0.2315  0.0876 -0.0578
   55MOL0     C 7320   7.014   4.647   4.685  0.1636 -0.1281  0.7761
   55MOL0     O 7321   7.004   4.782   4.631 -0.1108  0.5349  0.3084
   55MOL0     C 7322   6.883   4.829   4.594 -0.0424  0.0282  0.3115
   55MOL0     C 7323   6.836   4.951   4.635  0.4596  0.5699  0.2674
   55MOL0     C 7324   6.719   5.017   4.585 -0.7311 -0.0361  0.1922
   55MOL0     C 7325   6.657   4.944   4.479  0.0413 -0.4818  0.0256
   55MOL0     O 7326   6.541   4.980   4.417  0.8643  0.1300 -0.5636
   55MOL0     C 7327   6.485   5.112   4.449  0.6248 -0.1282 -0.3488
   55MOL0     C 7328   6.387   5.144   4.344  1.1705  0.6206 -0.4665
   55MOL0     C 7329   6.339   5.295   4.356  0.7077  0.1337  0.3985
   55MOL0     C 7330   6.219   5.329   4.252 -0.0335  0.5477  0.3061
   55MOL0     C 7331   6.091   5.245   4.271  0.3109  0.5685  0.1890
   55MOL0     C 7332   5.979   5.263   4.162 -0.0121 -0.0560 -0.3094
   55MOL0     C 7333   5.844   5.208   4.198  0.3613  0.0795 -0.1433
   55MOL0     C 7334   5.766   5.297   4.298 -0.0667  0.0048 -0.3879
   55MOL0    Cl 7335   5.598   5.234   4.285  0.3888  0.4905  0.3645
   55MOL0     C 7336   6.708   4.823   4.436  0.3062  0.6805 -0.1332
   55MOL0     C 7337   6.820   4.764   4.492  0.2828  0.0933  0.0164
   55MOL0     O 7338   6.919   4.570   4.704 -0.0887 -0.1749  0.0859
   55MOL0     C 7339   7.217   4.737   4.788 -0.7755 -0.6166  0.1816
   55MOL0     C 7340   7.347   4.717   4.842  0.5108 -0.2934  0.1990
   55MOL0     N 7341   7.955   4.587   5.408  0.1855 -0.3650 -0.2615
   55MOL0     N 7342   8.041   4.636   5.498  0.3982  0.0073  0.3252
   55MOL0     C 7343   9.214   4.762   5.513 -0.1902 -0.1905  0.3083
   55MOL0     C 7344   9.347   4.749   5.471  0.3605  0.4357  0.3620
   55MOL0     C 7345   9.791   4.692   5.431 -0.1428 -0.1912 -0.5746
   55MOL0     C 7346   9.853   4.617   5.332  0.1274  0.0031  0.5172
   55MOL0     C 7347   9.990   4.602   5.328 -0.2934 -1.5276  0.0856
   55MOL0     C 7348  10.078   4.679   5.410 -0.8218  0.1637 -0.7946
   55MOL0     O 7349  10.214   4.662   5.421  0.8600 -0.2922 -0.3441
   55MOL0     C 7350  10.272   4.618   5.300  0.2858 -0.2454 -0.7953
   55MOL0     C 7351  10.422   4.665   5.297  0.1560 -0.4593  0.3984
   55MOL0     C 7352  10.491   4.649   5.428 -0.2806 -0.3295 -0.1706
   55MOL0     C 7353  10.639   4.609   5.418 -0.2776 -0.6014  0.1247
   55MOL0     C 7354  10.712   4.737   5.390 -0.0237  0.7516 -0.7932
   55MOL0     C 7355  10.748   4.851   5.367  0.5871  0.0303  0.4145
   55MOL0     C 7356  10.014   4.751   5.508  0.1756  0.2666 -0.6711
   55MOL0     C 7357   9.879   4.758   5.525 -0.1974  0.3314 -0.2671
   55MOL0     H 7358   9.504   4.815   5.762  0.3645  0.0045  0.3471
   55MOL0     H 7359   9.278   4.840   5.837  0.3343 -1.5278  0.0807
   55MOL0     H 7360   9.035   4.602   5.574  3.8796 -0.3808 -0.4198
   55MOL0     H 7361   9.083   4.581   5.743  0.8396  3.0764 -0.0794
   55MOL0     H 7362   8.853   4.489   5.693  0.7477 -0.1700 -4.1643
   55MOL0     H 7363   8.862   4.609   5.821 -0.0054  2.3928 -0.5823
   55MOL0     H 7364   8.816   4.781   5.618  0.6813 -0.1234 -0.6423
   55MOL0     H 7365   8.811   4.635   5.527 -0.1736 -3.4921  0.5164
   55MOL0     H 7366   8.603   4.560   5.624 -1.6048  0.9384 -0.9972
   55MOL0     H 7367   8.630   4.654   5.773  0.8254 -0.3621 -0.1317
   55MOL0     H 7368   8.470   4.797   5.664  1.1580  1.2076 -0.5481
   55MOL0     H 7369   8.614   4.857   5.605  0.3184 -0.5685 -0.9373
   55MOL0     H 7370   8.497   4.845   5.417  0.3237 -1.0405  0.0226
   55MOL0     H 7371   8.594   4.708   5.402  0.7279  0.7216  0.6844
   55MOL0     H 7372   8.379   4.640   5.329 -0.3163 -2.4447  1.0009
   55MOL0     H 7373   8.395   4.563   5.476  2.8211 -1.5233 -1.9077
   55MOL0     H 7374   8.278   4.850   5.460  0.8346  0.4599  0.2375
   55MOL0     H 7375   8.256   4.729   5.593  0.6837 -3.0979 -1.6173
   55MOL0     H 7376   8.177   4.712   5.206 -2.3457  2.4509 -1.9949
   55MOL0     H 7377   7.999   4.613   5.062 -1.2404  2.9283  0.3991
   55MOL0     H 7378   7.930   4.468   5.128  1.8592 -0.8443  0.9675
   55MOL0     H 7379   7.814   4.750   5.119  0.1293  0.0619  2.3340
   55MOL0     H 7380   7.747   4.611   5.222 -2.0217 -1.3475 -0.2427
   55MOL0     H 7381   7.709   4.476   5.047 -0.2866  0.9234  4.2724
   55MOL0     H 7382   7.799   4.571   4.927 -0.6459  1.4271  0.0561
   55MOL0     H 7383   7.604   4.745   4.952 -1.8113  0.5244  0.0775
   55MOL0     H 7384   7.530   4.651   5.065 -1.9353  2.3457 -1.1557
   55MOL0     H 7385   7.370   4.379   4.814  2.3263  1.5461 -1.6779
   55MOL0     H 7386   7.195   4.283   4.703  0.6527  0.9826  0.3741
   55MOL0     H 7387   7.041   4.338   4.764 -1.1672  0.1535 -2.1545
   55MOL0     H 7388   7.093   4.387   4.606  0.9453 -0.3821 -1.1554
   55MOL0     H 7389   6.893   5.003   4.712 -0.1056  0.5519  0.7044
   55MOL0     H 7390   6.678   5.109   4.626 -2.9646 -1.4626  1.3609
   55MOL0     H 7391   6.435   5.102   4.546  2.4124 -2.3278  0.4553
   55MOL0     H 7392   6.561   5.190   4.453  1.8604 -1.3064  0.2465
   55MOL0     H 7393   6.433   5.108   4.251  0.6972 -1.9944  0.2347
   55MOL0     H 7394   6.303   5.075   4.360  0.2825  1.7231 -0.2139
   55MOL0     H 7395   6.420   5.368   4.348  0.8737 -0.2149 -1.7780
   55MOL0     H 7396   6.302   5.295   4.459  1.5281 -0.4395  0.7084
   55MOL0     H 7397   6.218   5.438   4.251  2.1401  0.6282 -0.5521
   55MOL0     H 7398   6.249   5.299   4.151  1.1237 -0.7207  0.9871
   55MOL0     H 7399   6.046   5.267   4.368 -3.1639 -1.9132 -0.6683
   55MOL0     H 7400   6.121   5.140   4.270  0.2802  0.5407  1.3318
   55MOL0     H 7401   5.963   5.370   4.151 -1.0249  0.0173  1.4510
   55MOL0     H 7402   6.008   5.214   4.069 -2.1729 -1.0418 -0.5242
   55MOL0     H 7403   5.849   5.105   4.234  3.4298 -0.6648 -2.2996
   55MOL0     H 7404   5.795   5.194   4.101  0.1816  1.1405 -0.2247
   55MOL0     H 7405   5.767   5.405   4.280 -0.0542 -0.2459 -2.0833
   55MOL0     H 7406   5.808   5.290   4.399  0.1902  0.5979 -0.4519
   55MOL0     H 7407   6.661   4.771   4.353  0.0111 -0.5212  0.7663
   55MOL0     H 7408   6.871   4.681   4.444 -1.1952  0.0951 -1.6664
   55MOL0     H 7409   7.176   4.838   4.784 -3.6033 -1.4408  3.4046
   55MOL0     H 7410   7.411   4.798   4.873  1.0346 -0.7104  0.2262
   55MOL0     H 7411   9.130   4.765   5.445  1.6458 -1.8487 -2.2213
   55MOL0     H 7412   9.368   4.721   5.368  1.9319 -0.3511  0.8729
   55MOL0     H 7413   9.779   4.564   5.273 -1.3115  1.6457  0.7630
   55MOL0     H 7414  10.035   4.524   5.268 -0.9889 -0.0124 -2.5531
   55MOL0     H 7415  10.255   4.510   5.289 -1.6282  0.0917 -1.7493
   55MOL0     H 7416  10.222   4.672   5.218  1.7329  1.3272 -0.6855
   55MOL0     H 7417  10.418   4.772   5.274 -0.7134 -0.3783  0.8714
   55MOL0     H 7418  10.464   4.603   5.217 -0.8253 -2.6371  1.4917
   55MOL0     H 7419  10.440   4.563   5.472 -1.5178  0.9474  0.9891
   55MOL0     H 7420  10.481   4.733   5.496 -0.7339  0.0989 -0.7538
   55MOL0     H 7421  10.661   4.525   5.351  1.3065 -0.5066  0.4755
   55MOL0     H 7422  10.671   4.579   5.519  1.4754  2.1050  0.4800
   55MOL0     H 7423  10.776   4.952   5.345 -0.2810  0.3273  0.6267
   55MOL0     H 7424  10.073   4.801   5.584 -0.6534  1.4350 -0.7739
   55MOL0     H 7425   9.832   4.820   5.602 -2.0148 -0.6049 -0.5576
   56MOL0     O 7426   0.873   3.587   0.017  0.0596 -0.5056  0.0679
   56MOL0     C 7427   0.940   3.654  -0.057 -0.6600 -0.3802 -0.1425
   56MOL0     O 7428   0.892   3.712  -0.169 -0.3025 -0.7336 -0.0328
   56MOL0     C 7429   0.758   3.695  -0.201 -0.7570  0.7982  0.0554
   56MOL0     C 7430   0.662   3.798  -0.204 -0.5047 -0.3770 -0.3358
   56MOL0     C 7431   0.529   3.780  -0.269  0.1621  0.8970  0.0824
   56MOL0     C 7432   0.494   3.659  -0.328  0.4668 -0.3051  0.1856
   56MOL0     O 7433   0.365   3.659  -0.377 -0.4727 -0.0154 -0.7930
   56MOL0     C 7434   0.333   3.536  -0.443  0.0541  0.3039  0.2786
   56MOL0     C 7435   0.195   3.533  -0.493 -0.0066 -0.4602 -0.2317
   56MOL0     C 7436   0.089   3.469  -0.405 -0.6585 -0.9442  0.1542
   56MOL0     C 7437  -0.055   3.446  -0.456  0.5339 -0.0507  0.2450
   56MOL0     C 7438  -0.146   3.381  -0.351  1.0348  0.5298  0.1498
   56MOL0     C 7439  -0.291   3.368  -0.396  1.2577 -0.1724  0.4816
   56MOL0     C 7440  -0.395   3.306  -0.291 -0.2408 -0.1937  0.2920
   56MOL0     C 7441  -0.449   3.395  -0.190  1.3239  0.3612 -0.0857
   56MOL0     N 7442  -0.569   3.361  -0.115  0.4467  0.3624 -0.0994
   56MOL0     C 7443  -0.620   3.239  -0.116  0.6226 -0.6155 -0.5769
   56MOL0     C 7444  -0.753   3.256  -0.074 -0.6823 -0.3413 -0.5301
   56MOL0     C 7445  -0.854   3.150  -0.047 -0.2068 -0.5057  0.5583
   56MOL0     C 7446  -0.965   3.141  -0.151 -0.0525  0.1461 -0.7906
   56MOL0     C 7447  -1.093   3.207  -0.103  0.1737  0.1975 -0.2110
   56MOL0     C 7448  -1.210   3.189  -0.202 -0.2859 -0.7112  0.1017
   56MOL0     O 7449  -1.247   3.056  -0.229  0.4803  0.2483 -0.1400
   56MOL0     C 7450  -1.380   3.028  -0.247 -0.4332 -0.0214 -0.2216
   56MOL0     C 7451  -1.425   2.904  -0.202  1.0807  0.5467  0.1978
   56MOL0     C 7452  -1.556   2.865  -0.207  0.0237 -0.1900  0.4147
   56MOL0     C 7453  -1.586   2.730  -0.136 -0.1209 -0.2034  0.3215
   56MOL0     C 7454  -1.655   2.947  -0.263 -0.2681 -0.3255 -0.4154
   56MOL0     C 7455  -1.796   2.910  -0.273 -0.3087 -0.2384 -0.3920
   56MOL0     O 7456  -1.878   3.010  -0.305  0.8615  0.7372 -0.4575
   56MOL0     C 7457  -2.016   2.981  -0.319 -0.0207  0.7792 -0.6017
   56MOL0     C 7458  -2.069   2.933  -0.435 -0.4974 -0.1386 -0.3521
   56MOL0     C 7459  -2.203   2.904  -0.447  0.4556  0.4138 -0.1890
   56MOL0     C 7460  -2.286   2.928  -0.333  0.2851 -0.4042 -0.7533
   56MOL0     O 7461  -2.418   2.927  -0.346 -0.2524  0.4575 -0.6810
   56MOL0     C 7462  -2.471   3.013  -0.448  0.3395  0.9623 -0.1235
   56MOL0     C 7463  -2.613   2.963  -0.465  0.2058 -0.5888 -0.2279
   56MOL0     C 7464  -2.689   3.079  -0.530  0.6973 -0.1729  0.0652
   56MOL0     C 7465  -2.837   3.044  -0.558 -0.2997  0.0798 -0.9653
   56MOL0     C 7466  -2.901   3.168  -0.634 -0.7864 -0.1195 -0.1694
   56MOL0     C 7467  -3.059   3.166  -0.633 -0.5928  0.3822  0.4510
   56MOL0     C 7468  -3.110   3.298  -0.690  0.0193  0.0937  0.2733
   56MOL0     C 7469  -3.037   3.424  -0.632  0.0723 -0.1116 -0.3539
   56MOL0    Cl 7470  -3.015   3.417  -0.450  0.1432 -0.2370 -0.2575
   56MOL0     C 7471  -2.232   2.963  -0.212  0.0779  0.4050 -0.4046
   56MOL0     C 7472  -2.092   2.983  -0.202 -0.1545  0.2156  0.6044
   56MOL0     O 7473  -1.826   2.793  -0.263  0.3491  0.3559  0.2862
   56MOL0     C 7474  -1.613   3.077  -0.307 -0.0465  0.2672 -0.6219
   56MOL0     C 7475  -1.477   3.119  -0.295  0.5012  0.0929 -1.2142
   56MOL0     N 7476  -0.771   3.396  -0.066 -0.6597  0.3011 -0.1050
   56MOL0     N 7477  -0.661   3.451  -0.089  0.3834 -0.4207  0.0702
   56MOL0     C 7478   0.591   3.552  -0.325  0.4830  0.0090 -0.1313
   56MOL0     C 7479   0.717   3.571  -0.262 -0.4002 -0.0405  0.4481
   56MOL0     C 7480   1.078   3.657  -0.023  0.2985  0.3112 -0.8363
   56MOL0     C 7481   1.141   3.562   0.068 -0.3894  0.2126 -0.0930
   56MOL0     C 7482   1.263   3.585   0.113  0.1269  0.7182  1.4735
   56MOL0     C 7483   1.351   3.666   0.037  0.6286  0.1889 -0.0788
   56MOL0     O 7484   1.479   3.680   0.098  0.2227 -0.2667 -0.3664
   56MOL0     C 7485   1.567   3.765   0.032  0.1941  0.0852  0.2190
   56MOL0     C 7486   1.709   3.769   0.086 -0.7248 -0.1931 -0.3244
   56MOL0     C 7487   1.812   3.833  -0.010 -0.1650 -0.3984  0.4086
   56MOL0     C 7488   1.943   3.864   0.071 -0.3842 -0.2275 -0.0565
   56MOL0     C 7489   2.050   3.770   0.026 -0.1501 -0.3861  0.9113
   56MOL0     C 7490   2.144   3.702  -0.015  0.3543 -0.5084  0.4187
   56MOL0     C 7491   1.301   3.749  -0.071 -1.0990  0.4896  0.5486
   56MOL0     C 7492   1.163   3.744  -0.100 -0.0970  0.4039 -0.1278
   56MOL0     H 7493   0.690   3.893  -0.160 -1.5959  0.1282 -0.7140
   56MOL0     H 7494   0.461   3.863  -0.282 -2.4636 -1.3011 -1.4814
   56MOL0     H 7495   0.401   3.523  -0.528 -0.2278  0.9842 -0.0634
   56MOL0     H 7496   0.344   3.457  -0.369 -0.6993 -0.2700 -0.2127
   56MOL0     H 7497   0.162   3.632  -0.526  1.5426  0.1769  0.0450
   56MOL0     H 7498   0.197   3.464  -0.578  0.9293 -2.6137  1.4518
   56MOL0     H 7499   0.132   3.370  -0.387  1.1831 -0.5692 -1.8071
   56MOL0     H 7500   0.083   3.535  -0.318 -1.8806 -0.8645  0.0335
   56MOL0     H 7501  -0.090   3.546  -0.483  0.6785  0.2900  1.2608
   56MOL0     H 7502  -0.046   3.379  -0.542  3.0551  0.9289 -0.3768
   56MOL0     H 7503  -0.108   3.281  -0.331  0.9914  0.6247  0.7346
   56MOL0     H 7504  -0.140   3.444  -0.261 -1.3126  1.6521 -0.3800
   56MOL0     H 7505  -0.329   3.470  -0.409  2.2999  0.2786  0.9205
   56MOL0     H 7506  -0.293   3.306  -0.485 -1.3346  0.1089  0.2526
   56MOL0     H 7507  -0.483   3.277  -0.348 -0.2741 -0.7437  0.6162
   56MOL0     H 7508  -0.365   3.212  -0.244  0.2078 -0.1419  0.1098
   56MOL0     H 7509  -0.474   3.489  -0.241 -0.3671  0.7784  1.3950
   56MOL0     H 7510  -0.374   3.415  -0.113  2.5642 -0.2937 -1.0931
   56MOL0     H 7511  -0.571   3.144  -0.132  0.2535 -0.7977 -0.6426
   56MOL0     H 7512  -0.810   3.051  -0.033 -3.4692 -1.7851  3.1925
   56MOL0     H 7513  -0.897   3.170   0.052 -1.6416 -1.0121  0.0607
   56MOL0     H 7514  -0.977   3.036  -0.178  1.1107  0.3707 -2.3942
   56MOL0     H 7515  -0.923   3.182  -0.244 -0.7682  2.4893 -0.1495
   56MOL0     H 7516  -1.077   3.315  -0.091 -0.2948  0.6176 -2.8213
   56MOL0     H 7517  -1.124   3.160  -0.009  1.3075  1.3940  0.7963
   56MOL0     H 7518  -1.179   3.236  -0.295 -1.8146 -0.1197 -0.1434
   56MOL0     H 7519  -1.298   3.244  -0.166 -0.5446 -1.9101  1.4125
   56MOL0     H 7520  -1.352   2.855  -0.138 -1.7261 -1.4765  2.1213
   56MOL0     H 7521  -1.672   2.734  -0.070  0.5866  2.1977  1.2067
   56MOL0     H 7522  -1.594   2.651  -0.211 -0.7517  0.4860 -0.3503
   56MOL0     H 7523  -1.494   2.718  -0.078 -1.7804 -0.5056  3.0043
   56MOL0     H 7524  -2.005   2.929  -0.522 -2.4946  1.4551 -2.0073
   56MOL0     H 7525  -2.252   2.874  -0.540 -2.1496  0.8697  0.9516
   56MOL0     H 7526  -2.475   3.113  -0.402 -0.0345 -0.0099  2.1226
   56MOL0     H 7527  -2.424   3.017  -0.546 -1.2167 -0.3430 -0.9656
   56MOL0     H 7528  -2.617   2.880  -0.537  2.1563  0.5352 -1.7200
   56MOL0     H 7529  -2.658   2.943  -0.367  0.5501  1.6156  0.4321
   56MOL0     H 7530  -2.635   3.117  -0.617  1.8721 -0.6082  0.5971
   56MOL0     H 7531  -2.686   3.164  -0.461  0.1498  2.7058 -3.1699
   56MOL0     H 7532  -2.850   2.943  -0.597 -2.3607 -0.9516  1.9920
   56MOL0     H 7533  -2.895   3.036  -0.465  0.1229  1.8974 -0.5066
   56MOL0     H 7534  -2.857   3.194  -0.730  1.0222 -0.0644  0.6453
   56MOL0     H 7535  -2.872   3.249  -0.566 -0.6133 -0.1718 -0.1827
   56MOL0     H 7536  -3.100   3.081  -0.689  0.2440 -0.3242  0.8918
   56MOL0     H 7537  -3.107   3.149  -0.536 -0.5857 -0.5338  0.3008
   56MOL0     H 7538  -3.218   3.286  -0.679 -0.2253  0.5539 -1.3617
   56MOL0     H 7539  -3.095   3.300  -0.798 -0.6106  0.2330  0.1864
   56MOL0     H 7540  -3.097   3.511  -0.661  0.5631  0.1936 -0.4669
   56MOL0     H 7541  -2.935   3.441  -0.669  0.1059  2.2075  0.5836
   56MOL0     H 7542  -2.298   2.979  -0.127 -0.6730  0.4092 -0.9747
   56MOL0     H 7543  -2.044   2.996  -0.105 -0.9814 -0.1706  1.0870
   56MOL0     H 7544  -1.681   3.148  -0.352 -0.1709 -0.2321 -1.2323
   56MOL0     H 7545  -1.447   3.216  -0.335 -0.6445  0.3912 -1.3957
   56MOL0     H 7546   0.576   3.451  -0.361 -0.3099 -1.2727  3.4629
   56MOL0     H 7547   0.783   3.485  -0.270  0.3608  0.6180 -0.5536
   56MOL0     H 7548   1.075   3.487   0.110  0.9430  0.0564  1.8084
   56MOL0     H 7549   1.304   3.523   0.193 -0.4884 -1.2612  0.3385
   56MOL0     H 7550   1.566   3.725  -0.070 -2.3199 -0.4221  0.3889
   56MOL0     H 7551   1.524   3.866   0.027  0.3098  0.3514  3.0222
   56MOL0     H 7552   1.746   3.669   0.108  0.6544  0.4894  0.6048
   56MOL0     H 7553   1.700   3.825   0.180 -1.9552 -0.5529 -0.2066
   56MOL0     H 7554   1.769   3.923  -0.054 -3.3012 -2.5425 -1.3738
   56MOL0     H 7555   1.819   3.765  -0.096 -2.4250  1.8406 -1.7415
   56MOL0     H 7556   1.926   3.847   0.177 -1.9544 -0.2083 -0.2903
   56MOL0     H 7557   1.969   3.969   0.051 -0.6914 -0.8268 -4.6127
   56MOL0     H 7558   2.224   3.649  -0.062 -0.8242 -0.5296 -1.6537
   56MOL0     H 7559   1.364   3.815  -0.130  0.9989 -1.9741 -0.1831
   56MOL0     H 7560   1.133   3.810  -0.181  0.5484  0.8490 -0.0113
   57MOL0     O 7561   5.518   1.447   3.884  0.1718  0.3014  0.3599
   57MOL0     C 7562   5.560   1.541   3.818  0.4365 -0.6309 -0.7061
   57MOL0     O 7563   5.481   1.651   3.785 -0.2030 -0.3712  0.1136
   57MOL0     C 7564   5.344   1.657   3.792 -0.1693 -0.0565  0.5853
   57MOL0     C 7565   5.254   1.556   3.747  0.3163 -0.2209  0.4656
   57MOL0     C 7566   5.121   1.575   3.754 -0.1027  0.0127  0.0601
   57MOL0     C 7567   5.066   1.683   3.810 -0.6272 -0.7995  0.0476
   57MOL0     O 7568   4.930   1.698   3.826  0.2386 -0.0035 -0.2832
   57MOL0     C 7569   4.865   1.813   3.879 -0.9296  0.0392 -0.9943
   57MOL0     C 7570   4.712   1.812   3.858 -0.1208  0.0789  0.0881
   57MOL0     C 7571   4.650   1.719   3.964 -0.1731  0.0098 -0.3184
   57MOL0     C 7572   4.523   1.655   3.908 -0.1362 -0.2599 -0.0541
   57MOL0     C 7573   4.444   1.582   4.019 -0.7404 -0.3874 -0.0342
   57MOL0     C 7574   4.377   1.479   3.947  0.1277  0.2873 -0.4917
   57MOL0     C 7575   4.299   1.382   4.029 -0.3986  0.7993  0.1642
   57MOL0     C 7576   4.195   1.436   4.125 -0.0766  0.2079 -0.3430
   57MOL0     N 7577   4.099   1.523   4.050  0.0298 -0.0332 -0.2426
   57MOL0     C 7578   4.019   1.489   3.948 -0.8855  0.3210 -0.4102
   57MOL0     C 7579   3.958   1.605   3.915  0.0189 -0.4893  0.6110
   57MOL0     C 7580   3.856   1.623   3.802 -0.1413 -1.2319 -0.7056
   57MOL0     C 7581   3.719   1.562   3.825 -1.7452 -0.1273  0.1394
   57MOL0     C 7582   3.635   1.578   3.700 -0.2277 -0.2911 -0.1696
   57MOL0     C 7583   3.493   1.527   3.725 -0.5933 -0.8571 -0.3764
   57MOL0     O 7584   3.401   1.623   3.789 -0.3682  0.3272  0.5603
   57MOL0     C 7585   3.266   1.593   3.777  0.9477  0.0591  0.5069
   57MOL0     C 7586   3.167   1.682   3.791  0.3891  0.2914  0.3210
   57MOL0     C 7587   3.033   1.639   3.793  0.2443 -0.7897 -1.5203
   57MOL0     C 7588   2.931   1.758   3.785  0.2990 -0.3500 -1.0941
   57MOL0     C 7589   2.998   1.501   3.791  0.8082  0.6264  0.8068
   57MOL0     C 7590   2.863   1.446   3.785  0.0752 -0.0314 -0.7659
   57MOL0     O 7591   2.763   1.530   3.827 -0.2238 -0.2092  0.4786
   57MOL0     C 7592   2.628   1.496   3.842 -0.6484 -0.4047  1.1920
   57MOL0     C 7593   2.536   1.600   3.849  0.0794 -0.1496 -0.9556
   57MOL0     C 7594   2.404   1.570   3.857  0.4330  0.3793 -0.3886
   57MOL0     C 7595   2.360   1.437   3.869  0.2012  0.1234 -0.0322
   57MOL0     O 7596   2.234   1.421   3.917 -0.1077  0.2811  0.1701
   57MOL0     C 7597   2.158   1.327   3.831  0.1126  0.0400 -0.2102
   57MOL0     C 7598   2.058   1.257   3.933  0.6328  0.9369 -0.5042
   57MOL0     C 7599   1.954   1.359   3.976 -0.2512 -0.0933 -0.5071
   57MOL0     C 7600   1.853   1.307   4.078  0.4095  0.6861  0.5767
   57MOL0     C 7601   1.756   1.204   4.015 -0.1471  0.3127 -0.3613
   57MOL0     C 7602   1.651   1.162   4.114  0.2606  0.3020 -0.0989
   57MOL0     C 7603   1.550   1.066   4.046  0.1970 -0.2920  0.0131
   57MOL0     C 7604   1.433   1.051   4.145 -0.5912 -0.0341 -0.5240
   57MOL0    Cl 7605   1.348   1.207   4.179 -0.2048  0.0292 -0.3704
   57MOL0     C 7606   2.452   1.326   3.864 -0.3378 -0.3695  0.0816
   57MOL0     C 7607   2.586   1.357   3.850 -0.1400  0.2958 -0.6402
   57MOL0     O 7608   2.851   1.330   3.755  0.0297  0.0751 -0.2421
   57MOL0     C 7609   3.099   1.412   3.766 -0.4223 -0.3871 -0.6569
   57MOL0     C 7610   3.228   1.457   3.754 -0.2695  0.5867 -0.3671
   57MOL0     N 7611   4.007   1.710   3.991 -0.5151  0.8622  0.4502
   57MOL0     N 7612   4.100   1.656   4.064  0.7282  0.6342  0.2674
   57MOL0     C 7613   5.149   1.787   3.841  0.6510  0.6838  0.4025
   57MOL0     C 7614   5.291   1.777   3.828  0.6117  0.4998 -0.9262
   57MOL0     C 7615   5.703   1.562   3.791 -0.2169  0.8235  0.1863
   57MOL0     C 7616   5.791   1.474   3.853 -0.3529 -0.3700  0.6649
   57MOL0     C 7617   5.928   1.470   3.819 -0.3890  0.6308 -0.2031
   57MOL0     C 7618   5.992   1.558   3.727  0.2908 -0.1241 -0.2525
   57MOL0     O 7619   6.130   1.557   3.713  0.5392 -0.4144 -0.3526
   57MOL0     C 7620   6.188   1.612   3.593  1.5603 -0.3377 -0.0816
   57MOL0     C 7621   6.288   1.733   3.623  0.7723 -0.2357 -0.0716
   57MOL0     C 7622   6.422   1.679   3.636 -0.0316  0.2302  0.3503
   57MOL0     C 7623   6.450   1.574   3.747  0.1089  0.2143 -0.5251
   57MOL0     C 7624   6.590   1.542   3.754  0.3500 -0.1897  0.3495
   57MOL0     C 7625   6.711   1.524   3.765  0.6737 -0.5079 -0.6835
   57MOL0     C 7626   5.898   1.644   3.662  0.6124  0.0144  0.4159
   57MOL0     C 7627   5.755   1.647   3.695 -0.9865  0.0130 -0.4806
   57MOL0     H 7628   5.280   1.458   3.710  1.4043 -0.2925  1.3827
   57MOL0     H 7629   5.062   1.497   3.707  2.5568 -1.9160 -0.3016
   57MOL0     H 7630   4.874   1.823   3.987  1.8942  4.6140 -1.4318
   57MOL0     H 7631   4.906   1.905   3.838 -0.9345  0.8759  0.7955
   57MOL0     H 7632   4.662   1.909   3.864 -0.0230  0.1048  0.6026
   57MOL0     H 7633   4.693   1.771   3.759 -0.0926 -0.1766  0.1864
   57MOL0     H 7634   4.712   1.638   4.004 -1.3278 -0.9754 -0.4667
   57MOL0     H 7635   4.628   1.785   4.048 -0.4826  0.0960 -0.4681
   57MOL0     H 7636   4.459   1.733   3.866 -0.9076 -1.3342 -0.9529
   57MOL0     H 7637   4.558   1.581   3.836 -3.2157 -1.9378 -0.0083
   57MOL0     H 7638   4.513   1.543   4.095  0.8458 -0.2714 -1.3666
   57MOL0     H 7639   4.368   1.634   4.079  0.0464  0.7041  0.0583
   57MOL0     H 7640   4.301   1.519   3.880 -1.7932 -1.6825  0.4022
   57MOL0     H 7641   4.441   1.419   3.881 -1.3392 -1.3011 -0.5391
   57MOL0     H 7642   4.263   1.317   3.949 -1.0919  0.7640  0.4953
   57MOL0     H 7643   4.366   1.318   4.087 -0.7439 -0.2333 -0.5476
   57MOL0     H 7644   4.238   1.494   4.208  1.7566 -0.4165 -0.8066
   57MOL0     H 7645   4.140   1.354   4.172  2.9269 -1.1403  1.0507
   57MOL0     H 7646   4.020   1.393   3.897  1.0644  1.3056 -2.3956
   57MOL0     H 7647   3.839   1.730   3.787 -0.4709 -1.3109 -0.9078
   57MOL0     H 7648   3.891   1.583   3.706  0.9832  0.7512 -1.1779
   57MOL0     H 7649   3.663   1.599   3.911 -0.7952 -0.1050  0.7637
   57MOL0     H 7650   3.735   1.456   3.843 -1.8510 -0.1494  0.1044
   57MOL0     H 7651   3.686   1.526   3.618  0.1923  0.0171 -0.1103
   57MOL0     H 7652   3.634   1.682   3.665  2.1372 -0.0541  0.2796
   57MOL0     H 7653   3.501   1.427   3.769 -1.5331 -0.9175 -0.3361
   57MOL0     H 7654   3.454   1.504   3.626  1.3065 -1.2878 -1.0820
   57MOL0     H 7655   3.197   1.785   3.805 -0.9987  0.7395  0.1718
   57MOL0     H 7656   2.877   1.774   3.879  0.3975  2.1184 -1.3823
   57MOL0     H 7657   2.980   1.852   3.759 -0.1277 -0.1255 -1.0853
   57MOL0     H 7658   2.861   1.734   3.705  0.4468 -4.4960 -0.2277
   57MOL0     H 7659   2.566   1.704   3.852  0.0380 -0.0941 -2.0355
   57MOL0     H 7660   2.333   1.650   3.876 -1.0642 -1.1683  0.8282
   57MOL0     H 7661   2.096   1.371   3.752 -0.1062 -0.3339 -0.2479
   57MOL0     H 7662   2.215   1.246   3.786 -1.5417 -1.8131  0.8756
   57MOL0     H 7663   2.017   1.170   3.881  1.5742  0.4939 -0.5305
   57MOL0     H 7664   2.119   1.214   4.014  1.6941 -2.0287 -2.6864
   57MOL0     H 7665   1.902   1.394   3.886 -1.5525  1.3363  0.7550
   57MOL0     H 7666   2.005   1.439   4.030 -0.9020  0.4645 -0.7116
   57MOL0     H 7667   1.903   1.267   4.167  0.8927 -0.2079 -0.0916
   57MOL0     H 7668   1.795   1.395   4.107  2.1691  2.0168  0.2119
   57MOL0     H 7669   1.811   1.121   3.970  2.5255  1.3897  0.6888
   57MOL0     H 7670   1.702   1.245   3.929  0.5120 -1.3113 -1.6093
   57MOL0     H 7671   1.695   1.115   4.202  0.1721 -1.1443 -0.8073
   57MOL0     H 7672   1.615   1.251   4.167 -0.9978 -1.3715  2.0388
   57MOL0     H 7673   1.600   0.973   4.017  0.6650  0.2270 -0.8988
   57MOL0     H 7674   1.505   1.107   3.954 -0.2220 -0.0955  0.3016
   57MOL0     H 7675   1.469   1.005   4.238 -0.8641 -2.3244 -1.4640
   57MOL0     H 7676   1.367   0.970   4.112 -0.3705 -1.3567  1.9836
   57MOL0     H 7677   2.419   1.223   3.868 -0.7385 -0.2533 -0.1243
   57MOL0     H 7678   2.652   1.271   3.855 -0.9726 -0.4422 -1.8961
   57MOL0     H 7679   3.090   1.305   3.753  0.0615 -0.4370 -0.6082
   57MOL0     H 7680   3.305   1.380   3.754  1.5674  2.3396 -1.2315
   57MOL0     H 7681   5.120   1.884   3.880  2.0006  1.5303 -0.5874
   57MOL0     H 7682   5.363   1.850   3.863  2.4273 -0.3526 -2.6425
   57MOL0     H 7683   5.762   1.400   3.927  0.8359 -0.1488  1.3801
   57MOL0     H 7684   5.984   1.398   3.877 -1.6421 -0.3344 -0.1555
   57MOL0     H 7685   6.238   1.533   3.537  1.6383  1.0490 -2.0577
   57MOL0     H 7686   6.115   1.664   3.531 -0.4459 -1.7356  1.0141
   57MOL0     H 7687   6.269   1.790   3.715  2.1403 -1.3960  0.9666
   57MOL0     H 7688   6.288   1.808   3.544  0.7182  0.6865  0.7781
   57MOL0     H 7689   6.471   1.772   3.665  1.3879  1.2761 -4.4829
   57MOL0     H 7690   6.462   1.657   3.537  1.1812  3.5926 -0.0567
   57MOL0     H 7691   6.401   1.478   3.727  2.0782 -0.9542 -0.0400
   57MOL0     H 7692   6.416   1.613   3.843  1.0461  2.7696 -1.1413
   57MOL0     H 7693   6.817   1.516   3.774  0.8138 -0.0157 -1.6455
   57MOL0     H 7694   5.926   1.729   3.601  2.5906  1.6668  3.3547
   57MOL0     H 7695   5.688   1.712   3.639  1.0341  3.6416  0.9970
   58MOL0     O 7696   4.758   9.602   3.807 -0.5220 -0.4044 -0.2523
   58MOL0     C 7697   4.698   9.512   3.741  0.3899 -0.2586  0.1960
   58MOL0     O 7698   4.559   9.500   3.736 -0.3122  0.5823 -0.7145
   58MOL0     C 7699   4.487   9.570   3.826  0.1728  0.5869  0.1386
   58MOL0     C 7700   4.461   9.705   3.819  0.0350 -0.2751  0.3976
   58MOL0     C 7701   4.359   9.772   3.899 -0.4450  0.0353 -0.6767
   58MOL0     C 7702   4.275   9.698   3.979  0.3755  0.6382  0.0974
   58MOL0     O 7703   4.170   9.760   4.034 -0.4108  0.4939 -0.0252
   58MOL0     C 7704   4.044   9.681   4.045 -0.2461 -0.8952 -0.8745
   58MOL0     C 7705   3.951   9.745   4.152  0.1447  0.1929 -0.2099
   58MOL0     C 7706   3.859   9.858   4.092 -0.7302 -0.1963 -0.0493
   58MOL0     C 7707   3.743   9.894   4.185  0.4817  1.5874 -0.6298
   58MOL0     C 7708   3.652  10.023   4.151 -0.9572  0.0555  0.1720
   58MOL0     C 7709   3.541  10.057   4.249  0.0049  0.3392  0.4961
   58MOL0     C 7710   3.448   9.938   4.256 -0.2180 -0.1222 -0.6974
   58MOL0     C 7711   3.312   9.974   4.325 -0.1653  0.1394  0.7123
   58MOL0     N 7712   3.206   9.871   4.298 -0.1953  0.2647  0.6030
   58MOL0     C 7713   3.145   9.834   4.175  0.3997  0.3175  1.0505
   58MOL0     C 7714   3.045   9.747   4.215  0.6229  0.8360  0.1154
   58MOL0     C 7715   2.943   9.674   4.123 -0.0780  0.0567  0.3461
   58MOL0     C 7716   2.846   9.776   4.063  0.2761 -0.3094 -0.1356
   58MOL0     C 7717   2.737   9.702   3.989  0.4546 -0.3643  0.1508
   58MOL0     C 7718   2.649   9.602   4.063 -0.2449  0.2138  0.7136
   58MOL0     O 7719   2.573   9.678   4.163  0.0809  0.4547 -0.5436
   58MOL0     C 7720   2.439   9.657   4.167  0.3263  0.3414  0.4944
   58MOL0     C 7721   2.370   9.546   4.124  0.6624  0.0116 -0.0795
   58MOL0     C 7722   2.227   9.543   4.116  0.2729  0.4145  0.3415
   58MOL0     C 7723   2.159   9.411   4.082  0.0624 -0.7891  0.1663
   58MOL0     C 7724   2.157   9.657   4.161  0.0499 -0.1013  0.7179
   58MOL0     C 7725   2.005   9.674   4.147  0.4692  0.6921 -0.1440
   58MOL0     O 7726   1.951   9.779   4.214 -0.5987 -0.1889 -0.1231
   58MOL0     C 7727   1.813   9.782   4.246  0.0253 -0.2773 -0.3293
   58MOL0     C 7728   1.712   9.747   4.151  0.2340  0.3584 -0.8744
   58MOL0     C 7729   1.579   9.747   4.193 -0.5799  0.1179 -0.3358
   58MOL0     C 7730   1.542   9.781   4.329  0.2115  0.4613  0.1100
   58MOL0     O 7731   1.408   9.797   4.356 -0.6354  0.0534  0.4666
   58MOL0     C 7732   1.351   9.907   4.428 -0.2443  0.1026  0.1432
   58MOL0     C 7733   1.199   9.910   4.418 -0.1621  0.9249 -1.0432
   58MOL0     C 7734   1.137   9.781   4.442  0.2448  0.6484  0.1906
   58MOL0     C 7735   0.991   9.808   4.429 -0.2202 -0.5344 -0.1518
   58MOL0     C 7736   0.919   9.678   4.425  0.4993  0.2824  0.7879
   58MOL0     C 7737   0.762   9.688   4.412 -0.2616 -0.4269  0.0386
   58MOL0     C 7738   0.685   9.717   4.543 -0.4598  0.6991  0.3242
   58MOL0     C 7739   0.564   9.800   4.505 -0.0077 -0.9101 -0.2292
   58MOL0    Cl 7740   0.464   9.824   4.658 -0.0812 -0.0522  0.1869
   58MOL0     C 7741   1.646   9.821   4.414 -0.0388  0.1971 -0.8148
   58MOL0     C 7742   1.778   9.821   4.368 -0.2018 -0.3941  0.6397
   58MOL0     O 7743   1.943   9.584   4.089  0.5424  0.5256 -0.1429
   58MOL0     C 7744   2.230   9.764   4.224  0.1405  0.1384  0.4984
   58MOL0     C 7745   2.370   9.764   4.223  0.5039 -0.4458 -0.6272
   58MOL0     N 7746   3.057   9.733   4.358  0.4382  0.1675  0.0684
   58MOL0     N 7747   3.151   9.801   4.397 -0.6597 -0.3844  0.5764
   58MOL0     C 7748   4.302   9.559   3.986 -1.2762  0.2787 -0.2195
   58MOL0     C 7749   4.402   9.495   3.900 -0.7407 -0.5991  0.6971
   58MOL0     C 7750   4.776   9.414   3.662  0.4155  0.8866  0.6281
   58MOL0     C 7751   4.912   9.433   3.631  0.6769 -0.0195  0.4436
   58MOL0     C 7752   4.993   9.349   3.562  0.2783  0.2776  1.3802
   58MOL0     C 7753   4.920   9.241   3.508  0.1378 -0.3449  0.2692
   58MOL0     O 7754   4.969   9.137   3.443  0.2334 -0.3261 -0.1799
   58MOL0     C 7755   5.107   9.150   3.405 -0.7719  0.6128  0.2073
   58MOL0     C 7756   5.135   9.040   3.312 -0.2631 -0.6434  0.6013
   58MOL0     C 7757   5.178   8.912   3.387 -0.0884  0.0674  1.1972
   58MOL0     C 7758   5.317   8.921   3.451 -0.2665 -0.9130 -0.3987
   58MOL0     C 7759   5.342   8.796   3.523  0.4712 -0.1743 -0.4113
   58MOL0     C 7760   5.375   8.693   3.576  0.6397 -0.5984  0.0595
   58MOL0     C 7761   4.781   9.219   3.518 -0.6722 -0.6803  0.3722
   58MOL0     C 7762   4.712   9.302   3.603  0.0105 -0.5515  0.7216
   58MOL0     H 7763   4.517   9.779   3.762 -1.0645  0.6089  0.4293
   58MOL0     H 7764   4.359   9.880   3.904  0.5186  0.0357 -0.4759
   58MOL0     H 7765   3.995   9.684   3.947 -2.0242  1.7247 -0.0232
   58MOL0     H 7766   4.067   9.580   4.079  2.5336 -0.3180 -0.7974
   58MOL0     H 7767   3.879   9.665   4.173  1.5012 -0.8282  0.7038
   58MOL0     H 7768   4.007   9.772   4.241 -0.3780 -1.1053  0.5388
   58MOL0     H 7769   3.923   9.946   4.081  0.5809 -0.9329  1.4535
   58MOL0     H 7770   3.828   9.824   3.992  2.1730  0.2875 -1.2200
   58MOL0     H 7771   3.677   9.808   4.200  1.2348  1.4539  3.0131
   58MOL0     H 7772   3.792   9.911   4.282 -2.6063 -1.3326  1.6808
   58MOL0     H 7773   3.713  10.113   4.146  0.9500 -1.2259 -1.3230
   58MOL0     H 7774   3.603  10.008   4.054 -3.4413 -0.0665  1.3623
   58MOL0     H 7775   3.577  10.087   4.348  2.1782 -3.4159  1.0409
   58MOL0     H 7776   3.485  10.136   4.198  1.6265  0.5223 -1.1029
   58MOL0     H 7777   3.428   9.892   4.159  1.4260 -0.3902 -0.9493
   58MOL0     H 7778   3.491   9.856   4.316  1.8562  1.2657 -0.1625
   58MOL0     H 7779   3.279  10.066   4.275 -1.3959 -1.5642 -1.8098
   58MOL0     H 7780   3.340   9.993   4.429  0.6387  2.5787  0.1211
   58MOL0     H 7781   3.165   9.858   4.071 -1.0089  2.1041  1.1387
   58MOL0     H 7782   3.000   9.614   4.051 -0.4453 -0.1389  0.2118
   58MOL0     H 7783   2.891   9.593   4.175  1.0105 -0.4061  0.7370
   58MOL0     H 7784   2.903   9.841   3.995 -0.9958 -1.1567 -2.0918
   58MOL0     H 7785   2.802   9.841   4.138  0.6317  0.4264 -0.5488
   58MOL0     H 7786   2.763   9.666   3.889 -1.8975  1.1877 -1.1305
   58MOL0     H 7787   2.669   9.786   3.970 -0.5097 -0.5405  2.5224
   58MOL0     H 7788   2.701   9.514   4.104  1.5093  1.3525  1.0097
   58MOL0     H 7789   2.584   9.570   3.981  0.8224 -1.6474  0.5293
   58MOL0     H 7790   2.423   9.456   4.094 -0.1456 -0.7061  0.5648
   58MOL0     H 7791   2.099   9.378   4.167 -2.9731  0.0561 -1.5022
   58MOL0     H 7792   2.105   9.420   3.987 -0.5776 -1.5134  0.4490
   58MOL0     H 7793   2.229   9.328   4.071  1.6525  0.5806 -0.4394
   58MOL0     H 7794   1.750   9.705   4.058 -2.1240 -2.8113 -0.5628
   58MOL0     H 7795   1.497   9.705   4.135  0.4046 -1.6346 -0.5406
   58MOL0     H 7796   1.381   9.904   4.533 -1.1219 -1.3635  0.3888
   58MOL0     H 7797   1.390  10.004   4.396 -0.6855 -0.0527 -0.9283
   58MOL0     H 7798   1.162   9.983   4.492 -0.3173 -0.1870 -0.0006
   58MOL0     H 7799   1.163   9.941   4.319 -2.7503 -1.1834 -0.8867
   58MOL0     H 7800   1.157   9.731   4.537  0.0102 -0.8571 -0.5290
   58MOL0     H 7801   1.158   9.711   4.361 -6.1278  1.0490 -2.3669
   58MOL0     H 7802   0.960   9.867   4.514  1.1967 -0.0171  0.0356
   58MOL0     H 7803   0.964   9.861   4.337  0.8873  0.4465  0.0555
   58MOL0     H 7804   0.934   9.628   4.521 -0.0748 -0.4845  0.4863
   58MOL0     H 7805   0.950   9.604   4.351  2.4845  0.8071  1.0540
   58MOL0     H 7806   0.740   9.768   4.341 -3.5054  1.5822  2.9861
   58MOL0     H 7807   0.731   9.591   4.373  3.1774 -2.4634  1.8452
   58MOL0     H 7808   0.740   9.789   4.605 -1.3173 -0.3320  2.3937
   58MOL0     H 7809   0.653   9.632   4.604  0.4009  1.6905  2.2669
   58MOL0     H 7810   0.494   9.755   4.435 -2.7283 -1.0135  2.3552
   58MOL0     H 7811   0.600   9.899   4.475  2.0284 -2.5013 -3.6543
   58MOL0     H 7812   1.623   9.841   4.518  3.3444 -0.1534  0.1162
   58MOL0     H 7813   1.858   9.840   4.439  1.9286 -3.8719 -0.5483
   58MOL0     H 7814   2.181   9.850   4.268 -0.4124  0.8337 -1.3636
   58MOL0     H 7815   2.429   9.846   4.263  1.9977 -1.5375 -0.5211
   58MOL0     H 7816   4.252   9.495   4.058 -1.3225 -2.1425 -2.2649
   58MOL0     H 7817   4.409   9.388   3.884  1.3722 -0.2118 -1.4774
   58MOL0     H 7818   4.961   9.525   3.662  0.5337  0.7855 -1.5889
   58MOL0     H 7819   5.100   9.362   3.549  0.1485  0.2078  0.1512
   58MOL0     H 7820   5.121   9.242   3.347 -0.9081 -0.0945 -0.9789
   58MOL0     H 7821   5.177   9.152   3.488  2.0007 -0.6896 -1.9378
   58MOL0     H 7822   5.215   9.076   3.247 -0.8149 -0.6000 -0.0733
   58MOL0     H 7823   5.055   9.022   3.239  0.2682  0.5188 -0.2916
   58MOL0     H 7824   5.183   8.828   3.317  0.0590 -0.8167  2.2392
   58MOL0     H 7825   5.102   8.883   3.460  0.9224  0.0812  2.2797
   58MOL0     H 7826   5.327   9.006   3.519  0.7927  1.1003 -2.8830
   58MOL0     H 7827   5.396   8.937   3.377 -0.1487  2.2064  0.2689
   58MOL0     H 7828   5.405   8.593   3.602 -0.0807 -0.4509  1.5526
   58MOL0     H 7829   4.720   9.141   3.473 -3.7584  0.4257  2.3178
   58MOL0     H 7830   4.604   9.300   3.609 -0.2172  3.4807  0.3325
   59MOL0     O 7831  10.188   2.394   0.364  0.5480  0.6670  0.5867
   59MOL0     C 7832  10.271   2.373   0.279 -0.5191 -0.4289  0.6730
   59MOL0     O 7833  10.251   2.353   0.147 -0.7295 -0.4784 -0.4506
   59MOL0     C 7834  10.119   2.336   0.105 -0.7042 -0.2872  0.2464
   59MOL0     C 7835  10.018   2.432   0.111  0.1487  0.4762  0.7413
   59MOL0     C 7836   9.884   2.404   0.069  0.6464  0.2174  0.4385
   59MOL0     C 7837   9.851   2.287   0.017  0.2774  0.3969 -0.4147
   59MOL0     O 7838   9.731   2.251  -0.040 -0.1078 -0.0622 -0.1479
   59MOL0     C 7839   9.626   2.207   0.046 -0.7580 -0.0491 -0.7171
   59MOL0     C 7840   9.497   2.283   0.030 -0.1614 -0.2285 -0.6740
   59MOL0     C 7841   9.393   2.230  -0.071 -0.4576  0.1861 -0.5053
   59MOL0     C 7842   9.261   2.312  -0.061  0.0722  0.3386  0.0312
   59MOL0     C 7843   9.154   2.236  -0.139  0.1644  0.5277 -1.0898
   59MOL0     C 7844   9.028   2.318  -0.131 -0.4597  0.2425  0.0373
   59MOL0     C 7845   8.905   2.251  -0.185 -0.0399 -0.4063  0.2404
   59MOL0     C 7846   8.779   2.346  -0.180 -0.0215  0.5512 -0.1626
   59MOL0     N 7847   8.650   2.273  -0.208 -0.2340 -0.7094 -0.3052
   59MOL0     C 7848   8.554   2.308  -0.310  0.1225  0.8930 -0.3842
   59MOL0     C 7849   8.462   2.212  -0.301  0.7603 -0.3694 -0.6298
   59MOL0     C 7850   8.341   2.213  -0.399  0.2642  0.6128  0.5147
   59MOL0     C 7851   8.203   2.205  -0.346  0.1548  0.4222  0.0718
   59MOL0     C 7852   8.099   2.205  -0.451  0.8282  0.3873 -0.8435
   59MOL0     C 7853   7.968   2.125  -0.412  0.3709 -0.4527  0.0917
   59MOL0     O 7854   7.895   2.164  -0.292 -0.2072  0.2469 -0.3044
   59MOL0     C 7855   7.794   2.074  -0.269 -0.7329  0.5040  0.4730
   59MOL0     C 7856   7.815   1.956  -0.198  0.3261  0.2256 -0.3586
   59MOL0     C 7857   7.706   1.865  -0.174  0.2957  1.1240  0.6727
   59MOL0     C 7858   7.733   1.746  -0.092 -0.1445 -0.1179  0.4073
   59MOL0     C 7859   7.576   1.900  -0.239 -0.2649 -0.4756  0.6898
   59MOL0     C 7860   7.463   1.802  -0.253 -0.0535 -0.1013  0.4673
   59MOL0     O 7861   7.356   1.840  -0.342  0.2728  1.0541  0.4777
   59MOL0     C 7862   7.269   1.735  -0.379 -0.3969  0.3480 -0.5715
   59MOL0     C 7863   7.141   1.744  -0.336  0.2456 -0.1291 -0.1039
   59MOL0     C 7864   7.039   1.658  -0.376 -0.5795 -0.4444  0.0239
   59MOL0     C 7865   7.073   1.545  -0.446 -0.7879  0.1030  0.5880
   59MOL0     O 7866   6.985   1.455  -0.504  0.5839 -0.3781  0.2259
   59MOL0     C 7867   6.841   1.467  -0.487  0.4279 -0.3248  0.3050
   59MOL0     C 7868   6.773   1.352  -0.565 -0.6874  0.0569  0.6957
   59MOL0     C 7869   6.626   1.363  -0.549 -0.7348 -0.1258 -0.1744
   59MOL0     C 7870   6.562   1.259  -0.629  0.2410  0.3182  0.0642
   59MOL0     C 7871   6.406   1.256  -0.592  0.1851  0.3093  0.5400
   59MOL0     C 7872   6.344   1.118  -0.625  0.7126 -0.5565 -0.3995
   59MOL0     C 7873   6.193   1.111  -0.592  0.1049  0.2473  0.6932
   59MOL0     C 7874   6.133   0.970  -0.629 -0.6402 -0.0002  0.1720
   59MOL0    Cl 7875   6.162   0.928  -0.797 -0.2561  0.1103  0.2259
   59MOL0     C 7876   7.208   1.520  -0.475 -0.2191  0.8363 -0.5429
   59MOL0     C 7877   7.308   1.606  -0.439  0.4895  0.0509  1.3979
   59MOL0     O 7878   7.475   1.693  -0.199 -0.2267 -0.0898 -0.5175
   59MOL0     C 7879   7.559   2.032  -0.300  0.5155  0.2226  0.6043
   59MOL0     C 7880   7.667   2.115  -0.316  0.0670  0.5845 -0.3312
   59MOL0     N 7881   8.499   2.118  -0.208 -0.1093 -0.4018  0.9111
   59MOL0     N 7882   8.610   2.158  -0.152 -0.3521  0.5244  0.0885
   59MOL0     C 7883   9.947   2.193  -0.003  0.5996 -0.5170  1.1857
   59MOL0     C 7884  10.081   2.225   0.037  0.3394 -0.6986 -0.1401
   59MOL0     C 7885  10.418   2.379   0.318 -0.3925  0.8913 -0.0224
   59MOL0     C 7886  10.462   2.445   0.434 -0.1797  0.3371 -0.5085
   59MOL0     C 7887  10.594   2.472   0.461  0.4344 -0.3522  0.7225
   59MOL0     C 7888  10.691   2.414   0.382  0.1813 -0.0234  0.2103
   59MOL0     O 7889  10.829   2.443   0.417  0.3001 -0.0131  0.0694
   59MOL0     C 7890  10.940   2.396   0.337  0.4497 -0.9131 -0.2454
   59MOL0     C 7891  11.059   2.442   0.417 -0.6500 -1.2307  0.0369
   59MOL0     C 7892  11.191   2.390   0.355 -0.0301  0.2217  0.5499
   59MOL0     C 7893  11.306   2.432   0.446  0.5762 -0.7656 -0.1066
   59MOL0     C 7894  11.415   2.351   0.405  0.7705 -0.4915  0.9785
   59MOL0     C 7895  11.491   2.271   0.359  0.4095 -0.0012 -0.3981
   59MOL0     C 7896  10.649   2.350   0.264 -0.5543 -0.6129  0.4674
   59MOL0     C 7897  10.516   2.338   0.228  0.8355  0.6534  0.4818
   59MOL0     H 7898  10.041   2.528   0.156  2.2659  0.9926 -1.2646
   59MOL0     H 7899   9.802   2.474   0.080 -1.2888 -1.6683 -1.1974
   59MOL0     H 7900   9.605   2.103   0.018  1.4336  0.2777 -4.1568
   59MOL0     H 7901   9.660   2.209   0.151  0.2174  1.7595 -1.0180
   59MOL0     H 7902   9.444   2.285   0.125  0.9813 -0.3276 -0.0110
   59MOL0     H 7903   9.515   2.388   0.004 -3.9562  0.7287  0.0796
   59MOL0     H 7904   9.434   2.228  -0.172 -0.9570  0.1946 -0.7132
   59MOL0     H 7905   9.378   2.123  -0.057  0.2363  0.1612  0.1052
   59MOL0     H 7906   9.235   2.336   0.042 -0.6468 -1.9319  0.4474
   59MOL0     H 7907   9.264   2.412  -0.106 -1.2418  2.1059  3.5224
   59MOL0     H 7908   9.173   2.213  -0.244 -1.6291  0.3131 -1.4041
   59MOL0     H 7909   9.133   2.143  -0.086 -2.2016  1.4815 -0.1723
   59MOL0     H 7910   9.009   2.344  -0.027 -3.4163 -1.7597  0.1345
   59MOL0     H 7911   9.037   2.412  -0.187 -0.0035 -2.5053 -5.1922
   59MOL0     H 7912   8.923   2.224  -0.289 -0.9494  1.4954 -0.4376
   59MOL0     H 7913   8.885   2.158  -0.130  0.3368 -0.9868 -0.5787
   59MOL0     H 7914   8.788   2.434  -0.244 -0.6705  2.4315  2.1582
   59MOL0     H 7915   8.776   2.381  -0.076 -0.5999  0.1335 -0.0347
   59MOL0     H 7916   8.552   2.391  -0.380 -1.3696  0.0878 -1.3423
   59MOL0     H 7917   8.347   2.308  -0.454  2.9475  0.0824 -0.2567
   59MOL0     H 7918   8.349   2.140  -0.479 -0.1344  1.5551 -0.4105
   59MOL0     H 7919   8.186   2.284  -0.273 -1.3165 -0.3708  0.6120
   59MOL0     H 7920   8.200   2.113  -0.287  1.4222 -0.2743 -0.8837
   59MOL0     H 7921   8.132   2.157  -0.543  2.8376  2.6252 -1.4106
   59MOL0     H 7922   8.066   2.306  -0.479  0.2837 -0.3036 -2.8166
   59MOL0     H 7923   8.004   2.024  -0.389  2.8223  0.3576  0.1284
   59MOL0     H 7924   7.894   2.150  -0.488 -0.1837 -0.1956  0.7131
   59MOL0     H 7925   7.918   1.941  -0.167  0.9111 -0.3174 -2.4446
   59MOL0     H 7926   7.814   1.778  -0.025 -1.1002  1.3674  0.9180
   59MOL0     H 7927   7.644   1.717  -0.036 -1.1836 -2.0289 -2.0773
   59MOL0     H 7928   7.755   1.657  -0.151  2.6754  0.8373 -0.1271
   59MOL0     H 7929   7.114   1.839  -0.290 -3.3567 -0.8971 -0.3119
   59MOL0     H 7930   6.935   1.675  -0.348  0.5428  1.9837  3.5116
   59MOL0     H 7931   6.807   1.456  -0.383 -0.7401  0.9238  0.0788
   59MOL0     H 7932   6.804   1.561  -0.528  1.8911 -0.7627 -2.1876
   59MOL0     H 7933   6.797   1.358  -0.671  0.8723  0.6742  1.0569
   59MOL0     H 7934   6.811   1.259  -0.523 -0.7468 -1.0786 -1.5916
   59MOL0     H 7935   6.587   1.459  -0.585  0.4854  0.0786 -1.0147
   59MOL0     H 7936   6.592   1.343  -0.447 -0.8034 -2.4246 -0.5990
   59MOL0     H 7937   6.585   1.259  -0.736 -1.1942 -0.4388 -0.2737
   59MOL0     H 7938   6.595   1.160  -0.597  0.0024 -0.1891 -1.1795
   59MOL0     H 7939   6.348   1.334  -0.642 -2.0301 -0.9270  1.0762
   59MOL0     H 7940   6.392   1.261  -0.483 -0.6600 -1.1613  0.5290
   59MOL0     H 7941   6.357   1.106  -0.733  3.0469 -0.8174 -0.1527
   59MOL0     H 7942   6.402   1.040  -0.574 -1.1315 -2.0698 -0.5105
   59MOL0     H 7943   6.133   1.182  -0.649  0.8309 -1.1914 -1.9866
   59MOL0     H 7944   6.163   1.122  -0.487  0.5815  2.7496  0.6319
   59MOL0     H 7945   6.026   0.955  -0.610 -0.9337 -0.3322 -1.5838
   59MOL0     H 7946   6.187   0.896  -0.569  1.0541  1.3235  0.3661
   59MOL0     H 7947   7.224   1.432  -0.537 -0.2982 -0.5060  1.2502
   59MOL0     H 7948   7.411   1.587  -0.469 -0.1928 -1.2969 -0.2960
   59MOL0     H 7949   7.467   2.062  -0.349  0.3736 -0.6948  0.2934
   59MOL0     H 7950   7.657   2.212  -0.362  1.4743 -0.5302 -3.2676
   59MOL0     H 7951   9.914   2.099  -0.047  3.5828 -1.4498  0.7096
   59MOL0     H 7952  10.159   2.149   0.032  0.2152 -0.8257 -0.1440
   59MOL0     H 7953  10.396   2.480   0.513  1.0464  0.6095  0.4226
   59MOL0     H 7954  10.610   2.516   0.559  0.2514  2.2270 -0.3282
   59MOL0     H 7955  10.929   2.287   0.335 -0.9008 -0.7837 -0.9072
   59MOL0     H 7956  10.944   2.430   0.233  2.8463  1.1328  0.4226
   59MOL0     H 7957  11.051   2.410   0.522  0.7214 -1.2733  0.1494
   59MOL0     H 7958  11.060   2.551   0.413 -0.0458 -1.2278  0.1464
   59MOL0     H 7959  11.191   2.412   0.247 -0.0818 -1.3321  0.2034
   59MOL0     H 7960  11.203   2.281   0.357  1.5091  0.2951 -1.2113
   59MOL0     H 7961  11.296   2.413   0.553 -2.0060 -0.1048 -0.1555
   59MOL0     H 7962  11.327   2.537   0.424  0.5222 -0.3539  1.6662
   59MOL0     H 7963  11.576   2.214   0.328 -0.6234 -1.3900 -0.7575
   59MOL0     H 7964  10.726   2.313   0.198 -0.7690 -1.2993  0.5912
   59MOL0     H 7965  10.487   2.290   0.134  1.3371  0.3818  0.4660
   60MOL0     O 7966   7.035   6.706   2.184  0.1270  0.2407  0.7429
   60MOL0     C 7967   7.039   6.712   2.059  0.1063  0.3287 -0.2583
   60MOL0     O 7968   6.933   6.719   1.969  0.4881  0.0960 -0.5992
   60MOL0     C 7969   6.809   6.712   2.028 -0.0798  0.3475 -0.6117
   60MOL0     C 7970   6.712   6.801   1.997 -0.1473  0.4010 -0.0711
   60MOL0     C 7971   6.582   6.780   2.034  0.7602 -0.1505  0.4810
   60MOL0     C 7972   6.541   6.673   2.118 -0.5624 -0.5692  0.5200
   60MOL0     O 7973   6.413   6.665   2.168  0.4223 -0.4334 -0.2525
   60MOL0     C 7974   6.346   6.535   2.172 -0.2162 -0.1530 -1.4052
   60MOL0     C 7975   6.341   6.461   2.030 -0.0215  0.2281 -0.3095
   60MOL0     C 7976   6.266   6.321   2.040 -0.0419 -0.0472  0.5229
   60MOL0     C 7977   6.254   6.244   1.899  0.7900 -0.7124 -0.3570
   60MOL0     C 7978   6.235   6.094   1.917  1.1820 -0.0822  0.2871
   60MOL0     C 7979   6.102   6.057   1.986 -0.2885 -0.0474 -0.4150
   60MOL0     C 7980   6.034   5.932   1.943  0.1589  0.6285 -0.4217
   60MOL0     C 7981   5.924   5.906   2.051  0.5079  0.2856  0.3926
   60MOL0     N 7982   5.887   5.761   2.046  0.2753  0.6668  0.2579
   60MOL0     C 7983   5.750   5.719   2.042 -0.1779 -0.0503  0.3401
   60MOL0     C 7984   5.763   5.591   2.020  0.8539  0.3589 -0.0061
   60MOL0     C 7985   5.660   5.493   1.970 -0.3117  0.7672  0.0519
   60MOL0     C 7986   5.545   5.471   2.069  0.0163  0.1145  0.3581
   60MOL0     C 7987   5.591   5.378   2.188 -0.0322 -0.3208  1.0459
   60MOL0     C 7988   5.481   5.351   2.282 -0.6358 -0.1304 -0.5548
   60MOL0     O 7989   5.392   5.256   2.221  0.0909  0.3875  0.5607
   60MOL0     C 7990   5.272   5.224   2.271  0.4698 -0.1605  0.1228
   60MOL0     C 7991   5.222   5.107   2.231  1.1644  0.8583  0.1501
   60MOL0     C 7992   5.095   5.051   2.283  0.7757 -1.1456 -0.3563
   60MOL0     C 7993   5.038   4.921   2.237 -0.3312 -0.2892 -0.0119
   60MOL0     C 7994   5.032   5.124   2.384 -0.4359 -0.3380 -0.2702
   60MOL0     C 7995   4.899   5.090   2.454  0.3271  0.6905 -0.4496
   60MOL0     O 7996   4.870   5.142   2.578 -0.0684  0.5741 -0.0953
   60MOL0     C 7997   4.743   5.120   2.625  0.3634 -1.3392 -0.0308
   60MOL0     C 7998   4.621   5.195   2.595  0.6600 -0.1146  0.2466
   60MOL0     C 7999   4.490   5.164   2.641  0.5608  0.7947  0.7189
   60MOL0     C 8000   4.473   5.047   2.720 -1.0918  0.1694  0.3428
   60MOL0     O 8001   4.355   4.992   2.752  0.1875  0.1345  0.2589
   60MOL0     C 8002   4.250   5.076   2.795 -0.4726  0.6789  0.0286
   60MOL0     C 8003   4.152   4.987   2.875  0.4491  0.1704 -0.0049
   60MOL0     C 8004   4.042   5.076   2.937  0.2620 -0.8578 -0.6261
   60MOL0     C 8005   3.955   4.991   3.025  0.3499  0.7812 -0.3171
   60MOL0     C 8006   3.853   5.080   3.092 -0.0134 -0.8146 -0.3256
   60MOL0     C 8007   3.733   4.993   3.156 -0.6695 -0.6816  0.1132
   60MOL0     C 8008   3.604   5.072   3.155  0.3087 -0.6040  0.5373
   60MOL0     C 8009   3.513   5.042   3.273  0.0193 -0.1323  0.3614
   60MOL0    Cl 8010   3.375   5.164   3.274  0.2584  0.1364 -0.3716
   60MOL0     C 8011   4.588   4.977   2.756 -0.3969 -0.1333  0.1154
   60MOL0     C 8012   4.716   5.014   2.710 -0.2541  0.6972 -0.1320
   60MOL0     O 8013   4.820   5.014   2.394  0.6301 -0.6055 -0.2275
   60MOL0     C 8014   5.097   5.240   2.434 -0.8741  0.9225 -0.3104
   60MOL0     C 8015   5.216   5.287   2.384 -0.2205  0.3799  0.2233
   60MOL0     N 8016   5.891   5.546   2.036  0.5869 -0.1289  0.4182
   60MOL0     N 8017   5.973   5.649   2.032 -0.0075 -0.3216 -0.4848
   60MOL0     C 8018   6.644   6.579   2.148  1.0150  0.2564  0.8360
   60MOL0     C 8019   6.769   6.600   2.097 -0.4691  0.3272 -0.1795
   60MOL0     C 8020   7.167   6.716   1.991  0.0409 -0.3724  0.0999
   60MOL0     C 8021   7.184   6.770   1.863  0.1790 -0.0296  0.3972
   60MOL0     C 8022   7.309   6.793   1.804 -0.0486 -0.0319  0.0153
   60MOL0     C 8023   7.421   6.750   1.874  0.3912 -0.1614  0.3263
   60MOL0     O 8024   7.546   6.745   1.833  0.5679 -0.3303  0.5458
   60MOL0     C 8025   7.577   6.821   1.712 -0.0680 -0.2207 -0.5839
   60MOL0     C 8026   7.733   6.821   1.687  0.5122 -0.5585  0.7165
   60MOL0     C 8027   7.775   6.899   1.559  0.2917  0.0209  1.5727
   60MOL0     C 8028   7.926   6.881   1.542  0.0984  0.2000 -0.1470
   60MOL0     C 8029   7.989   7.009   1.528  0.1671 -0.1450 -0.3813
   60MOL0     C 8030   8.025   7.116   1.480  0.6055  0.0654  0.6558
   60MOL0     C 8031   7.406   6.690   1.999 -0.6504  0.8339 -0.3000
   60MOL0     C 8032   7.282   6.679   2.061  0.0544  0.7988  0.1823
   60MOL0     H 8033   6.740   6.876   1.924 -2.9014  0.8895 -0.7408
   60MOL0     H 8034   6.511   6.855   2.002 -0.2488 -1.5186 -0.6368
   60MOL0     H 8035   6.385   6.472   2.252 -1.1800  0.3575 -0.5066
   60MOL0     H 8036   6.243   6.550   2.203 -0.2505  0.7709 -1.9121
   60MOL0     H 8037   6.290   6.517   1.951 -1.6432 -3.3780 -2.0509
   60MOL0     H 8038   6.441   6.451   1.988 -0.5332 -0.7565 -1.3678
   60MOL0     H 8039   6.337   6.262   2.098 -0.4620  0.6789  1.8032
   60MOL0     H 8040   6.169   6.323   2.089  0.4560 -0.2954  1.5611
   60MOL0     H 8041   6.171   6.283   1.839  0.9972  0.7535  0.2899
   60MOL0     H 8042   6.347   6.267   1.847  1.0253  0.4736  0.5662
   60MOL0     H 8043   6.232   6.038   1.823 -0.7957 -1.7360  1.2603
   60MOL0     H 8044   6.323   6.056   1.970  0.0330 -1.5728  1.1899
   60MOL0     H 8045   6.132   6.034   2.089 -0.6679  1.9335  0.1847
   60MOL0     H 8046   6.026   6.136   1.996 -1.6358 -1.5095  1.6847
   60MOL0     H 8047   5.998   5.935   1.839  2.2277 -0.5637 -1.2306
   60MOL0     H 8048   6.104   5.849   1.933 -0.0699  0.6723 -3.3849
   60MOL0     H 8049   5.834   5.967   2.041  0.5848  0.9919  3.1857
   60MOL0     H 8050   5.959   5.929   2.152  0.5705  2.3112 -0.0454
   60MOL0     H 8051   5.662   5.781   2.038  1.1374  2.0717  2.0225
   60MOL0     H 8052   5.609   5.530   1.881  0.0829  0.7189 -0.1923
   60MOL0     H 8053   5.703   5.397   1.942 -2.0962  1.0535 -4.5025
   60MOL0     H 8054   5.466   5.421   2.012  1.7634  0.1608 -2.2727
   60MOL0     H 8055   5.509   5.570   2.099  1.2183  0.9746 -0.9271
   60MOL0     H 8056   5.679   5.421   2.237 -1.3611 -0.4732  3.7440
   60MOL0     H 8057   5.627   5.284   2.145 -0.4075 -0.2913  0.6596
   60MOL0     H 8058   5.439   5.451   2.299  2.8461  1.1412  1.7159
   60MOL0     H 8059   5.515   5.314   2.380 -0.3958  1.2310 -0.0951
   60MOL0     H 8060   5.283   5.060   2.155 -0.1232 -1.4439  0.4442
   60MOL0     H 8061   5.103   4.886   2.157 -1.8423 -2.0784 -0.5118
   60MOL0     H 8062   5.034   4.846   2.316 -2.3817 -0.8925 -0.6421
   60MOL0     H 8063   4.939   4.924   2.190 -0.4425 -2.0902  0.0298
   60MOL0     H 8064   4.623   5.289   2.539  0.0535  0.1607  0.6804
   60MOL0     H 8065   4.404   5.224   2.613 -0.1553 -1.3887 -2.2398
   60MOL0     H 8066   4.284   5.154   2.864  2.1785 -1.9103  1.9369
   60MOL0     H 8067   4.201   5.121   2.709 -3.0879  0.7010  1.4348
   60MOL0     H 8068   4.114   4.911   2.806 -0.7764  0.9988 -0.2760
   60MOL0     H 8069   4.208   4.939   2.956  0.2825  0.3286  0.2036
   60MOL0     H 8070   3.975   5.115   2.860  0.4150  3.5933  1.1747
   60MOL0     H 8071   4.089   5.162   2.986 -0.5187  0.3216 -1.8687
   60MOL0     H 8072   3.900   4.917   2.967 -0.1749 -1.1411  2.4122
   60MOL0     H 8073   4.012   4.930   3.096 -0.5957 -0.6347 -0.7434
   60MOL0     H 8074   3.821   5.150   3.014  1.3729 -0.8797 -0.9682
   60MOL0     H 8075   3.895   5.132   3.179 -1.4493  1.0532 -0.6784
   60MOL0     H 8076   3.710   4.902   3.099 -1.3399 -2.7070  3.3501
   60MOL0     H 8077   3.760   4.965   3.258  0.4599 -0.1202 -0.0093
   60MOL0     H 8078   3.557   5.062   3.057 -1.0455 -0.6791  1.1719
   60MOL0     H 8079   3.621   5.179   3.173 -2.7288  0.2136 -0.7657
   60MOL0     H 8080   3.562   5.045   3.370 -0.9051 -0.3972  0.8415
   60MOL0     H 8081   3.471   4.942   3.259 -1.5699  0.5435  0.0927
   60MOL0     H 8082   4.573   4.889   2.818  0.2514  0.2965  0.9117
   60MOL0     H 8083   4.805   4.960   2.741 -0.3947 -0.3858 -1.5357
   60MOL0     H 8084   5.053   5.298   2.515  0.2562  0.6310  0.5344
   60MOL0     H 8085   5.258   5.371   2.439 -0.8648  1.0783 -0.3376
   60MOL0     H 8086   6.625   6.495   2.214  1.5758  0.4732  1.2843
   60MOL0     H 8087   6.842   6.524   2.124  1.2017  2.2031  0.8004
   60MOL0     H 8088   7.093   6.802   1.813 -1.3284  0.0062  2.9506
   60MOL0     H 8089   7.304   6.850   1.711 -0.8787 -1.5759 -0.9330
   60MOL0     H 8090   7.528   6.779   1.624 -0.0975 -0.0937 -0.6279
   60MOL0     H 8091   7.522   6.916   1.712 -0.0072 -0.1842 -0.3380
   60MOL0     H 8092   7.762   6.716   1.675  0.6920 -0.4816  0.4662
   60MOL0     H 8093   7.791   6.858   1.772  1.3103 -2.5375  1.0901
   60MOL0     H 8094   7.739   7.002   1.558 -0.1662 -0.0592  4.0585
   60MOL0     H 8095   7.733   6.848   1.472 -1.0211 -0.9990  2.7527
   60MOL0     H 8096   7.950   6.815   1.458  0.8715  0.1926  0.0742
   60MOL0     H 8097   7.973   6.820   1.620  1.6520 -1.3398 -2.1494
   60MOL0     H 8098   8.057   7.211   1.441  1.8124 -0.2608  0.8109
   60MOL0     H 8099   7.491   6.647   2.051 -0.2250  1.6547 -0.3009
   60MOL0     H 8100   7.284   6.634   2.160 -0.7686  0.3652  0.0148
   61MOL0     O 8101   6.294   6.689   9.833 -0.5072  0.4313 -0.3515
   61MOL0     C 8102   6.227   6.788   9.830 -0.2003 -0.0484  0.6914
   61MOL0     O 8103   6.094   6.800   9.804 -0.6200  0.1224 -0.9437
   61MOL0     C 8104   6.029   6.677   9.806 -0.3304 -0.1359 -1.4116
   61MOL0     C 8105   5.992   6.612   9.926 -0.2728  0.6751  0.7458
   61MOL0     C 8106   5.896   6.507   9.915 -0.4514  0.4582 -0.5158
   61MOL0     C 8107   5.829   6.478   9.799  0.2763  0.3266 -0.3584
   61MOL0     O 8108   5.731   6.383   9.793  0.2028  0.4905 -0.0026
   61MOL0     C 8109   5.611   6.410   9.865  0.6426  0.4682  1.3143
   61MOL0     C 8110   5.495   6.381   9.776  0.8057  0.1006  0.4400
   61MOL0     C 8111   5.357   6.417   9.834  0.3784  0.3677 -0.6383
   61MOL0     C 8112   5.290   6.299   9.919 -0.5834 -0.3456 -1.2401
   61MOL0     C 8113   5.165   6.346   9.995 -0.2133 -0.1985 -1.2924
   61MOL0     C 8114   5.105   6.225  10.054  0.2486  0.2114 -0.9851
   61MOL0     C 8115   4.970   6.252  10.118  0.8841  0.0547 -0.2557
   61MOL0     C 8116   4.980   6.248  10.273  0.3698 -0.8859  0.2847
   61MOL0     N 8117   4.856   6.263  10.352  0.0983  0.3482 -0.2860
   61MOL0     C 8118   4.756   6.176  10.358 -0.2375  0.2539  0.3888
   61MOL0     C 8119   4.665   6.221  10.443 -0.4252  0.0768  0.4163
   61MOL0     C 8120   4.531   6.162  10.474  0.4864 -0.4576  0.3089
   61MOL0     C 8121   4.549   6.063  10.602  0.5054  0.8496 -0.1717
   61MOL0     C 8122   4.550   6.144  10.739 -0.1299  0.2449  0.3804
   61MOL0     C 8123   4.424   6.227  10.767  0.4413  0.2324 -0.1693
   61MOL0     O 8124   4.307   6.165  10.704 -0.6506 -0.0589 -0.0187
   61MOL0     C 8125   4.186   6.222  10.732 -0.1177  0.5384  1.3444
   61MOL0     C 8126   4.158   6.352  10.802 -0.0718  0.7663  0.0850
   61MOL0     C 8127   4.023   6.393  10.825  0.0286 -0.1560  0.2201
   61MOL0     C 8128   4.006   6.512  10.916 -0.0435 -0.3685  0.3229
   61MOL0     C 8129   3.916   6.312  10.784  0.1917 -0.8726 -0.0515
   61MOL0     C 8130   3.778   6.335  10.821  0.1725 -0.3074  0.3769
   61MOL0     O 8131   3.763   6.345  10.960 -0.1112  0.4104  0.4065
   61MOL0     C 8132   3.646   6.406  11.012  0.0035  0.2338  0.0809
   61MOL0     C 8133   3.521   6.388  10.951  0.2661  0.8054 -0.2887
   61MOL0     C 8134   3.406   6.444  10.998  1.1657 -0.1475 -0.0698
   61MOL0     C 8135   3.402   6.521  11.112 -0.3898  0.2168  0.3073
   61MOL0     O 8136   3.287   6.590  11.156 -1.2504 -0.0849  0.1563
   61MOL0     C 8137   3.287   6.735  11.118 -1.2401  0.3956  0.1941
   61MOL0     C 8138   3.153   6.790  11.092 -0.5577 -0.1083 -1.1977
   61MOL0     C 8139   3.061   6.802  11.217 -0.5498 -0.5438  0.0193
   61MOL0     C 8140   2.958   6.901  11.164  0.2909 -0.9775  0.6303
   61MOL0     C 8141   2.814   6.864  11.200 -0.2853 -0.0162  0.4962
   61MOL0     C 8142   2.767   6.738  11.130  0.8675 -0.1320  0.2289
   61MOL0     C 8143   2.616   6.735  11.113 -0.0292 -0.0417 -0.4647
   61MOL0     C 8144   2.563   6.681  10.975 -0.5773 -0.2087 -0.2477
   61MOL0    Cl 8145   2.641   6.531  10.922 -0.0631 -0.1967 -0.4214
   61MOL0     C 8146   3.527   6.546  11.182 -0.0614 -0.0791  0.4612
   61MOL0     C 8147   3.644   6.486  11.126 -0.7650 -0.5462  0.0661
   61MOL0     O 8148   3.697   6.365  10.730 -0.9331 -0.5696 -0.6206
   61MOL0     C 8149   3.942   6.196  10.715  0.1280 -0.2388 -0.4468
   61MOL0     C 8150   4.074   6.155  10.680  0.1390 -0.6472 -1.1416
   61MOL0     N 8151   4.709   6.332  10.501  0.0454 -0.2898  0.4344
   61MOL0     N 8152   4.821   6.359  10.436 -0.3369  0.6638 -0.0268
   61MOL0     C 8153   5.875   6.542   9.686 -1.0189  0.7658 -0.6174
   61MOL0     C 8154   5.978   6.636   9.681  0.1060  0.3771 -0.0437
   61MOL0     C 8155   6.310   6.907   9.845  0.9020 -0.1404  0.3300
   61MOL0     C 8156   6.291   7.026   9.769 -0.1106 -0.0266  0.6505
   61MOL0     C 8157   6.376   7.137   9.802  0.9310 -0.1053 -0.1124
   61MOL0     C 8158   6.479   7.134   9.894 -0.1768  0.3242  0.5474
   61MOL0     O 8159   6.562   7.249   9.909 -0.4812 -0.2438  0.1140
   61MOL0     C 8160   6.631   7.252  10.030 -0.4494 -0.7001 -1.7242
   61MOL0     C 8161   6.772   7.192  10.018  0.6202  0.5482 -0.0101
   61MOL0     C 8162   6.860   7.292   9.950 -0.2952  0.3785 -0.1826
   61MOL0     C 8163   7.003   7.245   9.903 -1.0447 -0.2201 -0.0145
   61MOL0     C 8164   7.089   7.210  10.014  0.8057 -0.1676  0.3097
   61MOL0     C 8165   7.163   7.194  10.114 -0.9931  1.5037  0.4008
   61MOL0     C 8166   6.491   7.020   9.972 -0.2314  0.0495 -0.2210
   61MOL0     C 8167   6.407   6.907   9.951  0.0319 -0.4859  0.1110
   61MOL0     H 8168   6.030   6.654  10.019 -0.8149  2.4274  0.2214
   61MOL0     H 8169   5.863   6.464  10.009  0.8177  1.5616  0.4722
   61MOL0     H 8170   5.603   6.343   9.951 -0.5937  0.7227  1.4205
   61MOL0     H 8171   5.611   6.513   9.904  1.4891  0.0229  2.5588
   61MOL0     H 8172   5.505   6.438   9.683  0.0903  1.1726  0.9922
   61MOL0     H 8173   5.484   6.278   9.741 -1.8194  1.0294 -1.8789
   61MOL0     H 8174   5.374   6.516   9.877  1.1482  1.0950 -2.5454
   61MOL0     H 8175   5.291   6.441   9.751 -0.5988  0.8851  0.2531
   61MOL0     H 8176   5.259   6.221   9.849 -1.0860 -2.8901  1.6206
   61MOL0     H 8177   5.362   6.253   9.986 -1.4999  1.7440  1.3395
   61MOL0     H 8178   5.201   6.418  10.069  0.8117 -0.9957 -0.9907
   61MOL0     H 8179   5.088   6.394   9.934 -0.1052  0.3834 -0.9707
   61MOL0     H 8180   5.099   6.151   9.973  0.7276 -1.2058  0.2345
   61MOL0     H 8181   5.164   6.188  10.138 -0.4011 -0.6722 -0.9032
   61MOL0     H 8182   4.941   6.354  10.089 -0.7602  0.1975  1.6808
   61MOL0     H 8183   4.895   6.178  10.087  1.9122 -0.6480 -1.1212
   61MOL0     H 8184   5.047   6.324  10.312  1.6506 -0.1222 -3.0905
   61MOL0     H 8185   5.023   6.151  10.301 -0.9116 -1.6160 -0.1734
   61MOL0     H 8186   4.746   6.086  10.299  3.4239 -0.6004  0.8462
   61MOL0     H 8187   4.450   6.230  10.500  0.2789 -0.2277 -0.9045
   61MOL0     H 8188   4.496   6.094  10.396 -1.7847  0.6275  0.3216
   61MOL0     H 8189   4.640   6.004  10.585 -1.0690 -1.1674 -2.0303
   61MOL0     H 8190   4.471   5.986  10.605  1.2075  0.1446  0.4992
   61MOL0     H 8191   4.640   6.206  10.741  0.5563 -0.6569 -0.9502
   61MOL0     H 8192   4.561   6.068  10.816 -0.9543 -1.5121 -1.1412
   61MOL0     H 8193   4.449   6.325  10.726 -1.4578  0.1554 -1.6638
   61MOL0     H 8194   4.412   6.236  10.875  2.0004  1.1770 -0.0446
   61MOL0     H 8195   4.246   6.407  10.832  0.9933 -0.9448  0.2690
   61MOL0     H 8196   3.992   6.477  11.019  2.2517 -0.8674  0.5143
   61MOL0     H 8197   4.090   6.581  10.910 -0.1227 -0.2071  0.9394
   61MOL0     H 8198   3.915   6.567  10.893  0.1086 -0.8896 -1.6800
   61MOL0     H 8199   3.513   6.311  10.875  0.4510 -1.4896  1.9164
   61MOL0     H 8200   3.302   6.421  10.976  0.5033 -1.9705  4.0577
   61MOL0     H 8201   3.354   6.791  11.184  0.3901 -0.2493 -0.8289
   61MOL0     H 8202   3.335   6.756  11.022 -2.0938  0.8746 -0.1406
   61MOL0     H 8203   3.170   6.890  11.051 -2.0392  1.4710  1.7513
   61MOL0     H 8204   3.106   6.727  11.015  2.2047 -2.2713 -1.2835
   61MOL0     H 8205   3.108   6.850  11.303  2.1511 -1.5511 -0.8166
   61MOL0     H 8206   3.029   6.705  11.255  1.9827 -2.2745 -1.8887
   61MOL0     H 8207   2.989   6.994  11.213  1.7026 -0.9248 -0.3071
   61MOL0     H 8208   2.956   6.920  11.056  0.1907 -1.1296  0.6044
   61MOL0     H 8209   2.754   6.948  11.163 -0.1986 -0.5607 -0.9410
   61MOL0     H 8210   2.803   6.853  11.309 -2.0791 -2.4651  0.1574
   61MOL0     H 8211   2.809   6.727  11.029 -1.3609 -1.7875 -0.6096
   61MOL0     H 8212   2.798   6.648  11.184  2.2465  0.2969  0.1756
   61MOL0     H 8213   2.562   6.825  11.145  1.0628  0.6211 -0.4215
   61MOL0     H 8214   2.583   6.658  11.184  1.6149 -1.0015 -0.7061
   61MOL0     H 8215   2.584   6.771  10.916  1.2338  1.5673  2.8003
   61MOL0     H 8216   2.456   6.662  10.987 -0.1333 -2.4575  0.7674
   61MOL0     H 8217   3.538   6.590  11.281  1.4017 -0.9823  0.7300
   61MOL0     H 8218   3.742   6.502  11.170  0.4024  0.6633 -2.7402
   61MOL0     H 8219   3.857   6.135  10.687 -0.3045  0.3483 -0.4522
   61MOL0     H 8220   4.083   6.065  10.620 -2.5316 -0.2915 -2.2224
   61MOL0     H 8221   5.820   6.510   9.598 -0.9634 -1.5303  0.1081
   61MOL0     H 8222   6.007   6.682   9.587 -0.4769  0.5277 -0.1506
   61MOL0     H 8223   6.208   7.039   9.700 -0.3279 -2.5714  0.3377
   61MOL0     H 8224   6.369   7.228   9.743 -1.0053 -0.7672 -0.9844
   61MOL0     H 8225   6.649   7.353  10.066  3.3088 -2.2007  1.3665
   61MOL0     H 8226   6.570   7.207  10.109  2.7610 -1.0946  0.7324
   61MOL0     H 8227   6.762   7.092   9.975 -1.4286  0.0614  1.4129
   61MOL0     H 8228   6.808   7.173  10.120  0.5283 -4.7350 -0.7054
   61MOL0     H 8229   6.883   7.372  10.020  5.5431 -0.8479 -0.1910
   61MOL0     H 8230   6.806   7.336   9.865 -1.5333 -1.7413 -0.5723
   61MOL0     H 8231   7.053   7.323   9.844  1.6458 -0.6151  1.5405
   61MOL0     H 8232   6.990   7.165   9.829 -2.8564 -0.5476  0.6146
   61MOL0     H 8233   7.226   7.175  10.199  0.2392 -1.1498 -0.9764
   61MOL0     H 8234   6.575   7.005  10.039 -0.0793  2.8473  0.2960
   61MOL0     H 8235   6.419   6.817  10.010 -0.0733  0.1642  1.1448
   62MOL0     O 8236   5.044   4.401   7.029  0.1770 -0.2843  0.2277
   62MOL0     C 8237   5.136   4.450   7.090  0.2324 -0.4154 -0.7341
   62MOL0     O 8238   5.126   4.501   7.221  0.7320 -0.4494 -0.1807
   62MOL0     C 8239   5.000   4.469   7.280 -0.2230 -0.7086 -0.4221
   62MOL0     C 8240   4.879   4.539   7.259 -0.4551 -0.1441 -0.1108
   62MOL0     C 8241   4.760   4.500   7.329  0.0286  0.2553  0.1419
   62MOL0     C 8242   4.762   4.388   7.413 -0.0329 -0.2737  1.3788
   62MOL0     O 8243   4.657   4.348   7.491  0.4444 -0.1771 -0.7698
   62MOL0     C 8244   4.536   4.417   7.499  1.4785 -0.6695  1.0276
   62MOL0     C 8245   4.546   4.489   7.632  0.4104 -0.6780 -0.0653
   62MOL0     C 8246   4.578   4.396   7.752  0.2257 -0.3927  0.2244
   62MOL0     C 8247   4.443   4.332   7.806 -0.2424 -0.2705 -0.0688
   62MOL0     C 8248   4.458   4.222   7.919 -0.6475  0.3929  0.3783
   62MOL0     C 8249   4.505   4.091   7.867 -0.0518  0.6184 -0.7401
   62MOL0     C 8250   4.498   3.971   7.982 -0.3905  0.6471 -0.1210
   62MOL0     C 8251   4.371   3.887   7.970 -0.3389  0.0025 -0.2000
   62MOL0     N 8252   4.272   3.913   8.071  0.3952 -0.3219  0.0959
   62MOL0     C 8253   4.291   3.899   8.201 -0.4862  0.2018  0.1567
   62MOL0     C 8254   4.192   3.960   8.258  0.0192  0.2518  0.0995
   62MOL0     C 8255   4.172   3.998   8.401 -0.2716  0.2858 -0.1624
   62MOL0     C 8256   4.225   3.896   8.509  0.3391 -0.3061 -0.1264
   62MOL0     C 8257   4.163   3.913   8.648 -0.6226  0.1397  0.2467
   62MOL0     C 8258   4.011   3.883   8.661 -0.8838 -0.3095  0.2816
   62MOL0     O 8259   3.967   3.763   8.598  0.5565  0.6072  0.3290
   62MOL0     C 8260   3.832   3.746   8.591 -0.2211  0.4814 -0.6241
   62MOL0     C 8261   3.790   3.614   8.565 -0.5862  0.6941 -0.5006
   62MOL0     C 8262   3.659   3.587   8.543  0.1454  0.3755  0.6975
   62MOL0     C 8263   3.633   3.447   8.493 -0.5520 -0.3334 -0.4296
   62MOL0     C 8264   3.560   3.690   8.553  0.2320 -0.4909 -0.6050
   62MOL0     C 8265   3.420   3.667   8.520  0.5494 -0.9278  0.1512
   62MOL0     O 8266   3.341   3.755   8.590  0.5625 -0.4929 -0.2440
   62MOL0     C 8267   3.209   3.745   8.573  0.8086  0.1850  0.0189
   62MOL0     C 8268   3.138   3.839   8.495 -0.2357  0.1018 -0.3884
   62MOL0     C 8269   3.008   3.812   8.452 -0.6186  1.1819  0.2922
   62MOL0     C 8270   2.946   3.689   8.496  0.3132  0.0239 -0.2278
   62MOL0     O 8271   2.822   3.655   8.459 -0.1757 -0.1828 -0.5349
   62MOL0     C 8272   2.736   3.761   8.415  0.1073  0.0109  0.4140
   62MOL0     C 8273   2.600   3.705   8.379 -0.3248 -0.5654 -0.6184
   62MOL0     C 8274   2.520   3.818   8.305 -0.4007 -0.5106  0.4257
   62MOL0     C 8275   2.375   3.794   8.297 -0.6971 -0.0370 -0.1402
   62MOL0     C 8276   2.292   3.857   8.408 -0.0588 -0.7675  0.1317
   62MOL0     C 8277   2.141   3.841   8.367 -0.0273  0.8652  0.1121
   62MOL0     C 8278   2.049   3.894   8.486 -0.0987 -0.5220  0.9538
   62MOL0     C 8279   1.922   3.964   8.432  1.3883 -0.1604  0.2928
   62MOL0    Cl 8280   1.946   4.127   8.362  0.0745 -0.0166 -0.0724
   62MOL0     C 8281   3.008   3.612   8.594 -0.1900  0.3402  0.2850
   62MOL0     C 8282   3.141   3.639   8.636  0.5366  0.5398 -1.0735
   62MOL0     O 8283   3.384   3.584   8.442 -0.0007  0.0758  0.4337
   62MOL0     C 8284   3.598   3.826   8.587 -0.9223 -0.1965  0.8303
   62MOL0     C 8285   3.735   3.848   8.614  0.5112 -0.1448  0.1680
   62MOL0     N 8286   4.108   4.009   8.160  0.5453 -1.1085  0.2262
   62MOL0     N 8287   4.154   3.973   8.046  0.2633 -0.4384 -0.0580
   62MOL0     C 8288   4.877   4.312   7.422  0.2515 -0.4591 -0.2807
   62MOL0     C 8289   4.997   4.357   7.370  0.7330  0.1051 -0.3649
   62MOL0     C 8290   5.274   4.437   7.037  0.3405 -0.3224  0.6892
   62MOL0     C 8291   5.373   4.526   7.075  0.2760 -0.0635  0.0556
   62MOL0     C 8292   5.495   4.519   7.019  0.5622 -0.5886 -0.1843
   62MOL0     C 8293   5.531   4.425   6.926  0.1723  0.7517  0.2522
   62MOL0     O 8294   5.656   4.399   6.887 -0.7112  0.4300 -0.5799
   62MOL0     C 8295   5.777   4.472   6.928  0.0217 -0.3876 -0.0925
   62MOL0     C 8296   5.880   4.376   7.003 -0.2993 -0.6288 -1.2179
   62MOL0     C 8297   6.016   4.440   7.011 -0.4334  0.2947 -0.4289
   62MOL0     C 8298   6.088   4.369   7.128 -0.5928  0.5579  0.1487
   62MOL0     C 8299   6.229   4.381   7.125 -0.5932 -0.0911  0.5494
   62MOL0     C 8300   6.352   4.376   7.106  0.0169 -0.0022  0.4850
   62MOL0     C 8301   5.437   4.325   6.886 -0.4448  1.0521  0.2316
   62MOL0     C 8302   5.303   4.341   6.940  0.0959 -0.1701  0.0357
   62MOL0     H 8303   4.876   4.619   7.187 -1.5896 -0.0476  0.0201
   62MOL0     H 8304   4.662   4.544   7.313  0.5230  0.7241 -2.0074
   62MOL0     H 8305   4.516   4.490   7.419  1.4457 -3.6392 -1.9017
   62MOL0     H 8306   4.449   4.351   7.493  1.1503 -0.5063  3.1205
   62MOL0     H 8307   4.617   4.570   7.613  0.8262 -0.6642  1.3953
   62MOL0     H 8308   4.453   4.541   7.652  1.3348  0.8459  0.4339
   62MOL0     H 8309   4.642   4.309   7.732 -0.3039 -0.3073 -2.0477
   62MOL0     H 8310   4.627   4.455   7.830 -0.8741  1.9963 -0.8142
   62MOL0     H 8311   4.390   4.419   7.847 -0.5411  0.1768 -1.3646
   62MOL0     H 8312   4.387   4.287   7.724 -0.0421  2.3549 -1.7509
   62MOL0     H 8313   4.533   4.256   7.992 -0.2010  0.7505 -0.2443
   62MOL0     H 8314   4.367   4.220   7.980  0.3773  0.3981  1.9596
   62MOL0     H 8315   4.461   4.052   7.775  1.8656  0.4103 -1.6170
   62MOL0     H 8316   4.610   4.097   7.836  0.2577  0.0616  0.1655
   62MOL0     H 8317   4.575   3.900   7.951 -2.8099 -1.7750 -0.9252
   62MOL0     H 8318   4.505   3.998   8.087  1.0927  0.2244 -0.0863
   62MOL0     H 8319   4.398   3.782   7.981  0.6829  0.2782  0.0242
   62MOL0     H 8320   4.328   3.907   7.871  1.8198  1.2511 -0.9515
   62MOL0     H 8321   4.379   3.862   8.253 -1.0718  1.9377  2.5589
   62MOL0     H 8322   4.231   4.088   8.424  2.2133 -1.2214 -0.4000
   62MOL0     H 8323   4.066   4.023   8.413 -0.6518 -1.8943  1.7065
   62MOL0     H 8324   4.330   3.925   8.513  0.3032  0.2524 -2.2188
   62MOL0     H 8325   4.222   3.788   8.490  0.2597 -0.5252  1.0153
   62MOL0     H 8326   4.173   4.019   8.675  0.8187 -0.0235  0.4388
   62MOL0     H 8327   4.221   3.848   8.714  1.7393  0.2900 -1.5470
   62MOL0     H 8328   3.972   3.963   8.599  0.6551 -1.3605 -2.2124
   62MOL0     H 8329   3.982   3.879   8.767 -1.1793 -3.3265  0.1689
   62MOL0     H 8330   3.865   3.536   8.562 -2.3172 -1.0839  0.5566
   62MOL0     H 8331   3.601   3.448   8.388  1.2954 -2.8650 -1.1229
   62MOL0     H 8332   3.724   3.388   8.484 -0.8752 -1.0505  0.8110
   62MOL0     H 8333   3.552   3.406   8.555 -1.9706  1.3841 -1.0465
   62MOL0     H 8334   3.201   3.922   8.467  0.5289 -0.3847 -0.1284
   62MOL0     H 8335   2.958   3.876   8.381  0.5187 -0.4020 -2.0455
   62MOL0     H 8336   2.728   3.843   8.487  1.8541  0.8660 -0.2943
   62MOL0     H 8337   2.779   3.803   8.323 -2.5941 -0.4591 -1.1514
   62MOL0     H 8338   2.608   3.607   8.331  0.0421 -1.7504  1.6890
   62MOL0     H 8339   2.535   3.688   8.466 -0.7955 -1.4627 -1.1291
   62MOL0     H 8340   2.570   3.834   8.209  3.0135  1.1077  2.2836
   62MOL0     H 8341   2.542   3.910   8.361  0.6003 -1.6689  2.0112
   62MOL0     H 8342   2.337   3.826   8.200  1.1898  1.2145 -0.5216
   62MOL0     H 8343   2.357   3.686   8.301  0.8422 -0.3036  0.2403
   62MOL0     H 8344   2.316   3.964   8.415  1.3131 -1.0728  0.3596
   62MOL0     H 8345   2.315   3.814   8.506 -0.6352  1.5892  1.3821
   62MOL0     H 8346   2.121   3.900   8.278 -0.8900  0.8230  0.2671
   62MOL0     H 8347   2.112   3.736   8.353 -2.2565  1.6384 -1.6462
   62MOL0     H 8348   2.113   3.966   8.539  0.4303  0.7551 -1.2396
   62MOL0     H 8349   2.023   3.811   8.551 -0.0988 -0.2574  1.2962
   62MOL0     H 8350   1.837   3.971   8.500 -1.8506  1.0217 -3.5446
   62MOL0     H 8351   1.892   3.897   8.351  2.0399  0.6426 -0.6294
   62MOL0     H 8352   2.946   3.531   8.630 -0.1299  1.0001  1.9410
   62MOL0     H 8353   3.191   3.566   8.699 -1.3274 -0.4472 -0.6622
   62MOL0     H 8354   3.540   3.917   8.594  1.0892  1.3037 -0.8897
   62MOL0     H 8355   3.769   3.948   8.640  2.6722 -1.1501  1.5160
   62MOL0     H 8356   4.871   4.223   7.483 -2.8898  0.3935  0.8344
   62MOL0     H 8357   5.083   4.301   7.403  0.8045 -0.2147 -1.0829
   62MOL0     H 8358   5.352   4.608   7.142  0.0799  1.4824 -1.8322
   62MOL0     H 8359   5.558   4.603   7.049 -2.1722  1.9108 -0.9266
   62MOL0     H 8360   5.831   4.507   6.839  1.1840 -1.9405 -0.0374
   62MOL0     H 8361   5.767   4.559   6.994  1.9364  2.2249 -2.9478
   62MOL0     H 8362   5.880   4.279   6.951 -0.2557  0.7130 -3.8721
   62MOL0     H 8363   5.834   4.363   7.102  2.5671  0.5501  0.3806
   62MOL0     H 8364   6.017   4.548   7.030 -1.3851  0.2508 -0.0876
   62MOL0     H 8365   6.073   4.420   6.920  2.1325  1.4999  0.8255
   62MOL0     H 8366   6.078   4.262   7.109  1.7604 -0.2458  2.8302
   62MOL0     H 8367   6.048   4.392   7.227 -0.2668  2.3120 -0.0941
   62MOL0     H 8368   6.455   4.381   7.078  0.3399 -1.7712  1.2254
   62MOL0     H 8369   5.456   4.249   6.811 -0.9424  1.3858 -0.2451
   62MOL0     H 8370   5.233   4.269   6.900  0.9239 -1.4405  0.8092
   63MOL0     O 8371   8.070   3.261   7.814  0.1747 -0.0040 -0.5156
   63MOL0     C 8372   8.059   3.222   7.696  0.4975  0.0398 -0.4818
   63MOL0     O 8373   8.153   3.177   7.612 -0.2051 -0.2870 -0.8127
   63MOL0     C 8374   8.278   3.192   7.665 -0.0155  0.5601 -1.1912
   63MOL0     C 8375   8.352   3.087   7.722 -0.5344  0.0977  1.8209
   63MOL0     C 8376   8.476   3.103   7.771 -0.0171  0.2776 -0.3077
   63MOL0     C 8377   8.535   3.227   7.785  0.0552 -0.3988  0.2281
   63MOL0     O 8378   8.658   3.234   7.850  0.3137 -0.2186 -0.5647
   63MOL0     C 8379   8.739   3.349   7.828 -0.7970 -0.2049 -0.3882
   63MOL0     C 8380   8.866   3.326   7.907 -0.7873 -0.2352 -0.3269
   63MOL0     C 8381   8.954   3.451   7.912 -0.4860 -0.1337 -0.3609
   63MOL0     C 8382   9.001   3.499   7.770 -0.0643  0.2590  0.5244
   63MOL0     C 8383   9.106   3.609   7.787 -0.1004  0.4846  0.1962
   63MOL0     C 8384   9.048   3.727   7.852  0.1624 -0.2957 -0.5972
   63MOL0     C 8385   9.120   3.853   7.820  0.2899  0.0083  0.2051
   63MOL0     C 8386   9.077   3.977   7.902 -0.1876 -0.0220 -0.4969
   63MOL0     N 8387   9.148   4.101   7.873 -0.2658 -0.6899  0.2350
   63MOL0     C 8388   9.109   4.228   7.906  0.1365 -0.4868 -0.5578
   63MOL0     C 8389   9.207   4.315   7.875 -0.7225  0.4229  0.0138
   63MOL0     C 8390   9.209   4.462   7.922  0.2371 -0.2815  0.0570
   63MOL0     C 8391   9.285   4.549   7.815  0.6525 -0.4320 -0.0105
   63MOL0     C 8392   9.309   4.695   7.856  0.0317  0.1719 -0.7359
   63MOL0     C 8393   9.377   4.774   7.747 -0.0625  0.3664  0.4310
   63MOL0     O 8394   9.292   4.789   7.626  0.3868 -0.4619 -0.4973
   63MOL0     C 8395   9.327   4.860   7.515  0.0115 -0.4749 -0.2849
   63MOL0     C 8396   9.243   4.848   7.403 -0.4048  1.3810 -0.4733
   63MOL0     C 8397   9.280   4.925   7.293  0.0726 -0.1125  0.5340
   63MOL0     C 8398   9.185   4.907   7.169 -0.6289  0.0085  0.3730
   63MOL0     C 8399   9.386   5.019   7.300 -0.2732 -0.2870  0.1243
   63MOL0     C 8400   9.405   5.118   7.198 -0.0964 -0.1598  0.4455
   63MOL0     O 8401   9.532   5.114   7.154  0.7306  0.4195 -0.2749
   63MOL0     C 8402   9.588   5.219   7.086  0.3779 -0.5771  0.7474
   63MOL0     C 8403   9.563   5.351   7.120 -0.1583 -0.0647  0.0752
   63MOL0     C 8404   9.609   5.454   7.036  0.4449  0.0873  0.4759
   63MOL0     C 8405   9.699   5.423   6.925  0.3427  0.3570  0.3314
   63MOL0     O 8406   9.739   5.526   6.849  0.4119  0.3954 -0.1302
   63MOL0     C 8407   9.785   5.648   6.911  0.4264 -0.3735 -0.2899
   63MOL0     C 8408   9.880   5.716   6.815  0.6731  0.2973  0.6644
   63MOL0     C 8409   9.913   5.858   6.843 -0.1472  0.1842 -0.1492
   63MOL0     C 8410   9.928   5.928   6.702 -0.7661  0.2966  0.0862
   63MOL0     C 8411  10.061   5.887   6.620  0.5728 -0.3717 -0.0784
   63MOL0     C 8412  10.186   5.917   6.702  0.6926  0.2084 -0.4483
   63MOL0     C 8413  10.309   5.897   6.604 -0.2585  0.7507 -0.8462
   63MOL0     C 8414  10.334   5.753   6.575 -0.1494 -0.2321  0.6611
   63MOL0    Cl 8415  10.473   5.767   6.459 -0.2540  0.4256 -0.5149
   63MOL0     C 8416   9.743   5.294   6.907 -0.9096 -1.1863  0.1144
   63MOL0     C 8417   9.673   5.188   6.976 -0.1717 -0.2287 -1.3387
   63MOL0     O 8418   9.318   5.195   7.155  0.2252  0.5088 -0.1455
   63MOL0     C 8419   9.460   5.039   7.419  0.0900  0.7383  0.4920
   63MOL0     C 8420   9.437   4.949   7.520 -0.5476  0.6010  0.1320
   63MOL0     N 8421   9.318   4.236   7.824 -0.9644  1.2258 -0.5408
   63MOL0     N 8422   9.274   4.113   7.817 -0.6658 -0.2921  0.8433
   63MOL0     C 8423   8.470   3.335   7.720  0.5808 -0.5908 -0.3285
   63MOL0     C 8424   8.339   3.321   7.676 -1.0809  0.9365  0.2108
   63MOL0     C 8425   7.923   3.213   7.653 -0.6338  0.1002  0.7692
   63MOL0     C 8426   7.814   3.292   7.706 -0.6920  0.5689  0.1283
   63MOL0     C 8427   7.687   3.279   7.661  0.9595 -0.1193  0.6472
   63MOL0     C 8428   7.656   3.183   7.560  0.6118 -1.0125 -0.3526
   63MOL0     O 8429   7.524   3.181   7.519  0.1322 -0.5930  0.2619
   63MOL0     C 8430   7.487   3.060   7.450  0.0973  0.6981 -0.3762
   63MOL0     C 8431   7.337   3.059   7.456 -0.4137 -0.4586  0.0039
   63MOL0     C 8432   7.277   3.015   7.596  0.2382 -0.7952  0.0160
   63MOL0     C 8433   7.127   2.987   7.575  0.4044 -0.6985 -0.9431
   63MOL0     C 8434   7.095   2.850   7.537 -0.4223 -0.3542  0.6338
   63MOL0     C 8435   7.105   2.730   7.508  0.0351 -0.2945 -0.3117
   63MOL0     C 8436   7.758   3.105   7.506 -0.5768  0.1570 -0.1142
   63MOL0     C 8437   7.886   3.118   7.554 -0.1465  0.0563 -0.4768
   63MOL0     H 8438   8.305   2.990   7.734 -0.4821 -0.0090  1.2255
   63MOL0     H 8439   8.525   3.015   7.813  1.1977  0.2609 -1.6881
   63MOL0     H 8440   8.757   3.355   7.721 -0.6678  0.4929 -0.3295
   63MOL0     H 8441   8.685   3.438   7.860  0.5099  0.2404  0.6908
   63MOL0     H 8442   8.839   3.290   8.007  1.9951  2.2988  1.5204
   63MOL0     H 8443   8.925   3.249   7.856  0.5797  0.2171  0.5284
   63MOL0     H 8444   8.899   3.524   7.972 -1.7125 -2.0411  0.9099
   63MOL0     H 8445   9.041   3.431   7.975 -0.1218  0.9573 -0.4862
   63MOL0     H 8446   9.037   3.412   7.714  2.4783 -0.4742  3.0721
   63MOL0     H 8447   8.912   3.541   7.721 -0.6432 -1.7032 -0.2178
   63MOL0     H 8448   9.188   3.569   7.847 -0.3660  1.2876  1.1235
   63MOL0     H 8449   9.145   3.622   7.686  0.6074 -0.7774  0.2864
   63MOL0     H 8450   8.945   3.737   7.815 -0.4420  1.9877  1.4846
   63MOL0     H 8451   9.044   3.716   7.960  2.2813 -3.0685 -0.7094
   63MOL0     H 8452   9.226   3.827   7.828 -0.0179 -2.2310 -1.9459
   63MOL0     H 8453   9.108   3.878   7.715  0.0836 -0.8435  0.0174
   63MOL0     H 8454   9.087   3.945   8.007  0.3969  1.8220  0.0513
   63MOL0     H 8455   8.969   3.981   7.885 -1.2617 -1.5796  4.2475
   63MOL0     H 8456   9.019   4.256   7.961 -0.8220 -0.3282 -2.1294
   63MOL0     H 8457   9.102   4.488   7.930  0.0458 -1.3109  1.1226
   63MOL0     H 8458   9.258   4.471   8.019 -2.7427  0.9021  1.5765
   63MOL0     H 8459   9.231   4.544   7.720  1.1001 -2.4716 -0.1988
   63MOL0     H 8460   9.378   4.495   7.797 -0.5509 -2.5121 -0.3515
   63MOL0     H 8461   9.382   4.698   7.937 -0.7869 -0.5724  0.0593
   63MOL0     H 8462   9.216   4.745   7.885 -0.2784 -0.4630 -0.5969
   63MOL0     H 8463   9.470   4.734   7.706 -0.8422  0.7550 -1.8445
   63MOL0     H 8464   9.396   4.878   7.776 -2.0278  0.3956  1.8391
   63MOL0     H 8465   9.149   4.796   7.395 -0.0572  0.7652 -0.5753
   63MOL0     H 8466   9.114   4.991   7.164 -1.9974 -1.1175  0.2326
   63MOL0     H 8467   9.245   4.920   7.079 -0.8379 -0.7604  0.1188
   63MOL0     H 8468   9.139   4.808   7.159  1.4868 -1.0690  0.8712
   63MOL0     H 8469   9.501   5.379   7.205  0.3576  1.9464 -0.1526
   63MOL0     H 8470   9.572   5.552   7.065 -2.3175 -0.4275 -0.9330
   63MOL0     H 8471   9.702   5.709   6.946  0.6717 -1.5154  2.5160
   63MOL0     H 8472   9.848   5.628   6.998  0.6814  3.5620  0.5912
   63MOL0     H 8473   9.967   5.652   6.826  1.2583  0.7424 -1.0003
   63MOL0     H 8474   9.848   5.705   6.711  2.8788 -0.1940 -0.0128
   63MOL0     H 8475  10.007   5.865   6.897  1.1898  5.0098 -2.5685
   63MOL0     H 8476   9.839   5.902   6.911 -0.0697 -0.8145  0.5869
   63MOL0     H 8477   9.849   5.892   6.635 -1.7417 -0.9918  1.8156
   63MOL0     H 8478   9.930   6.037   6.714 -0.4545  0.2080  0.9038
   63MOL0     H 8479  10.064   5.943   6.526 -0.4998  1.2816  0.8311
   63MOL0     H 8480  10.064   5.780   6.597  0.0391 -0.3396 -0.3069
   63MOL0     H 8481  10.179   6.019   6.741  1.2596 -1.0547  3.4608
   63MOL0     H 8482  10.204   5.852   6.788 -0.3275  1.5660  0.8447
   63MOL0     H 8483  10.393   5.934   6.665 -2.8368  2.9688  1.6744
   63MOL0     H 8484  10.304   5.957   6.513 -6.0321  0.3669 -1.1575
   63MOL0     H 8485  10.245   5.703   6.534 -1.8269  2.0861  1.2358
   63MOL0     H 8486  10.377   5.689   6.653  1.3013 -1.8527 -1.3693
   63MOL0     H 8487   9.813   5.275   6.826  1.0253  0.1363  1.3895
   63MOL0     H 8488   9.687   5.083   6.953  2.7912 -0.6323  1.5745
   63MOL0     H 8489   9.533   5.120   7.419 -1.7888  2.5554  2.1692
   63MOL0     H 8490   9.503   4.961   7.604  0.8195 -1.1225 -0.6457
   63MOL0     H 8491   8.518   3.430   7.702  0.2101 -0.4142 -0.4109
   63MOL0     H 8492   8.281   3.405   7.640 -0.5470  1.4846  0.6039
   63MOL0     H 8493   7.835   3.368   7.781 -1.2059  1.0664 -0.2296
   63MOL0     H 8494   7.602   3.328   7.707  0.7833 -1.0663  1.3597
   63MOL0     H 8495   7.527   3.052   7.348  3.0725  1.8591  0.5669
   63MOL0     H 8496   7.527   2.980   7.513 -2.5947  1.8641  3.0816
   63MOL0     H 8497   7.315   2.976   7.388 -2.2727  0.1657 -0.2139
   63MOL0     H 8498   7.295   3.151   7.415 -1.3516 -1.1052 -0.5172
   63MOL0     H 8499   7.283   3.086   7.679 -2.8672 -0.6611  0.2370
   63MOL0     H 8500   7.324   2.923   7.631  0.2561 -1.1264 -0.8566
   63MOL0     H 8501   7.084   3.069   7.516 -0.8199  2.3301  3.6366
   63MOL0     H 8502   7.076   2.996   7.671 -1.0975  1.7519 -1.8689
   63MOL0     H 8503   7.118   2.624   7.503 -1.6909 -0.6666  1.6472
   63MOL0     H 8504   7.739   3.029   7.431 -0.3775 -0.8461  0.8460
   63MOL0     H 8505   7.955   3.050   7.505  1.4732  1.9419 -0.9562
   64MOL0     O 8506   0.093   7.838   7.824 -0.7291  0.5013  0.7986
   64MOL0     C 8507   0.110   7.955   7.868  0.0053 -0.3992 -0.6542
   64MOL0     O 8508   0.018   8.059   7.873 -0.7977 -0.0674  0.1123
   64MOL0     C 8509  -0.110   8.012   7.842 -0.1919 -0.3525 -0.3087
   64MOL0     C 8510  -0.187   7.982   7.953  0.2299  0.3639  0.3993
   64MOL0     C 8511  -0.308   7.910   7.937 -1.0448 -0.2460 -0.5365
   64MOL0     C 8512  -0.358   7.877   7.805 -0.3241 -0.5572  1.1240
   64MOL0     O 8513  -0.485   7.839   7.798  0.3768 -0.3454 -0.4783
   64MOL0     C 8514  -0.504   7.697   7.809 -0.2050  0.2800 -0.8425
   64MOL0     C 8515  -0.653   7.654   7.800  0.0872 -0.0815 -0.2231
   64MOL0     C 8516  -0.716   7.689   7.664 -0.1630 -0.5149 -0.0120
   64MOL0     C 8517  -0.644   7.640   7.534 -0.4983 -0.3903  0.6922
   64MOL0     C 8518  -0.661   7.488   7.516  0.3629 -0.1992  0.5005
   64MOL0     C 8519  -0.602   7.438   7.381  0.6065 -0.6869 -1.1266
   64MOL0     C 8520  -0.629   7.288   7.351  0.0082  0.0885  0.0630
   64MOL0     C 8521  -0.561   7.247   7.217 -0.2413 -0.7215 -0.5108
   64MOL0     N 8522  -0.411   7.234   7.235  0.3694 -0.3510 -0.2637
   64MOL0     C 8523  -0.316   7.329   7.213  0.7207 -0.4619  0.3778
   64MOL0     C 8524  -0.200   7.263   7.221  0.5004 -0.6292 -0.4292
   64MOL0     C 8525  -0.062   7.334   7.213  0.3151  0.2069 -0.0850
   64MOL0     C 8526  -0.037   7.414   7.078  0.6711  0.0102 -0.2457
   64MOL0     C 8527   0.091   7.495   7.078 -0.1504  0.3220  0.0058
   64MOL0     C 8528   0.216   7.408   7.090 -0.3851 -0.2352 -0.7127
   64MOL0     O 8529   0.233   7.352   7.217 -0.5433 -0.0739 -0.3102
   64MOL0     C 8530   0.301   7.442   7.296 -0.6816 -0.1240 -0.5960
   64MOL0     C 8531   0.244   7.489   7.416  0.4716 -0.1256 -0.7706
   64MOL0     C 8532   0.323   7.566   7.510  0.0945  0.8105  0.1285
   64MOL0     C 8533   0.263   7.591   7.652  0.2112  0.7426  0.3568
   64MOL0     C 8534   0.463   7.596   7.479  0.4134 -0.4202 -0.1214
   64MOL0     C 8535   0.542   7.679   7.563 -0.6647  0.5181 -0.7298
   64MOL0     O 8536   0.673   7.662   7.526 -0.8594  0.6714 -0.0889
   64MOL0     C 8537   0.777   7.713   7.594  0.2845 -0.0475 -0.6042
   64MOL0     C 8538   0.904   7.745   7.527  0.3800  0.0432 -0.6124
   64MOL0     C 8539   1.013   7.789   7.607 -0.4674 -0.5358  0.0944
   64MOL0     C 8540   1.001   7.806   7.739 -0.3291  0.5050 -0.3450
   64MOL0     O 8541   1.101   7.850   7.826 -0.4465  0.3274 -0.3284
   64MOL0     C 8542   1.195   7.944   7.775  0.6044 -0.0764 -0.5472
   64MOL0     C 8543   1.261   8.013   7.894  0.0502 -0.0670  1.0581
   64MOL0     C 8544   1.348   7.929   7.981  1.1743 -0.1823 -0.3694
   64MOL0     C 8545   1.369   7.990   8.115 -0.9986 -0.6862 -0.3817
   64MOL0     C 8546   1.460   7.885   8.187 -1.2345 -0.7388 -0.0387
   64MOL0     C 8547   1.488   7.926   8.330 -0.0164 -0.0586  0.2251
   64MOL0     C 8548   1.566   7.812   8.410  0.8204 -0.4044 -0.9585
   64MOL0     C 8549   1.558   7.813   8.559  0.7030  0.3895 -1.3382
   64MOL0    Cl 8550   1.391   7.789   8.622 -0.0378 -0.3788  0.4519
   64MOL0     C 8551   0.884   7.771   7.804  0.2698  0.3133  0.4415
   64MOL0     C 8552   0.774   7.726   7.732 -0.1101  0.2304  0.0335
   64MOL0     O 8553   0.495   7.755   7.652  0.4108 -1.5852 -0.1856
   64MOL0     C 8554   0.509   7.553   7.355 -0.4864  0.6706 -0.2934
   64MOL0     C 8555   0.436   7.476   7.270 -0.5651  0.6627  0.6993
   64MOL0     N 8556  -0.220   7.134   7.252 -0.5371  0.4158 -0.3045
   64MOL0     N 8557  -0.344   7.121   7.270 -0.1370  0.5657  0.3432
   64MOL0     C 8558  -0.289   7.935   7.700  0.1233  0.1174  0.2120
   64MOL0     C 8559  -0.164   7.997   7.713  0.0652 -0.6528  0.7070
   64MOL0     C 8560   0.241   7.990   7.941  0.0657 -0.1748  0.1574
   64MOL0     C 8561   0.354   7.907   7.928  0.1295  0.5646 -0.7037
   64MOL0     C 8562   0.471   7.940   8.001  0.5117 -0.3745  0.5621
   64MOL0     C 8563   0.483   8.055   8.080  0.8462 -0.1906 -0.4775
   64MOL0     O 8564   0.603   8.090   8.135  0.5403  0.1070 -0.8446
   64MOL0     C 8565   0.712   8.135   8.055 -0.3065 -0.0926  0.6248
   64MOL0     C 8566   0.838   8.048   8.077 -0.1835 -0.8879 -0.8721
   64MOL0     C 8567   0.942   8.118   8.178  0.3127 -0.2540  0.1563
   64MOL0     C 8568   0.922   8.090   8.320 -0.2398  0.2611  0.3395
   64MOL0     C 8569   1.050   8.105   8.395  0.1996 -0.4916  0.1377
   64MOL0     C 8570   1.153   8.120   8.454  0.0168  0.1191 -0.3399
   64MOL0     C 8571   0.370   8.142   8.091 -0.3772  1.0875  0.2136
   64MOL0     C 8572   0.251   8.109   8.022 -0.8524  0.1008 -0.0859
   64MOL0     H 8573  -0.149   8.009   8.051  0.1990  0.3713  0.4092
   64MOL0     H 8574  -0.372   7.884   8.021  0.8416 -0.4390  0.8860
   64MOL0     H 8575  -0.441   7.649   7.734  0.2627  0.7168 -0.7343
   64MOL0     H 8576  -0.473   7.661   7.908 -2.9168  1.1117  0.3926
   64MOL0     H 8577  -0.654   7.545   7.815  2.0093  0.0827  1.7485
   64MOL0     H 8578  -0.702   7.708   7.881  0.9746  2.9504 -1.5720
   64MOL0     H 8579  -0.820   7.653   7.667 -0.0296 -1.4513 -2.7957
   64MOL0     H 8580  -0.722   7.797   7.652 -1.7919 -0.6103 -0.4068
   64MOL0     H 8581  -0.686   7.694   7.449 -0.7803 -2.2445 -0.3852
   64MOL0     H 8582  -0.537   7.662   7.540  0.0063 -2.5674  0.4545
   64MOL0     H 8583  -0.612   7.440   7.602  2.6319  2.3324  0.7628
   64MOL0     H 8584  -0.766   7.460   7.507  0.4824 -0.1218 -1.7021
   64MOL0     H 8585  -0.647   7.494   7.299  0.7639  2.7148  0.8951
   64MOL0     H 8586  -0.495   7.461   7.389  0.0229  2.1867 -0.6444
   64MOL0     H 8587  -0.590   7.236   7.439  1.2379  3.7882  1.9001
   64MOL0     H 8588  -0.738   7.283   7.340  0.1152  0.7939 -1.4879
   64MOL0     H 8589  -0.584   7.321   7.140  0.0167 -0.4368 -0.3163
   64MOL0     H 8590  -0.600   7.153   7.177  0.9531 -1.8741  0.9174
   64MOL0     H 8591  -0.326   7.437   7.206  1.0424 -0.5396 -1.6329
   64MOL0     H 8592  -0.040   7.396   7.300 -0.1323  2.3678 -1.4218
   64MOL0     H 8593   0.013   7.255   7.228  0.4210  0.5584  1.3843
   64MOL0     H 8594  -0.124   7.479   7.069 -0.2674 -1.5743 -4.6464
   64MOL0     H 8595  -0.035   7.345   6.993 -2.8617  1.7460 -1.9082
   64MOL0     H 8596   0.090   7.579   7.149  1.1918 -0.0958  0.5509
   64MOL0     H 8597   0.112   7.537   6.979  1.2913  0.7196  0.4423
   64MOL0     H 8598   0.301   7.470   7.061  0.1192  0.1407  1.4589
   64MOL0     H 8599   0.202   7.331   7.013 -1.1072  0.9266 -1.7788
   64MOL0     H 8600   0.142   7.461   7.441  0.1875 -0.3642 -2.1224
   64MOL0     H 8601   0.217   7.690   7.655 -0.2604  0.5076  1.1679
   64MOL0     H 8602   0.197   7.510   7.682  0.5260  0.6206  0.7291
   64MOL0     H 8603   0.337   7.596   7.733 -0.9105  3.5402  1.3542
   64MOL0     H 8604   0.909   7.745   7.419 -1.7948  0.9641 -0.7716
   64MOL0     H 8605   1.113   7.808   7.568 -0.1800  0.4623  1.2316
   64MOL0     H 8606   1.273   7.892   7.717 -0.2135 -0.5801 -1.2143
   64MOL0     H 8607   1.155   8.020   7.708 -1.6048 -1.0713 -0.4420
   64MOL0     H 8608   1.318   8.097   7.851  0.1584  1.0784  3.2816
   64MOL0     H 8609   1.181   8.062   7.950 -1.9577 -2.0522  0.0636
   64MOL0     H 8610   1.435   7.899   7.923 -0.2344 -1.7401 -1.7750
   64MOL0     H 8611   1.296   7.835   8.000 -0.7983  0.8364 -0.3877
   64MOL0     H 8612   1.418   8.088   8.114 -0.4565 -0.9002  1.6654
   64MOL0     H 8613   1.278   8.009   8.173  0.8135  1.6900  1.8977
   64MOL0     H 8614   1.553   7.866   8.134 -0.9674  1.3611 -0.3831
   64MOL0     H 8615   1.415   7.785   8.186  0.9431 -1.7924 -1.7526
   64MOL0     H 8616   1.553   8.014   8.321  1.1427 -0.8324  0.6630
   64MOL0     H 8617   1.392   7.954   8.374 -1.2606  0.5256 -2.6435
   64MOL0     H 8618   1.673   7.826   8.397  1.1487 -0.5739  1.1854
   64MOL0     H 8619   1.526   7.714   8.382  1.4262 -1.8170  2.5580
   64MOL0     H 8620   1.601   7.895   8.617 -1.0278  0.3259  0.1175
   64MOL0     H 8621   1.620   7.733   8.599 -0.3371  0.1378 -0.1659
   64MOL0     H 8622   0.884   7.793   7.910 -0.8945  0.1818  0.4796
   64MOL0     H 8623   0.692   7.698   7.797  1.0603 -1.2098  0.9434
   64MOL0     H 8624   0.611   7.582   7.329  0.5523  1.6191  4.0766
   64MOL0     H 8625   0.485   7.442   7.179  1.5180  2.8483  0.8818
   64MOL0     H 8626  -0.323   7.922   7.597  0.5301  1.4527 -0.1131
   64MOL0     H 8627  -0.101   8.024   7.629  0.8579 -0.7583  1.2497
   64MOL0     H 8628   0.346   7.818   7.865 -1.1426  1.8615 -2.4951
   64MOL0     H 8629   0.566   7.889   7.992 -0.2938 -1.8884  0.2700
   64MOL0     H 8630   0.694   8.129   7.948  3.5288  0.5684 -0.2086
   64MOL0     H 8631   0.728   8.239   8.086 -2.5706  1.1990 -2.1561
   64MOL0     H 8632   0.896   8.059   7.986  0.1515  0.3640 -0.5385
   64MOL0     H 8633   0.811   7.946   8.105  0.8038 -0.5556  1.5137
   64MOL0     H 8634   0.939   8.226   8.162  2.1062 -0.0687  0.9069
   64MOL0     H 8635   1.039   8.082   8.145  0.6676  1.4635 -0.7455
   64MOL0     H 8636   0.899   7.984   8.333 -0.6356  0.4394  1.2190
   64MOL0     H 8637   0.842   8.157   8.352 -0.9636  0.1550 -1.1998
   64MOL0     H 8638   1.233   8.155   8.516 -1.7739  1.4353  1.3392
   64MOL0     H 8639   0.381   8.226   8.159 -0.4677  2.7806 -1.7599
   64MOL0     H 8640   0.160   8.168   8.027 -2.5586 -2.4419  0.7168
   65MOL0     O 8641   3.449   5.764   1.266  0.6203  0.5887  0.2193
   65MOL0     C 8642   3.423   5.685   1.362  0.1825 -0.6613  0.5307
   65MOL0     O 8643   3.511   5.618   1.439  0.4127 -0.4664  0.8433
   65MOL0     C 8644   3.650   5.612   1.423 -0.0235 -0.2064 -0.4263
   65MOL0     C 8645   3.728   5.644   1.310 -0.0764 -0.1603  0.6264
   65MOL0     C 8646   3.869   5.634   1.316  0.8499 -0.8635  0.3166
   65MOL0     C 8647   3.932   5.604   1.434 -0.2887 -0.4268  0.9154
   65MOL0     O 8648   4.071   5.590   1.435  0.3065 -0.1202  0.7016
   65MOL0     C 8649   4.152   5.684   1.362 -0.3362 -0.0928  0.2524
   65MOL0     C 8650   4.244   5.740   1.464 -0.7005  0.1311 -0.0515
   65MOL0     C 8651   4.161   5.839   1.555 -0.5649  0.2239 -0.2821
   65MOL0     C 8652   4.155   5.978   1.481  0.5834 -0.1557 -0.4274
   65MOL0     C 8653   4.016   6.047   1.498 -0.2387 -0.6577 -0.7531
   65MOL0     C 8654   4.003   6.090   1.651  0.0532  0.2660  0.2955
   65MOL0     C 8655   3.892   6.197   1.674  0.1660  0.4669 -0.5578
   65MOL0     C 8656   3.874   6.230   1.826 -0.3452  0.3005 -0.7577
   65MOL0     N 8657   3.744   6.287   1.854  0.1730  0.2395  0.2414
   65MOL0     C 8658   3.633   6.207   1.885  0.9113  0.3262  0.1107
   65MOL0     C 8659   3.547   6.292   1.947  0.2431 -0.0261 -0.4536
   65MOL0     C 8660   3.402   6.260   1.995  0.2172 -0.1250  0.1459
   65MOL0     C 8661   3.289   6.279   1.891 -0.1506  0.4717 -0.3399
   65MOL0     C 8662   3.264   6.410   1.826 -0.3347  0.1731  0.2588
   65MOL0     C 8663   3.139   6.406   1.739  0.2398  0.3995 -0.3407
   65MOL0     O 8664   3.031   6.359   1.823  0.1919  0.2997  0.1137
   65MOL0     C 8665   2.898   6.348   1.778  0.0578 -0.0102 -0.0583
   65MOL0     C 8666   2.857   6.361   1.643 -0.6823 -0.3547 -0.4202
   65MOL0     C 8667   2.731   6.352   1.603  0.1796 -0.5218  0.1579
   65MOL0     C 8668   2.705   6.374   1.456  0.0545 -0.2484 -0.1238
   65MOL0     C 8669   2.629   6.322   1.694  0.2124  0.0590 -0.1656
   65MOL0     C 8670   2.480   6.332   1.669  0.0645  0.4505 -0.0927
   65MOL0     O 8671   2.408   6.275   1.767 -0.6403 -0.4419 -0.0074
   65MOL0     C 8672   2.272   6.291   1.728  0.3436  0.7865 -0.1745
   65MOL0     C 8673   2.199   6.404   1.761 -0.3452  0.0361 -0.7384
   65MOL0     C 8674   2.066   6.424   1.727 -0.1249  0.3195  0.2865
   65MOL0     C 8675   1.998   6.322   1.662  0.5356  0.1740 -0.7595
   65MOL0     O 8676   1.866   6.328   1.631 -0.2777 -0.1830  0.1143
   65MOL0     C 8677   1.798   6.457   1.649 -0.0458 -0.0479 -0.3522
   65MOL0     C 8678   1.658   6.445   1.595  0.6816 -0.5017  0.6266
   65MOL0     C 8679   1.565   6.577   1.605  0.1951 -0.6173  0.3343
   65MOL0     C 8680   1.423   6.542   1.544 -0.2892  0.7858 -0.1295
   65MOL0     C 8681   1.308   6.648   1.579  0.1309 -0.0984  0.4827
   65MOL0     C 8682   1.180   6.604   1.512  0.6190 -0.5538 -0.1798
   65MOL0     C 8683   1.057   6.693   1.536 -0.1472  0.0369 -0.3022
   65MOL0     C 8684   0.930   6.615   1.513 -0.7439  0.3841  0.1704
   65MOL0    Cl 8685   0.940   6.526   1.361 -0.1738  0.1574  0.0026
   65MOL0     C 8686   2.060   6.197   1.637  0.3833  0.1964  0.6059
   65MOL0     C 8687   2.199   6.189   1.667 -0.3630  0.0380  0.2371
   65MOL0     O 8688   2.437   6.379   1.561 -0.6333  0.0303  0.2772
   65MOL0     C 8689   2.670   6.300   1.828  0.4224 -0.2008 -0.2538
   65MOL0     C 8690   2.801   6.332   1.867  0.4105  1.1201  0.2540
   65MOL0     N 8691   3.611   6.415   1.957 -0.3085 -0.1710 -0.6754
   65MOL0     N 8692   3.731   6.404   1.914  0.2131  0.3326  0.2849
   65MOL0     C 8693   3.859   5.569   1.539 -0.0790  0.6315 -0.2469
   65MOL0     C 8694   3.721   5.558   1.532  0.1981 -0.8063  0.0465
   65MOL0     C 8695   3.275   5.675   1.387 -0.0279  0.3864  0.0647
   65MOL0     C 8696   3.186   5.762   1.327  1.0109  0.1759 -0.6166
   65MOL0     C 8697   3.043   5.738   1.349  0.0359 -0.1922 -0.3917
   65MOL0     C 8698   3.001   5.626   1.423 -0.2546  1.0357  0.5844
   65MOL0     O 8699   2.863   5.610   1.439 -0.0850 -0.3714  0.4099
   65MOL0     C 8700   2.806   5.493   1.485  0.4651 -0.6450  0.0461
   65MOL0     C 8701   2.656   5.492   1.473 -0.2124 -0.6651 -0.9922
   65MOL0     C 8702   2.607   5.517   1.333 -0.2351  0.7102 -0.9158
   65MOL0     C 8703   2.455   5.500   1.320  0.3449  0.9776 -0.2613
   65MOL0     C 8704   2.393   5.481   1.188 -0.3985 -0.4521  0.5912
   65MOL0     C 8705   2.342   5.448   1.080 -0.2967  0.2259 -0.6906
   65MOL0     C 8706   3.097   5.538   1.481 -0.4165 -0.3684  0.6875
   65MOL0     C 8707   3.227   5.568   1.470 -0.8475  0.3501 -0.1249
   65MOL0     H 8708   3.689   5.672   1.212  0.4332  0.1760  0.5186
   65MOL0     H 8709   3.920   5.658   1.223 -0.1096 -3.3132 -0.9304
   65MOL0     H 8710   4.214   5.630   1.289 -1.0759 -0.6180 -0.0023
   65MOL0     H 8711   4.094   5.762   1.311  3.5851  1.0520 -2.9337
   65MOL0     H 8712   4.288   5.651   1.510  0.1474  0.2868 -0.5353
   65MOL0     H 8713   4.328   5.796   1.423 -2.7250  1.7332 -2.2867
   65MOL0     H 8714   4.057   5.804   1.561 -0.0798 -1.2886 -0.4464
   65MOL0     H 8715   4.211   5.854   1.651  0.7102 -1.0302 -0.7249
   65MOL0     H 8716   4.233   6.053   1.496  0.4965  0.6757 -3.4239
   65MOL0     H 8717   4.162   5.959   1.373  3.5826 -1.7903 -0.0502
   65MOL0     H 8718   4.014   6.139   1.439  0.6682 -1.9531 -2.9273
   65MOL0     H 8719   3.933   5.982   1.470 -3.0593  1.9440  0.9412
   65MOL0     H 8720   3.992   5.998   1.710  0.1697 -0.5160 -0.8706
   65MOL0     H 8721   4.098   6.121   1.696  0.1551 -1.9636  1.7804
   65MOL0     H 8722   3.905   6.289   1.617  0.6579  0.1773 -0.9197
   65MOL0     H 8723   3.800   6.146   1.642 -0.0363  0.5120 -0.0701
   65MOL0     H 8724   3.958   6.285   1.869  0.2788 -0.4476 -0.9924
   65MOL0     H 8725   3.885   6.136   1.881  1.5902  1.0480  0.2199
   65MOL0     H 8726   3.614   6.104   1.860 -1.6077  0.5346  0.8832
   65MOL0     H 8727   3.396   6.160   2.038 -0.4356 -0.3724 -0.4856
   65MOL0     H 8728   3.376   6.332   2.073 -3.7841 -2.8604  1.6898
   65MOL0     H 8729   3.194   6.250   1.937 -0.1637  1.5169  0.3181
   65MOL0     H 8730   3.298   6.206   1.810 -0.8225 -0.6013  0.5176
   65MOL0     H 8731   3.342   6.418   1.750  1.1353  1.2859  1.7875
   65MOL0     H 8732   3.276   6.494   1.896 -1.1140  0.4262  0.0978
   65MOL0     H 8733   3.146   6.342   1.651 -2.4370 -1.8209  0.9438
   65MOL0     H 8734   3.107   6.505   1.706  0.8172  0.3454 -1.0933
   65MOL0     H 8735   2.933   6.385   1.570 -1.0065  0.3981 -0.5118
   65MOL0     H 8736   2.636   6.459   1.450 -1.2411 -1.2192  0.3524
   65MOL0     H 8737   2.792   6.403   1.397 -1.2886  0.5852 -1.8001
   65MOL0     H 8738   2.662   6.285   1.410 -0.1914 -1.6936  2.6895
   65MOL0     H 8739   2.247   6.486   1.813 -1.8125  1.8567 -2.1269
   65MOL0     H 8740   2.022   6.519   1.756 -2.7704 -0.7163  0.0042
   65MOL0     H 8741   1.800   6.478   1.756  2.1087  2.1862 -0.7345
   65MOL0     H 8742   1.850   6.538   1.597 -1.4803 -0.4269 -2.4969
   65MOL0     H 8743   1.650   6.395   1.498 -3.0871 -2.3552  1.7044
   65MOL0     H 8744   1.614   6.366   1.656  0.6903 -4.0595 -3.4832
   65MOL0     H 8745   1.613   6.659   1.552  1.6095 -0.4868  1.7291
   65MOL0     H 8746   1.562   6.617   1.707  3.5696 -0.6313  0.5463
   65MOL0     H 8747   1.427   6.519   1.437 -0.7220 -1.5131  0.2965
   65MOL0     H 8748   1.389   6.455   1.602  0.7080  1.7890  2.0517
   65MOL0     H 8749   1.319   6.756   1.560 -1.1995  0.0833  0.5851
   65MOL0     H 8750   1.291   6.645   1.687  2.1125 -1.5503  0.8027
   65MOL0     H 8751   1.196   6.580   1.406 -1.8207 -2.6520 -0.1541
   65MOL0     H 8752   1.145   6.506   1.544 -1.4688 -1.3347 -4.1705
   65MOL0     H 8753   1.058   6.786   1.480  0.0965  0.8502  1.0145
   65MOL0     H 8754   1.063   6.724   1.640 -1.2361  0.2559 -0.2955
   65MOL0     H 8755   0.838   6.674   1.516 -0.0267  1.5746 -0.6789
   65MOL0     H 8756   0.926   6.534   1.587 -0.5370  2.9789  3.2107
   65MOL0     H 8757   2.009   6.109   1.601 -0.5968  1.2402 -0.6313
   65MOL0     H 8758   2.252   6.095   1.670 -0.2849  0.1087  2.5250
   65MOL0     H 8759   2.602   6.268   1.906 -1.5010  0.3143 -1.6275
   65MOL0     H 8760   2.833   6.313   1.969  0.5117 -0.6525 -0.0783
   65MOL0     H 8761   3.910   5.543   1.631 -0.4554 -3.5242 -1.0444
   65MOL0     H 8762   3.673   5.530   1.625  0.8562  0.3173  0.7352
   65MOL0     H 8763   3.217   5.848   1.269 -1.0563  1.3450 -0.1067
   65MOL0     H 8764   2.969   5.811   1.317  3.4308  2.2623 -3.3350
   65MOL0     H 8765   2.848   5.406   1.432 -0.5071 -1.7769  1.0726
   65MOL0     H 8766   2.834   5.488   1.590  2.2696 -0.4835 -0.3976
   65MOL0     H 8767   2.627   5.569   1.546  1.4106 -1.7638  0.9033
   65MOL0     H 8768   2.617   5.399   1.516  1.6873 -2.4418 -2.9006
   65MOL0     H 8769   2.665   5.456   1.264  2.6140  2.1379  0.0485
   65MOL0     H 8770   2.636   5.620   1.307  0.3784  1.2072  1.4844
   65MOL0     H 8771   2.400   5.588   1.356 -1.8725 -0.4405 -0.0158
   65MOL0     H 8772   2.419   5.412   1.373 -3.0284  1.2148 -1.8962
   65MOL0     H 8773   2.281   5.412   1.000  2.3360 -0.6473 -2.4779
   65MOL0     H 8774   3.066   5.449   1.535 -2.1355 -0.4680 -0.3673
   65MOL0     H 8775   3.296   5.492   1.504 -1.1936 -0.6523 -1.5924
   66MOL0     O 8776   9.272   6.226   2.466 -0.4265  0.2278 -0.0570
   66MOL0     C 8777   9.322   6.253   2.362 -0.1434 -0.6037  0.1173
   66MOL0     O 8778   9.251   6.310   2.262  0.3471 -0.1151  0.9984
   66MOL0     C 8779   9.112   6.316   2.274  1.2257 -0.1434  0.3688
   66MOL0     C 8780   9.042   6.426   2.331 -0.6191  0.0805 -0.5912
   66MOL0     C 8781   8.899   6.430   2.330 -0.2818  0.3975  0.1879
   66MOL0     C 8782   8.829   6.327   2.258  0.0921  0.5162  0.3679
   66MOL0     O 8783   8.695   6.337   2.272  0.4645 -0.5302  0.2687
   66MOL0     C 8784   8.629   6.297   2.141  0.6330 -0.5466 -0.6293
   66MOL0     C 8785   8.633   6.422   2.040 -0.0604  0.4898  0.2941
   66MOL0     C 8786   8.504   6.428   1.959  0.9032  0.1633 -0.0773
   66MOL0     C 8787   8.490   6.305   1.864  0.7367  0.6030 -0.2130
   66MOL0     C 8788   8.352   6.312   1.800 -0.9426  0.8818  0.4378
   66MOL0     C 8789   8.311   6.226   1.677 -0.2167 -0.4477 -0.5530
   66MOL0     C 8790   8.160   6.203   1.671  0.9017 -0.3817 -0.4445
   66MOL0     C 8791   8.134   6.101   1.561 -0.1189 -0.6078 -0.4301
   66MOL0     N 8792   7.995   6.060   1.551  0.3816  0.1380  0.3127
   66MOL0     C 8793   7.888   6.125   1.498  0.1124  0.4327  0.0534
   66MOL0     C 8794   7.780   6.039   1.521  0.1552  0.7090  0.0141
   66MOL0     C 8795   7.636   6.070   1.498  0.6362 -1.0748  0.1409
   66MOL0     C 8796   7.570   6.108   1.634 -0.0390  0.0496 -0.4508
   66MOL0     C 8797   7.420   6.154   1.606  0.0863  1.0094 -0.2676
   66MOL0     C 8798   7.323   6.028   1.593  0.8339 -0.7665 -0.0271
   66MOL0     O 8799   7.182   6.082   1.595  0.4584 -0.0660 -0.1989
   66MOL0     C 8800   7.086   5.993   1.651  0.3245  0.0403  0.2788
   66MOL0     C 8801   6.954   6.036   1.656 -0.6327  0.3350 -0.6086
   66MOL0     C 8802   6.843   5.955   1.690  0.3107 -0.1757 -0.7271
   66MOL0     C 8803   6.711   6.025   1.679 -0.0011  0.7342  1.0552
   66MOL0     C 8804   6.872   5.822   1.725 -0.4124  0.7597 -0.4427
   66MOL0     C 8805   6.769   5.722   1.765  0.0687 -0.7032  0.0905
   66MOL0     O 8806   6.815   5.595   1.778  0.1872 -0.1683  0.1509
   66MOL0     C 8807   6.728   5.497   1.800 -0.5358  0.0037  1.0025
   66MOL0     C 8808   6.691   5.456   1.930 -0.0001 -0.1920  0.0351
   66MOL0     C 8809   6.595   5.362   1.951  0.0881 -0.5613  0.2379
   66MOL0     C 8810   6.538   5.295   1.847  0.5287 -0.2141  0.7147
   66MOL0     O 8811   6.441   5.205   1.879  0.3416  0.9321 -0.1968
   66MOL0     C 8812   6.338   5.167   1.785  0.1985 -0.6832  0.1656
   66MOL0     C 8813   6.223   5.100   1.849 -0.1613  0.5176 -0.6269
   66MOL0     C 8814   6.116   5.071   1.734  0.1256 -0.2259  0.4889
   66MOL0     C 8815   6.011   5.188   1.710 -0.3283  0.2131 -0.1376
   66MOL0     C 8816   5.886   5.143   1.625  0.9033  1.2195  0.7894
   66MOL0     C 8817   5.794   5.034   1.682 -0.8058 -0.4610 -0.4526
   66MOL0     C 8818   5.736   5.068   1.815 -0.8311  0.2981  0.4117
   66MOL0     C 8819   5.670   4.939   1.881  0.2448 -0.8155 -0.8703
   66MOL0    Cl 8820   5.574   4.999   2.018 -0.1026 -0.0980  0.2066
   66MOL0     C 8821   6.576   5.331   1.714  0.4531 -0.8871 -0.7628
   66MOL0     C 8822   6.675   5.423   1.697  0.2745  0.2189  0.4533
   66MOL0     O 8823   6.654   5.759   1.785 -0.6287 -0.2257 -0.7841
   66MOL0     C 8824   7.005   5.776   1.725  0.4232 -0.5431 -0.3133
   66MOL0     C 8825   7.108   5.854   1.683  0.6403 -0.5063 -0.2439
   66MOL0     N 8826   7.831   5.926   1.582 -0.4717  0.2213  0.3513
   66MOL0     N 8827   7.958   5.934   1.594  0.1210 -0.9734  0.8744
   66MOL0     C 8828   8.900   6.222   2.195 -0.6141 -0.1035 -0.4191
   66MOL0     C 8829   9.038   6.215   2.209  0.6623  0.0823 -0.3151
   66MOL0     C 8830   9.463   6.215   2.347 -0.3790 -0.1473 -0.1442
   66MOL0     C 8831   9.531   6.267   2.237 -0.3244 -0.0381  0.2259
   66MOL0     C 8832   9.666   6.223   2.212  0.8339 -0.2572 -0.3648
   66MOL0     C 8833   9.725   6.136   2.313 -0.2697 -0.0642 -0.5607
   66MOL0     O 8834   9.860   6.094   2.311 -0.5862  0.7057 -0.5820
   66MOL0     C 8835   9.947   6.174   2.224 -0.1746  0.5599  0.0754
   66MOL0     C 8836  10.086   6.161   2.270  0.6331  0.0360  0.2119
   66MOL0     C 8837  10.179   6.202   2.161 -0.6145  0.4572 -0.2014
   66MOL0     C 8838  10.319   6.244   2.218  0.5538 -0.0255 -0.6216
   66MOL0     C 8839  10.397   6.121   2.243 -0.0120 -0.4621  0.4052
   66MOL0     C 8840  10.459   6.022   2.268  1.0191 -0.5823 -0.2969
   66MOL0     C 8841   9.652   6.092   2.425  0.3985 -0.2230  0.2918
   66MOL0     C 8842   9.522   6.131   2.444 -1.0744  0.5663  0.6217
   66MOL0     H 8843   9.099   6.504   2.380 -2.4949 -0.8165  3.5472
   66MOL0     H 8844   8.848   6.514   2.375  0.1580  1.8822 -1.9766
   66MOL0     H 8845   8.658   6.205   2.090  0.1076 -0.6842 -0.6900
   66MOL0     H 8846   8.522   6.288   2.166  0.2107  1.3229 -1.5341
   66MOL0     H 8847   8.636   6.511   2.102  0.8206 -0.6364  1.9318
   66MOL0     H 8848   8.723   6.417   1.976  1.0704  2.2089  1.6571
   66MOL0     H 8849   8.420   6.419   2.028 -0.1037  0.3919 -1.2407
   66MOL0     H 8850   8.499   6.526   1.910 -3.7738 -0.2983 -0.9278
   66MOL0     H 8851   8.566   6.290   1.787  1.8163 -3.3261  1.3513
   66MOL0     H 8852   8.494   6.216   1.927  0.4208 -0.5478 -1.7589
   66MOL0     H 8853   8.278   6.303   1.880  0.5907 -0.6926  1.7561
   66MOL0     H 8854   8.330   6.412   1.761 -2.1316  0.8158  0.8925
   66MOL0     H 8855   8.337   6.277   1.584  0.8790  2.4173  1.1952
   66MOL0     H 8856   8.364   6.131   1.685  0.0339 -0.2812 -0.2026
   66MOL0     H 8857   8.125   6.165   1.767 -0.1049  0.1241 -0.5914
   66MOL0     H 8858   8.108   6.297   1.650  1.7684  0.2211  0.0275
   66MOL0     H 8859   8.195   6.012   1.578  0.5257 -0.0417  0.2888
   66MOL0     H 8860   8.170   6.144   1.467 -1.5222  4.2488  0.9689
   66MOL0     H 8861   7.894   6.215   1.439  2.4190 -0.1378 -0.6755
   66MOL0     H 8862   7.619   6.159   1.436 -2.2442 -1.4747  0.2267
   66MOL0     H 8863   7.582   5.985   1.456 -2.7413  2.0210 -2.4537
   66MOL0     H 8864   7.625   6.193   1.675 -1.0605  1.0982 -1.1985
   66MOL0     H 8865   7.576   6.035   1.715 -0.6945  1.5605  1.0188
   66MOL0     H 8866   7.416   6.222   1.520 -1.5356 -0.1174 -1.1347
   66MOL0     H 8867   7.389   6.209   1.696 -1.3199  1.9778 -1.2961
   66MOL0     H 8868   7.336   5.958   1.676  2.3009 -1.5110 -0.8319
   66MOL0     H 8869   7.338   5.974   1.499  0.8619  1.6749 -1.5156
   66MOL0     H 8870   6.940   6.139   1.625  2.3206  0.8314 -0.6573
   66MOL0     H 8871   6.650   5.979   1.601 -1.3828 -0.3914  2.7431
   66MOL0     H 8872   6.653   6.024   1.771 -0.5087  1.7838  0.7730
   66MOL0     H 8873   6.725   6.128   1.642  2.2597 -0.5060 -1.9661
   66MOL0     H 8874   6.740   5.515   2.006 -0.3043  0.7702 -0.4979
   66MOL0     H 8875   6.565   5.349   2.054  0.1251  1.2737  0.5109
   66MOL0     H 8876   6.301   5.258   1.736  2.3484  0.9925  1.4482
   66MOL0     H 8877   6.384   5.103   1.709  0.7546  0.1475 -0.2147
   66MOL0     H 8878   6.264   5.009   1.893  2.0009 -0.2994 -3.9300
   66MOL0     H 8879   6.190   5.170   1.926  1.9595  0.6173  0.2574
   66MOL0     H 8880   6.071   4.974   1.757  2.1972 -1.7693 -1.4442
   66MOL0     H 8881   6.171   5.051   1.642 -0.8988 -0.3166 -0.1099
   66MOL0     H 8882   5.977   5.227   1.806  0.4310 -1.6955  0.9621
   66MOL0     H 8883   6.058   5.273   1.659 -2.2758  0.7430 -1.1618
   66MOL0     H 8884   5.927   5.100   1.534  0.9976  0.6989  1.0715
   66MOL0     H 8885   5.830   5.234   1.605  1.5897  1.0352 -2.6035
   66MOL0     H 8886   5.716   5.006   1.610 -0.4862 -1.5135 -0.3998
   66MOL0     H 8887   5.869   4.961   1.711 -2.7468 -1.5532  2.1915
   66MOL0     H 8888   5.658   5.140   1.793 -1.5885 -0.9104 -1.0263
   66MOL0     H 8889   5.816   5.101   1.882  0.5455 -3.0641  0.6686
   66MOL0     H 8890   5.744   4.865   1.914  1.0215  0.4535  0.3188
   66MOL0     H 8891   5.606   4.898   1.803 -0.7556  1.2142 -1.1781
   66MOL0     H 8892   6.544   5.291   1.618  0.7511 -1.6955 -0.5321
   66MOL0     H 8893   6.709   5.448   1.597  1.1164 -0.2980  0.6045
   66MOL0     H 8894   7.028   5.671   1.739 -0.8838 -1.0401 -1.6741
   66MOL0     H 8895   7.205   5.805   1.684  1.3459  0.7801  1.9118
   66MOL0     H 8896   8.848   6.135   2.156  0.5497 -2.4767  2.7973
   66MOL0     H 8897   9.097   6.137   2.162  1.1352  1.5653 -2.3504
   66MOL0     H 8898   9.497   6.334   2.159  2.4177  1.0018 -0.2028
   66MOL0     H 8899   9.727   6.259   2.130 -0.1187  0.1754 -0.8969
   66MOL0     H 8900   9.937   6.138   2.122 -1.6782  1.4683 -0.1295
   66MOL0     H 8901   9.918   6.280   2.231  0.3259  0.6034  4.1866
   66MOL0     H 8902  10.093   6.055   2.298 -0.2045  0.3961  1.9141
   66MOL0     H 8903  10.088   6.214   2.366 -2.0598 -0.6688  0.7400
   66MOL0     H 8904  10.139   6.285   2.102 -2.9625  0.1538  0.8466
   66MOL0     H 8905  10.180   6.116   2.094 -3.6977 -0.8567  1.2728
   66MOL0     H 8906  10.297   6.294   2.313 -0.2835 -0.3605 -0.6275
   66MOL0     H 8907  10.366   6.315   2.148 -2.0665  1.3103 -1.1470
   66MOL0     H 8908  10.512   5.938   2.308 -0.5296 -1.9105 -0.9322
   66MOL0     H 8909   9.701   6.040   2.507 -2.7009 -2.6226  0.7950
   66MOL0     H 8910   9.471   6.102   2.535 -1.0503  0.7202  0.6847
   67MOL0     O 8911   5.903   2.912   2.062 -0.2730  0.1488 -0.7649
   67MOL0     C 8912   5.891   2.877   1.943 -0.2781  0.7271 -0.2545
   67MOL0     O 8913   5.780   2.867   1.877  1.1173 -0.1780  0.1556
   67MOL0     C 8914   5.679   2.956   1.910 -0.4091 -0.0472  0.0463
   67MOL0     C 8915   5.699   3.098   1.902  0.1227  0.5951 -0.7085
   67MOL0     C 8916   5.598   3.184   1.940  0.0574 -0.8757 -0.2930
   67MOL0     C 8917   5.463   3.136   1.972  0.4094 -0.7550 -0.1733
   67MOL0     O 8918   5.352   3.210   2.006 -0.3020  0.3514  0.7092
   67MOL0     C 8919   5.353   3.350   1.961 -0.3329 -0.6258  0.0928
   67MOL0     C 8920   5.214   3.404   1.958 -0.0299  0.0323  0.2313
   67MOL0     C 8921   5.155   3.420   2.098  0.3169 -0.0215 -0.1868
   67MOL0     C 8922   5.016   3.480   2.083 -0.4658  0.3389 -0.3691
   67MOL0     C 8923   4.908   3.376   2.047  0.2255  0.6884 -0.3317
   67MOL0     C 8924   4.771   3.437   2.044  0.1209 -0.4565  0.2350
   67MOL0     C 8925   4.671   3.325   2.036 -0.3705  0.3580  0.0444
   67MOL0     C 8926   4.524   3.365   2.016  0.1077  0.6903 -0.2369
   67MOL0     N 8927   4.488   3.465   2.115 -0.3292 -0.2020 -0.7815
   67MOL0     C 8928   4.482   3.599   2.095 -1.0122  1.0004 -0.3148
   67MOL0     C 8929   4.448   3.656   2.212  0.8624  0.0298 -1.7566
   67MOL0     C 8930   4.420   3.806   2.247 -0.1617 -0.2238  0.6115
   67MOL0     C 8931   4.273   3.840   2.247 -0.1203  0.3681  0.8478
   67MOL0     C 8932   4.242   3.965   2.313 -0.5581 -0.0364  0.5671
   67MOL0     C 8933   4.092   3.985   2.300  0.0576 -0.7474 -0.0633
   67MOL0     O 8934   4.010   3.879   2.367  0.5332 -0.2104  0.1951
   67MOL0     C 8935   3.879   3.898   2.375  0.0485 -1.0459  1.0700
   67MOL0     C 8936   3.803   3.995   2.301 -0.0793 -0.0048  0.0137
   67MOL0     C 8937   3.662   4.003   2.321  0.3728  0.5297  0.0275
   67MOL0     C 8938   3.586   4.107   2.240 -1.1947  0.4667  0.1145
   67MOL0     C 8939   3.593   3.913   2.414 -0.3328  0.2989  0.3905
   67MOL0     C 8940   3.450   3.906   2.439 -0.5443 -0.1764 -0.1505
   67MOL0     O 8941   3.410   3.803   2.513 -0.4393  0.3868 -0.4289
   67MOL0     C 8942   3.286   3.806   2.570  0.7743 -0.6465  0.5428
   67MOL0     C 8943   3.253   3.905   2.668  0.0794  0.6969 -0.5599
   67MOL0     C 8944   3.140   3.894   2.748  0.5094 -0.4057  0.3247
   67MOL0     C 8945   3.042   3.799   2.709  0.2744  0.4322 -0.1032
   67MOL0     O 8946   2.927   3.809   2.783 -0.3515 -0.0489  0.7022
   67MOL0     C 8947   2.812   3.728   2.769 -0.2750 -0.7276  0.5276
   67MOL0     C 8948   2.720   3.780   2.892 -0.0523  0.2709 -0.1561
   67MOL0     C 8949   2.595   3.690   2.914  0.4802  0.1668 -1.2349
   67MOL0     C 8950   2.470   3.761   2.861 -0.4084 -0.1130 -0.2577
   67MOL0     C 8951   2.343   3.685   2.910 -0.0658  0.0347 -0.6783
   67MOL0     C 8952   2.223   3.750   2.882 -0.1338  1.0030  0.5070
   67MOL0     C 8953   2.098   3.657   2.909  0.2934  0.2379  0.4629
   67MOL0     C 8954   1.963   3.728   2.888  0.4009 -0.6214 -0.2598
   67MOL0    Cl 8955   1.819   3.617   2.928  0.0177  0.1364  0.0481
   67MOL0     C 8956   3.068   3.704   2.604  0.4033 -0.5662 -0.0741
   67MOL0     C 8957   3.193   3.703   2.540  0.2346 -0.9600  0.6080
   67MOL0     O 8958   3.379   3.990   2.388  0.2702 -0.5952  0.3058
   67MOL0     C 8959   3.678   3.822   2.476 -0.5177 -0.0481  0.2012
   67MOL0     C 8960   3.814   3.821   2.454  0.2937  0.6706 -0.1150
   67MOL0     N 8961   4.436   3.556   2.303  0.9352  0.0187  0.6353
   67MOL0     N 8962   4.445   3.440   2.240 -0.0555 -0.1472 -0.7145
   67MOL0     C 8963   5.448   2.994   1.969  0.5412 -1.1560 -0.6653
   67MOL0     C 8964   5.555   2.906   1.947  0.0805  0.4064 -0.0489
   67MOL0     C 8965   6.020   2.836   1.871 -0.1555  0.3294 -0.2213
   67MOL0     C 8966   6.014   2.797   1.735  0.2800 -0.3125 -0.1114
   67MOL0     C 8967   6.127   2.768   1.661 -0.6886  0.0629 -0.4872
   67MOL0     C 8968   6.253   2.772   1.723  0.4599 -0.6930  0.3539
   67MOL0     O 8969   6.367   2.734   1.655  0.3961  0.7432  0.4419
   67MOL0     C 8970   6.477   2.684   1.720 -0.1907  0.0714 -0.8555
   67MOL0     C 8971   6.582   2.794   1.727  0.1976 -0.3152  0.3105
   67MOL0     C 8972   6.690   2.786   1.833 -0.3205 -0.0776  0.3480
   67MOL0     C 8973   6.755   2.648   1.837  0.1827 -0.0520 -0.1271
   67MOL0     C 8974   6.825   2.611   1.716  0.3757  0.3825 -0.5021
   67MOL0     C 8975   6.889   2.579   1.614  0.1329  0.7422  0.9191
   67MOL0     C 8976   6.265   2.829   1.858  0.0414 -0.0738  0.4962
   67MOL0     C 8977   6.152   2.858   1.933 -0.0968  0.1397  0.1703
   67MOL0     H 8978   5.799   3.130   1.872 -0.1225  0.5600 -1.5640
   67MOL0     H 8979   5.633   3.286   1.947  3.0943 -1.8043 -0.6399
   67MOL0     H 8980   5.423   3.402   2.027 -0.0211 -2.1432  1.0081
   67MOL0     H 8981   5.386   3.350   1.856 -1.8737  1.8858 -0.4822
   67MOL0     H 8982   5.215   3.501   1.906 -1.0562  0.0690  0.2720
   67MOL0     H 8983   5.147   3.345   1.895  1.4374 -1.2073 -0.2279
   67MOL0     H 8984   5.159   3.324   2.151  1.3369  1.2497  2.2188
   67MOL0     H 8985   5.222   3.490   2.149 -1.1786  1.1997  0.1790
   67MOL0     H 8986   4.990   3.521   2.181  0.7133  0.6810 -0.1851
   67MOL0     H 8987   5.020   3.551   2.000  1.0407  0.9411  0.1810
   67MOL0     H 8988   4.924   3.351   1.941 -2.1794  1.6511 -0.9926
   67MOL0     H 8989   4.916   3.294   2.118  0.0075 -1.9496 -3.1610
   67MOL0     H 8990   4.756   3.493   2.137 -0.9275 -0.3132 -0.0107
   67MOL0     H 8991   4.748   3.505   1.962  0.0650 -1.2244 -0.4014
   67MOL0     H 8992   4.706   3.252   1.962  0.0894 -0.0622  0.6660
   67MOL0     H 8993   4.688   3.279   2.133 -1.3163  0.2599  0.1735
   67MOL0     H 8994   4.467   3.273   2.027  3.6952 -1.7113  0.0030
   67MOL0     H 8995   4.499   3.400   1.916 -0.5899 -0.6804 -0.5608
   67MOL0     H 8996   4.506   3.646   2.000  1.1668 -0.5132 -0.6061
   67MOL0     H 8997   4.451   3.815   2.351  2.8340 -0.2341 -0.1725
   67MOL0     H 8998   4.478   3.878   2.188 -2.0655  0.0227 -1.0856
   67MOL0     H 8999   4.220   3.760   2.299  1.4986 -1.3969 -0.0951
   67MOL0     H 9000   4.245   3.831   2.142 -1.3912  1.4595  1.0662
   67MOL0     H 9001   4.294   4.045   2.259 -2.4780  2.4260  2.1114
   67MOL0     H 9002   4.264   3.975   2.419 -2.0571 -1.1470  1.0155
   67MOL0     H 9003   4.072   3.986   2.192  2.0774  0.4788 -0.4656
   67MOL0     H 9004   4.064   4.080   2.347  0.5311 -0.6957  0.1113
   67MOL0     H 9005   3.844   4.067   2.231  0.3493 -1.2606 -1.0561
   67MOL0     H 9006   3.559   4.198   2.294  5.6537  3.9538 -1.1869
   67MOL0     H 9007   3.652   4.147   2.162 -0.0253  0.4199  1.0426
   67MOL0     H 9008   3.498   4.059   2.197  0.7927 -2.8967 -0.5583
   67MOL0     H 9009   3.332   3.967   2.708  1.0624 -1.6544  1.4276
   67MOL0     H 9010   3.123   3.965   2.828 -0.3519  0.8664 -0.9253
   67MOL0     H 9011   2.756   3.748   2.678  2.0077  0.4518 -0.7217
   67MOL0     H 9012   2.827   3.622   2.790 -1.5909 -0.4277  3.5437
   67MOL0     H 9013   2.777   3.774   2.986 -1.2856 -4.0911  0.5363
   67MOL0     H 9014   2.686   3.883   2.882 -1.1193 -0.1456 -0.9168
   67MOL0     H 9015   2.581   3.681   3.022 -1.0505  1.9244 -1.2423
   67MOL0     H 9016   2.604   3.592   2.867  1.0392 -0.8771  0.9096
   67MOL0     H 9017   2.464   3.861   2.906  1.4698  1.1120 -2.4948
   67MOL0     H 9018   2.477   3.784   2.754 -2.1553  3.2457  0.2175
   67MOL0     H 9019   2.339   3.666   3.018 -3.1535 -4.1634 -1.2561
   67MOL0     H 9020   2.355   3.583   2.872  3.1789 -0.4251  1.1445
   67MOL0     H 9021   2.219   3.835   2.951  1.4392 -1.0909  3.4338
   67MOL0     H 9022   2.216   3.783   2.778 -0.2475 -0.9091 -0.1292
   67MOL0     H 9023   2.087   3.621   3.012 -2.6488  1.0391  0.5347
   67MOL0     H 9024   2.093   3.574   2.837 -2.7571  0.7446 -0.0616
   67MOL0     H 9025   1.960   3.738   2.780  1.2592 -0.0345 -0.2379
   67MOL0     H 9026   1.968   3.822   2.944 -1.3284 -2.0705  2.5810
   67MOL0     H 9027   3.000   3.625   2.575 -0.8122 -0.8725  3.1839
   67MOL0     H 9028   3.212   3.631   2.461  1.4957 -0.6090  0.5700
   67MOL0     H 9029   3.650   3.744   2.547 -3.1375 -0.7844 -1.4942
   67MOL0     H 9030   3.870   3.744   2.506  0.4099 -0.7378 -2.2220
   67MOL0     H 9031   5.344   2.975   1.996 -0.2662  1.2883 -1.6777
   67MOL0     H 9032   5.544   2.798   1.935  0.7670  0.3819 -0.5221
   67MOL0     H 9033   5.920   2.797   1.682 -0.0164  0.3227  0.4083
   67MOL0     H 9034   6.121   2.740   1.556  0.3693 -0.7941 -0.3425
   67MOL0     H 9035   6.464   2.649   1.823  1.2059 -4.3810 -1.9525
   67MOL0     H 9036   6.515   2.597   1.664  3.9423  1.2854 -0.3100
   67MOL0     H 9037   6.529   2.890   1.726  0.4628 -0.1536 -1.9571
   67MOL0     H 9038   6.632   2.790   1.630  1.2495 -3.0296  0.8681
   67MOL0     H 9039   6.653   2.830   1.925  0.0998  3.4310 -1.0184
   67MOL0     H 9040   6.762   2.862   1.800 -1.0531  0.4900  0.0351
   67MOL0     H 9041   6.677   2.575   1.861  0.1306 -0.6680 -1.9834
   67MOL0     H 9042   6.840   2.654   1.906  1.5484  0.7204 -1.7889
   67MOL0     H 9043   6.939   2.552   1.523 -0.9483  0.9203  0.2505
   67MOL0     H 9044   6.361   2.860   1.899  0.2568  0.4806 -0.4180
   67MOL0     H 9045   6.158   2.900   2.033 -1.4075  0.3765  0.1674
   68MOL0     O 9046   3.631   7.787   0.712  0.0999 -0.7168  0.1469
   68MOL0     C 9047   3.625   7.708   0.619 -0.4800  0.5151  0.0866
   68MOL0     O 9048   3.521   7.629   0.581  0.0188 -0.8362  0.6424
   68MOL0     C 9049   3.407   7.647   0.650  0.6165  0.0718  0.1438
   68MOL0     C 9050   3.344   7.771   0.673 -0.0936  0.2959  0.3458
   68MOL0     C 9051   3.219   7.780   0.747 -1.2130 -0.5280  0.4210
   68MOL0     C 9052   3.170   7.668   0.814 -0.4374 -0.1149  0.1227
   68MOL0     O 9053   3.056   7.687   0.888 -0.4727 -0.0321 -0.1386
   68MOL0     C 9054   3.022   7.588   0.990 -0.6320  0.1751  0.4385
   68MOL0     C 9055   2.932   7.657   1.095  0.1977 -0.4091 -0.3424
   68MOL0     C 9056   2.796   7.694   1.040 -0.0009 -0.5654  0.1331
   68MOL0     C 9057   2.718   7.573   0.981  0.3387 -0.5332 -0.1582
   68MOL0     C 9058   2.574   7.602   0.973 -0.9525 -0.0189  0.1915
   68MOL0     C 9059   2.485   7.479   0.943  0.3822 -1.0563  0.3165
   68MOL0     C 9060   2.344   7.516   0.886 -0.2854 -0.4554 -0.4652
   68MOL0     C 9061   2.263   7.606   0.981  0.0901  0.1610 -1.0837
   68MOL0     N 9062   2.119   7.623   0.952  0.1564  0.2903 -0.5568
   68MOL0     C 9063   2.063   7.610   0.828  0.7392  0.1945 -0.2370
   68MOL0     C 9064   1.941   7.672   0.837 -0.7441  0.6374 -0.2743
   68MOL0     C 9065   1.851   7.658   0.720 -0.3562 -0.1377 -0.4130
   68MOL0     C 9066   1.740   7.769   0.714 -0.3367  0.2806 -0.1059
   68MOL0     C 9067   1.624   7.734   0.800 -0.3225  0.2023 -0.0617
   68MOL0     C 9068   1.489   7.803   0.757 -0.1886 -0.4888  0.4335
   68MOL0     O 9069   1.396   7.794   0.872  0.2307  0.3383  0.3206
   68MOL0     C 9070   1.263   7.793   0.844 -0.1244 -0.4926  0.6708
   68MOL0     C 9071   1.213   7.891   0.755  0.0806  0.2712  0.8230
   68MOL0     C 9072   1.078   7.887   0.725  0.6354  0.4703  0.4804
   68MOL0     C 9073   1.035   8.001   0.638 -0.2525 -0.8284  0.9811
   68MOL0     C 9074   0.995   7.784   0.781  0.5617  0.1729  0.6511
   68MOL0     C 9075   0.840   7.774   0.733  0.4378  0.0869 -0.6157
   68MOL0     O 9076   0.765   7.697   0.805 -0.1115  0.3995 -0.2723
   68MOL0     C 9077   0.631   7.677   0.779  1.0007  0.0863  0.0682
   68MOL0     C 9078   0.585   7.546   0.791  0.2597 -0.1129 -0.3183
   68MOL0     C 9079   0.453   7.510   0.777  0.0404 -0.4499  0.0379
   68MOL0     C 9080   0.353   7.604   0.752  0.0562 -0.0991 -0.5057
   68MOL0     O 9081   0.228   7.553   0.737  0.0526 -0.2968 -0.1699
   68MOL0     C 9082   0.121   7.627   0.802  0.1309 -1.0206  0.3290
   68MOL0     C 9083  -0.017   7.578   0.768  0.1344 -0.0090  0.0947
   68MOL0     C 9084  -0.132   7.661   0.833  1.0494 -0.0155 -0.5613
   68MOL0     C 9085  -0.273   7.613   0.778  0.5259  0.1025  0.4123
   68MOL0     C 9086  -0.387   7.642   0.872  0.1412  0.2044 -0.2721
   68MOL0     C 9087  -0.516   7.579   0.821 -0.5168 -0.1222  0.3852
   68MOL0     C 9088  -0.635   7.616   0.905  0.1036  0.3347 -0.1335
   68MOL0     C 9089  -0.768   7.562   0.849  0.1120  0.8470 -0.0705
   68MOL0    Cl 9090  -0.913   7.611   0.946  0.1101 -0.5104  0.0253
   68MOL0     C 9091   0.389   7.740   0.750 -0.7140 -0.5745 -0.0143
   68MOL0     C 9092   0.530   7.776   0.766  0.1107  0.0456 -0.4906
   68MOL0     O 9093   0.798   7.843   0.647  0.8784  0.5731 -0.0917
   68MOL0     C 9094   1.051   7.680   0.850  0.5084  0.2888  0.2800
   68MOL0     C 9095   1.184   7.691   0.887  0.0161 -0.0920 -0.6419
   68MOL0     N 9096   1.925   7.730   0.961  0.1907  0.6037  0.5328
   68MOL0     N 9097   2.029   7.689   1.032 -0.9921 -0.0333  0.2676
   68MOL0     C 9098   3.240   7.547   0.800 -0.3390 -0.2660  0.6089
   68MOL0     C 9099   3.352   7.533   0.710  0.7889  0.1240  0.6470
   68MOL0     C 9100   3.756   7.661   0.565 -0.0760  0.2221  0.5625
   68MOL0     C 9101   3.763   7.579   0.446  0.0383  0.6997  0.4285
   68MOL0     C 9102   3.882   7.534   0.395  0.3411  0.4230  0.7078
   68MOL0     C 9103   4.001   7.561   0.453  0.2846  0.5319  0.4450
   68MOL0     O 9104   4.114   7.506   0.391 -0.7810 -0.3797 -0.2230
   68MOL0     C 9105   4.240   7.554   0.447 -0.2674  0.2225 -0.1359
   68MOL0     C 9106   4.356   7.470   0.384 -0.4952  0.0012  1.0382
   68MOL0     C 9107   4.350   7.459   0.223 -0.8059 -0.4662  0.2764
   68MOL0     C 9108   4.472   7.384   0.167  0.3264  0.2957 -0.4297
   68MOL0     C 9109   4.473   7.372   0.019  0.1153  0.3306 -0.2901
   68MOL0     C 9110   4.450   7.358  -0.103  1.1370 -0.3404 -0.4136
   68MOL0     C 9111   3.997   7.653   0.561 -0.3418 -0.8812 -0.0333
   68MOL0     C 9112   3.884   7.699   0.623 -0.1374  0.3569 -0.2121
   68MOL0     H 9113   3.384   7.866   0.638  0.3854 -0.1369 -0.3152
   68MOL0     H 9114   3.161   7.871   0.761 -1.2261 -0.3885 -0.4985
   68MOL0     H 9115   2.980   7.499   0.944  1.8799 -1.1292  0.4571
   68MOL0     H 9116   3.113   7.552   1.039  0.7540  3.7497  0.8063
   68MOL0     H 9117   2.932   7.607   1.193  4.4513  4.0012  2.4062
   68MOL0     H 9118   2.974   7.754   1.123 -2.2467  1.1647 -1.8120
   68MOL0     H 9119   2.737   7.745   1.117 -0.1237 -1.4629  0.6337
   68MOL0     H 9120   2.807   7.771   0.962  1.2801  1.1038  1.8627
   68MOL0     H 9121   2.749   7.543   0.880  1.2018 -0.5642  0.1071
   68MOL0     H 9122   2.736   7.489   1.049  1.0489  1.1067  1.7723
   68MOL0     H 9123   2.546   7.629   1.075 -0.9478 -1.0355  0.4766
   68MOL0     H 9124   2.551   7.676   0.896 -3.6349 -2.6404 -1.7660
   68MOL0     H 9125   2.531   7.413   0.869  1.8266  1.6634 -1.3798
   68MOL0     H 9126   2.476   7.427   1.039 -0.8408  4.7825  3.8241
   68MOL0     H 9127   2.350   7.549   0.782  0.2935  0.0160 -0.2855
   68MOL0     H 9128   2.281   7.426   0.881 -0.8529 -0.1545  0.8473
   68MOL0     H 9129   2.315   7.702   0.972  1.2376 -0.5503 -2.7214
   68MOL0     H 9130   2.264   7.564   1.081 -2.9217 -0.2828 -1.1638
   68MOL0     H 9131   2.101   7.544   0.751  0.5205 -0.1753 -0.0371
   68MOL0     H 9132   1.921   7.672   0.637 -0.7279  1.3364 -0.4975
   68MOL0     H 9133   1.808   7.557   0.718  0.4220 -0.5108  0.9879
   68MOL0     H 9134   1.702   7.781   0.612 -2.7989  0.5395  0.7835
   68MOL0     H 9135   1.778   7.861   0.758  0.2587 -0.7919  1.7600
   68MOL0     H 9136   1.655   7.773   0.897  0.2559  1.1939 -0.6320
   68MOL0     H 9137   1.599   7.627   0.802  0.2542 -0.0184 -2.2883
   68MOL0     H 9138   1.455   7.757   0.664  2.0105  1.6244 -1.5762
   68MOL0     H 9139   1.511   7.906   0.730 -0.3654 -0.7317 -0.6751
   68MOL0     H 9140   1.275   7.977   0.728  2.4610 -1.1428  1.5152
   68MOL0     H 9141   1.110   8.080   0.640 -1.5370  0.4170  1.9156
   68MOL0     H 9142   1.042   7.972   0.533 -2.0599 -0.6146  0.7645
   68MOL0     H 9143   0.936   8.040   0.663 -0.0138  0.3096  0.2054
   68MOL0     H 9144   0.659   7.478   0.831  1.8318  2.2811  1.1184
   68MOL0     H 9145   0.450   7.403   0.792 -0.7366 -0.2359  1.6222
   68MOL0     H 9146   0.149   7.639   0.907  1.2406  2.2701 -0.2333
   68MOL0     H 9147   0.121   7.730   0.766 -1.2388 -1.1562 -0.1052
   68MOL0     H 9148  -0.030   7.571   0.660  1.3451 -1.8349  0.0098
   68MOL0     H 9149  -0.014   7.474   0.804 -0.4372 -0.1151 -0.1581
   68MOL0     H 9150  -0.121   7.769   0.820 -1.4821  0.3125 -0.5697
   68MOL0     H 9151  -0.145   7.653   0.941 -3.1292 -0.2619 -0.8936
   68MOL0     H 9152  -0.292   7.659   0.681 -2.1377 -1.7639 -0.0786
   68MOL0     H 9153  -0.267   7.507   0.751  1.5402  0.9025 -3.0156
   68MOL0     H 9154  -0.389   7.750   0.887  0.9091  0.0113  1.4446
   68MOL0     H 9155  -0.372   7.601   0.973 -1.5192  0.4282  0.1030
   68MOL0     H 9156  -0.527   7.615   0.718  0.9650  1.8844  0.8581
   68MOL0     H 9157  -0.499   7.471   0.829 -1.6870 -0.9940 -4.8979
   68MOL0     H 9158  -0.644   7.725   0.909 -2.7173  0.1839 -0.2621
   68MOL0     H 9159  -0.614   7.586   1.008 -0.4538 -1.8785 -0.6086
   68MOL0     H 9160  -0.765   7.453   0.839 -0.8332  0.9560 -2.1185
   68MOL0     H 9161  -0.770   7.600   0.746  2.0366  3.0706  0.6103
   68MOL0     H 9162   0.311   7.815   0.736 -1.6128 -1.7867 -1.9431
   68MOL0     H 9163   0.558   7.880   0.757  0.7150  0.1156  1.6387
   68MOL0     H 9164   0.993   7.594   0.881 -0.1693  0.2019 -1.1699
   68MOL0     H 9165   1.231   7.606   0.936 -0.3490  1.1674  2.0617
   68MOL0     H 9166   3.201   7.463   0.856 -1.8416  1.1017  1.6840
   68MOL0     H 9167   3.400   7.436   0.705 -2.0327 -1.3032 -1.7835
   68MOL0     H 9168   3.668   7.551   0.402 -0.8231  1.1574  1.9229
   68MOL0     H 9169   3.880   7.473   0.305 -0.2744  0.7476  0.4875
   68MOL0     H 9170   4.246   7.662   0.435 -0.6005  0.3013  0.3663
   68MOL0     H 9171   4.238   7.523   0.552  3.1237  0.0631 -0.0094
   68MOL0     H 9172   4.351   7.370   0.430 -5.9140 -0.6372 -0.1727
   68MOL0     H 9173   4.449   7.516   0.418 -1.0391 -0.5824  3.5633
   68MOL0     H 9174   4.359   7.560   0.181 -1.3752 -0.7376 -0.5171
   68MOL0     H 9175   4.261   7.414   0.179 -0.3231 -0.2438 -0.9813
   68MOL0     H 9176   4.469   7.289   0.221  0.9486  1.7522  2.3772
   68MOL0     H 9177   4.557   7.439   0.209  0.1458 -0.0169  0.3654
   68MOL0     H 9178   4.434   7.356  -0.209 -1.4863  1.5145 -0.1414
   68MOL0     H 9179   4.094   7.677   0.602  0.5538 -1.1830 -1.8496
   68MOL0     H 9180   3.892   7.755   0.715  0.5419 -1.0651  0.6347
   69MOL0     O 9181   4.325   3.610   3.935 -0.2037  0.4245 -0.2251
   69MOL0     C 9182   4.362   3.552   4.038  0.6927  0.1994 -1.0524
   69MOL0     O 9183   4.281   3.525   4.140 -0.2974 -0.1056 -0.1382
   69MOL0     C 9184   4.157   3.578   4.133  0.8918 -0.5057 -0.0739
   69MOL0     C 9185   4.125   3.687   4.211 -0.4456  0.5263  0.3493
   69MOL0     C 9186   3.998   3.730   4.232  0.3384 -0.4378 -0.3325
   69MOL0     C 9187   3.892   3.670   4.168  1.3420 -0.9423  0.2215
   69MOL0     O 9188   3.762   3.722   4.174  0.1322  0.1702 -0.1174
   69MOL0     C 9189   3.649   3.633   4.155 -0.2800 -0.6280  0.0441
   69MOL0     C 9190   3.516   3.681   4.221 -0.2748  0.3285 -1.0557
   69MOL0     C 9191   3.540   3.713   4.375  0.2614  0.8217 -0.3812
   69MOL0     C 9192   3.458   3.618   4.469  0.2437  0.3742 -0.9703
   69MOL0     C 9193   3.501   3.466   4.445  0.4272  0.0049  0.3471
   69MOL0     C 9194   3.637   3.447   4.499 -0.3278  0.0918 -0.0202
   69MOL0     C 9195   3.682   3.303   4.490 -1.0801 -0.7764  0.4200
   69MOL0     C 9196   3.832   3.298   4.535 -0.0706  0.6167  0.9220
   69MOL0     N 9197   3.881   3.161   4.556  0.0506  0.9315  0.0615
   69MOL0     C 9198   3.934   3.083   4.455  0.3282  0.6715 -0.3028
   69MOL0     C 9199   4.019   2.997   4.512 -0.9004 -0.0765  0.6176
   69MOL0     C 9200   4.123   2.912   4.431  0.9948 -0.6624 -0.5978
   69MOL0     C 9201   4.085   2.757   4.409 -0.0585  0.9193  0.0951
   69MOL0     C 9202   4.073   2.678   4.548  0.4093 -0.9038 -0.1469
   69MOL0     C 9203   4.201   2.661   4.638  0.0489 -0.9278  0.0006
   69MOL0     O 9204   4.177   2.554   4.733 -0.2409  0.0068 -0.3290
   69MOL0     C 9205   4.094   2.578   4.839  0.9436 -0.3167  0.8652
   69MOL0     C 9206   4.005   2.478   4.873 -0.3738  0.6478  0.2401
   69MOL0     C 9207   3.894   2.501   4.951  0.3540  0.5745 -0.3174
   69MOL0     C 9208   3.795   2.383   4.979  0.1212  0.1809 -0.3789
   69MOL0     C 9209   3.856   2.641   4.993  1.0774  0.6646  0.3079
   69MOL0     C 9210   3.720   2.687   5.042 -1.0730  1.4333 -0.4222
   69MOL0     O 9211   3.698   2.812   5.073  0.5704 -0.1166 -0.0431
   69MOL0     C 9212   3.573   2.861   5.109  0.2538 -0.1938  0.5957
   69MOL0     C 9213   3.581   3.000   5.129  0.6793  0.3082 -0.3050
   69MOL0     C 9214   3.472   3.074   5.159  0.9031  0.4210  1.2114
   69MOL0     C 9215   3.344   3.008   5.173 -0.5546 -0.2628  0.5437
   69MOL0     O 9216   3.242   3.089   5.202 -0.7075 -0.0222 -0.2000
   69MOL0     C 9217   3.158   3.053   5.312  0.3233 -0.3535  0.2181
   69MOL0     C 9218   3.084   3.178   5.374  0.2768 -0.3192 -0.5725
   69MOL0     C 9219   3.012   3.146   5.508  0.7450 -0.2783 -0.4357
   69MOL0     C 9220   2.915   3.266   5.545 -0.2205 -0.0164 -0.1822
   69MOL0     C 9221   2.827   3.234   5.669  0.0195  1.0746 -0.6839
   69MOL0     C 9222   2.709   3.339   5.683  0.5491  0.1167  0.8350
   69MOL0     C 9223   2.751   3.475   5.743 -0.1702  0.3237  0.1815
   69MOL0     C 9224   2.648   3.532   5.836  0.7821 -0.5498 -0.6683
   69MOL0    Cl 9225   2.492   3.543   5.742  0.2290 -0.1868  0.0508
   69MOL0     C 9226   3.332   2.869   5.149 -0.2218 -0.8343  0.4255
   69MOL0     C 9227   3.448   2.795   5.125  0.3132  0.4304 -0.4490
   69MOL0     O 9228   3.657   2.592   5.092 -0.2191  0.1651  0.5827
   69MOL0     C 9229   3.959   2.731   4.983 -0.6798  0.3464 -0.1923
   69MOL0     C 9230   4.079   2.703   4.910  0.2447  0.0345  0.2323
   69MOL0     N 9231   4.010   3.020   4.654  0.5698  0.4127  0.5591
   69MOL0     N 9232   3.925   3.110   4.672 -0.8784 -0.1056 -0.7932
   69MOL0     C 9233   3.920   3.560   4.077  0.2613 -0.3203  0.3009
   69MOL0     C 9234   4.055   3.507   4.064  0.2988  0.3693 -0.3343
   69MOL0     C 9235   4.506   3.514   4.054  0.9760  0.4721 -0.1005
   69MOL0     C 9236   4.592   3.500   3.936 -0.8380 -0.4685 -0.6611
   69MOL0     C 9237   4.723   3.449   3.953 -0.7920  0.0644  0.5574
   69MOL0     C 9238   4.776   3.407   4.078 -1.2510 -0.5775  0.3220
   69MOL0     O 9239   4.897   3.341   4.099  0.8465  0.9199  0.0849
   69MOL0     C 9240   5.001   3.368   4.007 -0.7392  0.7360 -0.0308
   69MOL0     C 9241   5.116   3.429   4.087 -0.8366  0.0311 -0.0252
   69MOL0     C 9242   5.222   3.478   3.989 -0.6407 -0.2214 -0.8770
   69MOL0     C 9243   5.321   3.572   4.072 -0.4295  0.1024 -0.3676
   69MOL0     C 9244   5.453   3.578   4.017 -0.2362 -0.0453 -0.0572
   69MOL0     C 9245   5.561   3.560   3.968 -0.1653 -0.3711  0.9133
   69MOL0     C 9246   4.702   3.431   4.193  0.2517 -0.0219  0.0113
   69MOL0     C 9247   4.569   3.480   4.181  0.3994  0.0767  0.4628
   69MOL0     H 9248   4.202   3.737   4.268 -1.1144 -0.2072  1.9697
   69MOL0     H 9249   3.982   3.812   4.302  2.3038  0.1001 -0.4592
   69MOL0     H 9250   3.627   3.617   4.049 -2.3202  0.0567  0.3143
   69MOL0     H 9251   3.658   3.533   4.199  0.2673 -1.3626 -1.6393
   69MOL0     H 9252   3.485   3.771   4.166 -0.8150 -0.3076 -1.8033
   69MOL0     H 9253   3.431   3.613   4.219 -0.4566  0.5466 -0.7471
   69MOL0     H 9254   3.641   3.692   4.409 -0.5669 -2.0832  0.5987
   69MOL0     H 9255   3.498   3.814   4.387 -0.7803  0.4794 -1.0474
   69MOL0     H 9256   3.468   3.640   4.576  3.9269 -2.9115 -0.3853
   69MOL0     H 9257   3.353   3.629   4.441  0.1432  0.0951 -0.7120
   69MOL0     H 9258   3.434   3.396   4.496  0.0981 -1.2590 -1.7321
   69MOL0     H 9259   3.494   3.437   4.340 -2.5978 -1.8949  0.9658
   69MOL0     H 9260   3.712   3.509   4.448 -0.0836  1.3203  1.7371
   69MOL0     H 9261   3.635   3.471   4.605  0.8845 -1.6930  0.4453
   69MOL0     H 9262   3.619   3.243   4.556  1.4403 -2.1693  1.6962
   69MOL0     H 9263   3.670   3.261   4.389 -1.0009  0.7613 -0.2571
   69MOL0     H 9264   3.831   3.350   4.632 -1.6470  3.8907 -0.6758
   69MOL0     H 9265   3.907   3.344   4.470  1.6846 -1.7634  1.1597
   69MOL0     H 9266   3.907   3.094   4.351 -0.7622 -1.1385 -0.2501
   69MOL0     H 9267   4.118   2.949   4.328 -0.2565  1.0385  0.0247
   69MOL0     H 9268   4.229   2.912   4.460  0.7354 -2.3253  0.4999
   69MOL0     H 9269   4.163   2.702   4.355  0.5117 -0.1892  1.9504
   69MOL0     H 9270   3.986   2.745   4.364  0.7550 -4.2259 -0.9778
   69MOL0     H 9271   4.040   2.576   4.525  0.3314 -1.0071  0.4187
   69MOL0     H 9272   3.989   2.727   4.599  0.0969  0.8497 -2.1939
   69MOL0     H 9273   4.228   2.759   4.678 -2.6885  0.0739 -0.3882
   69MOL0     H 9274   4.275   2.630   4.564  1.6100 -1.4252  1.7045
   69MOL0     H 9275   4.026   2.384   4.823  1.0046  0.3015  1.3880
   69MOL0     H 9276   3.771   2.371   5.085  0.2509 -0.1237 -0.3819
   69MOL0     H 9277   3.704   2.403   4.922 -0.2056  0.1204  0.1158
   69MOL0     H 9278   3.824   2.284   4.942 -1.4118  0.1997 -1.7011
   69MOL0     H 9279   3.677   3.049   5.112 -0.2043  2.0326 -0.5008
   69MOL0     H 9280   3.477   3.182   5.167 -1.5701  0.6998  0.1095
   69MOL0     H 9281   3.087   2.973   5.291 -0.7468  1.0228 -1.7188
   69MOL0     H 9282   3.225   3.026   5.395  0.5625  0.0449  0.1592
   69MOL0     H 9283   3.160   3.251   5.403  1.1884 -2.3989  2.8525
   69MOL0     H 9284   3.005   3.208   5.304 -2.3022 -1.0982  1.8303
   69MOL0     H 9285   3.086   3.129   5.586  0.9304  2.1146  0.0093
   69MOL0     H 9286   2.954   3.054   5.513  3.2230 -1.8354  1.3229
   69MOL0     H 9287   2.978   3.350   5.574 -0.3195 -0.3494  1.0846
   69MOL0     H 9288   2.852   3.302   5.463 -0.3647  1.7773  0.6800
   69MOL0     H 9289   2.890   3.238   5.758  0.3982 -0.4134 -0.8641
   69MOL0     H 9290   2.781   3.135   5.672  0.8975  0.6098 -1.8976
   69MOL0     H 9291   2.664   3.349   5.584  0.7707  1.0733  0.8135
   69MOL0     H 9292   2.634   3.296   5.751 -1.3589  2.6786  0.5013
   69MOL0     H 9293   2.777   3.546   5.665  0.3460  0.8002  0.7855
   69MOL0     H 9294   2.843   3.454   5.797  1.2458  1.1861 -1.7756
   69MOL0     H 9295   2.684   3.632   5.863 -0.5830 -0.2751  0.2085
   69MOL0     H 9296   2.628   3.470   5.924  0.5076  1.9106  1.0882
   69MOL0     H 9297   3.236   2.819   5.141 -2.5033  3.3853 -3.0034
   69MOL0     H 9298   3.424   2.689   5.119 -3.3288  1.1762 -2.1888
   69MOL0     H 9299   3.952   2.830   5.028 -2.2830  0.1913 -0.0568
   69MOL0     H 9300   4.163   2.771   4.896  2.9192 -3.0224  0.4469
   69MOL0     H 9301   3.840   3.513   4.022  0.6834 -0.8173  0.1043
   69MOL0     H 9302   4.071   3.414   4.009  0.9846 -0.1345  0.6936
   69MOL0     H 9303   4.554   3.529   3.839 -0.6909  5.3075  0.6733
   69MOL0     H 9304   4.779   3.430   3.861  1.1007  0.7996  1.4992
   69MOL0     H 9305   5.043   3.278   3.962  2.9101  2.6992 -0.9812
   69MOL0     H 9306   4.978   3.443   3.931 -1.7309 -0.6433 -1.1243
   69MOL0     H 9307   5.150   3.343   4.146  0.4622 -1.4555 -2.7451
   69MOL0     H 9308   5.067   3.504   4.150 -1.6413  0.9247 -1.6605
   69MOL0     H 9309   5.174   3.534   3.908  0.8838  2.5357 -0.0268
   69MOL0     H 9310   5.275   3.394   3.942 -3.8868 -1.1341 -3.2176
   69MOL0     H 9311   5.336   3.533   4.173  1.3458  0.4428 -0.4683
   69MOL0     H 9312   5.275   3.669   4.091 -0.9796 -0.1691 -0.2977
   69MOL0     H 9313   5.658   3.548   3.924 -0.1685  1.5391  0.2802
   69MOL0     H 9314   4.754   3.415   4.287 -1.2792 -1.7937  0.6181
   69MOL0     H 9315   4.519   3.507   4.274  0.0881  2.6301 -0.3736
   70MOL0     O 9316   8.455   3.814  10.459  0.0547 -0.0522 -0.1946
   70MOL0     C 9317   8.490   3.930  10.433 -0.3038 -0.3366 -0.2662
   70MOL0     O 9318   8.620   3.963  10.392 -0.0484  0.0956 -0.2020
   70MOL0     C 9319   8.722   3.874  10.422  0.6790  0.4880 -0.3289
   70MOL0     C 9320   8.814   3.901  10.525  0.1704 -0.4761 -0.5177
   70MOL0     C 9321   8.926   3.819  10.543 -0.8908 -0.2110  0.0489
   70MOL0     C 9322   8.957   3.715  10.450 -0.4472 -0.5736  0.2393
   70MOL0     O 9323   9.072   3.646  10.441  0.4684 -0.2398 -0.5410
   70MOL0     C 9324   9.183   3.737  10.440 -1.0615  0.5215 -0.6605
   70MOL0     C 9325   9.257   3.753  10.569  0.0837  0.6030 -0.0675
   70MOL0     C 9326   9.325   3.630  10.617 -0.3523 -0.2976  0.2280
   70MOL0     C 9327   9.390   3.632  10.758  0.4290  0.0954  0.2731
   70MOL0     C 9328   9.449   3.492  10.802  0.2047  0.1649  0.8821
   70MOL0     C 9329   9.503   3.478  10.940 -0.2486  0.6170 -0.0771
   70MOL0     C 9330   9.625   3.561  10.977  0.7471  0.4892 -0.0152
   70MOL0     C 9331   9.760   3.510  10.926 -0.9218  0.3456  0.4165
   70MOL0     N 9332   9.875   3.556  11.006 -0.8187 -0.1496  0.1625
   70MOL0     C 9333   9.919   3.503  11.125 -0.2150  0.1574 -0.1523
   70MOL0     C 9334  10.034   3.564  11.162 -0.0157 -0.5528  0.6700
   70MOL0     C 9335  10.113   3.566  11.301  0.5571 -0.0038 -0.1306
   70MOL0     C 9336  10.256   3.610  11.279  0.1190 -0.6571 -0.2491
   70MOL0     C 9337  10.345   3.604  11.403 -0.4159  0.0259 -0.3350
   70MOL0     C 9338  10.282   3.655  11.531  0.6460 -0.3813  0.1439
   70MOL0     O 9339  10.209   3.549  11.596  0.9574 -0.0038  0.4447
   70MOL0     C 9340  10.111   3.584  11.684  0.0474 -0.7301 -0.2102
   70MOL0     C 9341  10.085   3.715  11.735 -0.4948  0.1716  0.1132
   70MOL0     C 9342   9.989   3.731  11.833 -0.1202 -0.3896 -0.0985
   70MOL0     C 9343   9.966   3.873  11.885  0.3039  0.5254  0.2426
   70MOL0     C 9344   9.906   3.628  11.876 -0.3931  0.4667  0.5205
   70MOL0     C 9345   9.783   3.637  11.961 -0.0489 -0.7634 -0.4030
   70MOL0     O 9346   9.737   3.528  12.032 -0.7895 -0.4186  0.5102
   70MOL0     C 9347   9.613   3.539  12.096  0.1620 -0.6324  0.3648
   70MOL0     C 9348   9.500   3.581  12.030 -0.2313 -0.1133  0.7581
   70MOL0     C 9349   9.376   3.592  12.090  0.0966  0.8486  0.8287
   70MOL0     C 9350   9.364   3.558  12.225  0.5934 -0.0021 -0.2318
   70MOL0     O 9351   9.244   3.556  12.291  0.4079  1.0181 -0.1123
   70MOL0     C 9352   9.119   3.544  12.212  0.1954  0.3933  0.9613
   70MOL0     C 9353   9.096   3.418  12.133  0.2057  0.4718  0.4637
   70MOL0     C 9354   9.012   3.440  12.010  0.0839  0.2747 -0.3714
   70MOL0     C 9355   9.083   3.506  11.897  0.1372 -0.0660  0.7151
   70MOL0     C 9356   8.999   3.480  11.769 -0.4264  0.0554 -0.2106
   70MOL0     C 9357   9.067   3.537  11.638 -0.4152 -0.0533 -0.2227
   70MOL0     C 9358   9.117   3.684  11.648 -0.3416  0.2577 -0.4778
   70MOL0     C 9359   9.194   3.734  11.525  0.9702  0.5611  0.0444
   70MOL0    Cl 9360   9.076   3.715  11.388  0.0089 -0.5456  0.0397
   70MOL0     C 9361   9.477   3.507  12.293 -0.6343 -0.2569 -0.2633
   70MOL0     C 9362   9.605   3.497  12.228  0.2800  0.4565 -0.2426
   70MOL0     O 9363   9.731   3.749  11.958  0.3463 -0.7096  0.2994
   70MOL0     C 9364   9.934   3.494  11.827  0.2760 -0.5892 -1.1476
   70MOL0     C 9365  10.034   3.477  11.730  0.1650 -0.4707 -0.6899
   70MOL0     N 9366  10.045   3.669  11.062  0.3444 -1.3212 -0.1131
   70MOL0     N 9367   9.950   3.661  10.974  1.0177  0.3049  0.2018
   70MOL0     C 9368   8.866   3.688  10.357  0.5500  1.0292  0.2492
   70MOL0     C 9369   8.745   3.759  10.338  0.1411 -0.1160  0.0067
   70MOL0     C 9370   8.391   4.043  10.419 -0.0627 -0.6220 -0.6270
   70MOL0     C 9371   8.257   4.009  10.429  0.1347  0.0665  0.0473
   70MOL0     C 9372   8.163   4.103  10.399 -0.0771  0.0031  0.3115
   70MOL0     C 9373   8.197   4.237  10.393  0.7530  0.1801 -0.2469
   70MOL0     O 9374   8.099   4.336  10.373  0.5137 -0.1982 -0.0693
   70MOL0     C 9375   8.135   4.475  10.361  0.2106  0.0070  0.2266
   70MOL0     C 9376   8.007   4.553  10.361 -0.3126  0.9564 -0.0012
   70MOL0     C 9377   8.026   4.700  10.386 -0.3041  0.0043  0.4924
   70MOL0     C 9378   7.913   4.758  10.474 -0.0054 -0.6622 -0.2586
   70MOL0     C 9379   7.779   4.759  10.432  0.8334  0.5559 -0.4370
   70MOL0     C 9380   7.661   4.747  10.417  0.2768 -0.0575 -0.5181
   70MOL0     C 9381   8.335   4.275  10.404 -0.1367  0.5179  0.1693
   70MOL0     C 9382   8.432   4.176  10.424 -0.0760  0.1740  0.4733
   70MOL0     H 9383   8.797   3.992  10.582  1.2953  0.5271 -1.7161
   70MOL0     H 9384   9.000   3.847  10.618  0.1148  0.2873 -1.0993
   70MOL0     H 9385   9.258   3.700  10.370 -1.3514 -2.2624  0.3902
   70MOL0     H 9386   9.158   3.838  10.404 -1.9339  0.2125 -0.9449
   70MOL0     H 9387   9.322   3.841  10.565 -0.7011  1.2378  0.8293
   70MOL0     H 9388   9.178   3.773  10.642 -0.5105  2.1217 -1.0890
   70MOL0     H 9389   9.250   3.551  10.614 -1.5547  0.8200 -0.4367
   70MOL0     H 9390   9.412   3.608  10.554 -0.2596 -0.1465  0.3021
   70MOL0     H 9391   9.478   3.696  10.771  0.5728 -0.4260  2.3763
   70MOL0     H 9392   9.326   3.664  10.841  1.6758  1.6063  0.6968
   70MOL0     H 9393   9.362   3.426  10.795  1.1645 -0.9559 -1.4319
   70MOL0     H 9394   9.531   3.457  10.738  1.1704  0.7905  1.7425
   70MOL0     H 9395   9.422   3.499  11.011 -0.8827 -0.3403 -0.5013
   70MOL0     H 9396   9.520   3.375  10.973 -2.3192  0.3439  0.2512
   70MOL0     H 9397   9.620   3.668  10.954  1.5015  0.7125  0.7915
   70MOL0     H 9398   9.639   3.544  11.084  0.4774 -2.6225 -0.3732
   70MOL0     H 9399   9.782   3.526  10.820 -2.1270 -0.3165  0.0535
   70MOL0     H 9400   9.758   3.402  10.941 -0.4202  0.6397  3.3938
   70MOL0     H 9401   9.871   3.429  11.189  0.8207 -0.1394  0.2959
   70MOL0     H 9402  10.060   3.638  11.364 -3.1430  1.2189 -4.1536
   70MOL0     H 9403  10.107   3.465  11.344  1.6127 -0.2067 -0.4485
   70MOL0     H 9404  10.262   3.707  11.230 -2.2231 -0.0544  0.5297
   70MOL0     H 9405  10.306   3.545  11.207  0.8301 -0.9710  0.5111
   70MOL0     H 9406  10.438   3.658  11.382  0.6675 -1.7635 -0.3669
   70MOL0     H 9407  10.376   3.502  11.426  1.7726  0.0833 -2.5276
   70MOL0     H 9408  10.210   3.733  11.506 -1.1867 -1.4025  1.9759
   70MOL0     H 9409  10.352   3.703  11.600  1.0564  0.8801 -1.1092
   70MOL0     H 9410  10.144   3.803  11.708  1.2304 -1.2446 -0.9504
   70MOL0     H 9411  10.040   3.942  11.842  0.4348 -0.3801 -1.0226
   70MOL0     H 9412   9.869   3.905  11.846  0.0518  1.0110  1.2351
   70MOL0     H 9413   9.962   3.885  11.993  0.9075 -0.2214  0.3567
   70MOL0     H 9414   9.511   3.610  11.926 -0.1659 -2.4063  0.0857
   70MOL0     H 9415   9.293   3.621  12.027 -1.4803  0.0535  2.4549
   70MOL0     H 9416   9.035   3.560  12.281  2.2397  0.9011  3.5171
   70MOL0     H 9417   9.117   3.630  12.145  1.6965  0.4922  1.0183
   70MOL0     H 9418   9.187   3.364  12.102 -0.3008  0.5779 -1.3642
   70MOL0     H 9419   9.043   3.347  12.198  0.2027  0.5941  0.5954
   70MOL0     H 9420   8.919   3.490  12.036 -0.7578 -1.0086 -0.8064
   70MOL0     H 9421   8.977   3.342  11.975  1.0352  0.3953 -1.7590
   70MOL0     H 9422   9.098   3.612  11.918 -2.3966  0.0750  2.1558
   70MOL0     H 9423   9.184   3.463  11.898  1.3466  2.4915  2.4714
   70MOL0     H 9424   8.906   3.536  11.781 -0.1569  0.5932 -0.5621
   70MOL0     H 9425   8.972   3.374  11.766 -1.0663  0.2103 -0.0832
   70MOL0     H 9426   9.152   3.470  11.623  0.8021  1.7734 -2.0164
   70MOL0     H 9427   9.000   3.531  11.552 -0.6405 -0.6650 -0.0117
   70MOL0     H 9428   9.190   3.698  11.728  0.8057  0.5987 -1.5490
   70MOL0     H 9429   9.027   3.743  11.667  0.8589  2.5786 -1.5628
   70MOL0     H 9430   9.282   3.677  11.494  0.9336 -0.8512  2.3150
   70MOL0     H 9431   9.221   3.838  11.544  3.3183 -0.2184  1.3638
   70MOL0     H 9432   9.466   3.465  12.393 -0.8315  0.1942 -0.0917
   70MOL0     H 9433   9.699   3.459  12.266  0.0987  1.1612  0.9809
   70MOL0     H 9434   9.890   3.401  11.861  1.6585 -0.8877 -0.1077
   70MOL0     H 9435  10.032   3.377  11.686 -2.6969  0.2008 -2.3834
   70MOL0     H 9436   8.882   3.602  10.292  0.8416 -1.3141  3.2120
   70MOL0     H 9437   8.689   3.751  10.246  1.0070  0.0850 -0.5463
   70MOL0     H 9438   8.223   3.906  10.434 -1.2519  0.5393  1.7750
   70MOL0     H 9439   8.060   4.069  10.394 -0.1225  0.0019  1.1933
   70MOL0     H 9440   8.200   4.515  10.439 -1.6555  3.3267  0.2876
   70MOL0     H 9441   8.174   4.481  10.259  2.2448 -1.0000  0.8853
   70MOL0     H 9442   7.945   4.504  10.435 -0.6026  0.2950 -0.6717
   70MOL0     H 9443   7.946   4.540  10.271  0.7831  0.7512 -0.7493
   70MOL0     H 9444   8.032   4.754  10.291 -0.0768  0.1462  0.5890
   70MOL0     H 9445   8.118   4.721  10.440 -0.0125  0.1181 -0.0439
   70MOL0     H 9446   7.941   4.864  10.484  1.0538 -1.0552  1.3796
   70MOL0     H 9447   7.931   4.719  10.575  0.2524 -0.9548 -0.4186
   70MOL0     H 9448   7.556   4.736  10.399  0.4257 -0.3926 -1.2213
   70MOL0     H 9449   8.370   4.376  10.392 -0.5352  0.4321 -1.9801
   70MOL0     H 9450   8.538   4.197  10.428 -0.4018  1.8215  2.8946
   71MOL0     O 9451   1.970   1.137   8.412 -0.0778  0.3018 -0.0591
   71MOL0     C 9452   2.019   1.025   8.419 -0.3220  1.5431  0.0117
   71MOL0     O 9453   1.942   0.913   8.426 -0.5759  0.2014 -0.0491
   71MOL0     C 9454   1.807   0.928   8.441 -0.6308 -0.7084 -0.9342
   71MOL0     C 9455   1.767   0.961   8.578 -0.5786 -0.4958  0.0984
   71MOL0     C 9456   1.629   0.975   8.598 -1.3831 -0.7077 -0.7180
   71MOL0     C 9457   1.540   0.970   8.501  0.9241  0.6230  0.0712
   71MOL0     O 9458   1.412   1.003   8.525 -0.2594 -0.9563 -0.2290
   71MOL0     C 9459   1.301   0.930   8.470 -0.2324 -0.1985  0.5493
   71MOL0     C 9460   1.180   0.943   8.557  0.5000 -0.0075 -0.9377
   71MOL0     C 9461   1.067   0.844   8.508  0.1965  0.2028  0.3056
   71MOL0     C 9462   0.934   0.925   8.459 -0.1589  0.0232  0.4038
   71MOL0     C 9463   0.815   0.846   8.406 -0.4060 -1.0596 -0.1270
   71MOL0     C 9464   0.695   0.924   8.348  0.8226  0.2433  0.1828
   71MOL0     C 9465   0.601   0.994   8.451  0.5086  0.1547 -0.2452
   71MOL0     C 9466   0.622   1.147   8.441  0.1389 -0.0289  0.2424
   71MOL0     N 9467   0.573   1.199   8.314 -0.6214  0.9888  0.4298
   71MOL0     C 9468   0.657   1.269   8.228 -0.1821  1.1964  0.3410
   71MOL0     C 9469   0.585   1.262   8.112  0.2610 -0.6606 -0.6789
   71MOL0     C 9470   0.628   1.343   7.988  0.1850  0.8534  0.4387
   71MOL0     C 9471   0.621   1.490   8.007  0.9283 -0.5333 -0.2302
   71MOL0     C 9472   0.647   1.558   7.873  0.3261  0.1462 -0.5952
   71MOL0     C 9473   0.540   1.530   7.773  0.9899  0.5502  0.0687
   71MOL0     O 9474   0.576   1.590   7.643 -0.4820  0.3134 -0.0142
   71MOL0     C 9475   0.486   1.602   7.540  0.2251  0.5393  1.0475
   71MOL0     C 9476   0.367   1.524   7.526 -0.3434  0.0855 -0.2379
   71MOL0     C 9477   0.278   1.543   7.415  0.0062  0.0764  0.1718
   71MOL0     C 9478   0.155   1.459   7.414 -0.0986  1.2058  0.4431
   71MOL0     C 9479   0.317   1.636   7.315  0.0090  0.5116  0.1158
   71MOL0     C 9480   0.239   1.667   7.191  1.3153 -0.4831 -0.3034
   71MOL0     O 9481   0.120   1.597   7.186 -0.7478  0.5852  0.6600
   71MOL0     C 9482   0.017   1.630   7.098 -0.0457 -0.7387  0.3595
   71MOL0     C 9483  -0.081   1.531   7.085  0.0278 -0.5255 -0.8742
   71MOL0     C 9484  -0.196   1.545   7.013  0.8871  0.5296 -0.4703
   71MOL0     C 9485  -0.221   1.665   6.944 -0.3567 -0.1810  0.3453
   71MOL0     O 9486  -0.339   1.660   6.871 -0.2788  0.1501  0.9306
   71MOL0     C 9487  -0.382   1.780   6.801 -0.2205  0.6817 -0.1178
   71MOL0     C 9488  -0.301   1.804   6.682  0.2632  0.6229  1.0447
   71MOL0     C 9489  -0.311   1.676   6.597 -0.8087 -0.2067 -0.1250
   71MOL0     C 9490  -0.227   1.681   6.464 -0.0291  0.1121  0.0119
   71MOL0     C 9491  -0.085   1.618   6.483 -0.9741 -0.4486 -0.3880
   71MOL0     C 9492   0.018   1.701   6.568 -0.3118 -0.1774 -0.7905
   71MOL0     C 9493   0.158   1.637   6.563  0.0730 -0.0708  0.0563
   71MOL0     C 9494   0.256   1.700   6.663  0.6168  0.8063  0.1019
   71MOL0    Cl 9495   0.281   1.872   6.661 -0.1594 -0.1500  0.0895
   71MOL0     C 9496  -0.129   1.771   6.959 -0.4403 -0.1888 -0.6897
   71MOL0     C 9497  -0.009   1.754   7.040 -0.2347  0.0840  0.6259
   71MOL0     O 9498   0.279   1.754   7.118 -0.1551 -0.1598  0.2676
   71MOL0     C 9499   0.429   1.712   7.326 -0.0013 -0.0875 -0.5483
   71MOL0     C 9500   0.519   1.685   7.439 -1.0420  0.3711 -0.7578
   71MOL0     N 9501   0.466   1.191   8.132  0.5598 -0.2992  0.1462
   71MOL0     N 9502   0.457   1.160   8.255  1.2532  0.7061  0.3985
   71MOL0     C 9503   1.578   0.941   8.371 -0.4346  0.4933  0.1977
   71MOL0     C 9504   1.714   0.920   8.335 -0.5074  0.0227 -0.2019
   71MOL0     C 9505   2.168   1.008   8.438 -0.2140 -0.3934  0.3285
   71MOL0     C 9506   2.258   1.119   8.449  0.8273 -0.2044  0.6433
   71MOL0     C 9507   2.391   1.110   8.477  0.3330  0.6379 -0.3248
   71MOL0     C 9508   2.450   0.982   8.490 -1.1479  0.1588 -0.3882
   71MOL0     O 9509   2.583   0.973   8.508  0.2614 -0.2071 -0.1279
   71MOL0     C 9510   2.626   0.873   8.606 -0.3556  0.4793 -0.3220
   71MOL0     C 9511   2.765   0.836   8.573  0.9030 -0.5095  0.8728
   71MOL0     C 9512   2.775   0.744   8.447 -0.2107  0.5585  0.1883
   71MOL0     C 9513   2.914   0.684   8.443  0.3102  0.3928 -0.2987
   71MOL0     C 9514   3.027   0.777   8.416 -0.1744  0.4261 -0.2030
   71MOL0     C 9515   3.111   0.853   8.383 -0.3072 -0.2838  0.3863
   71MOL0     C 9516   2.375   0.863   8.464 -0.3259 -0.2466  0.1274
   71MOL0     C 9517   2.239   0.882   8.445 -0.1371  0.6587 -0.0496
   71MOL0     H 9518   1.842   0.977   8.655  1.8787  0.1998 -2.3012
   71MOL0     H 9519   1.599   1.015   8.695  0.2645 -1.2447  0.0533
   71MOL0     H 9520   1.290   0.953   8.364  1.3625 -3.5136 -0.4832
   71MOL0     H 9521   1.330   0.824   8.465 -0.9946 -0.3696 -3.2530
   71MOL0     H 9522   1.213   0.911   8.657  0.1843  0.6367 -0.6247
   71MOL0     H 9523   1.155   1.049   8.562  0.0076 -0.1609  0.3275
   71MOL0     H 9524   1.107   0.786   8.424 -0.1639  1.8070 -1.0155
   71MOL0     H 9525   1.035   0.778   8.589  1.7269 -1.9808 -0.7589
   71MOL0     H 9526   0.902   0.987   8.543  0.8733  0.3583  0.5635
   71MOL0     H 9527   0.946   0.987   8.370 -1.0215  2.7764  2.0963
   71MOL0     H 9528   0.844   0.774   8.328 -0.8046 -1.6900  0.3054
   71MOL0     H 9529   0.793   0.779   8.489 -0.6298 -1.8972 -0.8460
   71MOL0     H 9530   0.733   0.993   8.271 -2.2562 -0.3326 -2.0419
   71MOL0     H 9531   0.638   0.851   8.290  1.0226  0.0836  0.1869
   71MOL0     H 9532   0.500   0.975   8.411  0.6814  0.5009 -0.8573
   71MOL0     H 9533   0.612   0.948   8.550  0.1798 -0.7714 -0.6257
   71MOL0     H 9534   0.727   1.178   8.446  1.2088 -2.8357 -1.9724
   71MOL0     H 9535   0.560   1.198   8.515  2.1008 -0.8429  2.5683
   71MOL0     H 9536   0.755   1.309   8.251  0.6613 -0.6802  0.1508
   71MOL0     H 9537   0.725   1.306   7.952 -0.6109 -2.0962  1.0721
   71MOL0     H 9538   0.550   1.302   7.924  0.1594  0.8327  0.4837
   71MOL0     H 9539   0.690   1.515   8.088 -1.1447  1.9711  0.9058
   71MOL0     H 9540   0.522   1.508   8.049  1.1134  0.3841 -0.1706
   71MOL0     H 9541   0.743   1.516   7.840  0.3333 -1.8530  1.7095
   71MOL0     H 9542   0.655   1.664   7.896  0.8493 -0.0388  0.1049
   71MOL0     H 9543   0.445   1.570   7.809 -0.2660 -0.2780 -2.1281
   71MOL0     H 9544   0.528   1.423   7.757  0.6313  0.5848  0.1090
   71MOL0     H 9545   0.343   1.442   7.594  3.5414 -2.3370 -1.4552
   71MOL0     H 9546   0.142   1.406   7.319 -0.1725 -0.4603  1.3364
   71MOL0     H 9547   0.160   1.380   7.490  2.0193  1.1984  0.3484
   71MOL0     H 9548   0.069   1.522   7.438 -2.3117 -1.4922  0.1150
   71MOL0     H 9549  -0.066   1.445   7.150  0.0596  0.4640  0.4632
   71MOL0     H 9550  -0.267   1.463   7.009  0.5645  0.6526  1.6277
   71MOL0     H 9551  -0.487   1.770   6.771  0.2522 -2.4553 -1.1213
   71MOL0     H 9552  -0.385   1.868   6.866  0.1650  2.3536 -2.2594
   71MOL0     H 9553  -0.340   1.887   6.622  2.6151 -2.2885 -5.4481
   71MOL0     H 9554  -0.196   1.819   6.708  0.5328 -0.2950  0.5233
   71MOL0     H 9555  -0.418   1.658   6.579 -0.9532 -0.1218  0.6194
   71MOL0     H 9556  -0.271   1.598   6.663  0.2140  2.9160  3.2910
   71MOL0     H 9557  -0.278   1.609   6.398 -1.3707  1.7355 -0.7916
   71MOL0     H 9558  -0.224   1.786   6.435 -1.2575  0.8502  2.2932
   71MOL0     H 9559  -0.036   1.605   6.386 -0.0041 -1.8501  0.2562
   71MOL0     H 9560  -0.089   1.527   6.544  1.3047  0.4954  1.3129
   71MOL0     H 9561   0.034   1.807   6.545 -0.9759  0.1791  0.3032
   71MOL0     H 9562  -0.013   1.686   6.672  1.6448 -4.1120 -0.6060
   71MOL0     H 9563   0.198   1.649   6.462  0.0445 -0.9240 -0.0623
   71MOL0     H 9564   0.146   1.534   6.597  0.1893  0.1986  0.9650
   71MOL0     H 9565   0.356   1.655   6.663  0.7163  1.0184  0.6320
   71MOL0     H 9566   0.219   1.674   6.762  0.2319  0.1070 -0.2199
   71MOL0     H 9567  -0.146   1.870   6.918 -0.4291  0.4996  0.9277
   71MOL0     H 9568   0.056   1.836   7.069  0.8203 -1.4620  2.9638
   71MOL0     H 9569   0.458   1.796   7.265  0.0804  0.5677  0.3641
   71MOL0     H 9570   0.606   1.749   7.451 -0.8436  0.4566 -2.3699
   71MOL0     H 9571   1.503   0.935   8.293 -1.1349 -1.4301  0.9525
   71MOL0     H 9572   1.752   0.903   8.235 -0.5643  0.0023 -0.2206
   71MOL0     H 9573   2.207   1.215   8.447 -1.0220 -1.1570  0.4957
   71MOL0     H 9574   2.451   1.199   8.493  1.0516  0.0085  0.5765
   71MOL0     H 9575   2.637   0.915   8.706 -0.5832 -0.8490  0.2692
   71MOL0     H 9576   2.563   0.784   8.614 -0.2453  0.1186 -2.6665
   71MOL0     H 9577   2.795   0.779   8.662  0.8737 -0.9093  0.6296
   71MOL0     H 9578   2.829   0.925   8.572 -2.4359  2.0681  0.0629
   71MOL0     H 9579   2.750   0.809   8.363 -2.1537  0.6319  0.7529
   71MOL0     H 9580   2.694   0.670   8.446 -1.0610  1.4046  1.6109
   71MOL0     H 9581   2.909   0.597   8.376  2.1693  0.3161 -0.3951
   71MOL0     H 9582   2.941   0.632   8.535 -0.7639  0.1381 -0.1142
   71MOL0     H 9583   3.196   0.915   8.364 -1.0467  0.1680 -1.7880
   71MOL0     H 9584   2.427   0.768   8.467  3.7669  1.7794 -0.1975
   71MOL0     H 9585   2.183   0.792   8.423 -0.1630  0.4636  0.7812
   72MOL0     O 9586   4.251   8.873   4.122  0.1913 -0.0407  0.0509
   72MOL0     C 9587   4.298   8.981   4.102 -0.1837 -0.5321 -0.3126
   72MOL0     O 9588   4.231   9.093   4.055 -1.1854 -0.0911 -0.2763
   72MOL0     C 9589   4.094   9.102   4.052 -0.8202  0.4381  0.8102
   72MOL0     C 9590   4.047   9.226   4.014 -0.8032  0.1763  0.0131
   72MOL0     C 9591   3.911   9.260   4.026 -0.0156 -0.3464 -0.8643
   72MOL0     C 9592   3.816   9.167   4.069 -0.4933  0.0712 -0.2984
   72MOL0     O 9593   3.685   9.206   4.063 -0.1870 -0.2292 -0.7869
   72MOL0     C 9594   3.569   9.113   4.076 -0.1955 -0.1550  0.8381
   72MOL0     C 9595   3.433   9.177   4.050  0.6143 -0.3759  0.3464
   72MOL0     C 9596   3.315   9.085   4.077  0.4234 -0.3426  0.5158
   72MOL0     C 9597   3.189   9.126   3.998 -0.8023  0.3026  0.1427
   72MOL0     C 9598   3.075   9.028   3.997 -0.6839 -0.4779  0.2455
   72MOL0     C 9599   2.955   9.058   3.908 -0.5647  0.4187 -0.6364
   72MOL0     C 9600   2.852   8.954   3.919  0.2414 -0.1470 -0.1307
   72MOL0     C 9601   2.732   8.991   4.008  0.2759  0.0490  0.1793
   72MOL0     N 9602   2.659   9.101   3.937 -0.6189 -0.2153  0.1041
   72MOL0     C 9603   2.576   9.087   3.827 -0.0306  0.5311  0.2351
   72MOL0     C 9604   2.518   9.211   3.821  0.5876  0.6446  0.8762
   72MOL0     C 9605   2.418   9.242   3.702  0.0894  1.3849 -0.2715
   72MOL0     C 9606   2.282   9.189   3.743 -0.1665 -0.5074 -0.4136
   72MOL0     C 9607   2.191   9.198   3.625  1.0559  0.1479  0.7723
   72MOL0     C 9608   2.047   9.145   3.656 -0.0368 -0.6685  0.3222
   72MOL0     O 9609   1.996   9.223   3.770  0.2445  0.3668 -0.1184
   72MOL0     C 9610   1.859   9.254   3.785 -0.9568  0.5283 -0.7823
   72MOL0     C 9611   1.760   9.195   3.708 -0.2189  0.1498 -0.6149
   72MOL0     C 9612   1.626   9.232   3.732  0.0465 -0.1252 -0.0553
   72MOL0     C 9613   1.509   9.176   3.643  0.0750  0.1619  0.0216
   72MOL0     C 9614   1.591   9.325   3.828  0.6003 -0.6015  0.4228
   72MOL0     C 9615   1.454   9.368   3.851 -0.0895  0.4244 -0.8828
   72MOL0     O 9616   1.442   9.510   3.868 -0.2543  0.6420  0.2466
   72MOL0     C 9617   1.325   9.567   3.894 -0.3608 -0.0532  0.7343
   72MOL0     C 9618   1.250   9.612   3.780  0.6919  0.6857 -0.1430
   72MOL0     C 9619   1.118   9.656   3.799  0.3565 -0.4039  0.6888
   72MOL0     C 9620   1.066   9.670   3.928  0.1883  0.3286  0.3674
   72MOL0     O 9621   0.930   9.717   3.932 -0.3299  0.3461 -0.6937
   72MOL0     C 9622   0.873   9.760   4.059 -0.3381 -0.7273 -0.4006
   72MOL0     C 9623   0.739   9.847   4.012 -0.2840  0.3741 -0.2296
   72MOL0     C 9624   0.625   9.753   3.979 -0.2576 -0.2217  0.4037
   72MOL0     C 9625   0.487   9.821   3.987  0.3894  0.2287  0.0118
   72MOL0     C 9626   0.376   9.718   3.931 -0.1022  0.0382 -0.1152
   72MOL0     C 9627   0.240   9.784   3.915  1.0145  0.0332  0.3275
   72MOL0     C 9628   0.243   9.867   3.777  0.5068  1.4191  0.4862
   72MOL0     C 9629   0.114   9.944   3.733 -1.3064 -0.5858  0.2823
   72MOL0    Cl 9630  -0.025   9.833   3.707  0.0291  0.0303 -0.1510
   72MOL0     C 9631   1.139   9.626   4.037  0.4280 -1.1521  0.0948
   72MOL0     C 9632   1.268   9.571   4.019 -0.6299  0.5121 -0.0804
   72MOL0     O 9633   1.360   9.295   3.850 -0.0547 -0.4240 -0.3524
   72MOL0     C 9634   1.696   9.386   3.897  0.0854  0.1538  0.5075
   72MOL0     C 9635   1.825   9.349   3.879  0.1497  0.1420  0.4196
   72MOL0     N 9636   2.572   9.295   3.908  0.2469  0.3554 -0.0719
   72MOL0     N 9637   2.654   9.235   3.985  0.1939  0.9593 -0.1527
   72MOL0     C 9638   3.858   9.046   4.115  0.4387  0.4060 -0.1396
   72MOL0     C 9639   3.992   9.014   4.103 -0.5666  0.5407  0.0102
   72MOL0     C 9640   4.448   8.999   4.114  0.0248  0.3762 -0.3561
   72MOL0     C 9641   4.504   9.130   4.129  0.7286  0.4609  0.2302
   72MOL0     C 9642   4.643   9.141   4.139  1.2457  0.3625  0.2329
   72MOL0     C 9643   4.735   9.035   4.117  0.7175  0.1236 -0.0356
   72MOL0     O 9644   4.869   9.060   4.109 -0.5693 -0.2517  0.5568
   72MOL0     C 9645   4.912   9.199   4.111 -0.0548  0.0901  0.2628
   72MOL0     C 9646   5.047   9.216   4.030  0.8865  0.2631 -0.5692
   72MOL0     C 9647   5.027   9.193   3.880  0.3797 -0.0401 -0.2388
   72MOL0     C 9648   5.158   9.143   3.820  0.2572 -0.0014  0.1056
   72MOL0     C 9649   5.269   9.235   3.827  0.0603  0.4740 -1.0898
   72MOL0     C 9650   5.363   9.309   3.819 -0.2563  0.1519 -0.1661
   72MOL0     C 9651   4.678   8.907   4.111  0.2651 -0.2178 -0.3670
   72MOL0     C 9652   4.539   8.889   4.105  0.2990  0.2093  0.2047
   72MOL0     H 9653   4.121   9.286   3.961  1.1835 -0.9091  1.4234
   72MOL0     H 9654   3.880   9.356   3.986  1.1284  0.2243 -0.4224
   72MOL0     H 9655   3.582   9.028   4.008 -0.0477  0.1046  0.5354
   72MOL0     H 9656   3.571   9.074   4.178  0.6450  0.1714  0.9614
   72MOL0     H 9657   3.428   9.259   4.123  0.3357  2.0026 -2.1817
   72MOL0     H 9658   3.440   9.222   3.950 -1.3611  0.7747  0.6795
   72MOL0     H 9659   3.341   8.981   4.055 -2.2819 -0.1986 -4.9072
   72MOL0     H 9660   3.288   9.095   4.182 -2.6528  1.4071 -0.3203
   72MOL0     H 9661   3.150   9.224   4.030 -1.7664 -0.5431  1.6935
   72MOL0     H 9662   3.222   9.154   3.898 -0.9819  0.5063  0.1406
   72MOL0     H 9663   3.118   8.930   3.976  0.5060 -0.2866  1.6045
   72MOL0     H 9664   3.028   9.015   4.095 -0.4704  1.5133  0.6683
   72MOL0     H 9665   2.914   9.158   3.927 -0.4538  0.5416 -1.0286
   72MOL0     H 9666   2.996   9.048   3.807  4.3309 -2.3121  1.2571
   72MOL0     H 9667   2.819   8.927   3.818  1.1808 -0.2796 -0.4053
   72MOL0     H 9668   2.897   8.860   3.949  0.3681 -0.1892 -0.4506
   72MOL0     H 9669   2.774   9.027   4.102  2.3371 -1.2838 -0.1638
   72MOL0     H 9670   2.657   8.913   4.027 -3.1527  3.7497  3.7449
   72MOL0     H 9671   2.549   8.999   3.769 -4.1890  2.9464 -1.9852
   72MOL0     H 9672   2.418   9.345   3.668 -3.9229  1.0889 -1.6352
   72MOL0     H 9673   2.450   9.181   3.617  1.3547 -0.4467  1.4097
   72MOL0     H 9674   2.244   9.262   3.815  3.0036  0.2605  0.6207
   72MOL0     H 9675   2.279   9.084   3.774 -2.7308 -0.2039  0.6325
   72MOL0     H 9676   2.234   9.135   3.546  1.1580 -0.5813  1.3947
   72MOL0     H 9677   2.170   9.300   3.594  0.1361 -1.1551 -3.7090
   72MOL0     H 9678   2.044   9.036   3.664 -1.0206 -0.6103  1.0272
   72MOL0     H 9679   1.988   9.170   3.567 -1.6471 -2.9911  0.6425
   72MOL0     H 9680   1.779   9.111   3.642  1.2841 -2.3855  2.6778
   72MOL0     H 9681   1.447   9.251   3.594 -2.2308 -1.8984 -0.4261
   72MOL0     H 9682   1.558   9.127   3.558  0.1589  2.5600 -1.3885
   72MOL0     H 9683   1.442   9.108   3.696 -2.3639  1.0079 -1.7840
   72MOL0     H 9684   1.289   9.599   3.680 -0.7185 -1.4350 -0.4671
   72MOL0     H 9685   1.049   9.696   3.725  0.2765 -0.6997  0.6041
   72MOL0     H 9686   0.835   9.687   4.131 -0.4177 -0.0442  0.2624
   72MOL0     H 9687   0.939   9.828   4.112 -0.6146 -2.0595  1.7738
   72MOL0     H 9688   0.700   9.918   4.086 -0.4205  0.5187 -0.4394
   72MOL0     H 9689   0.751   9.908   3.922 -1.7318 -1.2224 -1.5777
   72MOL0     H 9690   0.628   9.670   4.050 -1.0531  0.3497  1.1245
   72MOL0     H 9691   0.640   9.705   3.882  1.6521 -1.2763  1.1817
   72MOL0     H 9692   0.463   9.842   4.092  2.2271 -0.3320  0.5832
   72MOL0     H 9693   0.496   9.912   3.928  1.8680  0.1098  0.0241
   72MOL0     H 9694   0.367   9.637   4.004 -0.0890 -0.7875 -1.0068
   72MOL0     H 9695   0.410   9.664   3.842  1.8944 -1.0329  1.2283
   72MOL0     H 9696   0.156   9.714   3.913  1.9183 -1.0545 -0.1028
   72MOL0     H 9697   0.226   9.856   3.996  0.6534  3.0701 -2.2398
   72MOL0     H 9698   0.277   9.806   3.692  0.1191  1.7924  0.0548
   72MOL0     H 9699   0.324   9.938   3.792  0.7215  1.4532 -0.7250
   72MOL0     H 9700   0.144   9.998   3.643  2.3477 -1.8057  0.6267
   72MOL0     H 9701   0.098  10.015   3.814 -0.2397  0.2382 -0.2028
   72MOL0     H 9702   1.095   9.635   4.136 -0.2799  1.5428 -0.3680
   72MOL0     H 9703   1.332   9.531   4.098  0.1413 -0.3575 -1.1216
   72MOL0     H 9704   1.678   9.465   3.970 -1.6175  0.5895 -0.3378
   72MOL0     H 9705   1.910   9.397   3.928 -0.8914  0.9650  1.4855
   72MOL0     H 9706   3.793   8.961   4.137 -0.4538  0.1160 -3.4276
   72MOL0     H 9707   4.013   8.913   4.138 -0.6324  0.2068 -0.8790
   72MOL0     H 9708   4.437   9.215   4.127  1.0553  0.7510  1.1216
   72MOL0     H 9709   4.680   9.235   4.178  3.1624 -1.0672  2.0789
   72MOL0     H 9710   4.842   9.268   4.063 -2.0087 -1.1790  1.1788
   72MOL0     H 9711   4.928   9.237   4.212 -0.8568 -0.2364  0.5164
   72MOL0     H 9712   5.112   9.137   4.068 -1.1989 -1.2358  0.0847
   72MOL0     H 9713   5.097   9.312   4.047  0.1514  0.4146  0.9112
   72MOL0     H 9714   4.995   9.289   3.839  0.3806  0.6855  1.3528
   72MOL0     H 9715   4.941   9.126   3.870 -1.2005  1.7801  0.4655
   72MOL0     H 9716   5.134   9.114   3.717 -0.3256 -1.0335  0.5101
   72MOL0     H 9717   5.193   9.049   3.865  6.3435  1.4332 -0.8309
   72MOL0     H 9718   5.453   9.367   3.813 -2.3882  3.9190  0.8874
   72MOL0     H 9719   4.737   8.816   4.119 -0.7205 -0.7736  0.8800
   72MOL0     H 9720   4.505   8.786   4.107 -0.0941  0.3246 -0.3397
   73MOL0     O 9721   3.611   8.031   1.431 -0.4914 -0.4623  0.0128
   73MOL0     C 9722   3.623   7.913   1.448 -0.5858  0.4459 -0.1273
   73MOL0     O 9723   3.522   7.819   1.459  0.1231 -0.8880  0.0725
   73MOL0     C 9724   3.387   7.842   1.430  0.2019 -0.1385  0.3501
   73MOL0     C 9725   3.301   7.754   1.483 -0.0986 -0.5477  0.0235
   73MOL0     C 9726   3.166   7.781   1.476  1.4276 -0.2237  0.4481
   73MOL0     C 9727   3.109   7.898   1.420 -0.9593  0.2583  0.7648
   73MOL0     O 9728   2.974   7.912   1.426  0.7455  0.3940  0.6200
   73MOL0     C 9729   2.903   8.027   1.366  0.0284 -0.3388 -0.3945
   73MOL0     C 9730   2.750   8.014   1.385 -1.3389  0.1149  0.1522
   73MOL0     C 9731   2.654   8.121   1.323 -0.9940  1.0604 -0.2918
   73MOL0     C 9732   2.581   8.080   1.193 -0.3181  0.5794  0.5320
   73MOL0     C 9733   2.439   8.046   1.232  0.7096 -0.5871 -0.1948
   73MOL0     C 9734   2.366   8.014   1.100  0.7941 -0.6134  0.1157
   73MOL0     C 9735   2.202   8.008   1.114  0.0708  1.1115  0.4244
   73MOL0     C 9736   2.143   8.146   1.099 -0.4770 -0.8024  0.2503
   73MOL0     N 9737   2.003   8.153   1.111  0.9966  0.2406  0.8486
   73MOL0     C 9738   1.915   8.070   1.167 -0.1750 -0.0690 -0.7252
   73MOL0     C 9739   1.789   8.106   1.140 -0.9052 -1.1502 -0.1678
   73MOL0     C 9740   1.662   8.034   1.176 -0.4028 -0.0734 -0.2061
   73MOL0     C 9741   1.543   8.101   1.102  0.1038 -0.1238 -0.1129
   73MOL0     C 9742   1.410   8.042   1.138 -0.2986 -0.3848 -0.2173
   73MOL0     C 9743   1.303   8.095   1.042 -0.2560  0.0511 -0.1229
   73MOL0     O 9744   1.172   8.047   1.083 -0.4003  0.0150 -0.6779
   73MOL0     C 9745   1.052   8.087   1.022 -0.1609 -0.2011 -0.5404
   73MOL0     C 9746   1.029   8.213   0.974  0.2830 -0.3469 -0.2483
   73MOL0     C 9747   0.901   8.242   0.929  0.1132  0.0764  0.6848
   73MOL0     C 9748   0.865   8.389   0.903  0.4902 -0.6184 -0.9673
   73MOL0     C 9749   0.800   8.139   0.926 -0.0634 -0.5881 -0.2240
   73MOL0     C 9750   0.666   8.173   0.876 -1.0900 -0.7369 -0.7342
   73MOL0     O 9751   0.561   8.124   0.947 -0.1107  0.4717  0.1870
   73MOL0     C 9752   0.428   8.110   0.901  0.2754 -0.8856  0.3903
   73MOL0     C 9753   0.368   8.172   0.791 -0.4823  0.7210  0.0474
   73MOL0     C 9754   0.235   8.168   0.761 -0.4647  0.1034  0.8937
   73MOL0     C 9755   0.153   8.085   0.841 -0.1655 -0.1245  0.1715
   73MOL0     O 9756   0.016   8.075   0.814  0.0689  0.0196 -0.0910
   73MOL0     C 9757  -0.048   8.164   0.717 -0.0352 -0.0177 -0.0633
   73MOL0     C 9758  -0.197   8.132   0.695 -0.1372  0.2047  0.1417
   73MOL0     C 9759  -0.291   8.139   0.824  1.0136  0.0127  0.0486
   73MOL0     C 9760  -0.446   8.170   0.774 -0.0775  1.0527 -0.5739
   73MOL0     C 9761  -0.506   8.053   0.689 -0.1473 -0.3763 -0.2844
   73MOL0     C 9762  -0.655   8.050   0.717  0.6983 -0.1257 -0.6520
   73MOL0     C 9763  -0.720   7.933   0.648 -0.3620 -0.4951 -0.0189
   73MOL0     C 9764  -0.861   7.907   0.708  0.6931  0.5290  0.2691
   73MOL0    Cl 9765  -0.943   7.788   0.601 -0.0728 -0.1162  0.4898
   73MOL0     C 9766   0.202   8.027   0.957 -0.2400 -0.3858 -0.1153
   73MOL0     C 9767   0.340   8.042   0.988 -0.9963 -0.3001 -0.0080
   73MOL0     O 9768   0.659   8.235   0.772 -0.4888 -0.0964 -0.2635
   73MOL0     C 9769   0.835   8.010   0.961  0.1427 -0.2881  0.2930
   73MOL0     C 9770   0.960   7.985   1.014  0.6794  0.6507  0.1570
   73MOL0     N 9771   1.805   8.209   1.050  0.1997 -0.0094 -0.4043
   73MOL0     N 9772   1.930   8.237   1.033 -0.3571  0.7820  0.3514
   73MOL0     C 9773   3.197   7.993   1.372 -0.5302  0.1283  0.7356
   73MOL0     C 9774   3.333   7.958   1.363  0.0909 -0.0350 -0.0539
   73MOL0     C 9775   3.754   7.860   1.446  0.4201  0.2228  0.6431
   73MOL0     C 9776   3.793   7.725   1.443  1.7163 -0.5303  0.2260
   73MOL0     C 9777   3.925   7.682   1.430 -0.1778  0.1035 -0.3999
   73MOL0     C 9778   4.028   7.772   1.421  0.3318 -0.6414 -0.2278
   73MOL0     O 9779   4.159   7.750   1.399 -0.4403  0.0088  0.2330
   73MOL0     C 9780   4.213   7.618   1.407  0.0025  1.2389 -0.3959
   73MOL0     C 9781   4.366   7.613   1.390 -0.2373 -0.0655 -0.1077
   73MOL0     C 9782   4.424   7.709   1.495 -0.3908 -0.7595 -0.1502
   73MOL0     C 9783   4.577   7.675   1.525 -0.1356 -0.1994  0.2508
   73MOL0     C 9784   4.586   7.559   1.622  0.4508  0.0782  1.6532
   73MOL0     C 9785   4.586   7.454   1.677  0.0701  0.7674 -0.4006
   73MOL0     C 9786   3.992   7.907   1.420  0.4006  0.3352 -0.5310
   73MOL0     C 9787   3.863   7.953   1.437 -0.3282 -0.4048  0.1509
   73MOL0     H 9788   3.334   7.672   1.546 -0.4527 -2.7291 -2.4868
   73MOL0     H 9789   3.095   7.713   1.522  0.2870  1.4795  1.2871
   73MOL0     H 9790   2.951   8.109   1.421 -1.1700 -0.1700  0.4318
   73MOL0     H 9791   2.927   8.028   1.259 -0.9175 -0.7361 -0.6206
   73MOL0     H 9792   2.733   7.917   1.336 -0.9406 -0.1895  0.6092
   73MOL0     H 9793   2.715   8.009   1.488 -0.6419  1.3149  0.4648
   73MOL0     H 9794   2.574   8.141   1.395 -1.9214  0.0362 -1.0039
   73MOL0     H 9795   2.720   8.204   1.298 -1.6742  2.0019  0.9519
   73MOL0     H 9796   2.584   8.170   1.131 -0.7310 -0.6797 -1.3981
   73MOL0     H 9797   2.633   7.998   1.143 -0.5469  0.6325  0.1972
   73MOL0     H 9798   2.430   7.955   1.292 -0.9850 -0.2197  0.1564
   73MOL0     H 9799   2.405   8.128   1.295  2.5637 -0.3855  0.6238
   73MOL0     H 9800   2.390   8.085   1.021 -1.3587  0.2037  0.1395
   73MOL0     H 9801   2.398   7.917   1.060  0.4077 -0.3102 -0.9762
   73MOL0     H 9802   2.161   7.946   1.034  0.2189  0.8452  0.5553
   73MOL0     H 9803   2.176   7.947   1.202  0.3786 -3.6556 -2.4237
   73MOL0     H 9804   2.167   8.185   1.000  1.6181  1.6013  1.5806
   73MOL0     H 9805   2.177   8.217   1.175 -1.0758  0.2288 -0.4351
   73MOL0     H 9806   1.943   7.982   1.224  0.4455 -1.4399 -2.9778
   73MOL0     H 9807   1.674   7.931   1.140 -0.3578 -0.1419  0.0042
   73MOL0     H 9808   1.645   8.036   1.284 -1.6082  0.0302 -0.3851
   73MOL0     H 9809   1.564   8.089   0.995  2.5090 -0.4650  0.3294
   73MOL0     H 9810   1.551   8.204   1.138  0.0308 -1.0049  2.7014
   73MOL0     H 9811   1.373   8.076   1.235 -1.6132 -1.0248 -0.4764
   73MOL0     H 9812   1.410   7.933   1.130 -0.6354 -0.3838 -0.2466
   73MOL0     H 9813   1.327   8.075   0.938  0.1129 -0.3217  0.0285
   73MOL0     H 9814   1.307   8.202   1.063  1.6707  0.3039 -1.5060
   73MOL0     H 9815   1.098   8.295   0.958 -0.6227  0.0384 -2.6225
   73MOL0     H 9816   0.760   8.414   0.921  0.2020 -1.0975 -1.9226
   73MOL0     H 9817   0.924   8.453   0.969 -0.8962 -2.8224  2.7001
   73MOL0     H 9818   0.890   8.420   0.801  1.1833  0.3260 -0.5345
   73MOL0     H 9819   0.428   8.237   0.728  1.7850 -2.5320 -1.4184
   73MOL0     H 9820   0.199   8.226   0.677  0.5379  2.8298  2.2311
   73MOL0     H 9821  -0.047   8.268   0.751  2.0833 -0.8369  2.7570
   73MOL0     H 9822  -0.000   8.166   0.619  1.3712  3.1676  0.5585
   73MOL0     H 9823  -0.238   8.194   0.615  0.4379  1.5625  0.8676
   73MOL0     H 9824  -0.197   8.026   0.669 -0.9121  0.1422  0.3601
   73MOL0     H 9825  -0.270   8.225   0.888 -1.6205  0.8353 -0.1048
   73MOL0     H 9826  -0.289   8.046   0.881  0.7336 -1.2758 -1.9170
   73MOL0     H 9827  -0.502   8.186   0.867  0.4492 -2.2128  0.4564
   73MOL0     H 9828  -0.432   8.259   0.713 -0.4665  0.7728 -1.0715
   73MOL0     H 9829  -0.469   7.953   0.712  0.9732 -0.6204 -2.8402
   73MOL0     H 9830  -0.481   8.046   0.583  0.3945 -2.7596 -0.0624
   73MOL0     H 9831  -0.674   8.048   0.825  1.8358  2.5495 -0.3212
   73MOL0     H 9832  -0.695   8.145   0.680  0.7927  0.0920 -0.2005
   73MOL0     H 9833  -0.661   7.843   0.673  0.8145  0.8623  2.4954
   73MOL0     H 9834  -0.729   7.948   0.540  0.3389  1.6081  0.1724
   73MOL0     H 9835  -0.924   7.996   0.706 -0.1025 -0.0111  0.7828
   73MOL0     H 9836  -0.850   7.867   0.809 -1.6338  1.6851  1.0424
   73MOL0     H 9837   0.134   7.975   1.023  0.7857 -0.5341  0.8485
   73MOL0     H 9838   0.368   8.012   1.089 -1.3887 -0.2816  0.1076
   73MOL0     H 9839   0.757   7.936   0.946 -0.9058  0.9222 -0.4874
   73MOL0     H 9840   0.995   7.884   1.033 -1.4737 -0.6354 -2.0519
   73MOL0     H 9841   3.170   8.093   1.339 -0.6995 -0.6774 -1.7454
   73MOL0     H 9842   3.406   8.026   1.319  0.9567 -1.2028 -0.4915
   73MOL0     H 9843   3.713   7.652   1.438  0.2684  0.9199  1.1899
   73MOL0     H 9844   3.943   7.576   1.421 -0.8364 -0.0411 -0.0566
   73MOL0     H 9845   4.187   7.573   1.503 -0.4903  0.1505 -1.0261
   73MOL0     H 9846   4.165   7.562   1.326 -2.0070 -1.5008  2.4122
   73MOL0     H 9847   4.398   7.645   1.290 -2.6790  0.1449 -0.8979
   73MOL0     H 9848   4.397   7.509   1.405 -0.3134 -0.1879 -0.7634
   73MOL0     H 9849   4.368   7.704   1.588  1.6931 -1.1895  1.1622
   73MOL0     H 9850   4.412   7.809   1.452 -1.3028 -0.7313  0.1593
   73MOL0     H 9851   4.628   7.760   1.571  1.4597 -1.7109  1.4252
   73MOL0     H 9852   4.631   7.650   1.433 -0.8050 -0.7802  0.0131
   73MOL0     H 9853   4.575   7.360   1.727  0.4220  0.8019 -0.2610
   73MOL0     H 9854   4.078   7.973   1.413 -0.1798  1.3886  1.4441
   73MOL0     H 9855   3.853   8.061   1.435 -3.2796 -0.5573  1.4308
   74MOL0     O 9856   8.238   0.398   9.633 -0.3703 -0.2529  0.0526
   74MOL0     C 9857   8.275   0.435   9.748  0.2558  0.8112 -0.2945
   74MOL0     O 9858   8.195   0.450   9.862 -0.4559 -0.1078  0.7805
   74MOL0     C 9859   8.060   0.486   9.840 -0.4400 -0.0746  0.3461
   74MOL0     C 9860   7.956   0.393   9.817 -0.8565  0.2737 -0.2598
   74MOL0     C 9861   7.828   0.433   9.792  0.7060 -0.2680 -0.3866
   74MOL0     C 9862   7.795   0.563   9.806  0.2235 -0.0839  0.6635
   74MOL0     O 9863   7.666   0.610   9.798  0.1787  0.5428  0.1419
   74MOL0     C 9864   7.556   0.525   9.756 -0.2240 -0.6885  0.9568
   74MOL0     C 9865   7.444   0.621   9.707 -1.1166 -0.6959  0.0640
   74MOL0     C 9866   7.323   0.542   9.654  0.0652  0.2187 -0.3685
   74MOL0     C 9867   7.200   0.542   9.745 -0.2109  0.0593 -0.9844
   74MOL0     C 9868   7.083   0.457   9.678 -0.0626 -0.5338  0.1683
   74MOL0     C 9869   6.947   0.454   9.761 -0.1018  0.8061 -0.8146
   74MOL0     C 9870   6.822   0.455   9.669 -0.4100  0.7164  0.0253
   74MOL0     C 9871   6.697   0.428   9.742  1.0204  0.3909 -0.0489
   74MOL0     N 9872   6.577   0.442   9.655  0.2565  0.2921 -0.1894
   74MOL0     C 9873   6.527   0.559   9.599  0.1271 -0.0211 -0.2051
   74MOL0     C 9874   6.437   0.512   9.509  0.8607  0.1657  0.0289
   74MOL0     C 9875   6.355   0.609   9.424 -0.2321  0.3343 -0.0584
   74MOL0     C 9876   6.241   0.683   9.498  0.3743 -0.0562  0.5225
   74MOL0     C 9877   6.164   0.790   9.417  0.0735 -0.3171 -0.8669
   74MOL0     C 9878   6.134   0.750   9.273  0.1893  0.3506 -0.2913
   74MOL0     O 9879   6.063   0.625   9.264 -0.4771 -1.2061  0.5729
   74MOL0     C 9880   5.929   0.621   9.283 -0.5012 -0.1764 -0.4687
   74MOL0     C 9881   5.851   0.725   9.334 -0.0443 -0.1981  0.0409
   74MOL0     C 9882   5.714   0.718   9.347 -0.5661  0.0325  0.7507
   74MOL0     C 9883   5.635   0.836   9.380 -0.5071 -0.8794 -0.8971
   74MOL0     C 9884   5.650   0.591   9.338 -0.9910  0.8515 -0.7152
   74MOL0     C 9885   5.510   0.562   9.380 -0.4494 -0.3773  0.6545
   74MOL0     O 9886   5.453   0.453   9.317 -0.6894  1.1850  0.6758
   74MOL0     C 9887   5.316   0.441   9.302 -0.9708  0.2712  0.3848
   74MOL0     C 9888   5.219   0.551   9.302  0.8546 -0.4062 -0.2600
   74MOL0     C 9889   5.081   0.522   9.282  0.9031  0.1929 -0.0002
   74MOL0     C 9890   5.042   0.395   9.268 -0.8990  0.0934  0.6487
   74MOL0     O 9891   4.909   0.380   9.261 -0.4082 -0.1982  0.2621
   74MOL0     C 9892   4.850   0.246   9.240  0.5436 -0.2227 -0.1411
   74MOL0     C 9893   4.705   0.262   9.202  0.0836  0.1217  0.6415
   74MOL0     C 9894   4.642   0.347   9.304 -0.1784  0.5676 -0.5150
   74MOL0     C 9895   4.638   0.275   9.440 -0.0281 -0.8581  0.2194
   74MOL0     C 9896   4.516   0.322   9.523 -0.6136 -0.2664 -1.2426
   74MOL0     C 9897   4.374   0.294   9.467 -0.2762 -0.8576 -0.9182
   74MOL0     C 9898   4.274   0.335   9.571  0.6355  0.3404  0.0675
   74MOL0     C 9899   4.138   0.283   9.551  0.0849  0.0367  0.0028
   74MOL0    Cl 9900   4.139   0.107   9.557 -0.0244  0.4483 -0.1149
   74MOL0     C 9901   5.131   0.289   9.268 -0.5045  0.1538 -0.3069
   74MOL0     C 9902   5.268   0.316   9.283  0.4629  0.5083  0.8579
   74MOL0     O 9903   5.454   0.639   9.456 -0.9918  0.4640  0.2905
   74MOL0     C 9904   5.726   0.474   9.302 -0.1607  0.0138 -0.9343
   74MOL0     C 9905   5.861   0.492   9.269 -0.5181 -0.9992  0.2746
   74MOL0     N 9906   6.452   0.379   9.495 -0.3452 -0.2998  0.2971
   74MOL0     N 9907   6.526   0.335   9.584 -0.3719  0.0910 -0.0221
   74MOL0     C 9908   7.891   0.659   9.840  0.1901 -0.5289  0.7386
   74MOL0     C 9909   8.027   0.617   9.847 -0.4173 -0.7776 -0.6033
   74MOL0     C 9910   8.419   0.456   9.763 -0.4401  0.2488  0.3694
   74MOL0     C 9911   8.506   0.428   9.655  0.6712  0.0327  0.0168
   74MOL0     C 9912   8.645   0.450   9.664 -0.9375  0.4764 -0.5886
   74MOL0     C 9913   8.703   0.497   9.782 -0.4480 -0.1691 -0.7161
   74MOL0     O 9914   8.838   0.524   9.781  0.1812  0.3541  0.2481
   74MOL0     C 9915   8.897   0.586   9.895  0.1736  0.4842  0.1430
   74MOL0     C 9916   8.867   0.734   9.908 -0.1512  0.1753  0.9328
   74MOL0     C 9917   8.892   0.813   9.773 -0.5916 -0.5833  0.3390
   74MOL0     C 9918   8.850   0.957   9.791 -0.1452  0.4320  0.0654
   74MOL0     C 9919   8.957   1.025   9.863 -0.0914  0.5440  0.1181
   74MOL0     C 9920   9.048   1.096   9.915  0.1761  0.4119 -0.3130
   74MOL0     C 9921   8.622   0.512   9.895 -0.2304  0.4485  0.3315
   74MOL0     C 9922   8.480   0.503   9.878 -0.4001  0.3261 -0.6775
   74MOL0     H 9923   7.988   0.291   9.800  0.4993  0.7635 -0.7849
   74MOL0     H 9924   7.754   0.354   9.779  0.4547 -0.4144  1.6479
   74MOL0     H 9925   7.591   0.476   9.665  2.3553  2.1538  0.2725
   74MOL0     H 9926   7.521   0.443   9.819 -0.3320 -1.4268 -0.0256
   74MOL0     H 9927   7.408   0.678   9.794 -0.7846 -2.2551  1.2597
   74MOL0     H 9928   7.483   0.688   9.630  1.4295 -2.6689 -0.4880
   74MOL0     H 9929   7.309   0.586   9.554 -1.3423 -0.7221 -0.6034
   74MOL0     H 9930   7.348   0.436   9.642  1.2200  0.1744  1.9426
   74MOL0     H 9931   7.232   0.498   9.840  0.9122  2.3313 -0.2423
   74MOL0     H 9932   7.162   0.643   9.759 -1.9599 -1.0073  3.6782
   74MOL0     H 9933   7.060   0.513   9.587 -1.6661  1.3100  1.6224
   74MOL0     H 9934   7.120   0.359   9.646 -1.8075 -1.1369 -0.1034
   74MOL0     H 9935   6.946   0.361   9.819 -3.7424  0.1579 -1.6571
   74MOL0     H 9936   6.937   0.531   9.838  1.9541  0.7891 -0.4743
   74MOL0     H 9937   6.819   0.559   9.637  1.1800  1.4499  2.0455
   74MOL0     H 9938   6.839   0.394   9.579 -4.0829 -1.4379  0.5955
   74MOL0     H 9939   6.688   0.491   9.831  4.3878 -0.3425  0.9624
   74MOL0     H 9940   6.698   0.324   9.776  1.9462  0.6093  0.6279
   74MOL0     H 9941   6.560   0.662   9.606  0.9045 -0.2008 -0.9694
   74MOL0     H 9942   6.429   0.682   9.390 -0.9636 -0.0978 -2.7994
   74MOL0     H 9943   6.321   0.554   9.335  1.3107 -1.4360  0.3837
   74MOL0     H 9944   6.273   0.748   9.580 -0.9303  0.5736  0.5627
   74MOL0     H 9945   6.167   0.607   9.527 -0.9512  1.1706  0.4858
   74MOL0     H 9946   6.220   0.884   9.418 -0.1253 -0.1634  1.8107
   74MOL0     H 9947   6.073   0.826   9.465  1.0600 -0.0516  0.8645
   74MOL0     H 9948   6.227   0.748   9.216  0.1519  0.9149 -0.3846
   74MOL0     H 9949   6.080   0.836   9.230 -0.9375  0.3315  1.0400
   74MOL0     H 9950   5.900   0.820   9.353 -1.8164  0.6204  0.7250
   74MOL0     H 9951   5.549   0.850   9.314 -0.3259  1.1107 -0.7666
   74MOL0     H 9952   5.608   0.846   9.486 -1.6208  0.0322 -1.2413
   74MOL0     H 9953   5.690   0.929   9.363 -1.0772 -0.5156 -0.8014
   74MOL0     H 9954   5.246   0.655   9.320  0.1161 -0.0003 -1.3280
   74MOL0     H 9955   5.013   0.606   9.271  0.8987  0.0947 -0.7788
   74MOL0     H 9956   4.900   0.192   9.159  0.0261 -3.5015  1.5548
   74MOL0     H 9957   4.857   0.190   9.333 -3.4817 -0.0689  0.4629
   74MOL0     H 9958   4.687   0.319   9.110 -0.1717 -0.0612  0.5785
   74MOL0     H 9959   4.658   0.165   9.185 -3.0463  1.2536  2.1672
   74MOL0     H 9960   4.539   0.359   9.268 -0.6776  0.3743  0.7818
   74MOL0     H 9961   4.687   0.446   9.315 -0.5893  0.6351  0.7002
   74MOL0     H 9962   4.623   0.169   9.415 -0.7835 -1.1410  1.7040
   74MOL0     H 9963   4.732   0.276   9.495 -1.0265 -2.4112  2.1225
   74MOL0     H 9964   4.526   0.430   9.538  0.3221 -0.3883 -0.9081
   74MOL0     H 9965   4.530   0.283   9.625 -1.6086 -0.0982 -1.0320
   74MOL0     H 9966   4.351   0.357   9.381 -0.8269 -0.3449 -0.4004
   74MOL0     H 9967   4.361   0.187   9.448  1.6884 -1.5889  1.3700
   74MOL0     H 9968   4.256   0.443   9.567  0.0010  0.2780  1.0047
   74MOL0     H 9969   4.308   0.299   9.668 -1.7719  3.1896  2.1467
   74MOL0     H 9970   4.092   0.318   9.458 -3.0890  1.2560  1.8846
   74MOL0     H 9971   4.072   0.317   9.631  2.1666 -0.6113  2.1113
   74MOL0     H 9972   5.089   0.189   9.267 -0.4633  0.1153  0.5465
   74MOL0     H 9973   5.346   0.241   9.291  1.1078  0.8174 -1.6067
   74MOL0     H 9974   5.676   0.377   9.303  0.3305 -0.2422 -0.0735
   74MOL0     H 9975   5.939   0.419   9.251 -1.6023 -2.0805 -0.1653
   74MOL0     H 9976   7.860   0.761   9.858  0.2119 -0.4979  0.6070
   74MOL0     H 9977   8.114   0.678   9.871 -0.2862 -0.0152 -2.8033
   74MOL0     H 9978   8.473   0.381   9.563 -1.1014  0.7394  0.2401
   74MOL0     H 9979   8.714   0.424   9.584 -1.0508 -2.2599  0.1063
   74MOL0     H 9980   8.865   0.526   9.981  0.6575  0.4941  0.3347
   74MOL0     H 9981   9.002   0.573   9.865  0.1113  3.0113 -1.4749
   74MOL0     H 9982   8.921   0.776   9.993  1.0828  0.4923  0.0078
   74MOL0     H 9983   8.760   0.742   9.933  0.5415 -0.6253  4.8789
   74MOL0     H 9984   8.835   0.763   9.694 -0.5809 -0.7276  0.4222
   74MOL0     H 9985   8.997   0.811   9.741 -0.4221 -0.0647  0.8563
   74MOL0     H 9986   8.758   0.972   9.847  1.5688  0.7588  3.0190
   74MOL0     H 9987   8.842   1.005   9.692 -3.3640  0.1938  0.1179
   74MOL0     H 9988   9.118   1.162   9.963 -0.2671  0.5831  0.1091
   74MOL0     H 9989   8.660   0.542   9.992 -0.8230  0.1286  0.6665
   74MOL0     H 9990   8.420   0.523   9.966  2.1576 -2.5288  1.9657
   75MOL0     O 9991   9.240   4.024   1.623  0.3906  0.2956 -0.1864
   75MOL0     C 9992   9.213   4.018   1.503  0.5161 -0.2666  0.2592
   75MOL0     O 9993   9.301   4.035   1.396  0.1462 -0.0684  0.4898
   75MOL0     C 9994   9.428   4.065   1.420 -0.1689 -0.3074 -0.8946
   75MOL0     C 9995   9.511   3.980   1.498 -0.6948  0.6639  0.4372
   75MOL0     C 9996   9.646   4.018   1.535  0.5167 -0.4885 -0.6188
   75MOL0     C 9997   9.698   4.138   1.480 -0.2687 -0.4029 -0.3245
   75MOL0     O 9998   9.823   4.174   1.523 -1.0259 -0.0327 -0.1978
   75MOL0     C 9999   9.908   4.242   1.426  0.7302  1.4923 -0.0799
   75MOL0     C10000  10.060   4.253   1.481  0.1250 -1.3487  0.0328
   75MOL0     C10001  10.140   4.133   1.429  0.5874  0.6340 -0.0887
   75MOL0     C10002  10.110   4.009   1.510  0.9717 -0.2686 -0.2984
   75MOL0     C10003  10.011   3.912   1.440  0.3276 -0.8050 -1.0233
   75MOL0     C10004   9.969   3.793   1.530 -0.5105 -0.1480 -0.5827
   75MOL0     C10005   9.849   3.711   1.468  0.3180 -0.0577 -0.2847
   75MOL0     C10006   9.889   3.609   1.357  0.1643 -0.1921 -0.3515
   75MOL0     N10007   9.803   3.499   1.319 -0.8007  0.8962  0.1115
   75MOL0     C10008   9.747   3.423   1.413 -0.3425  0.2593 -0.6161
   75MOL0     C10009   9.694   3.313   1.354  0.5603  0.9757  0.3194
   75MOL0     C10010   9.606   3.204   1.407 -0.2491 -0.8796  0.3502
   75MOL0     C10011   9.466   3.211   1.338 -0.1456  0.2249  0.2275
   75MOL0     C10012   9.464   3.137   1.206 -0.4437  0.3380 -0.2748
   75MOL0     C10013   9.324   3.106   1.144 -0.5315  0.6092 -0.1952
   75MOL0     O10014   9.238   3.022   1.224 -0.5685 -0.1244 -0.8384
   75MOL0     C10015   9.105   3.006   1.192 -0.2267  0.3955  0.0504
   75MOL0     C10016   9.016   2.970   1.287 -0.2461  0.1744 -0.1075
   75MOL0     C10017   8.889   2.939   1.261  0.6153 -0.3957 -0.4803
   75MOL0     C10018   8.803   2.887   1.370 -0.0969 -0.6301 -0.8784
   75MOL0     C10019   8.839   2.940   1.129 -0.4319  0.4148 -0.2966
   75MOL0     C10020   8.692   2.910   1.091  0.6956  0.0533 -0.1728
   75MOL0     O10021   8.648   2.967   0.969 -0.0446  0.3092  0.0982
   75MOL0     C10022   8.526   2.946   0.918  0.3379 -0.1228  0.2440
   75MOL0     C10023   8.404   2.939   0.996  0.0605  0.0106  0.9015
   75MOL0     C10024   8.279   2.932   0.926 -0.8125 -0.4479 -0.3081
   75MOL0     C10025   8.283   2.914   0.784 -0.7338 -0.5338 -0.3230
   75MOL0     O10026   8.166   2.901   0.720 -0.5222  0.8140  0.9904
   75MOL0     C10027   8.136   2.768   0.668  0.7462 -0.1363 -0.3533
   75MOL0     C10028   8.003   2.770   0.604  0.1789  0.3951  0.6578
   75MOL0     C10029   7.898   2.768   0.707  0.4019 -0.2606  0.7610
   75MOL0     C10030   7.765   2.730   0.639 -0.6854 -0.7398  0.0683
   75MOL0     C10031   7.645   2.794   0.713 -0.6106  0.3145 -0.3107
   75MOL0     C10032   7.522   2.769   0.614 -0.5160  0.1217  0.6304
   75MOL0     C10033   7.480   2.624   0.599  0.0260  0.1345  0.5410
   75MOL0     C10034   7.392   2.569   0.709 -0.7954  0.7354 -0.3358
   75MOL0    Cl10035   7.487   2.548   0.850  0.0587 -0.4106  0.0517
   75MOL0     C10036   8.403   2.918   0.712  1.1449  0.3049  0.5896
   75MOL0     C10037   8.520   2.940   0.785  0.3856 -1.1917  0.2205
   75MOL0     O10038   8.624   2.836   1.158  0.1269  0.0217  0.0392
   75MOL0     C10039   8.928   2.970   1.026  0.0926  0.2548 -0.4390
   75MOL0     C10040   9.062   2.998   1.058 -0.4774  0.3355 -0.8800
   75MOL0     N10041   9.730   3.326   1.219 -0.1852  0.5092  0.4010
   75MOL0     N10042   9.796   3.439   1.203  0.5754 -0.7258  0.4966
   75MOL0     C10043   9.619   4.219   1.398  0.2159  0.8193  0.3401
   75MOL0     C10044   9.482   4.187   1.375 -0.4957 -0.4702  0.3056
   75MOL0     C10045   9.065   3.986   1.472  0.8945 -0.1009 -0.0669
   75MOL0     C10046   9.026   3.921   1.354 -0.4651 -0.1563  0.8394
   75MOL0     C10047   8.890   3.887   1.331 -0.1335  0.2755 -0.0063
   75MOL0     C10048   8.791   3.924   1.423  0.2732 -0.8575  0.1224
   75MOL0     O10049   8.659   3.902   1.410  0.1978  0.2288 -0.3639
   75MOL0     C10050   8.619   3.919   1.279  0.7273 -0.4533  0.3595
   75MOL0     C10051   8.466   3.927   1.270  0.4610 -0.6456 -0.0031
   75MOL0     C10052   8.393   3.793   1.271  0.0138  0.6821  0.4790
   75MOL0     C10053   8.298   3.773   1.151 -0.0870  0.7454 -0.6846
   75MOL0     C10054   8.217   3.654   1.173 -0.0735 -0.0490  0.6552
   75MOL0     C10055   8.135   3.571   1.181 -0.0680  0.5329 -0.3009
   75MOL0     C10056   8.828   3.992   1.535 -0.4598 -0.4557 -0.0466
   75MOL0     C10057   8.967   4.025   1.555  0.0561 -0.4348  1.0280
   75MOL0     H10058   9.475   3.882   1.527  1.1156 -0.2734 -0.3313
   75MOL0     H10059   9.709   3.954   1.597  0.8511 -0.0820 -0.5372
   75MOL0     H10060   9.914   4.190   1.329 -2.8880  1.3583 -0.3559
   75MOL0     H10061   9.858   4.338   1.411 -0.6910  1.0005  1.3113
   75MOL0     H10062  10.106   4.337   1.428  0.5714 -2.7859 -1.9918
   75MOL0     H10063  10.067   4.269   1.589 -2.0122  0.9099 -0.0780
   75MOL0     H10064  10.127   4.118   1.321 -2.7201 -2.5167  0.5266
   75MOL0     H10065  10.245   4.148   1.455 -0.1321  0.9675  2.9903
   75MOL0     H10066  10.205   3.960   1.534  0.5609 -1.5404 -1.1527
   75MOL0     H10067  10.071   4.040   1.607  2.5225 -0.6747  0.4858
   75MOL0     H10068   9.921   3.971   1.424  1.7064  1.6194 -0.3048
   75MOL0     H10069  10.056   3.873   1.348 -1.5407 -1.0078 -1.8896
   75MOL0     H10070  10.061   3.738   1.553 -0.8194 -0.8136 -0.9241
   75MOL0     H10071   9.932   3.843   1.620  0.5371  0.0809 -0.2665
   75MOL0     H10072   9.807   3.655   1.553  3.0559  2.1006  2.7654
   75MOL0     H10073   9.771   3.783   1.445  1.5556  2.6180  3.0439
   75MOL0     H10074   9.989   3.571   1.380  0.2702 -0.2919 -0.9428
   75MOL0     H10075   9.918   3.664   1.267  2.0061  0.1726  0.4160
   75MOL0     H10076   9.750   3.455   1.517 -1.4662 -1.7391  0.0814
   75MOL0     H10077   9.647   3.103   1.403  0.1745 -0.6737 -1.3665
   75MOL0     H10078   9.584   3.240   1.508 -1.3837 -0.2535 -0.0991
   75MOL0     H10079   9.429   3.312   1.319  1.7433  0.5613 -2.0694
   75MOL0     H10080   9.402   3.163   1.413 -1.8981  1.3607 -0.4800
   75MOL0     H10081   9.515   3.042   1.226 -1.7765 -0.3513 -0.0510
   75MOL0     H10082   9.532   3.188   1.138  1.0181 -0.4348  0.5470
   75MOL0     H10083   9.342   3.070   1.043  1.8675 -1.3247  0.8256
   75MOL0     H10084   9.271   3.202   1.139 -0.8869  0.4709  0.6639
   75MOL0     H10085   9.042   2.978   1.392  0.1178  0.7454 -0.2358
   75MOL0     H10086   8.706   2.938   1.377  0.8371  1.4857 -2.1590
   75MOL0     H10087   8.774   2.784   1.351  2.9119 -1.2239 -2.9154
   75MOL0     H10088   8.852   2.888   1.468 -2.8618 -1.0831  0.5968
   75MOL0     H10089   8.409   2.963   1.102  1.9854  1.6648  0.5167
   75MOL0     H10090   8.185   2.932   0.980 -0.4317  1.3912  0.4207
   75MOL0     H10091   8.208   2.738   0.592 -0.6116  0.7831 -2.0632
   75MOL0     H10092   8.139   2.700   0.754 -2.2893 -1.4222 -1.1619
   75MOL0     H10093   7.996   2.853   0.534 -0.4802  0.2569  0.5534
   75MOL0     H10094   7.992   2.676   0.549 -2.3152  1.1916 -0.3408
   75MOL0     H10095   7.893   2.867   0.754 -1.3754  0.1602 -0.1962
   75MOL0     H10096   7.922   2.704   0.792  0.3321 -0.5593  0.5571
   75MOL0     H10097   7.766   2.771   0.537 -0.2068  1.6969  0.9803
   75MOL0     H10098   7.762   2.621   0.640  0.1284 -0.8971 -3.1382
   75MOL0     H10099   7.664   2.900   0.731 -1.5273  0.1209  2.1341
   75MOL0     H10100   7.628   2.751   0.812  0.4594 -0.3968 -0.4165
   75MOL0     H10101   7.430   2.822   0.642 -0.3082  0.0059  1.5733
   75MOL0     H10102   7.553   2.805   0.516  1.0488  0.0538  1.0764
   75MOL0     H10103   7.558   2.553   0.571  0.1900  0.8949 -1.0272
   75MOL0     H10104   7.420   2.622   0.508  1.5704 -0.1215 -0.5083
   75MOL0     H10105   7.355   2.469   0.682  0.1973  0.6286 -1.3383
   75MOL0     H10106   7.312   2.643   0.716 -0.0737  1.4625  0.4058
   75MOL0     H10107   8.404   2.913   0.604  1.0788  0.4070  0.5847
   75MOL0     H10108   8.612   2.942   0.726  1.5127 -2.5530  1.8171
   75MOL0     H10109   8.903   2.957   0.921 -1.4552 -2.1469  0.1504
   75MOL0     H10110   9.135   3.024   0.982 -2.0949  0.5514 -2.4154
   75MOL0     H10111   9.657   4.302   1.340  0.0112 -1.5351 -3.4759
   75MOL0     H10112   9.422   4.257   1.318  3.2458  0.7703 -2.5451
   75MOL0     H10113   9.102   3.896   1.281 -0.5128  4.6991 -1.1886
   75MOL0     H10114   8.860   3.837   1.239  2.1429  1.5317 -1.5462
   75MOL0     H10115   8.668   4.013   1.252  0.3897  0.2148  1.9472
   75MOL0     H10116   8.644   3.834   1.215  0.0592  0.3327 -0.9920
   75MOL0     H10117   8.444   3.982   1.177  2.3228 -0.3492 -0.3161
   75MOL0     H10118   8.440   3.995   1.352  0.6653 -0.8645  0.2441
   75MOL0     H10119   8.323   3.785   1.355 -1.8079 -0.2258 -1.0444
   75MOL0     H10120   8.465   3.712   1.281 -2.6756 -2.0846 -0.7755
   75MOL0     H10121   8.362   3.765   1.063  1.0735  1.0029  0.1089
   75MOL0     H10122   8.227   3.857   1.150 -0.2417  0.6347  0.3012
   75MOL0     H10123   8.047   3.509   1.175  0.9424 -0.9598 -0.1609
   75MOL0     H10124   8.748   4.015   1.604  1.0449 -0.3614  1.7475
   75MOL0     H10125   8.987   4.074   1.650  1.0231  0.3379  0.4415
   76MOL0     O10126   1.729   9.191   4.339 -0.2212 -0.3270  0.0153
   76MOL0     C10127   1.670   9.283   4.384 -0.3426  0.6045 -0.2844
   76MOL0     O10128   1.711   9.373   4.473  0.3113  0.0327  0.6742
   76MOL0     C10129   1.840   9.368   4.513 -0.2330  0.0979 -0.0270
   76MOL0     C10130   1.868   9.277   4.612  0.3746 -0.6109  0.1075
   76MOL0     C10131   1.997   9.266   4.665  0.8099 -0.0599  0.4428
   76MOL0     C10132   2.098   9.348   4.614 -0.3903 -0.2987 -0.7369
   76MOL0     O10133   2.234   9.323   4.630 -0.3473 -0.6767 -0.2682
   76MOL0     C10134   2.261   9.229   4.739 -0.2479 -0.4368 -0.9017
   76MOL0     C10135   2.417   9.230   4.759 -0.5056 -0.3134 -0.0352
   76MOL0     C10136   2.464   9.142   4.867 -0.1080  0.2911  0.0334
   76MOL0     C10137   2.442   8.998   4.828  0.5112 -0.3112  0.3633
   76MOL0     C10138   2.469   8.896   4.937 -0.2696 -0.4218 -0.5974
   76MOL0     C10139   2.389   8.923   5.069  0.8590  0.0193 -0.1625
   76MOL0     C10140   2.234   8.924   5.045 -0.5720  0.2375  0.0970
   76MOL0     C10141   2.163   8.946   5.174  0.4893  0.7999  0.5517
   76MOL0     N10142   2.018   8.958   5.149 -0.8905 -0.2864  0.8572
   76MOL0     C10143   1.950   9.065   5.096 -0.1460  0.3185 -0.2601
   76MOL0     C10144   1.824   9.036   5.124 -0.6980  0.4257 -0.2106
   76MOL0     C10145   1.710   9.129   5.105 -0.5525  0.0980 -0.1807
   76MOL0     C10146   1.628   9.080   4.984  0.0864 -0.2435 -0.0279
   76MOL0     C10147   1.508   9.171   4.948  0.5633 -0.2815 -0.1769
   76MOL0     C10148   1.390   9.152   5.044  0.3110 -0.4095 -0.1679
   76MOL0     O10149   1.284   9.239   4.995  0.1625  0.2237  0.1534
   76MOL0     C10150   1.161   9.238   5.065 -0.3621  0.7881 -0.5255
   76MOL0     C10151   1.074   9.334   5.021  0.0168  0.4225  0.5183
   76MOL0     C10152   0.949   9.351   5.082  0.4730  0.9234 -0.0571
   76MOL0     C10153   0.857   9.447   5.013  0.0865 -0.0975  0.5815
   76MOL0     C10154   0.925   9.281   5.207  0.4449  0.3025  0.8497
   76MOL0     C10155   0.809   9.313   5.291  0.0141 -0.2289  0.4194
   76MOL0     O10156   0.779   9.223   5.390  0.6611 -0.3370  0.2923
   76MOL0     C10157   0.648   9.221   5.428  0.3711 -0.9933  0.2058
   76MOL0     C10158   0.573   9.122   5.365 -0.0946 -1.2393  0.0237
   76MOL0     C10159   0.441   9.107   5.397  0.1101  0.0871  1.3164
   76MOL0     C10160   0.373   9.179   5.495  0.0836 -0.9760 -0.2863
   76MOL0     O10161   0.241   9.166   5.534  0.7598  0.5290  0.2515
   76MOL0     C10162   0.134   9.124   5.432 -0.1169  0.8992 -0.6133
   76MOL0     C10163   0.001   9.138   5.501 -0.5757  0.1532  0.7997
   76MOL0     C10164  -0.115   9.097   5.416  0.4879 -0.5974 -0.4016
   76MOL0     C10165  -0.236   9.117   5.515  0.3654  0.3477 -0.2204
   76MOL0     C10166  -0.380   9.112   5.442 -0.1354 -0.4424  0.1258
   76MOL0     C10167  -0.403   8.968   5.387 -0.6724  0.1504  0.1484
   76MOL0     C10168  -0.523   8.972   5.291  0.2836  0.7055 -0.3018
   76MOL0     C10169  -0.569   8.844   5.210 -0.2563 -0.2022 -0.3786
   76MOL0    Cl10170  -0.436   8.778   5.100 -0.1693 -0.1393 -0.1660
   76MOL0     C10171   0.432   9.294   5.540  0.0523  0.0548  0.3487
   76MOL0     C10172   0.573   9.315   5.518  0.5214 -0.5898  0.1642
   76MOL0     O10173   0.734   9.403   5.255 -0.0014 -0.2803  0.1279
   76MOL0     C10174   1.015   9.179   5.245 -0.5776  0.2556 -0.2383
   76MOL0     C10175   1.131   9.156   5.175  0.2651 -0.7763 -0.5231
   76MOL0     N10176   1.812   8.910   5.186 -0.0611 -0.8371 -0.3416
   76MOL0     N10177   1.928   8.865   5.200  0.6874  0.1476  0.0982
   76MOL0     C10178   2.074   9.429   4.497 -0.0666  0.4728 -0.6602
   76MOL0     C10179   1.941   9.444   4.452  0.0033  0.3883  0.1539
   76MOL0     C10180   1.524   9.292   4.338 -0.2320 -0.0736  0.0394
   76MOL0     C10181   1.432   9.378   4.400  0.1612 -0.6579 -0.3132
   76MOL0     C10182   1.292   9.389   4.361 -0.6079  0.0464 -0.1081
   76MOL0     C10183   1.246   9.313   4.255 -0.5612 -0.0120  0.4455
   76MOL0     O10184   1.106   9.318   4.232  0.7241  0.2963 -0.2978
   76MOL0     C10185   1.049   9.225   4.144 -0.4499  0.2756  0.4543
   76MOL0     C10186   0.903   9.248   4.105 -0.6119 -0.2291 -0.5087
   76MOL0     C10187   0.884   9.384   4.039  0.7438  0.8256 -0.5194
   76MOL0     C10188   0.745   9.391   3.974 -0.6439 -0.0210  0.0037
   76MOL0     C10189   0.636   9.390   4.069 -0.0469 -0.1009  0.3156
   76MOL0     C10190   0.556   9.393   4.157 -1.0254 -0.4575 -0.5804
   76MOL0     C10191   1.345   9.231   4.188  0.1370 -0.4502 -0.3354
   76MOL0     C10192   1.479   9.223   4.231 -0.2575 -0.8506  0.4180
   76MOL0     H10193   1.785   9.213   4.640 -1.4921  2.0657  1.0982
   76MOL0     H10194   2.014   9.207   4.755 -0.1575  1.1190  1.4463
   76MOL0     H10195   2.209   9.266   4.828  0.5984  0.8112 -0.9046
   76MOL0     H10196   2.221   9.131   4.710  0.1949 -0.7669 -0.4124
   76MOL0     H10197   2.462   9.200   4.664 -0.5636 -0.8081  0.0935
   76MOL0     H10198   2.446   9.335   4.773 -0.9598 -0.3259  1.1720
   76MOL0     H10199   2.568   9.164   4.895  0.3686  1.0529 -2.1498
   76MOL0     H10200   2.400   9.176   4.949 -0.0200  2.6525 -0.7829
   76MOL0     H10201   2.336   8.983   4.804  0.1169  0.2632  1.6436
   76MOL0     H10202   2.496   8.959   4.741 -1.9105 -0.2415 -1.2893
   76MOL0     H10203   2.462   8.794   4.899  2.1680 -0.6206 -0.6779
   76MOL0     H10204   2.573   8.901   4.972 -1.3269  2.5125  2.7721
   76MOL0     H10205   2.402   8.837   5.135  1.5345  2.5673  3.3392
   76MOL0     H10206   2.419   9.013   5.123  0.4263 -0.1425  0.3539
   76MOL0     H10207   2.207   9.006   4.979  1.2050  0.8483  0.0640
   76MOL0     H10208   2.206   8.823   5.013  2.0169 -1.8641  3.5680
   76MOL0     H10209   2.205   9.037   5.218  0.6100  0.4672  1.1316
   76MOL0     H10210   2.180   8.867   5.248 -1.1485 -0.4792 -0.3845
   76MOL0     H10211   1.985   9.158   5.054  1.2274  0.5921  1.3731
   76MOL0     H10212   1.650   9.145   5.195 -0.1425  0.0133  0.1101
   76MOL0     H10213   1.746   9.232   5.096  4.2203 -1.1416  1.7437
   76MOL0     H10214   1.601   8.974   4.990  0.0738 -0.1608  2.7758
   76MOL0     H10215   1.705   9.090   4.907  2.6409  0.6443  2.5017
   76MOL0     H10216   1.477   9.143   4.847 -1.3574 -2.4771  0.9160
   76MOL0     H10217   1.548   9.272   4.937  0.9888 -0.0874  2.4650
   76MOL0     H10218   1.415   9.178   5.147  0.9869  1.4175 -0.7438
   76MOL0     H10219   1.355   9.049   5.043  0.4205 -0.4470 -1.2210
   76MOL0     H10220   1.107   9.385   4.931  3.7292 -3.2899 -0.5211
   76MOL0     H10221   0.892   9.473   4.912 -1.0295 -1.8968 -0.3022
   76MOL0     H10222   0.762   9.399   4.989  0.4974 -3.0815  4.1026
   76MOL0     H10223   0.849   9.544   5.062 -0.8605 -0.0527  0.3478
   76MOL0     H10224   0.625   9.060   5.293  0.1762 -0.8812 -0.0898
   76MOL0     H10225   0.396   9.016   5.357  2.2679 -0.8580  0.8868
   76MOL0     H10226   0.128   9.187   5.342 -2.7688  2.3319  0.4757
   76MOL0     H10227   0.163   9.021   5.409 -0.6791  0.3520  0.9957
   76MOL0     H10228  -0.008   9.084   5.596 -0.7305  0.2080  0.8165
   76MOL0     H10229  -0.004   9.242   5.535 -0.6441  0.4949 -0.2177
   76MOL0     H10230  -0.094   8.995   5.382  0.9688 -1.3336  1.9663
   76MOL0     H10231  -0.138   9.158   5.328 -2.2842 -3.0519 -1.5506
   76MOL0     H10232  -0.238   9.048   5.599 -1.6025  1.6601  0.9027
   76MOL0     H10233  -0.233   9.213   5.568 -0.5370 -0.3045  1.0499
   76MOL0     H10234  -0.383   9.177   5.354 -2.6156  1.9393  1.7996
   76MOL0     H10235  -0.456   9.146   5.513  0.9290 -1.2509  1.7258
   76MOL0     H10236  -0.311   8.941   5.334 -0.9287  1.3758 -0.9443
   76MOL0     H10237  -0.414   8.899   5.472 -3.7815  1.7183  1.2032
   76MOL0     H10238  -0.521   9.058   5.224 -0.6394  1.3306  0.4659
   76MOL0     H10239  -0.612   8.995   5.350  1.2335 -0.1273  1.5621
   76MOL0     H10240  -0.659   8.851   5.148 -0.6497 -3.8623 -0.4691
   76MOL0     H10241  -0.588   8.762   5.280  0.6469  0.8588  1.1811
   76MOL0     H10242   0.363   9.357   5.596 -3.5824 -2.2041 -1.2213
   76MOL0     H10243   0.613   9.398   5.575 -2.1511  0.5704  0.5228
   76MOL0     H10244   0.982   9.118   5.329  2.2817  1.3540  1.8562
   76MOL0     H10245   1.194   9.072   5.201  1.7222  0.5574  0.4368
   76MOL0     H10246   2.150   9.486   4.444 -0.0728 -0.3363 -1.5847
   76MOL0     H10247   1.918   9.506   4.366  0.5542  0.9504  0.4010
   76MOL0     H10248   1.466   9.445   4.478  0.2911  0.0318 -0.9543
   76MOL0     H10249   1.232   9.457   4.421 -1.7181 -2.5621  1.9597
   76MOL0     H10250   1.110   9.228   4.053  1.9464 -3.0641  1.7832
   76MOL0     H10251   1.055   9.122   4.179  0.4180  0.1799  0.0385
   76MOL0     H10252   0.845   9.232   4.197 -0.1712 -3.7105 -0.6830
   76MOL0     H10253   0.867   9.174   4.033 -0.9302  0.4217 -1.0210
   76MOL0     H10254   0.967   9.387   3.967  2.1402  1.9272  1.0462
   76MOL0     H10255   0.887   9.469   4.108 -0.4244 -0.1262  0.7428
   76MOL0     H10256   0.737   9.307   3.904 -2.3634  1.3516 -1.5362
   76MOL0     H10257   0.734   9.486   3.922 -0.5785  1.6334  2.8126
   76MOL0     H10258   0.482   9.384   4.235 -0.5717  6.2309  1.2337
   76MOL0     H10259   1.300   9.175   4.107 -1.2019  0.3622 -0.1879
   76MOL0     H10260   1.548   9.163   4.171  0.2080  1.0877 -1.0847
   77MOL0     O10261  10.283   9.792   5.537  0.2226  0.2233  0.6096
   77MOL0     C10262  10.315   9.861   5.442 -0.4253  0.5778 -0.1561
   77MOL0     O10263  10.239   9.905   5.345 -0.4288  0.3035  0.2696
   77MOL0     C10264  10.106   9.872   5.360  0.7046 -0.3271  0.7381
   77MOL0     C10265  10.061   9.738   5.345 -0.2943  0.3463  0.1208
   77MOL0     C10266   9.926   9.708   5.331 -0.6067 -0.3225 -0.7611
   77MOL0     C10267   9.840   9.820   5.333  0.9527 -0.2550 -0.1233
   77MOL0     O10268   9.706   9.825   5.327 -0.1553 -0.3895 -0.2014
   77MOL0     C10269   9.639   9.698   5.302  0.5298 -0.1387  0.1513
   77MOL0     C10270   9.487   9.737   5.298  0.4083  0.7894 -0.1473
   77MOL0     C10271   9.419   9.613   5.240 -0.4265 -0.3095  0.4974
   77MOL0     C10272   9.267   9.616   5.258 -0.0152  0.0591 -0.3597
   77MOL0     C10273   9.202   9.487   5.227  0.7832 -0.1954  0.5023
   77MOL0     C10274   9.046   9.494   5.250  0.4019 -1.2864 -0.3484
   77MOL0     C10275   8.978   9.361   5.230  0.4085 -0.0095  0.0451
   77MOL0     C10276   8.837   9.349   5.294 -0.2750 -0.3397 -1.2751
   77MOL0     N10277   8.729   9.428   5.237 -0.2085  0.5100  0.7472
   77MOL0     C10278   8.628   9.478   5.313  0.1699  0.2379  0.4352
   77MOL0     C10279   8.544   9.529   5.221  0.1557  0.0539 -0.7896
   77MOL0     C10280   8.408   9.588   5.243 -0.7445 -0.3681  0.1816
   77MOL0     C10281   8.404   9.724   5.316 -0.3396  0.0807  0.0704
   77MOL0     C10282   8.264   9.771   5.360  0.3049  0.0247 -0.0354
   77MOL0     C10283   8.164   9.767   5.242  0.6480 -0.3266 -1.4598
   77MOL0     O10284   8.051   9.853   5.284 -0.2761 -0.1266 -0.2160
   77MOL0     C10285   7.932   9.820   5.223 -0.6272 -0.5046 -0.4382
   77MOL0     C10286   7.924   9.789   5.087  0.3673 -0.2985 -0.5504
   77MOL0     C10287   7.799   9.761   5.030  0.0733  0.0896 -0.0499
   77MOL0     C10288   7.797   9.724   4.884  0.2302  0.2476 -0.1164
   77MOL0     C10289   7.680   9.777   5.107 -0.3722  0.2675 -0.9730
   77MOL0     C10290   7.550   9.752   5.050  0.4900 -0.4938 -0.3762
   77MOL0     O10291   7.447   9.721   5.135 -0.2687  0.6960 -0.2388
   77MOL0     C10292   7.328   9.711   5.076  0.6543  0.3543  0.2665
   77MOL0     C10293   7.266   9.585   5.082 -0.1978  0.0609  0.0340
   77MOL0     C10294   7.127   9.575   5.058  0.0347 -0.1717  0.1264
   77MOL0     C10295   7.057   9.688   5.022 -0.1751  0.4297 -0.3089
   77MOL0     O10296   6.924   9.690   5.009  0.0434  0.1044 -0.4286
   77MOL0     C10297   6.848   9.567   4.982 -0.8639  0.4475  0.1015
   77MOL0     C10298   6.726   9.610   4.907  0.3570 -0.7889  0.2746
   77MOL0     C10299   6.661   9.492   4.834  0.4703 -0.2556  0.2938
   77MOL0     C10300   6.510   9.514   4.799 -0.4375  0.1496 -0.0745
   77MOL0     C10301   6.405   9.450   4.904  0.4854  0.2868 -0.1878
   77MOL0     C10302   6.257   9.455   4.870  0.0199 -0.4505 -0.4397
   77MOL0     C10303   6.217   9.601   4.833 -0.4016  0.5063 -0.4394
   77MOL0     C10304   6.067   9.605   4.806 -0.8311 -0.2837  0.0385
   77MOL0    Cl10305   6.031   9.786   4.808  0.0607 -0.1965  0.2645
   77MOL0     C10306   7.112   9.813   5.009 -1.2474 -0.1324 -0.3962
   77MOL0     C10307   7.249   9.820   5.036 -0.8581 -0.9241 -0.2932
   77MOL0     O10308   7.533   9.765   4.931 -0.4200 -0.0463 -0.3303
   77MOL0     C10309   7.695   9.816   5.242  0.6961 -0.6495 -0.2159
   77MOL0     C10310   7.821   9.838   5.301 -0.0857 -0.3123 -0.5347
   77MOL0     N10311   8.593   9.491   5.093  0.1043  0.3320 -0.0294
   77MOL0     N10312   8.710   9.448   5.100 -0.1918 -0.1130 -0.4317
   77MOL0     C10313   9.885   9.953   5.364 -0.0007  0.5445 -0.0266
   77MOL0     C10314  10.015   9.973   5.381 -0.4629  0.0839  0.7083
   77MOL0     C10315  10.455   9.886   5.443 -0.1978  0.2892  0.0509
   77MOL0     C10316  10.538   9.874   5.553 -0.5616 -0.5790 -0.5439
   77MOL0     C10317  10.679   9.900   5.547  0.1714  0.2542  0.2053
   77MOL0     C10318  10.728   9.945   5.418 -0.1213  0.1377 -0.2704
   77MOL0     O10319  10.858   9.992   5.413 -0.0205  0.1300 -0.1180
   77MOL0     C10320  10.953   9.915   5.347 -0.4268  0.7232  0.9110
   77MOL0     C10321  11.062   9.869   5.444 -0.9060 -0.0018 -0.0786
   77MOL0     C10322  11.187   9.825   5.384  0.3823  0.2456  0.2640
   77MOL0     C10323  11.181   9.718   5.273 -0.0729  1.3017 -1.0527
   77MOL0     C10324  11.122   9.587   5.327 -0.8136  0.1409  0.4175
   77MOL0     C10325  11.067   9.493   5.386  0.5387  0.2923 -0.5923
   77MOL0     C10326  10.646   9.951   5.309 -0.2740 -0.4033  0.2691
   77MOL0     C10327  10.515   9.916   5.317  0.2421  0.8950  0.5322
   77MOL0     H10328  10.133   9.658   5.363 -1.4372 -0.0599  3.7088
   77MOL0     H10329   9.892   9.606   5.315 -0.4917 -0.6786  1.0519
   77MOL0     H10330   9.659   9.649   5.206  1.6665 -0.6160  0.6187
   77MOL0     H10331   9.659   9.635   5.388 -3.1708  2.6283  3.4274
   77MOL0     H10332   9.449   9.767   5.396  0.7312 -0.9713  0.5381
   77MOL0     H10333   9.469   9.828   5.239 -2.6064  0.0054 -0.5752
   77MOL0     H10334   9.435   9.604   5.132 -1.9044 -0.7258  0.2972
   77MOL0     H10335   9.463   9.525   5.288  0.3764  0.0838  0.5065
   77MOL0     H10336   9.252   9.639   5.364 -1.1057  0.6945 -0.6358
   77MOL0     H10337   9.224   9.689   5.189 -2.5316 -2.7300 -1.9929
   77MOL0     H10338   9.230   9.465   5.124 -0.5921 -0.2409  0.1265
   77MOL0     H10339   9.238   9.408   5.293  3.1199  0.7078  0.4365
   77MOL0     H10340   9.029   9.521   5.354  0.2864 -3.7567  0.3424
   77MOL0     H10341   8.996   9.563   5.181  2.3956 -0.1853 -0.7694
   77MOL0     H10342   8.975   9.335   5.123  1.1439 -1.6490  0.3963
   77MOL0     H10343   9.031   9.284   5.286 -3.3152 -2.1232  1.0336
   77MOL0     H10344   8.852   9.373   5.400 -3.3736  0.9110 -1.0261
   77MOL0     H10345   8.820   9.242   5.289 -0.4948 -0.2965 -1.4349
   77MOL0     H10346   8.612   9.479   5.420 -1.3534  2.3379  0.2452
   77MOL0     H10347   8.373   9.614   5.143 -1.1865  2.7186  1.0274
   77MOL0     H10348   8.339   9.514   5.284 -1.2419 -0.8364 -1.4494
   77MOL0     H10349   8.444   9.804   5.254 -1.4380  0.0207 -0.7352
   77MOL0     H10350   8.467   9.724   5.406  0.3860  1.3083 -0.4200
   77MOL0     H10351   8.271   9.872   5.402  0.0375 -0.0237  0.1244
   77MOL0     H10352   8.235   9.707   5.443 -3.8737 -0.9850 -2.0260
   77MOL0     H10353   8.124   9.666   5.229 -1.3581 -0.1941  2.3172
   77MOL0     H10354   8.213   9.803   5.151  2.0691  2.6474  0.3287
   77MOL0     H10355   8.015   9.784   5.028 -0.9096 -0.9702 -2.5630
   77MOL0     H10356   7.718   9.649   4.877 -1.6114  2.0598  0.3173
   77MOL0     H10357   7.762   9.813   4.831 -1.7885  0.1435  0.9436
   77MOL0     H10358   7.893   9.690   4.843  0.8735  1.4504  0.3132
   77MOL0     H10359   7.314   9.499   5.127 -2.7018 -0.2120  2.5048
   77MOL0     H10360   7.074   9.482   5.074  0.1225 -0.1784  0.3737
   77MOL0     H10361   6.902   9.494   4.922  0.3566 -0.8658  2.6311
   77MOL0     H10362   6.809   9.522   5.074  0.7753  0.9742  1.0990
   77MOL0     H10363   6.652   9.669   4.962 -0.3907  0.8926 -2.3369
   77MOL0     H10364   6.750   9.681   4.827 -1.5972  0.9571  1.1463
   77MOL0     H10365   6.668   9.405   4.899  0.9654  1.0868  2.1259
   77MOL0     H10366   6.718   9.467   4.744  2.5711  0.6334  1.3319
   77MOL0     H10367   6.495   9.622   4.785 -1.3634  0.1433  0.7395
   77MOL0     H10368   6.491   9.467   4.702  0.8290 -0.0477 -0.2390
   77MOL0     H10369   6.434   9.511   4.990  4.8147 -0.6257 -0.7271
   77MOL0     H10370   6.440   9.348   4.922  1.8533  0.8528  0.5104
   77MOL0     H10371   6.245   9.389   4.784 -0.1484  0.8571 -1.4628
   77MOL0     H10372   6.198   9.417   4.953  1.6228 -1.5113  0.2578
   77MOL0     H10373   6.265   9.642   4.744 -0.3722 -0.7842 -1.0369
   77MOL0     H10374   6.237   9.668   4.918  2.0290 -3.1929  2.2124
   77MOL0     H10375   6.015   9.557   4.890 -1.7874  0.3411 -0.1927
   77MOL0     H10376   6.039   9.553   4.714  1.2284 -4.5047  1.4891
   77MOL0     H10377   7.060   9.907   4.999 -0.5609  0.0820 -2.3786
   77MOL0     H10378   7.300   9.916   5.036  0.4744 -1.5724  1.4663
   77MOL0     H10379   7.604   9.842   5.296  0.8552  2.7888 -1.3663
   77MOL0     H10380   7.824   9.871   5.404 -0.4911 -0.1353 -0.5781
   77MOL0     H10381   9.822  10.040   5.348  1.6300  1.7889  0.0858
   77MOL0     H10382  10.051  10.075   5.390 -1.8844  0.8258 -1.2983
   77MOL0     H10383  10.496   9.832   5.645  0.5536 -2.9985 -1.0554
   77MOL0     H10384  10.742   9.884   5.634 -0.3773  1.0701  0.7724
   77MOL0     H10385  10.905   9.821   5.321  1.4479 -0.6866  2.3097
   77MOL0     H10386  10.980   9.965   5.253 -3.5101 -1.8757 -1.5912
   77MOL0     H10387  11.019   9.785   5.499  4.6331 -4.1925 -1.1236
   77MOL0     H10388  11.085   9.948   5.515 -0.0169  2.2800 -2.7122
   77MOL0     H10389  11.240   9.788   5.472 -1.2350 -1.3977  0.6142
   77MOL0     H10390  11.244   9.909   5.342 -0.4821  1.5150  1.5288
   77MOL0     H10391  11.282   9.688   5.244  0.3150  2.2894 -0.7535
   77MOL0     H10392  11.135   9.743   5.177 -2.4685  0.5184 -0.1799
   77MOL0     H10393  11.010   9.412   5.426 -0.1885 -0.5023 -3.0570
   77MOL0     H10394  10.697   9.982   5.219 -1.6594  2.5303  0.3933
   77MOL0     H10395  10.453   9.918   5.227 -0.6024 -0.6137  1.0501
   78MOL0     O10396   7.549   9.553   1.558  0.0929  0.1310  1.1584
   78MOL0     C10397   7.646   9.472   1.563 -0.0037  0.3131  1.0185
   78MOL0     O10398   7.635   9.345   1.599  0.4247 -1.0394 -0.0713
   78MOL0     C10399   7.519   9.280   1.623  0.1082  0.0681  0.1077
   78MOL0     C10400   7.427   9.327   1.719  0.3438  0.3782  0.0092
   78MOL0     C10401   7.303   9.259   1.748 -0.2903  0.1579  0.1893
   78MOL0     C10402   7.263   9.154   1.669  0.2232  0.4433 -0.4878
   78MOL0     O10403   7.145   9.073   1.684 -0.0121 -0.0958  0.0725
   78MOL0     C10404   7.033   9.151   1.736 -0.4351  0.0898 -0.2167
   78MOL0     C10405   6.914   9.067   1.750  0.4007 -0.2510  0.4401
   78MOL0     C10406   6.926   8.969   1.870  0.1028 -0.3030  0.4883
   78MOL0     C10407   6.806   8.877   1.898  1.2198 -0.4964 -0.3029
   78MOL0     C10408   6.761   8.799   1.774  0.1340 -1.2195  0.0517
   78MOL0     C10409   6.661   8.679   1.799  0.0782 -0.3113  0.0542
   78MOL0     C10410   6.618   8.636   1.664 -0.1185  0.3688 -0.3952
   78MOL0     C10411   6.543   8.499   1.688 -0.6593  0.0867 -0.1232
   78MOL0     N10412   6.498   8.445   1.562  0.1083  0.1668 -0.0232
   78MOL0     C10413   6.576   8.397   1.462 -0.7518 -0.1299 -0.2509
   78MOL0     C10414   6.492   8.377   1.357  0.3286 -0.6818  0.6605
   78MOL0     C10415   6.526   8.353   1.210 -0.1264  0.1104  0.8925
   78MOL0     C10416   6.408   8.337   1.120  0.3744  0.0703  0.4990
   78MOL0     C10417   6.436   8.325   0.974  0.4696 -0.4309  0.7161
   78MOL0     C10418   6.445   8.188   0.926 -0.1723  0.5425 -0.7625
   78MOL0     O10419   6.569   8.125   0.954  0.5074 -0.0558 -0.5551
   78MOL0     C10420   6.676   8.171   0.897 -0.3752 -0.5088 -0.8900
   78MOL0     C10421   6.791   8.214   0.973  0.9918  0.2841  0.0215
   78MOL0     C10422   6.908   8.261   0.908 -0.4743  0.5271  0.7688
   78MOL0     C10423   7.022   8.297   1.001 -0.1474  0.3080  1.0411
   78MOL0     C10424   6.920   8.252   0.772  0.0720 -0.1579  0.4289
   78MOL0     C10425   7.040   8.287   0.684  1.0790  0.5601  0.5219
   78MOL0     O10426   7.141   8.357   0.742  0.3311 -0.5597  0.3316
   78MOL0     C10427   7.245   8.392   0.660  0.3020  0.1356  0.3217
   78MOL0     C10428   7.286   8.518   0.658  0.4065 -0.9461 -0.0160
   78MOL0     C10429   7.394   8.561   0.581  1.1731  1.1295 -0.0778
   78MOL0     C10430   7.472   8.470   0.521  0.5301 -0.1330 -0.3220
   78MOL0     O10431   7.583   8.524   0.457  1.1876 -0.1205 -0.1216
   78MOL0     C10432   7.690   8.437   0.441  0.3011 -0.5846  0.6801
   78MOL0     C10433   7.791   8.514   0.360 -0.2428 -0.1767 -0.3798
   78MOL0     C10434   7.933   8.444   0.365 -0.1075  0.8472 -0.9272
   78MOL0     C10435   8.043   8.517   0.292  0.2576 -0.3144 -0.4965
   78MOL0     C10436   8.173   8.436   0.274 -0.0819  0.1831  1.2735
   78MOL0     C10437   8.295   8.524   0.234 -0.4273  0.3255  0.1434
   78MOL0     C10438   8.418   8.426   0.227 -0.2274 -0.6047  0.4847
   78MOL0     C10439   8.550   8.509   0.237 -0.5294 -0.7507 -0.6536
   78MOL0    Cl10440   8.569   8.555   0.412  0.0609  0.0024 -0.1905
   78MOL0     C10441   7.438   8.329   0.522  0.6369 -0.2358 -1.0528
   78MOL0     C10442   7.322   8.301   0.585  0.8529  0.7269 -0.3174
   78MOL0     O10443   7.033   8.260   0.563  0.0202 -0.4804 -0.4533
   78MOL0     C10444   6.807   8.210   0.699 -0.6387  0.0848 -0.4550
   78MOL0     C10445   6.684   8.178   0.762 -0.7992 -0.0574 -0.9739
   78MOL0     N10446   6.358   8.394   1.402 -0.3626 -0.6632 -0.2074
   78MOL0     N10447   6.366   8.439   1.525  0.1069  0.5466  0.0221
   78MOL0     C10448   7.351   9.112   1.564 -0.3773  1.4064 -0.4386
   78MOL0     C10449   7.484   9.168   1.547 -0.7819  0.2592  0.1220
   78MOL0     C10450   7.778   9.511   1.516  0.0685 -0.4434  0.1365
   78MOL0     C10451   7.885   9.420   1.484 -0.1540 -1.3315 -0.5440
   78MOL0     C10452   8.009   9.459   1.435  0.6112  0.2289 -0.1651
   78MOL0     C10453   8.029   9.596   1.439 -0.1061 -0.1960 -0.4810
   78MOL0     O10454   8.158   9.630   1.398  0.4890  0.3418  0.3458
   78MOL0     C10455   8.178   9.765   1.334  1.3366  0.1783  0.1546
   78MOL0     C10456   8.321   9.764   1.283 -1.0916  0.0691 -0.2941
   78MOL0     C10457   8.328   9.697   1.148  0.0776  0.1083 -0.0555
   78MOL0     C10458   8.467   9.695   1.087 -0.3680 -0.3197 -0.3344
   78MOL0     C10459   8.537   9.828   1.073 -0.0496  0.6255  0.0832
   78MOL0     C10460   8.583   9.940   1.052 -0.0771 -0.0405  0.0636
   78MOL0     C10461   7.933   9.693   1.468  0.7653  0.2623  0.1668
   78MOL0     C10462   7.808   9.650   1.505 -0.3037 -0.1337  0.1147
   78MOL0     H10463   7.458   9.408   1.785  0.8590 -0.6275  1.0409
   78MOL0     H10464   7.238   9.294   1.827 -0.8178  0.3569 -0.3262
   78MOL0     H10465   7.055   9.184   1.837  0.2010 -2.1369  0.4344
   78MOL0     H10466   7.025   9.241   1.674  0.7140  2.4957  2.8968
   78MOL0     H10467   6.838   9.145   1.760  2.0511  1.5881 -0.6281
   78MOL0     H10468   6.892   9.011   1.659  1.5275  2.9763 -2.0438
   78MOL0     H10469   7.018   8.910   1.868 -0.3959 -1.1204  1.0240
   78MOL0     H10470   6.943   9.029   1.960 -0.8440  0.2494  0.3107
   78MOL0     H10471   6.842   8.810   1.976 -0.5992  0.3537  1.3607
   78MOL0     H10472   6.718   8.935   1.929  0.9714 -0.3708 -1.1928
   78MOL0     H10473   6.725   8.870   1.700 -1.5917  1.7258  3.3911
   78MOL0     H10474   6.850   8.756   1.728 -1.2353 -0.7718 -3.3171
   78MOL0     H10475   6.719   8.595   1.837  0.1610 -0.5092 -0.5038
   78MOL0     H10476   6.582   8.712   1.867  1.5256  2.8720  0.3860
   78MOL0     H10477   6.547   8.710   1.626 -1.3268  0.1251  1.2802
   78MOL0     H10478   6.690   8.615   1.584  1.3137  0.6917  0.7700
   78MOL0     H10479   6.455   8.512   1.752 -0.9056 -0.5087 -0.3321
   78MOL0     H10480   6.605   8.420   1.732 -2.3997 -0.7299  0.9810
   78MOL0     H10481   6.682   8.381   1.480 -0.9658  0.8310  2.1110
   78MOL0     H10482   6.577   8.440   1.167  0.7849 -0.2647  1.2037
   78MOL0     H10483   6.588   8.264   1.201 -1.5885 -0.7772 -1.0438
   78MOL0     H10484   6.345   8.425   1.136  1.4065  1.0682 -0.7189
   78MOL0     H10485   6.356   8.245   1.148  2.9025 -1.5328  0.2057
   78MOL0     H10486   6.521   8.385   0.941  2.2992 -2.8026  0.7897
   78MOL0     H10487   6.344   8.368   0.934  0.3000  1.7934  3.2093
   78MOL0     H10488   6.424   8.187   0.819  0.9265  0.9746 -0.9964
   78MOL0     H10489   6.367   8.121   0.963  1.4044 -1.3009 -0.6791
   78MOL0     H10490   6.773   8.203   1.080 -2.6857 -0.2450 -0.5146
   78MOL0     H10491   7.046   8.403   0.990 -3.4507  1.2058  1.3293
   78MOL0     H10492   7.001   8.279   1.107 -1.6690  0.9088  0.8706
   78MOL0     H10493   7.109   8.233   0.984 -1.3242 -1.7819  2.3892
   78MOL0     H10494   7.239   8.604   0.705 -0.0959 -1.1743 -0.0966
   78MOL0     H10495   7.423   8.665   0.574  0.3973  1.3672  0.0612
   78MOL0     H10496   7.722   8.402   0.540 -2.8798  0.4107  2.1927
   78MOL0     H10497   7.657   8.348   0.386  0.7288 -1.2106  1.4170
   78MOL0     H10498   7.752   8.513   0.258  2.5900 -1.4023 -1.5762
   78MOL0     H10499   7.791   8.619   0.390 -0.9711  0.7319 -3.2241
   78MOL0     H10500   7.935   8.343   0.324  2.0578 -0.4149  1.9010
   78MOL0     H10501   7.967   8.442   0.470  0.9773 -1.0781 -1.2575
   78MOL0     H10502   7.999   8.547   0.196 -1.4635 -0.5505  0.1876
   78MOL0     H10503   8.057   8.612   0.344  1.6201  0.5350 -2.2831
   78MOL0     H10504   8.150   8.374   0.187 -1.1722 -0.4738  1.9918
   78MOL0     H10505   8.201   8.368   0.355  1.6380 -2.3277 -1.2718
   78MOL0     H10506   8.282   8.574   0.138 -0.4704 -2.6448 -1.5214
   78MOL0     H10507   8.300   8.594   0.318  2.1498  0.2944  0.0946
   78MOL0     H10508   8.420   8.371   0.133 -0.4200 -0.2526  0.2692
   78MOL0     H10509   8.416   8.334   0.285  2.1368 -3.6551 -3.7119
   78MOL0     H10510   8.532   8.600   0.180 -1.0675 -2.6152 -3.6770
   78MOL0     H10511   8.640   8.466   0.193  0.3884 -0.4656  0.8521
   78MOL0     H10512   7.501   8.252   0.478 -0.0494 -0.7976 -1.0757
   78MOL0     H10513   7.294   8.196   0.593 -3.1747  1.2408 -3.7797
   78MOL0     H10514   6.812   8.189   0.593  2.1444  2.0742 -0.8403
   78MOL0     H10515   6.612   8.135   0.693 -3.3884  0.0499  1.4979
   78MOL0     H10516   7.331   9.028   1.498  5.4602  1.5301 -3.0507
   78MOL0     H10517   7.547   9.115   1.477  0.2570 -0.7751  1.7670
   78MOL0     H10518   7.860   9.315   1.495 -2.3977 -0.6476  2.0250
   78MOL0     H10519   8.094   9.393   1.423  1.1430  1.2630 -2.5162
   78MOL0     H10520   8.110   9.779   1.249 -0.1485 -1.0417  1.0756
   78MOL0     H10521   8.163   9.840   1.412  1.0220  1.4523 -1.0803
   78MOL0     H10522   8.392   9.715   1.351 -0.6066 -1.9428 -2.1343
   78MOL0     H10523   8.348   9.867   1.258  0.7013 -0.2988 -0.0082
   78MOL0     H10524   8.262   9.741   1.072 -0.0719  1.0891  0.6238
   78MOL0     H10525   8.292   9.597   1.173  2.6903 -0.9366 -0.1263
   78MOL0     H10526   8.459   9.650   0.988  0.4510 -0.2516 -0.4428
   78MOL0     H10527   8.520   9.618   1.145  0.4673  0.8731  0.5414
   78MOL0     H10528   8.621  10.037   1.025 -2.1490  0.4342 -1.4528
   78MOL0     H10529   7.938   9.801   1.466  0.6328  0.3537 -3.6700
   78MOL0     H10530   7.737   9.728   1.532  0.6612  0.2603  1.6439
   79MOL0     O10531   4.814   2.707  10.603 -0.6126  0.2180  0.1840
   79MOL0     C10532   4.896   2.778  10.533  0.1364  0.1660  0.4191
   79MOL0     O10533   4.866   2.853  10.430  0.1324  0.7059 -0.8962
   79MOL0     C10534   4.736   2.849  10.395  0.5475  0.6648 -0.1125
   79MOL0     C10535   4.632   2.895  10.483 -0.2857 -0.6110  0.0933
   79MOL0     C10536   4.495   2.878  10.449 -0.0180  0.8748  0.7904
   79MOL0     C10537   4.468   2.829  10.321  0.3263  0.9229  0.0155
   79MOL0     O10538   4.334   2.828  10.290 -0.7498  0.7113  0.4355
   79MOL0     C10539   4.285   2.738  10.192 -0.4040  0.0873  0.0644
   79MOL0     C10540   4.137   2.771  10.163 -0.4157 -0.4129 -0.0118
   79MOL0     C10541   4.039   2.745  10.279  0.5868 -0.4179 -0.1055
   79MOL0     C10542   3.895   2.787  10.228 -0.1225 -0.4157 -0.0940
   79MOL0     C10543   3.790   2.788  10.333 -0.0156  0.2712  0.2749
   79MOL0     C10544   3.822   2.847  10.462 -0.1701  0.0967 -0.3131
   79MOL0     C10545   3.703   2.854  10.558  0.3339 -0.5897  0.7685
   79MOL0     C10546   3.603   2.965  10.536  0.4618 -0.6971 -0.1547
   79MOL0     N10547   3.496   2.963  10.635 -0.9242  0.4992 -0.3823
   79MOL0     C10548   3.504   2.945  10.775 -0.2794 -0.0724 -0.0684
   79MOL0     C10549   3.370   2.962  10.811 -0.5402  0.1721  0.1246
   79MOL0     C10550   3.320   2.942  10.948  0.3630  0.1391 -0.7061
   79MOL0     C10551   3.219   3.047  10.997 -0.6948  0.0515  0.6682
   79MOL0     C10552   3.167   3.025  11.134  0.6112  0.5456 -0.3177
   79MOL0     C10553   3.058   3.124  11.165 -0.3328 -0.3999 -0.5660
   79MOL0     O10554   2.993   3.114  11.293 -0.5798 -0.4381  0.3198
   79MOL0     C10555   2.863   3.088  11.282 -0.4991 -0.0892 -0.2087
   79MOL0     C10556   2.767   3.181  11.245 -0.7620 -0.8167  0.2549
   79MOL0     C10557   2.635   3.156  11.219 -0.3252 -0.5378 -1.0559
   79MOL0     C10558   2.552   3.263  11.159 -0.9927 -0.2612 -0.8260
   79MOL0     C10559   2.584   3.027  11.248 -0.0461  1.1218  0.6421
   79MOL0     C10560   2.440   2.986  11.250 -0.0216  0.2787 -0.4146
   79MOL0     O10561   2.346   3.079  11.243 -0.6181  0.1521  0.3343
   79MOL0     C10562   2.219   3.041  11.245  0.4078  0.3096  0.1941
   79MOL0     C10563   2.159   2.931  11.311  0.5997  0.6428 -0.2469
   79MOL0     C10564   2.022   2.899  11.296  0.3227 -0.4472  0.0780
   79MOL0     C10565   1.938   2.977  11.215 -0.6650  0.4937 -0.4725
   79MOL0     O10566   1.804   2.947  11.216 -0.6570 -1.0115 -0.0905
   79MOL0     C10567   1.727   2.981  11.101  0.7618  0.6933 -0.2601
   79MOL0     C10568   1.588   2.925  11.122  1.3817  0.2623 -0.4043
   79MOL0     C10569   1.486   2.961  10.999  0.2500  0.2372  0.0669
   79MOL0     C10570   1.335   2.958  11.033 -0.4354  0.3943  0.0640
   79MOL0     C10571   1.277   2.811  11.044  0.6857  0.9025 -0.5899
   79MOL0     C10572   1.129   2.805  11.075 -0.3837  0.6116  0.1598
   79MOL0     C10573   1.039   2.877  10.966 -0.2999  1.0682 -0.0933
   79MOL0     C10574   0.894   2.824  10.955 -0.1866 -0.2856  0.8531
   79MOL0    Cl10575   0.883   2.649  10.892 -0.9165 -0.5358 -0.0756
   79MOL0     C10576   1.987   3.090  11.155  1.4454  0.0380 -0.1124
   79MOL0     C10577   2.127   3.119  11.173 -0.0018  0.2605  0.2522
   79MOL0     O10578   2.418   2.863  11.238  0.3500  0.7289 -0.5101
   79MOL0     C10579   2.680   2.928  11.281  0.0482  0.3889 -0.5417
   79MOL0     C10580   2.819   2.956  11.302 -0.6200 -0.5750  0.6984
   79MOL0     N10581   3.293   3.006  10.705 -0.2116 -0.9455  0.3272
   79MOL0     N10582   3.376   3.007  10.605 -0.1218 -0.0466 -0.6129
   79MOL0     C10583   4.568   2.805  10.223  0.1056  0.5379 -0.2542
   79MOL0     C10584   4.699   2.808  10.264  0.2255  0.3157 -0.7329
   79MOL0     C10585   5.042   2.769  10.569  0.6018  0.1132 -0.2866
   79MOL0     C10586   5.074   2.665  10.670 -0.4467  0.5672  0.8250
   79MOL0     C10587   5.206   2.656  10.711 -0.2935 -0.4943  0.1325
   79MOL0     C10588   5.305   2.738  10.665 -0.2672 -0.5836  0.4537
   79MOL0     O10589   5.429   2.715  10.719 -0.0586 -0.4558  0.2812
   79MOL0     C10590   5.544   2.752  10.640  0.6725 -1.1636 -0.5474
   79MOL0     C10591   5.611   2.886  10.694 -0.4615  0.2612 -0.1486
   79MOL0     C10592   5.748   2.926  10.627 -0.2236  0.8674  0.0562
   79MOL0     C10593   5.729   2.948  10.472  0.0301  0.5704  0.1918
   79MOL0     C10594   5.850   3.007  10.424 -0.9485 -0.1864  0.0188
   79MOL0     C10595   5.958   3.054  10.379  0.6064  0.4566 -0.8391
   79MOL0     C10596   5.268   2.844  10.576 -0.4124 -0.0557  0.4191
   79MOL0     C10597   5.144   2.853  10.527 -0.4387 -0.7430 -0.9083
   79MOL0     H10598   4.661   2.921  10.584 -2.8827 -1.3707  1.1099
   79MOL0     H10599   4.423   2.900  10.527 -1.7214  0.4349 -0.6231
   79MOL0     H10600   4.338   2.759  10.099 -0.0496  0.9065  0.4409
   79MOL0     H10601   4.290   2.631  10.214 -1.1024  0.0494  0.0774
   79MOL0     H10602   4.138   2.879  10.151  0.6417 -0.2981  0.9842
   79MOL0     H10603   4.098   2.723  10.072  0.6614 -2.0465  0.3371
   79MOL0     H10604   4.034   2.642  10.313 -2.0291  0.3496  2.1747
   79MOL0     H10605   4.079   2.807  10.359  0.9033 -0.0268 -0.5580
   79MOL0     H10606   3.901   2.890  10.189  0.3127 -0.3726  0.0741
   79MOL0     H10607   3.870   2.718  10.147 -1.1962 -0.2442  0.0874
   79MOL0     H10608   3.697   2.822  10.286 -0.9030 -2.0553  0.1683
   79MOL0     H10609   3.773   2.682  10.354  1.7240  0.0599  0.7775
   79MOL0     H10610   3.898   2.778  10.500 -0.7572 -2.9541 -3.9865
   79MOL0     H10611   3.871   2.943  10.446 -1.6991  0.7811 -1.1060
   79MOL0     H10612   3.651   2.758  10.552 -1.3564  0.3619 -1.6577
   79MOL0     H10613   3.734   2.872  10.661 -3.0255  3.4095  1.3472
   79MOL0     H10614   3.558   2.955  10.437 -0.5372 -0.0766  0.2163
   79MOL0     H10615   3.655   3.061  10.531  0.5496 -0.4066  3.5521
   79MOL0     H10616   3.585   2.912  10.840 -0.0740 -0.7706 -0.6701
   79MOL0     H10617   3.262   2.850  10.950  1.7883 -0.8386 -2.0674
   79MOL0     H10618   3.410   2.933  11.010 -0.3091  1.1113  0.4638
   79MOL0     H10619   3.128   3.036  10.937 -0.2832 -0.8573  0.1877
   79MOL0     H10620   3.257   3.149  10.990 -1.7636  0.4346  0.0916
   79MOL0     H10621   3.251   3.023  11.204  1.2458 -4.4688 -0.8738
   79MOL0     H10622   3.130   2.922  11.139 -0.1018  0.7849 -0.5896
   79MOL0     H10623   2.981   3.138  11.088 -0.5442 -0.8602 -0.4447
   79MOL0     H10624   3.106   3.222  11.165 -0.3840 -0.3719 -0.2393
   79MOL0     H10625   2.809   3.279  11.227  0.9640 -1.2157  1.7573
   79MOL0     H10626   2.617   3.335  11.109 -0.9060 -0.7719 -1.4582
   79MOL0     H10627   2.474   3.223  11.094 -0.0213 -1.9807 -0.9682
   79MOL0     H10628   2.498   3.319  11.237  0.0856  0.6287 -0.7031
   79MOL0     H10629   2.215   2.857  11.369 -2.1287 -0.6720  0.8843
   79MOL0     H10630   1.979   2.808  11.335 -0.2226 -0.2573 -0.0707
   79MOL0     H10631   1.717   3.089  11.087  3.1528  1.3771  2.3993
   79MOL0     H10632   1.773   2.936  11.013 -0.2761  0.4333 -0.6867
   79MOL0     H10633   1.584   2.816  11.134 -0.4229  0.2153 -1.0138
   79MOL0     H10634   1.534   2.960  11.210 -2.8490 -2.4045 -1.6030
   79MOL0     H10635   1.508   2.882  10.926  0.3163  1.1485 -0.9322
   79MOL0     H10636   1.513   3.057  10.956 -0.2312  1.1736  1.7663
   79MOL0     H10637   1.321   3.011  11.128 -0.4136 -2.6104  1.8757
   79MOL0     H10638   1.276   3.014  10.960 -0.8349  1.0653  0.8781
   79MOL0     H10639   1.329   2.763  11.127 -0.2125  1.4281  0.2982
   79MOL0     H10640   1.297   2.762  10.948 -1.9886  0.7263 -1.1281
   79MOL0     H10641   1.089   2.704  11.065  0.6308  0.2700 -0.5762
   79MOL0     H10642   1.129   2.846  11.176  0.4468 -2.5836  1.5495
   79MOL0     H10643   1.084   2.849  10.870 -0.9409  1.3848 -0.4918
   79MOL0     H10644   1.040   2.986  10.977 -0.3285  1.4966 -3.2339
   79MOL0     H10645   0.833   2.887  10.891 -0.7978 -3.0612 -1.4883
   79MOL0     H10646   0.854   2.830  11.057 -2.0585  1.6110  0.0893
   79MOL0     H10647   1.917   3.154  11.103  1.2803 -0.0341  0.0215
   79MOL0     H10648   2.177   3.202  11.125  0.0617 -0.6849 -1.4043
   79MOL0     H10649   2.651   2.825  11.301 -0.0077  0.2772 -1.1857
   79MOL0     H10650   2.886   2.872  11.316 -0.9056 -0.6993  1.3288
   79MOL0     H10651   4.548   2.766  10.124  1.7171 -2.5161  0.5035
   79MOL0     H10652   4.782   2.798  10.195  0.4966  4.7918 -1.3415
   79MOL0     H10653   5.007   2.600  10.726 -0.8166  2.0430  2.1658
   79MOL0     H10654   5.229   2.576  10.781 -0.8960 -1.0408 -0.2741
   79MOL0     H10655   5.614   2.669  10.630 -0.5357 -2.3508  0.5294
   79MOL0     H10656   5.520   2.762  10.533 -1.2053 -4.8856 -0.6087
   79MOL0     H10657   5.621   2.883  10.803  2.2180  0.8299 -0.3149
   79MOL0     H10658   5.550   2.976  10.691  2.0615  2.1435  1.2263
   79MOL0     H10659   5.819   2.847  10.650 -1.4895 -0.2571  0.2469
   79MOL0     H10660   5.776   3.018  10.679 -0.5954  0.6941  0.5729
   79MOL0     H10661   5.640   3.009  10.459 -1.0548 -1.3869 -2.5422
   79MOL0     H10662   5.719   2.846  10.434  0.2381  0.3277  0.7841
   79MOL0     H10663   6.051   3.092  10.341  0.8119  0.2767 -0.5155
   79MOL0     H10664   5.332   2.915  10.527 -1.6265  1.5888  1.1028
   79MOL0     H10665   5.128   2.936  10.459  1.2184 -0.2417 -0.7274
   80MOL0     O10666   6.907   1.677   5.839  0.3771 -0.0938  0.2083
   80MOL0     C10667   6.933   1.642   5.724  0.1152  0.2187  0.2397
   80MOL0     O10668   6.843   1.569   5.642  0.4954  0.3753  0.1015
   80MOL0     C10669   6.711   1.558   5.678 -1.0742  0.0483 -0.8417
   80MOL0     C10670   6.633   1.667   5.707 -0.1113 -0.4295  0.0758
   80MOL0     C10671   6.509   1.639   5.760 -0.3287 -0.8987  0.2378
   80MOL0     C10672   6.451   1.519   5.762  0.2383  0.2304  0.2397
   80MOL0     O10673   6.316   1.507   5.780  0.1631 -0.4683 -0.3287
   80MOL0     C10674   6.237   1.426   5.691 -0.8591 -0.3981  0.3319
   80MOL0     C10675   6.097   1.406   5.747  0.5036 -0.2142  0.3350
   80MOL0     C10676   6.000   1.512   5.686 -0.5620 -0.0062 -0.7160
   80MOL0     C10677   5.857   1.479   5.735 -0.7493 -0.2800 -0.4101
   80MOL0     C10678   5.761   1.590   5.682  0.4544 -0.7129  0.4843
   80MOL0     C10679   5.619   1.555   5.711 -0.1103 -0.2916 -0.3312
   80MOL0     C10680   5.518   1.674   5.697 -0.1694  0.6964 -0.6543
   80MOL0     C10681   5.376   1.618   5.666 -0.1410  0.4250 -0.4248
   80MOL0     N10682   5.306   1.551   5.780  0.0864  0.2347  0.1202
   80MOL0     C10683   5.296   1.413   5.792 -0.6973  0.7010  0.6833
   80MOL0     C10684   5.192   1.395   5.880 -0.1342  1.0847  0.7492
   80MOL0     C10685   5.137   1.266   5.945 -1.2612 -0.0216  0.5062
   80MOL0     C10686   5.112   1.273   6.097 -0.5105  1.1114  0.1917
   80MOL0     C10687   5.075   1.124   6.138  0.4129 -0.8644 -0.0361
   80MOL0     C10688   5.003   1.134   6.267  0.8549  0.1638 -0.3290
   80MOL0     O10689   4.869   1.183   6.248  0.1431 -0.6978 -0.1556
   80MOL0     C10690   4.779   1.184   6.346 -0.2788 -0.8456  0.5742
   80MOL0     C10691   4.812   1.188   6.481 -0.1182 -0.0086 -0.0061
   80MOL0     C10692   4.711   1.201   6.585  0.3134  0.6149  0.4850
   80MOL0     C10693   4.770   1.190   6.724  0.1106 -0.3045  0.1841
   80MOL0     C10694   4.574   1.222   6.544  0.1314  0.0874  0.9149
   80MOL0     C10695   4.470   1.263   6.641  0.1085  0.3886  0.5123
   80MOL0     O10696   4.337   1.256   6.602 -0.6591  0.2111 -1.1388
   80MOL0     C10697   4.258   1.300   6.699  0.8061 -0.2454 -0.0021
   80MOL0     C10698   4.257   1.249   6.833 -0.1546  0.5990  0.4249
   80MOL0     C10699   4.171   1.309   6.929 -0.8865  0.0410 -0.3776
   80MOL0     C10700   4.083   1.416   6.897  0.5897 -0.2378 -0.4774
   80MOL0     O10701   4.007   1.455   6.998  0.5937 -0.2639  0.3644
   80MOL0     C10702   3.917   1.559   6.978  0.0048 -0.7127 -0.5257
   80MOL0     C10703   3.862   1.617   7.112  0.2277  0.2929 -0.6394
   80MOL0     C10704   3.809   1.489   7.196 -0.1861  0.2851  0.2282
   80MOL0     C10705   3.788   1.520   7.354 -0.6847  0.6557 -0.7170
   80MOL0     C10706   3.774   1.389   7.429  0.3367 -0.1015  0.3382
   80MOL0     C10707   3.803   1.418   7.576  0.0940 -1.2005  0.1217
   80MOL0     C10708   3.793   1.288   7.655  0.3401 -0.6988 -1.2552
   80MOL0     C10709   3.817   1.329   7.811 -1.1532  0.3922  0.1414
   80MOL0    Cl10710   3.775   1.193   7.913  0.4191  0.2655 -0.6610
   80MOL0     C10711   4.088   1.457   6.766  0.4111 -0.2786  0.4057
   80MOL0     C10712   4.167   1.399   6.668 -0.2517  0.2362 -0.3599
   80MOL0     O10713   4.516   1.317   6.745  0.2313  0.4723 -0.3655
   80MOL0     C10714   4.541   1.198   6.415 -0.2960  0.7672  0.0483
   80MOL0     C10715   4.641   1.185   6.319  0.0163  0.1328 -0.5356
   80MOL0     N10716   5.134   1.514   5.906  0.3321  0.2201  0.9451
   80MOL0     N10717   5.204   1.604   5.855 -0.1808 -0.7237  0.1760
   80MOL0     C10718   6.523   1.413   5.714  0.0002 -0.1435  0.1069
   80MOL0     C10719   6.656   1.429   5.680 -0.6019  0.4329 -0.3463
   80MOL0     C10720   7.063   1.690   5.671 -0.5059 -0.2595  0.3632
   80MOL0     C10721   7.158   1.755   5.752  0.7751 -0.4690 -0.2699
   80MOL0     C10722   7.277   1.806   5.697  0.0756  0.3460  0.2085
   80MOL0     C10723   7.309   1.794   5.557  0.4226 -0.3269 -0.4887
   80MOL0     O10724   7.415   1.848   5.495 -0.3295 -0.2718  0.4165
   80MOL0     C10725   7.513   1.927   5.564 -0.6110  0.5434 -0.0943
   80MOL0     C10726   7.596   2.002   5.464  0.1731 -0.1024 -0.9734
   80MOL0     C10727   7.687   1.917   5.372 -0.4358  0.3615 -0.8371
   80MOL0     C10728   7.718   1.992   5.244 -0.1244  0.0649 -0.0384
   80MOL0     C10729   7.751   2.136   5.269 -0.2653 -0.1571  0.4184
   80MOL0     C10730   7.762   2.242   5.311  0.8113  0.8024 -0.1212
   80MOL0     C10731   7.224   1.723   5.473 -0.2820 -0.8277 -0.0422
   80MOL0     C10732   7.103   1.671   5.532  0.0180  0.2976 -0.5018
   80MOL0     H10733   6.674   1.767   5.714  0.4598 -0.6393 -0.1996
   80MOL0     H10734   6.445   1.714   5.806 -1.2455 -1.2472 -0.4216
   80MOL0     H10735   6.248   1.470   5.591 -0.7656 -2.0425 -0.4044
   80MOL0     H10736   6.276   1.325   5.683 -2.7572 -1.0473 -1.6566
   80MOL0     H10737   6.069   1.307   5.710  2.8750 -0.6956 -0.3675
   80MOL0     H10738   6.093   1.401   5.856 -2.7513  0.3257  0.3228
   80MOL0     H10739   6.028   1.601   5.744 -1.2343 -2.8906  4.6978
   80MOL0     H10740   6.016   1.521   5.579  3.2934 -0.4251 -0.3007
   80MOL0     H10741   5.828   1.381   5.695  0.6546 -1.3304  1.0410
   80MOL0     H10742   5.846   1.467   5.843  2.6962 -1.8125 -0.0991
   80MOL0     H10743   5.798   1.679   5.733  0.4293 -0.7492  0.5660
   80MOL0     H10744   5.759   1.617   5.576  0.4698  1.1730  0.9322
   80MOL0     H10745   5.585   1.475   5.645 -1.1511 -0.9393  0.9472
   80MOL0     H10746   5.613   1.508   5.810  1.5003 -0.7144 -0.4085
   80MOL0     H10747   5.524   1.744   5.781  2.6802  0.5824 -0.6753
   80MOL0     H10748   5.561   1.735   5.617  2.8896  1.1305  1.1567
   80MOL0     H10749   5.386   1.558   5.575 -0.8871 -0.3309 -0.0093
   80MOL0     H10750   5.305   1.698   5.645 -1.3719 -0.4102  0.4577
   80MOL0     H10751   5.361   1.339   5.744 -0.8961  2.0706 -1.9100
   80MOL0     H10752   5.048   1.222   5.900 -1.3496 -0.7767  1.3968
   80MOL0     H10753   5.213   1.188   5.942 -1.8015 -0.5821  1.0385
   80MOL0     H10754   5.029   1.341   6.119 -0.6264  0.9211  0.3416
   80MOL0     H10755   5.202   1.311   6.147 -0.1563 -1.5431  1.7597
   80MOL0     H10756   5.170   1.072   6.155 -0.1483 -1.7681  0.4375
   80MOL0     H10757   5.014   1.071   6.065 -1.9244  1.7251 -0.1211
   80MOL0     H10758   5.048   1.201   6.341 -0.1359  0.3092  0.1614
   80MOL0     H10759   5.012   1.032   6.303  0.2084  0.1432 -0.2264
   80MOL0     H10760   4.917   1.182   6.510 -0.1132  1.8181  0.4584
   80MOL0     H10761   4.777   1.294   6.757  2.4899  0.1342 -1.4549
   80MOL0     H10762   4.709   1.124   6.787 -0.4858 -1.3522 -1.4412
   80MOL0     H10763   4.872   1.152   6.734  0.7405  1.3555  0.4086
   80MOL0     H10764   4.323   1.168   6.862 -0.4218  0.3546  0.3498
   80MOL0     H10765   4.174   1.257   7.025  2.0706  1.6283  0.5165
   80MOL0     H10766   3.964   1.641   6.922  1.6435 -0.9662  0.4037
   80MOL0     H10767   3.841   1.522   6.909  0.4803  0.2863 -1.6351
   80MOL0     H10768   3.934   1.674   7.170  0.2543  3.3127 -3.3644
   80MOL0     H10769   3.783   1.691   7.095 -1.0776 -0.9191 -0.0950
   80MOL0     H10770   3.887   1.412   7.193 -1.8558 -1.5155  0.6922
   80MOL0     H10771   3.717   1.444   7.158 -0.7851  0.1577  1.7615
   80MOL0     H10772   3.865   1.586   7.394  0.8432 -0.0317 -2.3954
   80MOL0     H10773   3.697   1.578   7.372  0.2769  2.2243 -0.7233
   80MOL0     H10774   3.854   1.322   7.397  2.7726  2.1320  1.2761
   80MOL0     H10775   3.682   1.335   7.407  0.2240  0.0046  0.5480
   80MOL0     H10776   3.906   1.448   7.597 -0.5718 -1.2481  4.3401
   80MOL0     H10777   3.726   1.489   7.608  1.6416  1.3422 -1.4898
   80MOL0     H10778   3.881   1.231   7.624  1.9490  0.3691  1.0468
   80MOL0     H10779   3.701   1.231   7.642  0.6328 -1.5567  0.1634
   80MOL0     H10780   3.744   1.408   7.832  0.3836  1.2569  2.6067
   80MOL0     H10781   3.917   1.370   7.828 -0.4487 -1.6081  1.2771
   80MOL0     H10782   4.034   1.548   6.741  3.3226  1.1876 -1.0246
   80MOL0     H10783   4.154   1.442   6.569  2.0525 -0.3756 -0.9968
   80MOL0     H10784   4.437   1.205   6.388 -0.4409 -0.2134  0.3182
   80MOL0     H10785   4.612   1.180   6.215 -0.3750 -1.1883 -0.3864
   80MOL0     H10786   6.478   1.314   5.702 -0.1686 -0.0337 -0.1856
   80MOL0     H10787   6.720   1.344   5.661 -1.0773 -0.1041  0.3824
   80MOL0     H10788   7.143   1.776   5.857  3.7007 -2.4427  0.6746
   80MOL0     H10789   7.345   1.847   5.771  0.1486 -1.0129  0.9371
   80MOL0     H10790   7.471   2.003   5.630  0.1884 -1.9646  3.6280
   80MOL0     H10791   7.574   1.859   5.625  0.4261 -0.2949 -1.9743
   80MOL0     H10792   7.656   2.075   5.519  0.2974 -0.5994 -0.4519
   80MOL0     H10793   7.522   2.063   5.411 -0.9545  1.0226  1.7279
   80MOL0     H10794   7.632   1.826   5.346 -0.4708  0.0678  0.2307
   80MOL0     H10795   7.773   1.876   5.427 -1.7743 -0.8987  0.4071
   80MOL0     H10796   7.632   1.991   5.177  0.5601 -3.7702 -1.0716
   80MOL0     H10797   7.806   1.944   5.200  0.9782  0.8384  1.2330
   80MOL0     H10798   7.758   2.336   5.363  1.4544  0.1836  1.0712
   80MOL0     H10799   7.247   1.722   5.367 -0.7714  0.6029 -0.1834
   80MOL0     H10800   7.024   1.616   5.482 -2.4140  0.5998  2.6690
   81MOL0     O10801   6.633   6.243   2.792 -0.0595 -0.2561  0.3359
   81MOL0     C10802   6.627   6.329   2.880  0.0166  0.2961 -0.0612
   81MOL0     O10803   6.520   6.355   2.959 -0.0976 -0.2244  0.1160
   81MOL0     C10804   6.391   6.315   2.935  0.2617  0.4014 -0.5969
   81MOL0     C10805   6.339   6.284   2.810  0.8547 -0.5732  0.7763
   81MOL0     C10806   6.202   6.243   2.801  0.2709  0.0124 -0.1384
   81MOL0     C10807   6.125   6.226   2.919  0.6711 -0.7440 -0.6142
   81MOL0     O10808   5.992   6.169   2.912  0.1851  0.7569  0.3823
   81MOL0     C10809   5.952   6.110   2.784  0.6310 -0.5898  0.0282
   81MOL0     C10810   5.811   6.051   2.808  0.2477 -0.0491 -0.0066
   81MOL0     C10811   5.699   6.155   2.814 -0.2263 -0.8136  0.5447
   81MOL0     C10812   5.567   6.083   2.845 -0.3277 -0.5489  0.0174
   81MOL0     C10813   5.465   6.183   2.897  0.2585 -0.2115 -0.1761
   81MOL0     C10814   5.329   6.118   2.916  0.1346 -0.0073  0.1929
   81MOL0     C10815   5.231   6.223   2.975 -0.3958  0.8727 -0.7249
   81MOL0     C10816   5.097   6.141   2.988  0.2922  0.0573 -0.6578
   81MOL0     N10817   4.990   6.218   3.060  1.2540 -0.1659 -0.3186
   81MOL0     C10818   4.923   6.325   3.012  0.1159  0.7203  0.7890
   81MOL0     C10819   4.825   6.350   3.099 -0.3145 -0.6170  0.0318
   81MOL0     C10820   4.730   6.467   3.104  0.8463 -0.0209  1.0269
   81MOL0     C10821   4.790   6.604   3.164  0.1568  1.0426  1.0818
   81MOL0     C10822   4.804   6.610   3.316 -0.0747  0.4604  0.4777
   81MOL0     C10823   4.682   6.567   3.389 -0.3512  0.1867  0.0135
   81MOL0     O10824   4.569   6.653   3.357  0.2679 -0.7339  0.3248
   81MOL0     C10825   4.459   6.644   3.432 -0.1325  0.0127  0.1719
   81MOL0     C10826   4.436   6.527   3.506  0.5693 -0.0144 -0.4440
   81MOL0     C10827   4.315   6.503   3.557  1.2986  0.4212  0.3749
   81MOL0     C10828   4.306   6.380   3.648  0.5901 -0.4072  0.4520
   81MOL0     C10829   4.208   6.598   3.546  0.1896  0.8322 -0.8519
   81MOL0     C10830   4.076   6.580   3.614  0.1325 -0.0788  0.0912
   81MOL0     O10831   3.988   6.691   3.611  0.4321  0.0255 -0.1719
   81MOL0     C10832   3.878   6.689   3.699 -0.4863  0.6188  0.3342
   81MOL0     C10833   3.846   6.782   3.800 -0.1255 -0.1716  0.0870
   81MOL0     C10834   3.722   6.783   3.865  0.6719  0.1003  0.8004
   81MOL0     C10835   3.625   6.682   3.842 -0.5248 -0.3414 -0.0429
   81MOL0     O10836   3.509   6.690   3.909 -0.8422  0.2519 -0.3034
   81MOL0     C10837   3.426   6.575   3.914 -0.4238 -0.0241  0.2213
   81MOL0     C10838   3.320   6.620   4.011 -0.5164  0.7013  0.8544
   81MOL0     C10839   3.198   6.524   4.005  0.5603  0.6934  0.4277
   81MOL0     C10840   3.080   6.573   4.083  0.4371 -0.5922  0.5767
   81MOL0     C10841   2.966   6.465   4.102 -0.1407 -0.1762 -0.3283
   81MOL0     C10842   2.847   6.535   4.163  0.7988  0.8273 -0.4302
   81MOL0     C10843   2.873   6.536   4.319  0.7816  0.1672 -0.7504
   81MOL0     C10844   2.765   6.610   4.398  0.6799 -0.3273  0.5969
   81MOL0    Cl10845   2.808   6.787   4.409  0.1759 -0.2646  0.0650
   81MOL0     C10846   3.657   6.572   3.753  0.1275 -0.2414  0.2646
   81MOL0     C10847   3.785   6.578   3.688 -0.0188 -0.1588  0.0010
   81MOL0     O10848   4.048   6.477   3.675  0.2879  0.2508 -0.5104
   81MOL0     C10849   4.230   6.713   3.470 -0.8302  0.6567 -0.3859
   81MOL0     C10850   4.352   6.733   3.407 -0.3060 -0.0315  0.3993
   81MOL0     N10851   4.831   6.248   3.199 -0.5478 -0.1049  0.6650
   81MOL0     N10852   4.936   6.173   3.179  0.6299 -0.5323 -0.3996
   81MOL0     C10853   6.179   6.257   3.043  0.8703  0.7182 -0.0093
   81MOL0     C10854   6.310   6.292   3.046  0.2412  0.1780  1.0404
   81MOL0     C10855   6.739   6.407   2.886  0.3371 -0.3169 -1.0368
   81MOL0     C10856   6.749   6.473   3.008 -0.0301 -1.2462  0.1195
   81MOL0     C10857   6.847   6.566   3.024 -0.8145 -0.3223 -0.4614
   81MOL0     C10858   6.949   6.583   2.929  0.2490  1.0735 -1.4032
   81MOL0     O10859   7.041   6.689   2.954  0.0717  0.3315  0.1393
   81MOL0     C10860   7.168   6.704   2.881  0.8235  0.5089 -0.0297
   81MOL0     C10861   7.277   6.776   2.963  0.9245  0.0858  0.0980
   81MOL0     C10862   7.409   6.753   2.893 -0.0718 -0.0852 -0.6279
   81MOL0     C10863   7.526   6.817   2.972 -0.3311  0.3808 -0.1782
   81MOL0     C10864   7.524   6.961   2.992 -0.6951 -0.1799 -0.6264
   81MOL0     C10865   7.539   7.086   3.014  0.7757 -0.3355  0.2486
   81MOL0     C10866   6.945   6.503   2.811  0.5100  0.0299  0.3021
   81MOL0     C10867   6.840   6.413   2.795 -0.3608  0.5778  0.3281
   81MOL0     H10868   6.393   6.298   2.717  2.8280 -4.9664  1.0225
   81MOL0     H10869   6.166   6.208   2.704  1.8182 -0.5207 -0.5539
   81MOL0     H10870   5.949   6.181   2.701 -0.3470  2.5751  2.5849
   81MOL0     H10871   6.009   6.018   2.766 -0.7558 -1.7240  1.2430
   81MOL0     H10872   5.794   5.973   2.733  2.7133  1.4690 -2.3191
   81MOL0     H10873   5.821   5.997   2.903  2.8261  1.2772  0.5908
   81MOL0     H10874   5.718   6.227   2.894 -1.1034 -2.1603  2.0041
   81MOL0     H10875   5.694   6.206   2.717  1.4360 -0.5434  0.5713
   81MOL0     H10876   5.536   6.031   2.754 -1.0555 -1.9594  1.0333
   81MOL0     H10877   5.577   6.001   2.916 -1.0511  0.6955  1.6146
   81MOL0     H10878   5.497   6.225   2.993  0.1378  0.7196 -0.5316
   81MOL0     H10879   5.468   6.276   2.839 -1.2526  1.1311  1.7189
   81MOL0     H10880   5.299   6.091   2.814  1.3599  1.0482 -0.4769
   81MOL0     H10881   5.336   6.031   2.981  0.1461  0.8089  1.3043
   81MOL0     H10882   5.270   6.258   3.071  1.7223 -1.8502 -0.4530
   81MOL0     H10883   5.218   6.314   2.916  1.7031  1.4056 -0.4501
   81MOL0     H10884   5.122   6.051   3.046 -1.7140  0.0685  0.3097
   81MOL0     H10885   5.056   6.104   2.894 -0.4303 -2.3517  0.5232
   81MOL0     H10886   4.953   6.398   2.938 -1.9478 -1.4461 -2.3906
   81MOL0     H10887   4.687   6.486   3.006  1.5883  0.9854  0.8888
   81MOL0     H10888   4.642   6.428   3.156 -0.4875  2.2831  0.6059
   81MOL0     H10889   4.716   6.682   3.142  1.0854  1.3818 -1.0594
   81MOL0     H10890   4.880   6.627   3.106  0.8964 -2.2007  0.7377
   81MOL0     H10891   4.810   6.715   3.345 -1.1188  0.1833  1.7719
   81MOL0     H10892   4.890   6.554   3.355 -0.2651 -0.1634  0.0050
   81MOL0     H10893   4.692   6.594   3.494  1.9099  2.6842 -0.7531
   81MOL0     H10894   4.657   6.461   3.375 -0.6794  0.2608  0.0418
   81MOL0     H10895   4.512   6.450   3.509  0.3338 -0.3348 -1.7763
   81MOL0     H10896   4.218   6.318   3.628  0.5129  0.0841 -0.7777
   81MOL0     H10897   4.400   6.324   3.651  0.1001 -1.2192  1.9387
   81MOL0     H10898   4.293   6.412   3.752  1.0115 -0.7543  0.6135
   81MOL0     H10899   3.917   6.858   3.829 -0.0836 -0.0720 -0.2717
   81MOL0     H10900   3.711   6.859   3.942 -0.3017  0.3881  0.3885
   81MOL0     H10901   3.387   6.547   3.816 -0.9197  0.1214  0.3727
   81MOL0     H10902   3.479   6.488   3.954  1.0452  0.9183  0.3870
   81MOL0     H10903   3.368   6.624   4.109 -1.2954  0.8065  1.2416
   81MOL0     H10904   3.290   6.724   3.992 -0.9154  0.4236 -0.0776
   81MOL0     H10905   3.212   6.418   4.027  0.6667 -0.1961 -3.3104
   81MOL0     H10906   3.167   6.528   3.900  1.6660  0.4995  0.0762
   81MOL0     H10907   3.125   6.618   4.172  2.0605 -1.0267  0.0201
   81MOL0     H10908   3.029   6.650   4.024 -0.2628 -1.7268 -0.3486
   81MOL0     H10909   3.007   6.384   4.162 -0.3601  0.0475  0.1248
   81MOL0     H10910   2.938   6.432   4.001 -0.2244 -0.3118 -0.2616
   81MOL0     H10911   2.830   6.637   4.127  0.8456  1.8442  2.2205
   81MOL0     H10912   2.756   6.480   4.135  1.2584 -1.4001  1.9841
   81MOL0     H10913   2.974   6.577   4.332  0.5899  0.0456  1.3999
   81MOL0     H10914   2.887   6.432   4.349  1.2463  1.0383  2.3781
   81MOL0     H10915   2.757   6.572   4.500 -3.9712  0.9919  0.9552
   81MOL0     H10916   2.663   6.595   4.361  0.4666 -3.5712  2.1669
   81MOL0     H10917   3.584   6.495   3.733  0.1103 -0.1430 -0.0648
   81MOL0     H10918   3.804   6.506   3.609  1.2207  1.5328 -1.3314
   81MOL0     H10919   4.159   6.794   3.461 -0.4550  0.7983 -3.2545
   81MOL0     H10920   4.356   6.817   3.338 -2.1570  0.2624  0.5957
   81MOL0     H10921   6.124   6.276   3.134  2.2748  3.8964  0.3089
   81MOL0     H10922   6.353   6.317   3.142  2.8659 -0.3838  0.0841
   81MOL0     H10923   6.683   6.460   3.092  0.7853  0.5360  1.0913
   81MOL0     H10924   6.856   6.623   3.115 -1.5504  0.4067 -0.8274
   81MOL0     H10925   7.196   6.603   2.849 -0.5521 -0.4904  1.7415
   81MOL0     H10926   7.141   6.756   2.789 -0.0333 -1.4427 -0.9416
   81MOL0     H10927   7.275   6.753   3.070  3.8044  0.9608  0.4421
   81MOL0     H10928   7.255   6.882   2.952  0.3450 -0.0175  0.2321
   81MOL0     H10929   7.419   6.797   2.793  3.6879 -1.0301 -0.8164
   81MOL0     H10930   7.421   6.644   2.886  1.8298 -0.1782  2.3705
   81MOL0     H10931   7.615   6.809   2.909 -0.6951  1.7125 -0.8991
   81MOL0     H10932   7.553   6.757   3.059  1.4052  0.2089 -0.8096
   81MOL0     H10933   7.550   7.187   3.049  0.4969  0.2117 -1.1634
   81MOL0     H10934   7.018   6.509   2.731  2.3307 -0.9745  1.8086
   81MOL0     H10935   6.838   6.353   2.705  1.0432  1.0221 -0.0217
   82MOL0     O10936   8.513   0.553   7.414 -0.0682  0.2281  1.3324
   82MOL0     C10937   8.572   0.512   7.518  0.0642 -0.9220  0.7023
   82MOL0     O10938   8.518   0.495   7.635  0.0718  0.8838  0.0799
   82MOL0     C10939   8.395   0.552   7.668 -0.0556  0.3204  0.3543
   82MOL0     C10940   8.342   0.679   7.631 -0.0870  0.1512  0.2765
   82MOL0     C10941   8.221   0.724   7.673 -0.1293  0.9450  0.6017
   82MOL0     C10942   8.149   0.650   7.765  0.2911  0.5903  0.4248
   82MOL0     O10943   8.017   0.685   7.792  0.2978 -0.3807 -0.7215
   82MOL0     C10944   7.970   0.692   7.924 -0.0583  0.2549  0.1115
   82MOL0     C10945   7.815   0.720   7.921  0.1286 -0.5352  0.8637
   82MOL0     C10946   7.788   0.863   7.882 -0.1197 -0.4391  0.1256
   82MOL0     C10947   7.636   0.898   7.873 -0.3297  0.2564  0.1814
   82MOL0     C10948   7.607   1.021   7.790  0.2801  0.1287  0.6392
   82MOL0     C10949   7.455   1.047   7.782  0.0832  0.1863  0.2745
   82MOL0     C10950   7.404   0.978   7.652  0.4415  1.0026  0.2402
   82MOL0     C10951   7.254   1.011   7.626  0.7196 -0.3409 -0.0944
   82MOL0     N10952   7.190   0.949   7.511  0.8582 -0.8129  0.2727
   82MOL0     C10953   7.069   0.880   7.508  0.1089 -1.2206  0.2433
   82MOL0     C10954   7.046   0.847   7.382 -0.1479 -0.6125 -0.9062
   82MOL0     C10955   6.933   0.761   7.332 -0.1666 -0.3671 -0.5412
   82MOL0     C10956   6.806   0.846   7.348  0.5389  0.2051 -0.2382
   82MOL0     C10957   6.691   0.758   7.311  0.1724  0.3478  0.2094
   82MOL0     C10958   6.568   0.831   7.276 -0.0568  0.0960  0.4122
   82MOL0     O10959   6.514   0.882   7.398 -0.5894  0.0864  0.3583
   82MOL0     C10960   6.387   0.920   7.418 -0.4094 -0.0275 -0.4440
   82MOL0     C10961   6.279   0.837   7.383 -0.0373 -0.7024 -0.2789
   82MOL0     C10962   6.145   0.886   7.385 -0.1255  0.7676  0.5058
   82MOL0     C10963   6.044   0.781   7.358  0.7127 -0.0692  0.1904
   82MOL0     C10964   6.115   1.013   7.436  0.7728 -0.8764 -0.7312
   82MOL0     C10965   5.982   1.071   7.458  0.3003  0.2960 -0.3982
   82MOL0     O10966   5.975   1.178   7.543  0.1868 -0.2640 -0.0844
   82MOL0     C10967   5.863   1.261   7.555  0.1918  0.0667  0.2365
   82MOL0     C10968   5.778   1.302   7.446  0.6303 -0.4506  0.6113
   82MOL0     C10969   5.663   1.384   7.471 -0.3938  0.3614  0.0451
   82MOL0     C10970   5.633   1.422   7.600 -0.3002 -0.8240 -0.8175
   82MOL0     O10971   5.515   1.487   7.630 -0.6649 -0.5044  0.3484
   82MOL0     C10972   5.423   1.511   7.519  0.0560 -0.5978 -0.5956
   82MOL0     C10973   5.305   1.583   7.586 -0.1950  0.1080 -0.8857
   82MOL0     C10974   5.351   1.716   7.635 -0.3422 -0.0936 -0.0511
   82MOL0     C10975   5.237   1.816   7.615  0.1330 -0.3501  0.3141
   82MOL0     C10976   5.263   1.959   7.656 -0.4160  0.0119 -0.1776
   82MOL0     C10977   5.328   1.979   7.790 -0.4078  0.2255  0.1598
   82MOL0     C10978   5.246   1.925   7.907  0.4685 -0.4307  0.2410
   82MOL0     C10979   5.119   2.010   7.935 -0.1632 -0.4404 -0.1925
   82MOL0    Cl10980   5.033   1.958   8.078  0.4603  0.0717 -0.1692
   82MOL0     C10981   5.729   1.391   7.701  0.4267 -0.3966 -1.4650
   82MOL0     C10982   5.831   1.308   7.685  0.5824  0.2671  0.4552
   82MOL0     O10983   5.884   1.015   7.409 -0.4621 -0.1504  0.2051
   82MOL0     C10984   6.230   1.091   7.484  1.1539  0.1953  0.1537
   82MOL0     C10985   6.355   1.044   7.480  0.4163  0.4955 -0.7424
   82MOL0     N10986   7.145   0.904   7.302  0.6934 -0.2532  0.1382
   82MOL0     N10987   7.232   0.952   7.378  0.2285  1.1887  0.1650
   82MOL0     C10988   8.194   0.523   7.814 -0.4762 -0.3598  0.0094
   82MOL0     C10989   8.314   0.480   7.754  1.0260  0.4863 -0.3966
   82MOL0     C10990   8.717   0.482   7.500 -0.3636 -0.1876  0.8753
   82MOL0     C10991   8.800   0.448   7.601 -0.3606 -0.3769 -0.1388
   82MOL0     C10992   8.934   0.438   7.577 -0.2635 -0.0817 -0.4491
   82MOL0     C10993   8.987   0.458   7.444  0.5150 -0.5796 -0.2817
   82MOL0     O10994   9.115   0.461   7.407 -0.6151  0.5618 -0.2731
   82MOL0     C10995   9.218   0.461   7.510 -0.3043  0.0230  0.1924
   82MOL0     C10996   9.362   0.457   7.460  0.4128  1.1175  0.3119
   82MOL0     C10997   9.393   0.331   7.386  0.0891  0.4906 -0.1381
   82MOL0     C10998   9.531   0.322   7.341 -0.0883  0.5767 -0.3281
   82MOL0     C10999   9.622   0.301   7.458  0.5180  0.2156 -0.3945
   82MOL0     C11000   9.706   0.301   7.546  0.0763  0.6310  0.1787
   82MOL0     C11001   8.907   0.497   7.346 -0.0163 -0.3154  0.5170
   82MOL0     C11002   8.776   0.508   7.372 -0.2895  0.0905  0.1757
   82MOL0     H11003   8.410   0.739   7.572 -1.8262 -0.2345 -2.3157
   82MOL0     H11004   8.181   0.823   7.652 -1.0194  0.4101 -0.2803
   82MOL0     H11005   7.985   0.591   7.964  0.4325 -1.4377 -3.9031
   82MOL0     H11006   8.036   0.759   7.978  1.7035  0.4894 -2.1923
   82MOL0     H11007   7.764   0.656   7.848  2.1930  0.4046 -1.5622
   82MOL0     H11008   7.774   0.700   8.020  0.1171  0.9084  1.1793
   82MOL0     H11009   7.847   0.929   7.946 -0.8151 -1.1442  1.5443
   82MOL0     H11010   7.822   0.875   7.779  2.1451 -0.1514  0.8472
   82MOL0     H11011   7.587   0.811   7.828 -0.0211 -1.5842  3.1692
   82MOL0     H11012   7.592   0.900   7.973 -1.0573  2.1801 -0.1367
   82MOL0     H11013   7.664   1.100   7.840 -0.1164  0.3353  0.7697
   82MOL0     H11014   7.647   1.013   7.689  0.6004  1.1144  0.6795
   82MOL0     H11015   7.397   1.010   7.867 -2.9463 -1.8759 -2.4213
   82MOL0     H11016   7.435   1.155   7.780 -0.0453  0.2649  2.7301
   82MOL0     H11017   7.467   1.002   7.565  1.5405 -1.6061  0.2055
   82MOL0     H11018   7.420   0.870   7.661  0.4295  1.0326  0.6187
   82MOL0     H11019   7.246   1.119   7.607  0.3339 -0.1660  0.9908
   82MOL0     H11020   7.190   0.992   7.712 -0.3567  0.0945 -0.7738
   82MOL0     H11021   7.014   0.854   7.598  2.1061 -0.9795  1.6031
   82MOL0     H11022   6.948   0.737   7.226 -0.0510  0.3117 -0.6836
   82MOL0     H11023   6.932   0.665   7.384  0.9410  0.5783  1.3463
   82MOL0     H11024   6.813   0.937   7.287  0.8933 -0.7284 -1.6337
   82MOL0     H11025   6.781   0.885   7.447 -0.7529  2.5107 -1.4070
   82MOL0     H11026   6.680   0.680   7.387 -0.4783 -0.3190 -0.5513
   82MOL0     H11027   6.713   0.704   7.219  0.3530  0.7178  0.0299
   82MOL0     H11028   6.492   0.772   7.223  1.6307 -0.1465 -1.9160
   82MOL0     H11029   6.600   0.914   7.212 -0.3776 -2.5868 -3.5620
   82MOL0     H11030   6.303   0.736   7.353 -1.0345 -1.4192  1.2574
   82MOL0     H11031   6.090   0.695   7.309  0.9242  0.6582 -0.8996
   82MOL0     H11032   5.991   0.759   7.452  0.1265  1.0202  0.1362
   82MOL0     H11033   5.973   0.808   7.279 -0.0919  2.5624  1.6798
   82MOL0     H11034   5.793   1.270   7.344  0.9221  2.5588 -0.3810
   82MOL0     H11035   5.617   1.413   7.377  0.0603  2.2219  0.3611
   82MOL0     H11036   5.467   1.578   7.445  1.4761  1.0199  1.5753
   82MOL0     H11037   5.390   1.418   7.472  0.0183 -0.5128 -0.7378
   82MOL0     H11038   5.217   1.583   7.522 -1.5068  0.5396  0.8350
   82MOL0     H11039   5.278   1.524   7.674 -3.1412 -1.4030 -2.6487
   82MOL0     H11040   5.441   1.740   7.577  0.5141  0.6804  1.5458
   82MOL0     H11041   5.377   1.702   7.740  1.6141  0.7141 -0.3841
   82MOL0     H11042   5.214   1.813   7.509  1.4384 -0.0228 -0.0052
   82MOL0     H11043   5.140   1.789   7.656  0.7342 -1.8502  0.8320
   82MOL0     H11044   5.167   2.010   7.667 -1.6207 -2.2428  0.4132
   82MOL0     H11045   5.328   2.004   7.580  2.1095 -1.4551  1.0005
   82MOL0     H11046   5.424   1.927   7.787 -1.3456 -1.7148  1.6417
   82MOL0     H11047   5.351   2.084   7.810 -0.4561  0.7510 -2.1772
   82MOL0     H11048   5.302   1.933   8.001  0.7581  2.2154 -0.0947
   82MOL0     H11049   5.215   1.824   7.879  0.0214 -0.0246 -0.7772
   82MOL0     H11050   5.055   2.023   7.847 -1.6915 -1.9544  0.6373
   82MOL0     H11051   5.145   2.115   7.954  1.7216 -0.8679 -0.2540
   82MOL0     H11052   5.699   1.422   7.801 -3.7920 -1.3328 -2.2562
   82MOL0     H11053   5.894   1.285   7.771 -0.1043  0.0731  0.9161
   82MOL0     H11054   6.220   1.196   7.508 -4.2326 -0.0399  0.0711
   82MOL0     H11055   6.434   1.110   7.514 -1.6875  1.1101  3.5880
   82MOL0     H11056   8.144   0.459   7.886  1.3658 -3.7529 -1.5111
   82MOL0     H11057   8.344   0.378   7.772  1.5770  0.3411 -2.0124
   82MOL0     H11058   8.771   0.435   7.705  2.4277 -2.5499  0.4924
   82MOL0     H11059   8.990   0.411   7.666 -2.8898  1.0592  1.6899
   82MOL0     H11060   9.217   0.552   7.571  0.6695 -0.3046  0.7197
   82MOL0     H11061   9.207   0.382   7.585  1.1976 -0.3345  0.0568
   82MOL0     H11062   9.433   0.467   7.542  0.5924  0.0173  0.3114
   82MOL0     H11063   9.379   0.542   7.393  0.2506 -0.5841 -2.0381
   82MOL0     H11064   9.326   0.340   7.300 -0.3590  0.7333  0.2337
   82MOL0     H11065   9.372   0.242   7.445  0.3336  0.7789  0.3894
   82MOL0     H11066   9.567   0.408   7.283 -0.7871  2.2030  1.5438
   82MOL0     H11067   9.537   0.235   7.275 -0.0004 -0.9637  1.6413
   82MOL0     H11068   9.776   0.284   7.625  0.9292 -0.8318 -0.8514
   82MOL0     H11069   8.954   0.504   7.248 -0.5758  1.6145  0.3500
   82MOL0     H11070   8.721   0.547   7.287  1.4298  1.2539 -0.4748
   83MOL0     O11071   9.074   3.268  10.289 -0.0714 -0.0040  0.3131
   83MOL0     C11072   9.010   3.300  10.390 -0.0940 -0.3527 -0.3358
   83MOL0     O11073   9.065   3.311  10.519 -0.2608 -0.4578 -0.0201
   83MOL0     C11074   9.199   3.293  10.528  0.2818  0.2662 -0.1421
   83MOL0     C11075   9.245   3.213  10.631 -0.4620 -1.1739  0.0353
   83MOL0     C11076   9.382   3.182  10.642  0.0103 -0.0903  0.6359
   83MOL0     C11077   9.481   3.240  10.559  0.6746  0.4421 -0.2941
   83MOL0     O11078   9.608   3.197  10.581  0.2007 -0.6490 -0.4467
   83MOL0     C11079   9.714   3.276  10.523  0.1178 -0.2790  0.1469
   83MOL0     C11080   9.840   3.250  10.608  0.8552  0.2046  0.0493
   83MOL0     C11081   9.941   3.361  10.582 -0.1652  0.2803  0.1722
   83MOL0     C11082  10.065   3.342  10.665 -1.1510  0.9531  0.5822
   83MOL0     C11083  10.160   3.456  10.649  0.7611 -0.0336  0.3969
   83MOL0     C11084  10.251   3.475  10.767 -0.3825 -0.6318 -0.4158
   83MOL0     C11085  10.340   3.597  10.748  0.1612 -0.5579 -0.0041
   83MOL0     C11086  10.425   3.628  10.870 -0.4850 -0.8959 -0.1435
   83MOL0     N11087  10.531   3.727  10.852  0.3529  0.5126 -0.4144
   83MOL0     C11088  10.629   3.731  10.763 -0.0779 -0.0749 -1.1996
   83MOL0     C11089  10.710   3.827  10.809  0.3373 -0.5330 -0.7222
   83MOL0     C11090  10.849   3.863  10.767  0.1724 -0.5820  0.3000
   83MOL0     C11091  10.847   4.007  10.712 -0.6409  0.8146 -0.2262
   83MOL0     C11092  10.827   4.018  10.559 -0.5924  0.9171 -0.0439
   83MOL0     C11093  10.712   3.935  10.496  0.2938 -0.0922 -0.2022
   83MOL0     O11094  10.587   3.987  10.532 -0.8613  0.6822  0.1559
   83MOL0     C11095  10.474   3.925  10.497  0.2362  0.4701  0.3760
   83MOL0     C11096  10.351   3.962  10.559 -0.5234 -0.8160  0.3151
   83MOL0     C11097  10.239   3.899  10.522 -0.2951  0.3770  0.0749
   83MOL0     C11098  10.120   3.918  10.600  0.1210 -0.2123  0.1740
   83MOL0     C11099  10.226   3.819  10.413 -1.1442  0.0371  0.5735
   83MOL0     C11100  10.105   3.760  10.344  0.4713 -0.3167  0.4678
   83MOL0     O11101   9.981   3.774  10.395  0.5674 -0.4905 -0.1817
   83MOL0     C11102   9.868   3.738  10.323  0.7950  0.6801  0.2036
   83MOL0     C11103   9.758   3.715  10.408  0.4547 -0.2654 -0.2693
   83MOL0     C11104   9.642   3.658  10.354 -0.5169 -0.3252 -0.1464
   83MOL0     C11105   9.626   3.621  10.225  0.6989 -0.0743  0.3066
   83MOL0     O11106   9.510   3.555  10.197  0.1063 -0.0257 -0.7147
   83MOL0     C11107   9.504   3.469  10.076 -0.1208 -1.0343 -0.0553
   83MOL0     C11108   9.364   3.420  10.068  0.1259  0.1007 -0.0083
   83MOL0     C11109   9.272   3.534  10.047  0.2004 -0.6661  0.1079
   83MOL0     C11110   9.129   3.501  10.005  0.1833  0.3586 -0.2968
   83MOL0     C11111   9.039   3.628   9.991 -1.1513  0.3920 -0.3076
   83MOL0     C11112   8.915   3.578   9.931  0.0148 -0.4397 -0.1863
   83MOL0     C11113   8.825   3.695   9.890  0.5353  0.2176 -0.0954
   83MOL0     C11114   8.693   3.641   9.833  0.2001 -0.2167  0.3793
   83MOL0    Cl11115   8.594   3.551   9.950 -0.1079  0.5306  0.0423
   83MOL0     C11116   9.723   3.669  10.139 -0.9064  0.3102  0.0211
   83MOL0     C11117   9.853   3.712  10.189  0.6342 -0.1551  1.1887
   83MOL0     O11118  10.117   3.676  10.255 -0.1826  0.6115  0.6806
   83MOL0     C11119  10.347   3.785  10.350 -0.5353  0.2272 -0.9491
   83MOL0     C11120  10.467   3.837  10.388  0.7688  0.0422 -0.4975
   83MOL0     N11121  10.645   3.886  10.916  0.2860  0.6007  0.2318
   83MOL0     N11122  10.541   3.817  10.950  1.1073 -0.4396  0.4093
   83MOL0     C11123   9.431   3.318  10.453 -0.2266 -0.8821 -0.1926
   83MOL0     C11124   9.292   3.348  10.437 -0.3297  0.4092 -0.3715
   83MOL0     C11125   8.865   3.321  10.382  0.3196 -0.0624  0.2833
   83MOL0     C11126   8.790   3.316  10.493 -0.4053 -0.0366  0.8851
   83MOL0     C11127   8.654   3.336  10.482 -0.0934 -0.3309 -0.2092
   83MOL0     C11128   8.587   3.355  10.357 -0.5255  0.9291  0.4358
   83MOL0     O11129   8.450   3.354  10.366 -0.0300 -0.5079  0.0534
   83MOL0     C11130   8.375   3.417  10.257  0.2646 -0.2572  0.3525
   83MOL0     C11131   8.398   3.566  10.229 -0.7471  0.2271  0.1593
   83MOL0     C11132   8.296   3.614  10.119 -0.1694 -0.0853  0.2911
   83MOL0     C11133   8.276   3.763  10.124 -1.5228 -0.3528  0.2248
   83MOL0     C11134   8.170   3.795  10.032  0.2071  0.3009  0.3570
   83MOL0     C11135   8.095   3.833   9.950  0.0324 -0.2495  0.6324
   83MOL0     C11136   8.669   3.358  10.235 -0.4157  0.2288 -0.4494
   83MOL0     C11137   8.805   3.338  10.253 -0.3185 -0.8544  0.0938
   83MOL0     H11138   9.168   3.195  10.705 -2.6856  0.6497 -1.6861
   83MOL0     H11139   9.426   3.118  10.718 -1.1767 -0.0130  1.4227
   83MOL0     H11140   9.722   3.252  10.417  2.9561  0.3165  0.1524
   83MOL0     H11141   9.691   3.383  10.532 -1.6951 -0.7123  1.2577
   83MOL0     H11142   9.806   3.249  10.712 -2.2859 -0.8060 -0.8778
   83MOL0     H11143   9.885   3.152  10.590 -0.3928 -0.2332 -0.8556
   83MOL0     H11144   9.954   3.366  10.474 -0.5374 -1.4864  0.0134
   83MOL0     H11145   9.903   3.457  10.620 -1.0039 -0.2089  0.5890
   83MOL0     H11146  10.035   3.319  10.768  2.4846  2.2821  2.1023
   83MOL0     H11147  10.127   3.260  10.629 -1.8882  1.4142 -1.9259
   83MOL0     H11148  10.226   3.444  10.562 -0.6452 -1.3603 -0.5405
   83MOL0     H11149  10.104   3.549  10.634 -0.6275 -0.7192  1.0904
   83MOL0     H11150  10.184   3.497  10.851 -1.0414  0.4148 -1.1936
   83MOL0     H11151  10.301   3.382  10.794 -1.6384 -1.0488  0.5753
   83MOL0     H11152  10.404   3.573  10.662  0.1604 -2.7275  0.5293
   83MOL0     H11153  10.292   3.691  10.721  1.7488  1.1564  2.6476
   83MOL0     H11154  10.478   3.537  10.899  1.3551 -0.2924 -1.4381
   83MOL0     H11155  10.355   3.661  10.947 -0.1395  2.0303 -0.9631
   83MOL0     H11156  10.646   3.656  10.686  1.7070  0.3773 -1.3051
   83MOL0     H11157  10.914   3.868  10.854  1.9952  0.0067 -1.0363
   83MOL0     H11158  10.881   3.798  10.685 -0.5019  1.7536 -1.9467
   83MOL0     H11159  10.943   4.056  10.731  0.5958 -1.7580  0.6176
   83MOL0     H11160  10.782   4.073  10.769  0.3866  0.5903  1.2597
   83MOL0     H11161  10.919   3.999  10.502 -0.3043  0.0287  0.7034
   83MOL0     H11162  10.813   4.123  10.531 -2.7290 -0.0285 -3.0768
   83MOL0     H11163  10.716   3.829  10.524  2.8524 -0.2601 -1.0224
   83MOL0     H11164  10.705   3.942  10.387 -1.6385 -1.7455 -0.2613
   83MOL0     H11165  10.368   4.034  10.637  1.1929  0.3234 -1.0368
   83MOL0     H11166  10.050   3.992  10.559  2.1983  0.4055 -2.5201
   83MOL0     H11167  10.076   3.823  10.632 -1.0528 -0.6568 -2.4693
   83MOL0     H11168  10.135   3.962  10.699 -4.4685 -0.1418  1.0430
   83MOL0     H11169   9.756   3.732  10.515 -0.5114 -4.2879  0.5137
   83MOL0     H11170   9.550   3.641  10.408 -1.7047 -0.8030 -2.2285
   83MOL0     H11171   9.522   3.521   9.982 -1.1600 -2.5657 -1.1566
   83MOL0     H11172   9.579   3.390  10.085  1.4646  0.2880 -1.2348
   83MOL0     H11173   9.357   3.360   9.976 -2.1193 -0.7379  0.6572
   83MOL0     H11174   9.328   3.360  10.152  2.3219  0.1010  1.0177
   83MOL0     H11175   9.306   3.593   9.960  0.5774 -0.1931  0.5700
   83MOL0     H11176   9.269   3.610  10.126 -2.6226 -0.2820 -0.2458
   83MOL0     H11177   9.136   3.450   9.909 -0.7496 -0.4233  0.0389
   83MOL0     H11178   9.088   3.431  10.079  0.5161  0.6466  0.1690
   83MOL0     H11179   9.091   3.697   9.925  0.1852  0.6066  0.9248
   83MOL0     H11180   9.028   3.668  10.093  1.2638 -1.8578  0.9527
   83MOL0     H11181   8.930   3.512   9.845  1.1602 -0.1204 -0.2473
   83MOL0     H11182   8.868   3.525  10.014  1.0313  1.3409  1.6032
   83MOL0     H11183   8.869   3.761   9.815 -2.8589  0.9085 -1.6561
   83MOL0     H11184   8.790   3.746   9.980 -2.4469 -2.2655  0.3140
   83MOL0     H11185   8.700   3.588   9.737 -0.8158 -0.5735  0.4875
   83MOL0     H11186   8.631   3.729   9.815 -1.1069 -0.4233  3.2583
   83MOL0     H11187   9.718   3.668  10.031 -0.7198  4.1645 -0.1583
   83MOL0     H11188   9.938   3.722  10.122 -0.2472 -3.7950 -0.7680
   83MOL0     H11189  10.352   3.736  10.253  3.2830  2.0380 -1.8643
   83MOL0     H11190  10.553   3.823  10.323  1.1059  2.1722 -0.5888
   83MOL0     H11191   9.507   3.352  10.384 -0.1007 -0.5232  0.1208
   83MOL0     H11192   9.258   3.406  10.352 -1.0879  1.0666  0.3571
   83MOL0     H11193   8.827   3.287  10.591  0.3305 -0.9354  0.3624
   83MOL0     H11194   8.587   3.342  10.568  2.3973  0.6086  1.8036
   83MOL0     H11195   8.398   3.368  10.162 -1.6748  2.7473 -1.8572
   83MOL0     H11196   8.274   3.396  10.291  0.5301 -1.7243  0.3002
   83MOL0     H11197   8.503   3.577  10.200 -1.2299  1.3183 -1.3055
   83MOL0     H11198   8.381   3.609  10.328 -1.2348 -0.1905  0.2550
   83MOL0     H11199   8.202   3.566  10.148  1.8693 -4.8517 -0.0640
   83MOL0     H11200   8.319   3.587  10.016 -2.7325 -1.6743  0.0423
   83MOL0     H11201   8.362   3.824  10.094 -0.5801  0.4169  3.9098
   83MOL0     H11202   8.239   3.792  10.223 -1.0843  2.9727 -0.4400
   83MOL0     H11203   8.022   3.871   9.881  0.7545  0.8139  0.4295
   83MOL0     H11204   8.628   3.361  10.134 -0.7119 -0.1425 -0.3420
   83MOL0     H11205   8.878   3.356  10.174  0.2545  0.7999  0.9393
   84MOL0     O11206   5.398   2.567   9.851  0.2429  0.6310  0.4802
   84MOL0     C11207   5.444   2.479   9.780  0.3051  0.0659 -0.4126
   84MOL0     O11208   5.377   2.410   9.688 -0.0152 -0.0054 -0.4061
   84MOL0     C11209   5.245   2.444   9.668 -0.9454  0.4549  0.6632
   84MOL0     C11210   5.139   2.365   9.703 -0.5934 -0.5716 -0.6996
   84MOL0     C11211   5.006   2.408   9.690 -0.0091  0.0490  0.3348
   84MOL0     C11212   4.986   2.531   9.624 -0.2477  1.2468 -0.6032
   84MOL0     O11213   4.862   2.560   9.580 -0.3268  0.1281 -0.3758
   84MOL0     C11214   4.820   2.698   9.570  0.2931 -0.3222  0.6112
   84MOL0     C11215   4.714   2.735   9.679 -0.3584  0.3099  1.1700
   84MOL0     C11216   4.580   2.667   9.652 -0.6214 -0.0407  0.2878
   84MOL0     C11217   4.482   2.716   9.767  0.0297 -1.0716  0.0658
   84MOL0     C11218   4.335   2.679   9.736 -0.0246  0.3529  0.2896
   84MOL0     C11219   4.280   2.774   9.631  0.0860  0.0075  0.6218
   84MOL0     C11220   4.127   2.741   9.619  0.2272 -0.1366 -0.3332
   84MOL0     C11221   4.112   2.616   9.539  0.4942  0.4460  0.1125
   84MOL0     N11222   3.971   2.558   9.558  0.1213 -0.1438  0.6287
   84MOL0     C11223   3.922   2.463   9.472  0.8920 -0.3227  0.4158
   84MOL0     C11224   3.807   2.423   9.533 -0.5608  0.8560  0.4540
   84MOL0     C11225   3.704   2.332   9.466  0.5070  0.7004  0.3680
   84MOL0     C11226   3.593   2.405   9.374 -0.4990 -0.2131 -0.2716
   84MOL0     C11227   3.518   2.295   9.296 -0.8151 -0.9302  0.0366
   84MOL0     C11228   3.445   2.365   9.186  0.1723 -0.8503 -0.2568
   84MOL0     O11229   3.328   2.285   9.138  0.1423 -1.4974 -0.4520
   84MOL0     C11230   3.210   2.356   9.131 -0.4317  0.8465 -0.4267
   84MOL0     C11231   3.133   2.349   9.019  0.9430  0.0635 -0.0040
   84MOL0     C11232   2.999   2.397   9.023  0.0304 -0.8840 -0.0119
   84MOL0     C11233   2.913   2.378   8.894  0.0025 -0.6890  0.3656
   84MOL0     C11234   2.952   2.457   9.131  0.9476  0.0115 -0.2361
   84MOL0     C11235   2.825   2.540   9.138  0.5105  0.4410  0.1572
   84MOL0     O11236   2.762   2.555   9.264  0.2839  0.7627 -0.2012
   84MOL0     C11237   2.640   2.608   9.278 -1.0863  1.1293  0.4734
   84MOL0     C11238   2.614   2.735   9.260  0.0941 -0.3350  0.6287
   84MOL0     C11239   2.488   2.796   9.275  0.2610  0.1697 -0.0195
   84MOL0     C11240   2.374   2.713   9.316  0.2383 -0.0722  0.5611
   84MOL0     O11241   2.238   2.757   9.324 -0.5256 -0.1684 -0.1500
   84MOL0     C11242   2.214   2.901   9.334 -0.6271 -0.6360  0.0296
   84MOL0     C11243   2.079   2.930   9.391  0.6527  0.0941 -0.2349
   84MOL0     C11244   1.967   2.855   9.318  0.7082 -0.3987 -0.3286
   84MOL0     C11245   1.838   2.898   9.391  0.3204  0.9955  0.2056
   84MOL0     C11246   1.720   2.813   9.337 -0.4203  0.3109 -0.1626
   84MOL0     C11247   1.675   2.870   9.209 -0.4511  0.3994  0.9862
   84MOL0     C11248   1.560   2.787   9.147 -0.8028  0.6067  0.3620
   84MOL0     C11249   1.610   2.656   9.078 -0.4686 -0.0265  0.0840
   84MOL0    Cl11250   1.704   2.690   8.925 -0.0628  0.5547  0.1431
   84MOL0     C11251   2.400   2.578   9.341 -0.0429 -0.1577  0.0579
   84MOL0     C11252   2.530   2.527   9.321 -0.2759  0.2420  0.2930
   84MOL0     O11253   2.787   2.601   9.040 -0.5031  0.3153 -0.7203
   84MOL0     C11254   3.026   2.449   9.249 -1.0202  0.9744  0.4079
   84MOL0     C11255   3.154   2.404   9.250 -0.4688 -0.4628  0.6615
   84MOL0     N11256   3.787   2.483   9.651  0.2442  0.0166 -0.3005
   84MOL0     N11257   3.885   2.573   9.657 -0.4130  0.4362  0.3024
   84MOL0     C11258   5.097   2.600   9.581  0.2486  0.1846  0.6592
   84MOL0     C11259   5.227   2.562   9.602  0.5937 -0.0165  0.1562
   84MOL0     C11260   5.586   2.451   9.799 -0.8507  0.2325 -0.4629
   84MOL0     C11261   5.645   2.361   9.711  0.3462  0.1413  0.1988
   84MOL0     C11262   5.770   2.314   9.733 -0.6884 -0.9637  0.3712
   84MOL0     C11263   5.850   2.351   9.842  0.5250  0.3384 -0.0047
   84MOL0     O11264   5.967   2.297   9.874  0.3879 -0.3047  0.0943
   84MOL0     C11265   5.986   2.155   9.852  0.6862 -0.0986 -0.7512
   84MOL0     C11266   6.061   2.105   9.975 -0.3123 -0.0387 -0.1631
   84MOL0     C11267   6.083   1.956   9.971 -0.3555  0.2568  0.6209
   84MOL0     C11268   6.173   1.908  10.089  0.2477 -0.2969 -1.6392
   84MOL0     C11269   6.310   1.951  10.075 -0.3496 -0.2897  0.4183
   84MOL0     C11270   6.429   1.975  10.073  0.4847 -0.6237  0.1193
   84MOL0     C11271   5.795   2.438   9.931  0.8103 -0.7941  0.2367
   84MOL0     C11272   5.660   2.485   9.916  0.2409 -0.2495 -0.3924
   84MOL0     H11273   5.153   2.267   9.747 -1.6310 -0.5162 -0.2321
   84MOL0     H11274   4.925   2.345   9.725 -1.9049  2.5569  0.7772
   84MOL0     H11275   4.905   2.763   9.593  1.9298 -2.4402  0.8354
   84MOL0     H11276   4.775   2.730   9.476 -3.0993  2.4355  2.9068
   84MOL0     H11277   4.752   2.693   9.772  1.3215 -2.2429 -0.5480
   84MOL0     H11278   4.702   2.844   9.679 -0.4757  0.3669 -1.6222
   84MOL0     H11279   4.553   2.702   9.552 -2.4728 -0.7538  0.4871
   84MOL0     H11280   4.581   2.558   9.639  1.7198  0.0675 -0.8736
   84MOL0     H11281   4.508   2.667   9.861 -1.2891  1.5072  1.8749
   84MOL0     H11282   4.488   2.824   9.783 -2.6799 -0.9403  0.6371
   84MOL0     H11283   4.325   2.574   9.708  0.5641  0.1458  0.8508
   84MOL0     H11284   4.275   2.692   9.826  0.5669  0.8084  0.6274
   84MOL0     H11285   4.298   2.877   9.665  1.5732  1.0213 -2.8525
   84MOL0     H11286   4.331   2.764   9.535 -1.2244 -2.8303  0.1287
   84MOL0     H11287   4.082   2.740   9.718 -0.0562 -2.5601 -0.4227
   84MOL0     H11288   4.079   2.822   9.564 -0.2384  0.4874  0.9566
   84MOL0     H11289   4.177   2.539   9.580  0.0771  0.8483  1.6146
   84MOL0     H11290   4.133   2.637   9.434  0.6539  0.8012  0.2124
   84MOL0     H11291   3.951   2.433   9.372 -1.5804  0.1568 -0.5365
   84MOL0     H11292   3.749   2.251   9.408  0.4328  0.2509  0.9198
   84MOL0     H11293   3.653   2.279   9.548  0.2319  2.8270  1.6360
   84MOL0     H11294   3.637   2.476   9.304 -2.7220 -0.3468 -1.9168
   84MOL0     H11295   3.532   2.470   9.438  1.7305  0.9220  0.8191
   84MOL0     H11296   3.454   2.243   9.368  1.1333 -3.0595  0.3509
   84MOL0     H11297   3.578   2.217   9.248 -2.8536 -1.9979 -0.9491
   84MOL0     H11298   3.518   2.376   9.104  0.4576 -2.2141 -0.2072
   84MOL0     H11299   3.421   2.468   9.211 -0.3846 -1.2649  0.9724
   84MOL0     H11300   3.177   2.302   8.931 -0.6063 -2.6662  0.5671
   84MOL0     H11301   2.813   2.364   8.935 -0.7320  1.2104 -0.6400
   84MOL0     H11302   2.924   2.462   8.825  0.4002 -1.9900 -1.2286
   84MOL0     H11303   2.940   2.289   8.836  1.3228 -1.6335  2.3301
   84MOL0     H11304   2.699   2.800   9.241 -0.1288  0.6270  2.5727
   84MOL0     H11305   2.484   2.904   9.263  1.8721  0.0823 -1.7866
   84MOL0     H11306   2.291   2.947   9.397 -1.8114  1.1253  0.2376
   84MOL0     H11307   2.226   2.947   9.236 -1.4840 -1.1640 -0.3307
   84MOL0     H11308   2.085   2.902   9.497 -0.3435  1.0582  0.0942
   84MOL0     H11309   2.061   3.038   9.383  0.0271 -0.1038 -1.8768
   84MOL0     H11310   1.986   2.748   9.326 -0.4303 -0.6750 -1.1549
   84MOL0     H11311   1.963   2.890   9.215  1.5610 -0.4011 -0.3703
   84MOL0     H11312   1.857   2.855   9.490 -0.4492  0.8692  0.3058
   84MOL0     H11313   1.843   3.007   9.394 -0.8652  1.1347 -1.3361
   84MOL0     H11314   1.636   2.808   9.407 -0.2384  0.2890  0.0546
   84MOL0     H11315   1.745   2.708   9.321 -1.3336 -0.0410  0.6398
   84MOL0     H11316   1.631   2.966   9.238  2.4041  1.1166  3.3723
   84MOL0     H11317   1.749   2.879   9.129 -1.2986 -2.2716 -0.2137
   84MOL0     H11318   1.499   2.839   9.072 -0.6665 -2.8217 -2.3549
   84MOL0     H11319   1.495   2.767   9.233  0.0983 -0.9791  0.7194
   84MOL0     H11320   1.518   2.612   9.039 -1.0111  0.2636  1.0037
   84MOL0     H11321   1.662   2.593   9.152  2.1950  0.9360 -0.8475
   84MOL0     H11322   2.315   2.516   9.367 -0.4002  0.3269  0.0623
   84MOL0     H11323   2.556   2.428   9.355 -0.5794 -0.2312 -0.8188
   84MOL0     H11324   2.989   2.489   9.343 -2.7238 -0.4341  0.3686
   84MOL0     H11325   3.215   2.395   9.339  0.4729 -3.0210 -0.1437
   84MOL0     H11326   5.083   2.692   9.525  2.8444  1.5175  2.0153
   84MOL0     H11327   5.312   2.612   9.557 -0.1070  0.5076 -0.6198
   84MOL0     H11328   5.606   2.338   9.612  2.9118  0.6149 -1.0126
   84MOL0     H11329   5.815   2.256   9.652  1.3349  0.5225  0.3474
   84MOL0     H11330   5.885   2.115   9.838 -0.7240  3.1705 -0.8151
   84MOL0     H11331   6.044   2.138   9.761 -0.9298 -2.3538 -1.4251
   84MOL0     H11332   6.013   2.130  10.070 -0.4385 -1.2876  0.1154
   84MOL0     H11333   6.158   2.154   9.965 -1.9246  3.3499 -0.5806
   84MOL0     H11334   6.139   1.932   9.879 -1.5029  0.8852 -0.2653
   84MOL0     H11335   5.983   1.913   9.964 -1.1912  2.0780  0.8510
   84MOL0     H11336   6.167   1.801  10.109  0.6271  0.1038  1.0506
   84MOL0     H11337   6.131   1.951  10.180  1.1341  0.1285 -1.4186
   84MOL0     H11338   6.534   1.995  10.062  0.1752  0.4059 -1.3871
   84MOL0     H11339   5.846   2.475  10.020  0.2102  0.0971  0.2249
   84MOL0     H11340   5.627   2.550   9.997 -1.4730 -1.9602  0.3360
   85MOL0     O11341   4.541   1.246   0.274  0.3785 -0.1626 -0.4464
   85MOL0     C11342   4.635   1.202   0.341  0.5411 -0.2583  0.2485
   85MOL0     O11343   4.646   1.184   0.479  0.8899  0.6810 -0.2509
   85MOL0     C11344   4.538   1.217   0.554  0.5511  0.2074  0.3638
   85MOL0     C11345   4.563   1.255   0.688  0.0123  0.5708  0.7076
   85MOL0     C11346   4.464   1.295   0.776  0.4059  0.3493 -0.1471
   85MOL0     C11347   4.328   1.294   0.737 -0.0661  0.0376 -0.6914
   85MOL0     O11348   4.228   1.331   0.822  0.2789 -0.0421  0.2125
   85MOL0     C11349   4.237   1.274   0.952  0.5136  0.2475 -0.3602
   85MOL0     C11350   4.117   1.315   1.039 -0.0350 -0.6330  0.5512
   85MOL0     C11351   4.006   1.219   0.997 -0.2225 -0.8987 -0.3644
   85MOL0     C11352   3.871   1.292   1.025  0.4009  0.8859 -0.0514
   85MOL0     C11353   3.765   1.202   0.980 -0.3183 -0.6580 -0.1451
   85MOL0     C11354   3.634   1.269   1.037 -0.0436  0.3419 -0.0065
   85MOL0     C11355   3.518   1.194   0.960 -0.0252  0.2453  0.0134
   85MOL0     C11356   3.386   1.269   0.959  0.2689 -0.2844 -0.1739
   85MOL0     N11357   3.282   1.228   1.050  0.3529 -0.2503  0.1723
   85MOL0     C11358   3.259   1.240   1.179  0.8029 -0.2616  0.1741
   85MOL0     C11359   3.153   1.173   1.213 -0.3602  0.4187  0.6445
   85MOL0     C11360   3.101   1.169   1.355  0.9779  0.5003 -0.0286
   85MOL0     C11361   2.949   1.182   1.385  0.1101 -0.2547 -0.1792
   85MOL0     C11362   2.922   1.220   1.525  0.6723 -0.2674  0.1815
   85MOL0     C11363   2.776   1.239   1.566  1.1456 -0.9688  0.1895
   85MOL0     O11364   2.737   1.381   1.558  0.0419  0.0086  0.2171
   85MOL0     C11365   2.600   1.407   1.539 -0.2531  0.3079 -0.5519
   85MOL0     C11366   2.550   1.503   1.446 -0.0986  0.1169 -0.4230
   85MOL0     C11367   2.415   1.532   1.446 -0.5268  0.2115 -0.4399
   85MOL0     C11368   2.369   1.622   1.339 -0.3655 -0.4206 -0.6187
   85MOL0     C11369   2.326   1.476   1.542  0.0696 -0.3476 -0.9813
   85MOL0     C11370   2.186   1.518   1.553 -0.2374  0.0967 -0.1898
   85MOL0     O11371   2.094   1.418   1.586 -0.4003  0.1054  0.2290
   85MOL0     C11372   1.956   1.445   1.592 -0.8387  0.4142  0.1008
   85MOL0     C11373   1.895   1.511   1.483  0.5135 -0.3127 -0.2021
   85MOL0     C11374   1.762   1.549   1.507 -0.3566 -0.3778  0.6046
   85MOL0     C11375   1.695   1.503   1.620  0.9095  0.0390 -0.3439
   85MOL0     O11376   1.559   1.512   1.633  0.4768 -0.5741 -0.0596
   85MOL0     C11377   1.477   1.598   1.548  0.4497  0.2359 -0.0305
   85MOL0     C11378   1.332   1.557   1.577 -0.2010  0.2770  0.4351
   85MOL0     C11379   1.287   1.583   1.731 -0.3844  0.1753  1.0557
   85MOL0     C11380   1.134   1.620   1.736  0.0829 -0.5579  0.4005
   85MOL0     C11381   1.116   1.762   1.696  1.0349 -0.0576  0.6531
   85MOL0     C11382   0.973   1.814   1.684  0.2830 -0.3400  0.4133
   85MOL0     C11383   0.915   1.820   1.818  0.4241  0.2269  0.4149
   85MOL0     C11384   0.771   1.871   1.797  0.9434 -0.0163 -0.3326
   85MOL0    Cl11385   0.691   1.829   1.962 -0.1805 -0.0605  0.4853
   85MOL0     C11386   1.763   1.423   1.718 -0.0404 -0.4342 -1.0524
   85MOL0     C11387   1.892   1.398   1.707 -0.8160  0.8901  0.8080
   85MOL0     O11388   2.161   1.635   1.558 -0.5074  0.2216 -0.5696
   85MOL0     C11389   2.374   1.374   1.629 -0.0072  0.3179 -0.1286
   85MOL0     C11390   2.510   1.341   1.626  0.0341  0.3569  0.5179
   85MOL0     N11391   3.098   1.115   1.103 -1.2373 -0.2073  0.8931
   85MOL0     N11392   3.188   1.146   1.008 -0.2779 -0.0253  0.0111
   85MOL0     C11393   4.298   1.249   0.602 -0.1216  0.2441  0.3346
   85MOL0     C11394   4.406   1.210   0.515  0.4346  0.0771  0.3202
   85MOL0     C11395   4.751   1.148   0.262  0.5997  0.9138 -0.0115
   85MOL0     C11396   4.797   1.224   0.156 -0.0165  0.0479  0.2190
   85MOL0     C11397   4.901   1.167   0.082  0.1359 -0.3988  0.7405
   85MOL0     C11398   4.965   1.051   0.112  0.1736  0.7332 -0.4179
   85MOL0     O11399   5.079   1.019   0.037 -0.2311  0.3235  0.3266
   85MOL0     C11400   5.161   0.906   0.063  0.1090  0.1110 -0.2595
   85MOL0     C11401   5.298   0.905  -0.001  0.1022  0.6123 -0.8183
   85MOL0     C11402   5.391   1.017   0.041  0.7370  0.8723  0.1694
   85MOL0     C11403   5.525   1.022  -0.034  0.9192 -0.0638 -0.1338
   85MOL0     C11404   5.503   1.018  -0.182  0.5629  0.0752  0.5301
   85MOL0     C11405   5.504   1.026  -0.305  0.4138  0.2796  0.4228
   85MOL0     C11406   4.906   0.972   0.211  0.7401 -0.4091 -0.2172
   85MOL0     C11407   4.794   1.023   0.287  0.4202  0.1337  0.0334
   85MOL0     H11408   4.665   1.258   0.726  0.1355  0.4330  0.3929
   85MOL0     H11409   4.494   1.324   0.875  0.4629  1.4828 -0.4878
   85MOL0     H11410   4.239   1.165   0.958 -1.4077  0.2347  4.4587
   85MOL0     H11411   4.324   1.316   1.004  0.4582 -1.2347  1.0157
   85MOL0     H11412   4.136   1.301   1.145 -2.6661 -1.1797  1.0369
   85MOL0     H11413   4.088   1.417   1.012 -2.0164 -0.4959  2.8231
   85MOL0     H11414   4.019   1.211   0.888  1.6446  0.8296 -0.3433
   85MOL0     H11415   4.016   1.123   1.047 -1.8514 -1.6877 -1.4790
   85MOL0     H11416   3.864   1.316   1.131 -3.6376  0.8126 -0.1603
   85MOL0     H11417   3.870   1.389   0.975  3.2775  0.7535 -0.5263
   85MOL0     H11418   3.761   1.196   0.871  1.1992 -3.9977 -0.1379
   85MOL0     H11419   3.772   1.098   1.013 -2.2446 -1.0839 -0.9240
   85MOL0     H11420   3.630   1.259   1.146  3.3898 -0.4437  0.1696
   85MOL0     H11421   3.639   1.376   1.015  0.5618  0.1169 -1.0352
   85MOL0     H11422   3.550   1.180   0.856  0.8468  2.3815 -0.0598
   85MOL0     H11423   3.501   1.095   1.003 -0.1464 -1.2136 -3.1495
   85MOL0     H11424   3.347   1.265   0.857  2.9823 -1.3717 -1.2881
   85MOL0     H11425   3.410   1.373   0.983 -0.6576  0.2947 -1.6060
   85MOL0     H11426   3.317   1.297   1.251  1.7048 -0.7890 -0.1243
   85MOL0     H11427   3.135   1.076   1.402  0.9137  1.1404  1.3451
   85MOL0     H11428   3.149   1.247   1.416 -1.4178  0.4172  2.1328
   85MOL0     H11429   2.912   1.080   1.377  1.1367 -0.7764  1.3213
   85MOL0     H11430   2.909   1.258   1.316 -0.5540  0.8133  1.3290
   85MOL0     H11431   2.968   1.315   1.552 -0.2810 -0.3409  2.2767
   85MOL0     H11432   2.965   1.143   1.591 -2.2923 -0.9733  1.4685
   85MOL0     H11433   2.772   1.200   1.668  2.2854  1.6566  1.3281
   85MOL0     H11434   2.725   1.167   1.502  1.3852 -0.2220 -0.8669
   85MOL0     H11435   2.617   1.556   1.378 -1.4646  0.1737 -1.7862
   85MOL0     H11436   2.423   1.605   1.245  2.1130 -2.4158  1.0158
   85MOL0     H11437   2.265   1.599   1.317  0.0315 -2.4927 -0.5423
   85MOL0     H11438   2.396   1.724   1.368  0.4870 -0.3880 -1.4926
   85MOL0     H11439   1.951   1.540   1.394  1.4904  1.2986  0.8940
   85MOL0     H11440   1.712   1.607   1.430 -1.3790 -0.8307  0.9086
   85MOL0     H11441   1.490   1.705   1.565  1.1954  0.4136 -1.5562
   85MOL0     H11442   1.500   1.569   1.445  0.4467 -1.4383  0.4032
   85MOL0     H11443   1.258   1.596   1.507 -0.5451  0.7136  1.0330
   85MOL0     H11444   1.338   1.450   1.557 -1.4100  0.3357 -0.3109
   85MOL0     H11445   1.347   1.662   1.777 -1.0963  2.6775 -1.9258
   85MOL0     H11446   1.301   1.493   1.790  0.6197  0.0136  0.5971
   85MOL0     H11447   1.073   1.558   1.669  0.1467  1.0496 -1.2035
   85MOL0     H11448   1.102   1.612   1.840 -1.5685  3.4580  0.3682
   85MOL0     H11449   1.149   1.771   1.593  0.2286  2.8150  0.5486
   85MOL0     H11450   1.176   1.831   1.757  1.0364 -3.4188  4.9174
   85MOL0     H11451   0.976   1.918   1.651 -4.2613 -0.4833 -1.1444
   85MOL0     H11452   0.914   1.750   1.618  0.1448  0.2310 -0.0292
   85MOL0     H11453   0.966   1.891   1.884  1.1289 -0.3528  0.5069
   85MOL0     H11454   0.905   1.724   1.867 -1.8163  0.9546  1.5045
   85MOL0     H11455   0.716   1.826   1.713 -1.4695  2.3621 -0.1490
   85MOL0     H11456   0.765   1.978   1.778  0.8252  0.1353  0.5289
   85MOL0     H11457   1.707   1.382   1.801  1.8664  1.2500  1.2099
   85MOL0     H11458   1.953   1.345   1.780  0.9730  0.6429 -0.7780
   85MOL0     H11459   2.293   1.320   1.677  0.6531 -0.6349 -0.0749
   85MOL0     H11460   2.533   1.257   1.691  0.2315  2.5121  3.4444
   85MOL0     H11461   4.194   1.242   0.572 -0.2264  3.3840 -0.3969
   85MOL0     H11462   4.382   1.169   0.418  0.4221  0.5897  0.1015
   85MOL0     H11463   4.755   1.318   0.121 -0.7984 -0.5533 -0.4905
   85MOL0     H11464   4.928   1.221  -0.008 -1.1908  1.3556  1.3386
   85MOL0     H11465   5.166   0.901   0.172 -2.4935  0.6885 -0.0461
   85MOL0     H11466   5.105   0.817   0.031  0.3024 -0.5103  1.0569
   85MOL0     H11467   5.278   0.904  -0.109 -3.7137  2.1978 -0.2945
   85MOL0     H11468   5.341   0.812   0.037 -0.5826  1.6315  2.8527
   85MOL0     H11469   5.425   0.990   0.141  2.6208  0.2233 -0.5897
   85MOL0     H11470   5.344   1.115   0.038 -2.1989 -0.4258  0.7727
   85MOL0     H11471   5.580   0.932  -0.003  1.5911  0.4394  0.1716
   85MOL0     H11472   5.590   1.104  -0.001 -0.2207 -0.5739  4.0558
   85MOL0     H11473   5.523   1.023  -0.410  1.2528 -0.2081  0.5815
   85MOL0     H11474   4.950   0.874   0.225  1.8487  0.2534  1.2495
   85MOL0     H11475   4.750   0.964   0.366 -0.7184 -0.1334 -0.7777
   86MOL0     O11476   9.495  10.579   7.163  0.4823 -0.6436 -0.5938
   86MOL0     C11477   9.557  10.499   7.232 -0.5672  0.0942  0.4665
   86MOL0     O11478   9.511  10.432   7.340  0.2528 -0.2475  0.3831
   86MOL0     C11479   9.395  10.466   7.407 -0.4841  0.4641 -0.3410
   86MOL0     C11480   9.416  10.487   7.545 -0.3480 -0.1211 -0.2450
   86MOL0     C11481   9.308  10.531   7.624 -0.8528  0.3551 -0.6482
   86MOL0     C11482   9.173  10.521   7.571  0.1313  0.2360  0.0371
   86MOL0     O11483   9.064  10.543   7.648 -0.7369 -0.4965 -1.2327
   86MOL0     C11484   9.080  10.554   7.792  0.2584 -0.7174  0.6749
   86MOL0     C11485   9.102  10.426   7.860 -0.9336  0.1651  0.9583
   86MOL0     C11486   8.977  10.342   7.864  0.0395 -0.5833  0.0814
   86MOL0     C11487   8.988  10.202   7.937 -0.0013  0.1142 -0.2438
   86MOL0     C11488   8.860  10.137   7.954 -0.4917 -0.0275 -0.1601
   86MOL0     C11489   8.869  10.001   8.020 -0.5162 -0.3550 -0.1760
   86MOL0     C11490   8.730   9.938   8.047 -0.3872  0.3888  0.3533
   86MOL0     C11491   8.674   9.902   7.917  0.4194  0.0799  0.4071
   86MOL0     N11492   8.546   9.839   7.919  1.1507  0.0092  0.1017
   86MOL0     C11493   8.515   9.724   7.988  0.6439  0.8668  0.0309
   86MOL0     C11494   8.398   9.687   7.931 -0.2701  0.6151  0.0707
   86MOL0     C11495   8.322   9.562   7.960  0.1104  0.1838 -0.9253
   86MOL0     C11496   8.222   9.592   8.078  0.9276 -0.6708  0.1427
   86MOL0     C11497   8.144   9.469   8.125  0.1195 -0.4796  0.8441
   86MOL0     C11498   8.032   9.505   8.224  0.8235  0.9747 -0.3796
   86MOL0     O11499   7.930   9.600   8.178 -0.2913 -0.0135 -0.5701
   86MOL0     C11500   7.799   9.582   8.221 -0.4455  0.5574 -0.4427
   86MOL0     C11501   7.717   9.690   8.199  0.2088  0.0176 -0.5232
   86MOL0     C11502   7.575   9.690   8.220  1.2745 -0.0556 -0.2380
   86MOL0     C11503   7.494   9.808   8.172  0.2092 -0.8620  0.0952
   86MOL0     C11504   7.517   9.572   8.283 -0.1451  0.8286 -0.9174
   86MOL0     C11505   7.385   9.583   8.353 -0.4416 -0.2628 -0.2738
   86MOL0     O11506   7.324   9.461   8.390  0.0038  0.2008 -0.0204
   86MOL0     C11507   7.206   9.464   8.454 -0.5682 -0.2004 -0.7097
   86MOL0     C11508   7.092   9.458   8.379 -0.0604  0.3593  0.2782
   86MOL0     C11509   6.967   9.480   8.436 -0.8192  0.6453  0.0546
   86MOL0     C11510   6.965   9.484   8.577  0.3038 -0.2958  0.0576
   86MOL0     O11511   6.844   9.503   8.636  0.1941  0.0523 -0.8973
   86MOL0     C11512   6.811   9.416   8.746 -0.4672  0.1649  0.1622
   86MOL0     C11513   6.663   9.376   8.744  0.4912 -0.0150  0.3603
   86MOL0     C11514   6.583   9.476   8.816  0.2936 -0.4254  0.5020
   86MOL0     C11515   6.435   9.457   8.782  0.7449  0.1749 -0.1153
   86MOL0     C11516   6.378   9.342   8.857  0.0430 -0.3429  0.3956
   86MOL0     C11517   6.233   9.336   8.826 -0.1917  0.6053  0.2175
   86MOL0     C11518   6.174   9.203   8.864 -0.4653 -0.4262  0.3506
   86MOL0     C11519   6.024   9.179   8.825 -0.7607  0.9828 -0.0972
   86MOL0    Cl11520   5.961   9.023   8.903 -0.6257 -0.0502 -0.1862
   86MOL0     C11521   7.081   9.473   8.649  0.4297 -0.1204 -0.1422
   86MOL0     C11522   7.206   9.470   8.589  0.6818  0.1283 -0.2005
   86MOL0     O11523   7.337   9.695   8.376 -0.5131 -0.3833 -0.1894
   86MOL0     C11524   7.605   9.457   8.307  0.5396 -0.3125 -0.3062
   86MOL0     C11525   7.738   9.471   8.276 -0.0937 -0.8973 -0.3549
   86MOL0     N11526   8.351   9.787   7.848  0.1419 -0.2650 -0.0060
   86MOL0     N11527   8.439   9.878   7.844  0.2921 -0.2667  0.4827
   86MOL0     C11528   9.155  10.485   7.436  0.3198  0.6448  0.1636
   86MOL0     C11529   9.265  10.467   7.352  0.0681 -0.9048 -0.7129
   86MOL0     C11530   9.695  10.460   7.197 -0.0628  0.5748 -0.2140
   86MOL0     C11531   9.782  10.379   7.276  0.5300 -0.3228  0.9400
   86MOL0     C11532   9.907  10.329   7.224  0.4345 -1.0843  0.1306
   86MOL0     C11533   9.938  10.360   7.092 -0.6038  1.3135 -0.2868
   86MOL0     O11534  10.057  10.302   7.051  0.1859 -0.2513 -0.1845
   86MOL0     C11535  10.087  10.294   6.912  0.2610  0.0427 -0.8701
   86MOL0     C11536  10.008  10.186   6.830 -0.6458  0.1850  0.2232
   86MOL0     C11537   9.976  10.214   6.681  0.2979  0.1113 -0.3486
   86MOL0     C11538   9.938  10.364   6.655 -0.1496 -0.3599 -0.0067
   86MOL0     C11539   9.864  10.382   6.535 -0.2782  0.1417 -0.3770
   86MOL0     C11540   9.799  10.397   6.433 -0.7625  0.1588 -0.1647
   86MOL0     C11541   9.857  10.452   7.024  0.0453  0.2038  0.3640
   86MOL0     C11542   9.738  10.502   7.075 -0.1551  0.5099 -0.5739
   86MOL0     H11543   9.513  10.469   7.590 -0.2491  2.4104  0.6664
   86MOL0     H11544   9.339  10.564   7.723  2.1493  0.3169 -1.4773
   86MOL0     H11545   9.166  10.619   7.811  0.5960 -0.7899 -0.5137
   86MOL0     H11546   9.000  10.617   7.831  1.5807  1.8227 -0.4397
   86MOL0     H11547   9.175  10.363   7.809 -2.3661 -0.6859 -0.1188
   86MOL0     H11548   9.139  10.445   7.961  1.5330  2.8007 -0.2908
   86MOL0     H11549   8.908  10.406   7.920  0.7922  2.9451 -2.6206
   86MOL0     H11550   8.943  10.334   7.760  0.7118 -0.6047 -0.1434
   86MOL0     H11551   9.045  10.131   7.877 -1.8481 -1.3801 -0.2785
   86MOL0     H11552   9.054  10.209   8.025  1.6467  3.2330 -1.5479
   86MOL0     H11553   8.798  10.201   8.018  1.2667  3.0082 -1.2576
   86MOL0     H11554   8.816  10.122   7.855  0.2959  0.0592 -0.5277
   86MOL0     H11555   8.930   9.936   7.957 -0.2762  0.0136 -0.3279
   86MOL0     H11556   8.913  10.011   8.120  0.0553 -1.8692 -0.2525
   86MOL0     H11557   8.745   9.845   8.103 -0.6389 -0.3219 -0.7338
   86MOL0     H11558   8.661   9.998   8.107 -0.8227 -0.4785  0.7446
   86MOL0     H11559   8.739   9.831   7.865 -0.2072  1.5616 -2.5823
   86MOL0     H11560   8.653   9.985   7.849  0.3137 -0.0123  0.3287
   86MOL0     H11561   8.584   9.676   8.056  2.6278  1.4578 -1.4771
   86MOL0     H11562   8.260   9.542   7.871 -0.2094 -0.8768 -0.4854
   86MOL0     H11563   8.388   9.478   7.983 -2.0085 -1.1798  0.6389
   86MOL0     H11564   8.146   9.653   8.027  2.2772 -0.3946 -1.6226
   86MOL0     H11565   8.268   9.646   8.161 -1.4390 -1.4391  2.0797
   86MOL0     H11566   8.219   9.407   8.174  0.7243  0.5820  1.2952
   86MOL0     H11567   8.112   9.417   8.034  0.5520  0.0922  0.3479
   86MOL0     H11568   8.075   9.550   8.314 -0.6384  1.0746  0.3151
   86MOL0     H11569   7.989   9.410   8.257  1.3324  0.6478 -0.6576
   86MOL0     H11570   7.757   9.775   8.146 -2.0037  0.9889 -0.7526
   86MOL0     H11571   7.393   9.775   8.148  0.1828 -1.6484  1.2354
   86MOL0     H11572   7.493   9.881   8.254  0.0578  0.7421 -1.2708
   86MOL0     H11573   7.527   9.849   8.076 -1.5058 -2.2672 -1.1565
   86MOL0     H11574   7.097   9.448   8.271 -1.8162  0.8241  0.1254
   86MOL0     H11575   6.877   9.469   8.376 -1.9565 -0.9158  1.9606
   86MOL0     H11576   6.869   9.324   8.730  0.4586  0.9193 -1.0509
   86MOL0     H11577   6.844   9.454   8.843 -2.4451 -0.6450  1.1963
   86MOL0     H11578   6.630   9.377   8.639 -3.1865  0.8852  1.3963
   86MOL0     H11579   6.657   9.276   8.788  1.9727  0.6314  2.1421
   86MOL0     H11580   6.603   9.579   8.783 -0.4600  0.9685  3.9880
   86MOL0     H11581   6.602   9.471   8.923 -2.8533  1.3095  1.2722
   86MOL0     H11582   6.381   9.549   8.804  0.4111 -0.1646  0.5205
   86MOL0     H11583   6.420   9.434   8.676  0.2266  1.3847 -0.3215
   86MOL0     H11584   6.386   9.370   8.962  0.6284  0.0834  0.2414
   86MOL0     H11585   6.421   9.242   8.844  1.1340 -0.0211  1.3978
   86MOL0     H11586   6.181   9.421   8.873 -0.6171  0.3107  0.2859
   86MOL0     H11587   6.229   9.335   8.717  2.3619 -0.4662  0.0689
   86MOL0     H11588   6.181   9.198   8.973  1.7359  0.1018  0.2838
   86MOL0     H11589   6.242   9.127   8.823 -0.9121 -2.6498  3.4151
   86MOL0     H11590   6.007   9.176   8.718 -0.1473  0.9154 -0.2006
   86MOL0     H11591   5.967   9.263   8.866 -1.9070 -0.8974  2.3994
   86MOL0     H11592   7.082   9.476   8.758  1.9508  0.4351 -0.1540
   86MOL0     H11593   7.296   9.483   8.647 -0.0206  4.7753  0.2220
   86MOL0     H11594   7.572   9.360   8.344  0.2480  0.1546  0.6963
   86MOL0     H11595   7.787   9.379   8.307 -1.4975 -0.3032  4.4586
   86MOL0     H11596   9.059  10.466   7.389 -0.2991 -1.0701  1.9979
   86MOL0     H11597   9.244  10.444   7.249 -0.4756 -0.5097 -0.6949
   86MOL0     H11598   9.735  10.340   7.367  0.1060 -4.7634 -0.9258
   86MOL0     H11599   9.978  10.271   7.282  1.6666 -1.0137 -1.2569
   86MOL0     H11600  10.079  10.399   6.882  2.1139  1.4471  2.8646
   86MOL0     H11601  10.195  10.279   6.909  0.4952  1.6237 -1.6105
   86MOL0     H11602   9.911  10.166   6.875 -1.6749  2.5437 -0.7669
   86MOL0     H11603  10.069  10.096   6.836  0.4995  0.8270 -1.2146
   86MOL0     H11604   9.888  10.154   6.655  0.6011 -0.6959  0.4441
   86MOL0     H11605  10.062  10.193   6.616  2.8875 -0.7632  3.1035
   86MOL0     H11606  10.029  10.423   6.649 -1.7435  2.4570  1.3125
   86MOL0     H11607   9.876  10.413   6.731  0.3974  0.1603  0.1149
   86MOL0     H11608   9.743  10.402   6.342 -1.2154 -1.2235  0.0215
   86MOL0     H11609   9.883  10.480   6.923 -0.2531  0.3262  0.3188
   86MOL0     H11610   9.673  10.560   7.010 -0.1561 -1.3630 -2.3332
   87MOL0     O11611   7.609   8.865   5.708 -1.0551 -0.0717  0.0676
   87MOL0     C11612   7.649   8.751   5.744  0.9042 -0.6707 -0.1432
   87MOL0     O11613   7.568   8.648   5.796  0.2673 -0.0568  1.0390
   87MOL0     C11614   7.429   8.673   5.796  0.4150  0.8191  0.1793
   87MOL0     C11615   7.345   8.625   5.695  0.0878  0.5931  0.3462
   87MOL0     C11616   7.203   8.649   5.702 -0.2554  0.9763 -0.0767
   87MOL0     C11617   7.148   8.743   5.792  0.2097 -0.8348  0.3395
   87MOL0     O11618   7.024   8.800   5.802  0.2766  0.6137  0.1015
   87MOL0     C11619   6.956   8.795   5.674 -0.1102 -0.5761 -0.3322
   87MOL0     C11620   6.810   8.862   5.672  0.0078  0.6223 -0.9117
   87MOL0     C11621   6.721   8.789   5.576  0.7706  0.5568 -0.2546
   87MOL0     C11622   6.596   8.861   5.542  0.8966  0.7513 -0.7835
   87MOL0     C11623   6.474   8.805   5.618  0.9520 -0.1930 -0.4076
   87MOL0     C11624   6.354   8.900   5.630 -0.5581 -0.1396  0.4970
   87MOL0     C11625   6.219   8.854   5.661  1.1585  0.1098  0.2205
   87MOL0     C11626   6.184   8.743   5.567  0.2323 -0.1649 -0.3715
   87MOL0     N11627   6.047   8.706   5.595  0.7645  0.1292 -0.5077
   87MOL0     C11628   5.929   8.779   5.579 -0.3212  0.6979  0.4414
   87MOL0     C11629   5.827   8.703   5.631 -0.1699  0.2311  0.4465
   87MOL0     C11630   5.684   8.751   5.651 -0.6531  0.5281  0.0540
   87MOL0     C11631   5.585   8.711   5.535 -0.0093 -0.0992 -0.5160
   87MOL0     C11632   5.495   8.822   5.483 -0.3947 -0.4336 -0.0499
   87MOL0     C11633   5.394   8.875   5.578 -0.9704  0.3288 -0.0904
   87MOL0     O11634   5.313   8.978   5.525 -0.1559  0.0302  0.5249
   87MOL0     C11635   5.191   8.988   5.589 -0.6756 -0.0553 -0.0385
   87MOL0     C11636   5.158   9.101   5.669 -0.8981  0.4804  0.0004
   87MOL0     C11637   5.038   9.116   5.733  0.1878 -0.0136  0.2416
   87MOL0     C11638   5.015   9.240   5.804  0.2323  0.2932 -0.3076
   87MOL0     C11639   4.935   9.023   5.712  0.4606  0.7093 -0.6636
   87MOL0     C11640   4.798   9.032   5.764  0.1813 -0.5522  0.0807
   87MOL0     O11641   4.705   8.955   5.691 -0.2617  0.2304  0.2776
   87MOL0     C11642   4.575   8.951   5.742  0.2996 -1.4852  0.0667
   87MOL0     C11643   4.497   9.063   5.782  0.1098 -0.3057  0.1633
   87MOL0     C11644   4.361   9.053   5.815 -0.7640 -0.1872 -0.2994
   87MOL0     C11645   4.306   8.935   5.810  1.0102  0.7693 -0.7883
   87MOL0     O11646   4.171   8.942   5.841  0.6833  0.2089  0.3593
   87MOL0     C11647   4.100   8.821   5.877 -0.6522  0.8356  0.3688
   87MOL0     C11648   3.962   8.844   5.922 -0.1600  0.1162  0.8789
   87MOL0     C11649   3.935   8.974   6.008 -0.2383  0.1694 -0.8736
   87MOL0     C11650   3.786   8.986   6.047  0.4858 -0.2314 -0.0657
   87MOL0     C11651   3.764   9.109   6.136 -0.2726  0.3055  0.6844
   87MOL0     C11652   3.616   9.123   6.174  0.9856 -0.2183  0.0274
   87MOL0     C11653   3.583   9.272   6.199 -0.2575  0.8696  0.1316
   87MOL0     C11654   3.450   9.281   6.284  0.0768 -1.0211 -0.4949
   87MOL0    Cl11655   3.316   9.203   6.188 -0.3686 -0.2610 -0.1250
   87MOL0     C11656   4.374   8.816   5.769 -0.2919 -0.1541 -0.0362
   87MOL0     C11657   4.513   8.830   5.736  1.2580  0.2352 -0.8498
   87MOL0     O11658   4.781   9.085   5.869 -0.2426 -0.1856  0.3370
   87MOL0     C11659   4.965   8.911   5.632 -0.7245 -0.4635 -0.6818
   87MOL0     C11660   5.093   8.894   5.574 -0.0745 -0.2745 -0.1205
   87MOL0     N11661   5.884   8.581   5.665  0.2508  0.1949 -0.0089
   87MOL0     N11662   6.013   8.579   5.645  0.2011 -0.4661 -1.3901
   87MOL0     C11663   7.236   8.791   5.894 -0.6023  1.0596  0.0394
   87MOL0     C11664   7.374   8.748   5.896  0.1521  0.3065  0.1083
   87MOL0     C11665   7.795   8.735   5.723 -0.2918  0.1750 -0.6032
   87MOL0     C11666   7.868   8.626   5.775  0.5799  0.0061 -0.7545
   87MOL0     C11667   8.006   8.612   5.766 -0.6770 -0.1981  1.5438
   87MOL0     C11668   8.081   8.706   5.698  0.9292  0.9439 -0.1836
   87MOL0     O11669   8.210   8.704   5.673 -1.0713 -0.2131 -0.7903
   87MOL0     C11670   8.284   8.585   5.678  0.3332 -0.1514 -0.8505
   87MOL0     C11671   8.357   8.566   5.814  0.8532 -0.8352  0.1003
   87MOL0     C11672   8.473   8.651   5.826  0.1301  0.4151  0.3622
   87MOL0     C11673   8.532   8.644   5.959  0.2936 -0.2017  0.2637
   87MOL0     C11674   8.590   8.510   5.979  0.0277  1.6895 -0.4805
   87MOL0     C11675   8.637   8.398   6.000  0.1452  0.2242  0.2138
   87MOL0     C11676   8.008   8.817   5.638 -0.1445  0.3662 -0.2513
   87MOL0     C11677   7.864   8.820   5.646 -0.7319 -0.4969 -0.0658
   87MOL0     H11678   7.378   8.565   5.611 -0.8400 -0.5879  0.7882
   87MOL0     H11679   7.138   8.606   5.627 -0.3869 -1.0277  1.1431
   87MOL0     H11680   7.020   8.844   5.600 -0.6766 -0.2201 -0.5886
   87MOL0     H11681   6.949   8.688   5.651  1.2037 -0.3177 -2.1604
   87MOL0     H11682   6.763   8.867   5.771  1.6017 -0.3922 -0.0565
   87MOL0     H11683   6.817   8.962   5.628 -1.2477  1.2673  0.2762
   87MOL0     H11684   6.764   8.779   5.476 -0.9816  1.3904 -1.1177
   87MOL0     H11685   6.698   8.687   5.609  3.8079 -0.6816 -1.5289
   87MOL0     H11686   6.604   8.966   5.571 -1.2995  0.0540  3.1015
   87MOL0     H11687   6.575   8.852   5.435 -0.4367 -2.2868 -0.3791
   87MOL0     H11688   6.441   8.714   5.568 -3.1328  0.8450  0.0628
   87MOL0     H11689   6.495   8.763   5.717 -0.1993  2.5491  1.1335
   87MOL0     H11690   6.384   8.978   5.700  0.6325  0.7082 -0.9014
   87MOL0     H11691   6.359   8.953   5.535  1.3101 -1.2807 -0.0954
   87MOL0     H11692   6.226   8.812   5.762  2.5879 -1.1448 -0.3559
   87MOL0     H11693   6.146   8.935   5.651 -1.8345 -2.4853 -0.5382
   87MOL0     H11694   6.249   8.659   5.593  2.0713  1.6319  1.1801
   87MOL0     H11695   6.202   8.774   5.464 -0.2009 -0.7172 -0.6170
   87MOL0     H11696   5.915   8.882   5.546  1.1427  0.8329  0.1808
   87MOL0     H11697   5.651   8.719   5.750  2.3232  0.5609  1.1802
   87MOL0     H11698   5.694   8.860   5.652  0.1673  0.4674  1.0506
   87MOL0     H11699   5.522   8.630   5.572  2.6067 -1.3550  1.5166
   87MOL0     H11700   5.643   8.656   5.460  0.3693  0.4054 -0.5949
   87MOL0     H11701   5.444   8.776   5.397  0.8013 -1.9000 -0.0063
   87MOL0     H11702   5.560   8.904   5.451  0.7589 -1.2121  0.2749
   87MOL0     H11703   5.448   8.909   5.668  2.0120  2.0962 -2.3675
   87MOL0     H11704   5.335   8.789   5.611  1.1320  0.1140  3.8038
   87MOL0     H11705   5.233   9.175   5.694  0.2684 -1.1365  1.4609
   87MOL0     H11706   5.097   9.310   5.785  1.0004  0.0452  1.7883
   87MOL0     H11707   4.924   9.292   5.773 -0.3019 -0.6156 -0.2756
   87MOL0     H11708   5.008   9.227   5.913  2.4250 -0.3455 -0.1876
   87MOL0     H11709   4.556   9.153   5.770  1.4886 -1.4451 -2.7243
   87MOL0     H11710   4.298   9.138   5.839 -4.3212 -1.9713 -2.4011
   87MOL0     H11711   4.100   8.741   5.802  1.9451  0.2398  0.8933
   87MOL0     H11712   4.149   8.772   5.961  2.5545  2.1703 -0.5370
   87MOL0     H11713   3.887   8.835   5.842  2.2609 -2.1148 -1.3316
   87MOL0     H11714   3.936   8.770   5.998 -1.7844 -1.6298 -1.2480
   87MOL0     H11715   3.965   9.058   5.944  0.4985  1.7937  1.4752
   87MOL0     H11716   4.001   8.976   6.095 -0.6212 -1.8490 -0.4796
   87MOL0     H11717   3.727   8.999   5.957  0.9442 -0.7344 -0.4493
   87MOL0     H11718   3.752   8.897   6.100  1.7732 -1.0230 -0.5026
   87MOL0     H11719   3.814   9.184   6.074  0.0014 -1.7852 -1.7987
   87MOL0     H11720   3.829   9.093   6.223 -1.4109  1.2504  1.7307
   87MOL0     H11721   3.549   9.091   6.094  0.6918 -1.3752  0.7190
   87MOL0     H11722   3.590   9.067   6.263 -2.6329  0.9007 -0.1760
   87MOL0     H11723   3.574   9.327   6.105 -0.3597 -0.0121 -0.3836
   87MOL0     H11724   3.661   9.325   6.254 -0.5625  2.0899 -0.5864
   87MOL0     H11725   3.427   9.387   6.299  0.7471 -0.8745 -0.4836
   87MOL0     H11726   3.463   9.240   6.384 -0.3218  1.0923  0.4717
   87MOL0     H11727   4.324   8.720   5.758  0.7234 -0.9026  1.4277
   87MOL0     H11728   4.567   8.748   5.691  2.7005  1.3572 -1.2595
   87MOL0     H11729   4.899   8.831   5.601  0.8106 -1.0846 -2.4967
   87MOL0     H11730   5.116   8.810   5.510 -4.5476 -0.4801 -1.7803
   87MOL0     H11731   7.204   8.854   5.976  0.9703 -1.0733  2.4497
   87MOL0     H11732   7.439   8.780   5.977 -0.0587 -0.0461  0.4203
   87MOL0     H11733   7.813   8.543   5.817  3.4325 -1.7877 -0.2903
   87MOL0     H11734   8.050   8.520   5.803 -2.5311 -0.0936  4.3056
   87MOL0     H11735   8.223   8.496   5.664  0.7826 -1.3937  3.5821
   87MOL0     H11736   8.361   8.590   5.600 -0.6789 -0.7118 -1.9107
   87MOL0     H11737   8.391   8.463   5.828  0.0632 -0.9583  1.2444
   87MOL0     H11738   8.284   8.586   5.892  0.4705 -0.9317 -0.2278
   87MOL0     H11739   8.446   8.751   5.791  2.1101 -0.3897 -4.1416
   87MOL0     H11740   8.547   8.620   5.752  2.4076  1.6663  1.9772
   87MOL0     H11741   8.453   8.667   6.031 -0.1528  0.8007 -0.5221
   87MOL0     H11742   8.608   8.721   5.973  0.7822 -0.3425 -1.3380
   87MOL0     H11743   8.679   8.300   6.009  1.3378  0.7579  0.6248
   87MOL0     H11744   8.050   8.887   5.567  0.1931 -0.0305 -0.4457
   87MOL0     H11745   7.820   8.901   5.589  2.4796 -0.5350 -2.8718
   88MOL0     O11746   3.043   0.486   7.817 -0.2392 -0.9598  0.3712
   88MOL0     C11747   3.037   0.470   7.936 -0.1477 -0.1209 -0.2529
   88MOL0     O11748   2.921   0.429   8.005  0.2489 -1.1886  0.3056
   88MOL0     C11749   2.794   0.418   7.936 -0.1750 -0.8479  0.0612
   88MOL0     C11750   2.703   0.323   7.987  0.7290  1.0341  0.4402
   88MOL0     C11751   2.568   0.310   7.936  0.3285 -0.1629  0.2254
   88MOL0     C11752   2.523   0.391   7.835 -0.5690 -0.4740  0.0863
   88MOL0     O11753   2.400   0.364   7.788  0.2191 -0.0961  0.0581
   88MOL0     C11754   2.375   0.382   7.645  0.1959  0.1253  0.3227
   88MOL0     C11755   2.223   0.397   7.612 -0.0050 -0.5409  0.2635
   88MOL0     C11756   2.145   0.494   7.699 -0.3120 -0.3446  0.4243
   88MOL0     C11757   2.009   0.511   7.643 -1.1747 -0.3954  0.2758
   88MOL0     C11758   1.937   0.615   7.716 -0.3689 -0.6476  0.2732
   88MOL0     C11759   1.800   0.669   7.674  0.2303  0.1247  0.5357
   88MOL0     C11760   1.678   0.581   7.664 -0.3326  0.8622  0.2765
   88MOL0     C11761   1.646   0.522   7.791  0.9893  0.1026  0.6433
   88MOL0     N11762   1.531   0.437   7.783  0.4749 -0.2358 -0.1941
   88MOL0     C11763   1.406   0.488   7.792  0.1857 -0.3339  0.4791
   88MOL0     C11764   1.318   0.386   7.756  0.1129 -0.9007 -0.6504
   88MOL0     C11765   1.170   0.401   7.739 -0.2325  0.1862 -0.4013
   88MOL0     C11766   1.098   0.459   7.866  0.0760  0.7809  0.2800
   88MOL0     C11767   0.949   0.455   7.862  0.2184  0.4430 -1.3082
   88MOL0     C11768   0.879   0.329   7.936 -0.4784 -0.0729  0.5647
   88MOL0     O11769   0.741   0.360   7.920 -0.0762  0.6402  0.3601
   88MOL0     C11770   0.654   0.321   8.014  0.5950  0.5217  0.9404
   88MOL0     C11771   0.654   0.196   8.070  0.5480  0.1205  0.9154
   88MOL0     C11772   0.555   0.152   8.157 -0.3271  0.6167  0.1147
   88MOL0     C11773   0.594   0.015   8.212  0.3933  0.1450 -0.1265
   88MOL0     C11774   0.443   0.232   8.175  1.0174  0.0283  0.2318
   88MOL0     C11775   0.326   0.184   8.252  0.8613  0.6381  0.4032
   88MOL0     O11776   0.213   0.263   8.260 -0.1038  0.1752 -0.0824
   88MOL0     C11777   0.099   0.207   8.311  0.2233  0.8377 -0.3845
   88MOL0     C11778   0.031   0.271   8.418  0.1535 -0.4548 -0.7919
   88MOL0     C11779  -0.093   0.221   8.473  0.8571  0.4048 -0.2728
   88MOL0     C11780  -0.152   0.108   8.422 -1.5311 -0.4732 -0.3753
   88MOL0     O11781  -0.257   0.051   8.483  0.2841 -1.0313 -0.0843
   88MOL0     C11782  -0.361   0.004   8.408 -0.8163  0.1922 -0.1839
   88MOL0     C11783  -0.481  -0.004   8.481 -0.3877  0.3876 -0.1654
   88MOL0     C11784  -0.498  -0.125   8.572  0.3831 -0.4880  0.6353
   88MOL0     C11785  -0.516  -0.259   8.499 -0.4585  0.4212 -0.6436
   88MOL0     C11786  -0.570  -0.363   8.603 -0.0775  0.3578  0.7488
   88MOL0     C11787  -0.488  -0.389   8.728  0.8727  0.1570 -0.2309
   88MOL0     C11788  -0.379  -0.491   8.698 -0.3945 -0.2761 -1.2769
   88MOL0     C11789  -0.303  -0.550   8.819 -0.5018  0.9364 -0.7945
   88MOL0    Cl11790  -0.186  -0.675   8.758 -0.4391  0.3374  0.5570
   88MOL0     C11791  -0.086   0.052   8.313  0.0880  0.6541 -0.5693
   88MOL0     C11792   0.035   0.096   8.263  0.0035  0.2503 -0.0070
   88MOL0     O11793   0.337   0.076   8.307 -0.6115  0.0849 -1.3312
   88MOL0     C11794   0.425   0.351   8.092 -1.5250 -0.4215  0.8196
   88MOL0     C11795   0.535   0.395   8.016 -0.3921 -0.0839  0.2025
   88MOL0     N11796   1.396   0.281   7.720 -0.0949 -0.0359 -0.5504
   88MOL0     N11797   1.521   0.314   7.736 -0.4818  0.0930  0.5750
   88MOL0     C11798   2.615   0.490   7.784  0.6519  0.0794  0.7329
   88MOL0     C11799   2.748   0.505   7.825  0.2542 -0.1302 -0.7916
   88MOL0     C11800   3.158   0.482   8.012  0.0875 -0.5665 -0.3866
   88MOL0     C11801   3.149   0.525   8.149 -0.2149 -0.3841 -0.3839
   88MOL0     C11802   3.271   0.543   8.223  0.1877  0.2902 -0.3188
   88MOL0     C11803   3.392   0.517   8.167  1.0757 -0.3315  0.0268
   88MOL0     O11804   3.513   0.537   8.229  0.0592 -0.4093 -0.3344
   88MOL0     C11805   3.530   0.539   8.365 -0.8993  0.5015  0.2659
   88MOL0     C11806   3.490   0.415   8.445 -0.8427 -0.4405  0.1045
   88MOL0     C11807   3.595   0.328   8.509 -0.7304 -0.0388 -0.6805
   88MOL0     C11808   3.648   0.228   8.414  0.4014 -0.6860 -0.2392
   88MOL0     C11809   3.756   0.140   8.459  0.5643 -0.6365  0.3316
   88MOL0     C11810   3.852   0.087   8.502 -0.2293  0.8345  0.1321
   88MOL0     C11811   3.398   0.475   8.037 -0.0464 -0.6426  0.2052
   88MOL0     C11812   3.282   0.460   7.954 -0.0762 -0.1149 -0.1907
   88MOL0     H11813   2.730   0.274   8.079 -2.2952  1.7073  1.8278
   88MOL0     H11814   2.500   0.237   7.979 -0.6114  0.7167  0.2712
   88MOL0     H11815   2.424   0.475   7.616 -0.5535 -0.7008 -4.3970
   88MOL0     H11816   2.405   0.295   7.585  0.3524 -0.9385  1.8988
   88MOL0     H11817   2.204   0.418   7.506 -3.5751 -1.3257  0.6360
   88MOL0     H11818   2.189   0.294   7.627 -0.7485 -0.1517  1.2922
   88MOL0     H11819   2.138   0.449   7.798 -1.3803  0.0154  0.5199
   88MOL0     H11820   2.197   0.590   7.710 -0.5982 -0.3664  2.1492
   88MOL0     H11821   2.018   0.546   7.539 -1.7565 -0.4726  0.1961
   88MOL0     H11822   1.947   0.422   7.646  0.6451 -1.8233 -1.3685
   88MOL0     H11823   1.924   0.577   7.818 -0.9630 -0.8150  0.1384
   88MOL0     H11824   2.006   0.700   7.720 -1.9887  0.7150  0.5497
   88MOL0     H11825   1.780   0.765   7.723  0.6252  1.1311 -1.1936
   88MOL0     H11826   1.801   0.698   7.569  1.1602 -1.6548  0.0148
   88MOL0     H11827   1.595   0.640   7.625  1.0551  1.7930 -1.4122
   88MOL0     H11828   1.711   0.506   7.592 -0.7663  1.9245 -1.0687
   88MOL0     H11829   1.618   0.597   7.866  0.3893 -0.4512  0.9932
   88MOL0     H11830   1.729   0.473   7.842  0.5629 -0.5455  0.7239
   88MOL0     H11831   1.388   0.591   7.818 -1.6640 -0.3673 -0.5282
   88MOL0     H11832   1.144   0.466   7.654  1.7793  0.4400 -0.8808
   88MOL0     H11833   1.133   0.300   7.720  0.6721 -0.4655  1.2012
   88MOL0     H11834   1.136   0.561   7.873  0.1386  0.8366 -0.8238
   88MOL0     H11835   1.136   0.413   7.958 -0.7177  0.7095  0.5794
   88MOL0     H11836   0.904   0.465   7.763 -1.7527 -0.6567 -0.5779
   88MOL0     H11837   0.918   0.543   7.919  0.7317 -0.6347  0.7517
   88MOL0     H11838   0.894   0.328   8.044  0.4586 -2.3357  0.4719
   88MOL0     H11839   0.900   0.234   7.887  0.9742 -0.8599  2.5919
   88MOL0     H11840   0.743   0.139   8.050  0.4209  0.3096 -0.2460
   88MOL0     H11841   0.518  -0.063   8.203  1.2043 -0.7633  0.7140
   88MOL0     H11842   0.686  -0.033   8.179  0.0805 -1.7082  1.4932
   88MOL0     H11843   0.618   0.035   8.317  1.4072 -0.9672 -0.1282
   88MOL0     H11844   0.073   0.362   8.459 -0.9915 -0.5408  0.6677
   88MOL0     H11845  -0.147   0.270   8.554 -0.5835 -0.4819 -0.6557
   88MOL0     H11846  -0.373   0.065   8.318  2.0944  0.2794 -0.5931
   88MOL0     H11847  -0.331  -0.094   8.369 -0.0960  0.5749 -0.6082
   88MOL0     H11848  -0.494   0.088   8.540 -2.4153 -0.6130  1.0708
   88MOL0     H11849  -0.557  -0.009   8.403  1.2733  1.7102 -1.9781
   88MOL0     H11850  -0.591  -0.108   8.627 -0.8488 -1.9054 -0.9037
   88MOL0     H11851  -0.413  -0.135   8.640  1.2007 -1.8664 -0.5303
   88MOL0     H11852  -0.585  -0.253   8.414 -1.5592 -1.3318  0.0544
   88MOL0     H11853  -0.425  -0.304   8.459 -1.6523 -1.5635 -1.2811
   88MOL0     H11854  -0.584  -0.455   8.544  1.9284  1.1876 -1.1673
   88MOL0     H11855  -0.670  -0.333   8.635 -0.0638  1.5334 -0.2308
   88MOL0     H11856  -0.445  -0.298   8.768 -3.2096  1.2120  2.3417
   88MOL0     H11857  -0.547  -0.438   8.806 -0.1216  0.2352 -0.9086
   88MOL0     H11858  -0.305  -0.441   8.635 -0.5047 -0.4700 -1.5647
   88MOL0     H11859  -0.422  -0.570   8.635 -0.7855 -0.9009 -0.2555
   88MOL0     H11860  -0.377  -0.598   8.883  0.8493  1.3696  1.1950
   88MOL0     H11861  -0.241  -0.474   8.869  4.0645 -1.3410 -2.3771
   88MOL0     H11862  -0.139  -0.028   8.262  0.4212  1.4447 -2.2315
   88MOL0     H11863   0.094   0.034   8.196 -0.8700  0.2633 -0.8059
   88MOL0     H11864   0.334   0.410   8.097 -0.7968  0.6245  3.4518
   88MOL0     H11865   0.534   0.491   7.965  1.5855  0.4938  1.1629
   88MOL0     H11866   2.585   0.565   7.712 -3.7922  1.0242  3.2027
   88MOL0     H11867   2.812   0.582   7.781  0.4222 -0.3045 -0.8522
   88MOL0     H11868   3.051   0.548   8.191 -0.6073  0.0218 -1.4952
   88MOL0     H11869   3.263   0.589   8.321 -1.4265  1.2237 -0.8446
   88MOL0     H11870   3.638   0.544   8.378 -0.9796  1.4965  0.6694
   88MOL0     H11871   3.489   0.631   8.408 -2.5208 -0.6551  1.3448
   88MOL0     H11872   3.423   0.358   8.380 -1.9523  1.8608 -0.8879
   88MOL0     H11873   3.425   0.452   8.524  0.8475  1.6154  0.6190
   88MOL0     H11874   3.561   0.271   8.596 -0.6758 -1.4981 -1.5715
   88MOL0     H11875   3.679   0.387   8.547  1.1461 -0.0585 -4.3514
   88MOL0     H11876   3.680   0.274   8.320  0.9278 -0.2219  0.1561
   88MOL0     H11877   3.564   0.162   8.392 -1.3847  1.7981 -1.3347
   88MOL0     H11878   3.936   0.038   8.548 -0.6858  0.4546  0.5842
   88MOL0     H11879   3.499   0.453   8.003 -0.1214  0.2046 -0.6281
   88MOL0     H11880   3.295   0.441   7.848  2.4999 -0.1290  0.0744
   89MOL0     O11881   4.720   3.884   4.664 -0.2555 -0.3446  0.2152
   89MOL0     C11882   4.782   3.974   4.718 -0.1199 -0.5464 -0.3091
   89MOL0     O11883   4.722   4.070   4.798  0.8450  0.2087  0.1368
   89MOL0     C11884   4.586   4.072   4.819 -0.7822 -0.2844 -0.2257
   89MOL0     C11885   4.536   4.010   4.929 -0.3570 -0.3606 -0.4308
   89MOL0     C11886   4.393   3.996   4.948 -0.6542 -0.7153  0.3963
   89MOL0     C11887   4.311   4.052   4.850 -0.0188 -0.7028  0.8980
   89MOL0     O11888   4.182   4.051   4.885 -0.0800  0.0454 -0.6502
   89MOL0     C11889   4.077   4.087   4.787 -0.4802  0.0650 -1.4777
   89MOL0     C11890   4.027   4.230   4.796 -0.6743 -0.4146 -0.5782
   89MOL0     C11891   3.895   4.243   4.727  0.1016  0.3189 -0.0664
   89MOL0     C11892   3.858   4.391   4.699 -0.1179 -0.5249  0.5250
   89MOL0     C11893   3.709   4.402   4.665 -0.3973  0.4775  0.1879
   89MOL0     C11894   3.685   4.548   4.617  0.6407  0.1049 -0.8598
   89MOL0     C11895   3.543   4.570   4.562  1.6760 -0.2141 -0.5472
   89MOL0     C11896   3.518   4.725   4.556 -0.1518  0.5151  0.6101
   89MOL0     N11897   3.370   4.740   4.554 -0.1749  0.4889  0.4174
   89MOL0     C11898   3.309   4.805   4.451  0.1094 -0.7360  0.9841
   89MOL0     C11899   3.178   4.804   4.482  0.5405  0.2899 -0.4578
   89MOL0     C11900   3.063   4.881   4.422 -0.1914 -0.3023 -0.2076
   89MOL0     C11901   3.079   5.034   4.425  0.1515 -0.8414  0.4341
   89MOL0     C11902   2.943   5.113   4.455 -0.9656 -0.0165 -0.0447
   89MOL0     C11903   2.862   5.162   4.345 -0.5776  0.2768 -0.6747
   89MOL0     O11904   2.748   5.232   4.392 -1.0256 -0.0534  0.1236
   89MOL0     C11905   2.645   5.262   4.305  1.2820  1.1196 -0.6144
   89MOL0     C11906   2.649   5.251   4.163  0.9559 -0.1398  0.0473
   89MOL0     C11907   2.535   5.294   4.090 -1.3942 -0.6692  0.2995
   89MOL0     C11908   2.538   5.268   3.942  0.3462  0.0962  0.0166
   89MOL0     C11909   2.417   5.351   4.150  0.0365  0.9176  0.3463
   89MOL0     C11910   2.301   5.408   4.083 -0.1490  1.6067  0.6506
   89MOL0     O11911   2.244   5.513   4.149  0.2257  0.3095  0.3404
   89MOL0     C11912   2.156   5.597   4.074 -0.5332 -0.7498  0.1752
   89MOL0     C11913   2.052   5.644   4.144 -0.5147 -0.6812  0.4523
   89MOL0     C11914   1.959   5.734   4.089  0.6321 -0.0582 -0.2493
   89MOL0     C11915   1.975   5.776   3.963  0.3463 -0.0121 -0.5804
   89MOL0     O11916   1.876   5.847   3.893 -0.1478  0.0422  0.1343
   89MOL0     C11917   1.755   5.785   3.874 -1.0312  0.3398 -0.3058
   89MOL0     C11918   1.662   5.886   3.801 -0.4609  0.4928  0.2797
   89MOL0     C11919   1.562   5.811   3.698  0.3644 -0.1762 -0.9743
   89MOL0     C11920   1.507   5.921   3.597 -0.7442 -0.0613  0.2348
   89MOL0     C11921   1.401   5.872   3.495  0.2593  0.3858 -0.3209
   89MOL0     C11922   1.323   5.991   3.460 -0.4802  0.0703  0.6141
   89MOL0     C11923   1.204   5.976   3.362  0.1921 -0.7175 -0.4942
   89MOL0     C11924   1.164   6.112   3.286  0.1065 -0.1823  0.0975
   89MOL0    Cl11925   0.998   6.088   3.208 -0.0747 -0.2810  0.3734
   89MOL0     C11926   2.086   5.730   3.889 -0.1279  0.0697  1.4403
   89MOL0     C11927   2.167   5.634   3.940 -0.2989  0.2419  0.4258
   89MOL0     O11928   2.255   5.351   3.986  0.3567 -0.3076  0.2434
   89MOL0     C11929   2.418   5.348   4.289 -0.0915  0.0650 -0.8711
   89MOL0     C11930   2.526   5.303   4.363  0.6002 -0.0013 -0.3007
   89MOL0     N11931   3.165   4.718   4.593  0.7693 -1.0085 -0.2378
   89MOL0     N11932   3.274   4.690   4.642 -0.5178 -0.0377  0.2008
   89MOL0     C11933   4.378   4.122   4.738 -0.1087 -0.3429  0.3336
   89MOL0     C11934   4.511   4.133   4.726  0.0454 -0.2451 -0.1532
   89MOL0     C11935   4.928   3.984   4.700  0.1211 -1.3174  0.2227
   89MOL0     C11936   5.003   3.871   4.659  0.5130 -0.5664  0.1227
   89MOL0     C11937   5.142   3.873   4.659  0.6594 -0.0669 -0.0317
   89MOL0     C11938   5.215   3.982   4.689  1.6563  0.5236  0.1631
   89MOL0     O11939   5.346   3.964   4.700 -0.1534 -0.0506  0.1190
   89MOL0     C11940   5.434   4.073   4.725  0.5588 -0.4590 -0.0574
   89MOL0     C11941   5.585   4.060   4.684  0.7567  0.4457 -0.2645
   89MOL0     C11942   5.659   4.191   4.680 -0.2081  0.1056  0.4333
   89MOL0     C11943   5.810   4.163   4.670  0.1855 -1.0180 -0.6790
   89MOL0     C11944   5.876   4.280   4.633 -0.4552 -0.2260 -0.0320
   89MOL0     C11945   5.940   4.381   4.605 -0.4631  0.0482  0.1892
   89MOL0     C11946   5.142   4.092   4.747 -0.0429 -0.2716  0.0816
   89MOL0     C11947   5.005   4.099   4.739 -0.0229  0.1102  0.0256
   89MOL0     H11948   4.606   3.964   4.998  0.8907 -0.9508 -2.0269
   89MOL0     H11949   4.345   3.955   5.036 -3.1206  1.1836  0.0686
   89MOL0     H11950   4.109   4.065   4.685 -1.4112 -1.5547 -1.4547
   89MOL0     H11951   3.989   4.026   4.811 -2.4820  3.6982  1.5882
   89MOL0     H11952   4.002   4.253   4.900 -3.8921  0.0586 -1.3533
   89MOL0     H11953   4.093   4.305   4.751 -1.9567  2.2431  1.6293
   89MOL0     H11954   3.899   4.194   4.629 -3.5200 -5.5781  2.2807
   89MOL0     H11955   3.817   4.203   4.792  0.8705 -2.4297 -0.7060
   89MOL0     H11956   3.877   4.453   4.787  1.1857 -0.0117 -0.0849
   89MOL0     H11957   3.910   4.434   4.612 -3.2550 -1.8276 -2.2054
   89MOL0     H11958   3.682   4.320   4.596  0.7843  0.0652  0.1997
   89MOL0     H11959   3.654   4.390   4.759 -0.6541  1.1450  0.1258
   89MOL0     H11960   3.703   4.598   4.713 -3.2032  1.1185 -0.4918
   89MOL0     H11961   3.754   4.585   4.541  0.5105 -0.5705 -1.3184
   89MOL0     H11962   3.535   4.527   4.462 -0.2624 -2.3380  0.4066
   89MOL0     H11963   3.475   4.522   4.633  3.4810 -0.4795  1.0917
   89MOL0     H11964   3.580   4.757   4.471  0.5700 -0.1680  0.8708
   89MOL0     H11965   3.553   4.771   4.649 -1.1109  3.1480 -0.2309
   89MOL0     H11966   3.351   4.873   4.377 -0.1903 -0.8569  0.6993
   89MOL0     H11967   3.057   4.838   4.322  2.0551 -0.2805 -0.4150
   89MOL0     H11968   2.965   4.861   4.467  0.1144 -0.4604  0.4015
   89MOL0     H11969   3.119   5.063   4.327  0.5419 -1.5122  0.3841
   89MOL0     H11970   3.149   5.056   4.507 -1.3405 -3.9478  2.7602
   89MOL0     H11971   2.983   5.205   4.501 -1.6370 -0.0413  0.5941
   89MOL0     H11972   2.881   5.059   4.526 -2.6792  2.0469  0.1117
   89MOL0     H11973   2.833   5.076   4.285 -1.1618 -0.4824  0.6438
   89MOL0     H11974   2.928   5.218   4.278  3.1349 -1.0452  1.5839
   89MOL0     H11975   2.735   5.216   4.107  1.0457  1.7202 -1.0322
   89MOL0     H11976   2.468   5.186   3.927 -1.9349  1.0933  3.7514
   89MOL0     H11977   2.497   5.347   3.879  0.4112 -1.2091 -1.7238
   89MOL0     H11978   2.636   5.234   3.906 -0.2628 -1.1591 -0.5044
   89MOL0     H11979   2.036   5.617   4.247 -2.4540  1.1674  0.7249
   89MOL0     H11980   1.873   5.754   4.152 -0.4431 -0.4909 -1.5476
   89MOL0     H11981   1.762   5.690   3.820 -0.6751 -2.9053  4.7478
   89MOL0     H11982   1.708   5.760   3.970  0.3720  0.3801  0.4175
   89MOL0     H11983   1.622   5.960   3.870  0.6993  1.7557 -0.3541
   89MOL0     H11984   1.716   5.949   3.729  0.8026  0.8880  1.5418
   89MOL0     H11985   1.476   5.775   3.754 -0.3575  0.2919 -1.7698
   89MOL0     H11986   1.617   5.728   3.652 -1.4414 -1.8209 -0.2721
   89MOL0     H11987   1.469   6.008   3.652 -0.4488 -0.1157  0.5268
   89MOL0     H11988   1.582   5.957   3.527 -3.4259 -0.6594 -3.2392
   89MOL0     H11989   1.330   5.804   3.544  1.5519  0.8559  2.4259
   89MOL0     H11990   1.461   5.834   3.412  1.2036 -0.4998  0.7286
   89MOL0     H11991   1.287   6.048   3.546 -0.9200 -0.0432  0.5094
   89MOL0     H11992   1.401   6.047   3.408  0.4205 -0.4010  1.4375
   89MOL0     H11993   1.111   5.950   3.413 -1.2169 -3.4926 -4.1050
   89MOL0     H11994   1.220   5.906   3.280 -2.5357 -0.0487 -1.6753
   89MOL0     H11995   1.243   6.143   3.218  0.6357  2.5519  1.8136
   89MOL0     H11996   1.166   6.196   3.357  1.3238  0.7322 -0.9783
   89MOL0     H11997   2.108   5.774   3.792 -1.4198  0.6265  1.3769
   89MOL0     H11998   2.238   5.582   3.876  1.5190  2.2172  0.7199
   89MOL0     H11999   2.330   5.392   4.335  1.8353  1.7638  1.3622
   89MOL0     H12000   2.525   5.308   4.471 -1.0727 -0.2691 -0.2882
   89MOL0     H12001   4.303   4.169   4.674 -3.1234 -1.1100  3.0310
   89MOL0     H12002   4.551   4.190   4.642 -1.3213  1.4405  0.2796
   89MOL0     H12003   4.948   3.782   4.629 -0.3124 -1.2881  3.3448
   89MOL0     H12004   5.178   3.774   4.630 -0.2459 -0.0835 -1.1608
   89MOL0     H12005   5.394   4.143   4.651 -1.5658  0.2089  1.6140
   89MOL0     H12006   5.417   4.114   4.825 -0.8891 -2.8041  0.7665
   89MOL0     H12007   5.597   4.018   4.584  2.1361  0.1935 -0.0226
   89MOL0     H12008   5.633   4.001   4.763 -2.2791 -0.3437  1.1195
   89MOL0     H12009   5.632   4.262   4.758 -2.6872 -0.8126  0.5132
   89MOL0     H12010   5.635   4.232   4.581  1.1990 -0.7543 -0.3073
   89MOL0     H12011   5.825   4.081   4.600 -0.2644 -1.6506 -0.0489
   89MOL0     H12012   5.839   4.139   4.773 -1.5340  2.2614  0.7411
   89MOL0     H12013   5.991   4.475   4.596  0.5430 -0.5049 -0.0403
   89MOL0     H12014   5.195   4.174   4.796  0.9223 -1.6577  1.4598
   89MOL0     H12015   4.950   4.182   4.781  1.7160  0.9295  0.7806
   90MOL0     O12016   2.734  10.306   9.644 -0.8113 -0.3258  0.9364
   90MOL0     C12017   2.783  10.363   9.737 -0.4273 -0.0347  0.7578
   90MOL0     O12018   2.739  10.470   9.810 -0.0953 -0.0779 -0.0212
   90MOL0     C12019   2.662  10.566   9.760 -0.2323  0.0468  1.1013
   90MOL0     C12020   2.656  10.687   9.828  0.4359 -0.3704 -0.1352
   90MOL0     C12021   2.579  10.794   9.775  0.4408  0.0492  0.3116
   90MOL0     C12022   2.500  10.783   9.664 -0.3070 -0.4697  0.0901
   90MOL0     O12023   2.422  10.880   9.608  0.1086 -0.4796 -0.0758
   90MOL0     C12024   2.435  11.015   9.665  0.9143  0.2587 -0.5245
   90MOL0     C12025   2.358  11.033   9.802  0.6925 -0.4968  0.7785
   90MOL0     C12026   2.214  11.079   9.786 -0.7861  0.1297 -0.3204
   90MOL0     C12027   2.116  10.981   9.710 -0.0355 -0.0718 -0.1734
   90MOL0     C12028   1.976  11.032   9.749 -0.0730  0.4050 -0.7081
   90MOL0     C12029   1.867  10.926   9.703 -0.2718  0.8763 -0.2400
   90MOL0     C12030   1.721  10.952   9.760 -0.3753 -0.4686  0.5383
   90MOL0     C12031   1.640  10.822   9.782 -0.2112 -0.4663 -0.2901
   90MOL0     N12032   1.505  10.847   9.838 -0.3852 -0.3687 -0.5703
   90MOL0     C12033   1.493  10.907   9.966  0.0867 -0.6036 -0.1637
   90MOL0     C12034   1.358  10.944   9.970 -0.4364 -0.0916 -0.5039
   90MOL0     C12035   1.280  11.013  10.088  0.3801 -0.3164  0.3424
   90MOL0     C12036   1.127  11.012  10.060 -0.9241 -0.1773  0.9935
   90MOL0     C12037   1.060  11.080  10.180 -0.2185 -0.0235 -0.4752
   90MOL0     C12038   0.903  11.093  10.171 -0.1061  0.4168  0.0704
   90MOL0     O12039   0.851  10.963  10.163 -0.3210  0.2966  0.0923
   90MOL0     C12040   0.727  10.935  10.145  0.1969 -1.2147  0.0078
   90MOL0     C12041   0.677  10.809  10.181  0.3279  0.6125 -0.1742
   90MOL0     C12042   0.542  10.770  10.162  0.0459 -1.3111 -0.4472
   90MOL0     C12043   0.514  10.634  10.222  0.4490  0.5195 -0.0867
   90MOL0     C12044   0.448  10.867  10.121 -0.2857  0.5829 -0.0972
   90MOL0     C12045   0.298  10.831  10.135 -0.3694  1.0178  0.2463
   90MOL0     O12046   0.223  10.938  10.153 -0.3696 -0.0405 -0.8454
   90MOL0     C12047   0.087  10.925  10.172  0.1794  0.9056 -0.1968
   90MOL0     C12048  -0.006  10.946  10.071 -0.3540 -0.3572 -0.3146
   90MOL0     C12049  -0.143  10.943  10.105 -0.1384 -1.0901 -0.0220
   90MOL0     C12050  -0.196  10.897  10.225 -0.3899 -0.2347 -0.9168
   90MOL0     O12051  -0.326  10.885  10.238  0.6427 -0.6186  0.0306
   90MOL0     C12052  -0.377  10.804  10.341 -0.8572 -0.3375  0.7906
   90MOL0     C12053  -0.373  10.656  10.316  0.1818  0.6151 -0.6783
   90MOL0     C12054  -0.399  10.602  10.171 -0.9910  0.4844  0.6376
   90MOL0     C12055  -0.427  10.448  10.190  0.3773 -0.2664  0.0048
   90MOL0     C12056  -0.570  10.431  10.229 -0.0081 -0.1017  0.3803
   90MOL0     C12057  -0.684  10.486  10.132 -0.5881  0.0503  0.5051
   90MOL0     C12058  -0.811  10.418  10.188  0.5208 -0.1427 -1.1150
   90MOL0     C12059  -0.905  10.502  10.276 -0.3452 -0.3391  0.5795
   90MOL0    Cl12060  -0.979  10.637  10.190 -0.2440  0.4295  0.0977
   90MOL0     C12061  -0.100  10.865  10.324 -0.4204  0.2362  0.1965
   90MOL0     C12062   0.036  10.885  10.294 -1.0393  0.4289 -0.8357
   90MOL0     O12063   0.255  10.717  10.102 -0.3728 -1.0820  0.0306
   90MOL0     C12064   0.497  10.993  10.081  0.6969 -0.3587  0.7306
   90MOL0     C12065   0.630  11.022  10.078  0.3461 -0.2542  0.0366
   90MOL0     N12066   1.305  10.893   9.855  0.1312 -0.1696 -0.3345
   90MOL0     N12067   1.389  10.844   9.770 -0.3463 -0.5528  0.5296
   90MOL0     C12068   2.507  10.658   9.603  0.0530  0.0966  0.9795
   90MOL0     C12069   2.573  10.548   9.654  0.2331  0.0393 -0.1168
   90MOL0     C12070   2.924  10.322   9.781 -0.2651 -0.2844 -1.1908
   90MOL0     C12071   2.986  10.373   9.896  0.9004 -0.3218  0.4200
   90MOL0     C12072   3.120  10.348   9.934  0.1083  0.2082  0.5587
   90MOL0     C12073   3.193  10.257   9.855  0.3608  0.0648  0.2244
   90MOL0     O12074   3.320  10.207   9.892  0.2963 -0.1890 -0.1202
   90MOL0     C12075   3.381  10.275   9.999 -0.5604  0.3376  0.2092
   90MOL0     C12076   3.506  10.206  10.044 -0.2531  0.2195 -0.0955
   90MOL0     C12077   3.478  10.094  10.138 -0.8185  0.4945  0.4431
   90MOL0     C12078   3.588  10.090  10.248 -0.4486  0.3125  0.0189
   90MOL0     C12079   3.719  10.059  10.182  0.4801 -0.6969 -0.6952
   90MOL0     C12080   3.830  10.044  10.135  0.8491  1.0212  0.0412
   90MOL0     C12081   3.135  10.206   9.738  0.8207 -0.0254 -0.2442
   90MOL0     C12082   3.008  10.243   9.705 -0.7364  0.2728  0.4335
   90MOL0     H12083   2.712  10.693   9.921  0.1258 -2.0025  0.1843
   90MOL0     H12084   2.576  10.883   9.837  1.3072 -0.3150  0.8979
   90MOL0     H12085   2.541  11.042   9.675  1.1513 -1.2408  1.7222
   90MOL0     H12086   2.394  11.085   9.591  3.9421  1.1482 -1.4950
   90MOL0     H12087   2.362  10.945   9.867  0.3942  1.0522  3.0148
   90MOL0     H12088   2.416  11.110   9.853 -0.2995 -0.4407  1.8878
   90MOL0     H12089   2.182  11.098   9.889 -0.2718  0.4269 -0.2167
   90MOL0     H12090   2.209  11.172   9.730  1.9012 -0.1104 -1.1006
   90MOL0     H12091   2.128  10.989   9.601  1.8924 -0.3166 -0.0146
   90MOL0     H12092   2.128  10.876   9.737 -0.0186 -0.6624 -2.2575
   90MOL0     H12093   1.979  11.053   9.856  1.9084 -3.2820  0.1187
   90MOL0     H12094   1.958  11.125   9.695 -1.4678 -0.2181 -1.3684
   90MOL0     H12095   1.861  10.924   9.593  1.1728 -1.3648 -0.3459
   90MOL0     H12096   1.896  10.825   9.732 -2.7517  0.2734  0.3286
   90MOL0     H12097   1.730  11.001   9.857  2.1173 -0.7502  0.5349
   90MOL0     H12098   1.677  11.030   9.698  0.4311 -0.0826  0.4428
   90MOL0     H12099   1.690  10.772   9.865  1.8539  2.1038  0.1458
   90MOL0     H12100   1.630  10.767   9.688  1.1828  0.2842 -0.9047
   90MOL0     H12101   1.575  10.913  10.038  0.8879 -1.3084 -0.9941
   90MOL0     H12102   1.309  10.967  10.183 -3.3513 -0.2091  1.6751
   90MOL0     H12103   1.304  11.119  10.100 -2.7473  0.4167  0.8007
   90MOL0     H12104   1.091  10.910  10.046  0.0431 -0.7323  2.3038
   90MOL0     H12105   1.110  11.057   9.962  1.3632 -3.8871 -1.3544
   90MOL0     H12106   1.114  11.175  10.189 -0.2346 -0.2230  3.3622
   90MOL0     H12107   1.091  11.020  10.266  2.8490  1.6818 -0.2285
   90MOL0     H12108   0.873  11.142  10.077  3.6485  1.3709 -0.7857
   90MOL0     H12109   0.853  11.148  10.252  0.7947 -0.3073  1.1402
   90MOL0     H12110   0.752  10.737  10.211 -1.3014 -1.7428 -1.3845
   90MOL0     H12111   0.421  10.637  10.279  0.9557  0.1042  0.8073
   90MOL0     H12112   0.495  10.570  10.136 -0.7760  2.0029 -0.9609
   90MOL0     H12113   0.592  10.589  10.284 -1.6503 -0.3167  2.1078
   90MOL0     H12114   0.038  10.985   9.979 -0.9294  2.7532  0.6265
   90MOL0     H12115  -0.204  10.973  10.020  1.0703  0.0804 -0.5261
   90MOL0     H12116  -0.346  10.845  10.438 -0.3306  3.0791 -0.6639
   90MOL0     H12117  -0.484  10.827  10.338 -1.0262 -0.9106  1.9472
   90MOL0     H12118  -0.272  10.630  10.350  0.0460  0.5421 -0.3292
   90MOL0     H12119  -0.445  10.614  10.386  0.8467  2.1804  1.0491
   90MOL0     H12120  -0.305  10.610  10.114 -2.1101  2.0822 -1.1111
   90MOL0     H12121  -0.479  10.659  10.122 -1.7550  0.3259  1.6762
   90MOL0     H12122  -0.414  10.404  10.091  2.0064 -0.6898  0.3787
   90MOL0     H12123  -0.357  10.386  10.247  0.0694 -2.1353 -1.5331
   90MOL0     H12124  -0.585  10.474  10.328  0.5081 -0.6202  0.6881
   90MOL0     H12125  -0.587  10.324  10.244  1.5767 -0.4947 -0.3801
   90MOL0     H12126  -0.690  10.594  10.142 -1.4212 -0.1411  2.6047
   90MOL0     H12127  -0.671  10.463  10.026 -1.2769  1.6991  0.0334
   90MOL0     H12128  -0.782  10.322  10.231  1.3547  0.8074  0.5523
   90MOL0     H12129  -0.882  10.390  10.110 -2.7249 -0.5154  1.7230
   90MOL0     H12130  -0.852  10.555  10.356 -0.0823 -0.0053  0.1927
   90MOL0     H12131  -0.983  10.442  10.324  0.4999 -1.6140  0.3877
   90MOL0     H12132  -0.111  10.838  10.428 -0.3926  1.3451  0.5073
   90MOL0     H12133   0.098  10.874  10.382 -1.5684  0.0508 -0.5057
   90MOL0     H12134   0.418  11.064  10.055  2.2811  1.2313  0.0583
   90MOL0     H12135   0.659  11.118  10.037 -0.7085 -0.3955 -1.0945
   90MOL0     H12136   2.446  10.653   9.514 -0.2259 -0.6704  1.2094
   90MOL0     H12137   2.566  10.456   9.597 -0.6315 -0.5994  0.9631
   90MOL0     H12138   2.930  10.427   9.972 -0.6374  2.8383 -2.6780
   90MOL0     H12139   3.160  10.394  10.024  0.4204 -1.8049  1.4857
   90MOL0     H12140   3.387  10.382   9.976 -2.1622  0.2056 -1.0511
   90MOL0     H12141   3.318  10.266  10.089 -0.1539  0.3986  0.5006
   90MOL0     H12142   3.559  10.285  10.098  0.2221  0.2837 -0.6360
   90MOL0     H12143   3.554  10.167   9.953 -0.9312  0.3912 -0.5273
   90MOL0     H12144   3.470  10.007  10.072 -0.1872  1.1727 -0.5699
   90MOL0     H12145   3.383  10.105  10.189 -1.4845 -1.1861 -0.3571
   90MOL0     H12146   3.569  10.015  10.325  1.9137  0.6343  1.0056
   90MOL0     H12147   3.587  10.187  10.299 -1.4088 -0.4462  1.4919
   90MOL0     H12148   3.922  10.030  10.082 -0.4023 -0.7606 -1.8077
   90MOL0     H12149   3.192  10.126   9.692 -1.2356 -2.5195  1.2344
   90MOL0     H12150   2.979  10.200   9.610  1.9420 -0.1927 -0.2506
   91MOL0     O12151  10.521   8.599   0.631 -0.4005  0.0287 -0.0839
   91MOL0     C12152  10.599   8.558   0.718 -0.0064 -0.5213 -0.5496
   91MOL0     O12153  10.556   8.513   0.850  0.3686  0.0407  0.0237
   91MOL0     C12154  10.419   8.506   0.869 -0.4186 -0.2998  0.5029
   91MOL0     C12155  10.376   8.380   0.902  0.7215 -0.1592 -0.3762
   91MOL0     C12156  10.244   8.365   0.938  0.4994 -0.8375  0.3508
   91MOL0     C12157  10.153   8.468   0.920  0.0278  0.1623  0.8188
   91MOL0     O12158  10.016   8.457   0.948  0.0516 -0.0189  0.4141
   91MOL0     C12159   9.948   8.340   0.905  0.2548 -0.2484 -0.4028
   91MOL0     C12160   9.876   8.380   0.774  0.2160  0.6621 -0.0442
   91MOL0     C12161   9.753   8.472   0.801 -0.7967 -0.0542 -0.1940
   91MOL0     C12162   9.642   8.393   0.869 -0.7391 -0.0358  0.2878
   91MOL0     C12163   9.522   8.482   0.884 -0.1347  0.3023 -0.0898
   91MOL0     C12164   9.443   8.501   0.757  0.2210 -0.1221 -0.3729
   91MOL0     C12165   9.342   8.386   0.712 -0.4128  0.1125 -0.9265
   91MOL0     C12166   9.279   8.403   0.578 -0.2038  0.4311 -0.0756
   91MOL0     N12167   9.153   8.488   0.579 -0.0739 -0.2836  0.6219
   91MOL0     C12168   9.035   8.442   0.635  0.7822 -0.2511 -0.8818
   91MOL0     C12169   8.950   8.548   0.644  0.2819  0.0186  0.7599
   91MOL0     C12170   8.802   8.528   0.685  0.9261 -0.5455  0.2412
   91MOL0     C12171   8.787   8.504   0.844 -0.0059 -0.5038 -0.3763
   91MOL0     C12172   8.637   8.494   0.872 -0.2842  0.0907 -0.4599
   91MOL0     C12173   8.602   8.467   1.017 -0.0440 -0.4681 -0.0615
   91MOL0     O12174   8.637   8.329   1.037  0.7499 -0.5433  0.0058
   91MOL0     C12175   8.544   8.237   1.006 -0.2555  0.6883  0.4722
   91MOL0     C12176   8.580   8.109   0.964 -0.1444 -0.4487 -0.1889
   91MOL0     C12177   8.493   8.008   0.934  0.0169 -0.0815  0.2821
   91MOL0     C12178   8.559   7.869   0.910  0.4052 -0.3763 -0.5087
   91MOL0     C12179   8.353   8.026   0.950  0.2554  0.1087  0.5388
   91MOL0     C12180   8.247   7.926   0.913  0.8012 -0.1370 -0.8797
   91MOL0     O12181   8.286   7.817   0.852  0.1930 -0.4963  0.4274
   91MOL0     C12182   8.209   7.710   0.871  0.2658  0.0695 -0.2164
   91MOL0     C12183   8.259   7.602   0.950 -0.6948  0.8549  0.0599
   91MOL0     C12184   8.185   7.500   0.999 -0.3485  0.4263 -0.5530
   91MOL0     C12185   8.051   7.487   0.964  0.6488  0.1321  0.8964
   91MOL0     O12186   7.975   7.380   0.995 -0.3259  0.8762 -0.1577
   91MOL0     C12187   8.041   7.281   1.077  0.7794 -0.2565  0.1370
   91MOL0     C12188   7.942   7.167   1.102 -0.8565 -0.6981  0.1640
   91MOL0     C12189   7.831   7.200   1.203 -0.6560 -0.6333  0.8278
   91MOL0     C12190   7.749   7.079   1.249 -0.2390 -0.4110  0.4519
   91MOL0     C12191   7.651   7.039   1.140 -0.9807 -1.0151  0.5252
   91MOL0     C12192   7.525   6.958   1.190  0.3839 -0.0870  0.2154
   91MOL0     C12193   7.424   7.031   1.274  0.1715  0.5837 -0.0592
   91MOL0     C12194   7.294   6.955   1.289 -0.4060 -0.5474 -0.3918
   91MOL0    Cl12195   7.198   7.003   1.438  0.4058  0.2861  0.2473
   91MOL0     C12196   8.005   7.585   0.870 -0.1627 -0.0002  0.1239
   91MOL0     C12197   8.076   7.690   0.832  0.1549  0.2054  0.1622
   91MOL0     O12198   8.132   7.953   0.955  0.0950 -0.1505 -0.0887
   91MOL0     C12199   8.314   8.151   0.999 -0.2906  0.0845  0.4101
   91MOL0     C12200   8.408   8.255   1.025 -0.0132 -0.4879  1.4750
   91MOL0     N12201   9.010   8.657   0.586  0.0168 -0.4385 -0.1768
   91MOL0     N12202   9.136   8.622   0.559 -0.0343  0.4199 -0.2663
   91MOL0     C12203  10.199   8.593   0.892  0.0949 -0.0259  0.2036
   91MOL0     C12204  10.338   8.619   0.878 -1.2612  0.1610 -0.1426
   91MOL0     C12205  10.748   8.550   0.708  0.1827 -0.5068  0.4141
   91MOL0     C12206  10.829   8.515   0.822 -0.0051  0.1233 -1.1293
   91MOL0     C12207  10.967   8.498   0.811 -0.1882 -0.7753 -0.3388
   91MOL0     C12208  11.029   8.527   0.693 -0.7149 -0.3834  0.6481
   91MOL0     O12209  11.170   8.540   0.706 -0.0244 -0.1885  0.0090
   91MOL0     C12210  11.236   8.621   0.605 -0.8291  0.2105  0.0862
   91MOL0     C12211  11.284   8.542   0.479 -0.2309 -0.4036 -1.3619
   91MOL0     C12212  11.394   8.611   0.392  0.6806 -0.8282  0.2323
   91MOL0     C12213  11.420   8.555   0.246  0.4906 -0.5345 -0.5543
   91MOL0     C12214  11.456   8.418   0.253  1.0205  0.4191 -0.0119
   91MOL0     C12215  11.494   8.300   0.256 -0.6915 -0.6196  0.0675
   91MOL0     C12216  10.957   8.576   0.577  0.1039 -0.2740 -0.3055
   91MOL0     C12217  10.817   8.583   0.590 -0.3197  0.5013 -0.6439
   91MOL0     H12218  10.447   8.298   0.907 -0.0265 -0.7848  0.0332
   91MOL0     H12219  10.207   8.269   0.974  1.6294 -1.2216  0.5292
   91MOL0     H12220  10.018   8.259   0.881  2.1835  1.6247 -1.4536
   91MOL0     H12221   9.889   8.294   0.985  1.0480 -1.6843 -0.6036
   91MOL0     H12222   9.946   8.439   0.712 -0.6417  0.3015 -1.4046
   91MOL0     H12223   9.856   8.290   0.715  1.0667  0.1083  0.4878
   91MOL0     H12224   9.779   8.546   0.877  0.2074  0.7276 -1.2691
   91MOL0     H12225   9.722   8.529   0.712  0.3054  0.5026 -0.2337
   91MOL0     H12226   9.629   8.301   0.812 -0.9283 -0.4407  0.9635
   91MOL0     H12227   9.656   8.366   0.974 -3.0291 -1.6170  0.2518
   91MOL0     H12228   9.460   8.430   0.957  0.2998 -1.0862 -0.6741
   91MOL0     H12229   9.548   8.576   0.935 -3.8027  0.3371  2.0339
   91MOL0     H12230   9.392   8.597   0.763  0.5895  0.1901 -1.9016
   91MOL0     H12231   9.517   8.510   0.677  2.6511 -1.0036  1.6513
   91MOL0     H12232   9.388   8.287   0.717  0.5933  0.6264  2.7158
   91MOL0     H12233   9.273   8.369   0.795  1.2738 -1.3316  0.2389
   91MOL0     H12234   9.255   8.307   0.531 -0.2360  1.4296 -2.2397
   91MOL0     H12235   9.354   8.452   0.515  1.3931  0.7636  2.0022
   91MOL0     H12236   9.003   8.345   0.672 -1.2823  0.7877  0.2720
   91MOL0     H12237   8.751   8.621   0.656  1.3129 -0.6083 -0.6710
   91MOL0     H12238   8.743   8.452   0.633 -2.2641  0.9997  1.2987
   91MOL0     H12239   8.838   8.579   0.906  1.4705  0.6110 -2.7944
   91MOL0     H12240   8.828   8.404   0.860 -3.1168 -2.2226 -2.0440
   91MOL0     H12241   8.602   8.408   0.814  0.3340 -1.6885  1.6767
   91MOL0     H12242   8.592   8.590   0.846  0.8323  1.4120  2.1329
   91MOL0     H12243   8.495   8.487   1.030 -0.2994 -0.3258 -2.1338
   91MOL0     H12244   8.651   8.532   1.091 -2.7293  1.0518  0.5254
   91MOL0     H12245   8.687   8.102   0.956 -0.1319  0.3077 -0.8296
   91MOL0     H12246   8.556   7.848   0.803 -1.0081 -2.3197 -0.1411
   91MOL0     H12247   8.664   7.870   0.938 -0.1489  0.7782  1.7839
   91MOL0     H12248   8.507   7.784   0.955 -2.2474  2.1910  1.7626
   91MOL0     H12249   8.357   7.620   0.992  1.1445  3.0495 -4.4561
   91MOL0     H12250   8.233   7.431   1.067  0.4904 -0.6192 -2.1511
   91MOL0     H12251   8.125   7.239   1.020  1.5481  2.5811 -1.0438
   91MOL0     H12252   8.086   7.319   1.169 -1.0787  0.1112  0.9367
   91MOL0     H12253   7.893   7.148   1.006 -1.3952 -1.1515  0.5196
   91MOL0     H12254   8.001   7.081   1.132 -0.6082 -0.7690 -0.5184
   91MOL0     H12255   7.759   7.262   1.148 -1.2039  0.6906  2.9057
   91MOL0     H12256   7.877   7.255   1.286  2.9195  2.1816 -2.6484
   91MOL0     H12257   7.818   6.997   1.270  1.1616 -0.5578 -3.7863
   91MOL0     H12258   7.700   7.110   1.342  0.0926  4.1588 -0.6268
   91MOL0     H12259   7.718   6.976   1.081  1.3704 -1.7484  3.7726
   91MOL0     H12260   7.607   7.123   1.084  1.8102 -0.1969 -0.6311
   91MOL0     H12261   7.480   6.917   1.099  0.7813  1.3718 -0.6670
   91MOL0     H12262   7.554   6.883   1.264 -0.0530  0.2648  0.7504
   91MOL0     H12263   7.404   7.126   1.224 -0.3778  1.0269  0.9666
   91MOL0     H12264   7.457   7.045   1.378  0.1996 -0.1044  0.0281
   91MOL0     H12265   7.313   6.847   1.287 -0.3361 -0.5511  0.1565
   91MOL0     H12266   7.229   6.971   1.202 -0.6496  0.8327  0.0228
   91MOL0     H12267   7.906   7.558   0.837  0.8131 -3.3227 -0.4270
   91MOL0     H12268   8.023   7.757   0.765  0.6243 -0.1218 -0.5426
   91MOL0     H12269   8.209   8.175   1.011  0.1198  2.6890 -0.6888
   91MOL0     H12270   8.363   8.349   1.053 -1.5397 -0.5135 -0.6403
   91MOL0     H12271  10.136   8.682   0.899  0.5665  0.2788  0.6695
   91MOL0     H12272  10.391   8.712   0.856  1.9901 -2.1077 -2.8211
   91MOL0     H12273  10.796   8.495   0.923  1.5755  1.4566 -0.3015
   91MOL0     H12274  11.028   8.461   0.893  1.3508  0.9846 -0.6235
   91MOL0     H12275  11.183   8.709   0.565 -0.5174 -0.4797 -1.9594
   91MOL0     H12276  11.329   8.663   0.646  0.4140  1.0533 -3.2881
   91MOL0     H12277  11.204   8.518   0.408  0.6094 -2.9418 -1.5343
   91MOL0     H12278  11.329   8.451   0.519 -0.5533  0.4473  1.1090
   91MOL0     H12279  11.485   8.599   0.452  1.3056  0.2146 -0.4857
   91MOL0     H12280  11.374   8.718   0.387  0.2459 -0.9259 -0.1904
   91MOL0     H12281  11.502   8.611   0.201  0.9032  0.4086  1.2607
   91MOL0     H12282  11.333   8.577   0.184 -0.8147  0.4989  1.5044
   91MOL0     H12283  11.521   8.202   0.290  0.3044 -1.4371 -2.7807
   91MOL0     H12284  10.996   8.594   0.477  0.4062 -3.0767 -0.7784
   91MOL0     H12285  10.756   8.614   0.506  3.1515  1.5344 -2.9843
   92MOL0     O12286   8.086   4.282   7.056 -0.4452  0.0516  0.0554
   92MOL0     C12287   8.097   4.332   7.162  0.4640  0.1885  0.2955
   92MOL0     O12288   7.996   4.374   7.244  0.5091  0.0471 -0.6759
   92MOL0     C12289   7.865   4.375   7.198  0.0037  0.0313 -0.1180
   92MOL0     C12290   7.837   4.435   7.075 -0.0438 -0.4613  0.5102
   92MOL0     C12291   7.705   4.459   7.030 -0.8259  0.1482  0.0540
   92MOL0     C12292   7.600   4.413   7.108 -1.1430  0.1470  1.3760
   92MOL0     O12293   7.470   4.427   7.056  0.9053 -0.7650  0.5715
   92MOL0     C12294   7.355   4.390   7.133  0.6241  0.0074 -0.7638
   92MOL0     C12295   7.222   4.440   7.072 -0.1388 -0.2454 -0.4826
   92MOL0     C12296   7.102   4.406   7.169 -0.2087  0.1888  0.5413
   92MOL0     C12297   6.962   4.412   7.104  0.5028 -0.6299  0.7265
   92MOL0     C12298   6.863   4.317   7.172  0.2403  0.0175 -0.2838
   92MOL0     C12299   6.797   4.391   7.291  0.4438  0.0192 -0.6267
   92MOL0     C12300   6.712   4.295   7.375 -0.1836 -0.7319  0.9039
   92MOL0     C12301   6.795   4.216   7.482 -0.1305  0.0243  0.2546
   92MOL0     N12302   6.876   4.104   7.422 -0.6281  0.5062  0.7865
   92MOL0     C12303   7.012   4.077   7.443 -0.1074  0.8021 -0.2483
   92MOL0     C12304   7.032   3.957   7.384 -0.0742  0.1762  0.6478
   92MOL0     C12305   7.167   3.892   7.386 -0.2621  0.0334 -0.5564
   92MOL0     C12306   7.231   3.877   7.524  0.1011 -0.2949 -0.4667
   92MOL0     C12307   7.358   3.800   7.498  0.4296 -0.6119 -0.0575
   92MOL0     C12308   7.438   3.792   7.629 -0.2503 -0.1038 -0.6014
   92MOL0     O12309   7.558   3.718   7.607  0.4152 -0.2388  0.0062
   92MOL0     C12310   7.658   3.719   7.705 -0.0078 -0.5555  0.4959
   92MOL0     C12311   7.646   3.777   7.827  0.3428 -0.1898 -0.0240
   92MOL0     C12312   7.751   3.795   7.916 -0.2799  0.4675  0.4063
   92MOL0     C12313   7.711   3.857   8.049 -0.2889  0.0527 -0.1899
   92MOL0     C12314   7.878   3.746   7.877 -0.2995 -0.1291  0.4842
   92MOL0     C12315   8.006   3.743   7.963 -0.8313 -0.8757  0.8080
   92MOL0     O12316   8.120   3.685   7.918 -0.3330 -0.4948  0.4974
   92MOL0     C12317   8.226   3.664   8.001  0.2363  0.3398 -0.4689
   92MOL0     C12318   8.284   3.543   7.975 -0.1075 -0.6182  0.1911
   92MOL0     C12319   8.385   3.491   8.057 -1.1068  0.1080 -0.1513
   92MOL0     C12320   8.449   3.569   8.155  0.2336 -0.0676 -0.2571
   92MOL0     O12321   8.542   3.499   8.231 -0.4531 -0.2666 -0.1218
   92MOL0     C12322   8.616   3.599   8.309 -0.0274  1.1435 -0.4732
   92MOL0     C12323   8.715   3.528   8.398 -0.3009 -0.0572  0.3653
   92MOL0     C12324   8.823   3.463   8.316 -0.7828  0.5679  0.5803
   92MOL0     C12325   8.963   3.520   8.350 -0.3784 -0.6960 -0.5418
   92MOL0     C12326   8.979   3.665   8.292  0.1720 -0.3404 -0.7658
   92MOL0     C12327   9.114   3.728   8.332  0.1051  0.1545 -0.0138
   92MOL0     C12328   9.236   3.645   8.278  0.2197  0.3378 -0.4483
   92MOL0     C12329   9.370   3.718   8.295  0.4012  0.3361 -0.3406
   92MOL0    Cl12330   9.493   3.645   8.194  0.0634  0.1344 -0.0898
   92MOL0     C12331   8.401   3.706   8.169 -0.4118  0.0320 -0.2328
   92MOL0     C12332   8.288   3.750   8.097  0.1394  0.6963 -0.8489
   92MOL0     O12333   7.989   3.773   8.079  0.2661 -0.3122 -0.1823
   92MOL0     C12334   7.897   3.692   7.748 -0.1721  0.3606 -0.1753
   92MOL0     C12335   7.783   3.682   7.658 -1.1938 -0.0744 -0.0788
   92MOL0     N12336   6.913   3.915   7.327 -0.6122  0.9129  0.4327
   92MOL0     N12337   6.824   4.001   7.347 -0.3649 -0.1469  0.4377
   92MOL0     C12338   7.624   4.354   7.233 -0.1243 -0.1527 -0.2735
   92MOL0     C12339   7.755   4.326   7.276  0.0214  0.4981  0.5346
   92MOL0     C12340   8.230   4.351   7.219 -0.3206  0.2261  0.3422
   92MOL0     C12341   8.349   4.350   7.139 -0.3380 -0.0121 -0.4277
   92MOL0     C12342   8.478   4.365   7.187  0.1314 -0.2066  0.0039
   92MOL0     C12343   8.487   4.378   7.323  0.1029  0.1853 -0.7620
   92MOL0     O12344   8.613   4.394   7.387  0.6211  0.1075  0.2811
   92MOL0     C12345   8.736   4.411   7.314  0.7308 -0.7546 -0.6056
   92MOL0     C12346   8.840   4.469   7.406 -0.3025 -0.3641  0.4458
   92MOL0     C12347   8.847   4.396   7.542 -0.3688 -0.0807  0.2473
   92MOL0     C12348   8.966   4.454   7.616 -0.1036  1.1899  0.8437
   92MOL0     C12349   8.940   4.582   7.669 -0.4164  1.1925 -0.4455
   92MOL0     C12350   8.942   4.701   7.686  0.1402 -0.2221 -0.2860
   92MOL0     C12351   8.374   4.372   7.406  0.7494  0.7381 -0.9040
   92MOL0     C12352   8.244   4.363   7.355 -0.9350 -0.5380 -0.0481
   92MOL0     H12353   7.909   4.453   6.996 -2.1017 -0.5380 -1.4822
   92MOL0     H12354   7.689   4.502   6.932  0.6354  0.6767  0.0277
   92MOL0     H12355   7.346   4.282   7.145 -1.1971  0.2423  0.3892
   92MOL0     H12356   7.377   4.429   7.234  3.5021 -0.8510 -0.9553
   92MOL0     H12357   7.212   4.549   7.062 -2.6872 -0.3869  0.0020
   92MOL0     H12358   7.192   4.392   6.979 -1.2085  0.4159 -0.4951
   92MOL0     H12359   7.125   4.307   7.208  1.0670 -0.0635 -0.7654
   92MOL0     H12360   7.105   4.465   7.261  0.5639 -1.9986  2.0038
   92MOL0     H12361   6.926   4.515   7.111  2.8012  0.1232  3.0484
   92MOL0     H12362   6.964   4.371   7.002  2.9264 -2.1573  1.3170
   92MOL0     H12363   6.783   4.287   7.103 -0.2274 -1.9580  1.0516
   92MOL0     H12364   6.915   4.230   7.212 -0.1418  0.2511  0.7754
   92MOL0     H12365   6.877   4.425   7.357  0.1114  0.6610 -0.5419
   92MOL0     H12366   6.737   4.479   7.264 -0.0206  0.0538  0.4949
   92MOL0     H12367   6.626   4.343   7.421 -0.0138 -1.7923  2.4256
   92MOL0     H12368   6.658   4.228   7.308 -0.3820 -0.3349  0.6701
   92MOL0     H12369   6.726   4.157   7.544 -1.2939  0.6330 -0.4348
   92MOL0     H12370   6.859   4.284   7.539 -0.2468  0.2052  0.1686
   92MOL0     H12371   7.080   4.129   7.509  0.4893 -0.2730  0.0194
   92MOL0     H12372   7.164   3.793   7.339  1.8715 -1.0526  1.3890
   92MOL0     H12373   7.239   3.950   7.328  0.4313  0.8298  1.0397
   92MOL0     H12374   7.163   3.826   7.594 -2.1157  2.3124 -0.5408
   92MOL0     H12375   7.248   3.971   7.578 -0.4123 -1.5855  2.1212
   92MOL0     H12376   7.410   3.852   7.417  0.5308  0.4979  0.6986
   92MOL0     H12377   7.331   3.700   7.463 -1.1229  0.8267 -3.4416
   92MOL0     H12378   7.375   3.736   7.699 -2.7269 -0.8664 -3.2255
   92MOL0     H12379   7.459   3.890   7.674 -1.5180  0.2936 -0.8109
   92MOL0     H12380   7.547   3.810   7.855 -0.5054 -1.5434 -1.2881
   92MOL0     H12381   7.610   3.899   8.056 -0.6309 -0.6986 -0.5217
   92MOL0     H12382   7.719   3.778   8.124 -1.4042 -0.5579 -0.6787
   92MOL0     H12383   7.784   3.936   8.068  0.4027 -1.0530  1.9947
   92MOL0     H12384   8.243   3.483   7.894  3.8567 -0.6914 -1.9960
   92MOL0     H12385   8.418   3.388   8.048  1.5198  0.7900  0.7092
   92MOL0     H12386   8.677   3.669   8.251  3.6508  0.4425  2.2550
   92MOL0     H12387   8.554   3.653   8.380  0.9925  0.7261  0.7681
   92MOL0     H12388   8.763   3.595   8.470  2.4758 -0.5314 -0.9340
   92MOL0     H12389   8.670   3.452   8.463 -0.4852  0.0392  0.3524
   92MOL0     H12390   8.808   3.479   8.208  1.0821  1.1070  0.3667
   92MOL0     H12391   8.830   3.356   8.333 -4.2048  0.7216  4.4838
   92MOL0     H12392   8.986   3.521   8.457  1.6095 -0.6430 -0.9230
   92MOL0     H12393   9.034   3.448   8.307 -0.7227 -0.7682 -1.0019
   92MOL0     H12394   8.904   3.732   8.333  0.0963 -0.3340 -0.9131
   92MOL0     H12395   8.963   3.663   8.184 -3.0734 -0.3675 -0.3944
   92MOL0     H12396   9.113   3.821   8.274  3.9007  0.8034  0.7119
   92MOL0     H12397   9.118   3.745   8.440  0.6585  0.0402 -0.0156
   92MOL0     H12398   9.227   3.602   8.178  0.6429 -1.0413  0.0683
   92MOL0     H12399   9.251   3.554   8.337  0.1942 -0.3268 -1.4358
   92MOL0     H12400   9.405   3.705   8.398 -2.2688 -1.5502  0.4305
   92MOL0     H12401   9.364   3.820   8.256 -0.8451  0.0696 -0.8757
   92MOL0     H12402   8.445   3.770   8.244  1.1691 -1.6548  0.3676
   92MOL0     H12403   8.255   3.851   8.119 -1.0356  0.0281  0.6665
   92MOL0     H12404   7.991   3.653   7.710  2.0223  3.2781  1.8854
   92MOL0     H12405   7.809   3.646   7.559  0.1490  2.2992 -0.6768
   92MOL0     H12406   7.536   4.324   7.288 -0.4339  0.8107 -0.2165
   92MOL0     H12407   7.776   4.279   7.372 -1.3030 -1.6420 -0.1319
   92MOL0     H12408   8.331   4.343   7.032 -1.4800  0.2788 -0.2569
   92MOL0     H12409   8.563   4.374   7.121  0.5360 -1.9577  0.2608
   92MOL0     H12410   8.772   4.322   7.260  1.7796  1.9421 -4.8401
   92MOL0     H12411   8.715   4.491   7.242 -0.8830 -1.2723 -0.7527
   92MOL0     H12412   8.820   4.576   7.412  0.7458 -0.1164 -0.2761
   92MOL0     H12413   8.925   4.463   7.337 -1.0168  1.3183 -0.6295
   92MOL0     H12414   8.865   4.289   7.528  0.1495 -0.0584  0.7009
   92MOL0     H12415   8.752   4.397   7.595 -0.6519 -2.2470 -0.1139
   92MOL0     H12416   9.056   4.461   7.555  0.6838 -1.4295  1.5697
   92MOL0     H12417   8.988   4.381   7.695 -0.3342  0.1165 -0.0618
   92MOL0     H12418   8.950   4.804   7.714 -1.5315  0.1574 -1.1018
   92MOL0     H12419   8.384   4.397   7.511 -2.0406 -1.1868 -0.0652
   92MOL0     H12420   8.163   4.382   7.425 -0.2312  1.0763  0.3744
   93MOL0     O12421   6.872   1.912  10.842 -0.3952 -0.0449  0.6844
   93MOL0     C12422   6.952   1.963  10.761 -0.0624 -0.6336 -0.8221
   93MOL0     O12423   6.950   1.955  10.617 -0.1552  0.1872 -0.9975
   93MOL0     C12424   6.852   1.877  10.561 -0.2927  0.6900  0.1548
   93MOL0     C12425   6.838   1.737  10.582 -0.4531 -0.2006 -0.3773
   93MOL0     C12426   6.727   1.667  10.537 -0.2150 -0.1359  0.1462
   93MOL0     C12427   6.640   1.732  10.459  0.6661 -0.8195  0.9388
   93MOL0     O12428   6.527   1.659  10.426  0.3232 -0.9593  0.4484
   93MOL0     C12429   6.459   1.687  10.302 -0.0254 -0.0964  0.6315
   93MOL0     C12430   6.407   1.563  10.234  0.4677 -0.7614  0.0423
   93MOL0     C12431   6.318   1.495  10.331 -0.1119 -0.1158  0.4849
   93MOL0     C12432   6.263   1.362  10.272 -0.3740 -0.8130  0.0826
   93MOL0     C12433   6.164   1.297  10.372 -0.0052 -0.2385 -0.4220
   93MOL0     C12434   6.028   1.353  10.358  0.6441  0.7794  0.6777
   93MOL0     C12435   5.942   1.299  10.474  0.4174 -0.2396  0.1107
   93MOL0     C12436   5.800   1.346  10.455  0.0038  0.3323  0.1282
   93MOL0     N12437   5.721   1.305  10.567  0.7893  0.3007  0.2556
   93MOL0     C12438   5.699   1.394  10.668 -1.0304 -0.0880 -0.3388
   93MOL0     C12439   5.648   1.316  10.765 -0.0330 -0.3964 -0.0339
   93MOL0     C12440   5.603   1.361  10.903 -0.9645 -0.2852 -0.5427
   93MOL0     C12441   5.701   1.329  11.012  0.2065  0.1133 -1.0618
   93MOL0     C12442   5.638   1.363  11.152 -0.5277  0.1240  0.9290
   93MOL0     C12443   5.584   1.510  11.172  0.0894 -1.2001  0.2630
   93MOL0     O12444   5.547   1.535  11.313  0.3277 -0.0106 -0.2128
   93MOL0     C12445   5.412   1.532  11.350 -0.2164 -0.0676 -0.1686
   93MOL0     C12446   5.385   1.585  11.476  0.0276 -1.0005  0.3699
   93MOL0     C12447   5.257   1.589  11.525  0.0557 -0.4411  0.0016
   93MOL0     C12448   5.242   1.649  11.656  0.7587  0.1367 -0.3827
   93MOL0     C12449   5.140   1.539  11.453 -0.2818 -0.1356 -0.4855
   93MOL0     C12450   5.001   1.574  11.486 -0.2291  0.0934 -0.2974
   93MOL0     O12451   4.969   1.620  11.610  0.0951  0.4483  0.2209
   93MOL0     C12452   4.836   1.648  11.626  0.9453 -0.1853  0.3170
   93MOL0     C12453   4.812   1.766  11.697 -0.0026 -0.3984 -0.4790
   93MOL0     C12454   4.684   1.802  11.733  0.2248  0.5868 -0.9044
   93MOL0     C12455   4.573   1.723  11.705  0.6145 -0.7579 -0.4710
   93MOL0     O12456   4.452   1.756  11.760  0.3026 -0.8783  0.4850
   93MOL0     C12457   4.341   1.669  11.752  0.4276 -0.1548 -0.3738
   93MOL0     C12458   4.210   1.726  11.811 -0.3113 -0.4864  0.5646
   93MOL0     C12459   4.102   1.623  11.813 -0.4628  0.4797  0.8063
   93MOL0     C12460   3.962   1.671  11.830  0.6431 -0.0844  0.4255
   93MOL0     C12461   3.869   1.563  11.892  0.4284 -0.0656  0.2938
   93MOL0     C12462   3.728   1.610  11.919 -0.4182 -0.5885  0.7910
   93MOL0     C12463   3.644   1.486  11.950  0.6315  0.2925  1.2338
   93MOL0     C12464   3.506   1.536  11.990 -1.1376  0.2010  0.0581
   93MOL0    Cl12465   3.526   1.602  12.149 -0.2195  0.2131 -0.0832
   93MOL0     C12466   4.606   1.602  11.650 -0.7577  0.5813  0.0521
   93MOL0     C12467   4.732   1.558  11.597  0.0010 -0.8042  0.6177
   93MOL0     O12468   4.921   1.538  11.395 -0.6321 -0.6999  0.1537
   93MOL0     C12469   5.176   1.475  11.331  0.1448 -0.0113 -0.0463
   93MOL0     C12470   5.304   1.473  11.280 -0.7965 -0.0879  0.7679
   93MOL0     N12471   5.645   1.182  10.724 -0.1862  0.3339 -0.3232
   93MOL0     N12472   5.693   1.178  10.607 -1.0064  0.0465 -0.0783
   93MOL0     C12473   6.642   1.871  10.433 -0.3810  0.7073  0.6828
   93MOL0     C12474   6.754   1.939  10.481  0.9305 -1.3384  0.0314
   93MOL0     C12475   7.053   2.053  10.818 -1.1359  0.4546  0.2022
   93MOL0     C12476   7.135   2.132  10.732 -0.2269  0.4004 -0.0273
   93MOL0     C12477   7.224   2.231  10.775  0.6562  0.6067 -0.2717
   93MOL0     C12478   7.241   2.252  10.912 -0.1557 -0.5329  0.3629
   93MOL0     O12479   7.321   2.352  10.961 -0.5180 -0.7051  0.4357
   93MOL0     C12480   7.265   2.482  10.967 -0.4010 -0.0482 -0.0241
   93MOL0     C12481   7.344   2.581  10.870  1.2316  0.6614 -0.4928
   93MOL0     C12482   7.496   2.571  10.905  0.2819 -0.0841  0.1862
   93MOL0     C12483   7.527   2.641  11.039  0.0443 -0.0142  0.4171
   93MOL0     C12484   7.675   2.640  11.053  0.7108  0.6338 -0.6015
   93MOL0     C12485   7.794   2.623  11.072  0.7522 -0.3739 -0.0419
   93MOL0     C12486   7.167   2.171  10.999  0.0927 -0.5282 -0.1285
   93MOL0     C12487   7.075   2.078  10.956  1.2535 -0.4230  0.0678
   93MOL0     H12488   6.921   1.693  10.637 -0.1403  1.7429  0.8329
   93MOL0     H12489   6.725   1.559  10.553  1.5957 -0.3409 -0.7886
   93MOL0     H12490   6.377   1.757  10.316  0.2480  0.7788 -1.6693
   93MOL0     H12491   6.523   1.731  10.225  2.4940  0.3507  2.8331
   93MOL0     H12492   6.359   1.585  10.138 -0.0107 -3.9476 -0.5464
   93MOL0     H12493   6.488   1.494  10.208 -1.1042 -2.6341 -0.0641
   93MOL0     H12494   6.364   1.471  10.426 -0.2893 -0.9697  0.3598
   93MOL0     H12495   6.226   1.552  10.350 -0.8760 -1.0993 -0.1711
   93MOL0     H12496   6.208   1.394  10.183  0.7824  2.9009  0.5315
   93MOL0     H12497   6.339   1.286  10.252 -2.4783 -3.0454  0.0540
   93MOL0     H12498   6.161   1.193  10.337  3.8654  0.9838 -5.5868
   93MOL0     H12499   6.199   1.296  10.475 -1.1130  0.5793 -0.0165
   93MOL0     H12500   6.027   1.461  10.373  1.3409  0.6808  1.5254
   93MOL0     H12501   5.968   1.320  10.273 -0.5780  2.6611  0.7350
   93MOL0     H12502   5.950   1.189  10.476 -1.4299 -0.4036 -0.0796
   93MOL0     H12503   5.977   1.340  10.569 -2.0216  0.7078  0.6610
   93MOL0     H12504   5.750   1.301  10.368  0.4146 -1.1176  0.6081
   93MOL0     H12505   5.798   1.455  10.444 -0.1187  0.3889  0.7134
   93MOL0     H12506   5.728   1.498  10.668 -0.3153 -0.2440  1.5650
   93MOL0     H12507   5.598   1.470  10.890 -1.5602 -0.3223 -0.6828
   93MOL0     H12508   5.502   1.321  10.919 -1.4828  1.3823  0.7285
   93MOL0     H12509   5.792   1.388  11.000 -0.4770  0.9414 -2.3665
   93MOL0     H12510   5.718   1.221  11.003 -0.1226 -0.3913  2.6334
   93MOL0     H12511   5.716   1.346  11.226  1.2928 -0.3459 -1.0174
   93MOL0     H12512   5.566   1.286  11.182  1.2110 -1.7116  0.5991
   93MOL0     H12513   5.504   1.532  11.101  1.6544  2.0265 -0.6892
   93MOL0     H12514   5.662   1.585  11.151  1.6627 -2.4031  1.5490
   93MOL0     H12515   5.470   1.622  11.533 -1.0844  1.3685  0.5968
   93MOL0     H12516   5.339   1.673  11.701  0.9901 -0.7357 -0.4049
   93MOL0     H12517   5.188   1.743  11.643  1.8674  0.7310 -0.8151
   93MOL0     H12518   5.193   1.584  11.728 -0.4051  1.9689  0.5610
   93MOL0     H12519   4.881   1.843  11.728 -0.5904  0.8557 -2.1273
   93MOL0     H12520   4.679   1.894  11.790  1.9120  0.1443  0.0005
   93MOL0     H12521   4.316   1.642  11.649  2.1548  1.7187 -1.3483
   93MOL0     H12522   4.361   1.576  11.807  3.2970  1.9623  2.5362
   93MOL0     H12523   4.234   1.750  11.915  0.6612  1.1507 -0.0110
   93MOL0     H12524   4.175   1.815  11.759  1.2022  0.1694  0.6226
   93MOL0     H12525   4.128   1.553  11.893 -0.0904  0.4778  0.6854
   93MOL0     H12526   4.111   1.567  11.720  0.7217  0.6293  0.8123
   93MOL0     H12527   3.959   1.759  11.896  1.9774 -0.3449  0.8701
   93MOL0     H12528   3.932   1.716  11.735 -1.1000  0.5754  1.2348
   93MOL0     H12529   3.918   1.536  11.986 -0.0492  2.2650  1.2803
   93MOL0     H12530   3.874   1.477  11.824 -2.4299  0.7106 -1.0374
   93MOL0     H12531   3.716   1.688  11.995 -1.1465 -0.0886  0.1777
   93MOL0     H12532   3.670   1.658  11.840 -0.4972 -1.8640  0.0495
   93MOL0     H12533   3.697   1.445  12.036  1.6939  1.1283  0.9972
   93MOL0     H12534   3.638   1.412  11.869  2.5330  0.7997  0.5770
   93MOL0     H12535   3.441   1.448  11.989 -0.6465 -0.1652 -1.1562
   93MOL0     H12536   3.470   1.616  11.925 -3.1576  0.2440  1.1476
   93MOL0     H12537   4.525   1.537  11.619 -1.3164  1.3054 -0.0459
   93MOL0     H12538   4.739   1.465  11.541  1.5539  0.7295 -1.9549
   93MOL0     H12539   5.099   1.431  11.270 -1.2595 -0.6431  2.0786
   93MOL0     H12540   5.302   1.412  11.190  1.5062  0.6219  0.1500
   93MOL0     H12541   6.571   1.921  10.368  0.1753  1.0627  0.3370
   93MOL0     H12542   6.747   2.046  10.467  1.2885 -1.2890  0.2218
   93MOL0     H12543   7.133   2.122  10.624 -0.1463  0.8197 -0.0690
   93MOL0     H12544   7.270   2.290  10.695 -0.5037 -0.7227 -1.9726
   93MOL0     H12545   7.160   2.480  10.937  0.1709 -1.1117 -2.2361
   93MOL0     H12546   7.264   2.524  11.068  0.5935  1.1994 -0.5048
   93MOL0     H12547   7.303   2.678  10.900  1.6777  0.5751  0.4362
   93MOL0     H12548   7.315   2.553  10.769 -1.9880 -0.1562  0.5266
   93MOL0     H12549   7.551   2.618  10.824 -3.2696  0.4553 -2.1456
   93MOL0     H12550   7.525   2.466  10.908  1.8725  0.3280 -0.1679
   93MOL0     H12551   7.472   2.603  11.125 -2.3151  0.9881 -0.5614
   93MOL0     H12552   7.486   2.742  11.026 -1.9725 -0.9692 -1.3935
   93MOL0     H12553   7.897   2.611  11.098  0.7178 -0.6210 -0.0167
   93MOL0     H12554   7.182   2.201  11.103 -0.3057  0.6169 -0.3881
   93MOL0     H12555   7.006   2.030  11.025  0.1116 -1.1570 -1.5101
   94MOL0     O12556   9.703   8.071   7.548  0.0002  0.2425  0.1503
   94MOL0     C12557   9.738   8.124   7.441 -0.7415 -0.1203 -0.4994
   94MOL0     O12558   9.696   8.090   7.325  0.0220  0.6128  0.1087
   94MOL0     C12559   9.600   7.982   7.312  0.4530 -0.7495 -0.7364
   94MOL0     C12560   9.463   8.004   7.350  0.5615 -0.0907 -0.1964
   94MOL0     C12561   9.376   7.896   7.336  0.2692  0.6334  0.3898
   94MOL0     C12562   9.430   7.774   7.280  0.4256  0.3828 -1.3742
   94MOL0     O12563   9.344   7.665   7.262 -0.0607 -0.3958  0.4570
   94MOL0     C12564   9.201   7.684   7.237  0.8004  0.1521  0.4149
   94MOL0     C12565   9.156   7.550   7.180  0.3750 -0.2917 -0.8060
   94MOL0     C12566   9.010   7.553   7.160 -0.1658 -0.3867 -0.3394
   94MOL0     C12567   8.971   7.420   7.109 -0.0177  0.2753  0.2797
   94MOL0     C12568   8.813   7.405   7.104 -0.2066  0.1998  0.3148
   94MOL0     C12569   8.784   7.266   7.032  0.0991  0.3843  0.0551
   94MOL0     C12570   8.633   7.237   7.017 -0.3777  0.1356 -0.1366
   94MOL0     C12571   8.572   7.334   6.912 -0.1940 -0.0170 -0.7923
   94MOL0     N12572   8.642   7.337   6.783 -0.2528  0.3151 -0.5810
   94MOL0     C12573   8.690   7.220   6.716  0.2379  0.2278 -0.5885
   94MOL0     C12574   8.743   7.277   6.601 -0.3257  0.1699 -0.3472
   94MOL0     C12575   8.802   7.205   6.482  0.2489 -0.2817  0.3835
   94MOL0     C12576   8.694   7.163   6.382  0.4612 -0.0300  0.0144
   94MOL0     C12577   8.609   7.265   6.315  0.3056  0.1045 -0.1801
   94MOL0     C12578   8.547   7.205   6.185  0.3178  0.0501 -0.4276
   94MOL0     O12579   8.457   7.093   6.193 -1.2507 -0.2004 -0.0098
   94MOL0     C12580   8.342   7.111   6.257  1.0213  0.0100 -0.5517
   94MOL0     C12581   8.297   6.997   6.319 -0.0289  0.3999  0.1024
   94MOL0     C12582   8.184   6.997   6.395 -1.0877 -0.1589  0.7204
   94MOL0     C12583   8.136   6.868   6.449 -0.2322 -0.3588  0.6511
   94MOL0     C12584   8.103   7.111   6.409 -0.7135 -0.4800  0.1441
   94MOL0     C12585   7.964   7.108   6.463  0.3437  0.2218  0.4871
   94MOL0     O12586   7.879   7.179   6.383  0.3931 -0.1478 -0.3344
   94MOL0     C12587   7.758   7.188   6.446  0.8207 -0.0046  0.1127
   94MOL0     C12588   7.715   7.295   6.535  0.6798 -0.0243 -0.1185
   94MOL0     C12589   7.583   7.297   6.580 -0.2664 -0.4605  0.0828
   94MOL0     C12590   7.490   7.200   6.542  0.9848 -1.0544  0.0641
   94MOL0     O12591   7.358   7.230   6.588 -0.5899 -0.5589 -0.5449
   94MOL0     C12592   7.259   7.134   6.544 -0.5732  1.0111 -0.4275
   94MOL0     C12593   7.130   7.206   6.582 -0.0383 -0.4295  0.4611
   94MOL0     C12594   7.005   7.114   6.558 -0.4918 -0.8112  0.1731
   94MOL0     C12595   6.961   7.098   6.403 -0.2267  1.3032 -1.3802
   94MOL0     C12596   6.897   7.212   6.337  0.8375  0.2528 -0.6730
   94MOL0     C12597   6.738   7.221   6.358  0.2199 -0.0088 -0.0086
   94MOL0     C12598   6.681   7.341   6.280 -0.3236 -0.8119  0.0104
   94MOL0     C12599   6.675   7.468   6.365 -0.9511  0.3665 -0.1357
   94MOL0    Cl12600   6.535   7.455   6.467 -0.0335  0.1106  0.1948
   94MOL0     C12601   7.528   7.097   6.458  0.7489 -0.0348  0.3441
   94MOL0     C12602   7.659   7.091   6.409  0.3128  0.3126 -0.9184
   94MOL0     O12603   7.932   7.042   6.565  0.7340  0.2649 -0.0807
   94MOL0     C12604   8.143   7.228   6.332  0.1943  0.3793 -0.9302
   94MOL0     C12605   8.270   7.231   6.273  0.2133  0.1387 -1.0061
   94MOL0     N12606   8.729   7.417   6.597  0.5141 -0.4654 -0.0293
   94MOL0     N12607   8.670   7.451   6.715  0.2589  0.0471  0.4670
   94MOL0     C12608   9.560   7.762   7.243 -0.2756 -0.5346  0.0966
   94MOL0     C12609   9.651   7.864   7.258 -0.5382 -0.4036  0.8753
   94MOL0     C12610   9.845   8.231   7.457  0.1620 -0.2634 -0.5527
   94MOL0     C12611   9.868   8.332   7.370 -0.6178 -0.5571  0.7872
   94MOL0     C12612   9.974   8.426   7.399 -0.2061 -0.6488 -0.7600
   94MOL0     C12613  10.057   8.422   7.513 -1.5315  0.5237  0.3413
   94MOL0     O12614  10.155   8.515   7.543 -0.5319 -0.2492 -0.1736
   94MOL0     C12615  10.222   8.586   7.436  0.2575 -0.2489  0.4115
   94MOL0     C12616  10.367   8.613   7.463  0.3464 -0.0172 -0.5398
   94MOL0     C12617  10.441   8.694   7.353  0.0173  0.2503 -0.7021
   94MOL0     C12618  10.408   8.842   7.371 -0.0697 -0.5791  0.0267
   94MOL0     C12619  10.300   8.881   7.287  0.5217 -0.6438  0.3396
   94MOL0     C12620  10.215   8.918   7.210 -0.2193  0.1569  0.0028
   94MOL0     C12621  10.037   8.316   7.597  0.3033  0.4351  0.1290
   94MOL0     C12622   9.920   8.230   7.577  0.3518 -0.7757 -0.1235
   94MOL0     H12623   9.430   8.099   7.388  2.4000  1.7720 -2.8629
   94MOL0     H12624   9.276   7.901   7.377  0.8321 -1.1070  2.1309
   94MOL0     H12625   9.153   7.686   7.336  1.0060 -2.0916  0.5986
   94MOL0     H12626   9.173   7.772   7.178 -0.9903 -0.1831  0.7170
   94MOL0     H12627   9.202   7.528   7.083  0.1805  0.0161 -0.9705
   94MOL0     H12628   9.187   7.472   7.250  0.3555  0.6097  0.2329
   94MOL0     H12629   8.954   7.571   7.252  1.0125  3.3548 -0.1742
   94MOL0     H12630   8.986   7.634   7.090 -0.5146 -0.3019 -0.1230
   94MOL0     H12631   9.016   7.410   7.010 -1.4685  1.0853 -0.4840
   94MOL0     H12632   9.000   7.346   7.184  0.7698  2.6962  2.5250
   94MOL0     H12633   8.762   7.411   7.201 -1.7882 -0.6936 -0.4180
   94MOL0     H12634   8.772   7.486   7.043  0.7985  1.0179  0.7005
   94MOL0     H12635   8.837   7.256   6.937  1.8560 -0.7953  1.1089
   94MOL0     H12636   8.819   7.183   7.094  1.3125  2.3881  2.2292
   94MOL0     H12637   8.629   7.137   6.972 -0.5183 -0.1467  0.4995
   94MOL0     H12638   8.594   7.244   7.119  2.3009  1.3711  0.9190
   94MOL0     H12639   8.582   7.433   6.958 -1.9364  0.0518 -0.5160
   94MOL0     H12640   8.466   7.310   6.904  0.0526 -0.8544 -1.6905
   94MOL0     H12641   8.668   7.120   6.752  0.9839  0.2408 -0.0900
   94MOL0     H12642   8.885   7.262   6.441  0.4870 -1.2101 -0.4517
   94MOL0     H12643   8.837   7.108   6.518 -1.7892 -0.7845  1.1750
   94MOL0     H12644   8.618   7.105   6.434  0.7582 -2.5891 -2.2145
   94MOL0     H12645   8.749   7.097   6.315  3.0103  1.7216  0.2028
   94MOL0     H12646   8.677   7.343   6.278  2.4506 -0.5179  2.1437
   94MOL0     H12647   8.530   7.316   6.370  1.8315  1.1215  1.1853
   94MOL0     H12648   8.624   7.172   6.115  1.0254  0.5586  0.1008
   94MOL0     H12649   8.495   7.282   6.126  0.3678  2.0677  1.9875
   94MOL0     H12650   8.355   6.904   6.314 -1.0984 -0.2164 -1.3482
   94MOL0     H12651   8.030   6.857   6.422 -0.3616 -1.1528  1.4159
   94MOL0     H12652   8.199   6.785   6.414  1.8053  0.4597  2.1668
   94MOL0     H12653   8.143   6.871   6.558  3.5754  2.4624  0.5338
   94MOL0     H12654   7.780   7.373   6.573 -1.1780  0.6637  1.8554
   94MOL0     H12655   7.549   7.387   6.629  0.0784  0.5147 -1.3894
   94MOL0     H12656   7.263   7.127   6.435  0.9222 -2.0865 -0.3002
   94MOL0     H12657   7.277   7.040   6.598 -0.6189  0.1018 -1.9499
   94MOL0     H12658   7.132   7.243   6.685 -3.2116 -3.2702  1.7437
   94MOL0     H12659   7.129   7.301   6.527 -2.0103 -0.3446  0.5472
   94MOL0     H12660   6.919   7.156   6.610  0.3180 -2.2542  2.8965
   94MOL0     H12661   7.017   7.009   6.587 -2.5941 -0.6517  1.9018
   94MOL0     H12662   7.043   7.063   6.339  0.7141  0.3844  0.2319
   94MOL0     H12663   6.892   7.013   6.397  1.3136 -0.0577 -0.6726
   94MOL0     H12664   6.914   7.206   6.229  3.0879  1.2062 -0.4265
   94MOL0     H12665   6.940   7.307   6.370 -0.7640  0.3522  1.3483
   94MOL0     H12666   6.689   7.142   6.300  1.5487  1.4023 -3.2969
   94MOL0     H12667   6.713   7.230   6.464 -0.4150  1.9145 -0.2875
   94MOL0     H12668   6.590   7.322   6.223  0.4342  0.7817 -1.8552
   94MOL0     H12669   6.760   7.366   6.208  0.2861  1.7730  1.4401
   94MOL0     H12670   6.678   7.555   6.299  3.1161 -0.0260 -0.7288
   94MOL0     H12671   6.766   7.465   6.426 -0.8866 -1.6332 -0.2838
   94MOL0     H12672   7.458   7.031   6.410  1.0372  0.1766 -0.3748
   94MOL0     H12673   7.675   7.027   6.323 -0.9589  0.3051 -1.1646
   94MOL0     H12674   8.077   7.313   6.322 -0.8060 -0.0423  1.4214
   94MOL0     H12675   8.304   7.324   6.228  0.0318  0.6417 -0.1346
   94MOL0     H12676   9.598   7.676   7.188  0.2603  0.0593 -0.4816
   94MOL0     H12677   9.753   7.850   7.226 -0.3704  0.3324  1.0658
   94MOL0     H12678   9.805   8.333   7.281  0.9167 -0.5829 -0.3510
   94MOL0     H12679   9.983   8.516   7.339  1.1272 -1.1615 -1.3771
   94MOL0     H12680  10.211   8.534   7.340 -1.2886  0.9620 -0.1151
   94MOL0     H12681  10.179   8.686   7.434 -1.3935 -0.8979  1.3720
   94MOL0     H12682  10.409   8.512   7.470  1.6121  0.2354 -3.1647
   94MOL0     H12683  10.383   8.651   7.564  3.9314 -1.1895 -0.5290
   94MOL0     H12684  10.414   8.651   7.256  0.8010 -2.6563  0.2781
   94MOL0     H12685  10.548   8.678   7.367 -0.3972 -1.0501  1.5135
   94MOL0     H12686  10.492   8.905   7.341  1.0791 -2.4966 -1.0170
   94MOL0     H12687  10.375   8.865   7.473 -0.6399  1.4518 -0.5765
   94MOL0     H12688  10.137   8.924   7.138  0.4558  1.8224 -0.6355
   94MOL0     H12689  10.093   8.306   7.690  0.6871  0.2603 -0.1210
   94MOL0     H12690   9.903   8.152   7.651 -1.3872 -1.2499 -0.9754
   95MOL0     O12691  10.687   1.752   4.048 -0.6286  0.1107 -0.3515
   95MOL0     C12692  10.786   1.813   3.998  0.1369 -0.3741  0.1929
   95MOL0     O12693  10.781   1.937   3.938  1.2938  0.3687  0.3698
   95MOL0     C12694  10.677   2.021   3.935  0.7482  0.4043  0.6086
   95MOL0     C12695  10.672   2.126   3.840 -0.3734  0.2538  0.4625
   95MOL0     C12696  10.568   2.217   3.831 -0.6402  0.2603 -0.0462
   95MOL0     C12697  10.454   2.196   3.912 -0.1628 -0.2765 -0.6276
   95MOL0     O12698  10.347   2.279   3.894 -0.3903  0.4109  0.1123
   95MOL0     C12699  10.219   2.226   3.925  0.3937  0.9276  0.6345
   95MOL0     C12700  10.118   2.341   3.890  0.7413  0.5411 -0.9914
   95MOL0     C12701   9.970   2.299   3.904  0.1480  0.0604 -0.1841
   95MOL0     C12702   9.904   2.318   4.037 -0.5516 -0.6938 -0.1650
   95MOL0     C12703   9.751   2.300   4.038 -0.1228  0.1747  0.5216
   95MOL0     C12704   9.716   2.167   3.984 -0.8879 -0.4121 -0.8372
   95MOL0     C12705   9.567   2.171   3.960 -0.1819  0.2189  0.5675
   95MOL0     C12706   9.503   2.035   3.946 -0.5953 -0.0885  0.5808
   95MOL0     N12707   9.530   1.972   3.813  0.0199 -1.0199  0.3965
   95MOL0     C12708   9.440   1.980   3.708 -0.6942  0.6364 -0.3688
   95MOL0     C12709   9.514   1.929   3.604 -0.1361  0.0775 -0.2471
   95MOL0     C12710   9.453   1.912   3.462  0.1768 -0.0495 -0.1822
   95MOL0     C12711   9.486   2.030   3.368  0.2449  0.6798  0.0797
   95MOL0     C12712   9.634   2.043   3.340 -0.4151 -0.2675 -0.0118
   95MOL0     C12713   9.678   1.974   3.200  0.4897 -0.2500 -0.0707
   95MOL0     O12714   9.663   1.835   3.197 -0.1751  0.3155  0.0517
   95MOL0     C12715   9.765   1.764   3.245  0.1277  0.8242  0.0677
   95MOL0     C12716   9.763   1.627   3.220 -0.1939  0.1937  0.3687
   95MOL0     C12717   9.857   1.541   3.261  0.3380  0.5571 -0.7267
   95MOL0     C12718   9.816   1.396   3.246 -0.6153  0.0741 -0.4931
   95MOL0     C12719   9.965   1.577   3.336  1.1676  0.2648 -0.1635
   95MOL0     C12720  10.076   1.485   3.381  0.2507 -0.6923 -0.5994
   95MOL0     O12721  10.152   1.537   3.475 -0.4409  0.2867 -0.2838
   95MOL0     C12722  10.271   1.483   3.474  0.5677  0.2560  0.3623
   95MOL0     C12723  10.290   1.382   3.568 -0.2200  0.6626 -0.4865
   95MOL0     C12724  10.417   1.320   3.581 -0.2050 -0.4389  0.2179
   95MOL0     C12725  10.531   1.366   3.504  0.7794  0.3598 -0.6016
   95MOL0     O12726  10.648   1.298   3.517 -0.2396  0.1453 -0.1250
   95MOL0     C12727  10.683   1.272   3.651 -0.0442 -0.2463  0.1157
   95MOL0     C12728  10.834   1.273   3.653  0.7708  0.6415  0.2536
   95MOL0     C12729  10.896   1.413   3.641 -0.3304 -0.2283 -0.1998
   95MOL0     C12730  11.042   1.403   3.680 -0.6030 -0.0875 -0.0502
   95MOL0     C12731  11.109   1.539   3.668 -0.2125 -0.5906 -0.4744
   95MOL0     C12732  11.260   1.536   3.674  1.0207  0.3485 -0.5771
   95MOL0     C12733  11.338   1.540   3.542  0.3919 -0.1964  0.3420
   95MOL0     C12734  11.485   1.568   3.558 -0.3595  0.6874 -0.5644
   95MOL0    Cl12735  11.581   1.424   3.622  0.4690 -0.2894 -0.1360
   95MOL0     C12736  10.505   1.461   3.401  0.2729  0.4221 -0.2022
   95MOL0     C12737  10.373   1.520   3.395 -0.6285 -0.0393  0.5919
   95MOL0     O12738  10.086   1.367   3.342  0.2458  0.5903  0.4361
   95MOL0     C12739   9.973   1.724   3.361  0.3090  0.8721  0.0790
   95MOL0     C12740   9.875   1.813   3.316  0.8814  0.5342  0.5308
   95MOL0     N12741   9.648   1.900   3.646  0.2698 -0.4382  0.2462
   95MOL0     N12742   9.657   1.938   3.770  0.7459  0.2467 -0.2473
   95MOL0     C12743  10.452   2.089   4.010 -0.0489  0.7901 -0.2924
   95MOL0     C12744  10.571   2.013   4.025  0.6165 -0.0991 -0.8233
   95MOL0     C12745  10.914   1.751   4.004 -0.7530  0.6484  0.0023
   95MOL0     C12746  11.032   1.829   4.008 -1.2961  0.1748  0.5618
   95MOL0     C12747  11.160   1.774   4.029 -0.3610  0.0138  0.2896
   95MOL0     C12748  11.168   1.634   4.047 -0.4893  0.5006 -0.3602
   95MOL0     O12749  11.285   1.557   4.063 -0.2280 -0.2674 -0.0822
   95MOL0     C12750  11.408   1.613   4.102 -0.2913  1.0489 -0.4642
   95MOL0     C12751  11.457   1.559   4.240 -0.0042 -0.2609 -0.3662
   95MOL0     C12752  11.416   1.649   4.351  0.4879 -1.3257  0.4640
   95MOL0     C12753  11.458   1.587   4.488 -0.9515  0.7224  0.1516
   95MOL0     C12754  11.552   1.475   4.470 -1.0744 -0.2381 -1.2260
   95MOL0     C12755  11.627   1.376   4.449  0.3079 -0.3713 -0.6596
   95MOL0     C12756  11.058   1.560   4.041  0.1808 -0.0975  0.4447
   95MOL0     C12757  10.927   1.612   4.019  0.0906 -0.8106 -0.4548
   95MOL0     H12758  10.762   2.138   3.781 -0.6351  1.9850  0.3657
   95MOL0     H12759  10.552   2.294   3.756  1.7543  2.4253  1.4866
   95MOL0     H12760  10.196   2.145   3.856 -2.3602  1.4983  0.7575
   95MOL0     H12761  10.206   2.200   4.030 -0.5161  3.8217  1.3412
   95MOL0     H12762  10.134   2.411   3.973  1.1432  1.2071 -1.6246
   95MOL0     H12763  10.138   2.387   3.793 -1.3585 -0.3433 -1.9132
   95MOL0     H12764   9.916   2.363   3.832  2.3524  2.0641 -0.1807
   95MOL0     H12765   9.962   2.196   3.868  0.9983 -0.1776  0.2949
   95MOL0     H12766   9.955   2.245   4.101  2.3126  1.1015 -0.2052
   95MOL0     H12767   9.922   2.418   4.078  2.4276 -1.3854  0.4443
   95MOL0     H12768   9.700   2.314   4.134 -1.0879 -0.7380  0.1732
   95MOL0     H12769   9.721   2.381   3.972 -0.9758 -0.5361  0.0132
   95MOL0     H12770   9.770   2.141   3.893 -0.5545  1.2711 -1.1582
   95MOL0     H12771   9.750   2.105   4.067  3.5813 -0.4946 -2.4952
   95MOL0     H12772   9.520   2.214   4.049 -0.2268 -0.8964  1.1044
   95MOL0     H12773   9.552   2.240   3.877  0.8940  1.4103  1.3405
   95MOL0     H12774   9.394   2.036   3.954 -0.5178  1.0890  1.7935
   95MOL0     H12775   9.550   1.977   4.026 -1.1133  1.5103  2.1074
   95MOL0     H12776   9.333   2.000   3.703 -2.0095 -4.3796  2.0048
   95MOL0     H12777   9.493   1.818   3.424  2.9418  0.4443  1.2318
   95MOL0     H12778   9.345   1.901   3.472  0.3353 -2.0546 -0.4131
   95MOL0     H12779   9.432   2.119   3.403 -2.6417 -1.5020  1.5404
   95MOL0     H12780   9.434   2.005   3.275  1.2489  1.3764 -0.6894
   95MOL0     H12781   9.708   2.005   3.412  2.0393  2.3725 -0.9386
   95MOL0     H12782   9.655   2.150   3.336  1.2309 -0.5432  0.4097
   95MOL0     H12783   9.781   2.006   3.181  1.3362 -1.4391  2.1756
   95MOL0     H12784   9.618   2.008   3.115 -0.0762  0.5893  0.6468
   95MOL0     H12785   9.671   1.602   3.168 -0.6504  0.8205  0.8566
   95MOL0     H12786   9.831   1.342   3.339 -0.2932 -0.4899 -0.8654
   95MOL0     H12787   9.715   1.382   3.207 -0.6683 -0.1979 -0.2644
   95MOL0     H12788   9.875   1.356   3.163  0.8957 -1.4748  1.2548
   95MOL0     H12789  10.210   1.361   3.638 -0.2863  1.6100 -0.2648
   95MOL0     H12790  10.431   1.246   3.658  2.7571 -0.0170  0.1947
   95MOL0     H12791  10.644   1.350   3.717 -1.9011  0.0485 -1.2430
   95MOL0     H12792  10.642   1.175   3.682 -0.8187  0.4832  1.4623
   95MOL0     H12793  10.872   1.240   3.750  0.4076  1.1104  0.5666
   95MOL0     H12794  10.868   1.200   3.580  0.8707 -0.8593  1.7486
   95MOL0     H12795  10.841   1.489   3.697  0.2960 -1.0978  1.6960
   95MOL0     H12796  10.890   1.444   3.536  1.4580  0.7840 -0.0540
   95MOL0     H12797  11.058   1.355   3.777  0.7768  0.7942  0.1964
   95MOL0     H12798  11.088   1.348   3.597 -1.0509  0.9740 -1.0329
   95MOL0     H12799  11.061   1.602   3.743 -0.7771 -1.4555 -0.0891
   95MOL0     H12800  11.070   1.581   3.575 -1.5224 -1.2882 -0.2602
   95MOL0     H12801  11.297   1.628   3.722 -0.5168  0.8534 -0.3287
   95MOL0     H12802  11.295   1.448   3.730  0.5624 -1.0719 -2.4385
   95MOL0     H12803  11.285   1.604   3.471  0.3677 -1.3381 -0.7032
   95MOL0     H12804  11.339   1.440   3.499  2.7924  0.1218 -0.4504
   95MOL0     H12805  11.497   1.644   3.636 -2.3142  0.8555 -0.3736
   95MOL0     H12806  11.528   1.595   3.461  2.2409  1.0665  0.6081
   95MOL0     H12807  10.584   1.483   3.330  1.8662 -1.6317  0.8156
   95MOL0     H12808  10.347   1.603   3.331 -1.3879 -0.3511  0.4728
   95MOL0     H12809  10.062   1.756   3.414  0.8357  3.1321 -1.9774
   95MOL0     H12810   9.879   1.919   3.338 -0.4511  0.6606  0.2785
   95MOL0     H12811  10.372   2.044   4.067  0.6588 -2.5437 -1.7284
   95MOL0     H12812  10.568   1.941   4.106  2.1109  1.2854  0.5321
   95MOL0     H12813  11.021   1.937   4.000 -0.0971  0.4421  1.9570
   95MOL0     H12814  11.248   1.837   4.024 -0.1473 -0.3804 -1.7665
   95MOL0     H12815  11.490   1.600   4.031  1.6225  1.7096  1.5309
   95MOL0     H12816  11.394   1.722   4.111 -1.4775  1.0049 -1.4602
   95MOL0     H12817  11.565   1.544   4.236 -0.1207 -0.9088 -1.5196
   95MOL0     H12818  11.405   1.466   4.260 -3.0129  1.1017 -1.2704
   95MOL0     H12819  11.311   1.678   4.346  0.8890  0.0096 -2.2197
   95MOL0     H12820  11.470   1.742   4.327  0.3055 -1.1881  0.5797
   95MOL0     H12821  11.365   1.554   4.536  0.6523 -0.0186  2.9744
   95MOL0     H12822  11.495   1.662   4.558 -2.3426  0.5872  1.0795
   95MOL0     H12823  11.700   1.298   4.448  2.2379  1.3633 -0.3984
   95MOL0     H12824  11.070   1.453   4.053  0.3982  0.0571  1.6562
   95MOL0     H12825  10.839   1.549   4.022 -0.4435 -0.0447  0.7435
   96MOL0     O12826   4.729   0.354   9.857  0.0334  0.3569  0.1252
   96MOL0     C12827   4.801   0.402   9.770 -0.1946  0.3440  0.2091
   96MOL0     O12828   4.785   0.524   9.723 -0.2829 -0.3756 -0.0193
   96MOL0     C12829   4.683   0.595   9.795 -0.1626 -0.7365  0.2941
   96MOL0     C12830   4.730   0.704   9.872 -1.0211 -0.2961  0.1218
   96MOL0     C12831   4.647   0.778   9.959 -0.0660  0.0482  0.2164
   96MOL0     C12832   4.514   0.750   9.969  0.4613 -0.9050  0.0322
   96MOL0     O12833   4.431   0.817  10.052  0.5093 -0.2255  1.0651
   96MOL0     C12834   4.326   0.749  10.126  0.1353  0.3482 -0.5251
   96MOL0     C12835   4.287   0.850  10.228 -0.2602  0.2467 -0.4904
   96MOL0     C12836   4.148   0.816  10.293 -0.2290  0.5624  0.0373
   96MOL0     C12837   4.087   0.940  10.358 -0.3556  0.9695  0.1443
   96MOL0     C12838   3.943   0.912  10.402  0.0409  0.9300 -0.0258
   96MOL0     C12839   3.947   0.838  10.541 -0.5030 -0.1003  0.1519
   96MOL0     C12840   3.812   0.827  10.607 -0.6059 -0.4087  0.6647
   96MOL0     C12841   3.715   0.745  10.525  0.2258 -0.3607 -0.1087
   96MOL0     N12842   3.578   0.781  10.553 -0.1867 -0.3711 -0.0638
   96MOL0     C12843   3.518   0.734  10.673 -0.9685 -0.4868  0.9026
   96MOL0     C12844   3.394   0.773  10.656  0.1559  0.4719 -0.3310
   96MOL0     C12845   3.291   0.740  10.767 -0.0603 -0.2999  0.0323
   96MOL0     C12846   3.151   0.793  10.736  0.3356 -0.7332 -0.1471
   96MOL0     C12847   3.086   0.709  10.618  0.6376 -0.1367 -0.8246
   96MOL0     C12848   3.053   0.562  10.652 -0.9660 -0.4712 -0.0397
   96MOL0     O12849   2.993   0.496  10.541 -0.2276 -0.1051 -0.8659
   96MOL0     C12850   2.929   0.376  10.549  0.4039  0.0023 -0.2733
   96MOL0     C12851   2.894   0.307  10.664 -0.3414  0.9317 -0.0267
   96MOL0     C12852   2.820   0.181  10.664 -0.7601  0.1879 -0.0853
   96MOL0     C12853   2.783   0.120  10.795  0.3256  0.0929  0.1340
   96MOL0     C12854   2.786   0.122  10.538 -0.1368 -0.2505  0.6983
   96MOL0     C12855   2.738  -0.014  10.512  0.2275  0.9966  0.6965
   96MOL0     O12856   2.680  -0.070  10.620  0.4581  0.1312  0.1346
   96MOL0     C12857   2.672  -0.205  10.627 -0.3188  0.2469  1.2202
   96MOL0     C12858   2.782  -0.292  10.649  0.4158 -0.3307 -0.3969
   96MOL0     C12859   2.766  -0.434  10.660  0.4333  0.0048  0.2439
   96MOL0     C12860   2.631  -0.484  10.655 -0.5643  0.3982  0.4676
   96MOL0     O12861   2.599  -0.609  10.671 -0.4933  0.3921  0.1855
   96MOL0     C12862   2.694  -0.708  10.687 -0.0192  0.6909 -0.2968
   96MOL0     C12863   2.634  -0.845  10.718  0.7687  0.3713 -0.2433
   96MOL0     C12864   2.561  -0.913  10.601 -0.0223 -0.4267  0.4432
   96MOL0     C12865   2.523  -1.061  10.636 -1.3921 -0.5999  0.6663
   96MOL0     C12866   2.451  -1.144  10.529 -0.3748 -0.2800 -0.1355
   96MOL0     C12867   2.304  -1.103  10.503 -0.2054  0.4089 -0.7952
   96MOL0     C12868   2.253  -1.149  10.362  0.5710 -0.2863 -0.1888
   96MOL0     C12869   2.275  -1.296  10.338 -0.5206  0.9362  0.3979
   96MOL0    Cl12870   2.204  -1.314  10.179  0.0141 -0.2037 -0.5104
   96MOL0     C12871   2.523  -0.396  10.635 -0.7199  0.4367 -0.1768
   96MOL0     C12872   2.551  -0.258  10.632  0.5564  0.6715  1.4823
   96MOL0     O12873   2.739  -0.068  10.399 -0.3439  0.5830  0.1411
   96MOL0     C12874   2.823   0.196  10.420 -0.5027  0.2835  0.4357
   96MOL0     C12875   2.887   0.318  10.423  0.5062  0.0470 -0.3382
   96MOL0     N12876   3.371   0.835  10.538 -0.1155  0.0214 -0.3141
   96MOL0     N12877   3.485   0.842  10.475  0.0979 -0.4900  0.3373
   96MOL0     C12878   4.460   0.652   9.887 -0.5613  0.3432 -0.8457
   96MOL0     C12879   4.542   0.584   9.798  0.3288  0.2932 -0.0179
   96MOL0     C12880   4.923   0.332   9.743 -0.6605 -0.2836 -0.1602
   96MOL0     C12881   4.963   0.222   9.819  0.4828 -0.3934  0.0609
   96MOL0     C12882   5.079   0.151   9.781 -0.1692  1.1991  0.3415
   96MOL0     C12883   5.156   0.183   9.667  0.0378 -0.0563 -0.3008
   96MOL0     O12884   5.266   0.118   9.607 -0.2007 -0.1931  0.0357
   96MOL0     C12885   5.359   0.047   9.697 -0.1264  0.2357  0.4690
   96MOL0     C12886   5.452   0.150   9.757 -0.3966  0.4061 -0.0766
   96MOL0     C12887   5.556   0.081   9.852 -0.2272 -0.8744 -0.1758
   96MOL0     C12888   5.647   0.182   9.932  0.2323  0.8174 -0.0879
   96MOL0     C12889   5.751   0.115  10.005  0.6044  0.0416 -0.0435
   96MOL0     C12890   5.832   0.052  10.070 -0.2325 -0.2198 -0.3093
   96MOL0     C12891   5.116   0.296   9.599  0.3138 -0.2001 -0.1648
   96MOL0     C12892   4.994   0.365   9.629  0.1098  0.7230 -0.4300
   96MOL0     H12893   4.836   0.716   9.887 -1.1818  0.0472  1.0475
   96MOL0     H12894   4.698   0.862  10.005  1.7678 -0.4094 -0.8564
   96MOL0     H12895   4.242   0.725  10.060  0.3756  0.5969 -0.9343
   96MOL0     H12896   4.378   0.663  10.167 -1.6899  0.4555  2.2523
   96MOL0     H12897   4.367   0.858  10.302  0.5804 -1.4576 -1.1759
   96MOL0     H12898   4.274   0.954  10.193  0.2885  1.2304  2.0320
   96MOL0     H12899   4.089   0.773  10.212  0.7917  0.9025 -0.9152
   96MOL0     H12900   4.163   0.735  10.365 -0.6140  0.1313 -0.3630
   96MOL0     H12901   4.152   0.984  10.434 -0.5579 -1.2646  1.7095
   96MOL0     H12902   4.082   1.024  10.288 -0.6828  0.9246  0.1123
   96MOL0     H12903   3.889   1.006  10.419  0.5640  1.0600  0.9943
   96MOL0     H12904   3.899   0.848  10.325 -0.8067  1.7058 -0.1989
   96MOL0     H12905   3.984   0.735  10.537 -0.4664 -0.3716  4.0595
   96MOL0     H12906   4.012   0.894  10.609 -1.6264  1.3492  0.0822
   96MOL0     H12907   3.831   0.792  10.709 -0.4532  2.1175  1.5622
   96MOL0     H12908   3.775   0.929  10.622  1.0555  0.6171 -1.5514
   96MOL0     H12909   3.730   0.640  10.551 -3.3562 -1.0816 -0.5120
   96MOL0     H12910   3.741   0.758  10.420  2.9179 -0.2357  0.4946
   96MOL0     H12911   3.573   0.685  10.753  0.4250 -1.3879 -0.5419
   96MOL0     H12912   3.286   0.634  10.793 -0.6068 -0.0975  0.8017
   96MOL0     H12913   3.336   0.788  10.855  2.1804  1.3620 -1.9108
   96MOL0     H12914   3.161   0.899  10.712  0.0462 -0.6510  0.0904
   96MOL0     H12915   3.080   0.801  10.818  0.4184 -1.1044 -0.0344
   96MOL0     H12916   3.155   0.716  10.533  3.3865  2.0847  1.3784
   96MOL0     H12917   2.993   0.753  10.582  0.3984  0.8801  0.9250
   96MOL0     H12918   2.983   0.560  10.737 -1.0606 -0.6983 -0.1225
   96MOL0     H12919   3.144   0.507  10.677 -0.1787  1.1664  0.8352
   96MOL0     H12920   2.925   0.340  10.763 -0.7027  1.2885 -0.0273
   96MOL0     H12921   2.679   0.088  10.788  0.1114  1.0893 -4.7997
   96MOL0     H12922   2.853   0.045  10.834 -0.5890 -0.3014  1.0790
   96MOL0     H12923   2.789   0.205  10.863  0.7487 -0.8283  1.2822
   96MOL0     H12924   2.880  -0.251  10.671  0.0967  0.6295 -0.7206
   96MOL0     H12925   2.850  -0.498  10.688 -0.3936 -1.1846  0.0856
   96MOL0     H12926   2.760  -0.716  10.600 -2.1028 -2.2026 -1.8057
   96MOL0     H12927   2.758  -0.685  10.773 -1.4828  0.0745  1.0090
   96MOL0     H12928   2.715  -0.911  10.749 -2.1285 -3.3734  0.1559
   96MOL0     H12929   2.575  -0.843  10.810 -0.1245 -1.3626 -0.7326
   96MOL0     H12930   2.619  -0.921  10.508 -1.7472 -0.4968 -0.6746
   96MOL0     H12931   2.473  -0.854  10.574  0.8023  0.3623 -0.6167
   96MOL0     H12932   2.609  -1.126  10.653  0.6293  1.3335 -1.4605
   96MOL0     H12933   2.466  -1.058  10.729  0.8992 -0.4010  2.1407
   96MOL0     H12934   2.456  -1.251  10.551  0.3150 -0.7664 -2.3741
   96MOL0     H12935   2.505  -1.138  10.434  1.7030 -2.4062  0.8120
   96MOL0     H12936   2.241  -1.137  10.585  1.5920 -2.7881 -0.5594
   96MOL0     H12937   2.296  -0.994  10.502 -1.0007  0.4673  2.1863
   96MOL0     H12938   2.287  -1.087  10.278  0.6450  1.5938  1.1528
   96MOL0     H12939   2.145  -1.130  10.363  0.4427 -0.7961 -1.5665
   96MOL0     H12940   2.221  -1.355  10.412 -1.5107  0.8515 -0.3637
   96MOL0     H12941   2.383  -1.315  10.339 -0.2550  1.9555 -1.6965
   96MOL0     H12942   2.423  -0.437  10.625 -0.6852  0.4328 -0.4911
   96MOL0     H12943   2.472  -0.183  10.636  1.3506  1.5297  1.5194
   96MOL0     H12944   2.811   0.151  10.321  0.6977  2.2195 -0.6538
   96MOL0     H12945   2.926   0.376  10.340 -1.4135  0.7702 -0.7788
   96MOL0     H12946   4.356   0.623   9.902  0.2577 -1.6878  1.7732
   96MOL0     H12947   4.497   0.513   9.729 -0.3181  1.8186 -1.2211
   96MOL0     H12948   4.908   0.193   9.908  1.9551  0.9062  1.4436
   96MOL0     H12949   5.115   0.075   9.850 -2.2382  1.1911  1.4710
   96MOL0     H12950   5.313  -0.001   9.784  0.5568  1.2579  1.4286
   96MOL0     H12951   5.407  -0.030   9.635 -2.8553 -1.3062  0.1287
   96MOL0     H12952   5.391   0.218   9.816  2.4304  2.0315  1.1300
   96MOL0     H12953   5.504   0.204   9.678  0.1964  0.0697  0.0752
   96MOL0     H12954   5.632   0.029   9.794  2.7283  1.9036  0.9047
   96MOL0     H12955   5.500   0.020   9.924 -1.5400  0.2741 -0.1864
   96MOL0     H12956   5.583   0.241   9.999 -0.8810 -0.0769 -0.3261
   96MOL0     H12957   5.695   0.246   9.857 -1.3701  0.5194 -1.4378
   96MOL0     H12958   5.922   0.007  10.108  0.2375  0.8151 -0.1564
   96MOL0     H12959   5.174   0.327   9.513  1.3389  1.4457  1.0623
   96MOL0     H12960   4.964   0.451   9.571 -0.6528 -1.5133 -3.6048
   97MOL0     O12961   4.748   3.389   5.628  0.2499 -0.0018 -1.0373
   97MOL0     C12962   4.841   3.339   5.568 -0.1041 -0.5344  0.0854
   97MOL0     O12963   4.836   3.277   5.454  0.5196  0.7477 -0.2199
   97MOL0     C12964   4.710   3.233   5.412 -0.0628  0.0242 -0.5328
   97MOL0     C12965   4.638   3.307   5.313 -0.0229  0.2248 -0.1053
   97MOL0     C12966   4.508   3.263   5.271 -0.3563  0.5655  0.0486
   97MOL0     C12967   4.453   3.148   5.337 -0.6294  0.1237 -1.2506
   97MOL0     O12968   4.335   3.082   5.307  0.2407 -0.3259  0.1295
   97MOL0     C12969   4.256   3.114   5.190  0.1965 -0.3067  0.1829
   97MOL0     C12970   4.147   3.007   5.166 -0.1016 -0.0851  0.3226
   97MOL0     C12971   4.061   2.982   5.296  0.0101 -0.3717 -0.1198
   97MOL0     C12972   4.035   3.107   5.385  0.1526 -0.8729 -0.3103
   97MOL0     C12973   3.914   3.086   5.477  0.0382 -0.7732  0.6978
   97MOL0     C12974   3.769   3.101   5.420  0.0093 -0.4202 -0.7469
   97MOL0     C12975   3.668   3.136   5.540 -0.3169  0.7898  0.9823
   97MOL0     C12976   3.529   3.160   5.494 -0.5769  0.1710  0.4548
   97MOL0     N12977   3.417   3.176   5.598  0.4414  0.4323  0.2648
   97MOL0     C12978   3.403   3.106   5.715 -0.5133  0.0898  0.3572
   97MOL0     C12979   3.322   3.182   5.792 -0.1162 -0.6213  0.2193
   97MOL0     C12980   3.277   3.144   5.925 -0.3213 -0.0074 -0.8510
   97MOL0     C12981   3.151   3.220   5.972  0.0361  0.5204 -0.5715
   97MOL0     C12982   3.114   3.176   6.118 -0.1502 -0.0321  0.0224
   97MOL0     C12983   2.977   3.223   6.162 -0.6261 -0.0858 -0.6659
   97MOL0     O12984   2.876   3.185   6.069 -0.0335  0.5884 -0.3028
   97MOL0     C12985   2.753   3.226   6.102  0.1987  0.2649 -0.2424
   97MOL0     C12986   2.724   3.331   6.195 -0.0869  0.7724 -0.7471
   97MOL0     C12987   2.592   3.376   6.220  0.2169  0.2147 -0.0655
   97MOL0     C12988   2.561   3.475   6.328 -0.6420  0.3342 -0.1010
   97MOL0     C12989   2.485   3.310   6.148 -0.2503 -0.2895 -0.4999
   97MOL0     C12990   2.344   3.354   6.148 -0.2154  1.0454 -0.1966
   97MOL0     O12991   2.255   3.258   6.105  0.5218 -0.5330 -0.0518
   97MOL0     C12992   2.131   3.295   6.060  0.5060  1.1063  0.1994
   97MOL0     C12993   2.011   3.289   6.147 -0.2508 -0.4012 -0.3304
   97MOL0     C12994   1.894   3.339   6.096 -0.4406 -0.0034  0.4622
   97MOL0     C12995   1.880   3.399   5.970 -0.5584 -0.1031 -1.0077
   97MOL0     O12996   1.766   3.456   5.926  0.4152 -0.4076 -0.6458
   97MOL0     C12997   1.660   3.475   6.012 -0.4389 -0.0800 -0.0591
   97MOL0     C12998   1.561   3.564   5.936  0.2240  0.3170 -0.1528
   97MOL0     C12999   1.483   3.468   5.840 -0.1065 -0.1287 -0.4358
   97MOL0     C13000   1.364   3.544   5.784  0.1636  0.0069  0.1828
   97MOL0     C13001   1.289   3.464   5.685 -1.0541  0.8121  0.2288
   97MOL0     C13002   1.183   3.549   5.629 -0.4133 -0.0804 -0.4557
   97MOL0     C13003   1.094   3.473   5.535  0.3989  0.3980 -0.1617
   97MOL0     C13004   0.957   3.531   5.521 -0.0054  0.7940 -0.2920
   97MOL0    Cl13005   0.831   3.406   5.475 -0.0071 -0.1299  0.1981
   97MOL0     C13006   1.998   3.404   5.888  0.8363 -0.4184 -0.9582
   97MOL0     C13007   2.120   3.356   5.933  0.2637 -0.2466 -0.8545
   97MOL0     O13008   2.313   3.473   6.171  0.2163 -0.5408  0.4113
   97MOL0     C13009   2.520   3.208   6.062  0.1239  1.0043 -0.6950
   97MOL0     C13010   2.652   3.165   6.045  1.1664  0.1563  0.0837
   97MOL0     N13011   3.278   3.299   5.719  0.5037 -0.0176  0.4382
   97MOL0     N13012   3.346   3.297   5.608  0.6654  0.4660 -0.2737
   97MOL0     C13013   4.527   3.080   5.441 -0.3220  0.2686  0.6194
   97MOL0     C13014   4.658   3.117   5.469 -0.2577  0.0377 -0.6704
   97MOL0     C13015   4.974   3.374   5.615  0.0092  0.5081 -0.1066
   97MOL0     C13016   4.987   3.451   5.731 -0.6851 -0.9759 -0.1201
   97MOL0     C13017   5.115   3.494   5.770 -0.6462  0.4790  0.3949
   97MOL0     C13018   5.231   3.467   5.696  0.0925 -0.6719 -0.3809
   97MOL0     O13019   5.343   3.529   5.736 -0.9522 -0.2483 -0.7325
   97MOL0     C13020   5.442   3.548   5.645  0.8065 -0.1160  0.3117
   97MOL0     C13021   5.559   3.617   5.720 -0.5231  0.6449 -0.0816
   97MOL0     C13022   5.678   3.637   5.620 -0.5730  0.6097  0.2651
   97MOL0     C13023   5.766   3.753   5.668 -0.1822 -0.2510  0.2222
   97MOL0     C13024   5.815   3.750   5.808  0.7554  0.0809 -0.0945
   97MOL0     C13025   5.851   3.729   5.922 -0.5249  0.8558  0.7772
   97MOL0     C13026   5.221   3.396   5.579  0.7653 -0.1725  0.0029
   97MOL0     C13027   5.089   3.345   5.542  0.4888 -0.3271  0.3163
   97MOL0     H13028   4.682   3.391   5.260 -0.7150 -0.3072 -1.5735
   97MOL0     H13029   4.459   3.312   5.187  0.0526  0.0532 -0.4921
   97MOL0     H13030   4.207   3.211   5.200  0.9753  0.2599 -1.2810
   97MOL0     H13031   4.315   3.112   5.098 -1.4619 -1.9233 -0.9206
   97MOL0     H13032   4.082   3.049   5.089  1.9803  2.2941 -0.2556
   97MOL0     H13033   4.195   2.917   5.127 -1.8198 -0.8134 -0.1998
   97MOL0     H13034   3.975   2.937   5.245  1.8050  1.1179 -5.1400
   97MOL0     H13035   4.125   2.912   5.350 -0.8017 -2.1178 -1.3347
   97MOL0     H13036   4.120   3.127   5.450  0.8127 -1.1483 -1.0701
   97MOL0     H13037   4.024   3.198   5.325 -1.4127 -0.4391  0.5751
   97MOL0     H13038   3.927   2.985   5.516  1.5439 -1.4678 -1.4141
   97MOL0     H13039   3.934   3.147   5.566  2.5706 -2.4251  1.3481
   97MOL0     H13040   3.773   3.187   5.352 -0.0632 -1.6134 -2.3191
   97MOL0     H13041   3.736   3.008   5.373 -0.6291  0.5775 -2.3796
   97MOL0     H13042   3.677   3.051   5.608  1.4630 -1.2161 -1.5445
   97MOL0     H13043   3.699   3.230   5.586  1.8994 -0.0363  1.2737
   97MOL0     H13044   3.504   3.076   5.428  1.3456  1.4702 -2.1443
   97MOL0     H13045   3.539   3.248   5.430  1.7594  0.0498  0.5671
   97MOL0     H13046   3.454   3.019   5.755 -0.4960 -0.0069  0.1218
   97MOL0     H13047   3.267   3.036   5.938  1.1253  0.0441  1.3208
   97MOL0     H13048   3.354   3.166   6.000 -2.2530 -0.3963  1.3562
   97MOL0     H13049   3.066   3.206   5.905 -0.3760  0.0718  0.0442
   97MOL0     H13050   3.169   3.328   5.977  0.4439  0.4215  0.4457
   97MOL0     H13051   3.196   3.203   6.185  0.0314 -1.4551  0.4158
   97MOL0     H13052   3.110   3.067   6.124  0.0951 -0.0057  0.7307
   97MOL0     H13053   2.990   3.331   6.173 -2.8414  0.1779 -0.2861
   97MOL0     H13054   2.947   3.180   6.258 -0.5274  0.8672 -0.1948
   97MOL0     H13055   2.799   3.372   6.261 -0.5130 -0.5648  0.6163
   97MOL0     H13056   2.653   3.484   6.387 -0.5128 -3.3536  0.5325
   97MOL0     H13057   2.523   3.565   6.280 -1.6539 -0.0327 -0.0115
   97MOL0     H13058   2.484   3.432   6.393 -1.8608  0.0927 -1.6767
   97MOL0     H13059   2.021   3.244   6.246 -1.6614  0.7838  0.3820
   97MOL0     H13060   1.807   3.334   6.161 -1.5059 -1.7186 -1.0061
   97MOL0     H13061   1.614   3.378   6.038 -0.0735 -0.3705 -0.4849
   97MOL0     H13062   1.691   3.521   6.106 -1.4566  0.1163  0.1967
   97MOL0     H13063   1.488   3.609   6.004 -0.8120  0.2073 -1.1643
   97MOL0     H13064   1.611   3.646   5.883  1.3945 -0.1860  0.1240
   97MOL0     H13065   1.439   3.386   5.897 -1.6500  0.8020 -0.2186
   97MOL0     H13066   1.551   3.423   5.768 -0.3005 -2.1328  0.5675
   97MOL0     H13067   1.293   3.569   5.863  0.0512  0.7003 -0.1355
   97MOL0     H13068   1.400   3.636   5.738 -0.6070 -0.4650 -1.4157
   97MOL0     H13069   1.253   3.377   5.741 -2.4366 -0.2051 -2.0605
   97MOL0     H13070   1.336   3.418   5.597 -3.9943 -0.1632 -0.9567
   97MOL0     H13071   1.122   3.596   5.707  0.0373  0.1544 -0.2441
   97MOL0     H13072   1.229   3.632   5.574  0.2760  1.1682  1.8576
   97MOL0     H13073   1.078   3.375   5.579  1.5270  0.9938  1.7001
   97MOL0     H13074   1.153   3.467   5.443 -0.4879 -0.0657 -0.7038
   97MOL0     H13075   0.948   3.614   5.450 -1.4114  0.5610 -0.4163
   97MOL0     H13076   0.929   3.572   5.618  0.2803  0.6674 -0.1581
   97MOL0     H13077   1.985   3.429   5.784 -1.3214  0.5641 -0.5038
   97MOL0     H13078   2.206   3.373   5.868  0.5124 -1.3264 -0.8275
   97MOL0     H13079   2.446   3.162   5.998 -0.2389  0.0251  0.3834
   97MOL0     H13080   2.671   3.097   5.963 -4.4167 -1.1145 -0.5466
   97MOL0     H13081   4.489   2.987   5.482  1.4007 -0.3360  0.9730
   97MOL0     H13082   4.716   3.064   5.542 -1.3466 -0.0721  0.1380
   97MOL0     H13083   4.908   3.492   5.792 -1.1281 -0.9807 -0.6863
   97MOL0     H13084   5.124   3.565   5.852 -2.1288  2.0927 -0.7534
   97MOL0     H13085   5.469   3.453   5.599 -0.0730 -0.1813 -0.1092
   97MOL0     H13086   5.411   3.626   5.574  3.2243  1.3069  0.7145
   97MOL0     H13087   5.591   3.547   5.798 -1.3367 -1.1186 -1.2491
   97MOL0     H13088   5.512   3.704   5.766  0.0506  0.1459  1.5051
   97MOL0     H13089   5.632   3.651   5.522 -0.0930 -0.2892 -0.1029
   97MOL0     H13090   5.742   3.553   5.591 -0.8923  1.0409 -1.8219
   97MOL0     H13091   5.712   3.848   5.655 -2.5321 -1.5036  0.3764
   97MOL0     H13092   5.857   3.757   5.608 -0.4879 -2.1548 -0.4191
   97MOL0     H13093   5.891   3.706   6.019 -1.7914 -1.1870  0.8882
   97MOL0     H13094   5.302   3.369   5.512 -0.1519 -0.6448 -0.9545
   97MOL0     H13095   5.068   3.286   5.453 -0.2371  0.1348  0.1715
   98MOL0     O13096  11.071   2.339   6.144 -0.2408  0.2184 -0.6651
   98MOL0     C13097  11.145   2.438   6.140  0.0583  0.4614  0.1722
   98MOL0     O13098  11.150   2.529   6.235 -0.0626  0.0325  0.1593
   98MOL0     C13099  11.034   2.544   6.316  0.3222 -0.0919  0.0765
   98MOL0     C13100  11.043   2.559   6.459  0.2011 -0.0273  0.8835
   98MOL0     C13101  10.928   2.562   6.540 -0.5825 -0.4580 -0.3498
   98MOL0     C13102  10.795   2.562   6.487  0.1381  0.3537 -0.3390
   98MOL0     O13103  10.678   2.559   6.562  0.9982 -0.3637 -0.6747
   98MOL0     C13104  10.706   2.541   6.702 -0.4489  0.2918  0.2892
   98MOL0     C13105  10.573   2.528   6.773  0.2596 -0.4808  0.1353
   98MOL0     C13106  10.479   2.662   6.781 -0.2611 -0.4702 -0.0119
   98MOL0     C13107  10.332   2.607   6.824 -0.1970 -0.5150 -0.6726
   98MOL0     C13108  10.232   2.717   6.849 -0.3272  0.2363  0.0314
   98MOL0     C13109  10.198   2.778   6.712  0.8699 -0.1090  0.7594
   98MOL0     C13110  10.100   2.893   6.726 -0.3431 -0.2496  0.1789
   98MOL0     C13111   9.962   2.846   6.758  0.0124 -0.0750 -0.9164
   98MOL0     N13112   9.868   2.954   6.767  0.8322 -0.0655 -1.0467
   98MOL0     C13113   9.874   3.076   6.714  0.1486  0.1063 -0.1222
   98MOL0     C13114   9.766   3.140   6.763 -0.0184 -0.4249 -0.1997
   98MOL0     C13115   9.729   3.275   6.726  0.1922 -0.5625 -0.4857
   98MOL0     C13116   9.605   3.290   6.628  0.2603  0.3942  0.6299
   98MOL0     C13117   9.605   3.421   6.554  0.8227  0.8218  0.0529
   98MOL0     C13118   9.467   3.467   6.518 -0.4083  1.0042 -0.2785
   98MOL0     O13119   9.397   3.353   6.458 -0.3199 -0.2808 -0.2991
   98MOL0     C13120   9.272   3.361   6.401 -0.1406 -0.0368  1.2066
   98MOL0     C13121   9.194   3.479   6.406  0.0665 -0.6792  0.3794
   98MOL0     C13122   9.066   3.493   6.357  0.0148 -1.2846  0.4879
   98MOL0     C13123   9.001   3.627   6.372 -0.7315 -0.5122 -0.7825
   98MOL0     C13124   9.005   3.379   6.299 -0.6090  1.3801  0.0334
   98MOL0     C13125   8.874   3.372   6.232 -0.0044  0.1987  0.4716
   98MOL0     O13126   8.810   3.254   6.216  0.4658  0.8509 -0.1582
   98MOL0     C13127   8.680   3.251   6.160 -0.3576  0.4739  1.5414
   98MOL0     C13128   8.645   3.143   6.075 -0.5744 -0.1967  0.8022
   98MOL0     C13129   8.520   3.121   6.011 -0.8636 -0.9554 -0.5274
   98MOL0     C13130   8.427   3.224   6.035  0.1743  0.2831  0.1990
   98MOL0     O13131   8.299   3.237   5.986 -0.3575 -0.2423 -0.0569
   98MOL0     C13132   8.250   3.132   5.902  0.3349 -1.2095 -0.6727
   98MOL0     C13133   8.115   3.171   5.839  0.2899 -0.3239  0.1747
   98MOL0     C13134   7.987   3.162   5.924  0.1503  0.1001  0.1483
   98MOL0     C13135   7.865   3.211   5.841  0.2781  0.4858 -0.7517
   98MOL0     C13136   7.768   3.098   5.787  0.6914 -0.1366 -0.3307
   98MOL0     C13137   7.638   3.155   5.728  0.1717  1.1935 -0.0520
   98MOL0     C13138   7.544   3.049   5.670 -0.1530 -0.1484  1.0942
   98MOL0     C13139   7.414   3.104   5.616 -0.6508  0.5390 -0.0239
   98MOL0    Cl13140   7.311   2.966   5.559  0.1477 -0.6208  0.4659
   98MOL0     C13141   8.454   3.326   6.132  0.6715  0.5655 -0.3243
   98MOL0     C13142   8.580   3.342   6.190  0.0698 -0.6837 -0.0232
   98MOL0     O13143   8.833   3.477   6.187 -1.1962  0.7351  0.1318
   98MOL0     C13144   9.077   3.266   6.306  0.0624 -0.1186  0.7878
   98MOL0     C13145   9.210   3.251   6.350  0.2157 -0.0607 -0.3393
   98MOL0     N13146   9.690   3.057   6.842 -0.3439  0.5984 -0.3615
   98MOL0     N13147   9.758   2.949   6.853  0.1295 -0.1277  0.5234
   98MOL0     C13148  10.789   2.562   6.349 -0.4607 -0.0199  0.2914
   98MOL0     C13149  10.901   2.539   6.263 -0.4858  0.3515  0.0525
   98MOL0     C13150  11.264   2.433   6.049  0.4552 -0.9603  0.3065
   98MOL0     C13151  11.283   2.333   5.959  0.2660 -0.0704 -0.2964
   98MOL0     C13152  11.396   2.330   5.886  0.4321 -0.4641  0.8253
   98MOL0     C13153  11.488   2.442   5.884 -0.3467  1.2863 -0.4595
   98MOL0     O13154  11.601   2.454   5.808  0.0138  0.7814  0.0300
   98MOL0     C13155  11.651   2.341   5.732  0.4336  0.0251  0.2884
   98MOL0     C13156  11.714   2.235   5.816 -0.6612 -0.5080 -0.5471
   98MOL0     C13157  11.799   2.287   5.943 -0.2329  0.5311 -0.3033
   98MOL0     C13158  11.907   2.198   5.999  0.0523  0.1983  0.0337
   98MOL0     C13159  11.949   2.091   5.898 -0.3125 -0.6146  0.0221
   98MOL0     C13160  11.984   2.008   5.818 -0.2857  0.5813  0.9395
   98MOL0     C13161  11.473   2.544   5.983 -1.1824  0.4233  0.0173
   98MOL0     C13162  11.362   2.537   6.066 -0.4525 -0.7196  1.1703
   98MOL0     H13163  11.142   2.541   6.499  0.6998  0.3302 -0.1584
   98MOL0     H13164  10.956   2.574   6.645  0.3371  1.4040 -0.7788
   98MOL0     H13165  10.751   2.443   6.717 -1.1759 -0.1945 -0.5417
   98MOL0     H13166  10.764   2.617   6.754  0.8473  0.9010 -1.9062
   98MOL0     H13167  10.521   2.444   6.727 -0.6254  0.2543 -0.2330
   98MOL0     H13168  10.589   2.496   6.877 -0.7525  1.4364  0.9370
   98MOL0     H13169  10.493   2.740   6.856 -2.3570 -0.2003  0.1826
   98MOL0     H13170  10.476   2.710   6.684 -1.2053 -1.8139 -0.6900
   98MOL0     H13171  10.299   2.543   6.742  0.6235 -0.6304 -0.9267
   98MOL0     H13172  10.340   2.560   6.922 -2.5354  1.4713  0.5741
   98MOL0     H13173  10.146   2.669   6.896 -1.3877 -0.9175 -2.8383
   98MOL0     H13174  10.277   2.792   6.914 -0.5380 -1.5048  2.2863
   98MOL0     H13175  10.282   2.821   6.658 -0.7902 -0.6802 -2.6145
   98MOL0     H13176  10.153   2.699   6.650 -1.4063  1.3253  0.4471
   98MOL0     H13177  10.136   2.968   6.798  2.3135  0.2834 -1.5402
   98MOL0     H13178  10.105   2.942   6.628 -1.8088  2.2133  1.2503
   98MOL0     H13179   9.956   2.797   6.855 -0.9548 -0.3271 -1.1038
   98MOL0     H13180   9.923   2.770   6.690 -0.6575 -1.1729  0.6477
   98MOL0     H13181   9.946   3.112   6.641  0.2564 -0.8039 -0.4749
   98MOL0     H13182   9.708   3.330   6.818 -2.0850 -1.4987 -0.3865
   98MOL0     H13183   9.816   3.321   6.679  2.2474 -1.7317  1.9251
   98MOL0     H13184   9.515   3.285   6.690 -2.3754 -2.6058 -2.9954
   98MOL0     H13185   9.613   3.202   6.562 -2.4986 -1.0681  2.0575
   98MOL0     H13186   9.665   3.413   6.463 -1.1370  1.9484 -1.4315
   98MOL0     H13187   9.658   3.494   6.615 -0.8911  0.6010  1.9322
   98MOL0     H13188   9.471   3.543   6.439 -1.7418 -2.0346 -3.5873
   98MOL0     H13189   9.411   3.505   6.604  0.5761 -0.5844  1.1278
   98MOL0     H13190   9.234   3.558   6.470 -0.4852 -0.1840  0.1201
   98MOL0     H13191   9.021   3.650   6.477 -0.1728 -0.8584 -0.8094
   98MOL0     H13192   9.037   3.711   6.311  0.0818 -0.1826  0.1162
   98MOL0     H13193   8.892   3.623   6.370 -0.7731  0.1406 -0.3404
   98MOL0     H13194   8.719   3.065   6.058 -2.7460 -2.5288  1.5276
   98MOL0     H13195   8.514   3.037   5.942  0.3058  0.7570 -2.8779
   98MOL0     H13196   8.312   3.118   5.813 -0.9890  1.7748 -2.1930
   98MOL0     H13197   8.249   3.035   5.953 -1.5259 -0.5103  0.7141
   98MOL0     H13198   8.116   3.268   5.789 -1.2709  0.7467  2.0528
   98MOL0     H13199   8.103   3.092   5.764  3.7577 -0.3622 -0.4736
   98MOL0     H13200   7.996   3.236   6.005  0.1542 -1.3236  1.4836
   98MOL0     H13201   7.976   3.060   5.961  3.0217  0.4087  2.3017
   98MOL0     H13202   7.813   3.292   5.894  1.9746  1.2875 -0.2693
   98MOL0     H13203   7.893   3.267   5.751 -0.1602  4.0756  1.1526
   98MOL0     H13204   7.753   3.026   5.868 -0.6655  0.1153 -0.3401
   98MOL0     H13205   7.823   3.043   5.711  0.0095  0.9231 -1.6339
   98MOL0     H13206   7.579   3.200   5.808 -2.9555 -0.7263 -1.1236
   98MOL0     H13207   7.663   3.232   5.654 -0.3685 -0.4347 -2.0086
   98MOL0     H13208   7.504   2.984   5.748 -0.9937  0.3416  1.0753
   98MOL0     H13209   7.583   2.991   5.586 -3.8504 -1.0571 -0.1807
   98MOL0     H13210   7.422   3.170   5.529  2.2658  0.3612  0.0219
   98MOL0     H13211   7.365   3.159   5.697 -3.6750 -2.0323  0.0967
   98MOL0     H13212   8.381   3.402   6.157  2.1166  2.1168 -0.6094
   98MOL0     H13213   8.589   3.433   6.249 -0.3914  0.4443 -1.6277
   98MOL0     H13214   9.027   3.177   6.270  0.4989 -0.4621  1.0263
   98MOL0     H13215   9.260   3.155   6.337 -0.5504 -0.4129 -0.7537
   98MOL0     H13216  10.687   2.562   6.310 -0.2936 -0.8475 -0.1638
   98MOL0     H13217  10.880   2.515   6.159 -0.1015 -2.6038  0.5566
   98MOL0     H13218  11.199   2.265   5.955  0.0714  0.2133 -1.2566
   98MOL0     H13219  11.411   2.254   5.811  0.4845 -0.6615  1.0354
   98MOL0     H13220  11.564   2.308   5.675  0.3489 -1.6587  1.3275
   98MOL0     H13221  11.733   2.369   5.666  1.4575  1.1017  1.9240
   98MOL0     H13222  11.766   2.177   5.739  0.7160 -0.2640  0.1640
   98MOL0     H13223  11.636   2.180   5.868  0.3541  1.3208  3.2373
   98MOL0     H13224  11.729   2.306   6.024  0.6434 -1.0147  0.8843
   98MOL0     H13225  11.835   2.388   5.923 -2.2135  1.0681 -1.4199
   98MOL0     H13226  11.873   2.147   6.089 -1.7345 -1.9178 -1.7047
   98MOL0     H13227  11.998   2.254   6.023 -0.2134  0.5402  0.2589
   98MOL0     H13228  12.023   1.934   5.750  0.4159 -0.6358  2.5869
   98MOL0     H13229  11.540   2.629   5.989  1.1267 -1.4108  3.2833
   98MOL0     H13230  11.342   2.618   6.136 -2.3867 -0.8945  0.8671
   99MOL0     O13231   9.456   8.653  10.391 -0.0801 -1.6901  0.1310
   99MOL0     C13232   9.514   8.557  10.343 -0.1006 -0.8146  0.0042
   99MOL0     O13233   9.463   8.481  10.240  0.7688  0.1325  0.1183
   99MOL0     C13234   9.343   8.519  10.176  0.3460 -0.1872 -0.8474
   99MOL0     C13235   9.345   8.520  10.039  0.1534  1.0535 -0.1360
   99MOL0     C13236   9.224   8.543   9.971 -0.8969 -0.5042 -0.1488
   99MOL0     C13237   9.105   8.572  10.034  0.4330  0.6611  0.1603
   99MOL0     O13238   8.981   8.582   9.975  0.8999  0.2069  0.1888
   99MOL0     C13239   8.958   8.512   9.848 -1.0870 -0.2897 -0.6312
   99MOL0     C13240   8.809   8.472   9.841  0.8572 -0.1077  0.4522
   99MOL0     C13241   8.716   8.591   9.845  0.4953 -0.4874 -0.4680
   99MOL0     C13242   8.567   8.543   9.873 -0.3388  0.2084 -0.5363
   99MOL0     C13243   8.460   8.648   9.867 -0.9141 -0.5702  0.4881
   99MOL0     C13244   8.493   8.763   9.964  0.2175 -0.4157  0.2593
   99MOL0     C13245   8.370   8.848   9.993  0.1440  0.1372  0.1849
   99MOL0     C13246   8.326   8.934   9.868 -0.6686 -0.1675  0.1613
   99MOL0     N13247   8.201   8.997   9.891 -0.6138  1.0424  0.2460
   99MOL0     C13248   8.188   9.117   9.956  0.2742  0.4454  0.2310
   99MOL0     C13249   8.064   9.114  10.021  0.3713  0.3089  0.1015
   99MOL0     C13250   8.002   9.214  10.096 -0.0679  0.2533 -0.6007
   99MOL0     C13251   7.851   9.217  10.094  0.2455  0.1827  0.0300
   99MOL0     C13252   7.786   9.130  10.210  0.8074 -1.0772  0.1741
   99MOL0     C13253   7.638   9.168  10.213 -0.4247  0.2363  0.4591
   99MOL0     O13254   7.566   9.065  10.282  0.9765 -0.4261  0.1028
   99MOL0     C13255   7.439   9.106  10.318 -0.1609 -1.1435  0.3748
   99MOL0     C13256   7.406   9.133  10.449  0.7577 -0.0212  0.4072
   99MOL0     C13257   7.281   9.167  10.488 -0.2211  0.7543 -0.7790
   99MOL0     C13258   7.262   9.191  10.640 -0.2806  0.2144  0.8219
   99MOL0     C13259   7.177   9.187  10.391 -0.8865 -0.2524 -0.1747
   99MOL0     C13260   7.042   9.251  10.414  0.3441 -0.7081 -0.4099
   99MOL0     O13261   6.967   9.300  10.306 -0.5968  0.4518  0.0755
   99MOL0     C13262   6.863   9.383  10.335 -0.7555 -0.7811  0.5290
   99MOL0     C13263   6.890   9.522  10.354  1.2012 -1.5963  0.5136
   99MOL0     C13264   6.781   9.610  10.396  0.3892  0.2601 -0.0136
   99MOL0     C13265   6.646   9.570  10.392  0.2554 -0.2930 -0.8615
   99MOL0     O13266   6.548   9.650  10.443 -0.6184  0.2297 -0.1954
   99MOL0     C13267   6.418   9.589  10.460  1.0608  0.4220 -0.0862
   99MOL0     C13268   6.319   9.686  10.528  0.6529  0.2361  0.3957
   99MOL0     C13269   6.171   9.623  10.522 -0.5390  0.1913  0.0984
   99MOL0     C13270   6.066   9.724  10.567 -0.0861  0.2076  0.9587
   99MOL0     C13271   5.922   9.687  10.541 -0.6717  0.7683  0.0988
   99MOL0     C13272   5.873   9.553  10.603 -0.1367 -0.1588  0.2112
   99MOL0     C13273   5.881   9.557  10.756  0.1568  0.3319 -0.2274
   99MOL0     C13274   5.935   9.428  10.826  0.0429 -0.6478  0.0955
   99MOL0    Cl13275   5.812   9.304  10.835  0.1611 -0.1476 -0.1257
   99MOL0     C13276   6.618   9.436  10.359 -0.2543  0.7041 -0.5875
   99MOL0     C13277   6.731   9.342  10.336  0.3882  0.2687  0.0206
   99MOL0     O13278   7.000   9.254  10.530  0.4195 -0.2382  0.7663
   99MOL0     C13279   7.213   9.155  10.257  0.0218  1.2505 -0.4914
   99MOL0     C13280   7.341   9.105  10.221 -0.0970  0.1037  0.9968
   99MOL0     N13281   8.007   8.994   9.988 -0.5092  1.1560 -0.5996
   99MOL0     N13282   8.081   8.928   9.905 -0.6628  1.0153  0.4528
   99MOL0     C13283   9.100   8.569  10.177  0.6655  0.4543  0.2436
   99MOL0     C13284   9.224   8.529  10.244 -0.1036 -0.0130 -0.7670
   99MOL0     C13285   9.646   8.524  10.391 -0.1340  0.4184 -0.0071
   99MOL0     C13286   9.709   8.601  10.485  0.8343  0.8999  0.4312
   99MOL0     C13287   9.829   8.568  10.542  0.9694 -0.2181 -0.6198
   99MOL0     C13288   9.898   8.459  10.501 -0.0546 -0.3599  0.3151
   99MOL0     O13289  10.018   8.443  10.560 -0.0709 -0.3951  0.2810
   99MOL0     C13290  10.088   8.312  10.554  0.6202 -0.4966 -0.1047
   99MOL0     C13291  10.024   8.219  10.661  0.1439 -0.1960 -0.4553
   99MOL0     C13292  10.064   8.068  10.671  0.5921 -0.3369 -0.7917
   99MOL0     C13293  10.207   8.031  10.628  0.3578  0.3507 -0.3118
   99MOL0     C13294  10.292   8.107  10.721  0.6193 -0.9012  0.1500
   99MOL0     C13295  10.369   8.187  10.773 -0.3362  0.4166 -0.1204
   99MOL0     C13296   9.840   8.373  10.398  0.4142  0.0552 -1.0040
   99MOL0     C13297   9.707   8.407  10.354 -0.0395  0.2350  0.1616
   99MOL0     H13298   9.436   8.504   9.983 -1.1467 -1.6535 -1.6693
   99MOL0     H13299   9.224   8.530   9.863 -2.1892 -0.5359 -0.1580
   99MOL0     H13300   8.994   8.584   9.774  2.1586 -2.0049 -0.8643
   99MOL0     H13301   9.004   8.413   9.853 -0.2328  0.0425  5.2409
   99MOL0     H13302   8.790   8.403   9.758 -1.8387  0.5974  0.3764
   99MOL0     H13303   8.793   8.413   9.933  2.1052  0.5396  1.1108
   99MOL0     H13304   8.730   8.650   9.936 -1.8278  3.0214 -2.1720
   99MOL0     H13305   8.720   8.643   9.749 -0.2599  0.7817  0.1541
   99MOL0     H13306   8.549   8.458   9.807  0.7174 -0.4513 -0.0014
   99MOL0     H13307   8.564   8.507   9.976 -2.8163  0.9044 -0.3112
   99MOL0     H13308   8.454   8.701   9.772  1.2028  0.4297  0.8264
   99MOL0     H13309   8.364   8.603   9.890 -1.2337 -0.9094 -1.4377
   99MOL0     H13310   8.524   8.718  10.059  0.1973 -1.0698 -0.0347
   99MOL0     H13311   8.572   8.834   9.940 -2.0509  2.3474  0.3996
   99MOL0     H13312   8.285   8.784  10.019 -0.8941  0.9388 -1.0915
   99MOL0     H13313   8.402   8.912  10.075 -0.6976 -2.2114  2.4744
   99MOL0     H13314   8.302   8.862   9.789 -0.2536 -1.0397  0.8092
   99MOL0     H13315   8.400   9.009   9.841 -1.4314  0.8225  0.7839
   99MOL0     H13316   8.253   9.204   9.958 -0.1624  0.8298 -1.1821
   99MOL0     H13317   8.035   9.196  10.199 -2.4418 -0.6416  0.0791
   99MOL0     H13318   8.045   9.309  10.062  1.6183 -1.0806 -2.4251
   99MOL0     H13319   7.832   9.186   9.990  0.7010  0.7861 -0.2398
   99MOL0     H13320   7.808   9.315  10.116 -4.0532 -1.8540  1.7843
   99MOL0     H13321   7.827   9.163  10.306  1.4895 -0.0950 -0.4368
   99MOL0     H13322   7.801   9.022  10.204  1.5823 -1.1061  2.0699
   99MOL0     H13323   7.590   9.173  10.115  0.8642  1.3122 -0.1431
   99MOL0     H13324   7.619   9.269  10.249 -0.5310  0.7601 -1.0136
   99MOL0     H13325   7.491   9.123  10.516  0.5043  1.9414  1.0831
   99MOL0     H13326   7.360   9.199  10.689  0.0960  3.6580 -0.2202
   99MOL0     H13327   7.212   9.284  10.667 -0.2792  0.5835 -0.4030
   99MOL0     H13328   7.215   9.100  10.679  0.1103 -1.9651 -3.3081
   99MOL0     H13329   6.990   9.563  10.340  0.1526  0.7108 -0.8499
   99MOL0     H13330   6.803   9.709  10.435  0.4728  0.2667 -0.0770
   99MOL0     H13331   6.379   9.557  10.363  1.1708 -0.4922  0.1658
   99MOL0     H13332   6.423   9.502  10.526  2.0111  1.0170  0.6391
   99MOL0     H13333   6.347   9.695  10.634  0.0979 -0.7711  0.6488
   99MOL0     H13334   6.339   9.779  10.476 -0.0529 -0.7444 -1.7673
   99MOL0     H13335   6.168   9.530  10.580  1.5102 -0.0226 -0.0490
   99MOL0     H13336   6.152   9.583  10.423  0.2302 -0.3303  0.1529
   99MOL0     H13337   6.079   9.751  10.672 -3.3179 -3.0938  2.4576
   99MOL0     H13338   6.085   9.820  10.519  1.0718 -1.0193 -1.1911
   99MOL0     H13339   5.903   9.678  10.434 -0.1792  0.2058  0.0521
   99MOL0     H13340   5.860   9.769  10.579 -0.5841  0.3487  1.1741
   99MOL0     H13341   5.772   9.535  10.567 -0.1500 -1.2101  0.7510
   99MOL0     H13342   5.939   9.469  10.578  1.4943 -0.0812  3.6808
   99MOL0     H13343   5.778   9.563  10.791  0.6043  1.9894  0.9562
   99MOL0     H13344   5.929   9.648  10.794  1.8933  0.6436 -2.9062
   99MOL0     H13345   5.980   9.452  10.923 -0.4174  0.4971  0.0437
   99MOL0     H13346   6.017   9.401  10.758 -0.4169 -1.3199 -0.2019
   99MOL0     H13347   6.514   9.407  10.366  0.0007  0.1518  1.8158
   99MOL0     H13348   6.716   9.236  10.315 -0.2484 -0.0841  2.0102
   99MOL0     H13349   7.137   9.156  10.178  0.3428 -0.0986 -0.8289
   99MOL0     H13350   7.358   9.081  10.116 -2.8954 -2.2707  0.9613
   99MOL0     H13351   9.004   8.576  10.226 -0.2291 -1.2042 -1.1422
   99MOL0     H13352   9.225   8.522  10.353 -0.9157 -2.0599 -0.8414
   99MOL0     H13353   9.664   8.688  10.532  1.7178  0.4732  2.1711
   99MOL0     H13354   9.865   8.639  10.616 -4.0283 -0.8582  2.9077
   99MOL0     H13355  10.071   8.263  10.458 -0.5041  1.8757 -1.1903
   99MOL0     H13356  10.195   8.331  10.557  0.7608 -1.3686  1.5252
   99MOL0     H13357   9.916   8.232  10.654 -0.0668 -2.2302 -2.2268
   99MOL0     H13358  10.047   8.263  10.758  1.3823  1.0061 -1.2440
   99MOL0     H13359   9.991   8.005  10.620  0.0603 -0.5072  0.1558
   99MOL0     H13360  10.062   8.043  10.777 -0.4362 -3.5199 -1.4564
   99MOL0     H13361  10.216   8.061  10.524  0.2484  4.2633  0.6703
   99MOL0     H13362  10.228   7.924  10.638 -0.3583  0.3534  1.8037
   99MOL0     H13363  10.441   8.260  10.801 -2.6440  2.5903  0.5545
   99MOL0     H13364   9.893   8.286  10.361  0.2477 -1.2632  1.6620
   99MOL0     H13365   9.656   8.348  10.279  2.0619 -0.2809 -0.9526
  100MOL0     O13366   5.885   4.141   0.827  0.4169  0.7109  0.1552
  100MOL0     C13367   5.953   4.112   0.729 -0.8604 -1.2013  0.1390
  100MOL0     O13368   5.913   4.132   0.595 -0.5787  0.6259 -0.2046
  100MOL0     C13369   5.804   4.214   0.577 -0.1799 -0.1856 -0.1383
  100MOL0     C13370   5.810   4.353   0.624 -0.0012  0.6453  0.5363
  100MOL0     C13371   5.693   4.430   0.607 -0.4893 -0.4441 -0.5575
  100MOL0     C13372   5.579   4.378   0.541 -0.1943  0.7250 -0.4548
  100MOL0     O13373   5.467   4.462   0.523  0.8657  0.3219 -0.6731
  100MOL0     C13374   5.340   4.410   0.561  0.2062  0.3759 -0.3724
  100MOL0     C13375   5.301   4.475   0.695  0.5328  0.6752  0.1233
  100MOL0     C13376   5.165   4.416   0.739 -0.7190  0.3264 -0.1388
  100MOL0     C13377   5.047   4.459   0.653  0.3037  0.8471 -0.3140
  100MOL0     C13378   4.903   4.417   0.702  0.0402 -1.0632 -0.0758
  100MOL0     C13379   4.793   4.453   0.596 -0.3056 -0.2330  0.5087
  100MOL0     C13380   4.656   4.407   0.640  0.3162  0.5828  0.1307
  100MOL0     C13381   4.541   4.464   0.554 -0.5974 -0.1797 -0.1841
  100MOL0     N13382   4.406   4.430   0.600 -0.8191  0.4077  0.5749
  100MOL0     C13383   4.345   4.509   0.689  0.4444 -0.3694  0.6155
  100MOL0     C13384   4.225   4.454   0.705  0.7372 -0.5551  0.0154
  100MOL0     C13385   4.122   4.510   0.800  0.5634  0.3429  0.4442
  100MOL0     C13386   3.998   4.418   0.807 -1.0868 -0.7134 -0.1492
  100MOL0     C13387   3.890   4.493   0.886 -0.0548  0.1383 -0.4453
  100MOL0     C13388   3.747   4.448   0.853 -0.2562  0.4358  0.2529
  100MOL0     O13389   3.729   4.484   0.709 -0.7729 -0.5891 -0.1358
  100MOL0     C13390   3.606   4.503   0.662  0.2047 -0.4436  0.1735
  100MOL0     C13391   3.608   4.579   0.555  0.6733 -0.5605 -0.7487
  100MOL0     C13392   3.487   4.620   0.481  0.0024  0.0583  0.4311
  100MOL0     C13393   3.503   4.704   0.362 -0.4686 -0.3283  0.3543
  100MOL0     C13394   3.365   4.562   0.527  0.1159  0.4512  0.2766
  100MOL0     C13395   3.229   4.609   0.482  0.1547 -0.6826 -0.8248
  100MOL0     O13396   3.135   4.588   0.581  0.2124 -0.4212  0.5664
  100MOL0     C13397   2.998   4.603   0.558 -0.0958 -0.3957 -0.2761
  100MOL0     C13398   2.914   4.581   0.672 -0.2712 -0.2349  0.0711
  100MOL0     C13399   2.770   4.578   0.664 -0.0915  0.3576  0.5199
  100MOL0     C13400   2.706   4.590   0.543 -0.4748 -0.3566 -0.5335
  100MOL0     O13401   2.574   4.594   0.508 -0.8352 -0.7415 -0.3739
  100MOL0     C13402   2.483   4.544   0.604 -0.0956  0.0853  0.0097
  100MOL0     C13403   2.336   4.567   0.552  0.0676 -0.0914 -1.1557
  100MOL0     C13404   2.297   4.473   0.446 -0.0277  0.1637  0.4120
  100MOL0     C13405   2.153   4.497   0.411 -0.4950 -0.1383  0.3741
  100MOL0     C13406   2.101   4.389   0.324 -1.1575 -0.0573 -0.3207
  100MOL0     C13407   1.977   4.438   0.242 -0.1605 -0.6419 -0.2537
  100MOL0     C13408   1.856   4.433   0.338  0.8143  0.2498 -0.0762
  100MOL0     C13409   1.732   4.379   0.269  0.4015 -0.7971  0.1233
  100MOL0    Cl13410   1.724   4.202   0.260  0.1408  0.4364  0.1183
  100MOL0     C13411   2.793   4.593   0.433 -0.3611  0.6077 -0.0442
  100MOL0     C13412   2.932   4.596   0.440  0.6308 -0.2126 -0.0804
  100MOL0     O13413   3.212   4.675   0.376 -0.0455  0.7981 -0.4526
  100MOL0     C13414   3.370   4.478   0.643  0.3091  0.0597  0.6704
  100MOL0     C13415   3.491   4.448   0.714  0.3683  0.3267 -0.0393
  100MOL0     N13416   4.208   4.345   0.619  0.0532 -0.1580 -0.3210
  100MOL0     N13417   4.315   4.334   0.560  0.1242  0.3485  1.0622
  100MOL0     C13418   5.583   4.246   0.486 -0.6025  0.0487  0.0433
  100MOL0     C13419   5.695   4.166   0.503  1.0758 -0.1505  0.6448
  100MOL0     C13420   6.088   4.063   0.743  0.0197 -0.6457  0.3226
  100MOL0     C13421   6.181   4.099   0.636  0.6806 -0.1329 -0.6591
  100MOL0     C13422   6.316   4.075   0.647 -0.3302  0.1081 -0.0585
  100MOL0     C13423   6.368   4.005   0.758  0.1396  0.2795  0.5281
  100MOL0     O13424   6.500   3.966   0.756  0.2610 -0.6138 -0.4886
  100MOL0     C13425   6.563   3.982   0.884 -0.0806  0.0692  0.7621
  100MOL0     C13426   6.717   3.976   0.862  0.3498 -0.0124  0.5571
  100MOL0     C13427   6.785   4.012   0.990 -0.1702 -0.1612 -1.0080
  100MOL0     C13428   6.943   3.983   0.989 -0.2725 -0.2795 -0.0850
  100MOL0     C13429   7.004   4.062   0.885  0.3664 -0.6366  0.8200
  100MOL0     C13430   7.063   4.123   0.798 -0.2244 -0.1980 -0.2376
  100MOL0     C13431   6.283   3.971   0.866 -0.2701 -0.4059  0.4314
  100MOL0     C13432   6.143   4.009   0.858  0.1924  0.4159 -1.2400
  100MOL0     H13433   5.896   4.400   0.670  0.1552  1.8561 -0.9302
  100MOL0     H13434   5.693   4.525   0.659  0.6391 -2.1524  2.8935
  100MOL0     H13435   5.276   4.436   0.475  0.6120 -0.6643 -1.0082
  100MOL0     H13436   5.335   4.301   0.574 -3.3105  0.6435  2.1014
  100MOL0     H13437   5.378   4.447   0.767 -0.9286 -1.3638  0.9827
  100MOL0     H13438   5.302   4.584   0.684  0.2000  0.6776  0.1079
  100MOL0     H13439   5.166   4.307   0.734 -0.6164  0.2593  1.0730
  100MOL0     H13440   5.151   4.439   0.845 -0.3596  3.0185 -0.5930
  100MOL0     H13441   5.048   4.568   0.648 -0.5951  0.9461  1.1276
  100MOL0     H13442   5.066   4.421   0.552  1.6530  4.1928 -1.4513
  100MOL0     H13443   4.908   4.307   0.703  0.9807 -1.0953 -2.2695
  100MOL0     H13444   4.880   4.454   0.802  0.9516 -1.4310  0.2861
  100MOL0     H13445   4.797   4.560   0.577 -0.1357 -0.7820 -3.1237
  100MOL0     H13446   4.832   4.415   0.501 -1.8727 -0.4222 -0.0887
  100MOL0     H13447   4.649   4.298   0.644  1.2203  0.5006 -0.3320
  100MOL0     H13448   4.636   4.451   0.738  2.8984  0.5743  0.7155
  100MOL0     H13449   4.556   4.424   0.453 -3.9973 -1.4243 -0.3237
  100MOL0     H13450   4.542   4.573   0.541 -1.2847  0.1010  1.8177
  100MOL0     H13451   4.378   4.603   0.733  0.0657  0.6999 -1.2529
  100MOL0     H13452   4.154   4.525   0.903  0.4312  5.4332  0.0212
  100MOL0     H13453   4.085   4.603   0.755  1.5300  0.2456 -0.6092
  100MOL0     H13454   4.030   4.330   0.863  0.6527  0.4694  0.7880
  100MOL0     H13455   3.975   4.398   0.702  1.0906  1.7688 -1.2187
  100MOL0     H13456   3.884   4.600   0.863  0.1366  0.2362 -0.0514
  100MOL0     H13457   3.902   4.479   0.994 -1.2748  1.9727 -0.0194
  100MOL0     H13458   3.673   4.500   0.914 -0.4774  0.8710 -0.3715
  100MOL0     H13459   3.733   4.340   0.860 -0.7178  0.3565 -1.4131
  100MOL0     H13460   3.703   4.613   0.514  0.5216  0.3927 -0.3543
  100MOL0     H13461   3.446   4.669   0.276  1.0153 -2.1311  0.0247
  100MOL0     H13462   3.472   4.805   0.388  0.1672  1.0306 -3.5954
  100MOL0     H13463   3.608   4.704   0.331  0.0531  0.7025  1.9784
  100MOL0     H13464   2.967   4.558   0.763 -1.7952 -1.0714  0.7816
  100MOL0     H13465   2.717   4.555   0.756  1.2628  2.1972  1.8351
  100MOL0     H13466   2.497   4.436   0.620  2.6287  0.6048  1.8281
  100MOL0     H13467   2.491   4.599   0.698 -1.8562  0.8962 -0.2757
  100MOL0     H13468   2.279   4.541   0.641  1.0522 -1.3344 -0.8600
  100MOL0     H13469   2.322   4.671   0.521  2.4485  0.3071 -1.0932
  100MOL0     H13470   2.313   4.374   0.489 -0.7621  0.3742  1.1971
  100MOL0     H13471   2.359   4.493   0.358 -0.6079 -0.8641 -0.2580
  100MOL0     H13472   2.094   4.512   0.502 -0.8328 -1.3996  0.3855
  100MOL0     H13473   2.152   4.591   0.356 -1.6571 -0.4417 -0.1454
  100MOL0     H13474   2.084   4.298   0.383  1.5546 -1.6352 -1.7452
  100MOL0     H13475   2.186   4.360   0.261 -0.3210  3.3326 -0.9498
  100MOL0     H13476   1.984   4.542   0.209 -2.9218 -0.4061 -0.3492
  100MOL0     H13477   1.976   4.367   0.160 -0.4241  0.3864 -1.1697
  100MOL0     H13478   1.830   4.537   0.363 -1.3359 -0.2946  0.1483
  100MOL0     H13479   1.868   4.383   0.434  2.2007  0.9894  0.1558
  100MOL0     H13480   1.721   4.424   0.170 -0.5901  1.7055  1.2909
  100MOL0     H13481   1.647   4.410   0.330  2.2709  2.4579  1.3187
  100MOL0     H13482   2.743   4.592   0.336 -2.1022  3.0942  0.7062
  100MOL0     H13483   2.990   4.605   0.348  1.3559 -0.4023  0.3550
  100MOL0     H13484   3.282   4.423   0.676  0.6606 -0.5366  0.6308
  100MOL0     H13485   3.489   4.383   0.800 -1.4050  0.0178 -0.2754
  100MOL0     H13486   5.507   4.189   0.432 -1.5187 -1.6013  2.8628
  100MOL0     H13487   5.703   4.065   0.464 -0.4690 -0.0075 -0.1377
  100MOL0     H13488   6.141   4.150   0.549  2.8026  3.3872  0.2788
  100MOL0     H13489   6.391   4.109   0.576 -0.8731 -0.8875 -1.1399
  100MOL0     H13490   6.533   4.078   0.929 -2.5938 -1.1608  1.9344
  100MOL0     H13491   6.520   3.910   0.954 -0.5847  1.5787  2.0800
  100MOL0     H13492   6.743   4.046   0.781 -2.1554 -1.5224 -1.7150
  100MOL0     H13493   6.748   3.882   0.816 -2.3130 -1.8128  2.1732
  100MOL0     H13494   6.727   3.972   1.074  0.3305  0.9439 -0.1002
  100MOL0     H13495   6.765   4.118   1.009 -0.6183 -0.4485  0.2522
  100MOL0     H13496   6.955   3.875   0.971 -0.7009 -0.1371 -1.2830
  100MOL0     H13497   6.980   3.998   1.091 -0.2447  0.4088 -0.1975
  100MOL0     H13498   7.099   4.180   0.714 -0.1803  0.8447  0.4566
  100MOL0     H13499   6.310   3.918   0.956  0.9447 -0.5420  0.0068
  100MOL0     H13500   6.090   3.989   0.950  3.0101 -0.7613  0.2585
  101MOL0     O13501   4.940   3.153   0.482  0.4526  0.3645 -0.4662
  101MOL0     C13502   4.936   3.210   0.366 -1.0364  1.1839 -0.6854
  101MOL0     O13503   4.840   3.281   0.314 -0.3194  0.2847 -0.0766
  101MOL0     C13504   4.707   3.286   0.359  0.1665  0.4629  0.2531
  101MOL0     C13505   4.634   3.180   0.402  0.2781  0.5702 -0.6587
  101MOL0     C13506   4.494   3.179   0.405  0.0882  0.3461  0.5177
  101MOL0     C13507   4.431   3.303   0.373 -0.4652 -1.1465  0.2613
  101MOL0     O13508   4.297   3.307   0.374 -0.6612 -0.6657  0.0071
  101MOL0     C13509   4.244   3.412   0.445 -0.0884  0.3913  0.4010
  101MOL0     C13510   4.099   3.371   0.474 -0.7471  0.1767  0.3555
  101MOL0     C13511   4.011   3.379   0.349 -0.7315 -0.0185  0.2900
  101MOL0     C13512   3.860   3.387   0.389  0.1770 -0.3416 -0.3244
  101MOL0     C13513   3.771   3.413   0.256 -0.4148 -1.0250 -0.5082
  101MOL0     C13514   3.628   3.435   0.293 -0.3794  0.3985 -0.2476
  101MOL0     C13515   3.520   3.457   0.187 -0.1710  0.7139  0.3374
  101MOL0     C13516   3.399   3.518   0.254  0.5948  0.3963  0.0866
  101MOL0     N13517   3.404   3.666   0.290 -0.1512 -0.1532  0.0626
  101MOL0     C13518   3.518   3.746   0.310 -0.0855 -0.0176  0.6817
  101MOL0     C13519   3.466   3.863   0.359 -0.5617 -0.0184 -0.3117
  101MOL0     C13520   3.562   3.972   0.394  0.0707 -0.4402  0.5523
  101MOL0     C13521   3.519   4.114   0.337  0.6559  0.0845  0.6697
  101MOL0     C13522   3.589   4.222   0.413  0.4331 -0.3311 -0.3063
  101MOL0     C13523   3.738   4.210   0.459  0.1756 -0.5089  0.0148
  101MOL0     O13524   3.791   4.194   0.330 -0.2404 -0.2971  0.5320
  101MOL0     C13525   3.909   4.122   0.317 -0.5334  0.8810  0.4575
  101MOL0     C13526   3.921   4.023   0.215  0.2458  0.7541 -0.9389
  101MOL0     C13527   4.040   3.941   0.212  0.4003  0.8884 -0.9695
  101MOL0     C13528   4.037   3.819   0.129  0.7360  0.2090 -0.6202
  101MOL0     C13529   4.149   3.973   0.296 -0.6898 -0.4447  0.9657
  101MOL0     C13530   4.284   3.924   0.281 -0.3564  0.4836  0.7091
  101MOL0     O13531   4.381   4.003   0.331  0.2924 -0.1559  0.2572
  101MOL0     C13532   4.508   3.949   0.352  0.4708 -0.1144  1.0791
  101MOL0     C13533   4.583   3.999   0.458 -0.7191 -0.2165  0.7393
  101MOL0     C13534   4.718   3.958   0.474 -0.3056  0.5419 -0.4815
  101MOL0     C13535   4.783   3.869   0.383  0.4127  0.1265 -0.8453
  101MOL0     O13536   4.915   3.849   0.392 -0.0531  0.3453  0.0915
  101MOL0     C13537   4.997   3.764   0.304 -0.1631 -0.1329  0.1404
  101MOL0     C13538   4.989   3.624   0.360  0.2842  0.2860  0.1428
  101MOL0     C13539   5.075   3.602   0.484  0.0495  0.0167  0.6177
  101MOL0     C13540   5.177   3.503   0.437  0.4679  0.2996  0.1269
  101MOL0     C13541   5.264   3.474   0.561 -0.3110  0.1696  0.6961
  101MOL0     C13542   5.379   3.385   0.516 -0.1666 -0.0115 -0.5898
  101MOL0     C13543   5.486   3.394   0.637 -0.3993  0.3111 -0.2653
  101MOL0     C13544   5.622   3.331   0.591 -0.2717  1.2744 -0.6412
  101MOL0    Cl13545   5.722   3.364   0.750 -0.3747  0.1643  0.0407
  101MOL0     C13546   4.703   3.822   0.280  0.9155 -0.7216  0.3133
  101MOL0     C13547   4.569   3.864   0.267  1.2124  0.7535  0.8139
  101MOL0     O13548   4.296   3.806   0.247 -0.3759  0.2426  0.5810
  101MOL0     C13549   4.130   4.066   0.399 -0.4716  1.7231  0.0681
  101MOL0     C13550   4.013   4.148   0.405 -0.0585  0.1098 -0.0272
  101MOL0     N13551   3.327   3.851   0.371 -0.2273 -0.1392 -0.9551
  101MOL0     N13552   3.294   3.736   0.332 -0.0545  0.5620  0.0226
  101MOL0     C13553   4.506   3.414   0.338  0.0283 -1.2699 -0.3947
  101MOL0     C13554   4.646   3.408   0.336  0.2106 -0.4332 -0.6423
  101MOL0     C13555   5.055   3.191   0.289  0.9729 -0.2424 -0.0233
  101MOL0     C13556   5.151   3.103   0.334 -0.3126  0.2831  0.7760
  101MOL0     C13557   5.275   3.099   0.266 -0.4762 -0.9423  0.2745
  101MOL0     C13558   5.301   3.176   0.152  0.7439  0.4013  1.0683
  101MOL0     O13559   5.417   3.176   0.080  0.2526 -0.3101 -0.5350
  101MOL0     C13560   5.537   3.164   0.154 -0.0449 -0.3953  0.4120
  101MOL0     C13561   5.640   3.251   0.087  0.6400 -0.5502  1.0031
  101MOL0     C13562   5.665   3.210  -0.060 -0.4689 -0.4223  0.5476
  101MOL0     C13563   5.795   3.275  -0.108  0.1559  1.2486  0.6223
  101MOL0     C13564   5.847   3.204  -0.227 -0.3826  0.2288  0.4981
  101MOL0     C13565   5.895   3.134  -0.316 -0.1753  0.7125 -0.2718
  101MOL0     C13566   5.197   3.257   0.107  0.0435  0.9344 -0.1301
  101MOL0     C13567   5.075   3.266   0.174 -0.0383  0.1585 -0.7305
  101MOL0     H13568   4.692   3.089   0.414 -3.2817 -1.6747  0.8915
  101MOL0     H13569   4.433   3.090   0.417 -0.1492  0.3727 -0.4467
  101MOL0     H13570   4.289   3.434   0.542  0.0080  3.9321 -0.3117
  101MOL0     H13571   4.256   3.502   0.384  1.6911  1.4896  2.2836
  101MOL0     H13572   4.101   3.273   0.523  1.0789  0.2362  0.4703
  101MOL0     H13573   4.055   3.440   0.547  2.9126  2.0512  1.0030
  101MOL0     H13574   4.037   3.475   0.303 -0.1066 -1.8599 -3.5987
  101MOL0     H13575   4.032   3.295   0.283  0.2330 -0.5402  1.2199
  101MOL0     H13576   3.827   3.300   0.446  1.0125  0.6050  1.6700
  101MOL0     H13577   3.843   3.467   0.462  2.1547  0.5993 -0.8413
  101MOL0     H13578   3.805   3.502   0.201 -0.3400 -0.9607 -0.3595
  101MOL0     H13579   3.779   3.321   0.197 -2.3368  0.8430 -4.0294
  101MOL0     H13580   3.604   3.343   0.348 -3.0108 -0.1422 -2.0712
  101MOL0     H13581   3.618   3.517   0.364  2.4937 -0.2776  1.1001
  101MOL0     H13582   3.556   3.516   0.102  1.0928  0.5028  0.7055
  101MOL0     H13583   3.487   3.364   0.140  0.1124  2.0154 -2.7021
  101MOL0     H13584   3.374   3.462   0.344 -0.4891 -0.4561 -0.7114
  101MOL0     H13585   3.315   3.498   0.186  0.9183 -0.9454  0.0572
  101MOL0     H13586   3.624   3.731   0.292 -0.0963  1.1523 -0.5171
  101MOL0     H13587   3.575   3.982   0.502  2.5997  0.0417  0.2635
  101MOL0     H13588   3.664   3.949   0.360  0.2920  3.3096 -1.9642
  101MOL0     H13589   3.410   4.106   0.335  0.7849 -3.4468 -1.9705
  101MOL0     H13590   3.538   4.124   0.230  2.0568 -0.1528  0.8742
  101MOL0     H13591   3.532   4.239   0.505  0.4982 -0.5366 -0.2271
  101MOL0     H13592   3.579   4.313   0.353  0.6804  0.8404  1.3643
  101MOL0     H13593   3.772   4.123   0.516  1.3290  2.0680  3.6212
  101MOL0     H13594   3.771   4.297   0.516 -0.1881  0.2465 -0.8929
  101MOL0     H13595   3.828   3.990   0.171  0.6043 -1.3163 -0.2455
  101MOL0     H13596   4.107   3.814   0.044 -0.3887 -1.3546 -1.4921
  101MOL0     H13597   4.047   3.733   0.195 -2.9987 -0.1828 -0.3593
  101MOL0     H13598   3.942   3.800   0.078 -0.1024 -3.5719  1.9469
  101MOL0     H13599   4.538   4.073   0.523 -0.8689  0.2032  0.1674
  101MOL0     H13600   4.787   4.000   0.546 -0.1639 -1.0483  0.3539
  101MOL0     H13601   4.957   3.765   0.202  0.1167 -0.5238  0.0247
  101MOL0     H13602   5.103   3.790   0.300  0.2749 -1.7334  0.5240
  101MOL0     H13603   4.888   3.597   0.391 -0.0091  1.0271 -0.1516
  101MOL0     H13604   5.018   3.566   0.272  0.9807  1.6920 -0.5940
  101MOL0     H13605   4.997   3.573   0.556 -3.1639  2.3469 -1.6517
  101MOL0     H13606   5.121   3.696   0.517 -2.3710  0.5921  2.6829
  101MOL0     H13607   5.117   3.416   0.407 -2.3043  1.1211  2.6742
  101MOL0     H13608   5.235   3.546   0.356  0.8713 -0.4919 -0.0194
  101MOL0     H13609   5.214   3.418   0.640 -1.9838 -0.6522 -0.8520
  101MOL0     H13610   5.297   3.567   0.608  1.9410  0.2345 -0.8537
  101MOL0     H13611   5.341   3.282   0.514 -1.3660  0.1195  3.8558
  101MOL0     H13612   5.413   3.413   0.416 -2.1439 -1.6817 -1.8032
  101MOL0     H13613   5.454   3.348   0.730  2.3948  0.5161  0.9035
  101MOL0     H13614   5.511   3.498   0.660  2.4423  0.2927 -2.5704
  101MOL0     H13615   5.671   3.385   0.510  1.1111  1.3356  0.1928
  101MOL0     H13616   5.624   3.227   0.556  4.2195  1.7467 -2.4409
  101MOL0     H13617   4.750   3.764   0.202  1.4564  1.8647 -1.4282
  101MOL0     H13618   4.517   3.821   0.182  0.9115 -1.1285  1.8972
  101MOL0     H13619   4.211   4.082   0.470  1.1604 -1.6388 -0.8346
  101MOL0     H13620   4.007   4.234   0.470 -1.4201 -0.0970  0.1531
  101MOL0     H13621   4.460   3.510   0.317  0.3044 -1.5583 -2.5272
  101MOL0     H13622   4.711   3.484   0.296  1.2039 -0.4333  0.8638
  101MOL0     H13623   5.131   3.037   0.418 -0.2637  0.6022  1.0408
  101MOL0     H13624   5.347   3.027   0.303 -1.6431 -1.5614  1.3972
  101MOL0     H13625   5.534   3.201   0.257 -0.1163  0.2129  0.1951
  101MOL0     H13626   5.568   3.060   0.142 -0.1636 -0.5340  1.2404
  101MOL0     H13627   5.730   3.235   0.147  0.8386  0.5451  1.0195
  101MOL0     H13628   5.606   3.355   0.093  1.9251  0.1668 -2.1979
  101MOL0     H13629   5.578   3.243  -0.118 -0.0561 -0.4751 -0.1063
  101MOL0     H13630   5.656   3.104  -0.083  0.0315 -0.2553 -0.4799
  101MOL0     H13631   5.874   3.280  -0.033  3.8256  2.5254 -2.9639
  101MOL0     H13632   5.773   3.381  -0.122 -0.4102  1.2728  1.6126
  101MOL0     H13633   5.936   3.075  -0.395 -2.0278 -0.5464 -0.3486
  101MOL0     H13634   5.203   3.310   0.013  1.5174 -1.8908 -1.7493
  101MOL0     H13635   4.992   3.330   0.145 -0.9491 -0.9122 -0.5342
  102MOL0     O13636   6.416   7.192   5.647  0.1612  0.6337 -0.6872
  102MOL0     C13637   6.441   7.163   5.768  0.0589 -0.0709  0.1137
  102MOL0     O13638   6.355   7.151   5.875 -0.8425  0.0921  1.0939
  102MOL0     C13639   6.218   7.169   5.850  0.0123  0.2813 -0.1868
  102MOL0     C13640   6.158   7.264   5.929 -0.0237  0.0295 -0.0995
  102MOL0     C13641   6.020   7.285   5.918  1.0208 -0.0963  0.5206
  102MOL0     C13642   5.943   7.215   5.827  0.4925 -0.1491  0.1289
  102MOL0     O13643   5.815   7.256   5.811  0.1863 -0.4533 -0.5565
  102MOL0     C13644   5.727   7.208   5.918  0.1194 -0.1375 -0.5415
  102MOL0     C13645   5.627   7.110   5.856  0.5449  0.4981 -0.1124
  102MOL0     C13646   5.559   7.174   5.736  0.4939  0.8423  0.1333
  102MOL0     C13647   5.442   7.091   5.680  0.8046 -0.5108 -0.0810
  102MOL0     C13648   5.395   7.137   5.538 -0.3353  0.1280  1.0828
  102MOL0     C13649   5.263   7.065   5.492  0.1007  0.0765 -0.6437
  102MOL0     C13650   5.216   7.107   5.351 -0.3080  0.2574  0.1282
  102MOL0     C13651   5.089   7.048   5.302  0.4920 -0.6993  0.1051
  102MOL0     N13652   4.980   7.091   5.393 -0.2343 -1.1004  0.3805
  102MOL0     C13653   4.915   7.210   5.400 -0.1340  0.7747  0.3951
  102MOL0     C13654   4.816   7.194   5.498 -0.3829  0.5913 -0.6360
  102MOL0     C13655   4.719   7.295   5.542 -0.3236 -0.1245 -0.7315
  102MOL0     C13656   4.790   7.411   5.603  0.0933  0.1045  0.7082
  102MOL0     C13657   4.680   7.521   5.640 -0.7884 -0.0439 -0.2245
  102MOL0     C13658   4.650   7.521   5.797  0.2363 -0.3983 -0.4343
  102MOL0     O13659   4.557   7.628   5.816  0.5174  0.3828  0.5933
  102MOL0     C13660   4.428   7.616   5.765  0.1840 -0.3053  0.3687
  102MOL0     C13661   4.368   7.493   5.717 -0.4693 -0.1093 -0.5945
  102MOL0     C13662   4.234   7.483   5.679  0.1535 -0.0134 -0.4714
  102MOL0     C13663   4.185   7.355   5.626 -0.6312 -0.0140 -0.4083
  102MOL0     C13664   4.153   7.597   5.679  0.4347  0.2125 -0.2408
  102MOL0     C13665   4.007   7.599   5.650 -0.5174 -0.3658 -0.5304
  102MOL0     O13666   3.961   7.732   5.639 -0.3274  0.1687 -0.2950
  102MOL0     C13667   3.846   7.746   5.574  0.3484  0.7859  0.3492
  102MOL0     C13668   3.857   7.811   5.455  0.2326  0.7649 -0.1481
  102MOL0     C13669   3.750   7.852   5.382  0.5072  0.5245  0.0618
  102MOL0     C13670   3.615   7.827   5.436 -0.0280 -0.7574 -0.3254
  102MOL0     O13671   3.495   7.868   5.373  0.2996  0.3933  0.0012
  102MOL0     C13672   3.481   7.832   5.238  0.3173  0.2174 -0.5369
  102MOL0     C13673   3.359   7.901   5.156  1.2388  0.7805 -0.3009
  102MOL0     C13674   3.212   7.851   5.191 -0.2476 -0.4534  0.3335
  102MOL0     C13675   3.102   7.939   5.128 -0.3506  0.0104 -0.8065
  102MOL0     C13676   2.964   7.886   5.181  1.1522 -0.1000  0.1543
  102MOL0     C13677   2.852   7.982   5.123  0.3034  0.5415 -0.3367
  102MOL0     C13678   2.862   8.125   5.174  0.6912  0.5353  0.0819
  102MOL0     C13679   2.727   8.191   5.138 -0.1107  0.4554 -0.5086
  102MOL0    Cl13680   2.598   8.138   5.242  0.0137 -0.0647  0.0629
  102MOL0     C13681   3.601   7.756   5.555 -0.2302  0.1678 -0.3679
  102MOL0     C13682   3.719   7.720   5.625  0.6269 -0.1671  0.2989
  102MOL0     O13683   3.941   7.498   5.656  0.1811  0.2178  0.0199
  102MOL0     C13684   4.210   7.721   5.710  0.4308  0.3168  0.5891
  102MOL0     C13685   4.344   7.727   5.763 -0.2842 -0.4420 -0.0482
  102MOL0     N13686   4.837   7.063   5.559 -0.2557 -1.0805  0.0550
  102MOL0     N13687   4.940   7.017   5.500  0.1783 -0.0587  0.0512
  102MOL0     C13688   6.005   7.121   5.748 -0.2354  1.0898 -0.1922
  102MOL0     C13689   6.148   7.102   5.757  0.9850 -1.0757  0.1978
  102MOL0     C13690   6.588   7.145   5.806  0.2585  0.7215  0.2490
  102MOL0     C13691   6.619   7.094   5.935  0.3030 -0.6585 -0.2753
  102MOL0     C13692   6.754   7.086   5.977 -0.6124  0.0226 -0.5686
  102MOL0     C13693   6.859   7.117   5.885  0.1950  0.3723 -0.6323
  102MOL0     O13694   6.980   7.088   5.928 -0.1023 -0.5322 -0.0600
  102MOL0     C13695   7.103   7.116   5.862 -0.1391  0.1911 -0.2230
  102MOL0     C13696   7.211   7.114   5.972  0.7151  0.1570 -0.6519
  102MOL0     C13697   7.194   7.238   6.063  0.0182  0.1591 -0.3482
  102MOL0     C13698   7.277   7.201   6.192 -0.0198 -0.7019  1.2754
  102MOL0     C13699   7.425   7.202   6.160  0.7634  1.0035  0.6790
  102MOL0     C13700   7.538   7.184   6.126 -0.3881  0.5453 -0.6059
  102MOL0     C13701   6.828   7.166   5.761  0.8454 -0.5206 -0.3185
  102MOL0     C13702   6.696   7.181   5.719  0.0303  0.6741 -0.1964
  102MOL0     H13703   6.217   7.312   6.006  1.1528  1.7312 -1.9695
  102MOL0     H13704   5.958   7.353   5.976 -1.4103 -1.5497 -0.2479
  102MOL0     H13705   5.783   7.161   5.999  2.3819  0.5070 -1.6523
  102MOL0     H13706   5.675   7.286   5.974  2.5892  0.6500  0.7725
  102MOL0     H13707   5.674   7.013   5.838  1.3594  0.8204  0.1791
  102MOL0     H13708   5.544   7.076   5.919 -2.0645  0.0376 -3.5549
  102MOL0     H13709   5.517   7.273   5.758  0.8891  0.8228  1.0509
  102MOL0     H13710   5.633   7.187   5.656 -0.6517 -0.7825 -1.2357
  102MOL0     H13711   5.461   6.983   5.674  0.1477 -0.5459 -2.1471
  102MOL0     H13712   5.346   7.097   5.732  0.7745 -0.4703 -0.1408
  102MOL0     H13713   5.382   7.245   5.536 -1.7988 -0.0041 -1.8329
  102MOL0     H13714   5.466   7.118   5.457 -0.4490  1.9254  0.5334
  102MOL0     H13715   5.285   6.958   5.496 -0.2257  0.0384  0.9869
  102MOL0     H13716   5.193   7.082   5.575 -0.0171  0.0412 -0.7348
  102MOL0     H13717   5.207   7.216   5.361 -2.0616  0.0154  1.8448
  102MOL0     H13718   5.283   7.080   5.269 -2.0534  0.7670 -1.5504
  102MOL0     H13719   5.100   6.939   5.300 -0.6496 -0.8165 -0.6231
  102MOL0     H13720   5.078   7.075   5.196  1.5488 -0.4223  0.0588
  102MOL0     H13721   4.932   7.299   5.340  1.4890 -0.4543 -1.0751
  102MOL0     H13722   4.647   7.321   5.464 -1.3160 -1.5597 -0.3336
  102MOL0     H13723   4.661   7.243   5.618  0.3447 -0.6578 -0.5782
  102MOL0     H13724   4.858   7.456   5.529  0.3199 -1.3120  0.0212
  102MOL0     H13725   4.846   7.375   5.689  1.8496  1.8592  0.3780
  102MOL0     H13726   4.586   7.522   5.585 -1.4613  3.3090  0.7627
  102MOL0     H13727   4.727   7.615   5.611  0.1707 -0.5607 -0.3952
  102MOL0     H13728   4.739   7.539   5.858  0.4594  1.6692 -1.2922
  102MOL0     H13729   4.607   7.424   5.823 -0.9487 -0.0094 -0.8885
  102MOL0     H13730   4.423   7.400   5.722 -2.9604 -1.6078  1.2242
  102MOL0     H13731   4.257   7.277   5.651 -1.7232 -1.6502 -2.1034
  102MOL0     H13732   4.102   7.310   5.682  1.6550 -3.7337  0.3046
  102MOL0     H13733   4.176   7.362   5.517 -1.6389  1.1625 -0.2775
  102MOL0     H13734   3.958   7.826   5.418  0.6844  0.8636  1.0539
  102MOL0     H13735   3.757   7.902   5.286 -0.6196  0.8165  0.1116
  102MOL0     H13736   3.573   7.857   5.184  2.1418 -1.2591  1.7042
  102MOL0     H13737   3.473   7.723   5.244 -1.0485  0.3924  2.6027
  102MOL0     H13738   3.358   8.008   5.177 -1.2984  0.3134  2.7306
  102MOL0     H13739   3.369   7.887   5.048 -0.6449  1.9364 -0.6676
  102MOL0     H13740   3.202   7.848   5.300  0.2384  1.9896  0.5130
  102MOL0     H13741   3.191   7.749   5.158 -1.2718 -0.1388 -0.0069
  102MOL0     H13742   3.122   8.041   5.159 -1.2137  0.3412 -1.3078
  102MOL0     H13743   3.110   7.935   5.019 -2.1416  0.9284 -1.0168
  102MOL0     H13744   2.964   7.890   5.291  2.2298 -1.3841  0.2126
  102MOL0     H13745   2.953   7.781   5.153  1.5200 -0.2745  0.6435
  102MOL0     H13746   2.868   7.989   5.015 -0.5077 -1.4175 -0.6295
  102MOL0     H13747   2.757   7.930   5.140  0.9861 -0.2318  1.2716
  102MOL0     H13748   2.935   8.186   5.120 -0.3020  0.2499 -1.6335
  102MOL0     H13749   2.887   8.141   5.280 -0.7894  0.8281  0.4112
  102MOL0     H13750   2.707   8.182   5.031  2.1746  0.7858 -1.0117
  102MOL0     H13751   2.731   8.297   5.163  0.8616  0.2835  0.1026
  102MOL0     H13752   3.500   7.745   5.593 -1.0017 -0.6984 -2.5768
  102MOL0     H13753   3.706   7.685   5.727 -1.8433  5.2109  2.2238
  102MOL0     H13754   4.163   7.819   5.706  0.7628  0.4567 -0.0457
  102MOL0     H13755   4.387   7.818   5.806 -1.6000  1.1759 -2.0051
  102MOL0     H13756   5.939   7.075   5.675  1.8217  0.0581 -1.5158
  102MOL0     H13757   6.204   7.050   5.680  0.0096 -0.9147 -0.6411
  102MOL0     H13758   6.548   7.056   6.009  1.7688 -2.6889  0.1628
  102MOL0     H13759   6.774   7.043   6.075  0.8403 -1.1078 -1.3233
  102MOL0     H13760   7.117   7.041   5.783 -4.4715 -1.5012  0.3214
  102MOL0     H13761   7.100   7.216   5.818 -0.3738 -0.4863 -1.8142
  102MOL0     H13762   7.309   7.111   5.924  1.3905 -1.1882  0.7321
  102MOL0     H13763   7.192   7.020   6.024  0.1833  0.4462 -0.3172
  102MOL0     H13764   7.089   7.233   6.093  0.3141 -1.3806  0.5227
  102MOL0     H13765   7.218   7.337   6.021 -1.2486  1.2565  1.3828
  102MOL0     H13766   7.244   7.107   6.239 -2.1075  0.7832  2.9732
  102MOL0     H13767   7.266   7.281   6.265  1.5885  1.6899 -0.9358
  102MOL0     H13768   7.640   7.163   6.098 -0.6994 -0.1879 -1.2146
  102MOL0     H13769   6.909   7.180   5.690 -1.0459  0.1405 -2.4697
  102MOL0     H13770   6.683   7.221   5.619  3.2186 -1.3170 -1.5615
  103MOL0     O13771   0.935   8.289   7.859  0.4917 -0.8276 -0.0641
  103MOL0     C13772   1.007   8.303   7.764  0.6524  0.3941  0.3638
  103MOL0     O13773   0.966   8.283   7.634  0.0458 -0.0336 -0.7180
  103MOL0     C13774   0.833   8.259   7.613  0.0682  0.4734 -0.0628
  103MOL0     C13775   0.750   8.353   7.551 -0.0227  0.3512  0.4123
  103MOL0     C13776   0.621   8.313   7.515 -0.8713 -0.4448 -0.8613
  103MOL0     C13777   0.575   8.186   7.544  0.1057 -0.1919 -0.6082
  103MOL0     O13778   0.437   8.160   7.529 -0.2759 -0.1965 -0.3762
  103MOL0     C13779   0.373   8.132   7.653  0.3900  0.6340  0.5443
  103MOL0     C13780   0.267   8.241   7.664  0.2992  0.3606 -0.4602
  103MOL0     C13781   0.153   8.219   7.566  0.2858  0.3813  0.0235
  103MOL0     C13782   0.051   8.338   7.577 -1.0560  0.8655  0.4318
  103MOL0     C13783  -0.040   8.310   7.462  0.4809  0.3693  0.1130
  103MOL0     C13784  -0.126   8.433   7.432  0.0385 -0.0824 -0.3571
  103MOL0     C13785  -0.246   8.445   7.538 -0.2979 -0.6729  0.6104
  103MOL0     C13786  -0.346   8.547   7.503  0.9468 -0.2538  0.0740
  103MOL0     N13787  -0.438   8.514   7.393 -0.2001 -1.2296  0.2076
  103MOL0     C13788  -0.526   8.410   7.410 -0.1861  0.4419  0.9180
  103MOL0     C13789  -0.578   8.394   7.286 -0.1901 -0.5966  0.3400
  103MOL0     C13790  -0.702   8.302   7.248 -0.1476 -0.5329  0.2109
  103MOL0     C13791  -0.703   8.253   7.105 -0.4089 -0.3015 -0.4825
  103MOL0     C13792  -0.742   8.359   6.994 -0.4349  0.2571  0.0351
  103MOL0     C13793  -0.885   8.412   6.992 -0.7919 -0.4620 -0.1454
  103MOL0     O13794  -0.991   8.312   6.980 -0.2026 -0.1935  0.3783
  103MOL0     C13795  -1.123   8.358   6.996  0.2394  0.0547  0.0421
  103MOL0     C13796  -1.156   8.496   6.984 -0.4291 -0.6222 -0.6109
  103MOL0     C13797  -1.288   8.530   6.984 -0.2225 -0.3965 -0.4098
  103MOL0     C13798  -1.300   8.676   6.979 -0.3401 -0.2615  1.4059
  103MOL0     C13799  -1.394   8.438   7.005  0.6097 -0.3135  0.6586
  103MOL0     C13800  -1.534   8.470   7.009  0.5523  0.2624 -0.5369
  103MOL0     O13801  -1.622   8.365   6.995  0.2275 -0.1221  0.3319
  103MOL0     C13802  -1.751   8.388   7.005 -0.1214 -0.0712  0.2144
  103MOL0     C13803  -1.821   8.426   6.891  0.1389 -0.0451 -0.3028
  103MOL0     C13804  -1.957   8.472   6.907 -0.2181  0.2931  0.4602
  103MOL0     C13805  -2.019   8.479   7.027  0.8718 -0.9963  0.2627
  103MOL0     O13806  -2.160   8.507   7.036 -0.0182  0.8656 -0.0305
  103MOL0     C13807  -2.188   8.601   7.140  0.2047 -0.2907  0.2388
  103MOL0     C13808  -2.213   8.738   7.073 -0.3404 -0.2820  0.2824
  103MOL0     C13809  -2.100   8.841   7.112  0.7343  0.0118  0.0807
  103MOL0     C13810  -2.015   8.890   6.995 -0.9034 -0.7580  0.0007
  103MOL0     C13811  -1.892   8.963   7.057  0.5203  0.1373  0.1117
  103MOL0     C13812  -1.817   9.017   6.930 -1.5357 -0.4002  0.6141
  103MOL0     C13813  -1.673   9.066   6.965  0.1408 -0.7850 -1.2828
  103MOL0     C13814  -1.588   8.959   7.025  0.4098  0.2365 -0.0630
  103MOL0    Cl13815  -1.407   9.002   7.017 -0.1172  0.4046  0.4400
  103MOL0     C13816  -1.942   8.433   7.136  0.5288  0.0755 -0.3936
  103MOL0     C13817  -1.808   8.390   7.133  0.0441 -0.4574  0.4460
  103MOL0     O13818  -1.572   8.579   7.040  0.5469  0.7324 -0.3930
  103MOL0     C13819  -1.353   8.303   7.016  0.5030  0.1533  0.1041
  103MOL0     C13820  -1.224   8.264   7.006  0.3699 -0.2912  0.1916
  103MOL0     N13821  -0.515   8.481   7.202  0.1399 -0.7405  0.0313
  103MOL0     N13822  -0.437   8.554   7.266 -0.2380 -0.1526 -0.2939
  103MOL0     C13823   0.660   8.091   7.599 -0.9817  0.1521 -0.0472
  103MOL0     C13824   0.787   8.129   7.633  0.8205  0.0139 -0.5059
  103MOL0     C13825   1.149   8.364   7.775  0.1561  1.1836 -0.0697
  103MOL0     C13826   1.195   8.463   7.687 -0.4485 -0.5910  0.8268
  103MOL0     C13827   1.320   8.512   7.696  0.0743 -0.3722 -0.0809
  103MOL0     C13828   1.395   8.486   7.811  0.0358  0.0430  0.6607
  103MOL0     O13829   1.522   8.538   7.831 -0.4615 -0.1105 -0.1439
  103MOL0     C13830   1.612   8.490   7.731 -1.3096  0.3095 -0.0183
  103MOL0     C13831   1.749   8.549   7.773  0.1677  0.7966 -0.7740
  103MOL0     C13832   1.844   8.553   7.650  0.8281  0.6986  0.9644
  103MOL0     C13833   1.994   8.572   7.668  0.1705 -0.2777 -0.2214
  103MOL0     C13834   2.055   8.465   7.752 -0.4828 -0.0069  0.0660
  103MOL0     C13835   2.114   8.382   7.825 -0.3466 -0.3735  0.3839
  103MOL0     C13836   1.343   8.408   7.918  0.2318 -0.6677  0.1897
  103MOL0     C13837   1.222   8.343   7.891  0.1904  0.9339 -0.2392
  103MOL0     H13838   0.794   8.452   7.547 -1.6694  1.1061 -2.8707
  103MOL0     H13839   0.551   8.388   7.479 -1.1411 -0.1100  0.3175
  103MOL0     H13840   0.316   8.040   7.636  0.1503  1.0981 -1.3668
  103MOL0     H13841   0.443   8.125   7.736  1.6195 -0.4183 -0.5206
  103MOL0     H13842   0.228   8.232   7.766  3.7733 -2.8625  0.8152
  103MOL0     H13843   0.317   8.338   7.652 -0.5547  0.7188 -1.2786
  103MOL0     H13844   0.200   8.203   7.468  0.3680 -0.6898  0.2270
  103MOL0     H13845   0.109   8.121   7.587  2.9410 -0.7786  0.5033
  103MOL0     H13846   0.004   8.341   7.676  3.1670  1.1023  2.6729
  103MOL0     H13847   0.106   8.432   7.578  0.5853 -0.0170 -0.8632
  103MOL0     H13848   0.016   8.293   7.370 -1.5127  0.7021 -1.2304
  103MOL0     H13849  -0.105   8.225   7.483  1.7463 -1.1005 -1.6313
  103MOL0     H13850  -0.063   8.522   7.433  0.3311 -0.2495 -1.5284
  103MOL0     H13851  -0.180   8.426   7.337  0.8970  0.6980 -0.9150
  103MOL0     H13852  -0.288   8.349   7.571  0.4310 -0.2608  2.8612
  103MOL0     H13853  -0.200   8.481   7.630  1.6293  0.5097 -0.7520
  103MOL0     H13854  -0.301   8.645   7.485 -0.3638  0.2657 -0.5200
  103MOL0     H13855  -0.418   8.554   7.585  0.4655 -1.0749 -0.2635
  103MOL0     H13856  -0.551   8.357   7.501  1.5974 -2.1550  0.0220
  103MOL0     H13857  -0.696   8.211   7.308  0.3969  1.1723  2.9369
  103MOL0     H13858  -0.799   8.351   7.259 -0.1809 -0.0263 -1.9330
  103MOL0     H13859  -0.776   8.173   7.111 -1.4806  0.7579  3.3508
  103MOL0     H13860  -0.606   8.223   7.064 -0.5011  0.7637 -1.5485
  103MOL0     H13861  -0.710   8.306   6.904  3.1637 -0.1069  1.3408
  103MOL0     H13862  -0.673   8.443   6.988 -2.4523  1.8633 -2.5133
  103MOL0     H13863  -0.889   8.480   6.907 -0.9716  0.9712  0.9733
  103MOL0     H13864  -0.898   8.475   7.080 -1.0803 -0.4786 -0.1753
  103MOL0     H13865  -1.074   8.566   6.969  2.3933 -3.6821 -0.7818
  103MOL0     H13866  -1.229   8.722   6.911 -0.4556 -0.8476  0.8802
  103MOL0     H13867  -1.394   8.715   6.939  1.0916  2.1992  0.2519
  103MOL0     H13868  -1.287   8.708   7.083 -0.9228 -0.7056  1.6204
  103MOL0     H13869  -1.780   8.406   6.793  0.6725 -0.3409 -0.0233
  103MOL0     H13870  -2.016   8.491   6.818  0.9926 -2.0247 -0.9450
  103MOL0     H13871  -2.282   8.565   7.182 -0.7616  0.6349 -1.0371
  103MOL0     H13872  -2.111   8.605   7.218  0.3937  0.9502  0.0063
  103MOL0     H13873  -2.219   8.718   6.966 -0.5965  0.2031  0.2024
  103MOL0     H13874  -2.312   8.769   7.110 -0.1239  0.2053  0.4656
  103MOL0     H13875  -2.043   8.813   7.201 -0.6348 -0.4842  0.8340
  103MOL0     H13876  -2.145   8.935   7.147  1.8711  1.2803 -1.7156
  103MOL0     H13877  -1.976   8.804   6.941  0.2412 -1.8995  2.4701
  103MOL0     H13878  -2.069   8.952   6.923 -0.6192 -1.6409 -1.0022
  103MOL0     H13879  -1.838   8.890   7.117  4.3697  1.3992 -1.5235
  103MOL0     H13880  -1.925   9.041   7.127  0.6642  2.5848 -2.3638
  103MOL0     H13881  -1.802   8.944   6.850  1.0434 -1.4717  1.9512
  103MOL0     H13882  -1.879   9.093   6.883 -1.5652  0.5691  2.1411
  103MOL0     H13883  -1.669   9.151   7.033 -1.5178 -2.6237  1.3394
  103MOL0     H13884  -1.632   9.098   6.869 -0.3476  4.1743 -0.1179
  103MOL0     H13885  -1.610   8.875   6.958 -1.9684  3.4573 -3.7848
  103MOL0     H13886  -1.619   8.945   7.129  1.9980 -0.6857  0.3132
  103MOL0     H13887  -1.970   8.446   7.240 -0.2117  3.0961 -0.8662
  103MOL0     H13888  -1.752   8.374   7.224  1.2416  1.6763  0.1383
  103MOL0     H13889  -1.417   8.216   7.029  1.8758 -0.8358  0.4616
  103MOL0     H13890  -1.205   8.158   7.020  0.7494 -0.0980  1.2037
  103MOL0     H13891   0.642   7.990   7.634  3.0138 -0.4539  0.7582
  103MOL0     H13892   0.853   8.046   7.656 -1.6995 -2.0610 -0.3367
  103MOL0     H13893   1.135   8.491   7.601  1.5778  0.5608 -0.2603
  103MOL0     H13894   1.344   8.586   7.621 -3.9326  1.8620  0.5000
  103MOL0     H13895   1.623   8.381   7.726  1.3285  0.5004  0.4231
  103MOL0     H13896   1.589   8.532   7.632  2.2527  1.2840 -0.5708
  103MOL0     H13897   1.790   8.488   7.854 -2.2393  0.2521  0.0975
  103MOL0     H13898   1.728   8.648   7.814  1.0876 -0.2302  2.4046
  103MOL0     H13899   1.822   8.646   7.596  3.1071 -0.3486 -2.0903
  103MOL0     H13900   1.814   8.474   7.581 -1.4865  3.6158 -1.7070
  103MOL0     H13901   2.013   8.666   7.722 -0.6643 -1.3350  2.0195
  103MOL0     H13902   2.043   8.567   7.570  0.1529 -1.0963 -0.1907
  103MOL0     H13903   2.164   8.317   7.894  2.9102  0.0426 -1.3354
  103MOL0     H13904   1.407   8.392   8.004  0.7804 -0.9193 -0.2638
  103MOL0     H13905   1.162   8.288   7.963 -1.2976  1.5309 -0.9862
  104MOL0     O13906   5.315  11.069   7.095 -0.3693 -0.3114  0.0929
  104MOL0     C13907   5.329  10.988   7.187  0.2189 -0.3043  0.2166
  104MOL0     O13908   5.227  10.920   7.236 -0.3438  0.1224 -0.7907
  104MOL0     C13909   5.097  10.952   7.202  1.2420  1.0164  0.0346
  104MOL0     C13910   5.001  10.969   7.302  0.5941 -0.2689 -0.5260
  104MOL0     C13911   4.870  10.982   7.263  0.3009  0.1237  0.2400
  104MOL0     C13912   4.838  10.967   7.131  0.1112  0.7797  0.0824
  104MOL0     O13913   4.704  10.974   7.111 -0.1507  0.3252 -0.3561
  104MOL0     C13914   4.651  10.961   6.982  0.3896  0.0802 -0.5778
  104MOL0     C13915   4.505  10.993   6.990 -0.0010  0.0148 -0.0213
  104MOL0     C13916   4.415  10.890   7.047  0.0459 -0.5538 -0.9677
  104MOL0     C13917   4.268  10.918   7.035  0.5299  0.2289  0.4422
  104MOL0     C13918   4.179  10.797   7.099  0.6435  0.0637  0.8068
  104MOL0     C13919   4.032  10.827   7.075  0.2050  0.0939 -0.2710
  104MOL0     C13920   3.939  10.741   7.159 -0.3414  0.5068  0.2300
  104MOL0     C13921   3.793  10.781   7.130 -0.4418  0.4013  0.0628
  104MOL0     N13922   3.704  10.683   7.198  0.4813 -0.2878  0.5500
  104MOL0     C13923   3.691  10.665   7.337 -0.2554 -0.3779 -0.5150
  104MOL0     C13924   3.590  10.580   7.349  0.4199 -0.5767  0.3908
  104MOL0     C13925   3.537  10.523   7.475  0.1695  0.3359 -0.3027
  104MOL0     C13926   3.419  10.606   7.525 -0.3819 -0.4971 -0.4866
  104MOL0     C13927   3.307  10.615   7.425 -0.0332  0.3658  0.0220
  104MOL0     C13928   3.180  10.634   7.507 -0.5648 -0.1093  0.4213
  104MOL0     O13929   3.203  10.744   7.601  0.3335 -0.3290  0.1268
  104MOL0     C13930   3.089  10.807   7.653 -0.1124  0.3976  0.2755
  104MOL0     C13931   3.116  10.899   7.758  1.5600  0.3381 -0.0338
  104MOL0     C13932   3.018  10.986   7.813  0.1238  0.9893 -0.0709
  104MOL0     C13933   3.070  11.086   7.919  0.6495 -0.3640  0.5258
  104MOL0     C13934   2.883  10.975   7.764 -0.4516  0.3657 -0.3104
  104MOL0     C13935   2.778  11.065   7.811 -0.1867 -0.0165  0.5337
  104MOL0     O13936   2.651  11.014   7.792 -0.5516 -0.0686  0.6946
  104MOL0     C13937   2.550  11.084   7.853 -0.4148 -0.3975  0.6464
  104MOL0     C13938   2.541  11.107   7.988  0.1063 -0.2342  0.5006
  104MOL0     C13939   2.431  11.175   8.035  0.5481  0.0501 -0.0698
  104MOL0     C13940   2.328  11.227   7.965 -1.0470 -0.1041 -0.4297
  104MOL0     O13941   2.230  11.307   8.009 -0.2555  0.5762 -0.5380
  104MOL0     C13942   2.240  11.375   8.137 -0.4778 -0.4290 -0.0623
  104MOL0     C13943   2.122  11.471   8.165  0.4658  0.1626  0.3220
  104MOL0     C13944   2.105  11.595   8.084  0.0952  0.3280  0.2637
  104MOL0     C13945   2.146  11.724   8.153 -0.1941  1.1461 -0.1352
  104MOL0     C13946   2.301  11.749   8.151 -0.4353  0.4775 -0.4573
  104MOL0     C13947   2.350  11.879   8.220 -0.2138 -0.1748  0.2912
  104MOL0     C13948   2.479  11.945   8.167 -0.9085 -0.2754  0.0780
  104MOL0     C13949   2.475  12.034   8.040 -0.3722  0.3544 -0.2325
  104MOL0    Cl13950   2.424  12.195   8.086  0.0685 -0.0088  0.2122
  104MOL0     C13951   2.334  11.196   7.831 -0.0562 -0.0639 -0.0403
  104MOL0     C13952   2.446  11.137   7.775  0.5098  0.4439  0.6237
  104MOL0     O13953   2.805  11.173   7.858 -0.5199 -0.3234  0.2001
  104MOL0     C13954   2.861  10.886   7.653 -0.3813 -0.0280  0.4626
  104MOL0     C13955   2.955  10.802   7.599  0.7368  0.6555 -0.6115
  104MOL0     N13956   3.543  10.543   7.223 -0.6955 -0.4739 -0.2185
  104MOL0     N13957   3.610  10.612   7.136  0.5542  0.2915 -0.1878
  104MOL0     C13958   4.928  10.945   7.027  0.8107  0.5989 -1.2223
  104MOL0     C13959   5.061  10.929   7.065 -0.1833 -0.4300  0.3037
  104MOL0     C13960   5.477  10.947   7.229  0.0435 -0.4617  0.2154
  104MOL0     C13961   5.576  11.042   7.213  0.4018 -0.7684 -0.2455
  104MOL0     C13962   5.706  11.015   7.252 -0.2014 -0.0787  0.5159
  104MOL0     C13963   5.739  10.886   7.290  0.4060 -0.0651  0.1497
  104MOL0     O13964   5.869  10.863   7.325 -0.3692  0.7086 -0.3588
  104MOL0     C13965   5.910  10.721   7.333  0.4279  0.2952 -0.6609
  104MOL0     C13966   6.067  10.715   7.343  0.0214  0.2176 -0.7706
  104MOL0     C13967   6.142  10.724   7.206  0.5408 -0.0073  0.4869
  104MOL0     C13968   6.288  10.758   7.220 -0.1053 -0.0765  0.0409
  104MOL0     C13969   6.368  10.657   7.288  0.4565 -0.2350  0.2524
  104MOL0     C13970   6.421  10.569   7.354 -0.7577 -0.7542 -0.8148
  104MOL0     C13971   5.642  10.783   7.289  0.6014 -0.5246 -0.7473
  104MOL0     C13972   5.511  10.820   7.262  0.2708  0.6218  0.3631
  104MOL0     H13973   5.040  10.982   7.403 -0.8690  2.7658 -0.2307
  104MOL0     H13974   4.796  11.013   7.336 -0.3501  0.9015 -0.7207
  104MOL0     H13975   4.682  11.044   6.918 -1.2751 -0.8934 -2.8059
  104MOL0     H13976   4.671  10.863   6.938  0.0222  0.1130 -0.8185
  104MOL0     H13977   4.499  11.090   7.041  1.2806 -0.0261  0.2278
  104MOL0     H13978   4.473  11.014   6.888  2.1537  0.8392 -0.5705
  104MOL0     H13979   4.438  10.799   6.990 -1.0455 -1.3876 -0.0990
  104MOL0     H13980   4.445  10.872   7.150  3.2184 -2.0639 -2.0167
  104MOL0     H13981   4.260  11.009   7.095  0.9714  0.3388  0.3444
  104MOL0     H13982   4.241  10.933   6.930  1.5613  1.4397  0.3224
  104MOL0     H13983   4.207  10.710   7.038  2.3278  0.4479  0.9716
  104MOL0     H13984   4.200  10.787   7.206  1.2594  1.2350  0.8071
  104MOL0     H13985   4.002  10.928   7.102 -0.4799  0.4880 -2.3058
  104MOL0     H13986   4.012  10.824   6.967  2.7040 -0.4057 -0.7711
  104MOL0     H13987   3.951  10.636   7.130 -1.6243  0.2618  0.5243
  104MOL0     H13988   3.958  10.752   7.267  3.2664  0.4424 -0.2565
  104MOL0     H13989   3.774  10.779   7.022 -0.7381  1.7890  0.0745
  104MOL0     H13990   3.776  10.884   7.163  3.0342  1.2556 -0.4783
  104MOL0     H13991   3.753  10.710   7.414  2.9320 -1.1219 -2.4498
  104MOL0     H13992   3.499  10.422   7.454  1.7366 -0.7218  1.6167
  104MOL0     H13993   3.616  10.518   7.550 -1.3286  1.9998  1.4910
  104MOL0     H13994   3.464  10.703   7.547  1.6543 -1.5812  0.3903
  104MOL0     H13995   3.389  10.560   7.619 -1.6468  3.3089  1.1569
  104MOL0     H13996   3.296  10.516   7.380  0.1430 -0.0464  0.8637
  104MOL0     H13997   3.318  10.690   7.346 -0.4260  0.2864 -0.1109
  104MOL0     H13998   3.164  10.545   7.569  0.7392 -1.4613 -1.0877
  104MOL0     H13999   3.101  10.662   7.436  0.7598 -1.7268 -1.8083
  104MOL0     H14000   3.212  10.909   7.807  1.6356  0.0395 -0.1227
  104MOL0     H14001   3.054  11.187   7.880 -2.9858 -0.9981  0.0347
  104MOL0     H14002   3.007  11.077   8.008 -0.0830  0.2456  0.0775
  104MOL0     H14003   3.173  11.062   7.945  0.4674 -2.9549 -0.8370
  104MOL0     H14004   2.628  11.082   8.047  1.4584 -0.1558 -1.3899
  104MOL0     H14005   2.427  11.191   8.142 -1.3126  0.1667 -0.1288
  104MOL0     H14006   2.251  11.290   8.205 -1.5771 -1.9909 -1.7327
  104MOL0     H14007   2.331  11.436   8.137 -0.2894 -0.7024  0.2522
  104MOL0     H14008   2.032  11.410   8.155 -0.6742  2.0466 -1.8558
  104MOL0     H14009   2.126  11.502   8.270 -0.2988  1.5720 -0.0444
  104MOL0     H14010   1.998  11.610   8.066 -0.5021 -1.4076  2.0274
  104MOL0     H14011   2.151  11.582   7.985  1.5908 -0.0508  0.9697
  104MOL0     H14012   2.098  11.809   8.103 -0.0194  1.1264 -0.3382
  104MOL0     H14013   2.104  11.716   8.254  0.5547 -1.9851  0.0348
  104MOL0     H14014   2.339  11.747   8.049  2.9137  3.1024  0.5600
  104MOL0     H14015   2.336  11.661   8.206 -3.8052 -1.6952 -1.4505
  104MOL0     H14016   2.277  11.960   8.212 -0.5163 -0.3645  1.0927
  104MOL0     H14017   2.379  11.867   8.324  0.8770  1.2153  0.1808
  104MOL0     H14018   2.550  11.865   8.144 -0.6588 -0.9443  2.8023
  104MOL0     H14019   2.532  12.015   8.232 -0.3713  0.0726 -0.7119
  104MOL0     H14020   2.415  11.997   7.956 -0.9749  0.7242  0.0301
  104MOL0     H14021   2.576  12.045   7.997  0.7657  0.4463  2.2820
  104MOL0     H14022   2.256  11.238   7.768  0.9413 -1.8407 -2.6405
  104MOL0     H14023   2.450  11.121   7.668 -1.3541  0.4953  0.5148
  104MOL0     H14024   2.764  10.874   7.607  0.4589 -1.6549 -1.0109
  104MOL0     H14025   2.922  10.736   7.519 -2.9170  1.3174  0.1655
  104MOL0     H14026   4.893  10.942   6.924  0.4051  1.1066 -1.1036
  104MOL0     H14027   5.140  10.898   6.997  0.3352  0.3817  0.5164
  104MOL0     H14028   5.555  11.147   7.196  0.6016 -0.3549  1.8309
  104MOL0     H14029   5.787  11.087   7.248 -0.1599 -0.1799 -1.1209
  104MOL0     H14030   5.871  10.687   7.429 -1.8288  2.2840 -0.8103
  104MOL0     H14031   5.866  10.665   7.250  1.4729 -0.6408 -0.6090
  104MOL0     H14032   6.091  10.619   7.391  0.5673  1.3238  1.3032
  104MOL0     H14033   6.099  10.791   7.416  2.0472 -0.2251 -1.1526
  104MOL0     H14034   6.094  10.798   7.142 -0.3052 -0.1772  0.8979
  104MOL0     H14035   6.132  10.630   7.150 -0.6728  0.4255 -0.0668
  104MOL0     H14036   6.297  10.852   7.275 -1.1709 -0.1178  0.3086
  104MOL0     H14037   6.331  10.768   7.120  1.0024  1.6708  0.6459
  104MOL0     H14038   6.480  10.495   7.403  0.1583  0.1594 -0.4984
  104MOL0     H14039   5.673  10.681   7.310  0.7942 -0.0735  1.3460
  104MOL0     H14040   5.436  10.744   7.241 -1.9922  2.5109  1.1149
  105MOL0     O14041   9.315   1.464   9.175  0.5408 -0.2881  0.3429
  105MOL0     C14042   9.315   1.505   9.058  0.7945  0.1605 -0.2440
  105MOL0     O14043   9.204   1.546   8.987 -0.1177 -0.2558  0.2911
  105MOL0     C14044   9.075   1.537   9.022 -1.1093  0.4059 -0.4093
  105MOL0     C14045   8.995   1.594   8.929 -0.1454 -0.4294  0.5555
  105MOL0     C14046   8.855   1.602   8.946  0.7797  1.0798 -0.4663
  105MOL0     C14047   8.799   1.547   9.066 -0.2776  1.7267  0.2045
  105MOL0     O14048   8.666   1.556   9.101  0.0455  0.3174 -0.1292
  105MOL0     C14049   8.577   1.642   9.032  0.4770 -0.7024  0.0377
  105MOL0     C14050   8.470   1.699   9.121  0.4860 -0.1219 -0.1459
  105MOL0     C14051   8.362   1.782   9.048  0.7630 -0.5374 -0.1724
  105MOL0     C14052   8.267   1.698   8.954  0.7648 -0.1965  0.3406
  105MOL0     C14053   8.141   1.776   8.923 -0.1083  0.9225  0.6431
  105MOL0     C14054   8.040   1.791   9.036  0.7484  0.2718  0.1890
  105MOL0     C14055   7.925   1.881   8.994  0.9773  0.4284  0.3029
  105MOL0     C14056   7.837   1.818   8.888  0.3631 -0.0859  0.2018
  105MOL0     N14057   7.704   1.867   8.894  0.6332 -0.7002 -0.2749
  105MOL0     C14058   7.611   1.831   8.985  0.1719 -0.0459 -0.2734
  105MOL0     C14059   7.497   1.895   8.943  0.8460  0.3329  0.7971
  105MOL0     C14060   7.374   1.909   9.026  0.3524 -0.3863 -0.3126
  105MOL0     C14061   7.247   1.890   8.944 -0.4740  0.8258  0.0417
  105MOL0     C14062   7.130   1.876   9.030  0.9015  0.5345 -0.5976
  105MOL0     C14063   6.993   1.870   8.947 -0.5547  1.0108  0.5986
  105MOL0     O14064   6.875   1.883   9.034 -0.2361  0.4185  0.1553
  105MOL0     C14065   6.759   1.843   8.968  0.2255 -0.6077  0.6748
  105MOL0     C14066   6.644   1.868   9.026  0.2174  0.6564  0.3577
  105MOL0     C14067   6.515   1.853   8.968  0.3018 -0.0662  0.1512
  105MOL0     C14068   6.410   1.899   9.065  0.8806  0.4297 -0.2536
  105MOL0     C14069   6.501   1.799   8.839  0.6580 -0.0989  0.3111
  105MOL0     C14070   6.374   1.785   8.760 -0.2440 -1.1555  0.8343
  105MOL0     O14071   6.256   1.830   8.812  0.2919 -0.1508 -0.6812
  105MOL0     C14072   6.140   1.804   8.743  0.4467  0.3349  0.7970
  105MOL0     C14073   6.108   1.859   8.618 -0.5708  0.5511  0.3422
  105MOL0     C14074   5.994   1.818   8.544 -0.8035 -0.7310  0.2501
  105MOL0     C14075   5.899   1.732   8.601  0.0790 -1.2654 -0.2112
  105MOL0     O14076   5.779   1.707   8.527  0.1681  0.1124 -0.3844
  105MOL0     C14077   5.684   1.608   8.572  0.4192  0.5381 -0.5657
  105MOL0     C14078   5.600   1.551   8.464 -0.0262 -0.3893  1.0899
  105MOL0     C14079   5.470   1.473   8.480  0.1632 -0.1696 -0.1366
  105MOL0     C14080   5.345   1.557   8.502  0.1660 -0.2074  0.8101
  105MOL0     C14081   5.222   1.478   8.533 -0.3474 -0.5871 -0.0667
  105MOL0     C14082   5.216   1.338   8.470 -0.4318 -0.6122  0.7565
  105MOL0     C14083   5.081   1.277   8.493 -0.3311  0.3072 -0.5059
  105MOL0     C14084   5.046   1.225   8.629  0.2528 -0.0730  0.2955
  105MOL0    Cl14085   4.944   1.341   8.720  0.0801  0.3002 -0.2033
  105MOL0     C14086   5.923   1.687   8.730 -0.3295  0.7590  0.3601
  105MOL0     C14087   6.038   1.724   8.798 -0.9832  0.2903  0.1772
  105MOL0     O14088   6.401   1.760   8.640  0.5505  0.3321  0.6771
  105MOL0     C14089   6.623   1.767   8.783 -1.2276  0.0347  0.6750
  105MOL0     C14090   6.748   1.790   8.839  0.7708  0.4683  0.4432
  105MOL0     N14091   7.529   1.957   8.824  0.5041 -0.2753  0.1535
  105MOL0     N14092   7.651   1.945   8.804 -0.7104 -0.2661 -0.1775
  105MOL0     C14093   8.885   1.486   9.159 -0.8837  0.3164 -0.6547
  105MOL0     C14094   9.024   1.476   9.135  0.0406  0.4237  0.4236
  105MOL0     C14095   9.448   1.488   8.981  0.9614  0.5917 -0.1748
  105MOL0     C14096   9.449   1.518   8.850 -0.6509  0.4052 -0.4453
  105MOL0     C14097   9.566   1.507   8.770  0.0522 -0.2226  0.4270
  105MOL0     C14098   9.692   1.482   8.834  0.2817 -0.4210 -0.0592
  105MOL0     O14099   9.805   1.480   8.754  0.7373  1.0350  0.0001
  105MOL0     C14100   9.911   1.398   8.789 -0.3390  0.7358  0.1324
  105MOL0     C14101  10.033   1.428   8.695  0.1815 -0.3056  0.0860
  105MOL0     C14102  10.148   1.340   8.742 -0.9711  0.3395 -0.5343
  105MOL0     C14103  10.280   1.354   8.672 -0.1381  0.7393 -0.2060
  105MOL0     C14104  10.344   1.481   8.700 -0.8325  0.3454 -0.8226
  105MOL0     C14105  10.399   1.580   8.736 -0.1830 -0.1845  0.5382
  105MOL0     C14106   9.691   1.470   8.975  0.0692 -0.5016 -0.3430
  105MOL0     C14107   9.570   1.461   9.053  0.3004  0.0743  0.3015
  105MOL0     H14108   9.046   1.630   8.840 -1.9348 -0.9354 -0.7189
  105MOL0     H14109   8.794   1.657   8.875 -1.2180 -1.0798 -0.5499
  105MOL0     H14110   8.633   1.726   8.990 -1.1370  0.7947  0.7924
  105MOL0     H14111   8.524   1.602   8.946 -0.6248  1.7312 -0.4936
  105MOL0     H14112   8.423   1.611   9.166  0.8335 -0.1402  0.1857
  105MOL0     H14113   8.510   1.758   9.204  1.2143  0.8592 -1.1576
  105MOL0     H14114   8.303   1.825   9.131  1.8993 -1.9642  1.4451
  105MOL0     H14115   8.417   1.857   8.990  0.1527 -1.9199 -2.6296
  105MOL0     H14116   8.316   1.678   8.858 -0.6838  1.9966 -0.9671
  105MOL0     H14117   8.241   1.611   9.015  1.4049  0.4941  1.6381
  105MOL0     H14118   8.163   1.871   8.874  0.0548  1.0259  0.9171
  105MOL0     H14119   8.089   1.721   8.844  0.8226 -2.2691  2.0758
  105MOL0     H14120   8.000   1.694   9.067  0.9131 -1.4336 -4.2427
  105MOL0     H14121   8.070   1.845   9.127 -0.6410  0.3206  0.6483
  105MOL0     H14122   7.865   1.888   9.085 -0.2471 -3.9065  0.0176
  105MOL0     H14123   7.959   1.983   8.970  1.6389  0.2403  0.4176
  105MOL0     H14124   7.830   1.711   8.911 -3.1541  0.3413  1.8566
  105MOL0     H14125   7.887   1.832   8.792  2.1266 -0.9279  0.9584
  105MOL0     H14126   7.622   1.777   9.079  3.1196 -1.6231 -1.4001
  105MOL0     H14127   7.380   1.837   9.108  2.5395  0.2108  0.1140
  105MOL0     H14128   7.379   2.014   9.056  3.9658 -0.1445 -1.3442
  105MOL0     H14129   7.264   1.794   8.895  0.3084  0.6847  0.5611
  105MOL0     H14130   7.238   1.968   8.868 -0.3958  0.4414 -0.3676
  105MOL0     H14131   7.125   1.944   9.115 -1.8557 -3.0677  2.4651
  105MOL0     H14132   7.119   1.782   9.084 -1.8165  0.5872 -0.9139
  105MOL0     H14133   6.987   1.772   8.897  3.4888  0.6095  0.5776
  105MOL0     H14134   6.985   1.942   8.865 -3.0429 -1.1884 -1.2779
  105MOL0     H14135   6.658   1.913   9.124 -2.6167  1.5375  0.4347
  105MOL0     H14136   6.310   1.858   9.049 -0.0026  2.2253  0.5044
  105MOL0     H14137   6.437   1.881   9.170 -0.7976 -0.5648  0.0432
  105MOL0     H14138   6.401   2.006   9.049  0.9614  0.3427 -0.9013
  105MOL0     H14139   6.169   1.942   8.584 -4.0391  3.3230  0.2933
  105MOL0     H14140   5.978   1.862   8.447  0.0173  0.8995  0.8080
  105MOL0     H14141   5.733   1.524   8.623 -0.6711  0.1156 -0.1973
  105MOL0     H14142   5.623   1.660   8.646  0.7989  2.4619 -1.5213
  105MOL0     H14143   5.584   1.625   8.385 -2.3957 -1.5760  0.3566
  105MOL0     H14144   5.675   1.481   8.426  1.1434  0.8179  1.0852
  105MOL0     H14145   5.485   1.404   8.564  2.1051  2.1453  1.5776
  105MOL0     H14146   5.448   1.422   8.387  0.7068 -2.9753  1.1794
  105MOL0     H14147   5.351   1.637   8.576 -0.4210  2.2429 -1.6420
  105MOL0     H14148   5.336   1.613   8.409  0.3517  3.0372  2.5970
  105MOL0     H14149   5.136   1.532   8.494 -0.0661 -1.3155 -1.7657
  105MOL0     H14150   5.218   1.470   8.642 -1.4695 -2.8299 -0.2115
  105MOL0     H14151   5.244   1.329   8.364 -2.4674  1.4914 -0.0357
  105MOL0     H14152   5.291   1.285   8.530  0.6989 -0.8113 -0.7514
  105MOL0     H14153   5.090   1.183   8.437 -0.1912 -1.9949  3.0276
  105MOL0     H14154   5.000   1.339   8.451 -0.2952  0.1370 -0.8331
  105MOL0     H14155   5.137   1.226   8.690  0.6703  1.4567 -0.2944
  105MOL0     H14156   5.001   1.126   8.622 -0.9581  0.4982 -0.3730
  105MOL0     H14157   5.850   1.617   8.770 -1.2824  1.9463  0.7322
  105MOL0     H14158   6.052   1.670   8.891 -1.2639 -0.8189 -0.4069
  105MOL0     H14159   6.621   1.717   8.687  2.7035  2.8379 -1.1276
  105MOL0     H14160   6.826   1.761   8.769  0.4787  1.5702 -0.3552
  105MOL0     H14161   8.855   1.456   9.259  1.0368  0.2961 -0.0351
  105MOL0     H14162   9.093   1.430   9.206  0.2454  1.8717  1.1986
  105MOL0     H14163   9.363   1.543   8.788 -0.5277 -0.5586 -1.0210
  105MOL0     H14164   9.570   1.531   8.664 -1.5938 -2.8423 -0.3203
  105MOL0     H14165   9.951   1.405   8.891 -0.8825 -2.1478  0.6210
  105MOL0     H14166   9.884   1.293   8.779  2.3854 -0.1997  1.5259
  105MOL0     H14167  10.053   1.535   8.698  1.6652 -0.5501 -0.3614
  105MOL0     H14168  10.014   1.391   8.594  3.3703 -1.4023 -0.2107
  105MOL0     H14169  10.119   1.235   8.733  1.6769 -0.4483 -0.5657
  105MOL0     H14170  10.161   1.359   8.849  0.3182  2.2365 -0.9826
  105MOL0     H14171  10.265   1.343   8.564  1.3002 -0.3751 -0.3179
  105MOL0     H14172  10.350   1.279   8.708 -1.8651 -1.0272 -0.3463
  105MOL0     H14173  10.455   1.668   8.760 -0.8272 -0.0089  1.4256
  105MOL0     H14174   9.793   1.452   9.009 -0.4980  1.2309  2.5650
  105MOL0     H14175   9.579   1.452   9.160  0.0759  1.3412  0.4531
  106MOL0     O14176   5.455   7.835   1.467 -0.1219 -0.3101  0.0733
  106MOL0     C14177   5.494   7.941   1.411  0.6153  0.0490  1.0505
  106MOL0     O14178   5.414   8.035   1.356  0.6099  0.0659 -0.0323
  106MOL0     C14179   5.274   8.018   1.345  0.2546 -0.2029  0.2119
  106MOL0     C14180   5.209   8.058   1.231 -0.3721 -0.6637 -0.0473
  106MOL0     C14181   5.066   8.039   1.219 -0.0061  0.1248  0.5830
  106MOL0     C14182   4.985   7.997   1.327 -1.0398  0.5112  0.1065
  106MOL0     O14183   4.846   7.977   1.327 -0.2517 -0.6774  0.5790
  106MOL0     C14184   4.754   8.023   1.234 -0.1464 -0.6732 -0.1008
  106MOL0     C14185   4.647   7.920   1.222  0.7801  0.2087 -0.7911
  106MOL0     C14186   4.700   7.779   1.187  0.2680  0.9511 -0.1124
  106MOL0     C14187   4.784   7.777   1.051  1.2567 -0.7237  0.2080
  106MOL0     C14188   4.714   7.845   0.929 -0.1237 -0.1239 -0.5621
  106MOL0     C14189   4.805   7.851   0.809 -0.2690 -0.2097 -0.0448
  106MOL0     C14190   4.735   7.908   0.691  0.3881  0.2681 -0.0982
  106MOL0     C14191   4.823   7.887   0.555 -0.5124  0.5916  0.0481
  106MOL0     N14192   4.770   7.976   0.454  0.8526  0.0954  0.6718
  106MOL0     C14193   4.649   7.941   0.393 -0.1887 -0.1731  0.1667
  106MOL0     C14194   4.635   8.037   0.296 -0.2318  0.3059  0.1617
  106MOL0     C14195   4.521   8.052   0.199  0.1114 -0.1124 -0.6772
  106MOL0     C14196   4.399   7.964   0.245 -0.4176 -0.4271 -0.3877
  106MOL0     C14197   4.276   7.981   0.153  0.8740  0.5554  0.4159
  106MOL0     C14198   4.160   7.878   0.161  0.2175  0.4913  0.1906
  106MOL0     O14199   4.125   7.847   0.296 -0.0864  0.1957  0.4543
  106MOL0     C14200   4.007   7.906   0.335  0.3954  0.9658 -0.0522
  106MOL0     C14201   4.004   7.996   0.435  0.0332 -0.9178  0.3200
  106MOL0     C14202   3.884   8.062   0.472 -0.0775 -0.2659  0.0123
  106MOL0     C14203   3.897   8.156   0.588 -0.3446 -0.3331 -0.1176
  106MOL0     C14204   3.763   8.029   0.415  0.3799 -0.5737  0.0456
  106MOL0     C14205   3.629   8.072   0.460 -0.0858  0.0265  0.1503
  106MOL0     O14206   3.522   8.015   0.390 -0.9158  0.0115  0.8407
  106MOL0     C14207   3.394   8.048   0.421  0.2506  0.1182 -0.3190
  106MOL0     C14208   3.301   7.941   0.406 -0.6281 -0.4931 -0.0872
  106MOL0     C14209   3.167   7.966   0.449 -0.2224  0.3281 -0.6751
  106MOL0     C14210   3.128   8.098   0.490  0.3970  0.0409  0.7003
  106MOL0     O14211   2.990   8.117   0.509 -0.7656 -0.6530 -0.4218
  106MOL0     C14212   2.959   8.226   0.604  0.2371 -0.5367 -0.0826
  106MOL0     C14213   2.807   8.223   0.602  0.2469 -0.1785 -0.6155
  106MOL0     C14214   2.746   8.121   0.708 -0.3654 -0.9591 -0.5794
  106MOL0     C14215   2.626   8.059   0.647 -0.1169  0.6792  0.6196
  106MOL0     C14216   2.570   7.938   0.713  0.8999  0.0201 -0.1522
  106MOL0     C14217   2.433   7.897   0.669  0.2569  0.4760 -0.5911
  106MOL0     C14218   2.322   7.996   0.697 -0.2915  0.7943  0.3591
  106MOL0     C14219   2.184   7.945   0.684  0.4178  0.0737  0.2639
  106MOL0    Cl14220   2.157   7.888   0.518 -0.1050 -0.3182 -0.0545
  106MOL0     C14221   3.222   8.200   0.505 -0.1279  0.2633 -0.6942
  106MOL0     C14222   3.356   8.177   0.468  0.6621 -0.0347  0.0513
  106MOL0     O14223   3.618   8.145   0.561  0.3711 -0.5352 -0.8555
  106MOL0     C14224   3.767   7.928   0.320 -0.3025 -0.5216  0.0371
  106MOL0     C14225   3.889   7.868   0.276  0.8419  0.8861 -0.1490
  106MOL0     N14226   4.747   8.112   0.288  0.2900  0.0341  0.1025
  106MOL0     N14227   4.828   8.076   0.382  0.7236  0.0310 -0.3714
  106MOL0     C14228   5.058   7.975   1.455 -0.2728 -0.0111  0.0660
  106MOL0     C14229   5.197   7.981   1.457  0.1449 -0.2153 -0.4784
  106MOL0     C14230   5.646   7.965   1.384  0.5420  0.5270 -0.6811
  106MOL0     C14231   5.731   7.853   1.361 -0.2456 -0.2968  0.9141
  106MOL0     C14232   5.865   7.883   1.339 -0.8464 -1.0078 -0.1183
  106MOL0     C14233   5.917   8.017   1.371 -0.5480  0.7113  0.5044
  106MOL0     O14234   6.050   8.021   1.368  0.1210  0.2883 -0.8747
  106MOL0     C14235   6.111   8.148   1.360  0.5275  0.2402 -0.2101
  106MOL0     C14236   6.088   8.210   1.218 -0.3516  0.4371  0.0585
  106MOL0     C14237   6.098   8.121   1.094  0.4031  0.4638  0.6223
  106MOL0     C14238   6.091   8.186   0.958 -0.0185 -0.2876 -0.4294
  106MOL0     C14239   5.958   8.224   0.926 -0.5000  0.5478 -0.0304
  106MOL0     C14240   5.847   8.246   0.885  0.3460  0.5511  1.0639
  106MOL0     C14241   5.832   8.120   1.395  0.9050  0.5568  0.4575
  106MOL0     C14242   5.693   8.091   1.383  0.0318  0.0217 -0.2905
  106MOL0     H14243   5.271   8.104   1.155  0.4079  0.7702  1.3929
  106MOL0     H14244   5.018   8.061   1.124 -0.4875 -1.4862  0.4218
  106MOL0     H14245   4.706   8.117   1.261  0.3394 -0.0540 -1.3252
  106MOL0     H14246   4.796   8.035   1.134 -0.8170  0.6409 -0.2360
  106MOL0     H14247   4.593   7.921   1.317  1.7816 -0.6013 -0.1981
  106MOL0     H14248   4.586   7.953   1.137  0.4262  0.1608 -0.5548
  106MOL0     H14249   4.759   7.751   1.275  1.4755 -0.1515 -1.2249
  106MOL0     H14250   4.616   7.712   1.170 -0.6242  1.1409  2.9742
  106MOL0     H14251   4.873   7.838   1.069  0.0948  1.5418 -1.2966
  106MOL0     H14252   4.812   7.675   1.022 -1.8360 -1.5995 -0.0724
  106MOL0     H14253   4.623   7.795   0.897 -1.4141  3.1806 -2.5633
  106MOL0     H14254   4.676   7.944   0.955 -2.1877 -1.2502  1.0139
  106MOL0     H14255   4.890   7.915   0.836 -2.1828  2.1452  0.8775
  106MOL0     H14256   4.846   7.752   0.788 -1.9145 -0.5380 -1.9898
  106MOL0     H14257   4.640   7.859   0.666  0.8149  0.8733 -3.4772
  106MOL0     H14258   4.709   8.013   0.705 -1.5053 -0.1432 -0.2087
  106MOL0     H14259   4.812   7.783   0.523  0.1754 -0.0189  1.6768
  106MOL0     H14260   4.928   7.915   0.567 -0.4048  0.2176 -0.0142
  106MOL0     H14261   4.578   7.867   0.429  2.7803 -2.9929  0.7001
  106MOL0     H14262   4.493   8.157   0.184  0.0638 -0.3564 -2.5328
  106MOL0     H14263   4.562   8.015   0.105  0.7514  1.4709 -1.0617
  106MOL0     H14264   4.370   7.994   0.346 -2.0438  1.5706 -1.3834
  106MOL0     H14265   4.426   7.858   0.239  2.4141  0.1813  0.2503
  106MOL0     H14266   4.309   7.988   0.049  2.7331 -0.4454  0.8992
  106MOL0     H14267   4.227   8.072   0.187 -1.0489 -1.1495  2.5019
  106MOL0     H14268   4.189   7.778   0.128  0.0467  0.4999  0.0116
  106MOL0     H14269   4.081   7.916   0.095  0.6276 -0.6023 -0.9964
  106MOL0     H14270   4.098   8.022   0.483 -0.0980  2.2888 -0.8934
  106MOL0     H14271   3.832   8.119   0.668 -1.4826  0.2463 -0.7455
  106MOL0     H14272   3.999   8.182   0.616  0.0359 -1.3487 -0.5017
  106MOL0     H14273   3.852   8.252   0.561  1.8850 -0.0653 -3.4111
  106MOL0     H14274   3.328   7.841   0.374  1.1322 -0.6248  1.6469
  106MOL0     H14275   3.088   7.892   0.450  1.3058 -1.5115  3.0940
  106MOL0     H14276   2.993   8.195   0.703 -0.7458 -1.0690  0.1003
  106MOL0     H14277   3.004   8.320   0.571  1.3386 -1.1630 -0.4145
  106MOL0     H14278   2.763   8.322   0.617 -0.4185 -0.0241 -3.0408
  106MOL0     H14279   2.776   8.199   0.499  1.3760 -1.5012 -0.6666
  106MOL0     H14280   2.725   8.177   0.800 -1.0350  0.0341 -1.3138
  106MOL0     H14281   2.810   8.043   0.749 -0.4881  0.1709  1.9387
  106MOL0     H14282   2.556   8.142   0.641 -0.0506  0.6470 -1.4852
  106MOL0     H14283   2.650   8.044   0.541 -0.8439  1.6258  0.3111
  106MOL0     H14284   2.586   7.955   0.820  1.6669 -1.4059 -0.0008
  106MOL0     H14285   2.639   7.854   0.694 -1.9408 -2.4402 -0.3169
  106MOL0     H14286   2.437   7.876   0.562  2.8521 -1.0044 -0.2882
  106MOL0     H14287   2.416   7.801   0.719  1.5326  1.0925  1.1210
  106MOL0     H14288   2.333   8.080   0.628  0.0830  1.9175  1.7438
  106MOL0     H14289   2.337   8.049   0.791 -1.2051  2.2483 -0.2727
  106MOL0     H14290   2.121   8.026   0.722  0.1386 -0.8670  1.8845
  106MOL0     H14291   2.177   7.866   0.760  1.5265 -0.7380 -0.4426
  106MOL0     H14292   3.199   8.305   0.524 -1.5441 -0.1553  0.0539
  106MOL0     H14293   3.426   8.260   0.476  0.8198 -0.2038  0.4566
  106MOL0     H14294   3.676   7.893   0.271 -2.1248  0.7503  2.2797
  106MOL0     H14295   3.884   7.792   0.199 -0.5313 -0.3524  1.0748
  106MOL0     H14296   4.991   7.959   1.538  0.4210  2.1729  1.1184
  106MOL0     H14297   5.248   7.969   1.552  0.6755 -0.9487 -0.8431
  106MOL0     H14298   5.709   7.747   1.355  0.9765 -0.6977  2.7299
  106MOL0     H14299   5.932   7.800   1.321 -1.0558 -0.9421 -1.2636
  106MOL0     H14300   6.064   8.207   1.439 -2.0086  1.3382 -2.3685
  106MOL0     H14301   6.219   8.134   1.367  0.6260  0.0539 -1.7981
  106MOL0     H14302   6.160   8.292   1.205 -0.5634  1.1090  2.6606
  106MOL0     H14303   5.989   8.255   1.215 -0.3517  0.4567  0.4173
  106MOL0     H14304   6.017   8.049   1.105  0.2356 -0.4579 -4.2503
  106MOL0     H14305   6.190   8.065   1.114 -0.6782 -0.5931  3.0156
  106MOL0     H14306   6.122   8.118   0.878  1.0594  1.4766 -1.5824
  106MOL0     H14307   6.152   8.275   0.942  1.3169 -0.8875  0.9645
  106MOL0     H14308   5.750   8.255   0.840 -1.3113 -0.0055  4.1951
  106MOL0     H14309   5.858   8.220   1.428 -1.1420  1.8595 -1.4935
  106MOL0     H14310   5.627   8.171   1.414 -1.3620 -0.7322 -1.1899
  107MOL0     O14311   8.616   7.437   8.932 -0.3325  0.1946  0.4530
  107MOL0     C14312   8.560   7.515   9.014 -0.5051  0.0713  0.7853
  107MOL0     O14313   8.424   7.559   9.007  0.8116  0.0522  0.1708
  107MOL0     C14314   8.350   7.533   8.892  0.9874 -0.6823  0.5086
  107MOL0     C14315   8.215   7.501   8.902  0.2646  0.5041 -0.1968
  107MOL0     C14316   8.132   7.499   8.795 -0.3265  0.0730  0.1313
  107MOL0     C14317   8.183   7.530   8.668 -0.1204  0.3379  0.2614
  107MOL0     O14318   8.107   7.514   8.555 -0.3113 -0.1910  0.3644
  107MOL0     C14319   7.970   7.467   8.569 -0.4816  0.0802 -0.0065
  107MOL0     C14320   7.917   7.455   8.426 -0.7075  0.0634 -0.2705
  107MOL0     C14321   7.785   7.374   8.416 -0.6728 -0.8574 -0.2779
  107MOL0     C14322   7.721   7.415   8.281  0.2076 -0.1576 -0.0009
  107MOL0     C14323   7.579   7.354   8.277  0.9901  0.1485  0.0192
  107MOL0     C14324   7.519   7.351   8.133  0.5756  0.7802  0.4548
  107MOL0     C14325   7.397   7.262   8.115 -0.9591 -0.5809 -0.6391
  107MOL0     C14326   7.350   7.264   7.968 -0.4072  0.5425  0.2425
  107MOL0     N14327   7.203   7.239   7.965  0.2013 -0.9797 -0.3626
  107MOL0     C14328   7.139   7.137   8.033  0.0622  0.2621 -0.1187
  107MOL0     C14329   7.012   7.165   8.016  0.3624 -0.5308 -0.8768
  107MOL0     C14330   6.895   7.089   8.070 -0.1534  0.3185 -0.1439
  107MOL0     C14331   6.897   7.074   8.226 -0.1164  0.1416 -0.2979
  107MOL0     C14332   6.779   7.000   8.290 -0.8883  0.0137  0.0581
  107MOL0     C14333   6.646   6.987   8.211  0.4527 -0.5068  1.1238
  107MOL0     O14334   6.591   7.110   8.175 -0.7783 -0.1417 -0.6501
  107MOL0     C14335   6.469   7.105   8.117 -1.1516 -0.3783  0.6376
  107MOL0     C14336   6.401   7.225   8.114  0.0144 -1.0292  0.3546
  107MOL0     C14337   6.271   7.249   8.061 -0.6925  0.4772  0.4369
  107MOL0     C14338   6.209   7.385   8.081  0.0504  0.6400  0.2530
  107MOL0     C14339   6.209   7.139   7.990 -0.2024  0.1230  0.2383
  107MOL0     C14340   6.078   7.144   7.912 -0.1943 -0.2623 -0.2001
  107MOL0     O14341   6.044   7.031   7.839 -0.3134 -0.2073  0.2092
  107MOL0     C14342   5.913   7.014   7.802 -0.0563 -0.4915  0.6770
  107MOL0     C14343   5.809   6.977   7.896 -0.3853  0.0199  0.4163
  107MOL0     C14344   5.674   6.956   7.859 -0.1684 -0.3012 -0.3325
  107MOL0     C14345   5.640   6.988   7.724  0.1065  0.2345 -0.9232
  107MOL0     O14346   5.508   6.975   7.683  0.2046 -0.2252  0.3664
  107MOL0     C14347   5.440   6.859   7.725  0.7107  0.7136  0.3818
  107MOL0     C14348   5.313   6.831   7.639  0.5773 -0.3108  0.5619
  107MOL0     C14349   5.235   6.707   7.671 -0.1358  0.6153  1.1551
  107MOL0     C14350   5.280   6.584   7.581 -0.2755  0.2568 -0.1265
  107MOL0     C14351   5.192   6.464   7.627  0.0818  0.0495 -0.4871
  107MOL0     C14352   5.259   6.338   7.586  0.7515  0.2363 -0.1375
  107MOL0     C14353   5.258   6.299   7.438 -0.1689  0.1988  0.8731
  107MOL0     C14354   5.115   6.283   7.389  0.2987  0.1174  0.2553
  107MOL0    Cl14355   5.044   6.135   7.450  0.2591  0.1971  0.4639
  107MOL0     C14356   5.745   7.032   7.638  0.0494  0.3604  0.5329
  107MOL0     C14357   5.876   7.045   7.678  0.2994 -0.9812 -0.7314
  107MOL0     O14358   6.006   7.239   7.935 -0.4969 -0.6083 -0.4119
  107MOL0     C14359   6.276   7.017   7.995 -0.3918 -0.4359  0.7674
  107MOL0     C14360   6.404   6.998   8.056 -0.3944  0.7001  0.7972
  107MOL0     N14361   6.996   7.274   7.934  0.3293  0.4020 -0.0425
  107MOL0     N14362   7.111   7.325   7.910 -0.5740  0.2019  0.2638
  107MOL0     C14363   8.315   7.573   8.650  0.0211 -0.7921  0.0507
  107MOL0     C14364   8.400   7.570   8.765  0.8401 -0.7330  0.3540
  107MOL0     C14365   8.629   7.544   9.141  0.7093 -0.5530 -0.4739
  107MOL0     C14366   8.769   7.532   9.155  0.8821 -0.2667 -0.4626
  107MOL0     C14367   8.838   7.562   9.274  0.4290 -0.5502 -0.3705
  107MOL0     C14368   8.760   7.605   9.385 -0.4564  0.0648 -0.1982
  107MOL0     O14369   8.841   7.643   9.491  0.0575 -0.1780  0.0928
  107MOL0     C14370   8.793   7.691   9.615  0.2496 -0.8348 -1.2720
  107MOL0     C14371   8.889   7.645   9.720 -0.4615 -0.6033 -0.7802
  107MOL0     C14372   9.019   7.729   9.709 -0.0302  0.1885 -0.6355
  107MOL0     C14373   9.127   7.630   9.663 -0.0960 -0.7527 -1.6308
  107MOL0     C14374   9.251   7.695   9.654 -1.0250 -0.1892 -0.5166
  107MOL0     C14375   9.367   7.732   9.662  0.1864 -0.1968 -0.1649
  107MOL0     C14376   8.621   7.621   9.372 -0.0156 -0.0016  0.0866
  107MOL0     C14377   8.559   7.599   9.247  0.3095 -1.1487 -0.2283
  107MOL0     H14378   8.167   7.476   8.995 -2.5564  0.1870 -1.6473
  107MOL0     H14379   8.029   7.467   8.807 -0.5463  0.3965 -0.8239
  107MOL0     H14380   7.959   7.380   8.634  0.2889  0.9190  1.2830
  107MOL0     H14381   7.913   7.545   8.621 -0.6125  0.4406 -0.6746
  107MOL0     H14382   7.900   7.558   8.394  1.4546  0.8519  0.9293
  107MOL0     H14383   7.993   7.421   8.356  0.0945  1.4222 -0.0961
  107MOL0     H14384   7.807   7.268   8.408  0.7275 -0.4924 -1.6502
  107MOL0     H14385   7.716   7.395   8.499  0.4408  0.6352  0.3309
  107MOL0     H14386   7.718   7.523   8.264 -2.0413  0.0332  1.2099
  107MOL0     H14387   7.774   7.380   8.191 -1.2192 -1.1204 -0.5066
  107MOL0     H14388   7.580   7.251   8.315 -0.3228  0.2466  0.3594
  107MOL0     H14389   7.520   7.415   8.346 -0.6910 -2.2310  0.8120
  107MOL0     H14390   7.495   7.449   8.091 -4.3169  0.0086  0.8291
  107MOL0     H14391   7.587   7.299   8.065 -1.8916 -1.9482 -0.1007
  107MOL0     H14392   7.423   7.161   8.147 -1.5325 -0.1024  1.4771
  107MOL0     H14393   7.314   7.301   8.173  0.6051  1.0199  0.6566
  107MOL0     H14394   7.393   7.186   7.905 -1.9892 -0.3321  0.2019
  107MOL0     H14395   7.378   7.358   7.918 -2.3489  1.1658  0.2240
  107MOL0     H14396   7.179   7.061   8.099 -2.6148 -0.2910  0.9777
  107MOL0     H14397   6.804   7.138   8.035 -0.1782  1.8262  1.8270
  107MOL0     H14398   6.901   6.988   8.029  2.4025  0.2798  0.1398
  107MOL0     H14399   6.890   7.178   8.259 -1.7246  0.4618 -1.5184
  107MOL0     H14400   6.992   7.037   8.264 -1.3083  0.1684  3.0101
  107MOL0     H14401   6.762   7.057   8.382 -1.2252 -0.0915  0.0592
  107MOL0     H14402   6.807   6.897   8.317  2.7065  1.4275  2.4831
  107MOL0     H14403   6.576   6.930   8.272 -0.2224 -2.5760 -1.4094
  107MOL0     H14404   6.663   6.937   8.115  1.0698 -0.0507  0.9857
  107MOL0     H14405   6.457   7.307   8.158 -2.3310 -0.5395  2.6056
  107MOL0     H14406   6.271   7.448   8.145 -1.4298 -0.6280  3.1067
  107MOL0     H14407   6.192   7.432   7.984  0.9314  3.9287  1.5657
  107MOL0     H14408   6.110   7.377   8.126 -0.5834 -0.6460 -1.2689
  107MOL0     H14409   5.837   6.976   8.000 -0.0797 -0.0330  0.3329
  107MOL0     H14410   5.602   6.924   7.934  0.9764  2.3354  2.0581
  107MOL0     H14411   5.505   6.772   7.715 -0.8378 -0.3909 -0.8321
  107MOL0     H14412   5.409   6.877   7.828  1.9547  1.9316  0.5685
  107MOL0     H14413   5.236   6.905   7.663 -1.4745 -2.2549  0.3383
  107MOL0     H14414   5.317   6.843   7.530 -0.7304  1.1209  0.6350
  107MOL0     H14415   5.130   6.724   7.645  0.2629  0.2325 -0.8809
  107MOL0     H14416   5.244   6.686   7.778  0.0822  1.3803  1.2929
  107MOL0     H14417   5.275   6.616   7.476  2.7921  1.2159 -0.0900
  107MOL0     H14418   5.385   6.563   7.601  0.1953  1.2081 -1.4114
  107MOL0     H14419   5.094   6.486   7.584  1.5615  2.2287 -3.0892
  107MOL0     H14420   5.176   6.481   7.734  1.6175  1.2219 -0.4095
  107MOL0     H14421   5.360   6.346   7.627 -0.1715 -2.1179  3.0044
  107MOL0     H14422   5.228   6.249   7.642  3.5094 -1.3730 -0.9553
  107MOL0     H14423   5.319   6.210   7.424  2.3533  1.8379  0.7512
  107MOL0     H14424   5.308   6.376   7.380  1.1291 -0.6048  0.8875
  107MOL0     H14425   5.118   6.282   7.280 -2.8014  0.0152  0.0930
  107MOL0     H14426   5.053   6.369   7.417 -0.1623 -0.2937  0.5088
  107MOL0     H14427   5.717   7.050   7.535  3.8094 -1.9245 -1.0875
  107MOL0     H14428   5.951   7.084   7.610 -1.5052  0.3075 -2.1034
  107MOL0     H14429   6.237   6.932   7.940 -0.2810  1.4673 -2.5894
  107MOL0     H14430   6.463   6.906   8.053  0.8669  1.4853  0.7064
  107MOL0     H14431   8.352   7.601   8.552  0.5101 -0.0652  0.4373
  107MOL0     H14432   8.508   7.585   8.760  0.9970 -1.9669 -0.2790
  107MOL0     H14433   8.824   7.492   9.071  0.1889 -4.5681  0.8609
  107MOL0     H14434   8.945   7.548   9.285  0.3984 -1.6913 -1.3299
  107MOL0     H14435   8.796   7.800   9.626 -2.1809 -0.8041 -0.2743
  107MOL0     H14436   8.691   7.662   9.640 -1.3289  3.3394 -2.0472
  107MOL0     H14437   8.895   7.536   9.720 -1.3691 -0.6631 -0.0047
  107MOL0     H14438   8.845   7.670   9.817  0.2305  2.3946 -1.1167
  107MOL0     H14439   9.040   7.774   9.806 -2.5644 -2.0656  1.0977
  107MOL0     H14440   9.012   7.815   9.642  1.5519 -0.8338 -2.1903
  107MOL0     H14441   9.095   7.577   9.573 -1.7479 -2.9608  0.1290
  107MOL0     H14442   9.135   7.553   9.741 -0.3585  0.8478  0.0558
  107MOL0     H14443   9.472   7.748   9.660  0.4630 -1.7397  0.6053
  107MOL0     H14444   8.562   7.660   9.454 -0.0068 -1.3198  0.7454
  107MOL0     H14445   8.451   7.607   9.240  0.4358  1.9354  0.0068
  108MOL0     O14446   1.861   7.151   9.204 -0.1152  0.0785 -0.0608
  108MOL0     C14447   1.936   7.248   9.202 -0.2950  0.0106 -0.1133
  108MOL0     O14448   1.901   7.376   9.166  0.1106 -0.0876 -0.2314
  108MOL0     C14449   1.772   7.406   9.144 -0.4161  0.3398 -0.1590
  108MOL0     C14450   1.769   7.531   9.087  0.5897 -0.5640  0.0656
  108MOL0     C14451   1.654   7.582   9.032  0.3847  0.2605  0.9303
  108MOL0     C14452   1.535   7.514   9.048  0.8320  0.0690 -0.0729
  108MOL0     O14453   1.421   7.546   8.982  0.9939  0.1956 -0.4227
  108MOL0     C14454   1.410   7.501   8.847 -0.3115 -0.0090  0.8557
  108MOL0     C14455   1.314   7.381   8.844 -0.1737  0.8584 -0.2058
  108MOL0     C14456   1.164   7.411   8.877  0.2935  0.2672  0.5329
  108MOL0     C14457   1.071   7.294   8.890 -0.1837 -0.1604 -0.4999
  108MOL0     C14458   0.932   7.335   8.938  0.6059 -0.6006 -0.2731
  108MOL0     C14459   0.855   7.400   8.821  1.0483  0.4678  0.6904
  108MOL0     C14460   0.713   7.423   8.863 -0.3150  0.4235 -0.3910
  108MOL0     C14461   0.622   7.305   8.889  0.7109 -0.9052 -0.2503
  108MOL0     N14462   0.520   7.294   8.777 -0.2457 -0.3287  0.4408
  108MOL0     C14463   0.546   7.257   8.645 -1.2422 -0.4730 -0.3852
  108MOL0     C14464   0.432   7.273   8.573  0.0873 -0.0552  0.6882
  108MOL0     C14465   0.397   7.246   8.433 -0.2669 -0.0957 -0.0787
  108MOL0     C14466   0.526   7.242   8.347 -0.0684 -0.7261 -0.2379
  108MOL0     C14467   0.481   7.195   8.206 -1.0062 -0.0273 -0.1302
  108MOL0     C14468   0.606   7.189   8.110  0.6451  0.5023  0.3489
  108MOL0     O14469   0.556   7.169   7.973  0.7866 -0.6639  0.0627
  108MOL0     C14470   0.637   7.100   7.887  0.4593 -0.5586  0.1255
  108MOL0     C14471   0.776   7.098   7.897  0.6655  0.1356  0.2648
  108MOL0     C14472   0.857   7.025   7.807  0.1706  0.2644  0.1779
  108MOL0     C14473   0.999   7.023   7.843 -0.2056  0.2251  0.4366
  108MOL0     C14474   0.791   6.963   7.698  0.1539  0.0332  0.1161
  108MOL0     C14475   0.865   6.893   7.581  0.4757 -0.2670  0.2252
  108MOL0     O14476   0.788   6.824   7.485  0.4207  0.1625 -0.1286
  108MOL0     C14477   0.854   6.758   7.384 -0.0897  0.1707  1.0555
  108MOL0     C14478   0.958   6.818   7.310 -0.0765  0.2315  0.9393
  108MOL0     C14479   1.015   6.742   7.206  1.0727  0.5069  0.1210
  108MOL0     C14480   0.951   6.625   7.155 -0.0200 -0.4589  0.0623
  108MOL0     O14481   1.006   6.581   7.037  0.2403 -0.4984 -0.2956
  108MOL0     C14482   0.932   6.504   6.946  0.1927  0.0651  0.1804
  108MOL0     C14483   1.007   6.487   6.818 -0.7031  0.1749 -0.8022
  108MOL0     C14484   1.150   6.460   6.844 -0.3443  0.7168 -0.1378
  108MOL0     C14485   1.245   6.573   6.804 -0.4824  0.8962 -0.1058
  108MOL0     C14486   1.387   6.532   6.805 -0.6956  0.3529  0.9601
  108MOL0     C14487   1.448   6.512   6.948 -0.8222  0.3515  0.1550
  108MOL0     C14488   1.594   6.473   6.932  1.0896  1.0339  0.3395
  108MOL0     C14489   1.663   6.449   7.069 -0.2857  0.3310 -0.0190
  108MOL0    Cl14490   1.587   6.297   7.142  0.2215  0.1847  0.5102
  108MOL0     C14491   0.833   6.577   7.217 -0.2563  0.2139 -0.0914
  108MOL0     C14492   0.791   6.641   7.333 -0.2836  0.2735 -0.9784
  108MOL0     O14493   0.984   6.893   7.586  0.3878 -0.1820  0.0645
  108MOL0     C14494   0.658   6.968   7.684  0.6268 -0.0397  0.5658
  108MOL0     C14495   0.579   7.042   7.775  0.6734 -0.2362  0.8676
  108MOL0     N14496   0.338   7.327   8.664  0.3113 -0.4655 -0.2788
  108MOL0     N14497   0.396   7.348   8.781  0.8188 -0.7575  0.8635
  108MOL0     C14498   1.532   7.391   9.120  0.0046  0.0071 -0.1183
  108MOL0     C14499   1.651   7.345   9.180 -0.6227 -0.9755  0.4064
  108MOL0     C14500   2.086   7.224   9.223 -0.7239 -0.0492  0.1233
  108MOL0     C14501   2.144   7.095   9.251 -0.4620 -0.1980  0.6499
  108MOL0     C14502   2.281   7.075   9.239  0.2950 -0.7140  0.3560
  108MOL0     C14503   2.370   7.191   9.217 -0.6514  0.4005 -0.7125
  108MOL0     O14504   2.506   7.164   9.225 -0.6427 -0.7336  0.2986
  108MOL0     C14505   2.590   7.280   9.219  0.5465 -0.2158 -0.7851
  108MOL0     C14506   2.740   7.246   9.223  0.9641 -0.6605 -0.3643
  108MOL0     C14507   2.780   7.228   9.366  0.1313  0.0648 -0.2214
  108MOL0     C14508   2.903   7.141   9.375  0.1758 -0.2756  0.6785
  108MOL0     C14509   2.930   7.110   9.516 -0.4774  0.1610 -0.0645
  108MOL0     C14510   2.928   7.087   9.636 -0.1983  0.2508  0.0935
  108MOL0     C14511   2.311   7.319   9.205  0.1111  0.2676  0.2203
  108MOL0     C14512   2.173   7.331   9.182 -0.6408  0.2270  0.1587
  108MOL0     H14513   1.864   7.578   9.063  0.1837 -0.6764 -1.9100
  108MOL0     H14514   1.643   7.671   8.971 -1.3475 -1.4884 -1.5046
  108MOL0     H14515   1.379   7.582   8.781 -1.0338 -1.3217 -0.5042
  108MOL0     H14516   1.503   7.465   8.801 -2.7515 -1.3298 -3.6878
  108MOL0     H14517   1.314   7.345   8.741  0.1525  1.4839 -0.4242
  108MOL0     H14518   1.354   7.305   8.913  1.1752  0.7489 -1.0801
  108MOL0     H14519   1.175   7.456   8.976  2.0953 -0.0060  0.4919
  108MOL0     H14520   1.121   7.484   8.807 -2.7101 -3.5955 -2.0557
  108MOL0     H14521   1.053   7.233   8.801  2.8254 -1.7251 -0.1486
  108MOL0     H14522   1.116   7.221   8.958  3.2419  2.0878 -0.0849
  108MOL0     H14523   0.872   7.248   8.968 -0.0524 -0.9891 -2.5718
  108MOL0     H14524   0.938   7.402   9.024  3.0760 -0.0426 -0.8149
  108MOL0     H14525   0.895   7.497   8.789 -0.4210  1.1702  0.9142
  108MOL0     H14526   0.859   7.335   8.733  0.7058 -0.6856  1.5045
  108MOL0     H14527   0.728   7.483   8.954  2.0615  0.0298 -0.4727
  108MOL0     H14528   0.658   7.490   8.796  1.7738  2.5682 -0.0792
  108MOL0     H14529   0.567   7.319   8.983  2.0359  2.3158  0.1959
  108MOL0     H14530   0.672   7.211   8.910  1.3527 -0.4695  0.2211
  108MOL0     H14531   0.643   7.220   8.616 -0.8110 -0.7731  1.3377
  108MOL0     H14532   0.347   7.149   8.433  1.4243 -1.0000 -0.0081
  108MOL0     H14533   0.325   7.322   8.403 -0.2460  0.3608  0.9807
  108MOL0     H14534   0.613   7.197   8.394  0.1012 -0.8400 -0.6552
  108MOL0     H14535   0.563   7.345   8.342  0.5045 -0.8357  1.4339
  108MOL0     H14536   0.408   7.258   8.154 -0.7163 -2.2591 -3.5172
  108MOL0     H14537   0.434   7.096   8.207  1.2931 -1.3001 -2.8808
  108MOL0     H14538   0.665   7.101   8.137 -0.8780 -0.4420  0.6666
  108MOL0     H14539   0.671   7.277   8.108 -0.7577  1.5921  0.9786
  108MOL0     H14540   0.819   7.154   7.980  0.1128  4.0557 -1.8849
  108MOL0     H14541   1.061   7.074   7.768  1.4544 -1.2978  0.6851
  108MOL0     H14542   1.019   7.075   7.937  1.0191  0.2707  0.1708
  108MOL0     H14543   1.023   6.916   7.853 -1.5616  0.0065  1.6272
  108MOL0     H14544   0.997   6.917   7.333  0.6793  0.8126 -2.4081
  108MOL0     H14545   1.107   6.760   7.153 -0.2534  1.4491 -1.9894
  108MOL0     H14546   0.908   6.411   6.998  0.9354 -0.7789 -0.9260
  108MOL0     H14547   0.837   6.550   6.916  1.3810  2.1934 -0.5377
  108MOL0     H14548   0.969   6.405   6.756 -1.6835 -1.6507  1.9986
  108MOL0     H14549   0.988   6.577   6.759  1.7338  0.2439 -1.6025
  108MOL0     H14550   1.192   6.375   6.789  1.8047 -0.2516  2.7597
  108MOL0     H14551   1.172   6.425   6.946 -0.9646 -0.8270 -0.5142
  108MOL0     H14552   1.209   6.609   6.708  0.4582 -3.0369 -2.1520
  108MOL0     H14553   1.237   6.649   6.883  4.8787  0.3082  1.3805
  108MOL0     H14554   1.449   6.608   6.756 -1.6268  0.8570  0.5347
  108MOL0     H14555   1.403   6.442   6.744  2.8231  0.8899  0.8734
  108MOL0     H14556   1.439   6.606   7.002  3.3008  1.2665 -0.3952
  108MOL0     H14557   1.392   6.431   6.996  1.1862  0.0058  2.0846
  108MOL0     H14558   1.646   6.553   6.879 -0.7655  2.3296  0.4135
  108MOL0     H14559   1.604   6.386   6.867 -0.2230  0.2273  1.1586
  108MOL0     H14560   1.650   6.540   7.128  1.6873  0.8730 -0.3346
  108MOL0     H14561   1.771   6.431   7.063 -0.2997 -0.6997  2.0562
  108MOL0     H14562   0.777   6.494   7.177 -1.7759  0.2386  1.8453
  108MOL0     H14563   0.706   6.600   7.387  0.2679 -1.1249 -1.1391
  108MOL0     H14564   0.607   6.916   7.604  2.7698 -3.3691  1.1502
  108MOL0     H14565   0.474   7.048   7.751  0.9237 -2.7009 -1.3787
  108MOL0     H14566   1.445   7.329   9.137  0.1439 -0.7929 -2.0493
  108MOL0     H14567   1.651   7.257   9.243 -3.2161 -0.4867  1.2195
  108MOL0     H14568   2.083   7.010   9.279 -0.3011  0.5855  3.7365
  108MOL0     H14569   2.323   6.976   9.247  0.2893 -0.9803 -2.0667
  108MOL0     H14570   2.573   7.333   9.125  0.7349  2.1450  0.4188
  108MOL0     H14571   2.561   7.349   9.299  0.5109  0.0504 -1.0268
  108MOL0     H14572   2.784   7.345   9.201  0.4590  0.8009  4.2594
  108MOL0     H14573   2.764   7.171   9.147 -1.2729 -2.2987  0.4419
  108MOL0     H14574   2.702   7.183   9.428  2.0492 -1.8704  0.9382
  108MOL0     H14575   2.799   7.328   9.408  0.6630  0.8895 -2.3249
  108MOL0     H14576   2.991   7.196   9.341 -0.7706 -1.2570 -3.9592
  108MOL0     H14577   2.893   7.051   9.314  2.4117  0.3588 -0.7798
  108MOL0     H14578   2.928   7.074   9.742 -2.5854  0.8047  0.2102
  108MOL0     H14579   2.383   7.400   9.218  0.1703  0.6336 -2.0141
  108MOL0     H14580   2.130   7.430   9.174  3.8713  2.7921  3.3694
  109MOL0     O14581   8.313  11.026  10.827  0.3057 -0.7272  0.0513
  109MOL0     C14582   8.281  10.949  10.729  0.3615 -0.8157 -0.0313
  109MOL0     O14583   8.167  10.955  10.653  0.1215 -0.6337  0.0895
  109MOL0     C14584   8.043  10.985  10.711 -0.3847 -0.0782 -0.5502
  109MOL0     C14585   8.004  11.006  10.845  0.2104  0.0639 -0.0960
  109MOL0     C14586   7.872  11.047  10.876  0.0683  0.3196 -0.1389
  109MOL0     C14587   7.772  11.075  10.769 -0.5296 -0.0336 -0.2654
  109MOL0     O14588   7.642  11.114  10.792 -0.2420 -0.2604  0.2591
  109MOL0     C14589   7.605  11.156  10.928  0.2884 -0.2066  0.2812
  109MOL0     C14590   7.466  11.225  10.922  0.3558  0.2089 -0.0762
  109MOL0     C14591   7.365  11.120  10.876 -1.5142 -0.1736  0.8244
  109MOL0     C14592   7.299  11.037  10.987 -0.0821  0.4975  0.3191
  109MOL0     C14593   7.187  10.946  10.936  0.5486  0.0298 -0.3143
  109MOL0     C14594   7.045  11.009  10.930  0.4990  0.1641 -0.7872
  109MOL0     C14595   6.944  10.913  10.861 -0.8634  0.7539 -0.6469
  109MOL0     C14596   6.807  10.976  10.858 -1.0020 -0.8854  0.5218
  109MOL0     N14597   6.700  10.876  10.870 -0.2642 -0.0018 -0.1683
  109MOL0     C14598   6.599  10.853  10.782  0.4529 -0.0031 -0.4755
  109MOL0     C14599   6.521  10.756  10.845  0.1052  0.1353 -0.8199
  109MOL0     C14600   6.384  10.711  10.801  0.2964  0.2464 -0.1891
  109MOL0     C14601   6.266  10.737  10.896  0.3622  0.6624 -0.0254
  109MOL0     C14602   6.267  10.637  11.013 -0.4479  1.0314 -0.0216
  109MOL0     C14603   6.158  10.656  11.119  0.6382  0.4768 -0.0559
  109MOL0     O14604   6.034  10.657  11.042 -0.0757 -0.4538  0.2727
  109MOL0     C14605   5.925  10.664  11.118 -0.4250 -0.5112  0.4021
  109MOL0     C14606   5.926  10.689  11.256 -0.1179 -0.4968  0.2431
  109MOL0     C14607   5.812  10.711  11.327 -0.0885  0.3639 -0.2965
  109MOL0     C14608   5.833  10.738  11.473  0.3761  0.0406 -0.7350
  109MOL0     C14609   5.681  10.708  11.255  0.1002 -0.5514  0.2327
  109MOL0     C14610   5.548  10.710  11.321  0.4455 -0.7504 -1.0592
  109MOL0     O14611   5.444  10.734  11.239 -0.1847 -0.0583 -0.1171
  109MOL0     C14612   5.317  10.725  11.288 -0.0673  0.6738 -0.1312
  109MOL0     C14613   5.260  10.829  11.368  0.6627  1.0079 -0.7940
  109MOL0     C14614   5.125  10.824  11.399 -0.8341 -0.5871  0.5637
  109MOL0     C14615   5.041  10.732  11.340  0.9942  0.2856 -0.3213
  109MOL0     O14616   4.914  10.754  11.376 -0.0911 -0.2663  0.9778
  109MOL0     C14617   4.808  10.677  11.316  0.0090  0.1898  1.2098
  109MOL0     C14618   4.672  10.744  11.299 -0.2260 -0.1898  0.6808
  109MOL0     C14619   4.622  10.796  11.439 -0.1684 -0.4603  0.3038
  109MOL0     C14620   4.493  10.878  11.417  0.3702  1.0557  0.0355
  109MOL0     C14621   4.431  10.950  11.530 -0.8545  0.5110  1.0284
  109MOL0     C14622   4.483  11.096  11.533  0.0905  0.0857 -0.2817
  109MOL0     C14623   4.464  11.167  11.665 -0.0033  0.1727 -0.9919
  109MOL0     C14624   4.449  11.314  11.642  0.8910 -0.8668  0.1959
  109MOL0    Cl14625   4.573  11.395  11.559 -0.2128  0.1533 -0.0615
  109MOL0     C14626   5.094  10.644  11.247  0.0909  0.9318  0.6327
  109MOL0     C14627   5.228  10.642  11.216  0.7295  0.1071  0.1181
  109MOL0     O14628   5.535  10.683  11.445  0.1158 -0.8952  0.6910
  109MOL0     C14629   5.690  10.709  11.114  0.7279  0.5931  0.0977
  109MOL0     C14630   5.802  10.688  11.047 -1.0211  0.3810  0.1267
  109MOL0     N14631   6.581  10.732  10.971  0.2339 -0.2745  0.2122
  109MOL0     N14632   6.683  10.795  10.980 -0.6049  0.1721  0.4538
  109MOL0     C14633   7.811  11.063  10.638  0.7233 -0.7608  0.1573
  109MOL0     C14634   7.944  11.021  10.612 -0.0840 -0.6527  1.2903
  109MOL0     C14635   8.372  10.852  10.681 -0.2858 -0.8544  0.3026
  109MOL0     C14636   8.482  10.819  10.761  0.0909  0.1444 -0.0541
  109MOL0     C14637   8.547  10.699  10.727  0.3961 -0.7834 -0.0388
  109MOL0     C14638   8.530  10.625  10.607  0.8624 -0.2771  0.0601
  109MOL0     O14639   8.603  10.513  10.581 -0.1902  0.2392  1.1744
  109MOL0     C14640   8.634  10.456  10.454  0.5959  0.8461  0.2207
  109MOL0     C14641   8.714  10.545  10.361  0.0645 -0.2764  0.6275
  109MOL0     C14642   8.837  10.616  10.430 -0.1571 -0.0945 -0.2039
  109MOL0     C14643   8.930  10.683  10.325  0.9829 -0.2501 -0.5537
  109MOL0     C14644   8.977  10.583  10.226  0.4309 -0.6918 -0.8701
  109MOL0     C14645   9.006  10.501  10.144  0.1202  0.2225 -0.2521
  109MOL0     C14646   8.440  10.676  10.516  0.3136 -0.8903  0.3050
  109MOL0     C14647   8.363  10.781  10.556 -0.0371 -0.3642  0.0034
  109MOL0     H14648   8.068  10.976  10.927 -1.8759 -0.9948  1.2175
  109MOL0     H14649   7.842  11.060  10.980  0.0842  2.6005 -0.3720
  109MOL0     H14650   7.585  11.079  11.004  3.4353  1.3048  2.9024
  109MOL0     H14651   7.672  11.224  10.980  1.4807 -0.7503 -0.5006
  109MOL0     H14652   7.439  11.266  11.020 -0.6088 -0.7136  0.0657
  109MOL0     H14653   7.469  11.311  10.855  1.4087  0.1144 -0.1691
  109MOL0     H14654   7.281  11.177  10.833 -1.6919 -1.2087 -0.2371
  109MOL0     H14655   7.405  11.057  10.796 -2.3182  2.0229 -1.4523
  109MOL0     H14656   7.373  10.966  11.025 -0.1953  0.6320  0.7875
  109MOL0     H14657   7.252  11.088  11.071  1.3913 -0.3313  1.7060
  109MOL0     H14658   7.213  10.921  10.833  0.6933  3.5773 -1.2947
  109MOL0     H14659   7.174  10.858  11.000 -3.5294  0.1812 -0.6319
  109MOL0     H14660   7.013  11.032  11.032  1.1765  2.1336 -0.9786
  109MOL0     H14661   7.042  11.096  10.864  0.8784  1.5825  0.9977
  109MOL0     H14662   6.977  10.886  10.760 -1.1976  0.2602 -0.6303
  109MOL0     H14663   6.933  10.820  10.919  2.0264  1.6077  1.5373
  109MOL0     H14664   6.802  11.045  10.772  4.0853 -0.7005  0.1023
  109MOL0     H14665   6.789  11.043  10.943  0.0132 -0.8178  0.6945
  109MOL0     H14666   6.571  10.894  10.686 -0.1948  1.2075  0.2107
  109MOL0     H14667   6.361  10.762  10.707  1.2726  1.3451  0.1431
  109MOL0     H14668   6.396  10.605  10.779 -0.8827  0.1848 -0.5726
  109MOL0     H14669   6.175  10.720  10.838  0.0256  3.9831 -0.7185
  109MOL0     H14670   6.265  10.843  10.926 -0.7994  1.1094 -1.5325
  109MOL0     H14671   6.366  10.634  11.060 -1.0412 -1.3144  1.1989
  109MOL0     H14672   6.244  10.541  10.967  0.5924  0.9544 -0.4192
  109MOL0     H14673   6.177  10.748  11.175  0.6493  0.0514  0.6525
  109MOL0     H14674   6.158  10.563  11.177  1.8354  1.2016  1.1603
  109MOL0     H14675   6.020  10.702  11.308  0.8432 -0.1093 -1.5313
  109MOL0     H14676   5.751  10.796  11.516 -0.1710 -0.8595 -0.5348
  109MOL0     H14677   5.825  10.639  11.520  3.1775 -0.1516 -0.4595
  109MOL0     H14678   5.933  10.770  11.504  0.2698 -2.1346  2.3224
  109MOL0     H14679   5.328  10.897  11.417 -0.9616 -0.2183  3.7886
  109MOL0     H14680   5.075  10.902  11.457 -3.8258  0.6879 -3.3045
  109MOL0     H14681   4.828  10.645  11.214  1.1368 -0.6698  1.6731
  109MOL0     H14682   4.802  10.581  11.369  0.1867 -0.3555  0.2597
  109MOL0     H14683   4.677  10.826  11.228 -3.1971 -3.1387 -3.3655
  109MOL0     H14684   4.602  10.671  11.259  2.5895 -2.1145 -1.1334
  109MOL0     H14685   4.692  10.861  11.493 -0.7276  1.4294 -1.1097
  109MOL0     H14686   4.600  10.711  11.504  0.9735 -1.4771 -0.5876
  109MOL0     H14687   4.501  10.944  11.330 -3.0156 -1.4133 -2.4703
  109MOL0     H14688   4.414  10.809  11.386 -0.2852  0.1169  3.4179
  109MOL0     H14689   4.441  10.898  11.625  1.8139 -0.9614  0.0383
  109MOL0     H14690   4.323  10.950  11.510 -0.8176  1.7496  0.7714
  109MOL0     H14691   4.591  11.095  11.520  0.5594 -3.7490  2.1930
  109MOL0     H14692   4.430  11.150  11.454 -4.9253 -2.9159  0.5872
  109MOL0     H14693   4.548  11.150  11.733 -2.0943  0.9845  1.9829
  109MOL0     H14694   4.374  11.120  11.707 -0.8874  0.4839 -2.4757
  109MOL0     H14695   4.442  11.361  11.741  0.8703 -0.1439 -0.1391
  109MOL0     H14696   4.355  11.322  11.587  0.4780  2.1765  1.1262
  109MOL0     H14697   5.027  10.579  11.192  0.4949 -0.8484  2.1289
  109MOL0     H14698   5.270  10.571  11.146 -0.2958  1.1025 -1.5701
  109MOL0     H14699   5.599  10.729  11.059  0.4862 -0.0558  0.2473
  109MOL0     H14700   5.799  10.702  10.940 -0.3844 -0.2914  0.0128
  109MOL0     H14701   7.744  11.091  10.557 -0.0420  0.7830  1.2628
  109MOL0     H14702   7.967  10.992  10.510  0.2288 -3.6499  2.1271
  109MOL0     H14703   8.507  10.875  10.851 -1.7849  1.6878 -0.4347
  109MOL0     H14704   8.616  10.650  10.795  0.0490  2.2653  2.7780
  109MOL0     H14705   8.690  10.366  10.481 -0.7211  0.2141  0.9422
  109MOL0     H14706   8.541  10.429  10.403 -0.3618  0.3407  2.1370
  109MOL0     H14707   8.652  10.630  10.331 -2.4452 -1.5030  2.0654
  109MOL0     H14708   8.734  10.493  10.267 -2.3833 -0.5492  0.2122
  109MOL0     H14709   8.892  10.549  10.496 -2.5464  0.6799  2.8250
  109MOL0     H14710   8.802  10.695  10.498  1.2345  1.4832 -1.2305
  109MOL0     H14711   9.021  10.727  10.368  1.5739 -0.3415 -1.6719
  109MOL0     H14712   8.872  10.754  10.265 -2.7980 -2.7849 -0.2357
  109MOL0     H14713   9.034  10.425  10.074 -1.3435 -1.1140  0.5515
  109MOL0     H14714   8.412  10.631  10.421 -0.3541  1.0765 -0.4873
  109MOL0     H14715   8.276  10.802  10.495 -1.1377  0.1916  1.6938
  110MOL0     O14716   6.763   9.011   7.701 -0.9062 -0.0628 -0.1327
  110MOL0     C14717   6.838   8.910   7.688 -0.2010  0.3684  0.1988
  110MOL0     O14718   6.798   8.781   7.674 -0.3791 -0.2957 -0.4672
  110MOL0     C14719   6.663   8.743   7.675 -0.5709 -0.1355 -0.3460
  110MOL0     C14720   6.595   8.730   7.802  0.3586  1.0675  0.4016
  110MOL0     C14721   6.459   8.675   7.797 -0.3120 -0.3175 -0.4560
  110MOL0     C14722   6.404   8.660   7.671  0.1317 -0.3430  0.2931
  110MOL0     O14723   6.266   8.639   7.685 -0.2704  1.0611  0.3581
  110MOL0     C14724   6.187   8.659   7.571 -0.2266 -0.1366  0.2918
  110MOL0     C14725   6.041   8.648   7.603  0.1229 -0.4346 -0.2318
  110MOL0     C14726   5.983   8.775   7.691  0.8055  0.9122  0.3993
  110MOL0     C14727   5.833   8.756   7.689  0.3360 -0.3380 -0.6034
  110MOL0     C14728   5.779   8.642   7.779 -0.6012 -0.3635 -0.3305
  110MOL0     C14729   5.628   8.630   7.773  0.4795 -0.3827  0.4420
  110MOL0     C14730   5.570   8.548   7.891  0.2594 -0.4066  0.9601
  110MOL0     C14731   5.412   8.530   7.879  0.1833 -1.2873  0.0382
  110MOL0     N14732   5.348   8.663   7.887  0.2147 -1.2269  0.1644
  110MOL0     C14733   5.285   8.708   8.005 -0.8183  0.1869 -0.1330
  110MOL0     C14734   5.235   8.828   7.975  0.1702  0.3187 -0.0597
  110MOL0     C14735   5.178   8.911   8.081 -0.2523  0.1149  0.3831
  110MOL0     C14736   5.034   8.874   8.116  0.2039  0.3888 -0.1736
  110MOL0     C14737   4.991   8.942   8.242 -0.3493  0.0510 -0.4849
  110MOL0     C14738   4.841   8.903   8.274  0.1229  0.2234  0.2885
  110MOL0     O14739   4.759   9.016   8.319 -0.1581 -0.0233  0.1784
  110MOL0     C14740   4.633   9.001   8.353  0.2493  0.2183 -0.0992
  110MOL0     C14741   4.561   8.879   8.353  0.9665  0.1492  0.1487
  110MOL0     C14742   4.421   8.873   8.377  0.2449  0.0922  0.0309
  110MOL0     C14743   4.353   8.737   8.346  0.5032 -0.7414 -0.1264
  110MOL0     C14744   4.361   8.993   8.424 -0.6192 -0.7458  0.5294
  110MOL0     C14745   4.221   8.997   8.457  0.3392 -0.9865 -0.7212
  110MOL0     O14746   4.149   9.117   8.462  0.9115 -0.5014  0.3328
  110MOL0     C14747   4.066   9.143   8.569 -0.1997  0.4684  0.1361
  110MOL0     C14748   3.943   9.069   8.605 -0.1383 -0.2504 -0.1920
  110MOL0     C14749   3.878   9.114   8.719  0.6261 -0.7929 -0.4532
  110MOL0     C14750   3.909   9.229   8.798 -0.0762  1.1605  0.4811
  110MOL0     O14751   3.815   9.272   8.889 -0.3529 -0.2104 -0.3849
  110MOL0     C14752   3.812   9.410   8.907  0.2193 -0.5138  0.8791
  110MOL0     C14753   3.668   9.464   8.898  0.1296 -0.6677 -0.6813
  110MOL0     C14754   3.583   9.395   9.008 -0.1867 -0.3309  0.2762
  110MOL0     C14755   3.439   9.428   8.984  0.1174  0.4186  0.1716
  110MOL0     C14756   3.341   9.367   9.090  0.3859  0.1910 -0.4138
  110MOL0     C14757   3.200   9.436   9.083 -0.1213  0.1616 -0.1829
  110MOL0     C14758   3.092   9.361   9.150 -0.5630  0.5597  0.3435
  110MOL0     C14759   2.955   9.431   9.152 -0.3075 -0.1935  0.1494
  110MOL0    Cl14760   2.963   9.570   9.272  0.2432  0.2084 -0.3054
  110MOL0     C14761   4.032   9.287   8.769 -0.3083  0.0184 -0.0191
  110MOL0     C14762   4.108   9.246   8.655  0.3358  0.0357  0.4685
  110MOL0     O14763   4.183   8.891   8.503  0.9010  0.4018 -0.5770
  110MOL0     C14764   4.433   9.119   8.425  0.2200 -0.7036  0.5533
  110MOL0     C14765   4.563   9.118   8.386 -1.6997 -0.2043 -0.8132
  110MOL0     N14766   5.250   8.846   7.836  0.5656 -0.2524  0.7301
  110MOL0     N14767   5.312   8.747   7.784 -0.2990  0.5263  0.0279
  110MOL0     C14768   6.468   8.668   7.550 -0.1221  0.3988  0.2727
  110MOL0     C14769   6.600   8.710   7.557 -0.0393  0.2405  0.2976
  110MOL0     C14770   6.980   8.929   7.669  0.1495  0.1095 -0.4061
  110MOL0     C14771   7.036   9.057   7.686  0.6029  1.2274 -1.1060
  110MOL0     C14772   7.174   9.082   7.676 -0.1528 -0.5241  0.4112
  110MOL0     C14773   7.253   8.976   7.631  0.0357 -0.0763 -0.2459
  110MOL0     O14774   7.385   8.987   7.587  0.7403  0.4071  0.1722
  110MOL0     C14775   7.451   9.110   7.598  0.1600  1.3861  0.1097
  110MOL0     C14776   7.599   9.088   7.560 -0.4895 -0.2296 -0.1190
  110MOL0     C14777   7.606   9.027   7.417  0.0135  0.0903  0.0763
  110MOL0     C14778   7.745   9.005   7.361  0.0400  0.5344 -0.7043
  110MOL0     C14779   7.797   9.121   7.284  0.1720 -0.5788  0.5138
  110MOL0     C14780   7.854   9.209   7.221 -0.2647 -0.2311 -0.6878
  110MOL0     C14781   7.201   8.855   7.619  0.1202  0.1320  0.8857
  110MOL0     C14782   7.070   8.829   7.636  0.1638  0.2887 -0.0256
  110MOL0     H14783   6.650   8.750   7.893  1.1521  0.3076  0.1053
  110MOL0     H14784   6.407   8.649   7.889  0.2068 -0.2226 -0.1328
  110MOL0     H14785   6.200   8.757   7.525  0.6320 -0.8029 -0.9468
  110MOL0     H14786   6.206   8.587   7.491  2.2263 -0.4595  1.0681
  110MOL0     H14787   5.988   8.650   7.507 -0.9048 -0.5516  0.3106
  110MOL0     H14788   6.015   8.548   7.640 -1.6625 -0.1212 -0.5487
  110MOL0     H14789   6.029   8.780   7.790  4.2388 -2.8625 -0.6899
  110MOL0     H14790   6.012   8.863   7.633 -2.1666  1.6383 -0.1380
  110MOL0     H14791   5.789   8.853   7.713  0.3471 -0.6455  0.6872
  110MOL0     H14792   5.796   8.735   7.588  1.9998 -2.5598 -0.8291
  110MOL0     H14793   5.816   8.543   7.749  0.7859  0.5946 -1.9677
  110MOL0     H14794   5.814   8.662   7.881  2.7534  0.3684 -1.4771
  110MOL0     H14795   5.594   8.734   7.773  0.5874 -0.3358  1.5951
  110MOL0     H14796   5.600   8.574   7.683  0.3413 -1.9627  1.4401
  110MOL0     H14797   5.624   8.454   7.878  1.4275  0.5886 -2.7389
  110MOL0     H14798   5.593   8.579   7.993  3.3120 -0.2284  0.3020
  110MOL0     H14799   5.369   8.459   7.950 -0.6117 -0.7571  0.1050
  110MOL0     H14800   5.401   8.491   7.778  0.4692 -2.2603  0.3722
  110MOL0     H14801   5.282   8.654   8.100  2.3716 -3.1231 -1.6523
  110MOL0     H14802   5.250   8.921   8.163  1.4071 -4.5327 -0.2222
  110MOL0     H14803   5.177   9.015   8.047  0.1030 -0.7892 -2.6926
  110MOL0     H14804   5.029   8.765   8.132  0.0418  0.0814 -2.0742
  110MOL0     H14805   4.962   8.914   8.044 -1.6446  1.1516  1.9664
  110MOL0     H14806   5.018   9.046   8.218  2.6961 -0.6674 -0.6132
  110MOL0     H14807   5.058   8.915   8.324 -0.0857 -2.9082 -1.5490
  110MOL0     H14808   4.847   8.818   8.343  0.7272 -1.0533 -1.2878
  110MOL0     H14809   4.807   8.859   8.180  2.6080 -0.9796 -0.1250
  110MOL0     H14810   4.611   8.794   8.308 -2.0856 -0.8735 -1.6135
  110MOL0     H14811   4.345   8.683   8.440 -0.8921  1.5570  1.1847
  110MOL0     H14812   4.256   8.742   8.295  0.4379 -1.7236 -0.1146
  110MOL0     H14813   4.414   8.673   8.281  1.6975  0.9742 -0.7765
  110MOL0     H14814   3.907   8.994   8.536  0.1394 -0.3963 -0.1804
  110MOL0     H14815   3.790   9.058   8.749 -0.2649  0.7294 -0.1700
  110MOL0     H14816   3.854   9.432   9.006  0.1565 -0.7602  0.9611
  110MOL0     H14817   3.863   9.458   8.822  0.3367  0.9287  1.7223
  110MOL0     H14818   3.664   9.571   8.920  0.5550 -0.9402  0.9183
  110MOL0     H14819   3.639   9.449   8.794  1.3553 -1.8474 -0.8931
  110MOL0     H14820   3.608   9.441   9.104 -1.5609  1.1877 -0.0460
  110MOL0     H14821   3.603   9.288   9.009  1.9684  0.0266 -0.0579
  110MOL0     H14822   3.437   9.537   8.971  0.9733  0.1743 -2.6146
  110MOL0     H14823   3.414   9.383   8.888  0.6095 -2.5660  1.3382
  110MOL0     H14824   3.394   9.381   9.185 -0.3314  0.3242 -0.0254
  110MOL0     H14825   3.329   9.259   9.076 -1.7412  0.0104  2.1725
  110MOL0     H14826   3.204   9.539   9.119  0.0356  0.2032 -0.3189
  110MOL0     H14827   3.185   9.439   8.975  0.6237 -0.7561 -0.3274
  110MOL0     H14828   3.122   9.334   9.252 -0.2783 -0.0032  0.1125
  110MOL0     H14829   3.087   9.268   9.093  2.7392  0.8062 -0.5528
  110MOL0     H14830   2.886   9.350   9.173  2.0250 -2.1681  0.7238
  110MOL0     H14831   2.939   9.462   9.048  1.6839  0.4931 -0.0047
  110MOL0     H14832   4.075   9.366   8.829  2.4039 -2.4312  1.5285
  110MOL0     H14833   4.197   9.302   8.629  0.6915  0.2413  2.0197
  110MOL0     H14834   4.400   9.218   8.456  1.6262  0.2129 -0.7051
  110MOL0     H14835   4.618   9.208   8.409 -2.9906  0.3906  0.0800
  110MOL0     H14836   6.420   8.652   7.454 -0.3956  1.3514  0.2423
  110MOL0     H14837   6.644   8.730   7.460 -2.5034 -0.0103 -0.9601
  110MOL0     H14838   6.972   9.141   7.712 -3.3419 -1.7758 -0.2140
  110MOL0     H14839   7.208   9.185   7.676 -1.3475 -0.1127  0.7918
  110MOL0     H14840   7.401   9.180   7.529  1.6837  1.4464 -0.9899
  110MOL0     H14841   7.454   9.133   7.705 -1.2077  0.0780  0.4664
  110MOL0     H14842   7.639   9.014   7.631 -1.0376 -0.7292 -0.3196
  110MOL0     H14843   7.658   9.180   7.563 -3.1946  1.6998 -1.9754
  110MOL0     H14844   7.546   9.089   7.350 -2.1637 -1.5130  0.4272
  110MOL0     H14845   7.572   8.925   7.435 -1.8755  1.0715  2.7854
  110MOL0     H14846   7.733   8.919   7.295 -1.4954 -1.0271  1.4688
  110MOL0     H14847   7.806   8.988   7.450 -0.4525  2.4135  0.0370
  110MOL0     H14848   7.901   9.289   7.168  2.4056 -1.5567 -0.5245
  110MOL0     H14849   7.272   8.775   7.599 -0.4630 -0.4291  1.0438
  110MOL0     H14850   7.035   8.728   7.616  1.5069 -0.2400  0.2093
  111MOL0     O14851  10.994   3.193   1.017 -0.1451 -0.1532 -0.4155
  111MOL0     C14852  11.091   3.156   1.093 -0.0143 -0.4259  0.7222
  111MOL0     O14853  11.081   3.058   1.183  0.2124  0.0718 -0.5132
  111MOL0     C14854  10.961   2.986   1.208  1.0810 -0.2171 -0.3411
  111MOL0     C14855  10.950   2.863   1.148  0.0580 -0.1637  0.2868
  111MOL0     C14856  10.833   2.793   1.159  0.0095 -1.0552 -0.0550
  111MOL0     C14857  10.716   2.854   1.214 -0.3652  0.4515  0.0386
  111MOL0     O14858  10.595   2.798   1.220 -0.3628  0.3516  0.3324
  111MOL0     C14859  10.588   2.661   1.262  0.3258  0.6963  0.3637
  111MOL0     C14860  10.443   2.615   1.228 -0.8095 -0.5253  0.1447
  111MOL0     C14861  10.426   2.466   1.256 -0.0854  0.1123 -0.1355
  111MOL0     C14862  10.273   2.416   1.239 -0.8642 -0.6671 -0.5121
  111MOL0     C14863  10.177   2.486   1.138 -0.7001  0.0777 -0.6421
  111MOL0     C14864  10.031   2.430   1.138  0.4061  0.2899  0.0640
  111MOL0     C14865   9.927   2.525   1.081  0.0699  1.4754 -1.1521
  111MOL0     C14866   9.783   2.457   1.079 -0.2573 -0.3972 -0.3027
  111MOL0     N14867   9.680   2.542   1.016 -0.4657 -0.9645 -1.2085
  111MOL0     C14868   9.584   2.614   1.087 -0.9751  0.0163  0.0658
  111MOL0     C14869   9.527   2.694   0.989 -1.0040 -0.2135  0.7012
  111MOL0     C14870   9.413   2.785   1.007  0.3169  0.6463 -0.0619
  111MOL0     C14871   9.278   2.716   1.025 -0.5551 -0.6058 -0.9580
  111MOL0     C14872   9.261   2.655   1.170 -0.5681  0.2247 -0.1155
  111MOL0     C14873   9.119   2.621   1.206  0.4034 -0.3576 -0.2499
  111MOL0     O14874   9.075   2.500   1.150  0.0767 -0.3285 -0.1325
  111MOL0     C14875   8.989   2.511   1.041 -0.4335 -0.0483 -0.1672
  111MOL0     C14876   9.028   2.444   0.922 -0.2991  0.9155 -0.0155
  111MOL0     C14877   8.943   2.447   0.809  0.1741 -0.4567  0.9506
  111MOL0     C14878   9.004   2.389   0.681  0.0948 -0.2527 -0.5593
  111MOL0     C14879   8.816   2.509   0.817  0.1199  0.0148  0.9025
  111MOL0     C14880   8.724   2.517   0.695  0.1791 -0.3339 -1.0278
  111MOL0     O14881   8.629   2.613   0.703 -1.0998 -0.1802 -0.5328
  111MOL0     C14882   8.547   2.617   0.597 -0.0673 -0.3404  0.4766
  111MOL0     C14883   8.562   2.720   0.503  1.1067 -0.2796 -0.0439
  111MOL0     C14884   8.468   2.727   0.395  0.8651  0.6037 -0.8553
  111MOL0     C14885   8.349   2.648   0.387  0.4619 -0.8162 -0.1819
  111MOL0     O14886   8.258   2.658   0.287 -0.2055 -0.1111  0.1742
  111MOL0     C14887   8.208   2.786   0.258 -0.2046  0.0932 -0.7695
  111MOL0     C14888   8.097   2.788   0.154 -0.5595 -0.7229 -0.4543
  111MOL0     C14889   7.974   2.717   0.208 -0.0132  1.0985  0.9513
  111MOL0     C14890   7.838   2.706   0.129 -0.0759  0.1265  0.2686
  111MOL0     C14891   7.723   2.647   0.209 -0.0855  0.6951 -0.2394
  111MOL0     C14892   7.592   2.641   0.125  0.5497  0.0807  0.4800
  111MOL0     C14893   7.485   2.569   0.210 -0.3610 -0.1328 -0.1855
  111MOL0     C14894   7.452   2.430   0.156  0.4273  1.2127 -0.7609
  111MOL0    Cl14895   7.349   2.340   0.280 -0.2797 -0.2752  0.2863
  111MOL0     C14896   8.341   2.549   0.481 -0.0233  0.5575  0.2334
  111MOL0     C14897   8.435   2.533   0.582 -0.9360 -0.3393 -1.1237
  111MOL0     O14898   8.745   2.444   0.601 -0.7375  0.0195  0.1731
  111MOL0     C14899   8.782   2.574   0.938 -0.0562 -0.3805 -0.0573
  111MOL0     C14900   8.866   2.579   1.045  0.0123 -0.1617 -1.0356
  111MOL0     N14901   9.593   2.670   0.869  0.7944 -0.2551  0.6023
  111MOL0     N14902   9.678   2.581   0.888 -0.0688  0.2268 -0.0357
  111MOL0     C14903  10.730   2.983   1.270 -0.5239 -0.7004  1.0546
  111MOL0     C14904  10.845   3.053   1.262 -0.5334  0.1320  0.2457
  111MOL0     C14905  11.218   3.235   1.085 -0.8239  0.1207  0.9433
  111MOL0     C14906  11.331   3.186   1.148 -0.2824 -0.2379  0.0887
  111MOL0     C14907  11.455   3.256   1.143  0.8751 -0.7646  0.0514
  111MOL0     C14908  11.467   3.365   1.059 -0.5416  0.3395 -0.4553
  111MOL0     O14909  11.571   3.449   1.053  0.0797 -0.4170 -0.4061
  111MOL0     C14910  11.696   3.409   1.100  0.0054 -0.6035 -0.5750
  111MOL0     C14911  11.810   3.478   1.018 -0.2965  0.7339 -1.1358
  111MOL0     C14912  11.942   3.466   1.091  0.1346  0.3214  0.7130
  111MOL0     C14913  12.059   3.512   0.991 -0.0418  0.4184 -0.2730
  111MOL0     C14914  12.175   3.578   1.056 -0.3272  0.5918  0.3655
  111MOL0     C14915  12.263   3.655   1.090  0.2667  0.9720 -0.8266
  111MOL0     C14916  11.353   3.413   0.992  0.3804  0.0710  0.5304
  111MOL0     C14917  11.235   3.349   0.996  0.3054 -0.3102  0.6242
  111MOL0     H14918  11.038   2.831   1.092  0.4457  0.4167  0.5601
  111MOL0     H14919  10.841   2.692   1.121  4.7478 -1.4731  1.3310
  111MOL0     H14920  10.654   2.599   1.201  1.2158  2.0271 -0.0756
  111MOL0     H14921  10.610   2.646   1.368 -0.1926  0.0736  0.3865
  111MOL0     H14922  10.374   2.673   1.291  0.5882  2.2561 -0.7299
  111MOL0     H14923  10.427   2.628   1.121 -1.2262 -2.1159 -0.0193
  111MOL0     H14924  10.491   2.401   1.198 -0.5874 -0.6428  0.1231
  111MOL0     H14925  10.462   2.451   1.358 -1.2180  1.8836  0.5671
  111MOL0     H14926  10.273   2.310   1.212 -1.1374 -0.8741  0.2626
  111MOL0     H14927  10.241   2.440   1.341  1.4489  1.0798 -0.0932
  111MOL0     H14928  10.185   2.590   1.174  1.4760 -0.6190  1.1069
  111MOL0     H14929  10.213   2.487   1.035  1.5570 -0.0802  0.0721
  111MOL0     H14930  10.035   2.340   1.077 -0.1965  0.0248  0.4131
  111MOL0     H14931   9.998   2.420   1.242 -2.2161  0.8572 -0.6329
  111MOL0     H14932   9.919   2.609   1.150  0.0644  0.3917  0.1919
  111MOL0     H14933   9.966   2.558   0.984  1.1471  1.6264 -0.6795
  111MOL0     H14934   9.749   2.418   1.175  1.5327 -2.0179 -0.2679
  111MOL0     H14935   9.798   2.367   1.018 -1.8655 -0.5038 -0.5844
  111MOL0     H14936   9.562   2.602   1.193 -1.4885  1.9938  0.2107
  111MOL0     H14937   9.447   2.858   1.081  0.9765  1.5924 -1.2534
  111MOL0     H14938   9.389   2.842   0.917 -2.2046  0.7167  0.5734
  111MOL0     H14939   9.277   2.639   0.947  1.6213  0.6059 -2.2850
  111MOL0     H14940   9.198   2.789   1.007  0.8781  0.8261 -1.8176
  111MOL0     H14941   9.310   2.723   1.241  1.5545 -0.6645 -0.6530
  111MOL0     H14942   9.313   2.560   1.185 -1.1263  0.2906  3.0177
  111MOL0     H14943   9.059   2.708   1.178 -1.1659 -1.5314 -0.6750
  111MOL0     H14944   9.106   2.609   1.314  1.0483 -1.0929 -0.2442
  111MOL0     H14945   9.120   2.387   0.918  1.0907  2.9728  1.2490
  111MOL0     H14946   8.987   2.451   0.592  0.1555  0.4272 -0.1051
  111MOL0     H14947   9.112   2.379   0.698 -0.4412 -3.1133  1.8848
  111MOL0     H14948   8.952   2.294   0.671  0.6741 -0.5918 -0.4171
  111MOL0     H14949   8.653   2.779   0.505  0.7201  0.3056  0.5579
  111MOL0     H14950   8.489   2.792   0.311  0.9224  0.7246 -0.7467
  111MOL0     H14951   8.174   2.825   0.355  0.7900  1.0234 -0.7697
  111MOL0     H14952   8.285   2.856   0.224  1.8755 -1.7567 -0.1005
  111MOL0     H14953   8.066   2.893   0.143  0.7584  0.6097  5.1796
  111MOL0     H14954   8.126   2.731   0.066 -0.4011 -1.2371 -0.0775
  111MOL0     H14955   7.945   2.750   0.308 -0.9039 -0.3143  1.1894
  111MOL0     H14956   8.016   2.618   0.230  0.6758  1.7588  2.8869
  111MOL0     H14957   7.817   2.812   0.108  0.5001  0.2178  0.1275
  111MOL0     H14958   7.849   2.656   0.033 -1.1263 -0.0246  0.2240
  111MOL0     H14959   7.701   2.708   0.297  1.0562  0.6563  0.0874
  111MOL0     H14960   7.752   2.548   0.245  1.5657  1.6337  1.1060
  111MOL0     H14961   7.559   2.742   0.097  3.0158  0.6390 -0.7609
  111MOL0     H14962   7.605   2.582   0.034  0.9179  0.0783  0.5318
  111MOL0     H14963   7.391   2.626   0.212  0.3558  1.0554  0.1545
  111MOL0     H14964   7.513   2.559   0.315 -2.8411  1.6769  0.7284
  111MOL0     H14965   7.544   2.377   0.130  0.6474  1.7639 -1.1336
  111MOL0     H14966   7.399   2.432   0.060  0.3725  0.6240 -0.7505
  111MOL0     H14967   8.255   2.482   0.478  0.2683  0.2233 -1.7434
  111MOL0     H14968   8.423   2.455   0.657 -1.5096 -0.4128 -1.2894
  111MOL0     H14969   8.690   2.631   0.949 -0.1639 -0.5049 -0.3071
  111MOL0     H14970   8.839   2.632   1.136  2.0744 -1.0670  0.1836
  111MOL0     H14971  10.639   3.033   1.304 -2.7905  0.6022 -5.4147
  111MOL0     H14972  10.868   3.151   1.303  4.1928 -1.3717  1.8858
  111MOL0     H14973  11.318   3.104   1.217 -0.5540 -0.7913 -0.6010
  111MOL0     H14974  11.536   3.210   1.199 -1.3343 -3.5438  1.2239
  111MOL0     H14975  11.699   3.430   1.207 -1.3847  2.7986 -1.0741
  111MOL0     H14976  11.711   3.303   1.079 -0.1161 -0.1925 -2.9884
  111MOL0     H14977  11.776   3.576   0.985 -4.3755  0.3079  1.1772
  111MOL0     H14978  11.831   3.414   0.931  0.0688 -2.6627  1.2547
  111MOL0     H14979  11.964   3.368   1.134 -1.2824 -0.1694  0.3792
  111MOL0     H14980  11.943   3.534   1.177 -3.1285 -0.8009  1.8285
  111MOL0     H14981  12.022   3.589   0.923 -0.0776  1.1812  0.5990
  111MOL0     H14982  12.091   3.421   0.940 -2.0996 -0.0074 -0.8975
  111MOL0     H14983  12.345   3.722   1.105  1.9971 -0.9955 -0.9842
  111MOL0     H14984  11.375   3.503   0.935 -1.7580  1.3147  1.5629
  111MOL0     H14985  11.154   3.397   0.943  1.5699 -0.6400 -1.7392
  112MOL0     O14986   4.670   3.384   4.907 -0.2473  0.6692  0.0774
  112MOL0     C14987   4.674   3.505   4.926  0.3645 -0.2125  0.1746
  112MOL0     O14988   4.570   3.589   4.935  0.2120  0.0599 -0.0542
  112MOL0     C14989   4.449   3.534   4.964  0.0789  0.3049 -0.6605
  112MOL0     C14990   4.403   3.424   4.903  0.8460  0.1750 -0.5108
  112MOL0     C14991   4.278   3.366   4.928 -0.0427 -0.0727 -1.0161
  112MOL0     C14992   4.188   3.432   5.016 -0.7242 -0.3219 -0.2111
  112MOL0     O14993   4.058   3.396   5.050  0.5709 -0.4883  0.3633
  112MOL0     C14994   3.981   3.332   4.941 -0.8230  0.5272  0.0977
  112MOL0     C14995   3.854   3.266   5.003 -0.6959  0.3364 -0.5063
  112MOL0     C14996   3.744   3.366   5.059  0.4824  0.7250 -0.0514
  112MOL0     C14997   3.659   3.426   4.941 -0.1368 -0.6268 -0.1874
  112MOL0     C14998   3.525   3.482   4.990  0.0250 -0.7612 -0.5476
  112MOL0     C14999   3.431   3.532   4.877  0.4283  0.1318  0.1984
  112MOL0     C15000   3.303   3.591   4.939 -0.0677 -0.4507  0.8438
  112MOL0     C15001   3.234   3.665   4.820 -0.7180  0.1582  0.4648
  112MOL0     N15002   3.125   3.751   4.855  0.4079 -0.2132  0.5418
  112MOL0     C15003   2.990   3.724   4.820 -0.2528  0.3142  0.0197
  112MOL0     C15004   2.933   3.840   4.854  0.0759 -0.6643 -0.8672
  112MOL0     C15005   2.786   3.871   4.849  0.6368  0.1527  0.4359
  112MOL0     C15006   2.714   3.816   4.717  0.5069  0.2326 -0.0804
  112MOL0     C15007   2.774   3.868   4.591  0.2453 -1.3470 -0.7756
  112MOL0     C15008   2.725   4.015   4.568 -0.2789 -0.5869  0.0691
  112MOL0     O15009   2.603   4.012   4.502 -0.2246  0.2924  0.4355
  112MOL0     C15010   2.484   4.039   4.565 -0.3848 -0.8015 -0.2885
  112MOL0     C15011   2.464   4.174   4.600  0.5603 -0.1748 -0.8822
  112MOL0     C15012   2.337   4.213   4.660  0.0279  0.1355 -0.1068
  112MOL0     C15013   2.322   4.356   4.704 -0.4734  0.4630 -0.0474
  112MOL0     C15014   2.238   4.116   4.671  0.0134  0.1251  0.9562
  112MOL0     C15015   2.104   4.159   4.705  1.2696  0.2217 -0.6194
  112MOL0     O15016   2.035   4.091   4.797  0.1094  0.8455 -0.5244
  112MOL0     C15017   1.899   4.126   4.831 -0.4665 -0.2842  0.2051
  112MOL0     C15018   1.798   4.071   4.756  0.2274  0.1765 -0.1279
  112MOL0     C15019   1.665   4.111   4.778 -0.1693  0.4018  0.0553
  112MOL0     C15020   1.634   4.204   4.879 -1.3102  0.3148  0.5308
  112MOL0     O15021   1.510   4.234   4.910  0.4318  0.8301 -0.8387
  112MOL0     C15022   1.400   4.189   4.834 -0.4370 -0.0656  1.0289
  112MOL0     C15023   1.294   4.169   4.940 -0.2940  0.2709 -0.1109
  112MOL0     C15024   1.157   4.192   4.872  0.5643 -0.1528  0.0181
  112MOL0     C15025   1.043   4.218   4.974 -1.3574 -0.7383  0.0792
  112MOL0     C15026   0.906   4.220   4.911  0.3741 -1.3625  0.8295
  112MOL0     C15027   0.869   4.096   4.816  0.0772  0.0891 -0.4765
  112MOL0     C15028   0.718   4.086   4.770  0.4497 -0.2623 -0.9674
  112MOL0     C15029   0.677   3.951   4.721 -0.1812  0.0935  0.5020
  112MOL0    Cl15030   0.776   3.909   4.575  0.0537  0.1566  0.3062
  112MOL0     C15031   1.744   4.257   4.953 -0.1978 -0.3154 -0.0329
  112MOL0     C15032   1.873   4.218   4.933 -0.2287  0.1235  0.6000
  112MOL0     O15033   2.060   4.257   4.642  0.0035 -0.4448 -0.9094
  112MOL0     C15034   2.263   3.980   4.637 -0.0133 -0.3291  0.1559
  112MOL0     C15035   2.385   3.940   4.582  1.2144  0.3303  0.5259
  112MOL0     N15036   3.029   3.939   4.882  0.1209  0.7984 -1.0772
  112MOL0     N15037   3.138   3.881   4.897  0.1763  0.0035  0.6291
  112MOL0     C15038   4.231   3.548   5.078 -0.4866 -0.7220 -0.3928
  112MOL0     C15039   4.364   3.588   5.064 -0.4899 -0.1768  0.3835
  112MOL0     C15040   4.814   3.560   4.946 -0.4105 -0.4350  0.3394
  112MOL0     C15041   4.829   3.700   4.938  0.5233  0.0172 -0.0272
  112MOL0     C15042   4.960   3.747   4.956  0.1281  0.5079  0.3231
  112MOL0     C15043   5.068   3.658   4.948 -0.8766  0.3565  0.4882
  112MOL0     O15044   5.195   3.710   4.949  0.2189 -0.2315  0.1133
  112MOL0     C15045   5.305   3.621   4.935 -0.5829  0.0903  0.1097
  112MOL0     C15046   5.444   3.690   4.926  0.0835 -0.0414  0.2564
  112MOL0     C15047   5.464   3.796   5.039  0.5018 -0.6933 -0.1621
  112MOL0     C15048   5.434   3.738   5.181 -0.2451 -0.3592 -0.6740
  112MOL0     C15049   5.517   3.632   5.206  0.6761  0.5900  0.3477
  112MOL0     C15050   5.580   3.538   5.238 -1.2361 -0.0009 -0.2711
  112MOL0     C15051   5.050   3.516   4.955 -0.1558  0.2121  0.5187
  112MOL0     C15052   4.921   3.470   4.974  0.4814 -0.0045  1.2898
  112MOL0     H15053   4.451   3.368   4.824  0.2065  0.2176 -0.9448
  112MOL0     H15054   4.248   3.270   4.887 -1.3907  0.0988 -0.4829
  112MOL0     H15055   3.960   3.408   4.865 -1.3959 -0.4540 -0.7524
  112MOL0     H15056   4.033   3.253   4.886 -0.4057  1.9351 -1.6056
  112MOL0     H15057   3.804   3.194   4.937  1.0261 -0.5089 -0.9387
  112MOL0     H15058   3.894   3.210   5.089 -2.1253  1.4368  0.9386
  112MOL0     H15059   3.678   3.307   5.123 -0.4144  1.8844  0.1162
  112MOL0     H15060   3.794   3.446   5.115  1.2697  0.0779  0.1941
  112MOL0     H15061   3.722   3.488   4.876  0.3951 -1.5304 -0.5499
  112MOL0     H15062   3.624   3.351   4.871  1.3697 -1.5396  0.0015
  112MOL0     H15063   3.474   3.401   5.044 -1.1329  1.0412  1.2110
  112MOL0     H15064   3.548   3.567   5.056  1.3319 -2.0593  0.7684
  112MOL0     H15065   3.486   3.602   4.814  1.0897 -0.7983 -0.2736
  112MOL0     H15066   3.404   3.463   4.797  1.2308  1.4974 -1.3141
  112MOL0     H15067   3.244   3.504   4.971  1.5787 -1.6175  0.8794
  112MOL0     H15068   3.333   3.661   5.018  3.0109 -0.3130 -0.2864
  112MOL0     H15069   3.197   3.599   4.741 -3.1334  0.3479  1.3670
  112MOL0     H15070   3.309   3.734   4.778 -1.7828  0.9100 -0.2640
  112MOL0     H15071   2.939   3.638   4.779 -0.3710  0.6630 -0.5739
  112MOL0     H15072   2.740   3.828   4.938 -1.7056 -2.0338 -1.6777
  112MOL0     H15073   2.769   3.979   4.856  0.9760  0.2954 -0.6453
  112MOL0     H15074   2.608   3.839   4.730  1.0875  2.0212  2.4712
  112MOL0     H15075   2.714   3.708   4.705  1.2049  0.3052 -0.8283
  112MOL0     H15076   2.750   3.793   4.515 -2.6100 -3.3995  1.9558
  112MOL0     H15077   2.883   3.870   4.601  0.2709  0.2343 -1.0603
  112MOL0     H15078   2.796   4.077   4.512 -0.8981  2.2848  2.1955
  112MOL0     H15079   2.719   4.080   4.656 -0.4321  1.1155 -1.1382
  112MOL0     H15080   2.535   4.254   4.583 -0.6316  0.8277 -1.2762
  112MOL0     H15081   2.413   4.405   4.739  1.1051 -2.6633  0.5954
  112MOL0     H15082   2.277   4.417   4.625  0.4739  2.0023  0.5631
  112MOL0     H15083   2.263   4.364   4.795  1.1428  1.3823  0.9596
  112MOL0     H15084   1.832   3.987   4.697 -0.6630 -2.1164  2.4316
  112MOL0     H15085   1.591   4.060   4.717 -0.2961  1.0410 -0.3373
  112MOL0     H15086   1.372   4.272   4.768  1.6260  0.0860  0.2681
  112MOL0     H15087   1.412   4.108   4.762 -1.0651  1.7026 -1.2065
  112MOL0     H15088   1.293   4.067   4.981  1.1311 -0.2862 -1.3762
  112MOL0     H15089   1.314   4.238   5.022  1.0608 -0.7168  0.4328
  112MOL0     H15090   1.128   4.121   4.794  0.1361  0.2438 -0.1960
  112MOL0     H15091   1.162   4.294   4.832  0.8841  0.0906  0.6756
  112MOL0     H15092   1.037   4.136   5.047  0.7672 -0.3602  0.7610
  112MOL0     H15093   1.068   4.312   5.024 -0.1079 -1.8524  1.6835
  112MOL0     H15094   0.910   4.307   4.846  3.2359  0.4641  3.1793
  112MOL0     H15095   0.824   4.229   4.982 -0.8659 -0.0376 -0.7198
  112MOL0     H15096   0.934   4.099   4.728  1.1329  2.1711  0.3227
  112MOL0     H15097   0.897   4.005   4.870  1.3483  1.2205  0.8276
  112MOL0     H15098   0.702   4.157   4.688 -0.7319 -0.0178 -0.5416
  112MOL0     H15099   0.663   4.109   4.861 -0.2883  2.3776 -1.9936
  112MOL0     H15100   0.573   3.952   4.688  0.4058 -3.5598 -1.9603
  112MOL0     H15101   0.699   3.877   4.799  0.7450  0.3984  0.5430
  112MOL0     H15102   1.718   4.337   5.022 -0.8595 -0.3305 -0.2517
  112MOL0     H15103   1.960   4.260   4.984  0.6942 -0.7933 -0.1673
  112MOL0     H15104   2.184   3.908   4.654 -1.6564  0.9265 -1.7438
  112MOL0     H15105   2.403   3.839   4.547  3.6385  0.8554  0.0185
  112MOL0     H15106   4.164   3.589   5.153 -0.6464 -1.8366  0.0901
  112MOL0     H15107   4.399   3.674   5.119  0.4751  1.9686 -3.2505
  112MOL0     H15108   4.745   3.768   4.942  0.5415 -0.0174  0.9630
  112MOL0     H15109   4.969   3.855   4.963  1.5407  0.4071  0.3840
  112MOL0     H15110   5.323   3.546   5.013  0.7671 -0.6097 -0.8313
  112MOL0     H15111   5.293   3.565   4.842 -2.2723  1.6924 -0.6872
  112MOL0     H15112   5.463   3.738   4.830  1.8792  0.2725  0.7252
  112MOL0     H15113   5.525   3.617   4.932  0.0068 -0.1450  0.0289
  112MOL0     H15114   5.398   3.882   5.023  0.8685 -0.1920  0.9587
  112MOL0     H15115   5.567   3.831   5.046  0.3772 -0.3032 -0.2494
  112MOL0     H15116   5.329   3.720   5.202 -0.3116  1.1385  0.5438
  112MOL0     H15117   5.462   3.809   5.261  0.9429 -0.6630 -0.7943
  112MOL0     H15118   5.630   3.448   5.269 -2.5494 -1.0060 -0.9548
  112MOL0     H15119   5.126   3.440   4.971 -1.5724 -1.6388 -1.0335
  112MOL0     H15120   4.898   3.367   5.002  1.3135 -0.2663  1.0405
  113MOL0     O15121  10.007   1.386   5.914  0.3500 -0.6484 -0.0888
  113MOL0     C15122  10.016   1.501   5.968  0.0016  0.0546 -0.3691
  113MOL0     O15123   9.939   1.613   5.928 -0.0449  0.2931  0.0282
  113MOL0     C15124   9.867   1.581   5.816  0.1450  0.1142  1.0378
  113MOL0     C15125   9.899   1.643   5.691  0.2152 -0.4930 -0.7994
  113MOL0     C15126   9.815   1.625   5.577  0.3509 -0.7634 -0.2830
  113MOL0     C15127   9.693   1.539   5.590  1.0014 -0.2279  0.0192
  113MOL0     O15128   9.606   1.498   5.492 -0.2014 -0.9483 -0.3842
  113MOL0     C15129   9.605   1.571   5.372 -0.5269  0.4299  0.1568
  113MOL0     C15130   9.500   1.511   5.279  0.2641  0.3905 -1.1445
  113MOL0     C15131   9.362   1.549   5.326  0.2169  0.2559 -0.0193
  113MOL0     C15132   9.263   1.468   5.251 -0.5883 -0.1514  1.0795
  113MOL0     C15133   9.121   1.486   5.311 -0.3242 -0.2236 -0.0439
  113MOL0     C15134   9.020   1.407   5.225 -0.6388 -0.0832 -0.7681
  113MOL0     C15135   8.885   1.403   5.311 -0.0297  0.3021 -0.0867
  113MOL0     C15136   8.769   1.386   5.225  1.6507 -0.5044  0.1808
  113MOL0     N15137   8.646   1.417   5.294  0.8152  0.0225 -0.0360
  113MOL0     C15138   8.572   1.320   5.357 -0.6764  0.3556  0.2916
  113MOL0     C15139   8.477   1.390   5.416 -0.4191  0.0071 -0.5456
  113MOL0     C15140   8.362   1.342   5.509 -0.7319 -0.0113  0.6237
  113MOL0     C15141   8.227   1.314   5.434 -0.5974  0.3966  0.2260
  113MOL0     C15142   8.187   1.437   5.353 -0.1016 -0.2463  0.0886
  113MOL0     C15143   8.043   1.421   5.295 -0.4945 -0.2629 -0.3975
  113MOL0     O15144   8.033   1.309   5.202 -0.2754 -0.1300  0.0234
  113MOL0     C15145   7.916   1.291   5.136  0.7388  0.7812 -0.5189
  113MOL0     C15146   7.898   1.164   5.081  0.2148  0.2586  0.1277
  113MOL0     C15147   7.776   1.140   5.013 -0.1260  0.2129  0.6216
  113MOL0     C15148   7.770   1.003   4.956  1.2249  0.0945  0.8632
  113MOL0     C15149   7.664   1.229   5.025  1.0865  1.3963 -0.6757
  113MOL0     C15150   7.529   1.204   4.966 -0.2057 -0.4727  0.2731
  113MOL0     O15151   7.446   1.308   4.925  0.2243  0.0636  0.0758
  113MOL0     C15152   7.318   1.290   4.881  0.0665 -0.2954  0.0984
  113MOL0     C15153   7.279   1.184   4.806  0.0171 -0.2613 -0.2762
  113MOL0     C15154   7.145   1.170   4.766 -0.3997  0.4866 -0.3059
  113MOL0     C15155   7.056   1.262   4.807 -0.2537 -0.0314  0.3519
  113MOL0     O15156   6.931   1.245   4.745 -0.6262  0.3329 -0.3842
  113MOL0     C15157   6.827   1.336   4.777  0.6531  0.1573 -0.8763
  113MOL0     C15158   6.761   1.287   4.910  0.5920 -0.4590 -0.7220
  113MOL0     C15159   6.611   1.325   4.924 -0.5172  0.2273  0.8597
  113MOL0     C15160   6.567   1.471   4.894  0.0178 -0.0860 -0.1344
  113MOL0     C15161   6.414   1.491   4.925 -0.0986 -1.1512 -0.4888
  113MOL0     C15162   6.369   1.634   4.926 -0.6467 -0.1754 -0.4000
  113MOL0     C15163   6.209   1.647   4.918 -0.1715 -0.2602 -0.9078
  113MOL0     C15164   6.170   1.757   4.822  0.2691  0.9890  0.1900
  113MOL0    Cl15165   5.994   1.746   4.814  0.0912 -0.2219 -0.1833
  113MOL0     C15166   7.095   1.377   4.878 -0.1902  0.4177 -0.5552
  113MOL0     C15167   7.227   1.388   4.916  0.1471  0.1689  0.8860
  113MOL0     O15168   7.487   1.088   4.983  0.7659  0.0005 -0.4987
  113MOL0     C15169   7.685   1.350   5.091 -0.5500 -0.3752 -0.0940
  113MOL0     C15170   7.808   1.384   5.135 -0.8200 -0.2927  0.7652
  113MOL0     N15171   8.499   1.529   5.396  0.7231  0.5572 -0.5632
  113MOL0     N15172   8.609   1.545   5.332 -0.3899  0.5866 -0.6026
  113MOL0     C15173   9.659   1.493   5.719  0.0028 -0.6862 -0.1821
  113MOL0     C15174   9.750   1.510   5.823  0.0495  0.7268 -0.4359
  113MOL0     C15175  10.127   1.533   6.066  0.1787 -0.0013  0.1056
  113MOL0     C15176  10.120   1.643   6.146 -0.8554  0.1862 -0.2641
  113MOL0     C15177  10.218   1.670   6.241  0.6589 -0.4827 -0.6930
  113MOL0     C15178  10.336   1.590   6.244 -0.9394 -0.6790  0.4065
  113MOL0     O15179  10.435   1.634   6.333 -0.0999 -0.7103 -0.1585
  113MOL0     C15180  10.546   1.545   6.353  0.2162 -1.2464 -0.1198
  113MOL0     C15181  10.635   1.612   6.466  0.0589  0.8425 -0.6854
  113MOL0     C15182  10.555   1.648   6.594  0.0165 -0.1472  0.1580
  113MOL0     C15183  10.518   1.519   6.660 -0.2533  0.3986 -0.2827
  113MOL0     C15184  10.641   1.477   6.717 -0.5810 -0.0325 -0.8899
  113MOL0     C15185  10.743   1.441   6.775 -0.0506  0.7254 -0.2174
  113MOL0     C15186  10.338   1.472   6.162 -0.5080  0.0027  1.2578
  113MOL0     C15187  10.234   1.448   6.079  0.1690  0.4930  1.0547
  113MOL0     H15188   9.996   1.689   5.677  1.2813 -1.5393  2.3306
  113MOL0     H15189   9.845   1.658   5.478 -0.6626  1.9129  0.1963
  113MOL0     H15190   9.579   1.674   5.395 -2.4571  0.7953 -3.0197
  113MOL0     H15191   9.702   1.569   5.322  0.5933  1.0928  2.2034
  113MOL0     H15192   9.514   1.558   5.181  0.2719 -0.0290 -1.3478
  113MOL0     H15193   9.519   1.404   5.274  1.2256  0.2956  2.1685
  113MOL0     H15194   9.356   1.529   5.434  2.1500 -1.5927 -0.1784
  113MOL0     H15195   9.347   1.657   5.318  0.3248  0.3568  1.0146
  113MOL0     H15196   9.271   1.495   5.145 -0.2160 -2.2376  0.5295
  113MOL0     H15197   9.290   1.364   5.266 -1.1457 -0.2091  1.7684
  113MOL0     H15198   9.126   1.457   5.416 -1.0374 -0.8363 -0.1718
  113MOL0     H15199   9.088   1.590   5.300 -0.1960 -0.3965 -3.1536
  113MOL0     H15200   8.993   1.463   5.134 -0.6911  1.1838  0.0070
  113MOL0     H15201   9.062   1.307   5.210  0.9796 -0.1444  3.0856
  113MOL0     H15202   8.897   1.322   5.384  1.4014  1.4750  1.0309
  113MOL0     H15203   8.873   1.492   5.373  1.2405  1.0711 -0.9055
  113MOL0     H15204   8.752   1.293   5.171 -0.6827  1.2647 -2.4862
  113MOL0     H15205   8.763   1.459   5.143 -0.8322 -1.3380 -0.4655
  113MOL0     H15206   8.572   1.212   5.344 -2.7282  0.5958 -2.9978
  113MOL0     H15207   8.385   1.245   5.555  2.3118  1.9159  3.6236
  113MOL0     H15208   8.344   1.427   5.575 -1.2881  1.3888 -1.2734
  113MOL0     H15209   8.156   1.291   5.514 -0.8765  0.3121 -0.0491
  113MOL0     H15210   8.245   1.219   5.382  1.0398 -0.8913  2.8722
  113MOL0     H15211   8.250   1.437   5.263 -0.9794  2.8151 -0.6260
  113MOL0     H15212   8.192   1.530   5.410  1.4607 -0.8187  0.9290
  113MOL0     H15213   8.019   1.517   5.248 -0.6067 -0.3489 -0.5177
  113MOL0     H15214   7.964   1.400   5.368 -0.6487  0.7219 -0.2699
  113MOL0     H15215   7.971   1.084   5.080  0.1940  0.2383  0.4135
  113MOL0     H15216   7.855   0.980   4.891  0.0168 -0.0371 -0.7350
  113MOL0     H15217   7.754   0.932   5.037 -2.0323  0.9073  1.0563
  113MOL0     H15218   7.686   0.986   4.889  0.3230  0.8068  1.7852
  113MOL0     H15219   7.363   1.118   4.787  0.7008 -0.3715  2.6473
  113MOL0     H15220   7.097   1.096   4.704  0.9430 -0.5843 -0.1246
  113MOL0     H15221   6.865   1.439   4.780 -0.8802  0.7406 -0.7771
  113MOL0     H15222   6.756   1.334   4.694  0.2576 -4.0372 -0.6851
  113MOL0     H15223   6.770   1.179   4.913  1.9905 -0.3967 -1.7431
  113MOL0     H15224   6.809   1.328   5.000  1.4627 -0.9328 -0.9626
  113MOL0     H15225   6.565   1.307   5.022 -2.0466  0.7266  0.2771
  113MOL0     H15226   6.560   1.259   4.854 -2.4689  0.0630  2.3276
  113MOL0     H15227   6.628   1.529   4.964 -0.0860 -1.1134  0.8443
  113MOL0     H15228   6.586   1.495   4.789 -2.0938  2.0142 -0.1102
  113MOL0     H15229   6.381   1.444   5.018  2.5794  0.0186  1.1774
  113MOL0     H15230   6.357   1.444   4.844 -1.5085 -1.7067  0.7651
  113MOL0     H15231   6.414   1.685   5.012 -0.4933  1.0400 -1.1777
  113MOL0     H15232   6.414   1.693   4.846  0.0613  0.4422  0.4309
  113MOL0     H15233   6.183   1.687   5.016 -0.4186 -2.0811 -0.1963
  113MOL0     H15234   6.156   1.554   4.898 -1.2531  0.3428 -0.9134
  113MOL0     H15235   6.203   1.726   4.722 -0.3762 -2.1602  0.8660
  113MOL0     H15236   6.197   1.861   4.843 -2.5237  2.8830 -4.1783
  113MOL0     H15237   7.033   1.462   4.904  2.2434  1.9657  0.6231
  113MOL0     H15238   7.250   1.472   4.981  0.2972  0.7462  0.1023
  113MOL0     H15239   7.600   1.417   5.087  0.1706  0.5313 -2.7244
  113MOL0     H15240   7.818   1.479   5.187 -1.4465  0.1972  0.0088
  113MOL0     H15241   9.569   1.436   5.740 -1.8265  1.8537 -0.7597
  113MOL0     H15242   9.721   1.451   5.910 -0.4483 -2.6965 -2.7277
  113MOL0     H15243  10.043   1.719   6.143  0.7495  1.8426 -0.8793
  113MOL0     H15244  10.214   1.752   6.312  1.2206 -0.0804 -1.1054
  113MOL0     H15245  10.513   1.448   6.391 -2.8639  0.1290  1.0319
  113MOL0     H15246  10.601   1.530   6.260  2.2273 -3.2656  1.2993
  113MOL0     H15247  10.682   1.706   6.437  0.4977  0.5598 -0.9105
  113MOL0     H15248  10.722   1.546   6.475 -2.2211 -2.1805  1.6824
  113MOL0     H15249  10.475   1.718   6.570  1.1674  1.6289  1.2781
  113MOL0     H15250  10.629   1.706   6.649  5.3081 -2.9420 -3.1487
  113MOL0     H15251  10.465   1.443   6.602 -1.3327 -0.8854  2.2553
  113MOL0     H15252  10.455   1.539   6.747 -0.9326 -1.0024 -0.4222
  113MOL0     H15253  10.835   1.421   6.826 -2.1449 -0.5232  3.4258
  113MOL0     H15254  10.423   1.405   6.154 -0.8060 -0.2476  0.0052
  113MOL0     H15255  10.234   1.358   6.017  3.1199  0.1421  1.4234
  114MOL0     O15256   9.762   6.545   3.308  0.5024  0.0222  0.0305
  114MOL0     C15257   9.789   6.564   3.193 -0.4417 -0.1252  0.5106
  114MOL0     O15258   9.701   6.562   3.089  0.8463 -0.1109  0.1696
  114MOL0     C15259   9.571   6.561   3.115 -0.0845 -0.7809  0.6694
  114MOL0     C15260   9.491   6.440   3.116 -0.4216 -0.7266  0.4110
  114MOL0     C15261   9.351   6.440   3.144  0.1586  0.6766 -0.5427
  114MOL0     C15262   9.289   6.558   3.184  0.3614 -0.1095  1.3768
  114MOL0     O15263   9.151   6.554   3.203  0.0820 -0.5597  0.0467
  114MOL0     C15264   9.071   6.643   3.124 -0.2282  0.2737 -0.4347
  114MOL0     C15265   8.918   6.612   3.137 -0.0842 -0.2515 -0.5482
  114MOL0     C15266   8.872   6.666   3.274 -0.1861 -0.2693 -0.1212
  114MOL0     C15267   8.728   6.638   3.284  0.5015 -0.0559 -0.5271
  114MOL0     C15268   8.634   6.726   3.212 -0.2096 -0.3592 -0.0761
  114MOL0     C15269   8.491   6.701   3.254 -0.3253 -0.1183 -0.4793
  114MOL0     C15270   8.403   6.786   3.157 -0.5768 -0.0758 -0.0304
  114MOL0     C15271   8.264   6.740   3.143  0.5608  0.1565  0.2563
  114MOL0     N15272   8.194   6.815   3.033  0.1916  0.5442 -0.1514
  114MOL0     C15273   8.195   6.770   2.898 -0.0581  0.2076  0.4586
  114MOL0     C15274   8.144   6.874   2.831 -1.1877 -0.0473 -0.6604
  114MOL0     C15275   8.144   6.893   2.684 -0.0644 -0.4830  0.5626
  114MOL0     C15276   8.061   6.782   2.611  0.1104 -0.9958 -0.2680
  114MOL0     C15277   8.057   6.810   2.458 -0.3862 -0.3599  0.0336
  114MOL0     C15278   7.936   6.737   2.397 -0.2060 -0.1688 -0.6435
  114MOL0     O15279   7.817   6.786   2.458  0.3268  0.4151  0.5395
  114MOL0     C15280   7.704   6.717   2.439 -0.3079 -0.3866  0.3931
  114MOL0     C15281   7.589   6.771   2.500 -0.3882 -0.0975 -0.8695
  114MOL0     C15282   7.467   6.716   2.484 -0.3703 -0.2481  0.1261
  114MOL0     C15283   7.344   6.784   2.544 -0.3356  0.4026  0.7946
  114MOL0     C15284   7.458   6.593   2.410  0.6789  0.3223  0.6133
  114MOL0     C15285   7.332   6.518   2.400  0.3622 -0.4884 -0.1830
  114MOL0     O15286   7.249   6.520   2.508 -0.8534  0.1048  0.3347
  114MOL0     C15287   7.159   6.415   2.520  1.4365 -0.0712  0.6163
  114MOL0     C15288   7.178   6.321   2.618 -0.3262 -0.3465 -0.3445
  114MOL0     C15289   7.106   6.205   2.622 -0.4605  0.4726 -0.1165
  114MOL0     C15290   6.988   6.197   2.550 -0.0042  0.3225  0.2112
  114MOL0     O15291   6.914   6.085   2.577 -0.4428  0.5485 -0.2296
  114MOL0     C15292   6.950   5.958   2.512  0.0622  0.0422 -0.6622
  114MOL0     C15293   6.819   5.884   2.489  0.1267  0.0898 -0.1681
  114MOL0     C15294   6.836   5.805   2.359  0.2642  0.2125 -0.4577
  114MOL0     C15295   6.929   5.684   2.380  0.2258  0.0841 -0.3475
  114MOL0     C15296   6.956   5.603   2.252 -0.2014  0.9348 -0.3139
  114MOL0     C15297   7.022   5.686   2.133 -0.1303  0.1258  0.3424
  114MOL0     C15298   7.161   5.747   2.187  1.4431  0.0751  0.1054
  114MOL0     C15299   7.250   5.759   2.062 -0.0934 -0.6051 -0.1522
  114MOL0    Cl15300   7.402   5.840   2.130 -0.0462 -0.1784 -0.4064
  114MOL0     C15301   6.957   6.292   2.446  0.4667 -0.4412 -0.3672
  114MOL0     C15302   7.044   6.403   2.442  1.3619 -0.7651  0.0829
  114MOL0     O15303   7.322   6.447   2.300  0.0820  0.2222  0.9313
  114MOL0     C15304   7.572   6.547   2.341 -0.5897  0.2981  0.1764
  114MOL0     C15305   7.685   6.617   2.348  0.2496 -0.2362 -0.1360
  114MOL0     N15306   8.090   6.967   2.915  0.3752 -0.0228 -0.3304
  114MOL0     N15307   8.120   6.930   3.039 -0.3049  0.2280 -0.2453
  114MOL0     C15308   9.361   6.684   3.173  0.4107  0.8967 -0.0745
  114MOL0     C15309   9.506   6.680   3.141 -1.0638 -0.3935 -0.4108
  114MOL0     C15310   9.937   6.586   3.159  0.6690  0.3005  0.5960
  114MOL0     C15311  10.019   6.617   3.262  0.3247  0.1484  0.0390
  114MOL0     C15312  10.154   6.635   3.237  0.3815 -0.6288 -0.0366
  114MOL0     C15313  10.208   6.641   3.109 -0.6725  0.0027  0.0344
  114MOL0     O15314  10.339   6.661   3.100  0.3024  0.1990  0.2758
  114MOL0     C15315  10.393   6.673   2.965 -0.6113 -0.5329 -1.3522
  114MOL0     C15316  10.538   6.709   2.973  0.1512 -0.4677  0.4985
  114MOL0     C15317  10.560   6.832   3.065 -0.4470  0.2873  0.0303
  114MOL0     C15318  10.710   6.870   3.089 -0.4613  1.0094  1.1611
  114MOL0     C15319  10.716   7.014   3.121  0.0169 -0.0759  0.3035
  114MOL0     C15320  10.715   7.123   3.160 -0.3547  0.4924 -0.1105
  114MOL0     C15321  10.121   6.624   3.002  0.5231 -0.0438 -0.3716
  114MOL0     C15322   9.983   6.589   3.027  0.1164  0.1985 -0.2247
  114MOL0     H15323   9.536   6.348   3.080  2.8972  0.7083  0.5735
  114MOL0     H15324   9.283   6.356   3.138  1.7440 -0.6311 -0.9824
  114MOL0     H15325   9.090   6.741   3.169 -0.3219 -0.0059  0.2260
  114MOL0     H15326   9.094   6.635   3.017 -1.1542 -0.2876 -0.6009
  114MOL0     H15327   8.866   6.655   3.050  1.3259  1.3958 -0.6370
  114MOL0     H15328   8.898   6.504   3.136  2.9673 -0.9050  0.2234
  114MOL0     H15329   8.930   6.626   3.358 -1.9475 -0.3192  1.1455
  114MOL0     H15330   8.898   6.772   3.272 -1.6609  0.0973 -1.3943
  114MOL0     H15331   8.711   6.532   3.263 -0.2126  0.4061 -2.4801
  114MOL0     H15332   8.694   6.660   3.386 -1.6111  0.4270 -1.2826
  114MOL0     H15333   8.653   6.832   3.229 -3.3294  0.1819  0.6127
  114MOL0     H15334   8.643   6.707   3.105  0.8948  3.1021 -0.7185
  114MOL0     H15335   8.469   6.594   3.254  2.3459 -0.7397  1.0836
  114MOL0     H15336   8.490   6.739   3.356  4.8842  2.1745 -1.0021
  114MOL0     H15337   8.398   6.892   3.182 -1.9528 -0.1273 -0.0026
  114MOL0     H15338   8.441   6.786   3.054 -0.7561  3.9343 -0.2369
  114MOL0     H15339   8.207   6.759   3.235 -1.2529 -0.8078 -0.6042
  114MOL0     H15340   8.244   6.634   3.128  1.1653 -0.0474  0.8672
  114MOL0     H15341   8.244   6.681   2.858  0.3036  0.4383  0.3925
  114MOL0     H15342   8.109   6.993   2.658  0.5264  0.0114  1.5967
  114MOL0     H15343   8.243   6.896   2.637 -1.1003 -0.0703 -1.7581
  114MOL0     H15344   7.960   6.780   2.652  0.0476  3.4450  0.2525
  114MOL0     H15345   8.098   6.682   2.635  0.2341 -1.0018 -0.4846
  114MOL0     H15346   8.151   6.790   2.406 -1.6582 -0.9948 -2.1835
  114MOL0     H15347   8.027   6.914   2.440 -2.6112 -0.6481  1.6590
  114MOL0     H15348   7.937   6.628   2.405  1.5430 -0.0568  1.9372
  114MOL0     H15349   7.930   6.764   2.291  1.5893 -0.2212 -0.7912
  114MOL0     H15350   7.597   6.846   2.578  0.7002 -0.6972 -0.3950
  114MOL0     H15351   7.367   6.888   2.568  1.2397  0.1716  0.3849
  114MOL0     H15352   7.265   6.776   2.469  1.0799 -0.6758 -0.6408
  114MOL0     H15353   7.304   6.742   2.636  2.0966  1.6564  2.5334
  114MOL0     H15354   7.265   6.344   2.678  0.3181  0.5371 -1.5676
  114MOL0     H15355   7.147   6.132   2.692 -1.8214  0.4091  0.6557
  114MOL0     H15356   7.007   5.979   2.420  1.2263  0.8541  0.2161
  114MOL0     H15357   7.015   5.888   2.565  0.4824  1.5344  0.8799
  114MOL0     H15358   6.802   5.826   2.580 -2.6552  0.6894 -0.2283
  114MOL0     H15359   6.737   5.955   2.477 -0.0992 -0.1988 -0.3499
  114MOL0     H15360   6.860   5.868   2.273  1.7522  0.1407 -0.1233
  114MOL0     H15361   6.739   5.759   2.338  1.0727 -0.0738 -4.3865
  114MOL0     H15362   7.026   5.709   2.426  0.2546 -1.2173  0.3508
  114MOL0     H15363   6.874   5.617   2.447  0.8824  0.3473  0.4779
  114MOL0     H15364   6.868   5.545   2.221  1.7154 -2.3751  0.0287
  114MOL0     H15365   7.026   5.523   2.277  0.8371  1.4750 -1.3921
  114MOL0     H15366   7.045   5.605   2.063  0.2718 -1.5103  2.2751
  114MOL0     H15367   6.955   5.762   2.091 -1.4512 -0.9032  0.4981
  114MOL0     H15368   7.207   5.695   2.272  0.2270  0.1691  0.8462
  114MOL0     H15369   7.153   5.848   2.228 -0.3675  0.4955 -1.1842
  114MOL0     H15370   7.204   5.826   1.989 -0.0799 -0.4488 -0.0188
  114MOL0     H15371   7.277   5.665   2.012 -2.4461 -2.2088  1.4117
  114MOL0     H15372   6.866   6.287   2.387 -0.0547 -0.0076  0.3875
  114MOL0     H15373   7.023   6.484   2.372  2.4302  0.0001  0.6217
  114MOL0     H15374   7.567   6.463   2.272 -1.0609 -0.2656  0.8735
  114MOL0     H15375   7.769   6.586   2.285  0.0215  0.7996 -0.9923
  114MOL0     H15376   9.310   6.777   3.193 -1.1933 -0.3567  2.1367
  114MOL0     H15377   9.570   6.767   3.137 -1.2160 -0.2762 -0.3395
  114MOL0     H15378   9.976   6.620   3.362 -1.1321 -2.8484 -0.3918
  114MOL0     H15379  10.230   6.634   3.314  1.6789  0.0957 -1.2777
  114MOL0     H15380  10.384   6.570   2.929 -1.4860 -0.9761  0.0374
  114MOL0     H15381  10.337   6.758   2.925 -1.6455  0.0722  1.1862
  114MOL0     H15382  10.560   6.717   2.866 -1.8111 -0.3677  0.0690
  114MOL0     H15383  10.594   6.622   3.007  0.2153 -0.3833  0.6093
  114MOL0     H15384  10.521   6.812   3.166 -0.7340  1.3339  0.1315
  114MOL0     H15385  10.504   6.918   3.028 -2.2379 -0.9928 -0.3506
  114MOL0     H15386  10.775   6.841   3.006  4.2159  0.8420  4.4753
  114MOL0     H15387  10.751   6.817   3.176 -1.8549 -2.8269 -0.2866
  114MOL0     H15388  10.720   7.229   3.176  0.3982  0.1505  2.1938
  114MOL0     H15389  10.143   6.634   2.896 -0.0715 -1.3912 -0.6382
  114MOL0     H15390   9.909   6.566   2.951 -1.3538  2.8280  0.3069
  115MOL0     O15391  10.035   6.926   2.355 -0.3162 -0.9455  0.0540
  115MOL0     C15392  10.074   7.016   2.282  0.5495 -1.1109  0.5970
  115MOL0     O15393   9.999   7.103   2.211 -0.1675  0.0098  0.1345
  115MOL0     C15394   9.867   7.111   2.238 -0.4001  0.0845  0.2172
  115MOL0     C15395   9.824   7.180   2.345  0.0437  0.1741  0.3209
  115MOL0     C15396   9.684   7.193   2.374 -0.3463  0.3975  0.2185
  115MOL0     C15397   9.596   7.137   2.278 -0.7951 -0.6875  0.6322
  115MOL0     O15398   9.458   7.127   2.298 -0.3830  0.5807  0.6389
  115MOL0     C15399   9.399   7.153   2.422  0.4211 -0.6311 -0.0407
  115MOL0     C15400   9.256   7.116   2.431  0.8685 -0.0776 -0.2526
  115MOL0     C15401   9.233   6.977   2.484 -0.1265  0.7314 -0.0404
  115MOL0     C15402   9.115   6.897   2.426  0.0354  0.5542 -0.6663
  115MOL0     C15403   8.973   6.966   2.436 -0.2338 -0.6043 -0.3438
  115MOL0     C15404   8.871   6.864   2.394 -0.3941  0.3247  0.3564
  115MOL0     C15405   8.728   6.921   2.389  0.1558 -0.0964  0.7874
  115MOL0     C15406   8.687   6.955   2.529 -0.1122  0.5834  0.1715
  115MOL0     N15407   8.545   6.991   2.519 -0.5551  0.9954 -0.0559
  115MOL0     C15408   8.493   7.119   2.499 -0.1340 -0.1298  1.2740
  115MOL0     C15409   8.369   7.101   2.439 -0.1669  0.8101  0.0176
  115MOL0     C15410   8.271   7.211   2.407 -0.4231 -0.1564 -0.1331
  115MOL0     C15411   8.346   7.317   2.333 -0.2056  0.1129  0.4660
  115MOL0     C15412   8.250   7.435   2.312  1.0400  0.3881 -0.3061
  115MOL0     C15413   8.256   7.493   2.171  0.4073  0.2956 -0.3522
  115MOL0     O15414   8.157   7.594   2.149  0.5546 -0.2526  0.8338
  115MOL0     C15415   8.024   7.581   2.163 -0.1117  0.4013  0.4353
  115MOL0     C15416   7.947   7.703   2.168 -0.9235  0.3608 -0.0599
  115MOL0     C15417   7.816   7.705   2.204  0.2349  0.2326 -0.9110
  115MOL0     C15418   7.756   7.842   2.201  0.7569 -0.3112  0.2749
  115MOL0     C15419   7.746   7.584   2.236 -0.0017 -0.6175 -0.4622
  115MOL0     C15420   7.602   7.585   2.272 -0.0181  0.1429  0.2318
  115MOL0     O15421   7.559   7.465   2.295 -0.4480 -0.5561 -0.4964
  115MOL0     C15422   7.428   7.458   2.324 -0.4141  1.1302  0.4138
  115MOL0     C15423   7.353   7.463   2.209  0.2375 -0.4409 -1.0823
  115MOL0     C15424   7.210   7.466   2.225  0.4421 -0.1226  0.9715
  115MOL0     C15425   7.148   7.465   2.350 -0.8795  0.7217  0.6457
  115MOL0     O15426   7.008   7.478   2.357  0.0513  0.8250 -0.0590
  115MOL0     C15427   6.945   7.436   2.475 -0.1239 -0.6460 -1.0308
  115MOL0     C15428   6.798   7.487   2.458 -0.1240 -0.2338  0.3245
  115MOL0     C15429   6.721   7.371   2.398 -0.0879  0.1762 -0.2012
  115MOL0     C15430   6.570   7.403   2.385  0.1501  0.2110  0.2670
  115MOL0     C15431   6.481   7.301   2.313  0.1498  0.4893 -0.5998
  115MOL0     C15432   6.479   7.160   2.374 -0.9818  0.4544 -0.9882
  115MOL0     C15433   6.387   7.075   2.287  0.9385  0.8682 -0.7007
  115MOL0     C15434   6.349   6.945   2.361 -0.1298 -0.0168 -0.1265
  115MOL0    Cl15435   6.292   6.970   2.530 -0.2625  0.1260  0.2140
  115MOL0     C15436   7.235   7.456   2.457  1.1049  0.2712 -0.1544
  115MOL0     C15437   7.374   7.457   2.450  0.6076 -0.5032  0.5770
  115MOL0     O15438   7.535   7.682   2.267 -0.1630 -0.2271 -0.1384
  115MOL0     C15439   7.818   7.461   2.222 -0.5118  0.0299 -0.8222
  115MOL0     C15440   7.955   7.460   2.187 -0.4212 -0.1797  0.3283
  115MOL0     N15441   8.344   6.965   2.430 -0.3646 -0.4882 -0.0148
  115MOL0     N15442   8.446   6.906   2.479  0.4852 -0.4334 -0.3862
  115MOL0     C15443   9.642   7.069   2.162  0.2920 -0.9213  0.2300
  115MOL0     C15444   9.780   7.065   2.136 -0.5798 -0.3169 -0.7032
  115MOL0     C15445  10.216   7.023   2.260 -0.5632 -0.0058  0.1638
  115MOL0     C15446  10.270   7.137   2.197  0.2293 -0.4068  0.3283
  115MOL0     C15447  10.405   7.151   2.187  0.5756 -0.0335 -0.3417
  115MOL0     C15448  10.494   7.043   2.216 -0.4399  0.2965 -0.6699
  115MOL0     O15449  10.635   7.056   2.208  0.6311  0.1920  0.6846
  115MOL0     C15450  10.719   6.943   2.247 -0.0677 -0.0140 -0.5882
  115MOL0     C15451  10.865   6.972   2.224 -0.3895 -0.5752  0.4536
  115MOL0     C15452  10.901   6.996   2.081 -0.2848  0.0615  0.1286
  115MOL0     C15453  11.050   7.027   2.056  0.1347 -0.5132 -0.1820
  115MOL0     C15454  11.095   7.149   2.126 -0.5869  0.2059  0.6507
  115MOL0     C15455  11.150   7.252   2.165  0.1518 -0.1761 -0.7275
  115MOL0     C15456  10.442   6.930   2.277  0.5468  0.2819 -0.2603
  115MOL0     C15457  10.303   6.922   2.293 -0.3734  0.0308 -0.7162
  115MOL0     H15458   9.898   7.225   2.411 -0.5807  0.2226  0.9930
  115MOL0     H15459   9.648   7.235   2.467  0.0213 -2.4830  1.7616
  115MOL0     H15460   9.460   7.094   2.491  1.3412 -1.5573 -1.6119
  115MOL0     H15461   9.402   7.262   2.437  2.2662 -0.6013 -0.4740
  115MOL0     H15462   9.198   7.181   2.497  2.8904  0.4167  1.1369
  115MOL0     H15463   9.218   7.127   2.328 -0.2074 -0.1233  0.1267
  115MOL0     H15464   9.321   6.916   2.462 -0.4969 -0.3661  1.3728
  115MOL0     H15465   9.218   6.966   2.592  1.3979  1.4337  0.2760
  115MOL0     H15466   9.131   6.887   2.319  1.4941  0.9676 -0.5094
  115MOL0     H15467   9.110   6.798   2.471  1.2242 -0.5878 -2.9251
  115MOL0     H15468   8.971   6.985   2.544 -1.8408 -0.2438 -0.4210
  115MOL0     H15469   8.968   7.059   2.379  2.1431 -0.0322  0.2652
  115MOL0     H15470   8.902   6.827   2.295  0.4331 -0.1705  0.7837
  115MOL0     H15471   8.883   6.783   2.466 -1.5864 -1.1907 -1.0735
  115MOL0     H15472   8.723   7.008   2.323 -0.2161 -1.0156 -0.4317
  115MOL0     H15473   8.659   6.846   2.349 -1.1971  1.7653 -0.6010
  115MOL0     H15474   8.731   7.049   2.563 -0.8302  1.5499 -1.4487
  115MOL0     H15475   8.714   6.876   2.599  2.1698  0.9795 -0.1908
  115MOL0     H15476   8.530   7.219   2.519  1.2142 -0.0196 -1.4107
  115MOL0     H15477   8.192   7.173   2.342 -0.5148 -0.7241  0.3030
  115MOL0     H15478   8.232   7.245   2.504  0.3245 -3.1867  1.3384
  115MOL0     H15479   8.379   7.270   2.240 -0.0448 -0.2739  0.7173
  115MOL0     H15480   8.425   7.354   2.399 -1.1300  0.8887  1.1753
  115MOL0     H15481   8.274   7.525   2.369  0.0926  0.5404 -0.1371
  115MOL0     H15482   8.149   7.398   2.331  0.3207  1.8561 -1.0946
  115MOL0     H15483   8.246   7.411   2.099 -0.5240 -0.6964  0.8648
  115MOL0     H15484   8.352   7.546   2.160 -1.4891  4.1521  0.1161
  115MOL0     H15485   7.999   7.794   2.142  1.9171 -0.8971  0.8089
  115MOL0     H15486   7.832   7.919   2.186  0.4740  0.2611  1.6069
  115MOL0     H15487   7.691   7.850   2.113 -0.9582  0.5827  1.5595
  115MOL0     H15488   7.688   7.851   2.287  1.3679 -2.2407  1.0270
  115MOL0     H15489   7.394   7.479   2.110  2.0275  0.9531 -0.1815
  115MOL0     H15490   7.148   7.475   2.137  0.5219 -2.4827  0.6109
  115MOL0     H15491   6.938   7.329   2.494 -1.2400 -0.6715 -1.5304
  115MOL0     H15492   6.988   7.476   2.568  0.7119 -1.5170 -1.0220
  115MOL0     H15493   6.753   7.512   2.555 -1.8355 -0.6454 -0.3297
  115MOL0     H15494   6.792   7.581   2.404  0.9787  0.8092  1.9306
  115MOL0     H15495   6.721   7.283   2.464  0.1097  0.7980  0.6410
  115MOL0     H15496   6.773   7.332   2.310  0.5284 -0.7385  0.5412
  115MOL0     H15497   6.525   7.414   2.483 -1.0780  0.3261 -0.3000
  115MOL0     H15498   6.561   7.498   2.332  0.1660  0.1870  0.2207
  115MOL0     H15499   6.517   7.295   2.210  2.5179  0.6266  0.1518
  115MOL0     H15500   6.380   7.343   2.313 -1.5685 -3.1868 -1.0363
  115MOL0     H15501   6.581   7.123   2.363 -1.1069  0.7559 -3.9865
  115MOL0     H15502   6.449   7.164   2.479  0.5708 -0.7947 -0.4607
  115MOL0     H15503   6.428   7.055   2.187 -1.2198  0.5208 -1.5620
  115MOL0     H15504   6.289   7.121   2.274  0.8693  0.2278 -2.8630
  115MOL0     H15505   6.433   6.875   2.360 -0.7277 -0.7448 -0.4201
  115MOL0     H15506   6.271   6.891   2.305  0.7307  0.5117 -1.9129
  115MOL0     H15507   7.199   7.456   2.559  4.4174  0.3232  1.1426
  115MOL0     H15508   7.433   7.443   2.540  0.8294 -0.0000  0.5132
  115MOL0     H15509   7.768   7.367   2.245  1.7719 -0.7927  1.2588
  115MOL0     H15510   7.999   7.361   2.189 -2.0630 -0.9393  0.7172
  115MOL0     H15511   9.567   7.021   2.100  1.0527 -2.9589  0.8179
  115MOL0     H15512   9.818   7.021   2.045  0.6599  0.2171 -0.4562
  115MOL0     H15513  10.214   7.227   2.173 -0.0441 -0.3830  1.0326
  115MOL0     H15514  10.451   7.246   2.164 -3.2527  1.7627 -1.5749
  115MOL0     H15515  10.711   6.909   2.351 -0.2315  0.8703 -0.3005
  115MOL0     H15516  10.690   6.857   2.187 -0.5320 -0.1895 -0.1180
  115MOL0     H15517  10.933   6.892   2.256  3.4707  2.1029 -0.2702
  115MOL0     H15518  10.902   7.053   2.287  1.1119 -1.3816  0.6626
  115MOL0     H15519  10.839   7.077   2.042 -0.4110 -0.5885 -1.0739
  115MOL0     H15520  10.862   6.915   2.019 -1.3631  0.8640 -0.2717
  115MOL0     H15521  11.070   7.033   1.949  1.9153  1.0785  0.2019
  115MOL0     H15522  11.103   6.938   2.091  0.1632 -0.3953  0.0826
  115MOL0     H15523  11.200   7.339   2.203 -0.6623  0.7160 -1.6555
  115MOL0     H15524  10.492   6.834   2.285 -2.5046 -1.4205 -0.1089
  115MOL0     H15525  10.263   6.827   2.326  0.5912 -1.2389 -2.9556
  116MOL0     O15526   6.693   8.059   1.536  0.5295 -0.6983 -0.6550
  116MOL0     C15527   6.775   8.081   1.448  0.8946 -0.7317  0.0245
  116MOL0     O15528   6.767   8.036   1.325  0.0874 -0.5018 -0.5394
  116MOL0     C15529   6.663   7.955   1.289  0.3566  0.1654 -0.1101
  116MOL0     C15530   6.692   7.831   1.229  0.1345 -0.0622  1.2334
  116MOL0     C15531   6.589   7.748   1.186 -0.4917  0.3263  0.7350
  116MOL0     C15532   6.452   7.779   1.215  0.1963  0.5275 -0.2017
  116MOL0     O15533   6.343   7.715   1.158 -0.0998  0.5480  1.0681
  116MOL0     C15534   6.255   7.657   1.251 -0.1129 -0.3644  0.4966
  116MOL0     C15535   6.120   7.627   1.188 -0.4154 -0.1120  0.4109
  116MOL0     C15536   6.130   7.530   1.067 -0.5307  0.4511  0.1333
  116MOL0     C15537   6.192   7.394   1.097  0.0529  0.2711 -0.4510
  116MOL0     C15538   6.079   7.290   1.091  0.3101  0.5651 -0.1134
  116MOL0     C15539   6.128   7.141   1.107 -0.5519 -0.1820  0.4284
  116MOL0     C15540   6.022   7.052   1.062  0.6366  0.2557 -0.4150
  116MOL0     C15541   6.035   6.902   1.086  0.2040  0.0825  0.5404
  116MOL0     N15542   6.139   6.826   1.012  0.8997  0.0982 -0.2871
  116MOL0     C15543   6.197   6.858   0.898  0.3041 -1.1219  0.1971
  116MOL0     C15544   6.296   6.762   0.870 -0.4585 -0.3574  0.1250
  116MOL0     C15545   6.403   6.762   0.773 -0.4751 -0.2034  0.2254
  116MOL0     C15546   6.538   6.831   0.816  0.8857  0.3681  0.0731
  116MOL0     C15547   6.642   6.828   0.716 -0.8883  0.8771  0.0558
  116MOL0     C15548   6.771   6.905   0.746  0.4402 -0.5230  0.2250
  116MOL0     O15549   6.877   6.855   0.667 -1.0231  0.3430  0.5483
  116MOL0     C15550   7.002   6.910   0.683 -0.1814 -0.6754 -1.3195
  116MOL0     C15551   7.041   6.988   0.797 -0.3772  0.2029 -0.1095
  116MOL0     C15552   7.169   7.038   0.815 -0.7471  0.3990 -0.0097
  116MOL0     C15553   7.189   7.121   0.935 -0.3567 -0.2207 -0.6561
  116MOL0     C15554   7.273   7.000   0.719 -1.2915 -0.1277  0.7128
  116MOL0     C15555   7.411   7.045   0.726 -0.0126  0.1587  0.0120
  116MOL0     O15556   7.503   7.028   0.615  0.0674  0.3134  0.4815
  116MOL0     C15557   7.639   7.049   0.637  0.0204 -0.4126 -0.8011
  116MOL0     C15558   7.694   7.175   0.678 -0.3035  0.6259  0.9692
  116MOL0     C15559   7.834   7.188   0.698 -0.5007 -0.4231  0.2310
  116MOL0     C15560   7.920   7.088   0.655  0.6976  0.0030 -0.6510
  116MOL0     O15561   8.052   7.121   0.647  0.1481 -0.0972 -0.1327
  116MOL0     C15562   8.138   7.004   0.655  0.0185  0.1788 -0.4283
  116MOL0     C15563   8.287   7.028   0.697 -0.2035 -0.0757  0.2327
  116MOL0     C15564   8.293   7.085   0.839 -0.6707  0.2549  0.5016
  116MOL0     C15565   8.442   7.118   0.871  0.2187  0.1435  1.0581
  116MOL0     C15566   8.445   7.205   0.995 -0.0511 -0.6421  0.4406
  116MOL0     C15567   8.406   7.136   1.122 -0.9815 -1.0601 -0.1194
  116MOL0     C15568   8.480   7.197   1.241  0.0532 -0.3282  0.2440
  116MOL0     C15569   8.423   7.133   1.372  0.6166  0.2062 -0.1635
  116MOL0    Cl15570   8.529   7.001   1.438  0.2687  0.4197 -0.3303
  116MOL0     C15571   7.864   6.969   0.612 -0.0093 -0.5594 -0.1410
  116MOL0     C15572   7.729   6.949   0.594  0.5668  0.1971 -0.5797
  116MOL0     O15573   7.441   7.100   0.827  0.1444 -0.2244  0.7870
  116MOL0     C15574   7.230   6.926   0.607  0.3625  0.1029 -0.0569
  116MOL0     C15575   7.098   6.888   0.594 -0.0490 -0.0856 -0.2927
  116MOL0     N15576   6.289   6.671   0.975  0.3427 -0.6373  0.7639
  116MOL0     N15577   6.194   6.711   1.053  0.0779  0.5829 -1.0742
  116MOL0     C15578   6.430   7.905   1.278  0.1598  0.0779  0.2475
  116MOL0     C15579   6.527   7.988   1.316  0.2341 -0.4835 -0.2449
  116MOL0     C15580   6.903   8.151   1.492  0.2436  0.6049  0.3991
  116MOL0     C15581   6.995   8.193   1.393  0.0849  0.2060 -0.0932
  116MOL0     C15582   7.113   8.254   1.433  0.3149  0.1614 -0.6326
  116MOL0     C15583   7.140   8.287   1.570  0.4811  1.0303 -0.2047
  116MOL0     O15584   7.253   8.355   1.598 -0.4527 -0.2080  1.2615
  116MOL0     C15585   7.256   8.434   1.721  0.7698 -0.0080 -0.3908
  116MOL0     C15586   7.340   8.555   1.695 -0.1737  0.5699  0.3829
  116MOL0     C15587   7.332   8.647   1.813 -0.8170 -0.1458  0.8906
  116MOL0     C15588   7.370   8.797   1.769  1.4697 -0.0252 -0.2000
  116MOL0     C15589   7.332   8.882   1.879  0.4765 -0.3808  0.2648
  116MOL0     C15590   7.322   8.949   1.977 -0.0518 -0.0784 -0.0162
  116MOL0     C15591   7.045   8.260   1.670  1.4392 -0.2963  0.5970
  116MOL0     C15592   6.934   8.182   1.631 -0.4820  0.2249  0.0721
  116MOL0     H15593   6.793   7.802   1.200  0.6290  2.3916  0.2594
  116MOL0     H15594   6.611   7.655   1.135  3.7599  2.2703 -1.5242
  116MOL0     H15595   6.305   7.568   1.291  0.8330  0.6533  1.6526
  116MOL0     H15596   6.234   7.723   1.336 -1.5881  0.0198 -0.1348
  116MOL0     H15597   6.047   7.589   1.260 -1.9028 -0.9740 -1.4789
  116MOL0     H15598   6.099   7.723   1.140 -1.2235 -0.5971 -0.2280
  116MOL0     H15599   6.036   7.527   1.012  0.8344  1.5550 -2.4163
  116MOL0     H15600   6.198   7.582   0.999  0.7858  0.5952  1.5099
  116MOL0     H15601   6.267   7.368   1.021 -0.7935 -1.4299 -0.7503
  116MOL0     H15602   6.237   7.392   1.197 -0.9212  2.1771  0.0695
  116MOL0     H15603   6.002   7.307   1.166  0.5607  1.2442 -0.0037
  116MOL0     H15604   6.027   7.295   0.995  1.6915 -1.6028 -1.0591
  116MOL0     H15605   6.221   7.129   1.051 -0.2268  0.4585  0.8262
  116MOL0     H15606   6.149   7.114   1.211  0.9781 -0.3243  0.0987
  116MOL0     H15607   5.943   7.085   1.130  0.8162 -1.7774  0.8627
  116MOL0     H15608   5.986   7.072   0.961  0.5394  1.4805 -0.1598
  116MOL0     H15609   5.940   6.856   1.057  0.1937 -1.3953  2.7202
  116MOL0     H15610   6.057   6.881   1.191  0.3083  0.1397  0.5306
  116MOL0     H15611   6.176   6.945   0.837 -1.1063 -2.4008 -1.2297
  116MOL0     H15612   6.423   6.658   0.747 -0.0684 -0.5143  1.6982
  116MOL0     H15613   6.362   6.822   0.691 -1.4488  0.8565  1.4511
  116MOL0     H15614   6.573   6.781   0.907 -2.1741  0.5232  1.4633
  116MOL0     H15615   6.509   6.933   0.845 -2.7555 -1.0136  2.0327
  116MOL0     H15616   6.600   6.865   0.622 -0.6332  2.9246  0.6971
  116MOL0     H15617   6.666   6.722   0.707 -0.5944  1.0573 -1.4969
  116MOL0     H15618   6.789   6.885   0.853  1.4148 -1.2648 -0.0610
  116MOL0     H15619   6.761   7.013   0.740 -2.0834 -0.7053  0.2933
  116MOL0     H15620   6.966   7.021   0.868 -0.0869  1.5324 -0.3763
  116MOL0     H15621   7.096   7.164   0.973 -0.4562 -2.6730  2.2156
  116MOL0     H15622   7.229   7.060   1.016  0.4659  1.3375  0.1344
  116MOL0     H15623   7.255   7.207   0.936 -3.2818  2.3295  3.2634
  116MOL0     H15624   7.625   7.254   0.707 -0.9964 -0.4992  2.5843
  116MOL0     H15625   7.882   7.272   0.747  0.1535 -0.4002 -0.4222
  116MOL0     H15626   8.089   6.926   0.714  1.9693 -1.3431 -0.7083
  116MOL0     H15627   8.155   6.973   0.552  3.1422  2.8491 -0.9122
  116MOL0     H15628   8.338   6.934   0.673  1.9286  1.3723 -1.3523
  116MOL0     H15629   8.326   7.098   0.622 -5.0803 -0.5423 -3.2568
  116MOL0     H15630   8.251   7.013   0.910 -1.3437  0.1798  0.0379
  116MOL0     H15631   8.222   7.168   0.841 -0.1067  0.8068  3.7856
  116MOL0     H15632   8.497   7.024   0.883 -0.5144 -0.5538 -0.7416
  116MOL0     H15633   8.487   7.167   0.784 -2.1686  1.4947  0.4845
  116MOL0     H15634   8.375   7.285   0.968 -2.3050 -2.8500 -0.6206
  116MOL0     H15635   8.547   7.243   1.004 -0.7825  1.4614  0.4813
  116MOL0     H15636   8.301   7.165   1.125 -0.4088  1.1970 -0.2520
  116MOL0     H15637   8.419   7.027   1.117 -1.4208 -1.1229  0.0843
  116MOL0     H15638   8.468   7.305   1.241  1.9196 -0.0635  1.5829
  116MOL0     H15639   8.584   7.165   1.225 -0.7003 -2.8363 -0.1377
  116MOL0     H15640   8.321   7.092   1.364  0.9219 -0.7655  0.6353
  116MOL0     H15641   8.422   7.215   1.444  0.5238 -1.6150  2.0434
  116MOL0     H15642   7.932   6.891   0.580  0.5528 -0.3449  0.4971
  116MOL0     H15643   7.682   6.856   0.561 -2.5735  1.4012  0.1732
  116MOL0     H15644   7.297   6.893   0.528 -0.1258  0.7254 -0.7462
  116MOL0     H15645   7.077   6.829   0.506  0.4179 -2.4667  1.1106
  116MOL0     H15646   6.333   7.949   1.296 -0.2624 -0.9492  0.5613
  116MOL0     H15647   6.491   8.079   1.363  0.9374 -0.5599  0.4607
  116MOL0     H15648   6.976   8.160   1.292 -0.8910 -0.2606  0.2336
  116MOL0     H15649   7.192   8.279   1.363  0.8090  0.7378  0.1152
  116MOL0     H15650   7.156   8.473   1.739  1.1512  0.0852  1.8322
  116MOL0     H15651   7.287   8.376   1.809 -2.2894 -1.2758 -0.0204
  116MOL0     H15652   7.298   8.605   1.608 -0.4141  0.0951  0.2227
  116MOL0     H15653   7.446   8.537   1.675 -0.2057 -1.3451  1.5889
  116MOL0     H15654   7.411   8.627   1.886  1.2732 -0.4415 -1.3449
  116MOL0     H15655   7.236   8.639   1.864 -0.5918 -0.5494  1.2597
  116MOL0     H15656   7.325   8.828   1.674  3.5971 -2.2865 -2.0905
  116MOL0     H15657   7.476   8.814   1.746  1.3107  0.4269 -0.6027
  116MOL0     H15658   7.322   8.991   2.075 -0.6501 -0.4316  0.1456
  116MOL0     H15659   7.055   8.294   1.772  1.0721  3.3296 -0.4492
  116MOL0     H15660   6.858   8.159   1.705 -1.2158 -0.5211 -0.8943
  117MOL0     O15661   9.946   7.515   3.818  0.1170  0.1729 -0.9033
  117MOL0     C15662   9.941   7.547   3.704 -0.1142 -0.1184  0.0216
  117MOL0     O15663   9.870   7.657   3.656  0.4548 -0.5886  0.3235
  117MOL0     C15664   9.840   7.762   3.751  0.1271  0.0867  0.5851
  117MOL0     C15665   9.783   7.739   3.877  0.9577 -0.1380 -0.2146
  117MOL0     C15666   9.754   7.840   3.961 -0.6026 -0.4113  0.4626
  117MOL0     C15667   9.784   7.966   3.927  0.3826  0.1732 -0.1419
  117MOL0     O15668   9.746   8.060   4.019  0.4267  0.0614 -0.3812
  117MOL0     C15669   9.605   8.099   4.011 -0.4602 -0.0441  0.4359
  117MOL0     C15670   9.578   8.233   3.946  0.2250 -0.0365  0.4228
  117MOL0     C15671   9.430   8.263   3.970  0.6404  0.4520 -0.1627
  117MOL0     C15672   9.394   8.393   3.896  0.0791  0.0829 -0.9172
  117MOL0     C15673   9.257   8.444   3.939 -0.0547  0.3692  0.1898
  117MOL0     C15674   9.232   8.586   3.886  0.4375  0.2492  0.5468
  117MOL0     C15675   9.085   8.636   3.907 -0.7577 -0.1398 -0.1398
  117MOL0     C15676   8.979   8.570   3.825 -0.0788  0.4789  1.4845
  117MOL0     N15677   9.011   8.571   3.679 -0.1659 -0.0372  0.6029
  117MOL0     C15678   9.016   8.682   3.591  0.3323  0.3196 -0.2487
  117MOL0     C15679   9.036   8.626   3.468  0.3274  0.2436  0.3612
  117MOL0     C15680   9.034   8.698   3.337  0.3722 -0.1231  0.0951
  117MOL0     C15681   9.178   8.699   3.270  1.0347 -0.0363  0.0381
  117MOL0     C15682   9.203   8.801   3.163  0.5956  0.8424 -0.3272
  117MOL0     C15683   9.090   8.805   3.062 -0.6453  0.0113  0.2387
  117MOL0     O15684   9.124   8.841   2.923 -0.4892 -0.0752 -0.4102
  117MOL0     C15685   9.024   8.903   2.858  0.6548  0.0078 -0.0286
  117MOL0     C15686   9.065   9.004   2.777 -0.1480  1.3659 -0.8798
  117MOL0     C15687   8.974   9.086   2.710  0.0814 -0.2261 -0.0241
  117MOL0     C15688   9.034   9.197   2.636  0.0907 -0.0423 -0.0612
  117MOL0     C15689   8.834   9.064   2.724  0.6145  0.7470 -0.1705
  117MOL0     C15690   8.727   9.149   2.659  0.2093 -0.2261  0.7129
  117MOL0     O15691   8.603   9.093   2.665  0.4984  0.3334  0.0357
  117MOL0     C15692   8.522   9.121   2.557 -0.5223  0.3646 -0.3217
  117MOL0     C15693   8.555   9.080   2.420  0.0917 -0.1230 -0.6890
  117MOL0     C15694   8.459   9.098   2.313  0.5061 -0.8532 -0.1595
  117MOL0     C15695   8.329   9.142   2.349  0.0467  0.6452 -0.3345
  117MOL0     O15696   8.217   9.150   2.272  0.3312 -0.4616  0.1818
  117MOL0     C15697   8.239   9.124   2.136 -0.3785  0.3127  0.2876
  117MOL0     C15698   8.109   9.134   2.065 -0.2656  0.5914  0.2049
  117MOL0     C15699   8.027   9.265   2.084 -0.1823  0.2455  0.1542
  117MOL0     C15700   8.114   9.388   2.040 -0.4700  0.4457 -0.2335
  117MOL0     C15701   8.155   9.385   1.896 -0.6651  1.4878  0.4142
  117MOL0     C15702   8.227   9.512   1.848  0.0442 -0.0016 -0.4342
  117MOL0     C15703   8.321   9.486   1.725  0.8768  0.1806  0.2275
  117MOL0     C15704   8.389   9.609   1.667  0.1704  0.1907  0.6942
  117MOL0    Cl15705   8.281   9.745   1.659 -0.3358  0.2469  0.0488
  117MOL0     C15706   8.302   9.173   2.488  0.7527  0.1348  0.1746
  117MOL0     C15707   8.393   9.170   2.583 -0.5538 -0.4108  0.0595
  117MOL0     O15708   8.751   9.258   2.603  0.2667  0.3098 -0.7440
  117MOL0     C15709   8.796   8.943   2.794  0.6023 -0.7740  0.6910
  117MOL0     C15710   8.890   8.870   2.860  0.5162 -0.2006  0.2049
  117MOL0     N15711   9.075   8.494   3.488  0.0836  0.2300  0.6813
  117MOL0     N15712   9.038   8.462   3.604  1.6631  0.3594 -0.2883
  117MOL0     C15713   9.842   7.998   3.806 -0.4003 -0.5663 -0.4162
  117MOL0     C15714   9.865   7.893   3.716 -1.2877 -0.0666 -0.5225
  117MOL0     C15715  10.016   7.466   3.599 -0.1207 -0.5144  1.0022
  117MOL0     C15716   9.984   7.478   3.465 -0.1786 -0.9106  0.0559
  117MOL0     C15717  10.036   7.387   3.373 -0.7341 -0.2203 -0.0856
  117MOL0     C15718  10.146   7.305   3.404  0.7746 -0.3097 -0.0005
  117MOL0     O15719  10.202   7.205   3.323 -0.3128 -0.0369  0.5133
  117MOL0     C15720  10.119   7.160   3.218  0.2490  0.0033 -0.0264
  117MOL0     C15721   9.990   7.097   3.269 -0.2641 -0.1750 -0.2359
  117MOL0     C15722   9.901   7.042   3.151  0.5458 -0.0406  0.8786
  117MOL0     C15723   9.790   6.958   3.204 -0.4385 -0.3035  0.1242
  117MOL0     C15724   9.670   7.033   3.250 -0.2130 -0.1825  0.6486
  117MOL0     C15725   9.575   7.086   3.291 -0.2018  0.6497  0.8016
  117MOL0     C15726  10.190   7.300   3.537  0.2066 -1.2521 -0.5611
  117MOL0     C15727  10.123   7.380   3.636 -0.1002  0.3389  0.2460
  117MOL0     H15728   9.762   7.639   3.913 -0.6508 -0.7450 -2.6569
  117MOL0     H15729   9.703   7.820   4.055 -1.0235 -1.4691  0.0215
  117MOL0     H15730   9.540   8.028   3.958 -0.5932 -0.4477  1.1115
  117MOL0     H15731   9.567   8.099   4.114 -2.7326  0.4573 -0.3466
  117MOL0     H15732   9.640   8.305   4.000 -0.7893 -0.1032  1.7193
  117MOL0     H15733   9.603   8.235   3.839  4.5170 -0.1726  1.2476
  117MOL0     H15734   9.364   8.184   3.933  2.4402 -0.0762 -2.5083
  117MOL0     H15735   9.415   8.269   4.078  2.1755 -0.2646  0.1219
  117MOL0     H15736   9.463   8.470   3.932 -0.3904  0.3569 -0.5740
  117MOL0     H15737   9.391   8.380   3.788  2.8684 -0.0753 -1.0398
  117MOL0     H15738   9.175   8.380   3.904 -0.3080  1.2267 -0.8510
  117MOL0     H15739   9.252   8.436   4.048 -3.0693 -1.4314  0.0344
  117MOL0     H15740   9.307   8.653   3.929  1.4223 -0.2416 -0.3603
  117MOL0     H15741   9.241   8.586   3.777  1.3593 -0.2516  0.6095
  117MOL0     H15742   9.054   8.620   4.011 -1.5347 -1.0752 -0.5002
  117MOL0     H15743   9.083   8.742   3.882 -1.8859 -0.3649 -1.0926
  117MOL0     H15744   8.877   8.605   3.842 -0.5349 -0.7200  1.3429
  117MOL0     H15745   8.967   8.464   3.851 -1.6414  0.0607 -0.7178
  117MOL0     H15746   8.992   8.786   3.610  1.2075  0.9213 -2.1420
  117MOL0     H15747   8.964   8.654   3.266  0.8774  1.3658 -1.3837
  117MOL0     H15748   9.004   8.801   3.358 -0.5885 -0.3426 -0.1367
  117MOL0     H15749   9.196   8.601   3.226  0.6614 -0.1014  0.0286
  117MOL0     H15750   9.256   8.723   3.344  0.8261  1.0853 -0.0891
  117MOL0     H15751   9.294   8.772   3.110  0.0750 -2.4614  0.3916
  117MOL0     H15752   9.219   8.900   3.208 -0.1992  0.4514  0.8634
  117MOL0     H15753   9.021   8.880   3.100 -1.3330 -0.4438 -0.0888
  117MOL0     H15754   9.045   8.705   3.067  1.9304 -1.1907  2.2055
  117MOL0     H15755   9.172   9.025   2.780  0.0861  0.1266  0.5426
  117MOL0     H15756   8.994   9.296   2.663  0.1586 -0.3880  1.3809
  117MOL0     H15757   9.138   9.223   2.659  0.3208 -0.4497 -0.6281
  117MOL0     H15758   9.019   9.182   2.529 -0.3402 -0.3665  0.0432
  117MOL0     H15759   8.650   9.030   2.406 -0.3697 -1.2886  0.0914
  117MOL0     H15760   8.489   9.071   2.212  2.2638  1.9319 -0.4985
  117MOL0     H15761   8.310   9.202   2.108 -0.5724  1.0307  1.6807
  117MOL0     H15762   8.283   9.026   2.119  1.1778  0.0936  4.4228
  117MOL0     H15763   8.132   9.104   1.962 -0.2161 -1.6274  0.8154
  117MOL0     H15764   8.049   9.052   2.104  1.8608 -1.3012 -0.2787
  117MOL0     H15765   8.010   9.279   2.191  0.1505 -0.7196  0.3419
  117MOL0     H15766   7.935   9.262   2.026  0.9403  0.6240 -1.7301
  117MOL0     H15767   8.070   9.486   2.061  1.9143  1.6917 -0.6421
  117MOL0     H15768   8.207   9.393   2.097  1.6058 -0.4632 -3.2801
  117MOL0     H15769   8.060   9.370   1.843 -0.4702 -3.8133  1.0241
  117MOL0     H15770   8.204   9.293   1.864 -3.2520  0.0420  0.3312
  117MOL0     H15771   8.153   9.588   1.823  2.2754  1.6568 -2.3827
  117MOL0     H15772   8.294   9.544   1.928 -0.3979 -2.3969  0.9891
  117MOL0     H15773   8.256   9.436   1.652 -0.5166  3.9790 -1.3760
  117MOL0     H15774   8.404   9.416   1.737  1.5230  0.9390  0.2600
  117MOL0     H15775   8.417   9.591   1.563  0.3563  1.7112  0.4576
  117MOL0     H15776   8.479   9.631   1.726  2.2549  0.9582 -2.4744
  117MOL0     H15777   8.197   9.187   2.513  0.9109  2.2098 -0.1235
  117MOL0     H15778   8.355   9.162   2.685 -0.4729 -0.1454  0.1109
  117MOL0     H15779   8.688   8.928   2.800  0.1749  1.0634 -1.2972
  117MOL0     H15780   8.842   8.792   2.918 -1.7391  0.7207 -0.2753
  117MOL0     H15781   9.868   8.103   3.796 -0.0013 -0.8170 -2.4244
  117MOL0     H15782   9.913   7.905   3.619  0.2763  0.0311  0.2301
  117MOL0     H15783   9.895   7.531   3.432  0.2928 -1.6969 -2.6732
  117MOL0     H15784  10.009   7.397   3.269 -0.8571 -0.1441 -0.0465
  117MOL0     H15785  10.104   7.240   3.144  0.6589  1.1279  1.0751
  117MOL0     H15786  10.166   7.083   3.156 -2.1131 -0.6360 -1.1268
  117MOL0     H15787   9.935   7.163   3.335  2.8651  0.3389  2.0556
  117MOL0     H15788  10.024   7.016   3.334  0.6206  1.5669  1.5473
  117MOL0     H15789   9.969   6.978   3.094 -0.3284 -0.5228  0.3535
  117MOL0     H15790   9.857   7.128   3.098 -1.1423 -1.5140 -0.2527
  117MOL0     H15791   9.841   6.903   3.284  1.2871 -0.5906 -1.1139
  117MOL0     H15792   9.755   6.886   3.129 -0.7661  0.2631 -0.2763
  117MOL0     H15793   9.492   7.133   3.339 -1.5634 -2.0867  1.2959
  117MOL0     H15794  10.284   7.254   3.567  1.6631  1.7649 -0.0611
  117MOL0     H15795  10.165   7.365   3.735 -1.2156  0.7090  0.7856
  118MOL0     O15796   6.363   8.853   7.309 -0.1963  0.0404  0.3644
  118MOL0     C15797   6.340   8.854   7.188  0.0108  0.6535 -0.1998
  118MOL0     O15798   6.221   8.837   7.124  0.1907  0.3391 -0.1147
  118MOL0     C15799   6.114   8.819   7.202  0.6353  0.5623  0.3910
  118MOL0     C15800   6.059   8.922   7.276  0.6264 -0.0077 -0.3536
  118MOL0     C15801   5.925   8.913   7.327 -1.1033 -0.7906 -0.1271
  118MOL0     C15802   5.841   8.807   7.293 -0.3745  0.5462  0.9049
  118MOL0     O15803   5.708   8.796   7.330 -0.1401 -0.6216  0.0280
  118MOL0     C15804   5.647   8.914   7.380  0.1430 -0.3326  0.0692
  118MOL0     C15805   5.497   8.886   7.389  0.0558  0.4794 -0.2968
  118MOL0     C15806   5.414   8.997   7.427  0.6800 -0.2805 -0.2097
  118MOL0     C15807   5.421   9.036   7.574 -0.7783  0.1839  0.0719
  118MOL0     C15808   5.303   9.124   7.620 -0.3447  0.3103 -0.0730
  118MOL0     C15809   5.344   9.203   7.742  0.1498 -0.3337  0.7107
  118MOL0     C15810   5.238   9.291   7.797  0.0418  0.1349 -0.7043
  118MOL0     C15811   5.265   9.328   7.938  0.3888  0.6431 -0.1372
  118MOL0     N15812   5.143   9.382   8.014  0.6255 -0.1053 -0.2773
  118MOL0     C15813   5.025   9.322   8.041 -0.7965  0.1770 -0.1949
  118MOL0     C15814   4.943   9.407   8.088 -0.5685 -0.6037 -0.1803
  118MOL0     C15815   4.801   9.374   8.134  0.2910  0.8502 -1.0416
  118MOL0     C15816   4.697   9.450   8.045  0.1005 -0.6403 -0.6683
  118MOL0     C15817   4.562   9.410   8.100 -0.3943 -0.0048  0.3266
  118MOL0     C15818   4.446   9.500   8.055  0.2442  0.7988 -0.7190
  118MOL0     O15819   4.321   9.470   8.122 -0.2745 -0.0378  0.5045
  118MOL0     C15820   4.208   9.513   8.061  0.5291  0.3246 -0.1948
  118MOL0     C15821   4.172   9.486   7.923 -0.4258 -0.4636 -0.5687
  118MOL0     C15822   4.046   9.530   7.878 -0.9230 -0.2646 -0.0121
  118MOL0     C15823   4.030   9.537   7.735  0.1661  0.0433  0.1461
  118MOL0     C15824   3.948   9.587   7.964 -0.4716  0.0182  0.2500
  118MOL0     C15825   3.814   9.626   7.927  0.2068 -1.0261  0.6982
  118MOL0     O15826   3.748   9.701   8.015 -0.3739  0.2556  0.3549
  118MOL0     C15827   3.613   9.707   8.001  0.2198 -0.5823 -0.1503
  118MOL0     C15828   3.527   9.609   8.074  0.0569  1.0504  0.6617
  118MOL0     C15829   3.392   9.621   8.067  0.0348  0.9014  0.0702
  118MOL0     C15830   3.328   9.719   7.996 -0.1139 -1.2032  0.1760
  118MOL0     O15831   3.180   9.718   7.994  0.4644 -0.5556 -0.2303
  118MOL0     C15832   3.115   9.750   8.121  0.2063 -0.6832 -0.5135
  118MOL0     C15833   2.964   9.712   8.114  0.2589  0.0721  0.0006
  118MOL0     C15834   2.876   9.739   8.240  0.1899 -0.1159 -0.3693
  118MOL0     C15835   2.726   9.727   8.213 -0.3511  0.2374  0.4595
  118MOL0     C15836   2.639   9.779   8.322  0.2299  0.8124  0.4042
  118MOL0     C15837   2.505   9.821   8.253 -0.4326 -0.1723  1.0494
  118MOL0     C15838   2.424   9.704   8.212  0.0172 -0.0580  0.2199
  118MOL0     C15839   2.325   9.737   8.106 -0.0938  0.4336 -0.5264
  118MOL0    Cl15840   2.172   9.790   8.195  0.2019  0.3085  0.0641
  118MOL0     C15841   3.403   9.812   7.918  0.1749  1.1487  1.1184
  118MOL0     C15842   3.545   9.808   7.929 -0.3083 -1.0449 -0.4017
  118MOL0     O15843   3.773   9.600   7.816  0.1390  0.0705 -0.4152
  118MOL0     C15844   3.992   9.616   8.100 -0.6606  0.4061 -0.6374
  118MOL0     C15845   4.119   9.582   8.146 -0.4880  0.9361  0.7552
  118MOL0     N15846   5.005   9.533   8.091  0.1336 -0.5353 -0.3321
  118MOL0     N15847   5.124   9.511   8.056 -0.1708  0.3735 -0.1939
  118MOL0     C15848   5.900   8.704   7.225 -0.5438  0.5760 -0.3154
  118MOL0     C15849   6.031   8.703   7.185 -0.0188  0.1487 -0.3999
  118MOL0     C15850   6.450   8.896   7.104  0.3878  0.0620 -0.3750
  118MOL0     C15851   6.443   8.901   6.968  0.4450  0.0966  0.5847
  118MOL0     C15852   6.549   8.953   6.897  0.5124  1.3046  0.2588
  118MOL0     C15853   6.668   8.983   6.967 -0.7748 -0.0416  0.6689
  118MOL0     O15854   6.779   9.036   6.910  0.1941  0.4682 -0.2239
  118MOL0     C15855   6.778   9.045   6.767 -0.0550 -0.7984 -0.7986
  118MOL0     C15856   6.918   9.059   6.702  0.3475 -0.1808  0.4510
  118MOL0     C15857   7.003   9.181   6.749 -0.6664  0.2599  0.0280
  118MOL0     C15858   6.933   9.319   6.744 -0.0507 -0.0446  0.0146
  118MOL0     C15859   6.855   9.343   6.860  1.3764  0.5885 -0.6763
  118MOL0     C15860   6.771   9.347   6.949  0.4696  0.3007 -0.4080
  118MOL0     C15861   6.680   8.969   7.099 -0.8814  0.0104 -0.0706
  118MOL0     C15862   6.573   8.919   7.164 -0.1631 -0.1540  0.1272
  118MOL0     H15863   6.103   9.019   7.295  1.8040 -0.0975 -2.4001
  118MOL0     H15864   5.896   8.992   7.395  1.7803  0.5612 -0.3517
  118MOL0     H15865   5.683   8.929   7.482  1.1472  1.7431 -0.5335
  118MOL0     H15866   5.663   8.999   7.314  1.2435 -1.1239 -0.7270
  118MOL0     H15867   5.464   8.846   7.293  0.0505  1.4247 -0.6953
  118MOL0     H15868   5.474   8.815   7.468  0.1346 -0.2333 -0.9049
  118MOL0     H15869   5.433   9.078   7.357  1.0236  0.6286  0.9033
  118MOL0     H15870   5.313   8.963   7.404 -0.7350  3.4315 -0.2192
  118MOL0     H15871   5.411   8.946   7.635  1.8582 -0.9081 -0.9508
  118MOL0     H15872   5.510   9.098   7.589  0.1036 -0.9476 -0.2737
  118MOL0     H15873   5.267   9.175   7.531  0.6626 -0.6592 -1.0663
  118MOL0     H15874   5.223   9.052   7.642  1.8035 -2.9395 -2.0910
  118MOL0     H15875   5.385   9.142   7.823 -1.8580 -0.6485  1.5365
  118MOL0     H15876   5.424   9.274   7.718 -0.4161  0.5118  1.2513
  118MOL0     H15877   5.229   9.384   7.739  1.2434  0.4187 -0.4558
  118MOL0     H15878   5.139   9.247   7.782  0.6947 -1.5842 -0.1996
  118MOL0     H15879   5.349   9.397   7.954 -0.7243  1.7045  1.3690
  118MOL0     H15880   5.286   9.234   7.989 -1.2673  0.1329 -0.3344
  118MOL0     H15881   5.001   9.218   8.025  0.2668  0.0198 -0.8698
  118MOL0     H15882   4.784   9.266   8.140 -0.9879  1.1127  2.5076
  118MOL0     H15883   4.788   9.409   8.237  0.8534  1.5691 -1.2085
  118MOL0     H15884   4.711   9.431   7.939 -0.6352  1.2976 -1.1478
  118MOL0     H15885   4.724   9.555   8.059  3.9817 -1.6219  0.6391
  118MOL0     H15886   4.562   9.412   8.210  2.0474  0.3440  0.3680
  118MOL0     H15887   4.545   9.304   8.079 -1.9640 -0.4778  3.3035
  118MOL0     H15888   4.433   9.513   7.948 -0.8017 -1.6654 -0.9474
  118MOL0     H15889   4.475   9.598   8.095  2.9417 -0.0305 -0.4729
  118MOL0     H15890   4.240   9.434   7.856 -0.4036  0.1889 -1.0616
  118MOL0     H15891   3.959   9.457   7.710  0.9735 -0.9278  0.8675
  118MOL0     H15892   3.997   9.637   7.708 -1.8411 -0.4792  0.5255
  118MOL0     H15893   4.122   9.519   7.679 -0.4471 -2.1389 -0.2799
  118MOL0     H15894   3.577   9.522   8.116 -0.5312  0.6955  0.6219
  118MOL0     H15895   3.338   9.546   8.124  1.9173 -1.8098 -1.4985
  118MOL0     H15896   3.146   9.695   8.210 -1.0260  1.5123  1.4128
  118MOL0     H15897   3.127   9.855   8.149  0.5390 -1.0863  0.9221
  118MOL0     H15898   2.916   9.766   8.032  1.1243  2.3170  0.8878
  118MOL0     H15899   2.962   9.606   8.087 -3.7701 -0.4625  1.6493
  118MOL0     H15900   2.908   9.839   8.271 -1.0601 -0.4642  2.3693
  118MOL0     H15901   2.888   9.671   8.325 -3.4924 -0.3283  0.1399
  118MOL0     H15902   2.711   9.788   8.124 -1.6112 -1.6303 -0.6936
  118MOL0     H15903   2.690   9.627   8.184 -0.6711  0.8384 -1.3438
  118MOL0     H15904   2.671   9.874   8.366 -0.4799  0.9001  0.7416
  118MOL0     H15905   2.624   9.700   8.396  4.4376 -1.2568 -0.6290
  118MOL0     H15906   2.440   9.882   8.317 -1.1182  1.2311 -0.8956
  118MOL0     H15907   2.529   9.883   8.167 -0.9941 -4.1079 -2.2712
  118MOL0     H15908   2.376   9.652   8.295 -0.1523 -1.6085 -0.8032
  118MOL0     H15909   2.491   9.631   8.166 -1.9090 -0.3423 -2.3617
  118MOL0     H15910   2.303   9.647   8.048 -0.7449  0.4709 -0.3496
  118MOL0     H15911   2.355   9.811   8.031  0.4887 -0.4261 -1.1620
  118MOL0     H15912   3.350   9.886   7.858 -0.0318  0.4133  0.3807
  118MOL0     H15913   3.604   9.882   7.876 -0.2518 -1.5188 -1.0097
  118MOL0     H15914   3.922   9.660   8.170 -4.0271  1.1990 -4.1719
  118MOL0     H15915   4.157   9.601   8.246 -1.2017 -1.8859  1.6710
  118MOL0     H15916   5.832   8.625   7.194  0.3575 -0.9582  1.4163
  118MOL0     H15917   6.069   8.621   7.125  2.1859 -0.0691  1.1448
  118MOL0     H15918   6.363   8.865   6.905  0.2258 -1.5995  1.7693
  118MOL0     H15919   6.524   8.960   6.791  0.9611 -2.3174 -0.1956
  118MOL0     H15920   6.737   8.949   6.733  1.5038 -2.3567  1.4372
  118MOL0     H15921   6.718   9.132   6.738  0.7285  0.6688  1.7261
  118MOL0     H15922   6.907   9.071   6.594  1.1700 -1.6109  0.1909
  118MOL0     H15923   6.966   8.963   6.723  0.5463  0.7968  5.6118
  118MOL0     H15924   7.085   9.187   6.676 -1.4070 -3.0289 -1.2432
  118MOL0     H15925   7.038   9.155   6.849  0.1745 -3.3927 -1.0394
  118MOL0     H15926   6.866   9.331   6.659 -0.7199 -1.1882  0.3638
  118MOL0     H15927   7.017   9.389   6.750  1.1137 -1.0075 -3.0397
  118MOL0     H15928   6.701   9.348   7.029  0.7005 -0.5953 -0.1787
  118MOL0     H15929   6.777   8.986   7.146 -1.8932  3.1968  1.1400
  118MOL0     H15930   6.589   8.896   7.268 -2.5906  1.3930  0.9377
  119MOL0     O15931   7.824   5.889   0.955  0.4482 -0.5763 -0.2273
  119MOL0     C15932   7.872   5.941   1.058  0.0620 -0.4265  0.0815
  119MOL0     O15933   7.817   6.030   1.146 -0.1593 -0.3349 -0.0608
  119MOL0     C15934   7.683   6.053   1.149 -0.8936 -0.5042 -0.3025
  119MOL0     C15935   7.587   5.952   1.165  0.1171 -0.1877  0.7425
  119MOL0     C15936   7.453   5.977   1.185 -0.2143  0.2112 -0.0413
  119MOL0     C15937   7.420   6.114   1.194  0.9644 -0.0290 -0.7379
  119MOL0     O15938   7.289   6.159   1.217 -0.6731  0.4506  0.1507
  119MOL0     C15939   7.178   6.060   1.214  0.0044 -0.2421 -0.0702
  119MOL0     C15940   7.047   6.131   1.230 -0.5971  0.6457  0.7824
  119MOL0     C15941   6.927   6.035   1.227  0.0028 -0.0975  0.2142
  119MOL0     C15942   6.800   6.101   1.217  0.6725  0.5386  0.4797
  119MOL0     C15943   6.686   6.023   1.276 -0.1469 -0.8371 -0.7600
  119MOL0     C15944   6.543   6.088   1.249 -0.0396 -0.4541  0.5793
  119MOL0     C15945   6.463   6.021   1.129 -0.1653  0.5330 -0.2046
  119MOL0     C15946   6.328   6.087   1.096  0.1398 -0.0101  0.9262
  119MOL0     N15947   6.216   6.010   1.165  0.0023 -0.2525  0.2808
  119MOL0     C15948   6.130   5.907   1.126 -0.3423 -0.1376  0.1862
  119MOL0     C15949   6.043   5.903   1.233  0.7614  0.1257 -0.6308
  119MOL0     C15950   5.918   5.825   1.249 -0.0457 -0.3749  0.1640
  119MOL0     C15951   5.835   5.819   1.124 -0.3567 -0.4478  1.0597
  119MOL0     C15952   5.785   5.955   1.067  0.5802  1.4738  0.1123
  119MOL0     C15953   5.639   5.988   1.113 -0.2016 -0.9906 -0.0541
  119MOL0     O15954   5.609   6.127   1.086 -0.3795 -0.0516  0.3457
  119MOL0     C15955   5.481   6.168   1.079 -0.6911 -0.6864  0.0368
  119MOL0     C15956   5.465   6.301   1.032 -0.0569 -0.7110 -0.5813
  119MOL0     C15957   5.340   6.359   1.013  0.2114  0.7160  0.2084
  119MOL0     C15958   5.338   6.507   0.995  0.1061  0.1939  0.2068
  119MOL0     C15959   5.228   6.282   1.026  0.0531  0.0891  0.0724
  119MOL0     C15960   5.096   6.327   0.997  0.8760 -0.4310  0.7966
  119MOL0     O15961   5.090   6.429   0.896  0.3712  0.2407 -0.8314
  119MOL0     C15962   4.972   6.479   0.852 -0.9486  1.5605  0.2181
  119MOL0     C15963   4.875   6.393   0.798  0.1745 -0.6796  0.6448
  119MOL0     C15964   4.760   6.443   0.733 -0.6866 -0.2243 -0.3989
  119MOL0     C15965   4.744   6.581   0.741  0.0358  0.0617  0.8077
  119MOL0     O15966   4.631   6.638   0.694 -0.2497  0.6390 -0.1213
  119MOL0     C15967   4.515   6.562   0.672 -0.0057  0.3019  0.1693
  119MOL0     C15968   4.377   6.613   0.629  0.3643  0.0419 -0.0128
  119MOL0     C15969   4.332   6.742   0.701  0.5225  0.4449  0.5265
  119MOL0     C15970   4.178   6.748   0.698  0.3613 -0.8769 -1.1029
  119MOL0     C15971   4.110   6.760   0.570  0.6222  0.4421  0.9081
  119MOL0     C15972   3.964   6.786   0.578  0.7675  0.0890 -0.2321
  119MOL0     C15973   3.884   6.696   0.674  0.0911  0.2970 -0.1600
  119MOL0     C15974   3.742   6.738   0.673  0.2549 -0.4188  0.2587
  119MOL0    Cl15975   3.719   6.916   0.716  0.2931 -0.3121  0.1989
  119MOL0     C15976   4.830   6.661   0.803 -1.0359 -0.5253  0.7735
  119MOL0     C15977   4.955   6.616   0.854  0.4678 -0.3448  0.1825
  119MOL0     O15978   4.996   6.276   1.057 -0.5814  0.1054 -0.2713
  119MOL0     C15979   5.243   6.150   1.077  0.1644 -0.4382  0.1728
  119MOL0     C15980   5.371   6.097   1.109  0.3009 -0.2821  0.2672
  119MOL0     N15981   6.073   5.989   1.332 -0.0318  0.2308  0.1120
  119MOL0     N15982   6.184   6.049   1.288  0.0854  0.2751 -0.1619
  119MOL0     C15983   7.512   6.213   1.183 -0.7286 -0.4653  0.2924
  119MOL0     C15984   7.647   6.180   1.158 -0.6244  0.0166 -1.1011
  119MOL0     C15985   8.014   5.905   1.092 -0.2194  0.2591  0.4423
  119MOL0     C15986   8.092   5.965   1.194 -0.1419  0.4202 -0.3946
  119MOL0     C15987   8.227   5.929   1.206 -0.8470 -0.6907  0.0298
  119MOL0     C15988   8.278   5.828   1.126 -0.3787 -0.1365 -0.0820
  119MOL0     O15989   8.414   5.793   1.140 -0.2975 -0.0739 -0.7328
  119MOL0     C15990   8.488   5.775   1.015 -0.1875  0.1881  0.1533
  119MOL0     C15991   8.637   5.749   1.047  0.0086  0.3964  0.0728
  119MOL0     C15992   8.706   5.872   1.114 -0.7142  0.1043  0.6578
  119MOL0     C15993   8.842   5.836   1.173 -0.5378 -0.7623  0.6254
  119MOL0     C15994   8.910   5.949   1.241  0.3426  0.4155  0.3335
  119MOL0     C15995   8.980   6.038   1.291  0.6287  0.7376  0.0349
  119MOL0     C15996   8.204   5.768   1.023  1.1890 -0.0046  0.9190
  119MOL0     C15997   8.075   5.806   1.015 -0.0550 -0.3609 -0.6150
  119MOL0     H15998   7.622   5.849   1.165 -0.5882 -0.5024 -1.9799
  119MOL0     H15999   7.388   5.890   1.186  3.2335 -2.6005 -1.5796
  119MOL0     H16000   7.168   6.020   1.113 -4.3988  0.1952  0.0159
  119MOL0     H16001   7.195   5.987   1.294  2.9441  0.8855  0.4695
  119MOL0     H16002   7.053   6.204   1.312 -0.1033  0.2418  1.1159
  119MOL0     H16003   7.031   6.197   1.145 -1.7460  0.1170  0.5693
  119MOL0     H16004   6.936   5.969   1.141  0.4514  0.5832 -0.2764
  119MOL0     H16005   6.929   5.982   1.323 -0.6061  1.1342  0.9462
  119MOL0     H16006   6.812   6.188   1.282 -2.0440 -1.0937  3.4463
  119MOL0     H16007   6.772   6.127   1.114 -0.2889 -2.9983 -0.3087
  119MOL0     H16008   6.689   5.918   1.245 -0.9134 -0.7926 -0.9873
  119MOL0     H16009   6.690   6.032   1.385  1.2704  0.5147 -0.8907
  119MOL0     H16010   6.476   6.072   1.333  0.9319  1.9629  1.8856
  119MOL0     H16011   6.536   6.196   1.239 -0.9039 -0.6186 -0.9397
  119MOL0     H16012   6.528   6.041   1.043  0.2197  0.6488  0.1104
  119MOL0     H16013   6.444   5.914   1.139 -0.1349  0.5526  0.0547
  119MOL0     H16014   6.311   6.097   0.989  1.4510 -0.6430  0.6466
  119MOL0     H16015   6.325   6.191   1.130  0.9116  0.5008 -0.4964
  119MOL0     H16016   6.125   5.848   1.036 -1.7109  2.4961 -1.6195
  119MOL0     H16017   5.950   5.727   1.285  0.4411 -0.1629  0.3090
  119MOL0     H16018   5.848   5.867   1.322  0.1995 -1.1955  0.8832
  119MOL0     H16019   5.762   5.738   1.127  0.7269 -1.4345  1.5285
  119MOL0     H16020   5.903   5.775   1.050 -0.1632 -2.3859  2.3264
  119MOL0     H16021   5.783   5.950   0.958  0.6587 -1.3893  0.1635
  119MOL0     H16022   5.844   6.039   1.104  2.3085  0.2078  0.3729
  119MOL0     H16023   5.658   5.987   1.221  2.1920  3.9625 -0.1559
  119MOL0     H16024   5.566   5.920   1.067  0.9435 -0.0175 -3.6073
  119MOL0     H16025   5.549   6.364   1.005 -1.9934  3.0195  1.1909
  119MOL0     H16026   5.422   6.557   1.044  1.2947 -2.1336  0.7104
  119MOL0     H16027   5.339   6.522   0.887  0.0378  0.6327  0.2651
  119MOL0     H16028   5.250   6.555   1.038 -2.6660 -2.0514 -2.5747
  119MOL0     H16029   4.880   6.285   0.811 -1.3327 -1.2431 -2.5730
  119MOL0     H16030   4.689   6.378   0.682 -0.3367 -0.0391 -1.1335
  119MOL0     H16031   4.534   6.483   0.599 -4.8579 -2.5329  1.4815
  119MOL0     H16032   4.493   6.507   0.764  0.9282 -0.7304 -0.2108
  119MOL0     H16033   4.400   6.635   0.524  2.1257  0.0151  0.3297
  119MOL0     H16034   4.305   6.531   0.641 -0.2113  0.4516 -0.5920
  119MOL0     H16035   4.380   6.825   0.648 -0.8966  0.5156 -0.6859
  119MOL0     H16036   4.367   6.740   0.805 -0.8607  0.2820  1.0066
  119MOL0     H16037   4.143   6.666   0.761  3.1703 -1.0665  0.3244
  119MOL0     H16038   4.160   6.828   0.771  2.9615  0.1858 -1.5438
  119MOL0     H16039   4.133   6.667   0.517  0.1196 -0.5160  2.3193
  119MOL0     H16040   4.157   6.839   0.510 -0.0088 -0.8813 -1.4574
  119MOL0     H16041   3.956   6.893   0.601 -2.4334 -0.4703  1.9937
  119MOL0     H16042   3.925   6.766   0.478 -2.3338 -0.0433  0.8750
  119MOL0     H16043   3.931   6.702   0.772  0.0276 -1.8593  0.0482
  119MOL0     H16044   3.895   6.594   0.636  0.0184  0.9253 -1.9404
  119MOL0     H16045   3.688   6.678   0.747 -1.6847 -1.3743 -1.8051
  119MOL0     H16046   3.694   6.705   0.580  2.5037 -0.6162 -0.8988
  119MOL0     H16047   4.807   6.767   0.796 -3.9403 -1.0776  0.8117
  119MOL0     H16048   5.026   6.686   0.896 -0.7496 -0.3713  2.4732
  119MOL0     H16049   5.156   6.085   1.079 -0.7109  0.5242 -2.5532
  119MOL0     H16050   5.380   5.995   1.144 -1.5507 -1.2973 -1.9283
  119MOL0     H16051   7.488   6.318   1.191  0.7567 -0.1007  0.3457
  119MOL0     H16052   7.726   6.253   1.173 -2.1944  1.2118  2.5746
  119MOL0     H16053   8.039   6.045   1.244  1.3251  1.4364 -0.3901
  119MOL0     H16054   8.274   5.991   1.282 -1.2747  1.3895 -1.3138
  119MOL0     H16055   8.449   5.688   0.962 -1.5092  0.5383  0.5131
  119MOL0     H16056   8.477   5.868   0.958 -0.1570  1.7251  2.5198
  119MOL0     H16057   8.693   5.738   0.953 -3.3773  1.7841 -2.3024
  119MOL0     H16058   8.648   5.657   1.105  3.1735  1.3711  1.2410
  119MOL0     H16059   8.652   5.917   1.198 -1.1021  1.3278 -0.2324
  119MOL0     H16060   8.718   5.943   1.032  3.1359  0.1236  1.0933
  119MOL0     H16061   8.904   5.807   1.088 -1.5778 -1.1693 -0.0145
  119MOL0     H16062   8.852   5.747   1.236 -0.2423 -2.5707 -1.8360
  119MOL0     H16063   9.040   6.115   1.337  1.5261 -0.6384  1.2490
  119MOL0     H16064   8.242   5.693   0.954  0.8550  0.9606 -0.3547
  119MOL0     H16065   8.014   5.752   0.943  0.3323 -1.4888 -0.1250
  120MOL0     O16066  10.129   2.062   9.220  0.5181  1.1648  0.3374
  120MOL0     C16067  10.142   2.069   9.340 -0.2878 -0.1706  0.5891
  120MOL0     O16068  10.050   2.033   9.438 -0.1978  0.3561  0.2280
  120MOL0     C16069   9.931   1.982   9.414 -0.0050 -0.2366 -0.6503
  120MOL0     C16070   9.826   2.021   9.495  0.3157 -0.3371  0.3082
  120MOL0     C16071   9.697   1.967   9.478 -1.0526 -0.6278 -0.3791
  120MOL0     C16072   9.671   1.872   9.387  0.3494  0.3092 -0.3407
  120MOL0     O16073   9.545   1.817   9.390 -0.6785 -0.3090  0.0478
  120MOL0     C16074   9.485   1.774   9.513 -0.5401  0.0124  0.7169
  120MOL0     C16075   9.363   1.684   9.491  0.2654 -0.0514  0.2639
  120MOL0     C16076   9.276   1.658   9.605  0.4573  0.6788  0.0638
  120MOL0     C16077   9.353   1.589   9.714 -1.0037 -0.0093 -0.2572
  120MOL0     C16078   9.264   1.580   9.834 -0.7558 -0.4889  0.0062
  120MOL0     C16079   9.314   1.476   9.943 -0.4193 -0.7225  0.0459
  120MOL0     C16080   9.417   1.533  10.035  0.1231 -0.2554 -0.1445
  120MOL0     C16081   9.488   1.442  10.133 -0.3207  0.2693  0.1964
  120MOL0     N16082   9.396   1.357  10.206  0.9585 -0.0723 -0.0611
  120MOL0     C16083   9.315   1.389  10.314 -0.2524  0.3714  0.1045
  120MOL0     C16084   9.250   1.277  10.349 -0.2696  0.6199  0.6348
  120MOL0     C16085   9.158   1.240  10.459 -0.9244  0.1503  0.0226
  120MOL0     C16086   9.012   1.229  10.419  0.0342  0.3557 -0.7767
  120MOL0     C16087   8.942   1.350  10.362 -0.5126 -0.2769 -0.0544
  120MOL0     C16088   8.796   1.329  10.335 -0.7292 -0.9165  0.3124
  120MOL0     O16089   8.790   1.268  10.209 -0.3265 -0.0901  0.1577
  120MOL0     C16090   8.684   1.294  10.128  0.1539  0.1562 -0.5855
  120MOL0     C16091   8.693   1.276   9.992 -0.1378 -0.3916 -0.1462
  120MOL0     C16092   8.585   1.295   9.901 -0.7652  0.2432  0.4844
  120MOL0     C16093   8.613   1.263   9.751 -0.1485  1.0595 -0.5418
  120MOL0     C16094   8.462   1.328   9.956  0.3878 -0.3122  0.7146
  120MOL0     C16095   8.339   1.350   9.875  0.6491  1.0186  0.1058
  120MOL0     O16096   8.247   1.450   9.916  0.3655 -0.4470  0.0846
  120MOL0     C16097   8.118   1.465   9.862 -0.5215  1.0319  0.2713
  120MOL0     C16098   8.077   1.583   9.805 -0.1106 -0.0544  0.0322
  120MOL0     C16099   7.944   1.605   9.759 -0.8469 -0.9235 -0.8294
  120MOL0     C16100   7.851   1.498   9.754  0.4179 -0.0539 -0.0904
  120MOL0     O16101   7.721   1.519   9.711  0.2304 -0.2913 -0.6236
  120MOL0     C16102   7.644   1.401   9.694 -0.0778 -0.2376  0.0746
  120MOL0     C16103   7.533   1.438   9.601  0.1216  0.3859 -0.3800
  120MOL0     C16104   7.582   1.514   9.480  0.6150 -0.5303  0.5123
  120MOL0     C16105   7.473   1.533   9.373 -1.0737  0.1536 -0.7602
  120MOL0     C16106   7.352   1.610   9.397 -0.3471 -0.5290  0.2534
  120MOL0     C16107   7.386   1.759   9.392  0.5623  0.4446  0.6637
  120MOL0     C16108   7.266   1.853   9.371 -0.7220 -0.3399  0.3932
  120MOL0     C16109   7.216   1.906   9.502  0.8882 -0.6752 -0.4633
  120MOL0    Cl16110   7.137   1.782   9.605 -0.0719  0.0051  0.5809
  120MOL0     C16111   7.899   1.378   9.812  0.3083  0.1976 -0.4143
  120MOL0     C16112   8.029   1.356   9.854  0.3095 -0.1139 -0.6239
  120MOL0     O16113   8.325   1.276   9.775  0.0864 -0.0705 -0.5024
  120MOL0     C16114   8.452   1.360  10.098  0.4913 -0.5039  0.5737
  120MOL0     C16115   8.559   1.329  10.181  0.7328 -0.4472  1.2028
  120MOL0     N16116   9.285   1.180  10.251  0.2450  0.3494  0.1662
  120MOL0     N16117   9.370   1.226  10.169  0.1414  0.5956 -0.3069
  120MOL0     C16118   9.775   1.840   9.288  0.1525 -0.4745  0.2428
  120MOL0     C16119   9.906   1.889   9.308  0.4219 -0.0534 -1.2187
  120MOL0     C16120  10.272   2.103   9.402 -0.4082 -0.2259  0.2664
  120MOL0     C16121  10.367   2.178   9.324  0.2613 -0.8035  0.7388
  120MOL0     C16122  10.493   2.206   9.374 -0.4492  0.5606  0.3134
  120MOL0     C16123  10.538   2.156   9.504 -0.0951  0.0117  0.2799
  120MOL0     O16124  10.673   2.170   9.543 -0.0242 -0.3860 -0.2501
  120MOL0     C16125  10.774   2.152   9.444 -0.1157  0.0614 -0.6279
  120MOL0     C16126  10.897   2.098   9.514  0.4814 -1.3562 -0.6485
  120MOL0     C16127  10.941   2.189   9.633 -1.3468  0.4584 -0.5286
  120MOL0     C16128  11.085   2.153   9.669  0.3294 -0.6291 -0.1416
  120MOL0     C16129  11.109   2.019   9.707  0.3098  0.6716  0.5193
  120MOL0     C16130  11.141   1.899   9.720 -0.6937 -0.1159  0.9979
  120MOL0     C16131  10.445   2.091   9.588  0.7951  0.2124  0.7581
  120MOL0     C16132  10.315   2.070   9.534 -0.0590  0.0484  0.3570
  120MOL0     H16133   9.839   2.091   9.577  1.0211 -1.8041  1.4902
  120MOL0     H16134   9.635   1.998   9.562  0.3758  1.1751  0.0690
  120MOL0     H16135   9.555   1.723   9.579  0.1514 -0.4512 -0.3631
  120MOL0     H16136   9.450   1.865   9.563 -0.1334 -0.5322  2.0324
  120MOL0     H16137   9.308   1.732   9.409  1.6438 -0.5704 -1.0172
  120MOL0     H16138   9.403   1.591   9.450  0.2258 -0.0612  0.2473
  120MOL0     H16139   9.236   1.758   9.627 -0.2272  0.7521 -1.4153
  120MOL0     H16140   9.194   1.593   9.572  0.1624 -0.3546  2.5612
  120MOL0     H16141   9.373   1.488   9.677 -0.7526 -0.4131  0.9227
  120MOL0     H16142   9.446   1.643   9.733 -0.8760  0.6287 -2.4879
  120MOL0     H16143   9.258   1.678   9.883 -1.5366 -0.2014 -0.6537
  120MOL0     H16144   9.161   1.560   9.807 -1.2438 -2.1152  2.7299
  120MOL0     H16145   9.235   1.438  10.009  1.8529 -2.0675  2.1755
  120MOL0     H16146   9.348   1.389   9.887  1.5392  0.7945 -1.2403
  120MOL0     H16147   9.496   1.567   9.967  1.3706 -1.2924  0.7361
  120MOL0     H16148   9.369   1.610  10.096  2.7038  1.7271 -0.4482
  120MOL0     H16149   9.545   1.507  10.200  2.5843  0.6178 -2.3909
  120MOL0     H16150   9.557   1.377  10.077 -0.8012 -0.8654  0.8848
  120MOL0     H16151   9.318   1.487  10.360  0.4443  0.8313 -0.8742
  120MOL0     H16152   9.189   1.140  10.492 -2.2595  0.1782  1.4590
  120MOL0     H16153   9.188   1.308  10.538 -0.6354  3.4337 -2.7093
  120MOL0     H16154   8.951   1.196  10.504 -1.2801  0.9233 -1.4698
  120MOL0     H16155   8.997   1.149  10.346 -1.3929 -0.6875  0.5740
  120MOL0     H16156   8.990   1.383  10.270  0.5908 -0.1315  0.5548
  120MOL0     H16157   8.944   1.425  10.443 -1.3452 -0.8074  0.4717
  120MOL0     H16158   8.745   1.424  10.352  0.7172 -0.5239  3.1243
  120MOL0     H16159   8.766   1.263  10.418 -1.9412 -1.6866 -0.7116
  120MOL0     H16160   8.790   1.251   9.951 -0.4355 -2.6446  0.3702
  120MOL0     H16161   8.559   1.175   9.712  0.4878 -0.6012  2.0481
  120MOL0     H16162   8.588   1.347   9.686 -0.2307  0.9904 -0.6008
  120MOL0     H16163   8.720   1.243   9.742 -0.2979  0.6744 -1.6440
  120MOL0     H16164   8.138   1.673   9.806  0.6240 -0.5080  2.2636
  120MOL0     H16165   7.913   1.707   9.737  3.0087  0.4803 -0.6730
  120MOL0     H16166   7.706   1.319   9.656 -1.7179 -1.3083 -0.4301
  120MOL0     H16167   7.604   1.356   9.786  2.2267 -1.4230  0.5776
  120MOL0     H16168   7.471   1.354   9.569  0.3218 -0.9341  2.4029
  120MOL0     H16169   7.473   1.506   9.662  0.0633 -0.2901  0.3219
  120MOL0     H16170   7.666   1.460   9.435 -0.2313  0.3612 -2.3546
  120MOL0     H16171   7.609   1.610   9.523 -1.2079  0.0309  0.4902
  120MOL0     H16172   7.524   1.575   9.286  1.1829 -0.0916  0.3470
  120MOL0     H16173   7.431   1.436   9.346 -0.8101 -0.1333 -0.1464
  120MOL0     H16174   7.301   1.585   9.490 -0.0434  0.6439  0.7501
  120MOL0     H16175   7.285   1.596   9.311 -2.2505  1.2077  1.3690
  120MOL0     H16176   7.445   1.786   9.480  0.7547 -1.6517  1.2424
  120MOL0     H16177   7.451   1.773   9.305  0.1886 -2.4603 -0.1726
  120MOL0     H16178   7.189   1.801   9.313  1.6938 -1.9319 -1.6075
  120MOL0     H16179   7.287   1.940   9.308 -1.4788  0.4127  1.1547
  120MOL0     H16180   7.156   1.996   9.492  1.3144 -0.1694  1.2356
  120MOL0     H16181   7.298   1.950   9.559  0.8705 -1.0714 -0.1214
  120MOL0     H16182   7.837   1.289   9.820  0.4078  0.2110  0.6313
  120MOL0     H16183   8.060   1.261   9.896 -1.0372 -0.7496 -1.0171
  120MOL0     H16184   8.368   1.417  10.135 -0.0097  0.4178 -1.7753
  120MOL0     H16185   8.541   1.355  10.285  0.8096 -2.6521  1.8169
  120MOL0     H16186   9.757   1.781   9.199  4.0268 -0.7052 -0.5619
  120MOL0     H16187   9.989   1.867   9.242  0.7025 -1.8147 -0.3476
  120MOL0     H16188  10.345   2.223   9.228  1.9246  1.7477  1.4345
  120MOL0     H16189  10.561   2.265   9.314  0.6023 -0.6040  0.3000
  120MOL0     H16190  10.733   2.097   9.359 -1.4318 -0.8255  0.5383
  120MOL0     H16191  10.793   2.250   9.401 -0.7789  1.3889  1.9116
  120MOL0     H16192  10.975   2.079   9.440  2.1451 -3.3476  1.4539
  120MOL0     H16193  10.865   2.004   9.561  0.3186 -0.5336  0.9752
  120MOL0     H16194  10.876   2.169   9.718 -2.3067  0.8183 -1.1654
  120MOL0     H16195  10.930   2.294   9.606 -0.6450  0.3467 -1.3010
  120MOL0     H16196  11.135   2.215   9.744  1.7756 -2.8738  0.8587
  120MOL0     H16197  11.146   2.172   9.580  2.2942  0.6097  1.3788
  120MOL0     H16198  11.170   1.796   9.713  1.4876  0.4053  1.3971
  120MOL0     H16199  10.474   2.053   9.686  1.2519 -0.7651  0.2525
  120MOL0     H16200  10.241   2.028   9.601 -2.3644  0.3137 -1.8827
  121MOL0     O16201   1.695   3.065  10.794  0.0159 -0.2123 -0.7737
  121MOL0     C16202   1.751   3.076  10.680  0.0408  0.5474 -0.1432
  121MOL0     O16203   1.693   3.051  10.564  0.6021 -0.3845  0.1687
  121MOL0     C16204   1.554   3.014  10.569  0.5801  0.3629  0.1733
  121MOL0     C16205   1.517   2.885  10.609 -0.2240  0.5536  0.4618
  121MOL0     C16206   1.387   2.845  10.635 -0.3941 -0.1148  0.0214
  121MOL0     C16207   1.283   2.927  10.601 -0.5307  0.5133  0.2368
  121MOL0     O16208   1.153   2.898  10.638  0.3056  0.2790  0.3571
  121MOL0     C16209   1.049   2.899  10.537  0.2835  0.4687 -0.0745
  121MOL0     C16210   0.933   2.799  10.580  0.4876 -0.6708 -0.4136
  121MOL0     C16211   0.843   2.769  10.461 -0.7505  0.5992  0.3473
  121MOL0     C16212   0.709   2.698  10.499  0.1195  0.3067 -0.3093
  121MOL0     C16213   0.619   2.689  10.373 -0.3743  0.1909  0.2203
  121MOL0     C16214   0.553   2.824  10.344 -0.2659  0.5105  0.6037
  121MOL0     C16215   0.451   2.818  10.228 -0.4130 -0.0680  0.2333
  121MOL0     C16216   0.399   2.963  10.197 -0.4713 -0.2419 -0.5416
  121MOL0     N16217   0.299   2.952  10.091  0.2899 -0.7476  0.7598
  121MOL0     C16218   0.325   2.930   9.954  0.3182 -0.1305 -0.2907
  121MOL0     C16219   0.202   2.924   9.897 -0.5227  0.5169 -0.3388
  121MOL0     C16220   0.179   2.877   9.756  0.3538 -0.0235  0.4920
  121MOL0     C16221   0.182   2.983   9.645 -0.2405 -0.3159 -0.1240
  121MOL0     C16222   0.168   2.934   9.500 -0.4739  0.4493  0.6248
  121MOL0     C16223   0.049   2.849   9.468 -0.5165  0.3123  0.6873
  121MOL0     O16224  -0.078   2.915   9.470  0.5437  0.6353  0.3692
  121MOL0     C16225  -0.189   2.839   9.444  0.2011 -1.2922  0.2626
  121MOL0     C16226  -0.295   2.919   9.396 -0.7888 -0.4050 -0.3648
  121MOL0     C16227  -0.417   2.858   9.364  0.5574  0.3794  0.2121
  121MOL0     C16228  -0.532   2.957   9.343 -0.2357  0.5771  0.5500
  121MOL0     C16229  -0.442   2.725   9.376 -0.1920  0.5803 -0.1643
  121MOL0     C16230  -0.566   2.649   9.345  0.7016 -0.0834 -0.2414
  121MOL0     O16231  -0.648   2.695   9.240  0.0535 -0.2911 -0.0953
  121MOL0     C16232  -0.768   2.630   9.214 -0.3382 -1.0585 -0.5594
  121MOL0     C16233  -0.870   2.655   9.300  0.2054 -0.0348 -0.4542
  121MOL0     C16234  -0.988   2.587   9.290  0.1744  0.2289 -0.1002
  121MOL0     C16235  -1.024   2.510   9.181 -0.3467  0.1486  0.5595
  121MOL0     O16236  -1.155   2.474   9.171 -0.2057  0.7433  0.0259
  121MOL0     C16237  -1.199   2.408   9.045  0.1774  0.3742 -0.6674
  121MOL0     C16238  -1.350   2.401   9.060 -0.0424 -0.4981 -0.0536
  121MOL0     C16239  -1.420   2.333   8.946  0.2694  0.7300 -0.8148
  121MOL0     C16240  -1.574   2.316   8.968  0.7882 -0.8473 -0.2356
  121MOL0     C16241  -1.625   2.182   9.002  0.4320  0.1963  0.0159
  121MOL0     C16242  -1.781   2.165   9.002 -0.2770  0.4372  0.2740
  121MOL0     C16243  -1.808   2.031   9.072 -0.0252  0.2653  0.5572
  121MOL0     C16244  -1.763   1.904   9.000 -0.0905  0.2665  0.4885
  121MOL0    Cl16245  -1.810   1.909   8.826 -0.5974  0.3588 -0.2360
  121MOL0     C16246  -0.916   2.482   9.091  0.0341 -0.1556  0.3759
  121MOL0     C16247  -0.785   2.537   9.111 -0.2740  0.4913 -0.6303
  121MOL0     O16248  -0.581   2.539   9.401  0.7098 -0.2184 -0.2198
  121MOL0     C16249  -0.331   2.653   9.428  0.0989  0.1808 -0.0519
  121MOL0     C16250  -0.216   2.705   9.463 -0.3136  0.4123  0.0602
  121MOL0     N16251   0.101   2.933   9.998  0.1181  0.4591 -0.4367
  121MOL0     N16252   0.159   2.959  10.108  0.4455  0.1383  0.4653
  121MOL0     C16253   1.316   3.051  10.533  0.4768  0.5471 -0.4968
  121MOL0     C16254   1.451   3.095  10.527  0.4744  0.0970 -0.1812
  121MOL0     C16255   1.897   3.104  10.685 -0.1907 -0.6115  0.6938
  121MOL0     C16256   1.963   3.140  10.569 -0.3681  0.7557 -0.3255
  121MOL0     C16257   2.106   3.146  10.558  0.6191 -0.5977 -0.1851
  121MOL0     C16258   2.185   3.134  10.673 -0.1030 -0.8011  0.8041
  121MOL0     O16259   2.322   3.159  10.686  0.5774 -0.5053  0.4639
  121MOL0     C16260   2.402   3.175  10.570  0.5695 -0.7455 -1.0792
  121MOL0     C16261   2.552   3.160  10.597 -0.1896 -0.3688 -1.0806
  121MOL0     C16262   2.595   3.224  10.730  0.3151 -0.1844 -0.4748
  121MOL0     C16263   2.748   3.238  10.764 -0.4809  0.4922  0.6723
  121MOL0     C16264   2.769   3.358  10.849 -0.8408 -0.3442 -0.0314
  121MOL0     C16265   2.803   3.460  10.906  0.4743 -0.3043  0.2239
  121MOL0     C16266   2.118   3.095  10.792  0.5517 -0.2670  0.3109
  121MOL0     C16267   1.976   3.066  10.794 -0.6588 -0.8572 -0.6537
  121MOL0     H16268   1.592   2.810  10.631 -0.6367  0.8189  3.1856
  121MOL0     H16269   1.369   2.741  10.661  0.3869  0.3803  2.7883
  121MOL0     H16270   1.001   2.997  10.527 -3.0713 -0.4757  3.8242
  121MOL0     H16271   1.091   2.861  10.443  0.0205  2.5785 -1.0923
  121MOL0     H16272   0.972   2.709  10.629 -1.8138 -1.7360 -0.4118
  121MOL0     H16273   0.862   2.840  10.652 -0.5421 -4.8343  1.2923
  121MOL0     H16274   0.833   2.855  10.394 -0.4715 -0.9233 -1.7730
  121MOL0     H16275   0.896   2.692  10.404 -1.6825  1.0176 -1.1413
  121MOL0     H16276   0.737   2.601  10.542  1.6400  1.1434  0.7291
  121MOL0     H16277   0.665   2.758  10.579  0.1855  0.0516 -0.0802
  121MOL0     H16278   0.679   2.652  10.289  0.3457  1.2789  0.2393
  121MOL0     H16279   0.536   2.618  10.384 -1.0463  0.8477 -0.4401
  121MOL0     H16280   0.500   2.854  10.435 -1.3681 -1.7011  0.7644
  121MOL0     H16281   0.627   2.900  10.319  2.3459 -1.9039  0.5005
  121MOL0     H16282   0.491   2.774  10.136 -1.0999  3.2001 -1.8238
  121MOL0     H16283   0.371   2.750  10.259 -2.1023  1.3419 -0.8147
  121MOL0     H16284   0.477   3.033  10.166 -1.5030  1.2424  0.1162
  121MOL0     H16285   0.372   2.997  10.297  1.0773 -0.3816 -0.0400
  121MOL0     H16286   0.421   2.908   9.908  0.4351  0.1092 -0.1662
  121MOL0     H16287   0.248   2.799   9.721 -0.5207 -1.7139  2.3094
  121MOL0     H16288   0.081   2.830   9.756 -0.0892  0.7662 -1.8115
  121MOL0     H16289   0.277   3.037   9.651  0.3855 -1.3147 -0.7681
  121MOL0     H16290   0.099   3.052   9.664  0.2690  0.3923 -0.4351
  121MOL0     H16291   0.261   2.878   9.487  0.2740  1.4385  1.5123
  121MOL0     H16292   0.176   3.018   9.431  3.1875  0.1210  0.4070
  121MOL0     H16293   0.056   2.763   9.536 -1.2917  0.0907  0.4931
  121MOL0     H16294   0.073   2.800   9.373  0.7918 -0.8670  1.5660
  121MOL0     H16295  -0.283   3.026   9.411  2.1484 -0.9340  2.2300
  121MOL0     H16296  -0.498   3.059   9.361  1.5031  0.1042  0.1747
  121MOL0     H16297  -0.558   2.966   9.237 -0.2498  2.6805  0.6830
  121MOL0     H16298  -0.618   2.920   9.400  0.8685 -1.7323  0.8205
  121MOL0     H16299  -0.846   2.721   9.382 -1.6222 -0.3516  0.3870
  121MOL0     H16300  -1.064   2.610   9.365 -1.8977 -0.3226 -1.9102
  121MOL0     H16301  -1.157   2.466   8.963  1.6732  1.4031  0.7478
  121MOL0     H16302  -1.166   2.305   9.032 -3.4683 -0.9293 -0.7605
  121MOL0     H16303  -1.373   2.346   9.152 -1.3903  2.0157  1.2080
  121MOL0     H16304  -1.376   2.507   9.061  0.6908 -0.3117 -0.4005
  121MOL0     H16305  -1.377   2.234   8.932  0.6447  0.6872  0.5694
  121MOL0     H16306  -1.403   2.391   8.855 -0.4870 -0.3147 -1.6558
  121MOL0     H16307  -1.603   2.388   9.044 -0.5716 -0.8147 -0.7624
  121MOL0     H16308  -1.613   2.341   8.869  0.7033  2.3114  0.4980
  121MOL0     H16309  -1.582   2.160   9.100 -0.3451  2.3308  0.9158
  121MOL0     H16310  -1.584   2.115   8.927  0.2774  0.1712 -0.0467
  121MOL0     H16311  -1.831   2.245   9.057  1.5771  2.5763 -1.0063
  121MOL0     H16312  -1.823   2.165   8.901  1.2024  0.5030 -0.3581
  121MOL0     H16313  -1.916   2.024   9.090 -0.2293  1.0984 -0.3009
  121MOL0     H16314  -1.756   2.026   9.168 -0.1012 -0.7235  0.5604
  121MOL0     H16315  -1.822   1.817   9.030  0.2581 -1.1970 -2.6670
  121MOL0     H16316  -1.655   1.893   9.003  0.0762  1.6662  0.3837
  121MOL0     H16317  -0.939   2.422   9.003  3.5605 -3.2342  1.3033
  121MOL0     H16318  -0.700   2.514   9.048 -0.6191 -1.4334 -0.4342
  121MOL0     H16319  -0.350   2.550   9.456 -1.1067  0.8661  1.7928
  121MOL0     H16320  -0.132   2.643   9.494  0.3352  1.5878  0.6809
  121MOL0     H16321   1.241   3.125  10.505 -0.0682  1.4113  2.8111
  121MOL0     H16322   1.474   3.195  10.493 -0.6625  1.0108  1.5923
  121MOL0     H16323   1.912   3.160  10.475  1.4142 -0.4057 -1.6092
  121MOL0     H16324   2.153   3.184  10.469  1.1610  1.5701  0.9617
  121MOL0     H16325   2.366   3.102  10.497 -2.5717 -0.9216  0.4608
  121MOL0     H16326   2.375   3.272  10.527  0.1838 -0.2120  0.3015
  121MOL0     H16327   2.607   3.215  10.521 -2.2559  2.5903 -0.6120
  121MOL0     H16328   2.580   3.054  10.604 -3.0514 -1.2778 -1.7115
  121MOL0     H16329   2.552   3.164  10.811 -1.5201 -3.0583 -3.3441
  121MOL0     H16330   2.554   3.326  10.733  0.9099  0.0938 -1.3446
  121MOL0     H16331   2.804   3.245  10.670  1.1107 -5.9943  0.6720
  121MOL0     H16332   2.783   3.148  10.816 -1.6413  0.1604  0.9214
  121MOL0     H16333   2.834   3.550  10.955 -0.2828 -0.6150  1.3020
  121MOL0     H16334   2.172   3.079  10.885  0.9802  1.2969  0.3484
  121MOL0     H16335   1.934   3.027  10.886 -1.7015 -2.2032 -1.6543
  122MOL0     O16336   4.156   9.312   3.477 -0.3153 -0.8056 -0.0175
  122MOL0     C16337   4.194   9.287   3.589 -0.1814  0.1322  0.5528
  122MOL0     O16338   4.146   9.338   3.698 -0.3314 -0.2871 -0.7375
  122MOL0     C16339   4.041   9.419   3.683 -0.2830  0.0290  0.1782
  122MOL0     C16340   3.917   9.371   3.679  0.1610 -0.8957  1.7134
  122MOL0     C16341   3.814   9.453   3.661  1.0918  1.3284 -0.1891
  122MOL0     C16342   3.826   9.595   3.648 -0.6761  0.1599  0.5219
  122MOL0     O16343   3.717   9.677   3.645 -0.3451  0.4152 -0.1201
  122MOL0     C16344   3.611   9.629   3.556 -0.0537  0.0251 -0.0314
  122MOL0     C16345   3.506   9.731   3.512 -0.3217 -0.2006  0.5941
  122MOL0     C16346   3.404   9.680   3.415 -0.1738  0.0018 -0.7268
  122MOL0     C16347   3.312   9.802   3.385 -0.4349  0.0104 -0.0535
  122MOL0     C16348   3.184   9.745   3.318  0.1590 -0.3699  0.7736
  122MOL0     C16349   3.100   9.865   3.279 -1.0289 -0.0372 -0.4856
  122MOL0     C16350   2.971   9.812   3.211 -0.2878 -0.4697  0.1540
  122MOL0     C16351   2.880   9.931   3.167 -0.7397  0.3186 -0.3339
  122MOL0     N16352   2.750   9.894   3.116 -0.6428 -0.9694 -0.0464
  122MOL0     C16353   2.719   9.786   3.039  0.0889 -0.3672  0.1828
  122MOL0     C16354   2.588   9.788   3.041  0.7292 -0.2665 -0.6553
  122MOL0     C16355   2.499   9.693   2.962 -0.3121 -0.2853  0.0927
  122MOL0     C16356   2.362   9.757   2.936  0.1941  0.4048 -0.0390
  122MOL0     C16357   2.257   9.655   2.882 -0.5953  0.2874  0.0254
  122MOL0     C16358   2.118   9.710   2.867 -0.2379 -0.1723 -0.4712
  122MOL0     O16359   2.063   9.671   2.745  0.0579  0.1014 -0.4368
  122MOL0     C16360   1.978   9.751   2.683  0.1365 -0.4858 -0.0117
  122MOL0     C16361   1.922   9.873   2.732 -0.3726 -0.5037  0.7334
  122MOL0     C16362   1.827   9.948   2.656 -0.0732 -0.0250  0.4576
  122MOL0     C16363   1.786  10.077   2.723 -0.3132  0.7200  0.3511
  122MOL0     C16364   1.786   9.903   2.529  0.0839 -0.0633  0.2350
  122MOL0     C16365   1.687   9.962   2.447 -0.3983 -0.0483  0.2781
  122MOL0     O16366   1.599   9.880   2.376  0.7620 -0.1321 -0.5114
  122MOL0     C16367   1.477   9.937   2.348  0.0501 -0.8146  0.5984
  122MOL0     C16368   1.411   9.884   2.236  0.1568 -0.9196  0.5034
  122MOL0     C16369   1.280   9.934   2.204 -0.2122 -0.3305  0.6946
  122MOL0     C16370   1.208  10.026   2.285  0.1306  0.4652  0.9316
  122MOL0     O16371   1.072  10.050   2.247 -0.2816  0.2079 -0.3411
  122MOL0     C16372   1.004  10.156   2.314  1.2019 -0.0065  0.5658
  122MOL0     C16373   0.871  10.181   2.242  0.6780 -0.1495 -0.4888
  122MOL0     C16374   0.776  10.061   2.248 -0.4198 -0.2324  1.0940
  122MOL0     C16375   0.645  10.093   2.176  0.6186 -0.8087  0.2444
  122MOL0     C16376   0.542  10.191   2.247  0.3598 -0.0596 -0.1081
  122MOL0     C16377   0.470  10.114   2.357  0.1767  0.2314 -0.0110
  122MOL0     C16378   0.360  10.202   2.422 -0.1414 -0.0783 -0.7293
  122MOL0     C16379   0.281  10.135   2.526  0.1757  0.6245  0.0573
  122MOL0    Cl16380   0.151  10.250   2.590  0.2340  0.2047  0.6258
  122MOL0     C16381   1.276  10.084   2.393  0.4123 -0.3289 -0.3297
  122MOL0     C16382   1.407  10.037   2.424  0.3260 -0.1277  0.1619
  122MOL0     O16383   1.683  10.085   2.445 -0.4681  0.4925  0.1761
  122MOL0     C16384   1.849   9.788   2.479 -0.5881  0.5441 -0.8772
  122MOL0     C16385   1.946   9.714   2.554  0.5804  0.5136 -0.5079
  122MOL0     N16386   2.531   9.889   3.123 -0.3552  0.3246 -0.6443
  122MOL0     N16387   2.635   9.951   3.169  0.5225  0.0812  0.0420
  122MOL0     C16388   3.959   9.649   3.662  0.4940  0.9711  0.5352
  122MOL0     C16389   4.071   9.559   3.675 -0.2080 -0.8751 -0.2906
  122MOL0     C16390   4.283   9.163   3.600  0.5915  0.4467 -0.3939
  122MOL0     C16391   4.356   9.136   3.715  0.2593  0.5262 -0.6620
  122MOL0     C16392   4.427   9.016   3.727  0.6867  0.2464  0.2613
  122MOL0     C16393   4.446   8.934   3.617  0.1736  0.4089  0.6891
  122MOL0     O16394   4.539   8.834   3.624 -0.0826  0.0297  0.6385
  122MOL0     C16395   4.640   8.834   3.513 -0.0456 -0.3387 -0.4687
  122MOL0     C16396   4.775   8.798   3.574  0.4819  0.7009 -0.5561
  122MOL0     C16397   4.812   8.873   3.705  0.2872  0.4145  0.3970
  122MOL0     C16398   4.961   8.845   3.731 -0.5424 -0.3838 -1.2661
  122MOL0     C16399   4.996   8.701   3.732 -0.1006 -0.4065  0.6689
  122MOL0     C16400   5.024   8.590   3.707 -0.0908  1.6180 -0.1655
  122MOL0     C16401   4.371   8.949   3.503 -0.2776 -0.5023 -0.7522
  122MOL0     C16402   4.291   9.070   3.492 -1.2518  0.8783 -0.4281
  122MOL0     H16403   3.901   9.264   3.686  1.0351 -1.2833 -0.9877
  122MOL0     H16404   3.718   9.401   3.659  0.7266  1.9973 -0.9876
  122MOL0     H16405   3.663   9.612   3.462  0.0015  1.2085 -0.2256
  122MOL0     H16406   3.562   9.533   3.575 -0.9135  0.3236 -0.6990
  122MOL0     H16407   3.457   9.765   3.603  1.2197  3.3546  0.2675
  122MOL0     H16408   3.552   9.819   3.467  1.1295 -0.8228  0.8045
  122MOL0     H16409   3.453   9.636   3.328  2.6044  0.4879  0.4922
  122MOL0     H16410   3.343   9.597   3.452 -1.5307  0.2378 -2.3204
  122MOL0     H16411   3.289   9.861   3.474  1.8374  1.4307 -0.3421
  122MOL0     H16412   3.367   9.862   3.312 -0.2218 -1.2232 -0.9444
  122MOL0     H16413   3.202   9.670   3.240 -0.0018 -0.3044  0.6717
  122MOL0     H16414   3.127   9.691   3.394  2.2580 -0.5712  2.2914
  122MOL0     H16415   3.086   9.916   3.375  0.8939 -1.9421  0.9084
  122MOL0     H16416   3.148   9.926   3.202 -2.2487 -2.0092 -2.9638
  122MOL0     H16417   3.000   9.758   3.120  1.4825  2.2194 -0.9817
  122MOL0     H16418   2.919   9.740   3.276  1.1483 -1.0678  0.6946
  122MOL0     H16419   2.935   9.984   3.089 -1.0554  1.9202  0.4906
  122MOL0     H16420   2.865   9.993   3.256 -0.8266  1.0752 -0.8646
  122MOL0     H16421   2.787   9.727   2.979  2.5319  0.3920  2.0489
  122MOL0     H16422   2.546   9.659   2.870 -0.2214 -2.0781  0.7603
  122MOL0     H16423   2.498   9.598   3.016  1.3613 -0.3200  0.1041
  122MOL0     H16424   2.359   9.848   2.875  2.8905  1.2587  0.9785
  122MOL0     H16425   2.322   9.785   3.034 -0.6070  0.6316 -0.4230
  122MOL0     H16426   2.249   9.564   2.942  1.4430 -0.4198 -0.6853
  122MOL0     H16427   2.290   9.628   2.781  0.5366  0.7145  0.2775
  122MOL0     H16428   2.130   9.818   2.864  0.3198 -0.2281 -0.4018
  122MOL0     H16429   2.059   9.679   2.955  1.4933 -1.8737  0.1707
  122MOL0     H16430   1.959   9.920   2.823  0.9109  1.0598 -0.5522
  122MOL0     H16431   1.873  10.143   2.716 -1.3854  2.0212 -2.1891
  122MOL0     H16432   1.704  10.132   2.676  0.7902  1.6742 -0.5219
  122MOL0     H16433   1.754  10.052   2.825 -0.3759 -0.9663 -0.0553
  122MOL0     H16434   1.461   9.803   2.185  0.2419  1.0671 -2.8675
  122MOL0     H16435   1.226   9.869   2.135  2.2044 -0.6369 -1.0135
  122MOL0     H16436   0.967  10.116   2.409  2.3184 -1.4477  0.4263
  122MOL0     H16437   1.066  10.245   2.321  1.8109 -0.4582  0.9773
  122MOL0     H16438   0.825  10.271   2.283 -0.3980  0.0609 -2.0965
  122MOL0     H16439   0.890  10.200   2.136  1.1739 -0.5075 -0.4699
  122MOL0     H16440   0.757  10.040   2.354  0.3731 -1.1037  1.0742
  122MOL0     H16441   0.823   9.973   2.204  1.7661  0.5854  1.6695
  122MOL0     H16442   0.650  10.135   2.076 -0.3499  1.3604  1.0487
  122MOL0     H16443   0.594   9.996   2.165  1.3123 -0.9317 -2.8940
  122MOL0     H16444   0.465  10.219   2.175 -0.0628  0.1961  0.4359
  122MOL0     H16445   0.592  10.281   2.283  3.3604 -0.3870 -2.9710
  122MOL0     H16446   0.426  10.026   2.310 -1.7987  1.6567 -0.9532
  122MOL0     H16447   0.547  10.091   2.432  0.1281  0.3061  0.0628
  122MOL0     H16448   0.286  10.225   2.345 -2.3451 -0.3701  1.1633
  122MOL0     H16449   0.384  10.298   2.469 -2.6943 -0.9772  2.8459
  122MOL0     H16450   0.346  10.113   2.612  0.7972  1.0303 -0.3003
  122MOL0     H16451   0.245  10.038   2.493  0.1659 -0.1717  2.1943
  122MOL0     H16452   1.224  10.150   2.462  0.8763 -0.6873  0.3713
  122MOL0     H16453   1.449  10.076   2.516 -2.1735  3.2002  0.0826
  122MOL0     H16454   1.826   9.761   2.377  0.5589 -0.4547 -0.9018
  122MOL0     H16455   1.993   9.627   2.509  0.7646  0.0011  0.6455
  122MOL0     H16456   3.975   9.756   3.652 -0.4296  0.9192 -2.7400
  122MOL0     H16457   4.168   9.605   3.657 -1.2110  1.1705 -0.7766
  122MOL0     H16458   4.346   9.198   3.803  1.5422  0.0280 -0.1326
  122MOL0     H16459   4.483   8.978   3.812 -0.7064 -0.1836  1.0211
  122MOL0     H16460   4.597   8.768   3.437  1.1341  0.1879 -1.6300
  122MOL0     H16461   4.664   8.918   3.447  0.9203 -0.0396  0.2474
  122MOL0     H16462   4.854   8.816   3.501 -0.9447  1.4695 -1.9681
  122MOL0     H16463   4.758   8.693   3.598 -1.0604  0.6861 -1.6072
  122MOL0     H16464   4.757   8.829   3.788  0.1709  0.6693  0.4546
  122MOL0     H16465   4.798   8.981   3.699 -1.7273  0.1291 -1.7812
  122MOL0     H16466   4.987   8.880   3.832 -0.2739 -2.9861 -0.3596
  122MOL0     H16467   5.018   8.919   3.675 -0.7217  1.0832  0.4170
  122MOL0     H16468   5.053   8.491   3.679 -1.9029  0.7671  0.7721
  122MOL0     H16469   4.373   8.871   3.428  1.5539 -1.1822 -0.0407
  122MOL0     H16470   4.236   9.079   3.400  2.0381  2.8486 -2.4090
  123MOL0     O16471   0.196   3.260   7.529  0.7274 -0.7883 -0.7304
  123MOL0     C16472   0.168   3.134   7.528  0.1991 -0.8062 -1.2183
  123MOL0     O16473   0.045   3.074   7.518 -0.2190 -0.1243  0.1888
  123MOL0     C16474  -0.064   3.140   7.471  0.4083  1.0786 -0.4073
  123MOL0     C16475  -0.068   3.250   7.391  0.1358 -0.1763  0.0967
  123MOL0     C16476  -0.194   3.302   7.345 -0.2563 -0.1618 -0.8582
  123MOL0     C16477  -0.307   3.239   7.380  0.3794 -0.2309 -0.2423
  123MOL0     O16478  -0.436   3.264   7.337 -0.2690 -0.2896 -0.4925
  123MOL0     C16479  -0.465   3.390   7.275 -0.1457 -0.6286 -0.1772
  123MOL0     C16480  -0.600   3.365   7.212 -0.7531 -0.4496 -0.1213
  123MOL0     C16481  -0.639   3.475   7.108  0.4821 -0.0499 -0.2124
  123MOL0     C16482  -0.790   3.508   7.095  0.1834  0.0583  0.0543
  123MOL0     C16483  -0.867   3.388   7.036 -0.1400 -0.3878  0.2718
  123MOL0     C16484  -1.013   3.421   7.053  0.0803  0.4428  0.7068
  123MOL0     C16485  -1.117   3.317   7.003  0.0571 -0.0287 -0.0138
  123MOL0     C16486  -1.118   3.311   6.849 -0.3573  0.5331 -0.2309
  123MOL0     N16487  -1.170   3.439   6.793  0.1463  0.1028 -0.3366
  123MOL0     C16488  -1.098   3.544   6.746 -0.3579 -0.8701 -0.4139
  123MOL0     C16489  -1.183   3.636   6.699  0.3804  0.2491 -0.4795
  123MOL0     C16490  -1.160   3.776   6.635  0.9820  0.3122  0.4711
  123MOL0     C16491  -1.186   3.890   6.743  0.5957  0.6302 -0.0658
  123MOL0     C16492  -1.128   3.858   6.885 -0.0589  0.3729 -0.6052
  123MOL0     C16493  -0.976   3.869   6.902  0.3786  0.1832  0.5815
  123MOL0     O16494  -0.922   3.783   6.807 -0.1240  0.4751 -0.0829
  123MOL0     C16495  -0.787   3.759   6.801  0.1075  1.6758 -0.4352
  123MOL0     C16496  -0.753   3.683   6.686 -0.1007  1.0100 -0.2037
  123MOL0     C16497  -0.623   3.651   6.651 -0.0238 -0.6306  0.4333
  123MOL0     C16498  -0.608   3.560   6.523  0.7196  0.2300 -0.2901
  123MOL0     C16499  -0.522   3.704   6.741 -0.1883 -0.1780 -0.3983
  123MOL0     C16500  -0.376   3.692   6.710  0.3216  0.3882 -0.5386
  123MOL0     O16501  -0.288   3.707   6.813 -0.0198  0.8269  0.0140
  123MOL0     C16502  -0.171   3.628   6.805  0.4921 -0.2219 -0.1201
  123MOL0     C16503  -0.066   3.657   6.711 -0.3902 -0.4062 -0.2870
  123MOL0     C16504   0.046   3.581   6.717 -0.1948  0.0780  0.5683
  123MOL0     C16505   0.066   3.470   6.809  0.9333 -0.0673 -0.3939
  123MOL0     O16506   0.166   3.377   6.821  0.5141  0.2942 -0.0318
  123MOL0     C16507   0.274   3.395   6.724  0.1914 -1.0967  0.6233
  123MOL0     C16508   0.400   3.319   6.753 -0.1336 -0.5104 -0.9286
  123MOL0     C16509   0.511   3.351   6.645  0.3934  0.1408  0.2840
  123MOL0     C16510   0.622   3.243   6.660  0.3466  0.2786 -0.2449
  123MOL0     C16511   0.723   3.275   6.555  1.0758 -0.6578  0.0029
  123MOL0     C16512   0.828   3.166   6.561 -0.0133 -0.5725  0.3808
  123MOL0     C16513   0.948   3.196   6.465 -0.3042  0.4555  0.3539
  123MOL0     C16514   1.057   3.101   6.462 -0.3856 -0.8089 -0.4188
  123MOL0    Cl16515   1.158   3.131   6.596  0.1212 -0.2646 -0.1414
  123MOL0     C16516  -0.039   3.448   6.903 -0.0643 -0.0254 -0.4873
  123MOL0     C16517  -0.155   3.529   6.903 -0.3944  0.1170  0.2315
  123MOL0     O16518  -0.346   3.675   6.589 -0.0230  0.1976  0.0460
  123MOL0     C16519  -0.558   3.770   6.861 -0.1919  0.9364  0.4202
  123MOL0     C16520  -0.691   3.799   6.893 -0.4079  0.1865 -0.7192
  123MOL0     N16521  -1.312   3.594   6.735  0.5932  0.4895  0.3650
  123MOL0     N16522  -1.302   3.475   6.782 -0.0224 -0.3816 -0.6808
  123MOL0     C16523  -0.305   3.119   7.463 -0.1484 -0.7277  0.1434
  123MOL0     C16524  -0.183   3.075   7.513 -0.7167  0.0173  0.4581
  123MOL0     C16525   0.283   3.054   7.551 -0.1581  0.2897  0.2345
  123MOL0     C16526   0.274   2.917   7.505  0.1548  0.2976 -0.6121
  123MOL0     C16527   0.376   2.832   7.546  0.2814 -0.0248  0.1675
  123MOL0     C16528   0.502   2.878   7.594  0.4276 -0.1922  0.4468
  123MOL0     O16529   0.604   2.791   7.588 -1.1919 -0.1746  0.5541
  123MOL0     C16530   0.729   2.841   7.532  0.1095  0.1813  0.1143
  123MOL0     C16531   0.832   2.884   7.635  0.9852 -0.7068  0.8147
  123MOL0     C16532   0.969   2.912   7.568 -0.3798 -0.3726 -0.6303
  123MOL0     C16533   1.060   2.984   7.672 -0.1799 -0.6394 -0.0914
  123MOL0     C16534   1.195   3.015   7.631  0.7917  0.1702  0.7643
  123MOL0     C16535   1.306   3.021   7.571  0.7181  0.6380 -0.8665
  123MOL0     C16536   0.517   3.016   7.614 -0.1849 -0.3850 -1.0544
  123MOL0     C16537   0.403   3.103   7.607  0.8857 -0.6047  0.0963
  123MOL0     H16538   0.020   3.312   7.373 -0.0802 -0.1840 -1.1046
  123MOL0     H16539  -0.200   3.385   7.275  0.8046 -0.7604 -1.6896
  123MOL0     H16540  -0.463   3.475   7.343 -0.9548 -1.8923  1.4852
  123MOL0     H16541  -0.394   3.409   7.194 -1.2010 -0.4437 -1.0870
  123MOL0     H16542  -0.618   3.265   7.174  1.7784 -3.1249  4.7443
  123MOL0     H16543  -0.665   3.373   7.300 -2.5095  1.3139 -1.4873
  123MOL0     H16544  -0.588   3.566   7.142  2.6782 -2.0451  2.2652
  123MOL0     H16545  -0.599   3.443   7.011  0.6318  1.4408 -0.6761
  123MOL0     H16546  -0.819   3.552   7.191  1.9174  1.8837 -0.1705
  123MOL0     H16547  -0.806   3.582   7.015 -3.3725 -0.6999 -0.0976
  123MOL0     H16548  -0.834   3.359   6.936  1.5516  1.1097  0.3266
  123MOL0     H16549  -0.846   3.306   7.104 -2.1695 -1.0092  0.2028
  123MOL0     H16550  -1.027   3.432   7.161  0.1824  1.5457  0.6190
  123MOL0     H16551  -1.029   3.514   6.998 -0.4846 -0.4304 -0.6653
  123MOL0     H16552  -1.097   3.218   7.044 -2.2637 -0.0233  1.3356
  123MOL0     H16553  -1.216   3.347   7.038  0.3949  1.5570 -0.3213
  123MOL0     H16554  -1.195   3.235   6.836 -1.4168  1.5996 -0.3462
  123MOL0     H16555  -1.020   3.281   6.810 -1.0583  0.3453 -1.9265
  123MOL0     H16556  -0.991   3.554   6.760 -0.6505  1.0608  0.8040
  123MOL0     H16557  -1.058   3.780   6.595 -0.0418  0.9133 -2.3454
  123MOL0     H16558  -1.218   3.792   6.544 -0.4495 -0.3352  1.2410
  123MOL0     H16559  -1.295   3.900   6.753  0.5885 -1.0642  2.7176
  123MOL0     H16560  -1.141   3.983   6.706 -0.1772  0.7133 -0.8235
  123MOL0     H16561  -1.172   3.765   6.924  0.2788  0.2688 -0.4637
  123MOL0     H16562  -1.181   3.925   6.954 -0.3672 -1.6666  1.2721
  123MOL0     H16563  -0.938   3.838   6.999  1.4573 -1.1829 -0.2444
  123MOL0     H16564  -0.942   3.971   6.885  2.5608 -0.6455 -0.2892
  123MOL0     H16565  -0.827   3.644   6.617  1.1313 -0.3841 -0.7952
  123MOL0     H16566  -0.700   3.503   6.505  1.3001 -1.0384  0.5818
  123MOL0     H16567  -0.579   3.623   6.438 -1.0989  1.3485 -0.1326
  123MOL0     H16568  -0.527   3.491   6.548  0.7499  0.4967  0.3623
  123MOL0     H16569  -0.089   3.736   6.640 -0.1462 -2.5369 -2.9471
  123MOL0     H16570   0.118   3.610   6.641  0.2326 -0.5392  0.7265
  123MOL0     H16571   0.235   3.359   6.628  0.3623 -2.4802  1.0478
  123MOL0     H16572   0.305   3.500   6.718  2.1853 -1.5724  1.7219
  123MOL0     H16573   0.437   3.365   6.845 -0.9228  1.1335 -1.3912
  123MOL0     H16574   0.371   3.214   6.761 -1.0482 -0.1489  1.2248
  123MOL0     H16575   0.551   3.451   6.663  2.4194 -0.9214  2.1696
  123MOL0     H16576   0.460   3.347   6.548  0.4426 -1.4894  0.2964
  123MOL0     H16577   0.655   3.264   6.763  2.0018  1.3626 -0.9549
  123MOL0     H16578   0.579   3.145   6.637 -2.2926  0.9140  1.4115
  123MOL0     H16579   0.771   3.370   6.580 -0.6967  0.5287 -0.9253
  123MOL0     H16580   0.678   3.283   6.455  3.4629  0.1007 -1.0893
  123MOL0     H16581   0.881   3.156   6.656  0.6134  0.1931  0.1317
  123MOL0     H16582   0.783   3.074   6.524  0.7056 -0.3530 -1.1318
  123MOL0     H16583   0.993   3.293   6.487  1.4426  0.2794 -2.0329
  123MOL0     H16584   0.912   3.191   6.361 -0.3309 -1.7514  0.4201
  123MOL0     H16585   1.116   3.115   6.370 -1.8942 -2.6943 -1.7596
  123MOL0     H16586   1.017   2.999   6.469  0.9013 -1.3292 -0.3320
  123MOL0     H16587  -0.025   3.377   6.984 -1.6103 -1.1493 -1.1410
  123MOL0     H16588  -0.240   3.520   6.970 -0.3324 -1.3336  0.1415
  123MOL0     H16589  -0.485   3.801   6.935  1.0395 -1.2736  0.2153
  123MOL0     H16590  -0.719   3.848   6.986 -0.5606 -0.1097 -0.6063
  123MOL0     H16591  -0.402   3.076   7.483 -0.3819 -0.6692 -0.8136
  123MOL0     H16592  -0.175   2.983   7.570 -1.8325 -0.1695  0.3255
  123MOL0     H16593   0.186   2.862   7.473  0.3721  0.4493 -1.5217
  123MOL0     H16594   0.363   2.725   7.531 -1.3258  0.5673 -4.0105
  123MOL0     H16595   0.760   2.756   7.472 -2.2743  0.3528 -1.4808
  123MOL0     H16596   0.715   2.919   7.457  0.4521  0.4986  0.3758
  123MOL0     H16597   0.848   2.803   7.708  2.2852 -1.7905 -0.6074
  123MOL0     H16598   0.793   2.974   7.683 -2.0200 -0.3691 -1.9550
  123MOL0     H16599   0.967   2.970   7.475  2.4049  0.4079 -0.2922
  123MOL0     H16600   1.017   2.814   7.556  0.6021 -0.4414  2.9896
  123MOL0     H16601   1.065   2.917   7.758 -0.3216  0.4282  0.7759
  123MOL0     H16602   1.013   3.082   7.685 -2.8865 -1.4941 -2.5392
  123MOL0     H16603   1.400   3.008   7.521  0.6485 -1.3354 -0.5843
  123MOL0     H16604   0.613   3.060   7.639  0.6067 -1.8486 -1.4450
  123MOL0     H16605   0.413   3.206   7.640 -3.9190 -0.1802  0.9068
  124MOL0     O16606   7.544   5.166  10.593  0.1380  0.5300  0.2436
  124MOL0     C16607   7.562   5.290  10.575  0.4152 -0.0220 -0.0390
  124MOL0     O16608   7.471   5.385  10.592 -0.2478  0.1618 -0.1397
  124MOL0     C16609   7.351   5.346  10.644 -0.3377  0.2000  0.3998
  124MOL0     C16610   7.324   5.352  10.782  0.1328 -0.4335  1.3240
  124MOL0     C16611   7.192   5.322  10.819 -0.1441  0.0252  0.2829
  124MOL0     C16612   7.087   5.279  10.727  0.4385  0.6378 -0.8183
  124MOL0     O16613   6.956   5.253  10.766 -0.6829  0.0668  0.2260
  124MOL0     C16614   6.931   5.214  10.898 -0.6400 -0.0068 -0.1016
  124MOL0     C16615   6.792   5.157  10.903 -0.5724 -0.7461  0.0855
  124MOL0     C16616   6.684   5.272  10.898 -0.3940  0.9675 -0.1438
  124MOL0     C16617   6.545   5.204  10.902 -0.8200  0.0895 -0.5989
  124MOL0     C16618   6.427   5.307  10.907  0.1683  0.3875  0.7073
  124MOL0     C16619   6.290   5.246  10.858 -0.4557 -0.3792 -0.1110
  124MOL0     C16620   6.181   5.361  10.854  0.2032 -0.7972 -0.1119
  124MOL0     C16621   6.044   5.301  10.818  0.0884  0.1313 -0.4152
  124MOL0     N16622   5.925   5.394  10.840  0.0222  0.0321  0.7704
  124MOL0     C16623   5.914   5.526  10.794  1.1140  0.1604  1.3434
  124MOL0     C16624   5.781   5.561  10.805 -0.6015  0.0970  0.1561
  124MOL0     C16625   5.714   5.682  10.771  0.4996  0.0474 -0.1255
  124MOL0     C16626   5.704   5.697  10.624  0.4077 -0.9899 -0.6149
  124MOL0     C16627   5.630   5.586  10.550 -0.0600 -0.8999  1.0026
  124MOL0     C16628   5.491   5.538  10.598  0.0023 -0.4856  0.0304
  124MOL0     O16629   5.402   5.639  10.631  0.2182 -0.2871 -0.5943
  124MOL0     C16630   5.297   5.593  10.706 -0.1330 -0.3733 -0.3288
  124MOL0     C16631   5.323   5.567  10.840 -0.5773 -0.7708 -0.0749
  124MOL0     C16632   5.223   5.543  10.936 -0.7336  0.2077  0.2969
  124MOL0     C16633   5.267   5.524  11.074  0.2866 -0.1502 -0.7350
  124MOL0     C16634   5.089   5.534  10.889 -0.4937  0.6662 -0.3692
  124MOL0     C16635   4.970   5.496  10.961  0.6805 -0.5100 -1.2216
  124MOL0     O16636   4.877   5.416  10.898  0.6402  0.0510  0.3950
  124MOL0     C16637   4.747   5.413  10.946  0.3348  0.5199  0.1099
  124MOL0     C16638   4.672   5.528  10.973 -0.0750  0.2129 -0.4885
  124MOL0     C16639   4.549   5.514  11.035  0.1064  0.2408 -0.8357
  124MOL0     C16640   4.486   5.389  11.050 -0.3448  0.0664  0.0473
  124MOL0     O16641   4.360   5.384  11.104 -0.1319  0.4737 -0.0433
  124MOL0     C16642   4.304   5.258  11.153 -0.6633 -0.8478  0.4171
  124MOL0     C16643   4.170   5.296  11.223 -0.2117 -0.4367 -0.4746
  124MOL0     C16644   4.118   5.181  11.311 -0.1142 -0.3030  0.0092
  124MOL0     C16645   3.994   5.235  11.371 -0.5754  0.6662  0.1639
  124MOL0     C16646   3.920   5.123  11.436  0.3503  0.7373  0.3580
  124MOL0     C16647   3.875   5.001  11.343 -0.6383 -0.7533  0.1684
  124MOL0     C16648   3.775   4.912  11.421  1.1415  0.0781  0.4483
  124MOL0     C16649   3.743   4.787  11.338  0.2650 -0.2526  0.4606
  124MOL0    Cl16650   3.885   4.694  11.298 -0.4849  0.3002 -0.3103
  124MOL0     C16651   4.558   5.278  11.009  0.5887  0.6456 -0.6343
  124MOL0     C16652   4.684   5.289  10.961 -0.0361 -0.3874 -0.0893
  124MOL0     O16653   4.968   5.527  11.079  0.5801 -0.7190  0.7978
  124MOL0     C16654   5.062   5.561  10.752 -0.2870 -0.4726  0.0765
  124MOL0     C16655   5.163   5.583  10.659 -0.3107 -0.0435 -0.1682
  124MOL0     N16656   5.714   5.453  10.862  0.1013 -0.0819 -0.2933
  124MOL0     N16657   5.803   5.357  10.874 -0.7294 -0.0034 -0.0287
  124MOL0     C16658   7.120   5.274  10.596  0.2427 -0.5669 -0.5424
  124MOL0     C16659   7.252   5.305  10.549  0.3367  0.0841  0.2206
  124MOL0     C16660   7.694   5.319  10.519 -0.3669  0.8013  0.3228
  124MOL0     C16661   7.796   5.230  10.499  0.1642  0.3013 -1.0151
  124MOL0     C16662   7.924   5.269  10.439  0.0171  0.3552 -1.3888
  124MOL0     C16663   7.956   5.403  10.409  0.3897 -0.2350 -0.1702
  124MOL0     O16664   8.080   5.428  10.352  0.2879  0.0179  0.3405
  124MOL0     C16665   8.098   5.533  10.251  0.4591  0.6970 -0.2284
  124MOL0     C16666   8.224   5.607  10.268 -0.4420  0.8800 -0.4386
  124MOL0     C16667   8.348   5.499  10.276 -0.5172 -0.3343 -0.1454
  124MOL0     C16668   8.488   5.565  10.298 -0.1580  0.7258  0.0838
  124MOL0     C16669   8.603   5.466  10.293  0.3203  0.2397  1.1326
  124MOL0     C16670   8.702   5.390  10.282  0.4238  0.0559 -0.2635
  124MOL0     C16671   7.855   5.492  10.432 -0.3080 -0.0748  0.2094
  124MOL0     C16672   7.731   5.453  10.492 -0.2408 -0.2455  0.0227
  124MOL0     H16673   7.398   5.403  10.843 -0.8116  1.4764  0.9539
  124MOL0     H16674   7.173   5.337  10.925 -0.6767  2.1166 -0.0679
  124MOL0     H16675   7.002   5.135  10.925 -1.7904 -1.0544 -0.0232
  124MOL0     H16676   6.943   5.299  10.966 -0.6826  0.2276 -0.3869
  124MOL0     H16677   6.774   5.083  10.825 -0.3521 -1.6657  0.8870
  124MOL0     H16678   6.779   5.103  10.998  2.8978  0.5427  1.4597
  124MOL0     H16679   6.695   5.339  10.983 -0.8081 -0.9283  1.4726
  124MOL0     H16680   6.694   5.317  10.799  1.1023 -1.8064 -1.3857
  124MOL0     H16681   6.543   5.137  10.816  1.3935 -1.3968  0.3965
  124MOL0     H16682   6.546   5.146  10.995  0.8964  0.0012 -0.6285
  124MOL0     H16683   6.418   5.343  11.010  3.0337 -1.1540  1.6061
  124MOL0     H16684   6.442   5.394  10.842 -2.7672 -0.1715 -0.8955
  124MOL0     H16685   6.287   5.192  10.763  0.1774 -0.1933 -0.2447
  124MOL0     H16686   6.260   5.176  10.937 -1.5076 -1.6703 -1.5995
  124MOL0     H16687   6.177   5.412  10.951  1.4076 -0.1394 -0.3891
  124MOL0     H16688   6.202   5.448  10.792 -0.1558 -0.1925  0.5906
  124MOL0     H16689   6.035   5.208  10.875  3.1324  0.0284  0.0604
  124MOL0     H16690   6.039   5.271  10.713 -2.2737 -2.6641  0.3398
  124MOL0     H16691   5.995   5.584  10.752  0.2445  0.9133  0.6556
  124MOL0     H16692   5.617   5.691  10.821  0.8721  4.1494  0.2624
  124MOL0     H16693   5.758   5.769  10.821 -1.6253  1.1428 -0.0300
  124MOL0     H16694   5.809   5.713  10.597  0.0542 -0.7070 -1.9031
  124MOL0     H16695   5.644   5.787  10.605  0.3791 -0.7147  0.6706
  124MOL0     H16696   5.700   5.502  10.549  2.7941  1.3581  1.5649
  124MOL0     H16697   5.605   5.628  10.452 -0.1456  0.6631  1.6774
  124MOL0     H16698   5.512   5.467  10.678  1.3621 -2.6442 -2.1124
  124MOL0     H16699   5.449   5.469  10.524  1.2563 -1.2449 -0.0126
  124MOL0     H16700   5.430   5.568  10.855 -0.2815 -0.7721 -1.9468
  124MOL0     H16701   5.228   5.428  11.108 -3.7929  1.5606 -0.0339
  124MOL0     H16702   5.376   5.526  11.081  0.3919 -1.4351 -1.5955
  124MOL0     H16703   5.225   5.598  11.143 -1.6078 -3.5555  2.1128
  124MOL0     H16704   4.711   5.627  10.953  1.2335 -0.1920 -0.0514
  124MOL0     H16705   4.491   5.598  11.070  0.3501 -0.1214  0.4797
  124MOL0     H16706   4.287   5.190  11.069  0.6703  1.3104 -1.6997
  124MOL0     H16707   4.379   5.220  11.223 -0.4183 -0.4048  0.3964
  124MOL0     H16708   4.185   5.387  11.281  2.7533  0.1263 -1.9512
  124MOL0     H16709   4.111   5.323  11.135 -0.3753  2.4409  0.4334
  124MOL0     H16710   4.188   5.159  11.391  0.9703 -1.6924 -1.2583
  124MOL0     H16711   4.114   5.091  11.249  2.0885 -1.0489  0.8404
  124MOL0     H16712   4.029   5.313  11.440  2.4730 -0.5363  0.1353
  124MOL0     H16713   3.937   5.278  11.288 -0.4821 -1.7581 -1.2399
  124MOL0     H16714   3.833   5.170  11.484 -0.0027 -1.7454  2.4336
  124MOL0     H16715   3.994   5.090  11.509  1.4225  1.4309 -0.3973
  124MOL0     H16716   3.833   5.041  11.250 -1.2420 -0.0604  0.7292
  124MOL0     H16717   3.962   4.940  11.321  0.9761  0.1324  3.4252
  124MOL0     H16718   3.677   4.961  11.425  0.3155 -1.1696 -2.1584
  124MOL0     H16719   3.810   4.880  11.519 -0.3311 -0.9502  0.6723
  124MOL0     H16720   3.685   4.803  11.247 -0.5317  0.1672  1.0271
  124MOL0     H16721   3.679   4.723  11.400 -0.1515 -0.2322  0.0548
  124MOL0     H16722   4.520   5.177  11.016 -2.3506  1.7527  3.9964
  124MOL0     H16723   4.742   5.206  10.922  0.4990 -1.1627  2.2013
  124MOL0     H16724   4.960   5.568  10.718  0.1480  4.5780 -0.8850
  124MOL0     H16725   5.137   5.604  10.556 -0.2572  0.6710 -0.0388
  124MOL0     H16726   7.044   5.246  10.523 -0.2415  1.4324 -0.8713
  124MOL0     H16727   7.270   5.300  10.442  0.4666  1.2415  0.1765
  124MOL0     H16728   7.765   5.128  10.517  0.3787  0.6822  1.9617
  124MOL0     H16729   7.993   5.190  10.410  2.1759  1.4449  0.4498
  124MOL0     H16730   8.091   5.479  10.156  0.5888  0.7303 -0.2574
  124MOL0     H16731   8.013   5.602  10.254 -0.9650 -1.0107  1.0351
  124MOL0     H16732   8.220   5.672  10.356  0.3045 -0.1260  0.3670
  124MOL0     H16733   8.241   5.669  10.180 -1.5408 -0.1687 -1.4192
  124MOL0     H16734   8.346   5.434  10.188 -0.3057 -1.6458  0.8006
  124MOL0     H16735   8.323   5.432  10.359  1.8777 -0.2761  0.6975
  124MOL0     H16736   8.486   5.607  10.399 -2.8525  0.7653  0.0678
  124MOL0     H16737   8.508   5.635  10.217  0.0167  2.9578  1.9255
  124MOL0     H16738   8.789   5.327  10.275 -0.3119 -0.8755 -1.3265
  124MOL0     H16739   7.870   5.598  10.414 -1.3695 -0.0981 -0.8723
  124MOL0     H16740   7.660   5.534  10.509  0.8231  1.4854 -2.9430
  125MOL0     O16741   2.170   2.667   3.285 -0.0248 -0.0614 -0.5387
  125MOL0     C16742   2.155   2.754   3.202 -0.5135  0.1964 -0.1138
  125MOL0     O16743   2.076   2.874   3.220  0.0523 -0.2858  0.2009
  125MOL0     C16744   2.028   2.893   3.349 -0.1339  0.0324  1.0012
  125MOL0     C16745   2.111   2.912   3.457 -0.8066 -0.4682 -0.3229
  125MOL0     C16746   2.065   2.931   3.579 -0.7318 -1.2818 -0.2989
  125MOL0     C16747   1.932   2.930   3.613 -0.2190  0.6555  0.0592
  125MOL0     O16748   1.892   2.964   3.738 -1.1986  0.8176  0.0226
  125MOL0     C16749   1.841   2.853   3.809 -0.2310  0.6761  0.0030
  125MOL0     C16750   1.935   2.735   3.828  0.1081  0.0464  0.3603
  125MOL0     C16751   2.054   2.768   3.910 -0.7641  0.1044 -0.7300
  125MOL0     C16752   2.125   2.643   3.957  1.1761 -0.8052 -0.2018
  125MOL0     C16753   2.240   2.683   4.056 -0.5669 -0.0083  0.2579
  125MOL0     C16754   2.341   2.571   4.090 -0.0163  0.4904  0.3749
  125MOL0     C16755   2.450   2.628   4.186  0.4465 -0.4066  0.0280
  125MOL0     C16756   2.536   2.519   4.248  0.0206 -0.2059 -0.5686
  125MOL0     N16757   2.650   2.573   4.322  0.2043  0.6309 -0.3392
  125MOL0     C16758   2.736   2.672   4.284  0.2302 -0.0074 -1.1147
  125MOL0     C16759   2.846   2.653   4.369 -0.7569 -0.0565  0.1851
  125MOL0     C16760   2.969   2.732   4.380  0.3707  0.1657  0.2774
  125MOL0     C16761   3.046   2.734   4.247 -0.4275  0.4960 -0.0841
  125MOL0     C16762   3.187   2.781   4.264 -0.6767  0.5080  0.1600
  125MOL0     C16763   3.264   2.797   4.136 -0.1016 -0.0475 -0.4278
  125MOL0     O16764   3.372   2.882   4.162 -0.0993  0.5219 -0.1446
  125MOL0     C16765   3.443   2.942   4.062  0.7899  0.4515  0.3651
  125MOL0     C16766   3.499   3.069   4.097  1.6495  0.2290  0.4883
  125MOL0     C16767   3.566   3.141   4.007  0.5463 -0.5516 -0.0404
  125MOL0     C16768   3.606   3.282   4.055  0.5785 -0.0318 -0.3276
  125MOL0     C16769   3.597   3.085   3.883  0.7352 -0.8656  0.0130
  125MOL0     C16770   3.661   3.165   3.778 -0.1099 -0.2204  0.6960
  125MOL0     O16771   3.646   3.111   3.649 -0.3185  0.0290  0.7771
  125MOL0     C16772   3.695   3.194   3.549  0.4973 -0.1310 -0.9247
  125MOL0     C16773   3.615   3.274   3.466  0.1198  0.2975 -0.7848
  125MOL0     C16774   3.670   3.347   3.366  0.1474 -0.6710  0.9240
  125MOL0     C16775   3.810   3.339   3.334 -0.7475  0.6942 -0.0419
  125MOL0     O16776   3.873   3.421   3.245 -0.1369 -0.6041  0.1543
  125MOL0     C16777   3.800   3.521   3.174  0.1358 -0.4423  0.6687
  125MOL0     C16778   3.895   3.611   3.096 -0.2781  0.2172 -0.7203
  125MOL0     C16779   3.841   3.741   3.041 -0.0862 -0.8159 -0.2185
  125MOL0     C16780   3.734   3.705   2.942  0.2301 -0.1887 -0.0347
  125MOL0     C16781   3.704   3.825   2.854  0.4459  1.6164  0.2302
  125MOL0     C16782   3.677   3.947   2.935  0.9973 -0.1971  0.7301
  125MOL0     C16783   3.601   4.053   2.850  0.2131  0.4164 -0.3016
  125MOL0     C16784   3.537   4.163   2.936  0.6815  0.4707  0.2482
  125MOL0    Cl16785   3.668   4.263   2.989 -0.2174 -0.2840  0.3948
  125MOL0     C16786   3.891   3.274   3.421 -0.4198  1.0302 -0.1400
  125MOL0     C16787   3.831   3.197   3.523 -0.2821  0.3330 -0.2623
  125MOL0     O16788   3.735   3.258   3.807  0.0640  1.2336  0.0502
  125MOL0     C16789   3.539   2.961   3.841 -0.6556 -0.0428  0.5550
  125MOL0     C16790   3.470   2.888   3.934 -0.0094 -0.5345  0.1852
  125MOL0     N16791   2.825   2.548   4.455  0.3426 -0.7630 -0.1774
  125MOL0     N16792   2.716   2.498   4.424 -0.6877 -0.0690  0.6335
  125MOL0     C16793   1.847   2.905   3.504 -0.0418 -0.2754  0.0765
  125MOL0     C16794   1.889   2.894   3.371 -0.2533  0.1025  0.1504
  125MOL0     C16795   2.216   2.735   3.073 -0.2215  0.0247  0.3500
  125MOL0     C16796   2.290   2.627   3.032 -0.4895  0.6818  0.0851
  125MOL0     C16797   2.333   2.617   2.901  0.0635 -0.0258 -0.0510
  125MOL0     C16798   2.309   2.719   2.804 -0.0964  0.3958  0.4186
  125MOL0     O16799   2.336   2.704   2.673 -1.0941 -0.4645 -0.2942
  125MOL0     C16800   2.456   2.633   2.637 -0.1379  0.9718 -0.3297
  125MOL0     C16801   2.584   2.688   2.697 -0.3220  0.0504 -0.5741
  125MOL0     C16802   2.613   2.842   2.675  0.0253 -0.4028  0.7903
  125MOL0     C16803   2.730   2.890   2.760  0.3773 -0.0304  0.0800
  125MOL0     C16804   2.858   2.863   2.709 -0.1586  0.3010 -0.4366
  125MOL0     C16805   2.958   2.824   2.657 -0.4338  0.6587  0.1951
  125MOL0     C16806   2.255   2.834   2.846 -0.7258  0.3593 -0.3161
  125MOL0     C16807   2.204   2.842   2.977 -0.5149 -0.7243  0.6691
  125MOL0     H16808   2.219   2.907   3.447 -0.7208  0.5057  0.0830
  125MOL0     H16809   2.133   2.942   3.662 -1.1543 -1.3145  0.0521
  125MOL0     H16810   1.806   2.886   3.908 -3.1855 -1.2095 -0.3100
  125MOL0     H16811   1.755   2.810   3.758 -0.0316 -1.7128  1.5414
  125MOL0     H16812   1.874   2.663   3.883  0.6060 -0.5850  0.1060
  125MOL0     H16813   1.967   2.682   3.738 -1.3340 -1.9128  0.9258
  125MOL0     H16814   2.129   2.821   3.850  1.5931  2.7235  3.9959
  125MOL0     H16815   2.035   2.830   3.997 -0.7426 -0.5687 -0.2395
  125MOL0     H16816   2.045   2.592   4.011  0.1884  1.4888  0.6597
  125MOL0     H16817   2.162   2.585   3.873  2.4084  0.2097 -0.4084
  125MOL0     H16818   2.296   2.766   4.012 -1.3269  0.2897 -0.1686
  125MOL0     H16819   2.196   2.725   4.147  1.3900 -1.3511  1.9028
  125MOL0     H16820   2.288   2.498   4.152  1.0698  2.3454  3.7628
  125MOL0     H16821   2.378   2.520   4.000 -1.6160  2.2105 -1.3537
  125MOL0     H16822   2.506   2.703   4.129 -1.7277  0.6161 -0.8616
  125MOL0     H16823   2.398   2.681   4.266 -0.5535  0.3570 -1.0938
  125MOL0     H16824   2.578   2.459   4.167  0.6240 -1.1338  0.4061
  125MOL0     H16825   2.481   2.444   4.307  1.3282 -1.5930 -1.0529
  125MOL0     H16826   2.727   2.731   4.194 -0.0548 -1.3922 -2.0100
  125MOL0     H16827   2.948   2.831   4.423 -0.0471 -0.3354  1.2373
  125MOL0     H16828   3.023   2.672   4.453 -2.5837 -1.1477  1.5547
  125MOL0     H16829   2.991   2.787   4.169  0.1538  2.3917  0.7449
  125MOL0     H16830   3.052   2.631   4.209  0.1981  1.1055 -1.7282
  125MOL0     H16831   3.241   2.707   4.324  2.4279  0.3690 -2.5025
  125MOL0     H16832   3.178   2.878   4.314  0.3005  0.4583  0.4430
  125MOL0     H16833   3.189   2.840   4.067 -0.0543  1.3391  0.3463
  125MOL0     H16834   3.288   2.704   4.085 -2.3468 -1.2187  0.5252
  125MOL0     H16835   3.494   3.103   4.200  0.4312  0.2723  0.4251
  125MOL0     H16836   3.713   3.300   4.073  0.8493 -1.2894 -0.5639
  125MOL0     H16837   3.567   3.356   3.986 -3.2515 -1.3122  0.2547
  125MOL0     H16838   3.551   3.304   4.147  2.6958  2.3226  0.4985
  125MOL0     H16839   3.508   3.281   3.484 -0.1672  1.5657 -2.6817
  125MOL0     H16840   3.608   3.410   3.303  0.7695 -1.1349 -0.1963
  125MOL0     H16841   3.726   3.478   3.105 -0.4405  1.8994 -0.2438
  125MOL0     H16842   3.738   3.578   3.243 -2.7113 -2.3460 -0.1430
  125MOL0     H16843   3.986   3.634   3.153 -0.1459 -0.1706 -0.7713
  125MOL0     H16844   3.927   3.544   3.016  1.6846 -0.2845  0.4130
  125MOL0     H16845   3.927   3.787   2.992 -1.2829 -0.4467 -2.0768
  125MOL0     H16846   3.809   3.809   3.120  0.6526  1.2252 -1.5989
  125MOL0     H16847   3.761   3.619   2.882 -0.1636  0.1264 -0.6762
  125MOL0     H16848   3.647   3.677   3.001  0.1280 -0.9114 -0.5251
  125MOL0     H16849   3.611   3.799   2.802  0.5559 -0.0785  0.8174
  125MOL0     H16850   3.772   3.836   2.769  1.3467 -1.9290  0.3357
  125MOL0     H16851   3.614   3.917   3.019 -1.2216 -1.4486 -1.2889
  125MOL0     H16852   3.777   3.982   2.964  0.3308  1.0093  1.6608
  125MOL0     H16853   3.517   4.015   2.791  0.6953  1.3870 -1.6672
  125MOL0     H16854   3.670   4.100   2.779  0.2104 -1.3332 -1.5042
  125MOL0     H16855   3.486   4.118   3.022 -0.4327  0.3465 -0.4604
  125MOL0     H16856   3.466   4.221   2.875  0.3770 -0.8680 -0.7063
  125MOL0     H16857   3.996   3.290   3.395 -0.2696 -1.0048 -0.9413
  125MOL0     H16858   3.895   3.131   3.582  1.2887 -0.3180 -2.5340
  125MOL0     H16859   3.560   2.917   3.744 -0.8758 -2.0533  1.3627
  125MOL0     H16860   3.442   2.784   3.922  0.5627 -0.7206  0.4373
  125MOL0     H16861   1.743   2.896   3.534 -1.4296 -1.2925 -4.3799
  125MOL0     H16862   1.826   2.896   3.282  0.5844 -0.8684 -0.4920
  125MOL0     H16863   2.305   2.539   3.093 -0.3252 -1.4341 -2.8151
  125MOL0     H16864   2.381   2.524   2.870 -0.2879 -0.2846  0.1780
  125MOL0     H16865   2.451   2.526   2.663 -0.0123  1.1415  0.4241
  125MOL0     H16866   2.468   2.649   2.530  2.5081  1.1908 -0.0641
  125MOL0     H16867   2.667   2.631   2.654  0.1468  0.4349 -0.1933
  125MOL0     H16868   2.578   2.666   2.804 -1.3388  0.5628 -0.5180
  125MOL0     H16869   2.523   2.897   2.704  0.0443  0.0765 -0.0162
  125MOL0     H16870   2.636   2.855   2.569  0.1171 -0.7415  0.7682
  125MOL0     H16871   2.726   2.849   2.861  0.0513 -0.0126  0.0747
  125MOL0     H16872   2.730   3.000   2.767 -1.4512 -0.0517  0.8327
  125MOL0     H16873   3.044   2.786   2.606 -2.2292 -0.2261 -2.3471
  125MOL0     H16874   2.240   2.917   2.778  0.9962  0.2784 -0.8464
  125MOL0     H16875   2.154   2.933   3.010  0.0690 -0.0150 -0.3569
  126MOL0     O16876   5.502   4.553   2.578  0.1222  0.7490 -0.3087
  126MOL0     C16877   5.450   4.477   2.503 -0.4109  0.2448  0.1304
  126MOL0     O16878   5.501   4.442   2.383 -0.8429  0.1232  1.0426
  126MOL0     C16879   5.616   4.512   2.336  0.1303  0.1400  0.1843
  126MOL0     C16880   5.628   4.646   2.323  0.6554 -0.3061  0.0913
  126MOL0     C16881   5.742   4.712   2.272 -0.3546  0.0810 -0.2727
  126MOL0     C16882   5.852   4.635   2.225  0.0754  0.3191  0.4686
  126MOL0     O16883   5.960   4.679   2.159  1.2654 -1.0181 -0.9729
  126MOL0     C16884   5.987   4.826   2.150 -0.6541 -0.4351 -0.0291
  126MOL0     C16885   6.132   4.843   2.087  0.0257  0.1847  0.1309
  126MOL0     C16886   6.240   4.751   2.149 -0.1718  0.8973 -0.6418
  126MOL0     C16887   6.253   4.780   2.295 -0.4343  0.0219 -0.0582
  126MOL0     C16888   6.324   4.655   2.348 -0.7327 -0.1976  0.0113
  126MOL0     C16889   6.237   4.527   2.383  0.5125 -0.2918 -0.2565
  126MOL0     C16890   6.132   4.552   2.495  0.5628 -1.1794 -0.1163
  126MOL0     C16891   6.057   4.433   2.555  0.4772 -0.7463  0.4878
  126MOL0     N16892   5.983   4.464   2.671 -0.5064 -0.0170 -0.4187
  126MOL0     C16893   5.864   4.537   2.673  0.1098  0.0260 -0.0908
  126MOL0     C16894   5.853   4.576   2.804  0.4381 -0.5862 -0.3523
  126MOL0     C16895   5.740   4.652   2.863 -1.2624 -0.1364 -0.4943
  126MOL0     C16896   5.653   4.562   2.946  0.0166 -0.0986  0.7759
  126MOL0     C16897   5.549   4.650   3.012 -0.3749  0.6668 -0.0915
  126MOL0     C16898   5.449   4.591   3.098 -0.7964  0.4363  0.3518
  126MOL0     O16899   5.332   4.545   3.028  0.0428  0.2926 -0.0396
  126MOL0     C16900   5.209   4.599   3.047  0.7955 -0.0990  0.4026
  126MOL0     C16901   5.099   4.517   3.041  1.0955  0.4023 -0.2653
  126MOL0     C16902   4.965   4.569   3.040 -0.8630 -0.0201  0.5284
  126MOL0     C16903   4.855   4.472   3.044  0.1387 -0.1395 -0.2960
  126MOL0     C16904   4.950   4.709   3.057  0.1686  0.4722 -1.0024
  126MOL0     C16905   4.822   4.772   3.074 -1.1917 -0.7727  0.1030
  126MOL0     O16906   4.816   4.870   3.158  0.6648 -0.0876  0.5889
  126MOL0     C16907   4.702   4.947   3.143 -1.0516  0.5568 -0.4305
  126MOL0     C16908   4.576   4.910   3.208  0.0219  0.0071 -0.3660
  126MOL0     C16909   4.466   4.991   3.204 -0.2071 -0.7098 -0.2603
  126MOL0     C16910   4.477   5.119   3.135  0.0378  0.2141 -0.8478
  126MOL0     O16911   4.384   5.208   3.150  0.0071 -0.6605 -0.0134
  126MOL0     C16912   4.257   5.188   3.220  0.0485 -0.3959 -0.3980
  126MOL0     C16913   4.263   5.212   3.371 -0.0270 -0.1784 -0.2205
  126MOL0     C16914   4.119   5.243   3.415 -0.0014 -0.5835  0.0934
  126MOL0     C16915   4.087   5.393   3.389 -0.7833  0.9709 -0.7443
  126MOL0     C16916   3.933   5.420   3.410 -0.1202  0.5894  0.6668
  126MOL0     C16917   3.899   5.423   3.557 -0.3505  0.0805  0.0102
  126MOL0     C16918   3.753   5.460   3.571 -0.1343 -0.4513 -0.1061
  126MOL0     C16919   3.709   5.475   3.715 -0.8405 -0.5171  0.9356
  126MOL0    Cl16920   3.530   5.495   3.712 -0.1835 -0.2188 -0.4821
  126MOL0     C16921   4.595   5.142   3.058  0.3288 -0.4987  0.9589
  126MOL0     C16922   4.708   5.062   3.072  0.3245  0.2587  0.5348
  126MOL0     O16923   4.738   4.741   2.986 -0.1465  0.3999  0.2044
  126MOL0     C16924   5.068   4.784   3.071  0.6001  0.0022  0.1856
  126MOL0     C16925   5.196   4.732   3.065  0.7436 -0.3990  0.3211
  126MOL0     N16926   5.959   4.526   2.875 -0.8903  0.0732 -0.5580
  126MOL0     N16927   6.031   4.453   2.798  0.1563 -0.0676  0.4940
  126MOL0     C16928   5.842   4.496   2.230 -0.3885 -0.3656  0.3147
  126MOL0     C16929   5.729   4.434   2.291 -0.2416  0.3974  0.4482
  126MOL0     C16930   5.312   4.427   2.532  0.2623  0.0516 -0.0526
  126MOL0     C16931   5.269   4.414   2.669 -0.4068  1.3969  0.2237
  126MOL0     C16932   5.157   4.347   2.709 -0.4621  0.1664  0.2250
  126MOL0     C16933   5.072   4.296   2.606  0.2496  0.1743 -0.6909
  126MOL0     O16934   4.958   4.221   2.629 -0.4100 -0.1312  0.5348
  126MOL0     C16935   4.915   4.173   2.765  0.3536  0.3482 -1.2386
  126MOL0     C16936   5.014   4.068   2.831 -0.3129  0.6404  0.1413
  126MOL0     C16937   5.042   3.952   2.729 -0.6313  0.0340 -0.0463
  126MOL0     C16938   5.135   3.845   2.796  0.1954 -0.3877  0.5816
  126MOL0     C16939   5.051   3.748   2.863 -0.4457 -0.0808  0.5317
  126MOL0     C16940   4.989   3.673   2.936 -0.6160  0.2902 -0.2132
  126MOL0     C16941   5.109   4.313   2.473 -0.3742 -0.0536 -0.0222
  126MOL0     C16942   5.232   4.372   2.434 -0.1866  0.2759  0.4447
  126MOL0     H16943   5.548   4.709   2.363  2.2010  1.6269  0.3055
  126MOL0     H16944   5.749   4.820   2.271  2.5286 -0.0305 -0.3544
  126MOL0     H16945   5.926   4.886   2.081  1.3657  2.7053  0.7029
  126MOL0     H16946   5.989   4.870   2.250  1.3128  2.3332 -1.1625
  126MOL0     H16947   6.122   4.815   1.981  2.0005 -4.0704  0.8331
  126MOL0     H16948   6.167   4.945   2.106  0.4506  0.0922 -0.1420
  126MOL0     H16949   6.209   4.648   2.126 -1.4024  0.8626  1.0609
  126MOL0     H16950   6.338   4.763   2.100 -0.1353 -0.0098 -0.8065
  126MOL0     H16951   6.324   4.864   2.301  0.4681 -0.5835 -1.7706
  126MOL0     H16952   6.160   4.791   2.352 -0.8660 -0.7673 -0.6063
  126MOL0     H16953   6.402   4.628   2.277 -0.3156  2.5535 -0.7010
  126MOL0     H16954   6.374   4.679   2.443  0.6700  1.9471 -1.1889
  126MOL0     H16955   6.183   4.499   2.292  1.4863  1.3304 -1.3694
  126MOL0     H16956   6.303   4.445   2.415 -0.0059 -0.4385  0.4678
  126MOL0     H16957   6.171   4.616   2.574 -0.1922 -1.1592  0.2494
  126MOL0     H16958   6.060   4.617   2.446 -0.3746  1.5099  4.3139
  126MOL0     H16959   6.132   4.357   2.577  0.9891 -0.4037 -0.0542
  126MOL0     H16960   5.994   4.384   2.479  1.5237  1.5644 -2.0648
  126MOL0     H16961   5.804   4.555   2.584  1.2479 -0.7003 -1.0373
  126MOL0     H16962   5.784   4.729   2.927 -2.6277  0.4865 -0.2679
  126MOL0     H16963   5.696   4.710   2.781  1.2644  1.7752 -0.6227
  126MOL0     H16964   5.715   4.498   3.010  1.9670 -1.5023 -2.3162
  126MOL0     H16965   5.600   4.504   2.870  1.5438 -1.5034  0.7137
  126MOL0     H16966   5.498   4.707   2.934  0.0924  1.9270  0.4999
  126MOL0     H16967   5.596   4.717   3.084 -0.7495  0.8854 -0.0470
  126MOL0     H16968   5.414   4.669   3.166 -0.8342  1.4800 -0.8344
  126MOL0     H16969   5.493   4.514   3.162 -0.4314 -1.7921 -2.3956
  126MOL0     H16970   5.109   4.409   3.042 -1.4585  0.0847  1.5790
  126MOL0     H16971   4.809   4.467   2.945 -2.1469 -1.1800  0.7610
  126MOL0     H16972   4.894   4.376   3.077 -0.7010 -0.0635  0.9594
  126MOL0     H16973   4.780   4.514   3.111  2.2775  1.7663  1.0681
  126MOL0     H16974   4.567   4.815   3.261 -1.8674  0.8420  0.9447
  126MOL0     H16975   4.380   4.962   3.264  0.0539  1.3133  1.1999
  126MOL0     H16976   4.190   5.264   3.178 -0.5988 -0.6725  0.1193
  126MOL0     H16977   4.210   5.091   3.201 -1.8144 -0.3987  3.3629
  126MOL0     H16978   4.310   5.130   3.426 -1.0223  0.3485  1.4871
  126MOL0     H16979   4.323   5.303   3.383  0.4531 -0.0832 -2.7432
  126MOL0     H16980   4.100   5.221   3.520 -3.2111  2.0624  0.2389
  126MOL0     H16981   4.050   5.180   3.358 -1.9193  2.5900 -1.3546
  126MOL0     H16982   4.147   5.454   3.457 -1.0085 -0.5111  0.8545
  126MOL0     H16983   4.115   5.419   3.287  1.1938 -0.7394 -0.6968
  126MOL0     H16984   3.869   5.342   3.369  0.0373  1.0095 -0.4178
  126MOL0     H16985   3.911   5.516   3.362 -2.7318 -0.2610  0.0196
  126MOL0     H16986   3.927   5.325   3.598  0.9953 -0.0967 -1.2672
  126MOL0     H16987   3.963   5.489   3.617  0.0809 -0.5702  0.2760
  126MOL0     H16988   3.699   5.372   3.535 -1.9471  1.1540 -1.5205
  126MOL0     H16989   3.726   5.544   3.507  0.6111  0.7851  1.1450
  126MOL0     H16990   3.772   5.541   3.775 -0.2753 -1.1888  1.0980
  126MOL0     H16991   3.726   5.374   3.753 -0.6304 -0.7363  0.2668
  126MOL0     H16992   4.618   5.233   3.004  1.6416 -0.4331  1.5793
  126MOL0     H16993   4.793   5.083   3.008  0.6233 -1.5707  0.2967
  126MOL0     H16994   5.056   4.892   3.071 -3.0232 -0.2713 -0.9099
  126MOL0     H16995   5.280   4.801   3.062  0.2142  0.4399  2.6747
  126MOL0     H16996   5.923   4.441   2.183 -1.0973 -1.4096  0.2916
  126MOL0     H16997   5.733   4.325   2.289 -0.6697  0.3833  0.0904
  126MOL0     H16998   5.328   4.451   2.752  0.5706  0.6163 -0.0960
  126MOL0     H16999   5.146   4.332   2.816 -1.8052  0.2915  0.1223
  126MOL0     H17000   4.914   4.257   2.836  0.9241 -0.0674 -0.7276
  126MOL0     H17001   4.815   4.130   2.756  0.0469  0.5593  0.7846
  126MOL0     H17002   4.961   4.028   2.918 -3.6673  1.4579 -1.4014
  126MOL0     H17003   5.100   4.124   2.870 -0.3849  0.8084  0.0632
  126MOL0     H17004   5.095   3.994   2.643 -0.4866 -0.9150 -0.4267
  126MOL0     H17005   4.948   3.909   2.692  0.4483 -0.3386 -2.5352
  126MOL0     H17006   5.221   3.883   2.851 -0.7427  1.6049  0.7700
  126MOL0     H17007   5.175   3.797   2.707 -1.9538  0.8718 -1.1667
  126MOL0     H17008   4.929   3.625   3.011  0.8416 -2.3506 -0.5990
  126MOL0     H17009   5.037   4.283   2.398  0.6647  2.7135 -2.2991
  126MOL0     H17010   5.258   4.394   2.331  0.1814  0.4642  0.5747
  127MOL0     O17011   0.691   7.732   6.604 -0.0518  0.2965 -0.1608
  127MOL0     C17012   0.686   7.836   6.669 -0.6941 -0.5148 -0.3013
  127MOL0     O17013   0.577   7.879   6.737  0.1496  0.8062 -0.2539
  127MOL0     C17014   0.452   7.819   6.738 -0.6490  0.4247 -0.8754
  127MOL0     C17015   0.370   7.860   6.837 -0.0179 -0.1852 -0.3046
  127MOL0     C17016   0.232   7.838   6.825 -0.7778 -0.1859  0.4090
  127MOL0     C17017   0.185   7.751   6.721 -0.9534 -0.5030  0.4851
  127MOL0     O17018   0.058   7.718   6.689 -0.0318 -0.0146 -1.0247
  127MOL0     C17019  -0.036   7.821   6.663 -0.4866  0.5586 -0.3969
  127MOL0     C17020  -0.110   7.850   6.792  0.2261 -0.0361  0.1181
  127MOL0     C17021  -0.188   7.733   6.851  0.3629 -0.5752  0.7127
  127MOL0     C17022  -0.276   7.784   6.967 -0.4221  0.2149 -0.1957
  127MOL0     C17023  -0.391   7.686   6.994 -0.9808  0.1228  0.2751
  127MOL0     C17024  -0.479   7.731   7.103  1.8430 -0.5404  0.7744
  127MOL0     C17025  -0.584   7.849   7.088 -0.1427  0.1049 -0.3550
  127MOL0     C17026  -0.706   7.841   7.173 -0.0911  0.5422 -0.0324
  127MOL0     N17027  -0.813   7.738   7.161 -0.2904  0.1521 -0.7153
  127MOL0     C17028  -0.837   7.643   7.057  0.1316 -0.2517 -0.2651
  127MOL0     C17029  -0.920   7.558   7.122  0.1651 -0.3062  1.2591
  127MOL0     C17030  -0.996   7.453   7.051  0.1758  0.1347  0.1387
  127MOL0     C17031  -0.890   7.352   6.997 -0.3761 -0.0910  0.4643
  127MOL0     C17032  -0.932   7.206   6.993 -0.2483 -0.0808 -0.4283
  127MOL0     C17033  -0.814   7.111   6.965 -0.4459 -0.2197 -0.5044
  127MOL0     O17034  -0.740   7.146   6.845 -0.2397 -0.0346 -0.1106
  127MOL0     C17035  -0.609   7.117   6.858 -0.6019 -0.7272 -0.0315
  127MOL0     C17036  -0.554   6.994   6.882  0.2542  0.8510 -0.5838
  127MOL0     C17037  -0.418   6.973   6.910  0.0175 -1.1454 -0.5750
  127MOL0     C17038  -0.382   6.831   6.933 -0.0221 -0.0333 -0.5432
  127MOL0     C17039  -0.326   7.076   6.888  0.0421 -0.8200 -0.3213
  127MOL0     C17040  -0.178   7.054   6.906 -0.2729 -0.4056  0.2731
  127MOL0     O17041  -0.134   6.953   6.970  0.0738 -1.0145 -1.3180
  127MOL0     C17042  -0.006   6.925   6.959  0.1506 -0.0515  0.0400
  127MOL0     C17043   0.051   6.856   6.854  0.3504 -0.1530 -0.6928
  127MOL0     C17044   0.194   6.843   6.852  0.7102  0.6655 -0.2054
  127MOL0     C17045   0.285   6.910   6.941  0.5721  0.3767 -0.2010
  127MOL0     O17046   0.410   6.880   6.954  0.0466  0.6617 -0.3305
  127MOL0     C17047   0.466   6.808   6.843  0.1557 -0.8291 -0.5548
  127MOL0     C17048   0.613   6.771   6.862 -0.1541 -0.6341  0.4900
  127MOL0     C17049   0.701   6.893   6.896  0.8402  0.3766 -0.4341
  127MOL0     C17050   0.854   6.883   6.875 -0.1209  0.3514 -0.2058
  127MOL0     C17051   0.936   6.993   6.939  0.0986 -0.0915  0.2460
  127MOL0     C17052   1.079   6.999   6.873  0.3442 -0.8689 -0.2028
  127MOL0     C17053   1.190   7.048   6.965 -0.0012  0.0211  0.9341
  127MOL0     C17054   1.164   7.197   7.000  0.7101 -0.2695 -0.5585
  127MOL0    Cl17055   1.302   7.229   7.109 -0.1906  0.1439 -0.3601
  127MOL0     C17056   0.222   6.982   7.043  0.4685 -0.1406  0.5631
  127MOL0     C17057   0.081   6.991   7.048  0.1948  0.0805  0.6468
  127MOL0     O17058  -0.105   7.140   6.849 -0.4288 -0.1402 -0.7329
  127MOL0     C17059  -0.384   7.195   6.845 -0.2727 -0.7477 -0.8179
  127MOL0     C17060  -0.525   7.219   6.836 -0.1577 -0.4451 -0.0696
  127MOL0     N17061  -0.960   7.597   7.241  0.2899 -0.0034 -0.4306
  127MOL0     N17062  -0.897   7.715   7.264  0.0239  0.0702 -0.1404
  127MOL0     C17063   0.283   7.686   6.647  0.1854  0.5322  1.7483
  127MOL0     C17064   0.412   7.715   6.650 -0.4277  0.0712 -0.0314
  127MOL0     C17065   0.808   7.925   6.672  0.0162  0.2266  0.3672
  127MOL0     C17066   0.807   8.054   6.723  0.6722  1.6083  0.3164
  127MOL0     C17067   0.925   8.133   6.721  0.0994 -0.1016  0.4206
  127MOL0     C17068   1.048   8.076   6.671  0.0798 -0.0458  0.5372
  127MOL0     O17069   1.161   8.139   6.654  0.1310  0.2320  0.1660
  127MOL0     C17070   1.236   8.173   6.774  0.0030 -0.3520 -0.8002
  127MOL0     C17071   1.383   8.189   6.758 -0.0799 -0.4452  0.2000
  127MOL0     C17072   1.459   8.219   6.884 -0.0602 -0.1464 -0.0939
  127MOL0     C17073   1.604   8.245   6.870  1.0054  0.1197 -0.6988
  127MOL0     C17074   1.684   8.145   6.800 -0.2245  0.7839  1.2163
  127MOL0     C17075   1.750   8.063   6.738  0.4737 -0.7405  0.3800
  127MOL0     C17076   1.041   7.946   6.622 -0.2605  0.0799 -0.4668
  127MOL0     C17077   0.929   7.873   6.624  0.3827  1.5232 -0.4237
  127MOL0     H17078   0.398   7.941   6.904  0.4200  2.6231 -3.5822
  127MOL0     H17079   0.171   7.882   6.903  1.2972  0.4006  1.7844
  127MOL0     H17080   0.009   7.910   6.619  1.4875 -0.2469 -0.1090
  127MOL0     H17081  -0.101   7.789   6.581 -0.5460  0.7188 -0.4136
  127MOL0     H17082  -0.045   7.887   6.872 -0.0386 -3.8429  2.3358
  127MOL0     H17083  -0.170   7.933   6.755  2.0662 -0.2026 -3.6991
  127MOL0     H17084  -0.250   7.704   6.765 -1.9390  2.1217  1.3154
  127MOL0     H17085  -0.122   7.649   6.874 -0.2555 -1.7665 -1.5423
  127MOL0     H17086  -0.217   7.763   7.056 -2.6140 -1.5570  0.9431
  127MOL0     H17087  -0.314   7.884   6.945 -1.9191 -0.5389 -1.2054
  127MOL0     H17088  -0.444   7.663   6.901  0.2558 -2.4159  0.1233
  127MOL0     H17089  -0.347   7.589   7.016 -0.1552  0.6959  1.2523
  127MOL0     H17090  -0.546   7.647   7.123 -0.0184  0.4028 -1.1720
  127MOL0     H17091  -0.422   7.758   7.193  3.1604  0.5111 -0.3365
  127MOL0     H17092  -0.519   7.936   7.102  1.4179 -0.6244 -2.5212
  127MOL0     H17093  -0.622   7.847   6.985 -0.4927  0.6181 -0.2444
  127MOL0     H17094  -0.768   7.929   7.152 -3.0247 -0.8997  1.8840
  127MOL0     H17095  -0.678   7.857   7.277  0.9752  1.7605 -0.4899
  127MOL0     H17096  -0.816   7.652   6.951  1.1706 -2.7728 -0.3471
  127MOL0     H17097  -1.067   7.405   7.119 -1.3382  2.1943  0.0867
  127MOL0     H17098  -1.054   7.484   6.964 -1.5817 -2.2169  0.3585
  127MOL0     H17099  -0.798   7.355   7.056 -0.2993  1.2796  0.3075
  127MOL0     H17100  -0.870   7.388   6.896 -2.4634 -1.5514 -0.5344
  127MOL0     H17101  -0.998   7.191   6.908  0.7622 -0.0030 -1.2403
  127MOL0     H17102  -0.982   7.171   7.084  0.8311 -1.4453 -0.3240
  127MOL0     H17103  -0.856   7.011   6.950 -3.7480  1.0833 -0.7127
  127MOL0     H17104  -0.746   7.100   7.050  0.2602 -2.2346 -1.2734
  127MOL0     H17105  -0.625   6.913   6.879 -0.8464  1.8108 -1.1812
  127MOL0     H17106  -0.368   6.824   7.041 -1.4158 -1.6737 -0.4095
  127MOL0     H17107  -0.459   6.763   6.896  1.8254 -1.2165 -2.4132
  127MOL0     H17108  -0.287   6.806   6.886  1.1087  2.4460  0.2805
  127MOL0     H17109  -0.001   6.803   6.775 -2.3707  3.3081 -1.4621
  127MOL0     H17110   0.235   6.781   6.773  0.0971 -3.1889  2.2476
  127MOL0     H17111   0.411   6.714   6.833  0.4360 -1.0944  0.2587
  127MOL0     H17112   0.447   6.865   6.752  0.3897 -0.9579 -0.6848
  127MOL0     H17113   0.624   6.690   6.934  0.7263 -1.1007 -0.1483
  127MOL0     H17114   0.643   6.731   6.765 -2.6048  0.4718 -0.8126
  127MOL0     H17115   0.675   6.910   7.001 -1.8296 -1.4934 -0.6853
  127MOL0     H17116   0.672   6.983   6.842  1.4349  1.3018  0.7514
  127MOL0     H17117   0.876   6.780   6.906  0.7350  0.0951 -1.5711
  127MOL0     H17118   0.860   6.894   6.766  1.1329  0.2882 -0.1572
  127MOL0     H17119   0.948   6.987   7.048 -0.6580  1.3065  0.4218
  127MOL0     H17120   0.888   7.087   6.911  1.4274  0.8107  0.8727
  127MOL0     H17121   1.092   6.895   6.840 -3.2770 -1.0937 -1.2758
  127MOL0     H17122   1.088   7.059   6.782  0.5479 -1.8817 -0.8763
  127MOL0     H17123   1.290   7.041   6.920 -0.3930  0.7821 -0.1139
  127MOL0     H17124   1.194   6.989   7.057 -4.1401 -0.3181  1.0939
  127MOL0     H17125   1.069   7.226   7.045 -0.1625 -0.1730 -2.3961
  127MOL0     H17126   1.176   7.250   6.905  1.4264 -1.1350 -0.9688
  127MOL0     H17127   0.281   7.038   7.115 -1.3233  1.6279  0.7444
  127MOL0     H17128   0.039   7.045   7.132 -2.1881  1.4452 -1.2919
  127MOL0     H17129  -0.317   7.278   6.827 -1.5061 -0.2688 -3.7470
  127MOL0     H17130  -0.566   7.315   6.807  0.6334  0.3876  1.4513
  127MOL0     H17131   0.262   7.607   6.575 -1.3117  2.1040  0.3702
  127MOL0     H17132   0.481   7.652   6.595 -0.0827 -0.6403  1.1798
  127MOL0     H17133   0.714   8.106   6.743  0.1254  0.3866  1.0828
  127MOL0     H17134   0.925   8.237   6.753 -0.6510 -0.1570  0.6150
  127MOL0     H17135   1.190   8.263   6.817  1.3385  0.6290 -1.3838
  127MOL0     H17136   1.222   8.095   6.851  0.5325  1.0269  0.7524
  127MOL0     H17137   1.400   8.269   6.685 -0.8749 -0.1405  0.3377
  127MOL0     H17138   1.414   8.096   6.710  0.7598 -1.1666  2.0504
  127MOL0     H17139   1.445   8.132   6.949  1.8855 -2.0203 -1.9799
  127MOL0     H17140   1.411   8.303   6.935 -1.0749  0.5724 -2.1085
  127MOL0     H17141   1.632   8.237   6.975 -1.6474  0.2086  0.0986
  127MOL0     H17142   1.618   8.344   6.827 -1.3829 -0.0440 -2.0106
  127MOL0     H17143   1.790   7.990   6.671  1.0007 -1.8737  1.8653
  127MOL0     H17144   1.136   7.916   6.577  0.2423 -0.5165  0.9419
  127MOL0     H17145   0.944   7.772   6.586  1.5315  1.7282 -0.5420
  128MOL0     O17146   2.715   8.902   2.435  0.7070 -0.6525  0.4068
  128MOL0     C17147   2.705   8.970   2.336 -0.2133 -0.3773 -0.2775
  128MOL0     O17148   2.590   9.003   2.274  0.3314  0.8057  0.1194
  128MOL0     C17149   2.465   8.972   2.318  1.4023  0.5210  0.1883
  128MOL0     C17150   2.424   8.950   2.453 -0.4896 -0.1230 -0.0790
  128MOL0     C17151   2.296   8.917   2.495  0.4635  0.8342 -0.4323
  128MOL0     C17152   2.196   8.902   2.405 -0.6486 -0.6687 -0.1238
  128MOL0     O17153   2.079   8.855   2.453  0.3748  0.2973  0.2279
  128MOL0     C17154   1.966   8.885   2.377 -0.3430  0.1982  0.2534
  128MOL0     C17155   1.843   8.853   2.457  0.4683  0.0732  0.0244
  128MOL0     C17156   1.733   8.832   2.354 -0.1931  0.4569 -0.0432
  128MOL0     C17157   1.681   8.949   2.272 -0.7102  0.7339  0.3447
  128MOL0     C17158   1.554   8.915   2.181 -0.5293  0.3763 -0.2973
  128MOL0     C17159   1.496   9.038   2.114 -0.8959 -0.3014  0.1411
  128MOL0     C17160   1.371   8.999   2.037 -1.1046 -0.7785  0.6086
  128MOL0     C17161   1.312   9.128   1.971 -0.7509  0.4519 -0.6992
  128MOL0     N17162   1.165   9.127   1.943 -0.5826  0.6895  0.6985
  128MOL0     C17163   1.069   9.042   1.990  0.0901  0.6091 -0.3001
  128MOL0     C17164   0.955   9.079   1.934  0.6555  0.5396 -0.6893
  128MOL0     C17165   0.824   9.013   1.962  0.7110 -0.1062  0.4094
  128MOL0     C17166   0.716   9.064   1.865 -0.6813  0.4687 -0.6453
  128MOL0     C17167   0.665   9.197   1.913 -0.0033  0.0588  0.1878
  128MOL0     C17168   0.572   9.254   1.800 -1.0841 -0.4233 -0.2472
  128MOL0     O17169   0.469   9.311   1.884  0.3823  0.4944 -0.6671
  128MOL0     C17170   0.370   9.389   1.832 -0.0817  0.2942 -0.6362
  128MOL0     C17171   0.366   9.442   1.700 -0.9970 -1.1616  0.2224
  128MOL0     C17172   0.255   9.506   1.641  0.2094  0.5707 -0.3207
  128MOL0     C17173   0.264   9.552   1.496 -0.3923  0.5007  0.4212
  128MOL0     C17174   0.136   9.522   1.720 -0.1700 -0.2639  0.5706
  128MOL0     C17175   0.004   9.593   1.674 -0.2994  0.0242  0.0624
  128MOL0     O17176  -0.098   9.578   1.767 -0.2561 -0.6688 -0.7609
  128MOL0     C17177  -0.218   9.625   1.732  0.4372 -0.3062 -0.2540
  128MOL0     C17178  -0.295   9.544   1.650  0.5543  0.4619 -0.3690
  128MOL0     C17179  -0.414   9.599   1.590  0.0547  0.2803  0.5063
  128MOL0     C17180  -0.466   9.723   1.628  0.2968  0.4319  1.1920
  128MOL0     O17181  -0.586   9.756   1.578  1.3772 -0.1507  0.2200
  128MOL0     C17182  -0.679   9.828   1.663  0.2318  0.4172 -0.0619
  128MOL0     C17183  -0.730   9.746   1.785 -1.0921  0.3599 -0.3046
  128MOL0     C17184  -0.768   9.593   1.756 -0.6575  0.6002 -0.0340
  128MOL0     C17185  -0.830   9.532   1.883 -0.4064  0.1644 -0.0360
  128MOL0     C17186  -0.980   9.500   1.866 -0.9326 -0.2156 -0.1014
  128MOL0     C17187  -1.077   9.611   1.851  0.0882 -0.2817  0.0870
  128MOL0     C17188  -1.212   9.558   1.776  0.1820  0.0613  0.8320
  128MOL0     C17189  -1.286   9.656   1.691  0.1553  0.6021  0.3080
  128MOL0    Cl17190  -1.380   9.768   1.789 -0.6025  0.3495 -0.3438
  128MOL0     C17191  -0.383   9.801   1.714 -0.4288 -0.5985  0.6689
  128MOL0     C17192  -0.262   9.757   1.760 -0.7100  0.6109  0.5142
  128MOL0     O17193   0.001   9.657   1.571 -0.7401 -0.2682  0.3223
  128MOL0     C17194   0.138   9.473   1.853  0.0505 -0.1248  0.6348
  128MOL0     C17195   0.248   9.413   1.908 -0.5107 -0.4680 -0.1531
  128MOL0     N17196   0.978   9.195   1.862  0.0368  0.0326 -0.8506
  128MOL0     N17197   1.109   9.224   1.871  0.1603  0.5131 -1.1065
  128MOL0     C17198   2.228   8.932   2.268 -0.8675 -0.0803  1.1929
  128MOL0     C17199   2.361   8.959   2.227 -0.0625 -0.2028 -0.0960
  128MOL0     C17200   2.822   9.010   2.257 -0.7559 -0.1417 -0.2894
  128MOL0     C17201   2.944   8.955   2.287  0.0505 -0.7994 -0.3329
  128MOL0     C17202   3.052   8.993   2.211 -0.4231 -1.2700  0.1082
  128MOL0     C17203   3.046   9.103   2.123 -0.9486 -0.5565 -0.6481
  128MOL0     O17204   3.152   9.160   2.058 -0.7609 -0.3245  0.4011
  128MOL0     C17205   3.277   9.172   2.132 -0.1490  0.5068 -0.1026
  128MOL0     C17206   3.395   9.180   2.037 -0.5865 -0.5105 -0.0965
  128MOL0     C17207   3.522   9.245   2.107  0.0379  0.6946 -0.1302
  128MOL0     C17208   3.666   9.204   2.047  0.6968 -0.2180 -1.3315
  128MOL0     C17209   3.654   9.209   1.905 -0.5578 -0.0295  0.7479
  128MOL0     C17210   3.639   9.217   1.782 -0.3526 -0.2368 -0.0491
  128MOL0     C17211   2.919   9.144   2.078  0.2093  0.3944 -0.8313
  128MOL0     C17212   2.808   9.108   2.154  0.0993  0.3187 -0.1720
  128MOL0     H17213   2.493   8.950   2.538 -0.9111  1.0639  0.2823
  128MOL0     H17214   2.267   8.877   2.592 -2.6224  0.5876 -1.3463
  128MOL0     H17215   1.970   8.991   2.353  2.3323 -0.2314 -1.6289
  128MOL0     H17216   1.970   8.827   2.285  1.0082 -0.8788  0.9536
  128MOL0     H17217   1.853   8.758   2.511 -1.1484 -0.9509 -1.3372
  128MOL0     H17218   1.819   8.936   2.523  2.1391  1.5543 -1.1184
  128MOL0     H17219   1.764   8.759   2.278 -0.6223 -1.0375  1.1833
  128MOL0     H17220   1.658   8.787   2.419  0.2099 -0.0498  0.0772
  128MOL0     H17221   1.664   9.026   2.348  1.4340 -0.0746  1.7494
  128MOL0     H17222   1.771   8.982   2.219  0.2537 -1.7984  0.2313
  128MOL0     H17223   1.576   8.826   2.121  0.0788 -3.0490  4.4733
  128MOL0     H17224   1.482   8.858   2.240 -0.7636  0.5370 -0.4220
  128MOL0     H17225   1.472   9.108   2.194  0.0486 -1.1557  1.1986
  128MOL0     H17226   1.571   9.068   2.041 -1.3700 -1.3300 -0.8022
  128MOL0     H17227   1.397   8.923   1.962 -0.0359  0.4484 -0.3041
  128MOL0     H17228   1.299   8.962   2.110  0.7385 -1.2133  2.2795
  128MOL0     H17229   1.374   9.150   1.883 -1.6729  1.6977 -1.0550
  128MOL0     H17230   1.314   9.221   2.028 -0.3494 -0.1865  0.3618
  128MOL0     H17231   1.072   8.962   2.063 -1.3463  1.2180  0.4722
  128MOL0     H17232   0.830   8.904   1.967 -2.3581 -0.3848 -0.0479
  128MOL0     H17233   0.798   9.037   2.065  2.4573  0.6080  0.7068
  128MOL0     H17234   0.640   8.985   1.863 -1.6642  1.3442  0.5779
  128MOL0     H17235   0.759   9.070   1.765  1.8962 -2.4713  0.1364
  128MOL0     H17236   0.742   9.273   1.924 -0.7491  1.7523 -4.2947
  128MOL0     H17237   0.609   9.183   2.006  2.0478  0.4079  1.5383
  128MOL0     H17238   0.530   9.176   1.736  3.0559 -1.3110 -2.2291
  128MOL0     H17239   0.627   9.324   1.736 -0.9131 -3.5239 -3.8210
  128MOL0     H17240   0.447   9.426   1.629 -0.1180 -0.1704  0.9654
  128MOL0     H17241   0.361   9.520   1.456 -1.2681 -1.5578 -0.1610
  128MOL0     H17242   0.189   9.507   1.432 -2.0602  2.1924  1.0999
  128MOL0     H17243   0.248   9.660   1.493 -0.0417  0.6280  2.0997
  128MOL0     H17244  -0.252   9.447   1.627  1.9832  0.7402  1.0211
  128MOL0     H17245  -0.467   9.533   1.522  1.1882 -0.5036  0.3532
  128MOL0     H17246  -0.630   9.920   1.697  2.2108  1.3332 -4.6529
  128MOL0     H17247  -0.767   9.850   1.602  0.0464  0.7922  0.3361
  128MOL0     H17248  -0.653   9.743   1.863  0.9114 -3.5779 -2.1368
  128MOL0     H17249  -0.815   9.793   1.834 -0.1141  2.6079 -0.6439
  128MOL0     H17250  -0.681   9.533   1.727  0.3977  1.9713  0.1891
  128MOL0     H17251  -0.841   9.582   1.676 -0.9735  1.4679  0.1275
  128MOL0     H17252  -0.775   9.443   1.916  0.5478  0.3852 -0.9899
  128MOL0     H17253  -0.840   9.593   1.974 -0.7485 -0.5141  0.3972
  128MOL0     H17254  -1.000   9.434   1.951  0.1924 -1.1665 -0.5365
  128MOL0     H17255  -0.991   9.441   1.775  1.2454  1.0189 -1.2372
  128MOL0     H17256  -1.087   9.653   1.952  1.0111  0.0761  0.0391
  128MOL0     H17257  -1.039   9.691   1.786 -2.6437  3.1843  2.3775
  128MOL0     H17258  -1.281   9.514   1.849 -0.5611 -0.4997 -0.1984
  128MOL0     H17259  -1.184   9.477   1.709 -0.6277 -0.8531  1.5686
  128MOL0     H17260  -1.354   9.599   1.627 -1.3034  2.0909  0.4719
  128MOL0     H17261  -1.216   9.705   1.623 -2.3144  0.3422 -2.6514
  128MOL0     H17262  -0.408   9.906   1.727  0.1557 -0.0667 -1.9460
  128MOL0     H17263  -0.192   9.821   1.813 -0.3524  3.7110 -3.2494
  128MOL0     H17264   0.048   9.485   1.912 -1.2379 -0.0676 -1.2779
  128MOL0     H17265   0.242   9.382   2.012  3.5962 -1.4934 -0.0445
  128MOL0     H17266   2.168   8.915   2.179  3.3687  0.6074 -2.1133
  128MOL0     H17267   2.388   8.973   2.123  0.8308 -0.8460  0.0427
  128MOL0     H17268   2.971   8.886   2.366 -0.8612 -0.8810 -0.0816
  128MOL0     H17269   3.148   8.954   2.242 -0.6839 -1.8448  0.2235
  128MOL0     H17270   3.271   9.270   2.180 -0.9868  0.4811 -0.1354
  128MOL0     H17271   3.285   9.100   2.214 -1.1342  4.9174  4.3499
  128MOL0     H17272   3.362   9.240   1.952  1.0616  0.5349 -0.0372
  128MOL0     H17273   3.433   9.086   1.995  1.2492 -0.0620  0.4719
  128MOL0     H17274   3.519   9.222   2.214 -1.9976  3.9109  0.6588
  128MOL0     H17275   3.509   9.354   2.105  2.2410  1.0106  0.0013
  128MOL0     H17276   3.677   9.099   2.077 -0.4082 -0.9082 -3.1452
  128MOL0     H17277   3.744   9.267   2.090 -0.9351 -0.6256  2.6728
  128MOL0     H17278   3.635   9.228   1.675  1.0127  0.2757 -0.0658
  128MOL0     H17279   2.917   9.223   2.003 -2.2500  0.0839 -1.1692
  128MOL0     H17280   2.713   9.149   2.121 -0.1099 -1.7944 -2.5169
  129MOL0     O17281   6.488   3.626   1.187  0.1113 -0.0425 -0.5220
  129MOL0     C17282   6.551   3.553   1.268 -0.0099  0.5789  0.1931
  129MOL0     O17283   6.497   3.438   1.326 -0.2452  0.3088  0.2308
  129MOL0     C17284   6.378   3.382   1.275  0.0749  0.7548  0.4381
  129MOL0     C17285   6.259   3.388   1.345 -0.5092 -0.6893 -0.8175
  129MOL0     C17286   6.142   3.325   1.300 -0.3846  0.6588 -0.6120
  129MOL0     C17287   6.149   3.252   1.178 -0.2543 -0.4827 -0.3329
  129MOL0     O17288   6.045   3.198   1.109 -0.0417  0.7602 -0.2105
  129MOL0     C17289   5.920   3.206   1.170 -0.3895 -0.1715  0.3556
  129MOL0     C17290   5.815   3.151   1.070  0.3249  0.7846  0.1509
  129MOL0     C17291   5.670   3.170   1.112 -0.7884 -1.2358 -0.8361
  129MOL0     C17292   5.628   3.319   1.130 -1.1847  0.6607  0.6386
  129MOL0     C17293   5.480   3.329   1.134 -0.0910  0.1505  0.4599
  129MOL0     C17294   5.441   3.478   1.141  0.4051 -0.5168 -0.2801
  129MOL0     C17295   5.286   3.501   1.170  0.5074 -0.7344 -0.7500
  129MOL0     C17296   5.252   3.648   1.167 -0.2888 -1.1080 -0.5012
  129MOL0     N17297   5.113   3.681   1.219  0.5204 -0.3226  0.3107
  129MOL0     C17298   5.000   3.605   1.207 -0.3564 -0.1142  0.0986
  129MOL0     C17299   4.912   3.689   1.250  0.1822 -0.6045 -0.2199
  129MOL0     C17300   4.770   3.655   1.236  0.6966  0.2358 -0.0841
  129MOL0     C17301   4.673   3.743   1.167  0.9448  0.2331  1.2777
  129MOL0     C17302   4.538   3.670   1.151 -0.1485  0.1477 -0.3645
  129MOL0     C17303   4.447   3.765   1.068 -0.2277  0.7346 -0.4828
  129MOL0     O17304   4.314   3.713   1.076  0.2533 -0.0272 -0.3537
  129MOL0     C17305   4.206   3.787   1.036 -0.5175 -0.5262 -0.5040
  129MOL0     C17306   4.220   3.874   0.930  0.2254 -0.4693  0.7852
  129MOL0     C17307   4.112   3.956   0.888  0.1706  0.3914  0.2545
  129MOL0     C17308   4.137   4.033   0.767  0.2365  0.5825  0.5142
  129MOL0     C17309   3.989   3.945   0.957  0.3877  0.1317  0.4879
  129MOL0     C17310   3.867   4.032   0.921 -0.7883  0.6139 -0.3931
  129MOL0     O17311   3.756   3.983   0.976 -0.0415 -0.3894 -0.4069
  129MOL0     C17312   3.644   4.037   0.942  0.9255  0.2454  0.1174
  129MOL0     C17313   3.581   4.015   0.815  0.0771 -1.1339  0.4636
  129MOL0     C17314   3.452   4.068   0.774 -1.5499  0.3965 -1.0733
  129MOL0     C17315   3.391   4.147   0.869 -0.3285  1.1305 -0.6155
  129MOL0     O17316   3.262   4.193   0.854  0.5117  0.7603  0.0662
  129MOL0     C17317   3.172   4.135   0.753 -0.3923 -0.1764  0.1530
  129MOL0     C17318   3.037   4.211   0.722 -0.0510 -0.2105 -1.3003
  129MOL0     C17319   2.934   4.175   0.843 -0.1129 -0.1651 -0.1146
  129MOL0     C17320   2.801   4.227   0.800 -0.3154 -0.1079  0.5682
  129MOL0     C17321   2.692   4.184   0.888  0.7963  0.1466  0.1948
  129MOL0     C17322   2.548   4.222   0.824 -0.5142 -0.4918  0.0768
  129MOL0     C17323   2.447   4.183   0.925 -0.0133  0.1080 -0.2919
  129MOL0     C17324   2.317   4.152   0.851  0.4499 -0.0179 -0.4472
  129MOL0    Cl17325   2.266   4.303   0.762 -0.5137 -0.1253 -0.3809
  129MOL0     C17326   3.441   4.162   0.994 -0.3430  0.1385 -1.1613
  129MOL0     C17327   3.567   4.111   1.033 -0.3115 -0.2533  0.2226
  129MOL0     O17328   3.873   4.130   0.847  0.2542 -0.1081 -0.4924
  129MOL0     C17329   3.974   3.858   1.071  0.4403 -0.2083  0.2443
  129MOL0     C17330   4.089   3.787   1.111  0.2816 -0.4971  1.1812
  129MOL0     N17331   4.961   3.812   1.293 -0.3522 -0.3364 -0.4719
  129MOL0     N17332   5.086   3.808   1.270  0.4884  1.2429 -0.2227
  129MOL0     C17333   6.262   3.266   1.092 -0.6634  0.2611 -0.4834
  129MOL0     C17334   6.375   3.329   1.149  0.1472  0.1417 -0.1399
  129MOL0     C17335   6.693   3.591   1.298  0.1918 -0.8923 -0.7921
  129MOL0     C17336   6.759   3.524   1.401  0.2940 -0.0941 -0.1307
  129MOL0     C17337   6.895   3.532   1.417 -0.6961 -0.1512 -0.5655
  129MOL0     C17338   6.972   3.624   1.349  0.5035  0.6099  0.7683
  129MOL0     O17339   7.107   3.630   1.375 -0.2319  0.1844 -0.8146
  129MOL0     C17340   7.209   3.700   1.299 -0.0065  0.6182 -0.0586
  129MOL0     C17341   7.223   3.848   1.327  0.6473 -0.4235  0.6421
  129MOL0     C17342   7.362   3.898   1.278 -0.2270  0.0432 -0.6464
  129MOL0     C17343   7.352   4.050   1.238 -0.0413  0.5197 -0.1253
  129MOL0     C17344   7.391   4.142   1.352  0.0049  0.4962  1.4389
  129MOL0     C17345   7.435   4.209   1.443 -0.2457  0.4224  0.2102
  129MOL0     C17346   6.908   3.694   1.244 -0.0437 -0.0244  0.3695
  129MOL0     C17347   6.764   3.688   1.225 -0.3203  0.3038 -0.2398
  129MOL0     H17348   6.270   3.440   1.440  1.6539 -3.5246  0.6272
  129MOL0     H17349   6.053   3.328   1.362  0.0471  1.2948 -0.0059
  129MOL0     H17350   5.913   3.138   1.255 -0.2175 -2.1700 -1.1489
  129MOL0     H17351   5.898   3.311   1.190  2.0778  0.1975  1.6079
  129MOL0     H17352   5.820   3.203   0.974 -0.7345 -2.0542 -1.5700
  129MOL0     H17353   5.825   3.043   1.055  2.7176  0.4386  3.2394
  129MOL0     H17354   5.605   3.115   1.043 -1.8410  1.1790 -1.8928
  129MOL0     H17355   5.653   3.116   1.206  0.5408  1.9470  1.4134
  129MOL0     H17356   5.677   3.356   1.220 -0.6903 -2.2744  1.7031
  129MOL0     H17357   5.665   3.368   1.039 -3.3820  0.9085 -0.1952
  129MOL0     H17358   5.439   3.281   1.045 -2.6750 -0.1056  1.6981
  129MOL0     H17359   5.430   3.277   1.216 -2.8141  0.8186 -0.6597
  129MOL0     H17360   5.496   3.531   1.219  1.3416  0.6844 -1.6829
  129MOL0     H17361   5.472   3.523   1.046  0.5206  0.5301  0.2473
  129MOL0     H17362   5.221   3.449   1.099  3.3436 -2.5848 -2.1761
  129MOL0     H17363   5.273   3.463   1.272 -1.8911 -0.3828 -0.8866
  129MOL0     H17364   5.281   3.690   1.071  2.1710  0.4450  0.8367
  129MOL0     H17365   5.323   3.693   1.237  0.1015 -2.8620  0.2823
  129MOL0     H17366   4.992   3.514   1.149  3.9578 -1.0128  0.5969
  129MOL0     H17367   4.758   3.556   1.190 -2.0680 -0.1596  1.2576
  129MOL0     H17368   4.732   3.646   1.338  2.2473 -2.9049  0.3273
  129MOL0     H17369   4.712   3.774   1.070  0.9583 -1.2662  0.7794
  129MOL0     H17370   4.650   3.836   1.220 -3.8801  0.8403 -1.3336
  129MOL0     H17371   4.503   3.631   1.247 -2.7794  0.4914 -1.1127
  129MOL0     H17372   4.557   3.574   1.101 -0.0928 -0.8594  1.5256
  129MOL0     H17373   4.493   3.774   0.969  0.6479  3.9093  0.1072
  129MOL0     H17374   4.442   3.863   1.116  0.1600  1.6678 -2.2473
  129MOL0     H17375   4.302   3.872   0.859 -0.7003 -2.1171 -0.2944
  129MOL0     H17376   4.136   4.141   0.788 -2.3610  0.5215  1.0966
  129MOL0     H17377   4.218   3.996   0.704 -0.7388 -1.0898  0.1628
  129MOL0     H17378   4.050   4.019   0.701  1.5863  0.6008 -1.3351
  129MOL0     H17379   3.653   3.965   0.751  1.9166  1.7912  0.0675
  129MOL0     H17380   3.426   4.040   0.673 -1.6812 -1.1780 -0.6356
  129MOL0     H17381   3.226   4.128   0.659 -1.1460  0.5261 -0.3474
  129MOL0     H17382   3.146   4.032   0.780 -0.4014 -1.3025 -3.5645
  129MOL0     H17383   3.058   4.317   0.713  2.4537 -0.6140 -1.0018
  129MOL0     H17384   2.995   4.176   0.627 -2.8823 -0.4292 -0.0949
  129MOL0     H17385   2.962   4.224   0.937 -3.2536  0.5034  0.5917
  129MOL0     H17386   2.936   4.068   0.864  0.8171  0.4004  3.3481
  129MOL0     H17387   2.812   4.335   0.793  2.1235 -0.3279  0.1113
  129MOL0     H17388   2.779   4.201   0.696  0.3232 -1.0014  0.6388
  129MOL0     H17389   2.717   4.207   0.992  0.6268 -3.0806  1.0737
  129MOL0     H17390   2.694   4.075   0.882 -0.0628  0.2156 -2.3033
  129MOL0     H17391   2.548   4.330   0.811  1.6403 -0.3272  1.1456
  129MOL0     H17392   2.536   4.166   0.731 -2.9189 -2.2631  1.3243
  129MOL0     H17393   2.439   4.260   1.002 -0.1535  0.2598 -0.4553
  129MOL0     H17394   2.476   4.094   0.981  2.3772  0.6323 -0.6263
  129MOL0     H17395   2.237   4.130   0.922 -0.9400 -1.2675 -2.2897
  129MOL0     H17396   2.338   4.062   0.792 -0.8623 -0.1570 -0.7333
  129MOL0     H17397   3.385   4.208   1.075  0.3590 -2.5268  0.9722
  129MOL0     H17398   3.601   4.117   1.136  1.4362  0.5089 -0.3710
  129MOL0     H17399   3.884   3.844   1.129  1.6636 -2.8423  1.6567
  129MOL0     H17400   4.075   3.733   1.205 -0.6542  0.0339  1.3628
  129MOL0     H17401   6.268   3.214   0.998 -1.9135  1.0607 -1.0400
  129MOL0     H17402   6.466   3.342   1.090  0.9215 -1.3778  0.6439
  129MOL0     H17403   6.706   3.463   1.473  4.7413 -3.6592  0.6264
  129MOL0     H17404   6.938   3.477   1.499  1.2470 -0.1862 -1.5662
  129MOL0     H17405   7.304   3.658   1.335 -0.0962  1.7639  1.6124
  129MOL0     H17406   7.204   3.678   1.192 -0.5485 -0.0270  0.0891
  129MOL0     H17407   7.204   3.869   1.432 -1.9062 -0.8759  0.3394
  129MOL0     H17408   7.141   3.898   1.275 -0.0206  0.0178  2.0932
  129MOL0     H17409   7.406   3.836   1.200  0.4138 -1.1928  0.6547
  129MOL0     H17410   7.434   3.886   1.359 -1.2576  2.2532  0.6945
  129MOL0     H17411   7.250   4.084   1.214 -0.1753  0.5996  0.5387
  129MOL0     H17412   7.407   4.067   1.145  0.4493  2.8905  0.5179
  129MOL0     H17413   7.488   4.258   1.522 -1.5694  1.8016  0.2829
  129MOL0     H17414   6.980   3.754   1.189 -0.6674  1.2717  0.9292
  129MOL0     H17415   6.718   3.756   1.153 -0.8517  2.4912  2.0069
  130MOL0     O17416   7.855   0.610   6.624  0.2165  0.2416  0.0374
  130MOL0     C17417   7.793   0.713   6.641  0.8213 -0.6727  0.2599
  130MOL0     O17418   7.655   0.729   6.652 -0.1289  0.4762  0.3651
  130MOL0     C17419   7.581   0.617   6.669  0.0134  0.2207 -0.5405
  130MOL0     C17420   7.581   0.517   6.570 -0.2064 -0.4194  0.4597
  130MOL0     C17421   7.488   0.414   6.572  0.4417 -0.9258  0.6722
  130MOL0     C17422   7.386   0.409   6.674  0.2507 -0.5149  0.5271
  130MOL0     O17423   7.307   0.296   6.686 -0.5743  0.0619 -0.6439
  130MOL0     C17424   7.237   0.261   6.806 -0.4191  0.2931  0.3062
  130MOL0     C17425   7.184   0.118   6.793 -0.7296  0.3226  0.2673
  130MOL0     C17426   7.074   0.118   6.686 -0.0087  0.9492  0.1590
  130MOL0     C17427   6.998  -0.014   6.674  0.1908 -0.1755  0.3399
  130MOL0     C17428   6.872  -0.003   6.584 -1.6299  0.3965  0.4444
  130MOL0     C17429   6.799  -0.135   6.589 -0.5611 -0.2822  0.4170
  130MOL0     C17430   6.668  -0.146   6.498  0.0757 -0.1105  0.3061
  130MOL0     C17431   6.548  -0.057   6.555  0.1500  1.0617 -0.5022
  130MOL0     N17432   6.421  -0.082   6.489  0.3779 -0.2506  1.0389
  130MOL0     C17433   6.393  -0.021   6.370  0.1628  0.1414  1.0057
  130MOL0     C17434   6.279  -0.077   6.317  0.6346 -0.6565  0.0493
  130MOL0     C17435   6.199  -0.021   6.197  0.3238  0.5323  0.0311
  130MOL0     C17436   6.043  -0.033   6.226  0.3804 -0.0941  0.2396
  130MOL0     C17437   5.968   0.020   6.103  0.6773 -0.5821  0.2309
  130MOL0     C17438   5.814   0.021   6.115  0.2505  0.2077  0.6626
  130MOL0     O17439   5.760   0.090   5.995 -0.2995  0.1488  0.0597
  130MOL0     C17440   5.621   0.125   5.991 -0.6694  0.3313  0.2674
  130MOL0     C17441   5.539   0.119   6.110  0.4087 -0.2105  0.1751
  130MOL0     C17442   5.406   0.153   6.113  0.1647  0.5771 -0.1695
  130MOL0     C17443   5.332   0.147   6.246  0.8819 -0.1293 -0.6683
  130MOL0     C17444   5.349   0.189   5.988 -0.0420  0.0460  0.0296
  130MOL0     C17445   5.205   0.233   5.972 -0.0415 -0.0912 -1.1701
  130MOL0     O17446   5.142   0.268   6.093  0.2309 -0.0402  0.0024
  130MOL0     C17447   5.003   0.279   6.108 -0.2851  0.0628  0.5729
  130MOL0     C17448   4.913   0.320   6.007 -0.5810  0.3490  0.8955
  130MOL0     C17449   4.777   0.321   6.025  0.6461  0.4299 -0.0852
  130MOL0     C17450   4.728   0.280   6.150 -0.3290 -0.6808  1.1879
  130MOL0     O17451   4.594   0.274   6.173  0.3025  0.3751 -0.2319
  130MOL0     C17452   4.504   0.345   6.087  0.3865  0.0250  0.6689
  130MOL0     C17453   4.377   0.366   6.169 -0.8327  0.4604 -0.2776
  130MOL0     C17454   4.292   0.251   6.223 -0.5767  0.8834 -0.5179
  130MOL0     C17455   4.236   0.168   6.107  0.5405 -0.4903  0.0842
  130MOL0     C17456   4.127   0.067   6.151  0.7604  1.2259 -0.8912
  130MOL0     C17457   4.054  -0.004   6.034 -0.3067  0.2479  0.1405
  130MOL0     C17458   3.936  -0.080   6.097 -0.3911 -0.0907  0.2554
  130MOL0     C17459   3.964  -0.216   6.147  0.2019  0.2771  0.5122
  130MOL0    Cl17460   3.813  -0.270   6.219 -0.2717  0.2021 -0.2398
  130MOL0     C17461   4.815   0.248   6.247 -0.1092  0.3296 -0.7019
  130MOL0     C17462   4.951   0.248   6.231  0.0155  0.7629 -0.0352
  130MOL0     O17463   5.149   0.212   5.862  0.8702  0.3786 -0.6348
  130MOL0     C17464   5.428   0.200   5.869 -0.4176  0.0552  0.2941
  130MOL0     C17465   5.563   0.166   5.868  0.3698 -0.5753  0.1038
  130MOL0     N17466   6.240  -0.175   6.406 -0.3157 -0.0150 -0.0408
  130MOL0     N17467   6.326  -0.178   6.504  0.6037 -0.2586 -0.9014
  130MOL0     C17468   7.376   0.520   6.763 -0.1319  0.1583 -0.6276
  130MOL0     C17469   7.476   0.617   6.763  1.1946 -0.2017 -0.1005
  130MOL0     C17470   7.875   0.842   6.639  0.6113  1.1113 -0.4127
  130MOL0     C17471   7.813   0.966   6.681  0.0453  0.0365 -0.3087
  130MOL0     C17472   7.882   1.076   6.665 -0.1163 -1.1388  0.8090
  130MOL0     C17473   8.018   1.078   6.620  0.0060 -0.6365 -0.9675
  130MOL0     O17474   8.073   1.205   6.618 -0.2865 -0.1509 -0.6613
  130MOL0     C17475   8.211   1.209   6.593  0.1220  0.1609 -1.0793
  130MOL0     C17476   8.252   1.343   6.637 -0.8142  0.1588 -0.0228
  130MOL0     C17477   8.395   1.380   6.586  0.2155  0.4737  0.3656
  130MOL0     C17478   8.467   1.487   6.672 -0.2825  0.1945 -0.4313
  130MOL0     C17479   8.429   1.623   6.639 -0.0322  0.1468 -0.1616
  130MOL0     C17480   8.391   1.737   6.627 -0.3810 -0.5456 -0.2493
  130MOL0     C17481   8.079   0.957   6.573  1.1736 -0.3298 -0.7747
  130MOL0     C17482   8.006   0.842   6.586 -0.1886 -0.0805 -0.1470
  130MOL0     H17483   7.658   0.523   6.493  2.8706  1.6949  3.4182
  130MOL0     H17484   7.495   0.335   6.498  1.8727 -1.1049  0.9731
  130MOL0     H17485   7.307   0.257   6.890 -0.2231  0.7865  0.1702
  130MOL0     H17486   7.160   0.333   6.834 -0.4920 -0.5543  2.5261
  130MOL0     H17487   7.265   0.052   6.760 -1.8084 -2.3787  2.5600
  130MOL0     H17488   7.156   0.068   6.886  1.1498  1.9329  1.7704
  130MOL0     H17489   7.000   0.192   6.719  0.1572  1.1502  0.0848
  130MOL0     H17490   7.124   0.148   6.594 -0.3424  1.6766  0.2076
  130MOL0     H17491   7.062  -0.093   6.634  0.2547  0.6362 -1.2492
  130MOL0     H17492   6.954  -0.042   6.770 -3.9658 -0.2094 -1.3587
  130MOL0     H17493   6.812   0.083   6.614  0.4861  2.1328 -0.0420
  130MOL0     H17494   6.907   0.010   6.481 -0.2650 -2.1247  0.5105
  130MOL0     H17495   6.874  -0.211   6.564 -0.8374 -0.4218  0.0006
  130MOL0     H17496   6.773  -0.150   6.694  0.4002 -0.7371  0.6004
  130MOL0     H17497   6.696  -0.129   6.394 -4.0925 -3.6713 -1.7483
  130MOL0     H17498   6.625  -0.247   6.500  0.2783 -0.2185 -0.4209
  130MOL0     H17499   6.587   0.044   6.546  1.3391  0.5620 -1.1204
  130MOL0     H17500   6.538  -0.075   6.663  4.8515 -2.4065 -0.3135
  130MOL0     H17501   6.450   0.058   6.322  0.1281 -1.4035 -1.7831
  130MOL0     H17502   6.223   0.079   6.161  3.0528 -0.5937 -1.5968
  130MOL0     H17503   6.223  -0.095   6.120 -0.3960  0.6607 -0.3178
  130MOL0     H17504   6.014   0.033   6.308  1.9681  0.8273  0.0988
  130MOL0     H17505   6.013  -0.136   6.246 -0.8121  0.5105  1.7760
  130MOL0     H17506   5.990  -0.045   6.018 -1.4955 -1.0438 -0.0488
  130MOL0     H17507   5.995   0.125   6.090  0.5770 -0.5390  0.3669
  130MOL0     H17508   5.783   0.063   6.211 -1.6375 -0.9773  0.6206
  130MOL0     H17509   5.789  -0.085   6.119  1.4461 -0.1248 -0.1455
  130MOL0     H17510   5.596   0.099   6.201  2.1162 -3.0377 -1.3650
  130MOL0     H17511   5.235   0.096   6.245 -0.1125  1.6922 -1.7590
  130MOL0     H17512   5.383   0.083   6.319 -0.4962  0.9926  1.3923
  130MOL0     H17513   5.325   0.246   6.293  2.6567  0.8794 -2.3895
  130MOL0     H17514   4.955   0.335   5.908  0.5820  1.1258  1.4815
  130MOL0     H17515   4.722   0.338   5.933  1.8044  1.2613 -0.6411
  130MOL0     H17516   4.542   0.443   6.059 -0.1423 -0.3608 -1.5803
  130MOL0     H17517   4.488   0.285   5.997  0.8636 -0.1409  0.6862
  130MOL0     H17518   4.406   0.432   6.251  0.0459 -0.8774  0.5262
  130MOL0     H17519   4.306   0.425   6.111 -1.6794  1.2020  1.4353
  130MOL0     H17520   4.216   0.298   6.286  1.4769  2.1852  1.1180
  130MOL0     H17521   4.357   0.188   6.285  0.7551  0.0086 -2.6665
  130MOL0     H17522   4.205   0.251   6.043  1.6883 -0.1726 -0.0744
  130MOL0     H17523   4.316   0.110   6.062  1.6680 -0.5008  2.0098
  130MOL0     H17524   4.057   0.130   6.207  0.8616 -0.9621  1.9123
  130MOL0     H17525   4.168  -0.001   6.226  0.2444  0.5076 -1.2404
  130MOL0     H17526   4.022   0.076   5.966 -1.5849 -0.0192  0.3966
  130MOL0     H17527   4.127  -0.073   5.991 -0.5228 -0.8662  1.4871
  130MOL0     H17528   3.847  -0.093   6.033 -0.7064 -2.4098  1.0752
  130MOL0     H17529   3.902  -0.025   6.185 -2.2641 -0.9006  0.0817
  130MOL0     H17530   4.049  -0.206   6.216 -0.3940  0.4403  1.2401
  130MOL0     H17531   3.994  -0.285   6.068  2.1159  1.8293 -0.1857
  130MOL0     H17532   4.777   0.232   6.347  0.8931 -0.9414 -0.5038
  130MOL0     H17533   5.018   0.233   6.315  1.6341 -0.6153 -1.4952
  130MOL0     H17534   5.386   0.232   5.774  0.3311  0.1248 -0.0210
  130MOL0     H17535   5.616   0.161   5.773 -0.5356  1.4044 -0.5648
  130MOL0     H17536   7.297   0.517   6.837  0.8547  1.2217  0.5215
  130MOL0     H17537   7.469   0.702   6.830 -1.0687  1.6938 -2.5563
  130MOL0     H17538   7.715   0.986   6.722  0.0783  1.1211 -0.7247
  130MOL0     H17539   7.832   1.169   6.689  0.7449 -0.0699 -1.2491
  130MOL0     H17540   8.273   1.133   6.642 -0.6856  0.5249  0.6162
  130MOL0     H17541   8.215   1.208   6.484  1.7072 -1.1822 -1.0519
  130MOL0     H17542   8.275   1.336   6.744  4.5382 -1.1480 -0.9774
  130MOL0     H17543   8.179   1.420   6.609  1.3932  1.2544 -3.3409
  130MOL0     H17544   8.390   1.414   6.482  0.9238 -0.9088 -0.1455
  130MOL0     H17545   8.450   1.286   6.584  0.1631  0.4426  0.3742
  130MOL0     H17546   8.573   1.480   6.645  0.2527 -0.5185  1.6168
  130MOL0     H17547   8.455   1.453   6.776  1.2312  0.2544 -0.2141
  130MOL0     H17548   8.359   1.837   6.603  0.4824  0.4599  2.4131
  130MOL0     H17549   8.179   0.953   6.531  0.6346 -1.5215 -2.0335
  130MOL0     H17550   8.052   0.748   6.555 -0.9445 -1.3702  2.4069
  131MOL0     O17551   9.377   4.912  11.252 -0.1245  0.5999  0.5438
  131MOL0     C17552   9.420   4.952  11.145  0.0231 -0.7704  0.6046
  131MOL0     O17553   9.352   5.047  11.062  0.2755  0.4795  0.3480
  131MOL0     C17554   9.232   5.081  11.107  0.1561 -0.3665  0.5637
  131MOL0     C17555   9.119   4.997  11.129  0.9317  0.5361 -0.9097
  131MOL0     C17556   8.995   5.043  11.167 -0.2955  0.2116  0.4675
  131MOL0     C17557   8.969   5.181  11.180 -0.4914 -0.4153 -1.0993
  131MOL0     O17558   8.850   5.236  11.210 -0.1540  0.8003  0.2629
  131MOL0     C17559   8.730   5.176  11.163  0.5870  0.6759 -0.3953
  131MOL0     C17560   8.627   5.285  11.159 -0.4599 -0.6739  0.0654
  131MOL0     C17561   8.503   5.239  11.082 -0.6013  0.1758 -0.6778
  131MOL0     C17562   8.392   5.333  11.130  0.4533 -0.2861  0.4930
  131MOL0     C17563   8.257   5.294  11.064  0.5535 -0.5855  0.3114
  131MOL0     C17564   8.138   5.373  11.135 -0.4276  1.2322 -0.5977
  131MOL0     C17565   8.088   5.319  11.272  0.1518 -0.7128  0.1325
  131MOL0     C17566   7.998   5.428  11.343 -0.1639 -0.0283 -0.3220
  131MOL0     N17567   7.955   5.385  11.479 -0.3809 -0.6683  0.5913
  131MOL0     C17568   8.023   5.347  11.588 -0.0064  0.1623 -0.2819
  131MOL0     C17569   7.937   5.300  11.676  0.8775 -1.0091  0.3639
  131MOL0     C17570   7.975   5.232  11.800 -0.5138 -0.1519  0.0189
  131MOL0     C17571   8.033   5.323  11.906 -0.0077 -0.1129 -0.6400
  131MOL0     C17572   7.929   5.375  12.008 -0.0791 -0.1738 -0.2800
  131MOL0     C17573   7.789   5.396  11.956 -0.0442  0.4292 -0.9135
  131MOL0     O17574   7.716   5.492  12.042  0.2279 -0.1884 -0.3244
  131MOL0     C17575   7.579   5.522  12.028  0.7183  0.2299 -0.3305
  131MOL0     C17576   7.522   5.632  12.092  0.4899  0.2123 -0.6229
  131MOL0     C17577   7.387   5.666  12.086  0.0886 -0.0822 -0.6505
  131MOL0     C17578   7.359   5.792  12.161  0.1049 -0.8114 -0.1335
  131MOL0     C17579   7.297   5.592  12.009 -0.1745 -0.1429  0.4912
  131MOL0     C17580   7.153   5.617  12.001 -1.0431 -0.6339 -1.1862
  131MOL0     O17581   7.104   5.728  12.060  0.3327 -0.5758  0.4333
  131MOL0     C17582   6.966   5.735  12.092 -0.2252 -0.9368 -0.1394
  131MOL0     C17583   6.932   5.748  12.226 -0.4030 -1.1281  0.4705
  131MOL0     C17584   6.802   5.757  12.262  0.6329  0.7285 -0.0075
  131MOL0     C17585   6.699   5.739  12.167  1.0633  0.2475 -0.4892
  131MOL0     O17586   6.565   5.739  12.196 -0.9017 -0.7114 -0.3106
  131MOL0     C17587   6.523   5.676  12.316 -0.6336  0.3099  0.2514
  131MOL0     C17588   6.378   5.638  12.310 -0.1341  0.9081  0.2323
  131MOL0     C17589   6.314   5.564  12.430  0.1927 -0.2597  0.8159
  131MOL0     C17590   6.166   5.533  12.402  0.1337 -0.2812 -1.3009
  131MOL0     C17591   6.104   5.499  12.535  0.5409  0.2766  0.2112
  131MOL0     C17592   5.958   5.450  12.499  0.0524 -0.2297 -0.0564
  131MOL0     C17593   5.955   5.298  12.478 -0.0947 -1.0313 -0.4662
  131MOL0     C17594   5.826   5.251  12.414 -0.3421 -0.1790 -0.0432
  131MOL0    Cl17595   5.688   5.281  12.527  0.2205 -0.1726  0.0312
  131MOL0     C17596   6.735   5.714  12.030  0.1708  0.0391 -0.1355
  131MOL0     C17597   6.867   5.713  12.001 -0.1216 -0.6024  1.0603
  131MOL0     O17598   7.088   5.529  11.954  0.2797 -0.4391  0.9424
  131MOL0     C17599   7.355   5.478  11.942  0.2509  0.1437  0.2175
  131MOL0     C17600   7.490   5.444  11.953  0.2926  1.0163  0.1370
  131MOL0     N17601   7.810   5.325  11.618 -0.0864  0.5245  0.0993
  131MOL0     N17602   7.828   5.377  11.501  0.5073  0.1655  0.6521
  131MOL0     C17603   9.075   5.270  11.150  0.7667  0.3904 -1.0697
  131MOL0     C17604   9.208   5.219  11.131  0.5692 -0.0828 -0.2172
  131MOL0     C17605   9.544   4.904  11.094  0.2176  0.1063 -0.7754
  131MOL0     C17606   9.583   4.908  10.961  0.4229  0.6759  0.6849
  131MOL0     C17607   9.713   4.869  10.914  0.6942 -0.7075  0.5594
  131MOL0     C17608   9.800   4.810  11.010 -0.2696 -0.6309 -0.2154
  131MOL0     O17609   9.926   4.785  10.956  0.0201  0.0035 -0.7737
  131MOL0     C17610  10.026   4.715  11.033  0.0455 -0.4589  0.5925
  131MOL0     C17611  10.158   4.719  10.955 -0.4362 -0.5117  1.1036
  131MOL0     C17612  10.146   4.629  10.826 -0.1987  0.5717  0.5566
  131MOL0     C17613  10.231   4.678  10.709  0.4626 -0.1311  0.2086
  131MOL0     C17614  10.373   4.709  10.743  0.1185 -0.5661  0.4833
  131MOL0     C17615  10.486   4.747  10.777  0.3471  0.0032 -0.0434
  131MOL0     C17616   9.752   4.790  11.139  1.1728 -0.6250 -0.1281
  131MOL0     C17617   9.631   4.840  11.183 -0.6948 -0.3738 -0.0359
  131MOL0     H17618   9.118   4.889  11.134 -0.7072  0.5147  3.7800
  131MOL0     H17619   8.920   4.966  11.179 -1.4160  1.6277  3.3163
  131MOL0     H17620   8.748   5.119  11.071 -1.9719 -1.0478  0.0570
  131MOL0     H17621   8.694   5.102  11.235  1.1459  1.1637  0.4090
  131MOL0     H17622   8.606   5.336  11.253  1.1789 -0.6051  0.4191
  131MOL0     H17623   8.676   5.364  11.101 -1.9033  2.4550  2.7693
  131MOL0     H17624   8.526   5.253  10.976  1.2815 -1.6681 -0.5825
  131MOL0     H17625   8.477   5.135  11.105 -0.5757  0.7045  2.0547
  131MOL0     H17626   8.380   5.322  11.238 -2.5066 -1.9942  0.1089
  131MOL0     H17627   8.416   5.435  11.100 -2.4088 -0.4748 -3.1147
  131MOL0     H17628   8.269   5.317  10.958  0.8689 -1.7479  0.0801
  131MOL0     H17629   8.238   5.186  11.059  1.5854 -0.7257 -1.0469
  131MOL0     H17630   8.173   5.476  11.141  1.8366  0.8194 -3.9199
  131MOL0     H17631   8.056   5.377  11.064  0.3476  1.6000 -1.4917
  131MOL0     H17632   8.038   5.223  11.254  0.6363 -0.9066 -0.2071
  131MOL0     H17633   8.175   5.306  11.336 -0.6322  1.7652  1.8925
  131MOL0     H17634   7.912   5.448  11.277  0.8423 -1.0781 -2.0233
  131MOL0     H17635   8.056   5.521  11.348  1.8977 -1.3309  2.0507
  131MOL0     H17636   8.130   5.350  11.606  0.1362  1.0282 -1.2117
  131MOL0     H17637   7.886   5.189  11.847 -2.6781  4.7564  1.1428
  131MOL0     H17638   8.052   5.159  11.775  0.6337 -0.0608  2.8841
  131MOL0     H17639   8.075   5.409  11.853  2.4941 -0.5798  0.4372
  131MOL0     H17640   8.115   5.271  11.958  1.7140  1.6336 -1.4955
  131MOL0     H17641   7.982   5.465  12.041  2.1012 -2.4282  3.0238
  131MOL0     H17642   7.931   5.324  12.105 -0.5499  1.3541  0.5594
  131MOL0     H17643   7.738   5.300  11.966 -0.3107  0.5582 -1.0255
  131MOL0     H17644   7.791   5.421  11.849 -0.7497 -0.2545 -1.1000
  131MOL0     H17645   7.584   5.701  12.149 -0.9003  1.3351 -0.4122
  131MOL0     H17646   7.293   5.782  12.248  0.2356  1.8331  0.3609
  131MOL0     H17647   7.448   5.844  12.198  0.2877 -0.7458 -0.6656
  131MOL0     H17648   7.319   5.857  12.083  2.0238  1.7222  0.8557
  131MOL0     H17649   7.013   5.772  12.293 -0.3531  2.9914 -0.8077
  131MOL0     H17650   6.770   5.787  12.362 -1.3696 -1.4802  0.1068
  131MOL0     H17651   6.580   5.584  12.331 -0.1739  0.6158  0.3889
  131MOL0     H17652   6.534   5.743  12.402 -2.2469  0.0469  0.7080
  131MOL0     H17653   6.325   5.731  12.289 -0.2436  0.7619 -0.1391
  131MOL0     H17654   6.358   5.579  12.221 -1.6967  1.1129  0.4185
  131MOL0     H17655   6.316   5.630  12.517  1.5820  0.9563 -0.0835
  131MOL0     H17656   6.370   5.473  12.456  0.5344 -1.4916 -3.4681
  131MOL0     H17657   6.109   5.620  12.369  0.1938 -0.2611 -1.3526
  131MOL0     H17658   6.158   5.447  12.335  2.5043  1.3353 -3.8434
  131MOL0     H17659   6.099   5.585  12.602 -2.0128  0.8275 -0.5580
  131MOL0     H17660   6.152   5.416  12.588 -0.2917  0.4462  1.2478
  131MOL0     H17661   5.890   5.471  12.582  1.4533 -1.1790  1.3873
  131MOL0     H17662   5.921   5.502  12.410  1.1485 -0.4193 -0.6410
  131MOL0     H17663   5.977   5.242  12.569 -0.2313  0.4083  0.5025
  131MOL0     H17664   6.046   5.283  12.420 -0.1020 -0.2146 -0.7075
  131MOL0     H17665   5.833   5.145  12.388 -1.2023 -0.7241  1.7830
  131MOL0     H17666   5.807   5.311  12.325  0.3058 -0.1542 -0.1673
  131MOL0     H17667   6.652   5.689  11.966 -0.3425  0.3752  0.3895
  131MOL0     H17668   6.892   5.683  11.900  1.2180 -1.0109  1.4953
  131MOL0     H17669   7.284   5.418  11.887 -0.1857  3.4364 -3.2313
  131MOL0     H17670   7.532   5.366  11.889  0.7153 -1.1924  2.9151
  131MOL0     H17671   9.056   5.375  11.169  0.4900  0.3931 -1.3474
  131MOL0     H17672   9.283   5.295  11.117 -1.4242  2.2045  0.7717
  131MOL0     H17673   9.517   4.955  10.889 -0.6826 -0.0122  1.2252
  131MOL0     H17674   9.749   4.885  10.813  0.8604 -2.0917  0.3712
  131MOL0     H17675  10.048   4.775  11.122  1.8389  0.3491 -0.3383
  131MOL0     H17676   9.986   4.615  11.047 -0.0328 -0.6014 -0.5653
  131MOL0     H17677  10.242   4.692  11.019  1.1802 -0.9063 -1.0465
  131MOL0     H17678  10.172   4.823  10.925  0.8789 -1.6208 -2.6719
  131MOL0     H17679  10.046   4.629  10.783  0.4992  0.2255 -1.1689
  131MOL0     H17680  10.186   4.529  10.844 -1.1209  0.5580  2.8005
  131MOL0     H17681  10.190   4.764  10.655  1.2602  0.0573 -0.1126
  131MOL0     H17682  10.250   4.603  10.631  1.7260  0.2169  0.1490
  131MOL0     H17683  10.588   4.773  10.801  0.7972 -2.6845  1.3550
  131MOL0     H17684   9.822   4.754  11.214  1.4204 -0.1127 -0.1132
  131MOL0     H17685   9.610   4.831  11.289  1.6188  0.6929  0.5862
  132MOL0     O17686   7.707   1.298   6.224 -0.1510  0.3656 -1.2230
  132MOL0     C17687   7.745   1.372   6.137  0.1888  0.6945  0.1062
  132MOL0     O17688   7.670   1.428   6.045  0.2267 -0.0025 -0.2797
  132MOL0     C17689   7.550   1.381   5.995  0.0413  0.6179  0.0934
  132MOL0     C17690   7.481   1.448   5.897  0.2864 -0.2471  0.2305
  132MOL0     C17691   7.357   1.406   5.831 -0.0513 -0.5335  0.5967
  132MOL0     C17692   7.320   1.275   5.854  0.3611  0.4344 -0.6539
  132MOL0     O17693   7.212   1.223   5.802 -0.2686  0.2944  0.0502
  132MOL0     C17694   7.124   1.297   5.724  0.5241 -1.1340 -0.2511
  132MOL0     C17695   7.022   1.202   5.663 -0.6648 -0.2115  0.4928
  132MOL0     C17696   6.925   1.164   5.776  0.1189  1.1078 -0.3664
  132MOL0     C17697   6.840   1.044   5.735  1.2039  0.1139 -0.9324
  132MOL0     C17698   6.727   1.003   5.815 -0.7954 -0.3539  0.0325
  132MOL0     C17699   6.773   0.940   5.942  0.4907 -0.2244  0.2959
  132MOL0     C17700   6.652   0.883   6.021  0.5313  0.7388  0.5326
  132MOL0     C17701   6.676   0.868   6.172 -0.4151 -0.0974 -0.0439
  132MOL0     N17702   6.583   0.791   6.253  0.0927 -0.0826 -0.7841
  132MOL0     C17703   6.602   0.667   6.307  0.6634  0.0725  0.4835
  132MOL0     C17704   6.489   0.656   6.391 -0.1133  0.8372  0.2333
  132MOL0     C17705   6.472   0.527   6.469  0.1379 -0.6296  0.6444
  132MOL0     C17706   6.469   0.404   6.382  0.9408  0.3742  0.1484
  132MOL0     C17707   6.348   0.386   6.282 -0.3649 -0.6621  0.4555
  132MOL0     C17708   6.370   0.448   6.133  1.1855 -0.1077 -0.1174
  132MOL0     O17709   6.256   0.408   6.051 -0.6486 -0.5400 -0.2487
  132MOL0     C17710   6.138   0.474   6.057  1.0972 -0.0493  0.4674
  132MOL0     C17711   6.123   0.599   6.114 -0.0709  0.0862  0.2483
  132MOL0     C17712   6.005   0.672   6.112  1.0013 -0.3642 -0.4373
  132MOL0     C17713   6.008   0.809   6.182 -0.5856  0.3956 -0.1273
  132MOL0     C17714   5.884   0.605   6.064 -0.7184 -0.0930  0.5035
  132MOL0     C17715   5.744   0.669   6.065  0.2425  0.3926  0.9403
  132MOL0     O17716   5.636   0.594   6.036  0.9452  0.3824 -0.0105
  132MOL0     C17717   5.508   0.645   6.059 -0.3189 -0.0719  0.7628
  132MOL0     C17718   5.401   0.567   6.008 -0.0510 -0.1256  0.2507
  132MOL0     C17719   5.264   0.582   6.045 -0.4033  0.0182 -0.0719
  132MOL0     C17720   5.232   0.697   6.118 -0.6766 -0.1215  0.2287
  132MOL0     O17721   5.112   0.738   6.154 -0.4626 -0.5243  1.0782
  132MOL0     C17722   5.001   0.666   6.117  0.0869  0.0417  0.3597
  132MOL0     C17723   4.886   0.763   6.143 -0.2512  0.0414 -0.5472
  132MOL0     C17724   4.753   0.689   6.113  0.7489 -0.0260 -0.0156
  132MOL0     C17725   4.624   0.777   6.148 -0.0675  0.2823  0.3376
  132MOL0     C17726   4.591   0.761   6.301  0.2682 -0.0230 -0.6493
  132MOL0     C17727   4.463   0.839   6.328 -0.8473  0.2752  0.7327
  132MOL0     C17728   4.419   0.843   6.474 -0.7090 -0.2606  0.5617
  132MOL0     C17729   4.523   0.865   6.588 -0.3804 -0.1060  1.0870
  132MOL0    Cl17730   4.451   0.938   6.733  0.0440 -0.3411 -0.4365
  132MOL0     C17731   5.337   0.777   6.171 -0.1777  0.1266  0.9500
  132MOL0     C17732   5.472   0.756   6.137  0.3532 -0.2036  0.2348
  132MOL0     O17733   5.744   0.788   6.066  0.2331 -0.5335  0.0270
  132MOL0     C17734   5.891   0.475   6.015 -0.4621 -0.3113  0.3189
  132MOL0     C17735   6.019   0.414   6.007  0.5985  0.2151 -0.8622
  132MOL0     N17736   6.408   0.761   6.362  0.5207 -0.3494  0.2011
  132MOL0     N17737   6.461   0.844   6.286 -0.7651 -1.2205 -0.0895
  132MOL0     C17738   7.393   1.197   5.952  0.2689 -0.0947  0.8974
  132MOL0     C17739   7.502   1.250   6.021  0.2701 -0.0484  1.0629
  132MOL0     C17740   7.888   1.420   6.152  0.4241 -0.2716 -0.5185
  132MOL0     C17741   7.975   1.372   6.254  0.4917  0.0379 -0.2353
  132MOL0     C17742   8.107   1.414   6.264  1.3859 -0.8747 -0.1133
  132MOL0     C17743   8.159   1.498   6.170  1.1187 -1.1411  0.0176
  132MOL0     O17744   8.284   1.542   6.196 -0.2700 -0.0608  0.2363
  132MOL0     C17745   8.313   1.680   6.158 -0.6778 -0.0414  0.3897
  132MOL0     C17746   8.431   1.730   6.226 -1.2083  0.3351  0.0270
  132MOL0     C17747   8.555   1.659   6.165 -0.0688 -0.6364 -0.1833
  132MOL0     C17748   8.689   1.719   6.230 -0.6802  1.6321 -0.6906
  132MOL0     C17749   8.816   1.689   6.160  0.9940  0.3309 -0.2771
  132MOL0     C17750   8.926   1.680   6.111 -0.1657 -0.2510 -0.4634
  132MOL0     C17751   8.071   1.554   6.077 -0.4058 -0.1035  0.6114
  132MOL0     C17752   7.946   1.516   6.065  0.3035 -0.1820  0.2178
  132MOL0     H17753   7.507   1.550   5.870 -2.3651  0.4264 -0.0643
  132MOL0     H17754   7.308   1.461   5.752 -1.4626  0.0954  1.8512
  132MOL0     H17755   7.083   1.378   5.785  2.8302  0.9498 -1.2902
  132MOL0     H17756   7.169   1.344   5.636 -2.3589  0.8858 -0.8056
  132MOL0     H17757   6.971   1.260   5.586  1.8125 -1.3275 -2.1812
  132MOL0     H17758   7.068   1.119   5.608  0.7579  0.9853 -0.2053
  132MOL0     H17759   6.972   1.142   5.872  0.7259  3.3589 -0.0850
  132MOL0     H17760   6.861   1.251   5.796 -0.8442  0.3989 -0.3056
  132MOL0     H17761   6.786   1.076   5.645  0.9654  1.5556 -0.3010
  132MOL0     H17762   6.905   0.959   5.715  0.8446 -1.3599  3.2291
  132MOL0     H17763   6.651   1.080   5.833  0.4822  1.1975 -0.9933
  132MOL0     H17764   6.678   0.924   5.757 -0.3471  1.3671 -2.8745
  132MOL0     H17765   6.837   0.856   5.913 -1.4179 -1.8956  0.6665
  132MOL0     H17766   6.826   1.020   5.993 -0.9874 -1.3436  3.8932
  132MOL0     H17767   6.575   0.959   6.006 -0.3014 -0.2481 -0.3391
  132MOL0     H17768   6.615   0.794   5.969  2.0754 -1.1897  2.5491
  132MOL0     H17769   6.701   0.962   6.224  2.0065 -0.9502  0.4945
  132MOL0     H17770   6.771   0.815   6.183 -0.1954  0.7390  3.0987
  132MOL0     H17771   6.695   0.611   6.306  2.3434  2.7050 -1.3198
  132MOL0     H17772   6.564   0.518   6.529  1.0011 -1.9904 -0.7800
  132MOL0     H17773   6.381   0.527   6.530 -0.2397 -0.2973  0.0821
  132MOL0     H17774   6.458   0.325   6.457  2.0557  0.4481  0.4006
  132MOL0     H17775   6.562   0.383   6.328  0.9102 -1.4305  0.7183
  132MOL0     H17776   6.253   0.423   6.321 -0.9771  1.7216 -2.8739
  132MOL0     H17777   6.346   0.279   6.261 -1.6524 -1.3594  3.5628
  132MOL0     H17778   6.457   0.394   6.093  2.0501 -0.4389  2.0569
  132MOL0     H17779   6.384   0.556   6.125  0.9057 -0.1113 -0.7031
  132MOL0     H17780   6.208   0.651   6.159  1.7464 -0.2088 -2.6043
  132MOL0     H17781   5.971   0.885   6.114 -1.7992 -0.9307 -1.0172
  132MOL0     H17782   5.933   0.811   6.263  0.5272  0.3990  0.9283
  132MOL0     H17783   6.108   0.837   6.216 -1.1935  0.5268  1.6730
  132MOL0     H17784   5.424   0.473   5.959  0.3888 -0.1977  0.5853
  132MOL0     H17785   5.186   0.524   5.997 -2.1405  0.0128  2.5344
  132MOL0     H17786   5.005   0.639   6.011  1.3815  1.2429  0.0742
  132MOL0     H17787   4.982   0.581   6.183 -0.4180  0.1569  0.3683
  132MOL0     H17788   4.874   0.779   6.250 -0.7501 -1.1020 -0.4104
  132MOL0     H17789   4.894   0.856   6.086 -0.8192  1.5870  1.7567
  132MOL0     H17790   4.741   0.595   6.167 -1.0492  0.0226 -0.2573
  132MOL0     H17791   4.763   0.669   6.006  3.7140  0.4686  0.0849
  132MOL0     H17792   4.642   0.881   6.120  0.1916 -0.2737 -1.7285
  132MOL0     H17793   4.540   0.744   6.086  1.2016  0.5533 -1.5805
  132MOL0     H17794   4.681   0.782   6.359  0.3440 -2.6668  0.3130
  132MOL0     H17795   4.572   0.654   6.312  1.9826 -0.3626 -0.7120
  132MOL0     H17796   4.482   0.936   6.283  2.3926 -1.9295 -3.3642
  132MOL0     H17797   4.391   0.782   6.267  1.6027 -0.5057 -1.6142
  132MOL0     H17798   4.378   0.749   6.513  0.6231 -0.3065  1.9657
  132MOL0     H17799   4.345   0.923   6.479  0.7819  1.1876  0.1269
  132MOL0     H17800   4.590   0.939   6.543 -2.5782  1.7175  0.6629
  132MOL0     H17801   4.586   0.777   6.605  0.2558 -0.4511 -2.3437
  132MOL0     H17802   5.321   0.874   6.216  1.9964  0.8943  0.1863
  132MOL0     H17803   5.536   0.829   6.186 -0.3640  1.3681 -1.0828
  132MOL0     H17804   5.805   0.416   5.985  0.0500 -1.0668  0.3023
  132MOL0     H17805   6.021   0.310   5.977  2.4754 -0.5299  1.4610
  132MOL0     H17806   7.351   1.104   5.990 -3.1521  1.9931  2.8283
  132MOL0     H17807   7.552   1.177   6.084 -0.1174 -2.8772 -1.6951
  132MOL0     H17808   7.925   1.310   6.327 -0.4685  1.1568  0.0820
  132MOL0     H17809   8.171   1.379   6.345  0.8351 -1.0528  0.2476
  132MOL0     H17810   8.323   1.683   6.049 -4.1341 -0.7120 -0.0345
  132MOL0     H17811   8.229   1.749   6.170 -1.7110 -1.3056  0.5832
  132MOL0     H17812   8.431   1.713   6.334 -0.8693  0.8492  0.1114
  132MOL0     H17813   8.429   1.838   6.208 -4.5887  1.1997  4.0300
  132MOL0     H17814   8.562   1.675   6.057 -1.0985 -1.3147 -0.3655
  132MOL0     H17815   8.561   1.552   6.189  1.5627 -0.5988 -0.3458
  132MOL0     H17816   8.702   1.686   6.333 -1.2094 -0.2792 -1.2129
  132MOL0     H17817   8.672   1.827   6.236 -4.1930  1.1744 -0.6374
  132MOL0     H17818   9.017   1.669   6.054  1.2486 -3.7817  2.1018
  132MOL0     H17819   8.107   1.627   6.006  4.5275 -1.3584  1.4542
  132MOL0     H17820   7.881   1.571   5.996 -0.6735 -0.2113  1.0857
  133MOL0     O17821   7.356  10.532   8.776  0.2996 -0.2508  0.3580
  133MOL0     C17822   7.270  10.466   8.718 -0.4267  0.1414 -0.3969
  133MOL0     O17823   7.293  10.360   8.630 -0.0925 -0.1344 -0.0741
  133MOL0     C17824   7.411  10.342   8.558  0.1144  0.5501  0.5747
  133MOL0     C17825   7.534  10.414   8.561  0.0172 -0.1396  0.6317
  133MOL0     C17826   7.646  10.367   8.480  0.2914  0.1177  0.2063
  133MOL0     C17827   7.627  10.262   8.386 -0.5072  0.2183 -0.7735
  133MOL0     O17828   7.715  10.222   8.293 -0.0298  0.3131 -0.3899
  133MOL0     C17829   7.816  10.307   8.242 -0.1087 -0.3044 -0.0059
  133MOL0     C17830   7.827  10.293   8.085 -0.0708  0.2789  0.0751
  133MOL0     C17831   7.689  10.289   8.011 -0.4663 -0.4135 -0.0618
  133MOL0     C17832   7.703  10.284   7.863  0.1771  0.3992 -0.0603
  133MOL0     C17833   7.571  10.265   7.793 -0.2545  0.3255  0.7523
  133MOL0     C17834   7.494  10.399   7.768  0.7283  0.4544 -0.5643
  133MOL0     C17835   7.378  10.396   7.673  0.3079 -0.3966  0.3543
  133MOL0     C17836   7.269  10.310   7.731  0.4495 -0.7189  0.1172
  133MOL0     N17837   7.129  10.325   7.681 -0.2803 -0.2750  0.6997
  133MOL0     C17838   7.061  10.236   7.606 -0.6190  0.5278  0.5668
  133MOL0     C17839   6.933  10.281   7.592  0.5309 -0.2476 -0.2098
  133MOL0     C17840   6.827  10.203   7.525  0.9011 -0.0611  0.1391
  133MOL0     C17841   6.682  10.234   7.548  0.2273  0.8191 -0.1132
  133MOL0     C17842   6.634  10.192   7.691  0.1842  0.0374  0.0289
  133MOL0     C17843   6.486  10.203   7.724  0.2098 -0.2311 -0.1195
  133MOL0     O17844   6.400  10.160   7.621  0.1535  0.6581  0.2399
  133MOL0     C17845   6.265  10.138   7.648 -0.6401  1.0072  0.6822
  133MOL0     C17846   6.187  10.197   7.749  0.0055  0.0119  0.1172
  133MOL0     C17847   6.053  10.159   7.766 -0.3531  0.1412 -0.5027
  133MOL0     C17848   5.985  10.213   7.895  0.0270 -0.8709 -0.0179
  133MOL0     C17849   5.995  10.074   7.673  0.3645  0.7092  0.0649
  133MOL0     C17850   5.867  10.001   7.701 -0.4156  0.4033 -0.7471
  133MOL0     O17851   5.851   9.889   7.636 -0.2121  0.2230  0.4738
  133MOL0     C17852   5.725   9.830   7.650  0.4090  0.2188 -0.7738
  133MOL0     C17853   5.688   9.768   7.772 -0.3907 -0.4485 -0.0594
  133MOL0     C17854   5.567   9.708   7.793 -0.4478 -0.5088 -0.4464
  133MOL0     C17855   5.475   9.717   7.691 -0.2342 -0.0228 -0.1907
  133MOL0     O17856   5.347   9.671   7.702  0.3906  0.0195  0.5637
  133MOL0     C17857   5.253   9.776   7.685  0.0650 -0.9475  0.2073
  133MOL0     C17858   5.126   9.747   7.770  0.0103  0.7853 -0.3250
  133MOL0     C17859   5.031   9.629   7.712  0.0128 -0.2183 -0.1149
  133MOL0     C17860   4.884   9.642   7.740  0.3718 -0.0862  0.1094
  133MOL0     C17861   4.815   9.760   7.670 -0.2197  0.1507 -0.6264
  133MOL0     C17862   4.665   9.747   7.687 -0.3679 -0.6882 -0.7178
  133MOL0     C17863   4.598   9.867   7.631  0.0479  0.9624  0.6025
  133MOL0     C17864   4.451   9.837   7.571 -0.0780  0.0465  0.5748
  133MOL0    Cl17865   4.458   9.704   7.442  0.1898  0.1880 -0.3771
  133MOL0     C17866   5.506   9.769   7.563 -0.5997 -0.4533  0.3375
  133MOL0     C17867   5.631   9.832   7.555  0.1391 -0.6617  0.6179
  133MOL0     O17868   5.785  10.058   7.775 -0.2917  0.9931  0.0284
  133MOL0     C17869   6.068  10.037   7.555 -0.4473  0.5724 -0.3183
  133MOL0     C17870   6.203  10.069   7.551 -0.4893  0.0194 -0.0992
  133MOL0     N17871   6.919  10.391   7.682  0.0062  1.2034 -0.1021
  133MOL0     N17872   7.037  10.413   7.729 -0.4842 -0.4720 -0.2261
  133MOL0     C17873   7.511  10.195   8.394  0.1758  1.0776  0.1341
  133MOL0     C17874   7.406  10.230   8.471  0.3562  0.1882 -0.2980
  133MOL0     C17875   7.129  10.496   8.753 -0.5636 -0.2573  0.3936
  133MOL0     C17876   7.096  10.572   8.857  0.7923 -0.2339  0.4153
  133MOL0     C17877   6.970  10.575   8.907 -1.0482  0.3781  0.6299
  133MOL0     C17878   6.868  10.507   8.847  0.6846  0.2959  0.2457
  133MOL0     O17879   6.736  10.517   8.892 -0.4521 -0.4020  0.3096
  133MOL0     C17880   6.667  10.395   8.895  0.5440 -0.2965  0.4434
  133MOL0     C17881   6.525  10.421   8.870  0.1347  0.3879 -0.7632
  133MOL0     C17882   6.433  10.302   8.884  0.0186 -0.5589  0.0345
  133MOL0     C17883   6.284  10.347   8.871 -0.4899  0.6033 -0.0834
  133MOL0     C17884   6.242  10.433   8.981 -0.5470 -0.6658  0.3924
  133MOL0     C17885   6.204  10.511   9.070  0.0896 -0.5516  0.8693
  133MOL0     C17886   6.902  10.432   8.736  0.1831  0.3911 -0.7124
  133MOL0     C17887   7.027  10.431   8.678 -0.2133 -0.5064  0.0735
  133MOL0     H17888   7.549  10.497   8.630 -0.3572  0.6399 -0.2032
  133MOL0     H17889   7.737  10.425   8.489  0.4404  0.0674 -0.8581
  133MOL0     H17890   7.791  10.410   8.267 -0.4038 -0.7270  1.5550
  133MOL0     H17891   7.913  10.281   8.285 -0.0730  0.8997  0.6852
  133MOL0     H17892   7.897  10.373   8.059  0.2206 -0.3331 -1.0804
  133MOL0     H17893   7.888  10.209   8.051  0.9309  0.6179  0.9717
  133MOL0     H17894   7.627  10.204   8.042 -0.1954  0.1147  2.0530
  133MOL0     H17895   7.637  10.383   8.035  2.2728  0.8873  1.1999
  133MOL0     H17896   7.754  10.367   7.813  1.2146 -0.7164 -0.9265
  133MOL0     H17897   7.758  10.193   7.838  0.1106  0.5853 -0.9064
  133MOL0     H17898   7.586  10.221   7.694  2.2826 -0.4640  1.4159
  133MOL0     H17899   7.501  10.202   7.849  0.1356 -0.8434 -0.0338
  133MOL0     H17900   7.458  10.431   7.866 -0.7637 -0.6451 -0.7233
  133MOL0     H17901   7.563  10.476   7.733  0.7115  0.6936 -0.0808
  133MOL0     H17902   7.341  10.497   7.652 -2.3242 -1.6854 -2.0002
  133MOL0     H17903   7.406  10.350   7.578 -1.1676  1.1415 -0.8863
  133MOL0     H17904   7.261  10.334   7.838  1.3899 -0.6688  0.1836
  133MOL0     H17905   7.294  10.204   7.721  0.9986 -0.6895  1.0994
  133MOL0     H17906   7.098  10.141   7.568  2.2546  0.9002  2.1093
  133MOL0     H17907   6.846  10.213   7.418 -1.6520  3.6823 -0.1384
  133MOL0     H17908   6.835  10.100   7.561 -1.8996  0.3601  2.2836
  133MOL0     H17909   6.623  10.181   7.472 -0.6562 -1.2507  1.8733
  133MOL0     H17910   6.664  10.341   7.541  0.2604  0.7232 -4.1426
  133MOL0     H17911   6.679  10.248   7.773  0.6953 -2.6111  1.6990
  133MOL0     H17912   6.659  10.085   7.697  1.9835  0.5086  1.8979
  133MOL0     H17913   6.466  10.308   7.744  4.7161  0.7309  0.4017
  133MOL0     H17914   6.465  10.138   7.810  1.9382 -0.7125 -0.0262
  133MOL0     H17915   6.232  10.261   7.825 -0.0142  2.1381 -1.5806
  133MOL0     H17916   6.039  10.301   7.933 -0.0843 -0.7667 -0.1015
  133MOL0     H17917   5.884  10.248   7.872 -0.7356 -0.5915  3.1821
  133MOL0     H17918   5.979  10.138   7.974  0.0632  1.1818  2.0489
  133MOL0     H17919   5.761   9.766   7.852 -1.7321 -1.4021  1.1916
  133MOL0     H17920   5.541   9.651   7.882 -5.6885  2.1636  0.1363
  133MOL0     H17921   5.295   9.876   7.695 -0.3143 -0.6593 -0.9616
  133MOL0     H17922   5.218   9.778   7.581  1.8252 -0.7512 -0.4040
  133MOL0     H17923   5.161   9.724   7.871 -2.1724  2.2779  0.8528
  133MOL0     H17924   5.058   9.832   7.780 -0.8694 -0.0514  1.0880
  133MOL0     H17925   5.071   9.540   7.762 -2.2531 -1.3939 -0.2719
  133MOL0     H17926   5.044   9.616   7.604 -1.6113 -4.3331 -0.0058
  133MOL0     H17927   4.839   9.549   7.705  1.1035  0.6356 -3.0521
  133MOL0     H17928   4.870   9.652   7.848 -2.4565  3.2775 -0.3991
  133MOL0     H17929   4.856   9.772   7.570  0.4703  1.8726 -0.1766
  133MOL0     H17930   4.844   9.856   7.714 -1.0775  0.2862 -0.3444
  133MOL0     H17931   4.627   9.658   7.636  2.0497 -1.9949 -0.3954
  133MOL0     H17932   4.631   9.736   7.790 -0.5140 -4.7705 -1.0375
  133MOL0     H17933   4.658   9.913   7.551 -2.0732  0.4708 -1.3930
  133MOL0     H17934   4.588   9.942   7.710 -2.4960  2.3173 -0.8328
  133MOL0     H17935   4.393   9.923   7.534 -4.0866 -2.4800  0.4120
  133MOL0     H17936   4.395   9.797   7.657 -2.7090  0.5305 -0.7985
  133MOL0     H17937   5.432   9.766   7.484 -0.5093 -1.3683  0.2701
  133MOL0     H17938   5.649   9.872   7.455  2.1035 -2.6689  0.0704
  133MOL0     H17939   6.020   9.970   7.484 -0.6406  1.3871 -0.9732
  133MOL0     H17940   6.268  10.048   7.466  1.3619  2.7462  0.4857
  133MOL0     H17941   7.490  10.119   8.319  1.8813 -1.2585  1.8620
  133MOL0     H17942   7.315  10.173   8.452 -0.1403  1.8964 -3.7777
  133MOL0     H17943   7.176  10.622   8.911  0.7385  1.6649 -1.1489
  133MOL0     H17944   6.948  10.633   8.996  0.6093 -1.5629  2.4242
  133MOL0     H17945   6.701  10.322   8.821  1.1297 -1.2548  1.6177
  133MOL0     H17946   6.680  10.346   8.992  0.8233  0.6180  0.8807
  133MOL0     H17947   6.512  10.447   8.764 -3.3504 -2.3968 -1.1904
  133MOL0     H17948   6.505  10.508   8.933  2.6436  0.5210 -0.0144
  133MOL0     H17949   6.451  10.271   8.987 -1.2663 -3.0649 -0.4270
  133MOL0     H17950   6.449  10.221   8.812  1.9770 -1.9963  1.9642
  133MOL0     H17951   6.223  10.257   8.874 -0.5743  0.6280 -0.8933
  133MOL0     H17952   6.270  10.402   8.777  1.8387  3.8916  1.2762
  133MOL0     H17953   6.182  10.597   9.130 -0.3567 -0.0711  0.0316
  133MOL0     H17954   6.834  10.358   8.694  0.0514  0.1047 -0.0078
  133MOL0     H17955   7.035  10.364   8.594 -0.0291 -0.1316 -0.2117
  134MOL0     O17956   0.527  10.083   9.895  0.2198 -0.5053  1.4061
  134MOL0     C17957   0.550  10.167   9.985  0.2391  1.0270 -0.4209
  134MOL0     O17958   0.452  10.238  10.050  0.2008  0.2789 -0.0097
  134MOL0     C17959   0.321  10.244  10.005 -0.1995  0.5395  0.1778
  134MOL0     C17960   0.252  10.135   9.963  0.3708  0.1015  0.4673
  134MOL0     C17961   0.122  10.140   9.919 -0.4337 -0.0755  0.5705
  134MOL0     C17962   0.047  10.262   9.928 -0.6547  0.7830  0.1977
  134MOL0     O17963  -0.083  10.285   9.895 -0.6554 -0.3905 -0.2158
  134MOL0     C17964  -0.142  10.198   9.815  0.7849  0.0736 -0.5420
  134MOL0     C17965  -0.262  10.252   9.740 -0.2241 -0.3767 -0.3957
  134MOL0     C17966  -0.398  10.240   9.810 -0.4556 -0.3404 -0.1291
  134MOL0     C17967  -0.503  10.319   9.741 -0.1659 -0.5377  0.5007
  134MOL0     C17968  -0.634  10.295   9.808 -0.0797 -0.0337 -1.1210
  134MOL0     C17969  -0.687  10.156   9.786 -0.5351 -0.0499  0.1622
  134MOL0     C17970  -0.813  10.137   9.861  0.1982  1.1908 -0.6380
  134MOL0     C17971  -0.937  10.175   9.768 -0.2909  0.2439  0.1648
  134MOL0     N17972  -1.063  10.164   9.842  0.1381 -0.2000  0.0901
  134MOL0     C17973  -1.173  10.248   9.825  0.4433 -0.1637 -0.0441
  134MOL0     C17974  -1.262  10.217   9.923  0.1315  0.7281 -1.1542
  134MOL0     C17975  -1.388  10.289   9.962 -0.2718  0.3210 -0.7321
  134MOL0     C17976  -1.346  10.431  10.002 -0.1763  0.1882  0.1908
  134MOL0     C17977  -1.295  10.448  10.143  0.0285 -0.1233 -0.0220
  134MOL0     C17978  -1.374  10.383  10.259 -0.0178  0.1258 -0.5848
  134MOL0     O17979  -1.351  10.239  10.259  0.3455  0.0416  0.5252
  134MOL0     C17980  -1.448  10.163  10.322  0.4256 -0.1542 -0.1481
  134MOL0     C17981  -1.521  10.209  10.430  0.0548 -0.3643  0.1018
  134MOL0     C17982  -1.628  10.139  10.487 -0.4396 -0.3277 -0.7080
  134MOL0     C17983  -1.713  10.210  10.598 -0.3537  0.2242 -0.3677
  134MOL0     C17984  -1.652  10.009  10.436 -0.5658  0.0753  0.4833
  134MOL0     C17985  -1.747   9.917  10.501  1.0051  0.1873 -0.7868
  134MOL0     O17986  -1.868   9.956  10.563 -0.7320  1.1339  0.3856
  134MOL0     C17987  -1.941   9.892  10.664 -0.3363 -0.2315 -0.1470
  134MOL0     C17988  -1.911   9.768  10.721 -0.3393 -0.0004 -0.3197
  134MOL0     C17989  -1.997   9.703  10.811 -0.1252  0.5987 -0.9608
  134MOL0     C17990  -2.102   9.774  10.871 -0.2296  0.4642  0.0916
  134MOL0     O17991  -2.166   9.724  10.987 -0.2109  0.3705  0.1509
  134MOL0     C17992  -2.274   9.808  11.040 -0.3054 -0.3578 -0.3639
  134MOL0     C17993  -2.326   9.760  11.178  0.2519  0.8124  0.8344
  134MOL0     C17994  -2.429   9.653  11.154 -0.1395 -0.7850  0.7755
  134MOL0     C17995  -2.506   9.634  11.277  0.1382  0.4723  0.2970
  134MOL0     C17996  -2.609   9.525  11.266  0.9629 -0.1962  0.7005
  134MOL0     C17997  -2.703   9.519  11.378 -0.5729 -0.2012  0.7650
  134MOL0     C17998  -2.828   9.602  11.372 -0.0351 -0.6015  0.3644
  134MOL0     C17999  -2.947   9.549  11.305  0.2405  0.1654  0.8604
  134MOL0    Cl18000  -3.098   9.646  11.334  0.1735 -0.1838 -0.4593
  134MOL0     C18001  -2.140   9.888  10.811  0.0139  0.1502  0.7812
  134MOL0     C18002  -2.058   9.950  10.710  0.8275 -0.5431 -0.5175
  134MOL0     O18003  -1.712   9.798  10.487  0.1415 -0.4675 -1.4590
  134MOL0     C18004  -1.569   9.964  10.325  1.4272  0.7999 -0.3762
  134MOL0     C18005  -1.473  10.036  10.266  0.7203  0.5223 -0.8709
  134MOL0     N18006  -1.205  10.112   9.990  0.2673  0.0890  1.0563
  134MOL0     N18007  -1.091  10.073   9.944  0.7003  0.1047 -0.3397
  134MOL0     C18008   0.112  10.370   9.999  0.6450 -0.1744  0.0418
  134MOL0     C18009   0.244  10.360  10.030  0.2267 -0.0894 -0.0367
  134MOL0     C18010   0.690  10.192  10.030  1.2031 -0.2980 -0.0454
  134MOL0     C18011   0.792  10.100  10.004  0.0435  0.3955  0.1719
  134MOL0     C18012   0.928  10.128  10.041  0.5244  0.5055 -1.0597
  134MOL0     C18013   0.952  10.254  10.101 -0.4508 -0.2098  0.7222
  134MOL0     O18014   1.069  10.290  10.158  0.0549  0.0511  0.0483
  134MOL0     C18015   1.173  10.198  10.168 -0.2962  0.3382 -0.1477
  134MOL0     C18016   1.299  10.261  10.241  0.6301  0.2887 -0.4304
  134MOL0     C18017   1.391  10.154  10.311 -0.1398 -0.3766 -0.5476
  134MOL0     C18018   1.331  10.107  10.450 -0.9750 -0.3478  0.2336
  134MOL0     C18019   1.430  10.032  10.524 -0.3621  0.6601  0.6821
  134MOL0     C18020   1.531   9.982  10.570 -0.2410  0.0156  0.1501
  134MOL0     C18021   0.850  10.344  10.121 -0.3721 -0.7386 -0.0328
  134MOL0     C18022   0.724  10.311  10.091  0.0098 -0.9500 -0.4574
  134MOL0     H18023   0.305  10.040   9.954  2.1995  1.2442 -2.0653
  134MOL0     H18024   0.080  10.047   9.881 -1.2012 -0.4415  2.2493
  134MOL0     H18025  -0.073  10.161   9.739  1.0003  0.0137 -0.3176
  134MOL0     H18026  -0.164  10.109   9.875 -1.0512  2.2164  2.2069
  134MOL0     H18027  -0.253  10.358   9.715  0.0737 -0.4100 -0.4273
  134MOL0     H18028  -0.277  10.197   9.646 -2.1898 -1.6420  0.5933
  134MOL0     H18029  -0.422  10.133   9.805 -1.2358 -0.1217 -3.2648
  134MOL0     H18030  -0.377  10.268   9.913  0.2458  2.3422 -0.9371
  134MOL0     H18031  -0.470  10.422   9.752  0.9850 -0.7541 -0.6463
  134MOL0     H18032  -0.502  10.290   9.635  1.5624 -0.6314  0.5186
  134MOL0     H18033  -0.612  10.317   9.913  0.2136  2.8199 -1.6960
  134MOL0     H18034  -0.706  10.371   9.779 -1.6380 -0.9750  0.0792
  134MOL0     H18035  -0.695  10.144   9.677  1.1484  0.8067 -0.0900
  134MOL0     H18036  -0.618  10.072   9.805  0.5190  0.5177 -0.9840
  134MOL0     H18037  -0.829  10.033   9.890 -1.2709  1.7315  0.6820
  134MOL0     H18038  -0.823  10.191   9.955 -1.1593  1.1703 -0.7462
  134MOL0     H18039  -0.947  10.118   9.675 -0.4308  0.8348 -0.1903
  134MOL0     H18040  -0.933  10.276   9.727 -0.8139  0.0248 -0.4509
  134MOL0     H18041  -1.183  10.330   9.755  2.5964  0.5758  0.4263
  134MOL0     H18042  -1.439  10.293   9.865  1.6245  1.4776 -1.7577
  134MOL0     H18043  -1.453  10.243  10.036  0.3918  1.6688  0.7705
  134MOL0     H18044  -1.434  10.495   9.990 -1.8658 -2.3302 -2.3411
  134MOL0     H18045  -1.280  10.467   9.923 -1.5396 -0.8102 -1.4824
  134MOL0     H18046  -1.290  10.556  10.162 -1.8453 -0.0726  0.4447
  134MOL0     H18047  -1.195  10.406  10.136 -0.6378 -1.5195 -2.9399
  134MOL0     H18048  -1.480  10.406  10.245 -0.8751 -2.5277  0.8363
  134MOL0     H18049  -1.340  10.422  10.355  0.6973 -3.1663  0.6045
  134MOL0     H18050  -1.480  10.299  10.472  1.3377  0.3486 -2.4512
  134MOL0     H18051  -1.807  10.253  10.562 -1.6731 -1.1390  1.3107
  134MOL0     H18052  -1.748  10.131  10.665 -1.7505  0.8709 -0.2887
  134MOL0     H18053  -1.661  10.287  10.656 -0.6303  0.5207 -0.5071
  134MOL0     H18054  -1.831   9.711  10.675  1.5045  0.2737  2.3070
  134MOL0     H18055  -1.986   9.599  10.839 -0.9513  0.1490 -2.2339
  134MOL0     H18056  -2.243   9.908  11.072  3.1014 -1.8029  1.4058
  134MOL0     H18057  -2.359   9.824  10.973 -1.5926 -0.0744  1.2723
  134MOL0     H18058  -2.241   9.728  11.239  1.1517  1.3166 -0.1306
  134MOL0     H18059  -2.372   9.847  11.227  3.2593  1.4450  2.8125
  134MOL0     H18060  -2.381   9.562  11.116 -0.9094 -0.6972 -0.4728
  134MOL0     H18061  -2.499   9.696  11.081 -0.4207 -2.4469  0.0070
  134MOL0     H18062  -2.442   9.618  11.364 -0.9914 -2.0264  0.7659
  134MOL0     H18063  -2.558   9.730  11.289 -0.3394  0.1125  1.2285
  134MOL0     H18064  -2.566   9.425  11.251  1.0543  0.0257 -0.5853
  134MOL0     H18065  -2.668   9.534  11.175 -0.7958  1.7392  1.9365
  134MOL0     H18066  -2.738   9.416  11.374  2.3392 -1.2520 -0.4855
  134MOL0     H18067  -2.639   9.535  11.466 -0.6472  1.0828  0.6077
  134MOL0     H18068  -2.796   9.697  11.327  1.0182 -0.9302  0.3981
  134MOL0     H18069  -2.868   9.618  11.473  0.5834 -3.7531  1.2314
  134MOL0     H18070  -2.958   9.445  11.337  1.8064 -0.5347 -0.7385
  134MOL0     H18071  -2.931   9.556  11.197 -0.6627 -0.3173  0.6834
  134MOL0     H18072  -2.227   9.943  10.844  1.1436  2.0284  0.7716
  134MOL0     H18073  -2.087  10.047  10.670  0.0801 -0.7521 -0.5077
  134MOL0     H18074  -1.594   9.861  10.300 -2.1476  1.8495 -1.7101
  134MOL0     H18075  -1.409   9.999  10.186  2.3506 -1.4458  1.2218
  134MOL0     H18076   0.059  10.463  10.016  1.9068  0.9490 -1.7650
  134MOL0     H18077   0.306  10.442  10.067  1.0503 -1.2464  1.2738
  134MOL0     H18078   0.756  10.002   9.973  1.3863  0.1865 -0.8153
  134MOL0     H18079   0.997  10.047  10.016 -0.5889 -1.0432  0.6568
  134MOL0     H18080   1.135  10.110  10.221  1.4615  0.2916  1.1345
  134MOL0     H18081   1.200  10.149  10.073 -3.1890 -2.4044  0.2545
  134MOL0     H18082   1.267  10.339  10.311 -2.4956 -0.5666 -0.7466
  134MOL0     H18083   1.350  10.321  10.165  0.3479  0.7698 -0.2495
  134MOL0     H18084   1.486  10.205  10.327 -0.9294  0.3917  2.4273
  134MOL0     H18085   1.413  10.068  10.247  0.8852 -0.6108  0.0933
  134MOL0     H18086   1.243  10.044  10.431 -1.0747 -0.4717  1.0708
  134MOL0     H18087   1.297  10.189  10.514  1.3760 -0.3631  1.5817
  134MOL0     H18088   1.615   9.935  10.617  0.1740  0.1936 -0.4025
  134MOL0     H18089   0.874  10.439  10.168  0.8666 -1.3414  0.5922
  134MOL0     H18090   0.644  10.384  10.094 -1.7216 -2.6533 -2.1238
  135MOL0     O18091   6.815   6.328  10.896 -0.0085 -0.8253  0.3373
  135MOL0     C18092   6.938   6.320  10.873  0.2759 -0.0174  0.2550
  135MOL0     O18093   7.027   6.260  10.952  0.0166  0.4779  0.5672
  135MOL0     C18094   7.000   6.195  11.074  0.0906 -0.2587 -1.1604
  135MOL0     C18095   7.111   6.186  11.160  0.3425 -0.4271  0.2326
  135MOL0     C18096   7.096   6.141  11.293 -0.5588  0.2387  0.0857
  135MOL0     C18097   6.975   6.092  11.341  0.5649  0.4167 -0.1647
  135MOL0     O18098   6.995   6.024  11.459 -0.0584 -0.3323  0.4954
  135MOL0     C18099   6.889   6.049  11.552  0.3216  0.3610 -0.1868
  135MOL0     C18100   6.801   5.927  11.582 -0.3491  0.6213  0.3486
  135MOL0     C18101   6.706   5.953  11.704  0.3140 -0.1597 -0.0307
  135MOL0     C18102   6.580   6.051  11.675  0.3333  0.0846  0.3496
  135MOL0     C18103   6.452   6.026  11.748 -0.5745  0.7109  0.4406
  135MOL0     C18104   6.463   6.021  11.901  0.1296  0.2349 -0.2928
  135MOL0     C18105   6.331   5.999  11.976  0.2043 -0.3177  0.0023
  135MOL0     C18106   6.287   5.854  11.955  0.3583 -0.1333 -0.0049
  135MOL0     N18107   6.151   5.822  12.008 -0.3976 -0.4454  0.4115
  135MOL0     C18108   6.110   5.692  12.035 -0.5519 -0.3252  0.5808
  135MOL0     C18109   5.977   5.707  12.066 -0.0869 -1.0522 -0.7021
  135MOL0     C18110   5.895   5.592  12.095  1.8464  0.8759 -0.3698
  135MOL0     C18111   5.753   5.643  12.120 -0.9188  0.3430  0.1824
  135MOL0     C18112   5.650   5.525  12.133  0.5544 -0.1470 -0.0856
  135MOL0     C18113   5.512   5.563  12.099  0.3512 -0.1612  0.0780
  135MOL0     O18114   5.431   5.453  12.118 -0.4516  0.7081 -0.3960
  135MOL0     C18115   5.292   5.463  12.102  0.9998 -0.5375  0.0288
  135MOL0     C18116   5.214   5.368  12.172 -0.2200 -0.1405 -0.0361
  135MOL0     C18117   5.071   5.375  12.180  1.0384  0.6655  0.2242
  135MOL0     C18118   4.998   5.273  12.270  0.1738 -0.4113  0.9631
  135MOL0     C18119   5.005   5.471  12.099 -0.1955  0.2393 -0.4504
  135MOL0     C18120   4.855   5.480  12.081 -0.4199  0.4018 -0.0733
  135MOL0     O18121   4.813   5.578  12.000  0.0219  0.1928  0.4918
  135MOL0     C18122   4.674   5.578  11.973  0.2974  0.2589 -0.5871
  135MOL0     C18123   4.586   5.676  12.030 -0.2173 -0.6463 -0.3832
  135MOL0     C18124   4.451   5.671  12.008 -0.1507  0.1919 -0.2708
  135MOL0     C18125   4.404   5.586  11.910 -0.1631  1.1618  0.4395
  135MOL0     O18126   4.277   5.593  11.859  0.3164  0.1729 -0.4757
  135MOL0     C18127   4.174   5.648  11.945 -1.2405 -0.5037  0.8807
  135MOL0     C18128   4.034   5.607  11.905 -0.3837  0.7978 -0.7528
  135MOL0     C18129   3.936   5.705  11.983 -0.0970  0.0333 -0.6013
  135MOL0     C18130   3.789   5.660  11.951  0.0777 -0.0708 -0.0578
  135MOL0     C18131   3.672   5.731  12.025  0.0087  0.4177 -0.4191
  135MOL0     C18132   3.531   5.674  11.985  0.0757  0.3211  0.4737
  135MOL0     C18133   3.424   5.759  12.058 -0.6978  0.3129  0.3719
  135MOL0     C18134   3.294   5.684  12.031  0.3140 -0.7008  0.2059
  135MOL0    Cl18135   3.159   5.793  12.107  0.4647  0.3166 -0.1565
  135MOL0     C18136   4.488   5.494  11.852 -0.6465  0.0730 -0.7005
  135MOL0     C18137   4.629   5.489  11.889  0.1313  0.4244  0.4543
  135MOL0     O18138   4.790   5.393  12.127  0.3502  0.4464 -0.8918
  135MOL0     C18139   5.089   5.565  12.036  0.1088 -0.3106  0.1411
  135MOL0     C18140   5.224   5.570  12.039 -0.1559 -0.2565  0.3971
  135MOL0     N18141   5.943   5.840  12.061 -0.4989 -0.0905  0.0076
  135MOL0     N18142   6.043   5.901  12.027  0.6699  0.1275  0.1129
  135MOL0     C18143   6.862   6.104  11.260  0.1837  0.3755  0.2683
  135MOL0     C18144   6.872   6.151  11.125 -0.5366  0.2662 -0.5971
  135MOL0     C18145   6.995   6.377  10.745 -0.5134 -0.7147 -0.2680
  135MOL0     C18146   7.137   6.378  10.704 -0.5582  0.9668 -1.0388
  135MOL0     C18147   7.186   6.417  10.583 -0.7460 -0.2231 -0.1903
  135MOL0     C18148   7.094   6.476  10.492  0.2433 -0.1607  0.4441
  135MOL0     O18149   7.130   6.537  10.371  0.2185 -0.8277 -0.6644
  135MOL0     C18150   7.261   6.596  10.370 -0.0367 -0.1514  0.8443
  135MOL0     C18151   7.265   6.699  10.256 -0.0042 -0.0641 -0.1820
  135MOL0     C18152   7.191   6.831  10.281  0.1284  0.4319 -0.2232
  135MOL0     C18153   7.051   6.824  10.342  0.6443  0.1577  0.9008
  135MOL0     C18154   6.990   6.960  10.354  0.8694  0.7040 -0.7164
  135MOL0     C18155   6.932   7.058  10.373  0.5457  0.5481 -0.2032
  135MOL0     C18156   6.955   6.494  10.527  0.4319  0.0432 -0.1175
  135MOL0     C18157   6.905   6.441  10.655 -0.3246 -0.3684  0.8442
  135MOL0     H18158   7.204   6.228  11.120  1.0230 -1.2441  0.9295
  135MOL0     H18159   7.176   6.165  11.362 -1.7054 -1.5381  2.1710
  135MOL0     H18160   6.934   6.076  11.648 -1.8834  1.6507  0.5417
  135MOL0     H18161   6.832   6.138  11.524  4.0741  2.9162 -0.5141
  135MOL0     H18162   6.749   5.896  11.491  3.7882 -0.2214 -1.9649
  135MOL0     H18163   6.866   5.845  11.614  3.3345  3.1310 -0.0868
  135MOL0     H18164   6.664   5.854  11.726  0.8803 -0.1054  1.4026
  135MOL0     H18165   6.764   5.987  11.791  0.8540 -1.6021  0.1969
  135MOL0     H18166   6.615   6.154  11.689  1.4532 -0.2214 -0.0638
  135MOL0     H18167   6.558   6.040  11.569  1.2093  1.8868 -0.0670
  135MOL0     H18168   6.398   6.114  11.710  1.3907  0.7149 -2.6506
  135MOL0     H18169   6.411   5.928  11.723 -1.0828  0.6407  1.5061
  135MOL0     H18170   6.527   5.937  11.929 -0.3991  0.7785  2.9707
  135MOL0     H18171   6.505   6.116  11.936 -1.8512  0.3025  2.1815
  135MOL0     H18172   6.336   6.002  12.085 -1.7064  0.2212  0.1210
  135MOL0     H18173   6.252   6.065  11.938  1.4088 -0.0181 -2.1187
  135MOL0     H18174   6.353   5.789  12.014  2.2745  1.5713 -0.1586
  135MOL0     H18175   6.293   5.813  11.853  0.2770  0.6225 -0.3234
  135MOL0     H18176   6.168   5.602  12.055  0.6366  0.0573 -1.0469
  135MOL0     H18177   5.884   5.523  12.011 -0.0370  0.4956  0.1408
  135MOL0     H18178   5.925   5.547  12.190 -0.6335  0.1744  0.1653
  135MOL0     H18179   5.728   5.699  12.029 -1.1029 -0.7293 -0.4413
  135MOL0     H18180   5.739   5.713  12.203  1.3445  1.9119 -0.6500
  135MOL0     H18181   5.650   5.501  12.240  1.4271 -2.0612 -0.4701
  135MOL0     H18182   5.678   5.431  12.085 -0.5906 -1.5479  1.8339
  135MOL0     H18183   5.507   5.601  11.996  1.2638  1.7887  0.7099
  135MOL0     H18184   5.479   5.639  12.170 -2.2787 -0.2203 -0.9538
  135MOL0     H18185   5.275   5.299  12.230  1.5349  1.8762  0.6570
  135MOL0     H18186   4.931   5.217  12.204  0.6376 -1.0355  1.0127
  135MOL0     H18187   5.066   5.197  12.309  1.3767 -0.7290 -1.5458
  135MOL0     H18188   4.943   5.321  12.352  0.4006 -1.2447  1.6170
  135MOL0     H18189   4.635   5.758  12.082  0.1299 -0.1706 -1.4120
  135MOL0     H18190   4.389   5.754  12.041  1.3849  1.1290  0.3263
  135MOL0     H18191   4.195   5.627  12.051  0.8352 -1.8563  0.2833
  135MOL0     H18192   4.160   5.756  11.936 -4.8270 -0.8810  0.7420
  135MOL0     H18193   4.019   5.608  11.796  0.0789 -2.8487 -0.9634
  135MOL0     H18194   4.017   5.501  11.926 -0.3234  0.4064 -2.5226
  135MOL0     H18195   3.953   5.810  11.959  0.8017 -0.4933 -2.4203
  135MOL0     H18196   3.961   5.691  12.089  2.6733 -0.4140 -1.2445
  135MOL0     H18197   3.766   5.695  11.850  1.6871  0.7139 -0.1758
  135MOL0     H18198   3.776   5.552  11.966  0.8207 -0.3426 -1.2155
  135MOL0     H18199   3.669   5.836  11.997  3.2174  0.7050 -0.0127
  135MOL0     H18200   3.691   5.709  12.130  1.4916 -0.3526 -0.8186
  135MOL0     H18201   3.505   5.681  11.879  1.3232 -0.1877  0.1188
  135MOL0     H18202   3.528   5.570  12.020  0.3507  1.0790  2.9605
  135MOL0     H18203   3.425   5.853  12.002  2.0777 -0.9671 -1.9827
  135MOL0     H18204   3.446   5.768  12.165 -0.5588  1.0644  0.2870
  135MOL0     H18205   3.293   5.586  12.079 -0.9886 -0.2064  1.2301
  135MOL0     H18206   3.287   5.685  11.921 -0.0973 -0.7461  0.2314
  135MOL0     H18207   4.454   5.425  11.775 -0.0367 -1.7513  0.5995
  135MOL0     H18208   4.702   5.420  11.847 -2.8224 -1.3757 -2.1079
  135MOL0     H18209   5.051   5.643  11.971 -0.5744 -0.4624  0.3452
  135MOL0     H18210   5.281   5.650  11.991 -0.8534 -0.0861 -0.1770
  135MOL0     H18211   6.768   6.059  11.288 -0.3082  0.8000 -0.6427
  135MOL0     H18212   6.784   6.149  11.062  0.4771  0.8517 -2.0913
  135MOL0     H18213   7.211   6.351  10.779 -2.9755 -2.2585  0.4349
  135MOL0     H18214   7.292   6.410  10.561 -0.4320 -1.1904  1.4816
  135MOL0     H18215   7.277   6.637  10.470  3.8920  1.1897 -0.1580
  135MOL0     H18216   7.335   6.517  10.356 -1.6169 -1.5473  0.0099
  135MOL0     H18217   7.221   6.658  10.165  1.1792  2.4767 -2.0048
  135MOL0     H18218   7.371   6.724  10.242  0.2484 -0.4512  0.9230
  135MOL0     H18219   7.193   6.901  10.197  0.6218 -0.6265 -1.1251
  135MOL0     H18220   7.244   6.883  10.362 -1.3200 -0.0350  1.0824
  135MOL0     H18221   7.045   6.770  10.436  1.3175 -0.6105  0.5156
  135MOL0     H18222   6.991   6.770  10.268  2.4644  0.7581 -1.1373
  135MOL0     H18223   6.877   7.147  10.398  0.7482  1.2712 -2.1760
  135MOL0     H18224   6.889   6.548  10.459 -1.5050  0.0486  1.6477
  135MOL0     H18225   6.804   6.458  10.690  0.2860  0.6741  2.1758
  136MOL0     O18226   9.715   9.219   3.537  0.3262 -0.3078 -0.8906
  136MOL0     C18227   9.801   9.303   3.505  0.8966  0.2542  0.6940
  136MOL0     O18228   9.806   9.438   3.541  0.2118  1.0209 -0.1290
  136MOL0     C18229   9.692   9.514   3.578 -0.2087  0.2694  0.5865
  136MOL0     C18230   9.710   9.634   3.654 -0.2568 -0.1278 -0.7879
  136MOL0     C18231   9.610   9.715   3.684 -0.2298 -0.2785 -0.0302
  136MOL0     C18232   9.479   9.688   3.646  0.2944  0.4162 -0.3538
  136MOL0     O18233   9.381   9.777   3.680  0.8597 -0.1036  0.5771
  136MOL0     C18234   9.248   9.750   3.641 -0.2740  0.6362 -0.0637
  136MOL0     C18235   9.158   9.871   3.681  0.8355  0.0327  0.7378
  136MOL0     C18236   9.015   9.846   3.656 -0.3873  0.3821 -0.3691
  136MOL0     C18237   8.975   9.784   3.521 -0.7858 -1.5578 -0.1674
  136MOL0     C18238   8.836   9.741   3.509 -0.5762  0.7316 -0.3495
  136MOL0     C18239   8.815   9.638   3.399  0.1365 -0.8413  0.0687
  136MOL0     C18240   8.666   9.599   3.406  0.5614 -0.4885 -0.0890
  136MOL0     C18241   8.654   9.477   3.319  0.0503  0.4762 -0.2130
  136MOL0     N18242   8.511   9.432   3.309 -0.8644  0.0619  0.3663
  136MOL0     C18243   8.446   9.413   3.193 -0.2311 -0.3085  1.3007
  136MOL0     C18244   8.333   9.360   3.226 -0.4706  0.5206 -0.2306
  136MOL0     C18245   8.230   9.298   3.143 -0.1014  0.4402 -0.5775
  136MOL0     C18246   8.207   9.363   3.003  0.4097 -0.2719  0.4752
  136MOL0     C18247   8.160   9.263   2.896 -0.5257  0.6456  0.3585
  136MOL0     C18248   8.019   9.217   2.926 -0.4115 -0.8287  0.1954
  136MOL0     O18249   7.960   9.187   2.801 -0.2318 -0.2715  0.3874
  136MOL0     C18250   7.819   9.189   2.807 -0.1121 -0.4350  0.3342
  136MOL0     C18251   7.754   9.114   2.916  0.1707 -0.1350 -0.7120
  136MOL0     C18252   7.615   9.124   2.931  0.5077  0.0270  0.1998
  136MOL0     C18253   7.557   9.054   3.053  0.6414 -0.1673  0.0289
  136MOL0     C18254   7.530   9.201   2.834 -1.0099 -0.1234  0.4363
  136MOL0     C18255   7.387   9.210   2.839 -0.2540 -0.3098 -0.8109
  136MOL0     O18256   7.334   9.283   2.743  0.4057  0.7879  0.6759
  136MOL0     C18257   7.196   9.295   2.744  0.5079 -0.2191 -0.7086
  136MOL0     C18258   7.105   9.198   2.717 -1.0510  0.5973 -0.9773
  136MOL0     C18259   6.974   9.212   2.766 -0.7282  1.0918  0.1887
  136MOL0     C18260   6.920   9.334   2.795  0.1622  0.3490 -0.5387
  136MOL0     O18261   6.790   9.327   2.820  0.4597 -0.0349 -0.4024
  136MOL0     C18262   6.732   9.457   2.850  0.2277  0.1117  0.1909
  136MOL0     C18263   6.580   9.440   2.883 -0.2723  0.2062 -0.4913
  136MOL0     C18264   6.561   9.360   3.018  1.2224 -0.0981  0.7622
  136MOL0     C18265   6.406   9.375   3.061 -0.0926  0.0618 -0.2881
  136MOL0     C18266   6.322   9.277   2.976 -0.2676 -0.5004  0.8392
  136MOL0     C18267   6.178   9.298   3.001  0.5282 -0.7195  0.2957
  136MOL0     C18268   6.133   9.264   3.142  1.2802 -0.3883  0.0665
  136MOL0     C18269   5.989   9.205   3.158  0.0134 -0.2248 -0.0935
  136MOL0    Cl18270   5.970   9.164   3.331  0.0611 -0.0839  0.6700
  136MOL0     C18271   7.002   9.443   2.793 -0.1227  0.1871 -0.3665
  136MOL0     C18272   7.137   9.421   2.776  0.2341 -0.4808  0.2034
  136MOL0     O18273   7.321   9.163   2.930  0.3513  0.9409  0.0306
  136MOL0     C18274   7.603   9.255   2.724 -0.3255 -0.3628  0.0364
  136MOL0     C18275   7.739   9.258   2.716 -0.1087  0.6169 -0.3870
  136MOL0     N18276   8.333   9.333   3.361 -0.2925 -0.2643 -1.1441
  136MOL0     N18277   8.436   9.380   3.413 -0.7706 -0.5714  0.3690
  136MOL0     C18278   9.458   9.571   3.573 -0.2708  0.2922 -0.8362
  136MOL0     C18279   9.563   9.486   3.536  0.4551  0.0473 -0.4640
  136MOL0     C18280   9.910   9.255   3.422 -0.0922  0.6063 -0.0715
  136MOL0     C18281   9.923   9.119   3.390 -0.6992  0.5416 -0.2658
  136MOL0     C18282  10.038   9.072   3.323 -0.1830  1.0532 -0.3009
  136MOL0     C18283  10.136   9.161   3.275  0.0229 -0.4629 -0.4617
  136MOL0     O18284  10.248   9.120   3.223  0.2087 -0.3203 -0.0694
  136MOL0     C18285  10.234   9.057   3.093 -0.3766  0.2421 -0.3216
  136MOL0     C18286  10.371   9.082   3.026 -0.5910  0.4585 -0.2291
  136MOL0     C18287  10.483   9.008   3.096 -0.2546  0.1826  0.0362
  136MOL0     C18288  10.620   9.020   3.026 -0.0041 -0.8274 -0.6181
  136MOL0     C18289  10.655   9.162   3.024  1.5670  0.3595  0.3098
  136MOL0     C18290  10.675   9.280   3.017 -0.1105 -0.4024 -0.4981
  136MOL0     C18291  10.117   9.298   3.292  0.6083 -0.2581  0.0050
  136MOL0     C18292  10.015   9.342   3.379  0.1253  0.1797  0.0981
  136MOL0     H18293   9.810   9.666   3.682 -0.2796 -2.3212  2.2274
  136MOL0     H18294   9.624   9.807   3.738 -0.5301 -0.1948 -0.0911
  136MOL0     H18295   9.235   9.726   3.535 -2.6732  1.4470 -0.0277
  136MOL0     H18296   9.210   9.659   3.688 -2.3558  0.8672 -1.1756
  136MOL0     H18297   9.175   9.885   3.788 -1.2157 -2.1069  1.4340
  136MOL0     H18298   9.188   9.957   3.621 -1.2954  1.0415  1.0284
  136MOL0     H18299   8.982   9.763   3.719 -1.3824  0.9219 -0.1512
  136MOL0     H18300   8.945   9.929   3.670 -0.5337 -0.0152  1.5304
  136MOL0     H18301   8.998   9.855   3.441  1.8998 -2.1730 -0.0386
  136MOL0     H18302   9.037   9.699   3.491 -0.9542 -0.4627 -4.1898
  136MOL0     H18303   8.813   9.693   3.605  1.9643  1.2447  0.5999
  136MOL0     H18304   8.759   9.818   3.506 -2.6530 -1.2643 -0.9417
  136MOL0     H18305   8.844   9.688   3.307 -3.1051 -0.9042 -1.1307
  136MOL0     H18306   8.880   9.551   3.411 -0.7200 -2.1172 -3.3615
  136MOL0     H18307   8.652   9.562   3.508  0.2244 -0.6662 -0.1993
  136MOL0     H18308   8.603   9.682   3.373 -2.0573 -1.2463  2.6007
  136MOL0     H18309   8.701   9.396   3.377 -1.3943  0.0267  0.3844
  136MOL0     H18310   8.701   9.480   3.221  1.7703  0.9932  0.5801
  136MOL0     H18311   8.476   9.421   3.089 -0.9087 -0.4342  1.0910
  136MOL0     H18312   8.256   9.192   3.132 -0.5146  0.2851 -0.0986
  136MOL0     H18313   8.139   9.283   3.201  1.8440 -0.7945  2.4590
  136MOL0     H18314   8.291   9.419   2.961 -1.8533  2.4591 -0.7033
  136MOL0     H18315   8.134   9.443   3.018  2.0244  0.6150  5.4704
  136MOL0     H18316   8.227   9.177   2.899  2.1156  2.3215 -2.9396
  136MOL0     H18317   8.176   9.300   2.794  2.7714 -0.4697  0.3665
  136MOL0     H18318   7.967   9.298   2.979 -0.8563 -1.2584  0.4250
  136MOL0     H18319   8.021   9.134   2.997  5.6826 -2.4071 -1.2180
  136MOL0     H18320   7.813   9.053   2.984  2.2986  0.8082 -1.6152
  136MOL0     H18321   7.640   9.004   3.104  0.2620 -0.4086  0.4143
  136MOL0     H18322   7.503   9.123   3.120  1.1118 -0.0871  0.3272
  136MOL0     H18323   7.488   8.973   3.028  0.8166 -0.8703  1.6881
  136MOL0     H18324   7.132   9.096   2.691 -1.0554  0.8214 -1.8618
  136MOL0     H18325   6.916   9.122   2.782  2.3327 -0.8442  1.3548
  136MOL0     H18326   6.773   9.512   2.935  0.1881  2.4877 -1.2550
  136MOL0     H18327   6.740   9.527   2.767 -1.9808  0.3742  0.1242
  136MOL0     H18328   6.551   9.544   2.900  0.3553 -0.1065  3.6438
  136MOL0     H18329   6.533   9.387   2.799 -0.6708 -2.2705  1.1847
  136MOL0     H18330   6.622   9.386   3.104 -0.4520 -1.0826  2.3270
  136MOL0     H18331   6.580   9.258   2.984 -0.4989  0.9416 -4.1432
  136MOL0     H18332   6.409   9.347   3.166  1.4099  1.0071 -0.0579
  136MOL0     H18333   6.379   9.481   3.053 -0.3093 -0.0561 -1.2219
  136MOL0     H18334   6.345   9.173   3.001  0.7534 -0.1777  1.3132
  136MOL0     H18335   6.343   9.297   2.871 -1.0076 -0.4592  0.7009
  136MOL0     H18336   6.155   9.401   2.971 -2.9893 -1.4881 -0.0684
  136MOL0     H18337   6.130   9.230   2.930  2.2141 -0.0332 -1.6082
  136MOL0     H18338   6.143   9.348   3.211  2.1371 -1.7151  1.6456
  136MOL0     H18339   6.193   9.183   3.186  1.5451 -0.8481 -1.1002
  136MOL0     H18340   5.980   9.112   3.102  0.7128 -0.0233 -0.5566
  136MOL0     H18341   5.907   9.272   3.129 -0.7784 -0.3061  1.7729
  136MOL0     H18342   6.972   9.541   2.829 -0.3862  0.1301 -0.4281
  136MOL0     H18343   7.195   9.512   2.790  0.4775 -0.3402 -1.5452
  136MOL0     H18344   7.552   9.308   2.644 -2.2746 -2.8918 -0.5562
  136MOL0     H18345   7.783   9.311   2.633 -0.0717 -0.9331 -1.3980
  136MOL0     H18346   9.360   9.542   3.539  0.2206 -1.7633 -0.6245
  136MOL0     H18347   9.544   9.387   3.497  0.7809  0.6632 -2.3056
  136MOL0     H18348   9.859   9.046   3.438  1.2617  1.1845  3.8132
  136MOL0     H18349  10.060   8.966   3.320 -1.9790  0.6130  0.5913
  136MOL0     H18350  10.217   8.950   3.106 -0.5895  0.2997 -0.1160
  136MOL0     H18351  10.150   9.087   3.030 -1.8353  1.3241  1.9633
  136MOL0     H18352  10.391   9.189   3.032 -0.3058  0.3164  3.4045
  136MOL0     H18353  10.357   9.050   2.922  1.9981 -0.4114 -0.3686
  136MOL0     H18354  10.461   8.901   3.102 -2.4470  0.4880 -1.4140
  136MOL0     H18355  10.492   9.040   3.201 -0.3737 -2.6895  1.0292
  136MOL0     H18356  10.611   8.983   2.924 -1.6545  0.3844 -0.9484
  136MOL0     H18357  10.700   8.970   3.081 -0.5373 -1.6887 -0.6023
  136MOL0     H18358  10.672   9.387   3.021  0.6635 -0.4111  1.0041
  136MOL0     H18359  10.192   9.373   3.269  0.1852  0.1932  0.0913
  136MOL0     H18360  10.003   9.448   3.397 -1.5329  0.1556 -0.6978
  137MOL0     O18361   4.262   2.624   9.242  0.5277 -0.3868  0.1344
  137MOL0     C18362   4.310   2.701   9.160 -0.4568  0.4245 -0.0195
  137MOL0     O18363   4.250   2.796   9.079  0.2868 -0.0093  0.1425
  137MOL0     C18364   4.114   2.799   9.071 -0.4770  0.2666 -0.8486
  137MOL0     C18365   4.040   2.780   8.954  0.1591  0.4484  0.5581
  137MOL0     C18366   3.902   2.791   8.943  0.6788  0.0077  0.1670
  137MOL0     C18367   3.829   2.823   9.054 -0.1583 -0.0116  0.5172
  137MOL0     O18368   3.693   2.833   9.038  0.2796  0.2552  0.2665
  137MOL0     C18369   3.615   2.842   9.153 -0.0690 -0.6714 -0.3742
  137MOL0     C18370   3.470   2.836   9.111  1.1741 -0.0838 -0.1902
  137MOL0     C18371   3.376   2.881   9.220  0.8010  0.5762  0.4022
  137MOL0     C18372   3.352   2.770   9.322  0.0272  0.1665  1.2910
  137MOL0     C18373   3.254   2.816   9.429 -0.7916  0.4498 -0.6274
  137MOL0     C18374   3.210   2.697   9.529 -0.2640 -0.8189 -0.7285
  137MOL0     C18375   3.100   2.733   9.636 -0.2116 -0.1413  0.5547
  137MOL0     C18376   2.972   2.758   9.560 -0.0058 -0.0468 -0.5131
  137MOL0     N18377   2.847   2.740   9.642 -0.6034  0.0181  0.4454
  137MOL0     C18378   2.747   2.646   9.632  0.7934 -0.9046  0.8913
  137MOL0     C18379   2.643   2.694   9.710  0.0401  0.7778 -0.4568
  137MOL0     C18380   2.503   2.647   9.720  0.3057 -0.4627  0.0865
  137MOL0     C18381   2.404   2.748   9.655  1.0750 -0.0614  0.3614
  137MOL0     C18382   2.354   2.858   9.743  0.0470 -0.3133  0.3981
  137MOL0     C18383   2.306   2.803   9.876  0.0042  0.4679  0.2235
  137MOL0     O18384   2.201   2.706   9.879 -0.9416  0.1452 -0.0191
  137MOL0     C18385   2.071   2.746   9.852  0.1071  1.0250  1.3473
  137MOL0     C18386   1.992   2.648   9.792 -0.2588  0.3367  0.0459
  137MOL0     C18387   1.859   2.679   9.752 -0.5238  0.4421  0.6338
  137MOL0     C18388   1.782   2.562   9.696  0.3572  0.1984  0.9506
  137MOL0     C18389   1.799   2.805   9.784 -0.4535  0.0394  0.1778
  137MOL0     C18390   1.657   2.834   9.757 -0.2259  0.6670 -0.5759
  137MOL0     O18391   1.586   2.742   9.692  0.0300  0.1346  0.3678
  137MOL0     C18392   1.463   2.777   9.639  0.5384 -0.0512 -0.1909
  137MOL0     C18393   1.344   2.707   9.671 -0.0370  0.2399  0.1079
  137MOL0     C18394   1.216   2.735   9.619 -0.1228  0.4164  0.0207
  137MOL0     C18395   1.209   2.831   9.520  1.3177  0.2853  0.1107
  137MOL0     O18396   1.084   2.859   9.457 -0.2550 -0.4301  0.1251
  137MOL0     C18397   1.089   2.880   9.315 -0.2124 -0.2443 -0.3066
  137MOL0     C18398   0.950   2.873   9.254  0.3555  0.5976  0.4320
  137MOL0     C18399   0.889   2.730   9.283  0.5729  0.2357  0.2573
  137MOL0     C18400   0.948   2.611   9.192  0.3061  0.1253  1.2935
  137MOL0     C18401   0.862   2.482   9.198 -0.4420 -0.1523 -0.5516
  137MOL0     C18402   0.732   2.498   9.114 -0.2580  0.6254 -0.4896
  137MOL0     C18403   0.625   2.392   9.162  0.6232 -0.8155  0.3964
  137MOL0     C18404   0.668   2.248   9.176  0.0481  0.0366 -0.4590
  137MOL0    Cl18405   0.516   2.156   9.223  0.2225 -0.0031 -0.2739
  137MOL0     C18406   1.320   2.906   9.487  0.1322 -0.3585 -0.4517
  137MOL0     C18407   1.450   2.875   9.544  1.0063 -0.9693  0.0567
  137MOL0     O18408   1.617   2.948   9.790 -0.1459  0.2760  0.0988
  137MOL0     C18409   1.877   2.904   9.840 -0.4030  0.1156  1.6991
  137MOL0     C18410   2.014   2.874   9.868  0.5428 -0.8657  0.5264
  137MOL0     N18411   2.687   2.803   9.782 -0.4287  0.6353 -0.6787
  137MOL0     N18412   2.808   2.830   9.745 -0.4672  0.9772  1.1980
  137MOL0     C18413   3.904   2.856   9.174  0.1825 -0.5061 -0.8456
  137MOL0     C18414   4.043   2.842   9.183  0.3381  0.6453 -0.0838
  137MOL0     C18415   4.458   2.691   9.150  0.4152 -0.4626 -0.7696
  137MOL0     C18416   4.531   2.766   9.064 -0.0182  0.3004  0.4264
  137MOL0     C18417   4.668   2.762   9.055  0.1341 -0.0593 -0.7421
  137MOL0     C18418   4.739   2.672   9.138 -0.4272  0.2277  0.0730
  137MOL0     O18419   4.878   2.673   9.112  0.4278 -0.4592 -0.6094
  137MOL0     C18420   4.956   2.592   9.204 -1.1189 -0.6320  0.4264
  137MOL0     C18421   5.095   2.555   9.151 -0.1853 -0.5411  0.2849
  137MOL0     C18422   5.201   2.492   9.240 -0.1791 -0.5163  0.0846
  137MOL0     C18423   5.319   2.428   9.162  0.1182  0.2401  0.3685
  137MOL0     C18424   5.401   2.353   9.257  0.4395 -0.1455  0.0077
  137MOL0     C18425   5.470   2.299   9.340  0.4642  0.1444 -0.9564
  137MOL0     C18426   4.668   2.595   9.234 -0.2656  0.8183  0.4950
  137MOL0     C18427   4.525   2.601   9.230 -0.4274 -0.0740 -0.0439
  137MOL0     H18428   4.089   2.749   8.862 -1.8818 -0.7496 -0.2004
  137MOL0     H18429   3.864   2.769   8.843 -0.1530  1.7263  0.0810
  137MOL0     H18430   3.650   2.752   9.204  4.8672  1.4420  0.5564
  137MOL0     H18431   3.631   2.932   9.213 -1.1844  0.3281 -1.5335
  137MOL0     H18432   3.453   2.911   9.033  2.3273  4.0789  3.1837
  137MOL0     H18433   3.451   2.732   9.082  3.2019 -0.7377  0.6398
  137MOL0     H18434   3.413   2.972   9.268  0.9105  1.4377 -1.2431
  137MOL0     H18435   3.279   2.903   9.173  0.6746  0.8978  0.8003
  137MOL0     H18436   3.313   2.680   9.275 -0.6013  0.0392  2.0375
  137MOL0     H18437   3.445   2.740   9.371 -0.7175  0.2504  2.8411
  137MOL0     H18438   3.308   2.887   9.492 -1.6004 -0.7620  1.5337
  137MOL0     H18439   3.162   2.859   9.390 -0.8127  1.2996  0.3126
  137MOL0     H18440   3.183   2.606   9.475 -0.1121 -0.6410 -1.1107
  137MOL0     H18441   3.297   2.665   9.586 -0.9826 -0.0022  0.8792
  137MOL0     H18442   3.071   2.653   9.704 -0.4063  0.3850  1.0981
  137MOL0     H18443   3.131   2.822   9.692 -0.1192  1.8104 -2.3172
  137MOL0     H18444   2.961   2.687   9.478  1.0246  2.4829 -3.0124
  137MOL0     H18445   2.973   2.860   9.519 -1.5079  0.2329  0.0573
  137MOL0     H18446   2.738   2.559   9.568 -1.8999  2.0479 -3.2778
  137MOL0     H18447   2.497   2.557   9.657 -0.7174 -1.6467  1.7778
  137MOL0     H18448   2.490   2.605   9.820 -0.4333 -0.6043 -0.0577
  137MOL0     H18449   2.322   2.686   9.618  0.1905  1.3657 -0.1447
  137MOL0     H18450   2.456   2.801   9.575 -1.0472  3.9133  1.3637
  137MOL0     H18451   2.276   2.924   9.702  0.0493 -0.0137  0.8715
  137MOL0     H18452   2.438   2.925   9.763  0.2866 -0.3603 -0.4380
  137MOL0     H18453   2.278   2.879   9.949  1.8116  0.7950  0.6458
  137MOL0     H18454   2.391   2.757   9.929  0.0744 -0.9306 -1.0200
  137MOL0     H18455   2.040   2.551   9.781 -1.4406 -0.1351 -1.1696
  137MOL0     H18456   1.853   2.479   9.689 -0.5921 -0.7449  2.0409
  137MOL0     H18457   1.696   2.536   9.758 -0.6916  0.8866 -0.1694
  137MOL0     H18458   1.749   2.589   9.596  3.1513  1.6043  0.3020
  137MOL0     H18459   1.351   2.627   9.744  0.9483 -0.0970 -0.3457
  137MOL0     H18460   1.132   2.680   9.661 -1.2616  3.1210  1.5926
  137MOL0     H18461   1.133   2.977   9.295  0.8744  0.2515  3.5882
  137MOL0     H18462   1.145   2.797   9.270  0.0633 -1.1948  1.6587
  137MOL0     H18463   0.877   2.944   9.293  0.4611  0.0862  1.5810
  137MOL0     H18464   0.964   2.876   9.145  1.6072 -2.5982  0.4117
  137MOL0     H18465   0.781   2.737   9.274  0.3236 -0.9588  1.7838
  137MOL0     H18466   0.902   2.703   9.388  2.2637  2.1930  0.6143
  137MOL0     H18467   0.953   2.646   9.088  1.0746  0.6171  1.4922
  137MOL0     H18468   1.048   2.579   9.221  0.8038 -0.5772 -0.9636
  137MOL0     H18469   0.842   2.465   9.305  1.5692  2.5605  0.3704
  137MOL0     H18470   0.919   2.400   9.153  0.3008 -0.7876  1.4055
  137MOL0     H18471   0.685   2.595   9.135  1.1509  1.7782 -2.3444
  137MOL0     H18472   0.752   2.500   9.006 -0.0425 -0.0672 -0.4659
  137MOL0     H18473   0.554   2.386   9.079  2.8499  1.9048 -1.8903
  137MOL0     H18474   0.569   2.420   9.252 -0.6378 -0.1508 -0.5584
  137MOL0     H18475   0.743   2.241   9.255  0.3715  1.6607 -0.6003
  137MOL0     H18476   0.708   2.222   9.078 -0.9673  1.7566 -1.3724
  137MOL0     H18477   1.314   2.996   9.427  0.8803  0.1596  0.2352
  137MOL0     H18478   1.531   2.942   9.517  2.0610 -1.9987  0.5977
  137MOL0     H18479   1.833   3.002   9.857 -0.1136  0.8852 -1.3372
  137MOL0     H18480   2.064   2.960   9.912  0.5842  1.1109 -2.9956
  137MOL0     H18481   3.851   2.899   9.259 -0.8662 -2.6606 -0.3546
  137MOL0     H18482   4.101   2.852   9.274 -1.7758  0.2266  1.3907
  137MOL0     H18483   4.471   2.829   9.000 -1.3369 -0.2542  1.0812
  137MOL0     H18484   4.718   2.825   8.982  0.5367  1.2903  0.6650
  137MOL0     H18485   4.974   2.649   9.295  3.8324  0.0434 -0.7204
  137MOL0     H18486   4.908   2.497   9.230 -0.6569 -1.3255 -1.0695
  137MOL0     H18487   5.137   2.643   9.102 -1.0105 -0.5967 -0.5822
  137MOL0     H18488   5.075   2.487   9.067 -0.1665  0.3601 -0.4677
  137MOL0     H18489   5.164   2.416   9.309  0.0817 -1.6014 -0.9408
  137MOL0     H18490   5.251   2.566   9.303  2.4308 -0.7897 -1.5132
  137MOL0     H18491   5.370   2.506   9.105 -1.8335  0.5567 -1.0583
  137MOL0     H18492   5.282   2.358   9.086 -2.0145  0.1599  1.3954
  137MOL0     H18493   5.544   2.248   9.398 -0.0136  2.4945  1.9647
  137MOL0     H18494   4.722   2.532   9.304 -0.1111 -0.3375 -0.6153
  137MOL0     H18495   4.469   2.543   9.303  1.5203 -1.1902  0.6209
  138MOL0     O18496   5.046   3.293   3.577 -0.4797  0.2834  0.1101
  138MOL0     C18497   5.065   3.168   3.583  0.9269 -0.2859  0.1008
  138MOL0     O18498   4.963   3.075   3.591  0.5241 -0.9606 -0.7007
  138MOL0     C18499   4.834   3.118   3.596  0.4164 -0.7583 -0.0472
  138MOL0     C18500   4.772   3.159   3.721 -1.0434  0.1277  0.2927
  138MOL0     C18501   4.637   3.191   3.717  0.4729  0.1571 -0.5994
  138MOL0     C18502   4.558   3.175   3.605 -0.7300  0.2756  0.5956
  138MOL0     O18503   4.424   3.195   3.600 -0.0016 -0.6008  0.8709
  138MOL0     C18504   4.367   3.304   3.669 -0.2836  0.4258  0.2224
  138MOL0     C18505   4.229   3.279   3.728  0.4509 -0.1016 -0.2906
  138MOL0     C18506   4.225   3.171   3.840 -0.4119 -1.0704  1.1965
  138MOL0     C18507   4.091   3.101   3.838 -0.6513 -0.1850  0.0818
  138MOL0     C18508   4.083   3.006   3.953 -0.2387  0.3571  0.0080
  138MOL0     C18509   3.962   2.912   3.940 -0.6039 -0.4686 -0.9051
  138MOL0     C18510   3.939   2.837   4.075 -0.6181 -0.4472  1.3340
  138MOL0     C18511   3.790   2.835   4.106 -0.3358  0.1651  0.0751
  138MOL0     N18512   3.756   2.754   4.214 -0.0974 -0.3359  0.3222
  138MOL0     C18513   3.694   2.777   4.332 -0.3455 -0.3104  0.2275
  138MOL0     C18514   3.682   2.665   4.395 -0.1515  0.3754  1.1803
  138MOL0     C18515   3.620   2.621   4.523 -0.4159 -0.6008  0.0048
  138MOL0     C18516   3.716   2.641   4.640 -0.2527  1.0193  0.4520
  138MOL0     C18517   3.763   2.786   4.673 -0.3561 -0.2784 -0.7331
  138MOL0     C18518   3.647   2.866   4.733 -0.0909  0.0113  0.0091
  138MOL0     O18519   3.576   2.922   4.625  0.5135  1.0957 -0.8431
  138MOL0     C18520   3.461   2.990   4.651  0.1244 -0.4462 -0.3175
  138MOL0     C18521   3.381   3.028   4.542  0.4883  0.6087 -0.3712
  138MOL0     C18522   3.266   3.112   4.559  0.0324  0.2368  0.6919
  138MOL0     C18523   3.188   3.146   4.432  0.2347 -0.6208  0.3987
  138MOL0     C18524   3.230   3.153   4.691 -0.0694  0.0885  0.3577
  138MOL0     C18525   3.122   3.255   4.726 -0.2152  1.0675 -0.2930
  138MOL0     O18526   3.078   3.243   4.849  0.3195  0.3440  0.7349
  138MOL0     C18527   2.963   3.299   4.908  0.5381  0.5017  0.0304
  138MOL0     C18528   2.968   3.352   5.041  0.4315  0.9151 -0.5291
  138MOL0     C18529   2.861   3.430   5.090 -0.9157  0.7592 -1.4279
  138MOL0     C18530   2.756   3.454   5.007 -0.0484  0.0489 -0.3828
  138MOL0     O18531   2.665   3.537   5.067 -0.0350 -0.0749  0.4582
  138MOL0     C18532   2.534   3.552   5.016 -0.1735  0.5606  0.3847
  138MOL0     C18533   2.452   3.645   5.101  0.2999 -0.2656  0.4800
  138MOL0     C18534   2.308   3.627   5.048 -0.2372 -0.3847 -0.0182
  138MOL0     C18535   2.199   3.731   5.091  0.4969  0.1087  0.4533
  138MOL0     C18536   2.081   3.727   4.996  0.7307  0.1385  0.4791
  138MOL0     C18537   1.966   3.823   5.055 -0.7469 -0.2023 -0.5427
  138MOL0     C18538   1.834   3.812   4.989  0.3642 -0.6842 -0.1845
  138MOL0     C18539   1.728   3.901   5.060 -0.9966  0.4504  0.5669
  138MOL0    Cl18540   1.579   3.858   4.966  0.3703  0.2115 -0.0219
  138MOL0     C18541   2.750   3.400   4.873  0.4113 -0.5662 -0.3742
  138MOL0     C18542   2.850   3.316   4.826 -0.8020 -0.1376  0.4470
  138MOL0     O18543   3.076   3.330   4.644  0.1132  0.7742 -0.6628
  138MOL0     C18544   3.304   3.101   4.800  0.9592  0.1201 -0.3098
  138MOL0     C18545   3.415   3.018   4.778  0.2189  0.4571  0.1672
  138MOL0     N18546   3.751   2.569   4.317  0.0953  0.2894 -0.4299
  138MOL0     N18547   3.794   2.625   4.207 -0.1154  0.1160 -0.4638
  138MOL0     C18548   4.615   3.134   3.491 -0.2148  0.6033  0.1539
  138MOL0     C18549   4.757   3.116   3.478 -0.1669  0.0941 -0.7924
  138MOL0     C18550   5.204   3.121   3.554 -0.4809  0.1569  1.0232
  138MOL0     C18551   5.235   2.988   3.575 -0.7644  0.9155  0.4091
  138MOL0     C18552   5.372   2.949   3.569  0.2439 -0.2267 -0.5945
  138MOL0     C18553   5.478   3.039   3.545 -0.3570 -0.2924  0.5528
  138MOL0     O18554   5.608   3.003   3.526  0.3132  0.3303 -0.5839
  138MOL0     C18555   5.659   2.887   3.590  0.1375 -0.6898 -0.4145
  138MOL0     C18556   5.799   2.846   3.536  0.6053 -0.6823  0.0957
  138MOL0     C18557   5.904   2.962   3.531  0.1574 -0.0889  0.1716
  138MOL0     C18558   6.028   2.925   3.446  0.0959 -0.0595 -0.9776
  138MOL0     C18559   6.145   3.018   3.467 -0.1387  0.4322  0.9755
  138MOL0     C18560   6.244   3.085   3.472 -0.4093 -0.7635  0.5069
  138MOL0     C18561   5.438   3.168   3.512 -0.5879 -0.4435  0.7159
  138MOL0     C18562   5.303   3.212   3.512  0.3905  0.4602 -0.3764
  138MOL0     H18563   4.834   3.157   3.810  1.5738 -0.2795 -1.4188
  138MOL0     H18564   4.589   3.204   3.813  1.8966 -0.7359  0.2806
  138MOL0     H18565   4.430   3.326   3.756  0.6691  1.9110 -0.8028
  138MOL0     H18566   4.372   3.394   3.607  0.4072 -0.7356 -1.4556
  138MOL0     H18567   4.190   3.375   3.764  0.3770 -1.1025  2.5223
  138MOL0     H18568   4.163   3.247   3.647 -1.3931  1.2742  0.5813
  138MOL0     H18569   4.303   3.097   3.821 -0.2113 -0.2440 -1.6884
  138MOL0     H18570   4.241   3.218   3.938  4.2908 -1.6838  0.9375
  138MOL0     H18571   4.007   3.171   3.842  0.1859  0.7922  3.2138
  138MOL0     H18572   4.086   3.049   3.742  1.0585  0.4692 -0.4044
  138MOL0     H18573   4.170   2.941   3.962 -1.2489 -0.8950  1.1496
  138MOL0     H18574   4.075   3.064   4.046 -2.9823 -0.1241  0.1750
  138MOL0     H18575   3.873   2.968   3.910 -1.7957 -2.4663 -1.2453
  138MOL0     H18576   3.990   2.845   3.858  1.2889  0.9601 -1.4919
  138MOL0     H18577   3.971   2.733   4.067  1.5691  0.3099 -0.4759
  138MOL0     H18578   3.983   2.888   4.162 -1.5153 -0.8273  2.0313
  138MOL0     H18579   3.736   2.801   4.017 -0.1553  0.5575 -0.1856
  138MOL0     H18580   3.748   2.936   4.113  0.9136  0.5806  2.7873
  138MOL0     H18581   3.660   2.875   4.364  0.3443  0.5764 -1.5850
  138MOL0     H18582   3.523   2.672   4.531  0.2982  0.9769 -0.9742
  138MOL0     H18583   3.596   2.514   4.518  0.8625 -1.0608  2.4635
  138MOL0     H18584   3.801   2.574   4.626 -1.6321 -0.7134  0.1073
  138MOL0     H18585   3.669   2.610   4.733  0.7216  1.0311  0.9643
  138MOL0     H18586   3.796   2.830   4.579  1.7535  0.4450  0.2808
  138MOL0     H18587   3.848   2.787   4.742 -0.0259 -2.8176 -1.0164
  138MOL0     H18588   3.692   2.947   4.791  1.9450  3.0180 -5.0804
  138MOL0     H18589   3.586   2.799   4.793 -1.9895  0.6694 -1.1146
  138MOL0     H18590   3.398   2.978   4.447 -3.0550 -1.5278 -0.0990
  138MOL0     H18591   3.082   3.124   4.443  0.6008 -2.1457  1.1209
  138MOL0     H18592   3.218   3.250   4.421  0.1493 -0.6041  0.3274
  138MOL0     H18593   3.232   3.089   4.349  0.6643  0.5961 -0.2352
  138MOL0     H18594   3.049   3.339   5.111 -1.7879 -3.9396  1.5530
  138MOL0     H18595   2.877   3.476   5.187  1.3209 -0.0932 -1.3236
  138MOL0     H18596   2.530   3.591   4.913 -3.2443 -1.7607 -0.5205
  138MOL0     H18597   2.494   3.451   5.016  0.4982  0.2374 -1.8057
  138MOL0     H18598   2.463   3.622   5.208  1.5178 -0.6187  0.2849
  138MOL0     H18599   2.488   3.748   5.095 -0.2224 -0.0714  0.6208
  138MOL0     H18600   2.284   3.522   5.066  2.2093 -0.7823  1.3304
  138MOL0     H18601   2.312   3.636   4.939 -0.4154 -0.9266 -0.0725
  138MOL0     H18602   2.164   3.705   5.191 -2.4480  1.2198 -0.1869
  138MOL0     H18603   2.233   3.835   5.095  0.9627 -0.0754  2.7492
  138MOL0     H18604   2.050   3.622   4.991 -2.9090  1.0567  1.1145
  138MOL0     H18605   2.111   3.762   4.896  0.7038 -0.0879  0.3901
  138MOL0     H18606   1.963   3.783   5.157  3.5082 -1.2603 -0.6129
  138MOL0     H18607   1.999   3.927   5.059  0.8831 -0.7180  1.0326
  138MOL0     H18608   1.804   3.707   4.998 -0.6369 -0.2382  2.4981
  138MOL0     H18609   1.858   3.830   4.883  1.8798 -1.0435  0.0766
  138MOL0     H18610   1.758   4.004   5.040  0.5011 -0.4082 -2.1587
  138MOL0     H18611   1.721   3.885   5.168 -1.1435  2.3194  0.8553
  138MOL0     H18612   2.671   3.419   4.801 -2.1202 -3.6115  1.3861
  138MOL0     H18613   2.856   3.271   4.728 -1.3702 -1.0715  0.8326
  138MOL0     H18614   3.287   3.128   4.903  1.2214 -1.6425  0.2252
  138MOL0     H18615   3.478   2.997   4.864  2.0627  2.9878 -0.4206
  138MOL0     H18616   4.558   3.126   3.399 -1.8030  0.4919  1.1126
  138MOL0     H18617   4.801   3.104   3.379  0.1038 -0.1441 -0.6475
  138MOL0     H18618   5.156   2.916   3.593  0.7848 -0.8221  0.5405
  138MOL0     H18619   5.390   2.842   3.568 -0.0984 -0.3193 -3.1281
  138MOL0     H18620   5.665   2.896   3.699  0.6519 -2.0285 -0.3156
  138MOL0     H18621   5.595   2.799   3.580 -1.6660 -0.0843  3.6825
  138MOL0     H18622   5.765   2.809   3.438 -0.8945 -2.2907  1.1526
  138MOL0     H18623   5.846   2.765   3.592  2.4902 -0.2107 -0.7160
  138MOL0     H18624   5.937   2.984   3.633 -2.0937 -1.9694  1.4181
  138MOL0     H18625   5.859   3.049   3.483 -3.7342 -2.1936 -0.4858
  138MOL0     H18626   5.997   2.930   3.342  0.7093 -1.0551 -1.2312
  138MOL0     H18627   6.060   2.825   3.479  2.7102  1.0142  0.0385
  138MOL0     H18628   6.330   3.148   3.475 -0.3250 -0.6148 -2.2480
  138MOL0     H18629   5.513   3.242   3.484  0.8103 -2.0003  0.1370
  138MOL0     H18630   5.280   3.317   3.501  1.1653  0.7101  0.3114
  139MOL0     O18631   9.503   8.278   2.990  0.3528 -0.1009 -0.6934
  139MOL0     C18632   9.529   8.159   3.003 -0.0935  0.3764 -1.0606
  139MOL0     O18633   9.454   8.065   3.068 -0.5791 -0.0614 -0.0667
  139MOL0     C18634   9.326   8.094   3.108  0.4239  0.1405  0.5507
  139MOL0     C18635   9.228   7.994   3.087  0.4014 -0.8085  0.1104
  139MOL0     C18636   9.093   8.014   3.137 -0.7918 -0.0099  0.2624
  139MOL0     C18637   9.063   8.126   3.211 -0.6956 -0.6520 -1.5384
  139MOL0     O18638   8.937   8.142   3.268  0.3213 -0.6919 -0.2411
  139MOL0     C18639   8.920   8.132   3.416 -0.9033  0.8260  0.3462
  139MOL0     C18640   8.812   8.216   3.469  0.0499 -0.2377  0.2034
  139MOL0     C18641   8.781   8.184   3.616 -0.8531  0.6891  0.3407
  139MOL0     C18642   8.667   8.269   3.668  0.8341 -0.8280 -0.3424
  139MOL0     C18643   8.622   8.237   3.812 -0.4775 -0.1537  0.2993
  139MOL0     C18644   8.512   8.333   3.864 -0.0223 -0.0718 -0.3669
  139MOL0     C18645   8.378   8.331   3.794 -0.1540 -0.2367 -0.1847
  139MOL0     C18646   8.312   8.194   3.794  0.2129 -0.0366 -0.3524
  139MOL0     N18647   8.275   8.135   3.928  0.3214  0.0179  0.2279
  139MOL0     C18648   8.191   8.193   4.016 -0.0968  0.2827  0.0740
  139MOL0     C18649   8.185   8.116   4.128  0.8593 -0.0396 -0.5229
  139MOL0     C18650   8.109   8.155   4.253  0.3145 -0.4650  0.1388
  139MOL0     C18651   7.979   8.071   4.283  0.5421  0.5242  1.1079
  139MOL0     C18652   7.911   8.112   4.420  0.2964  0.0160 -0.4662
  139MOL0     C18653   7.761   8.076   4.424  0.5668  0.5844 -0.7084
  139MOL0     O18654   7.723   8.066   4.560  0.3532  0.2239  0.3293
  139MOL0     C18655   7.593   8.062   4.586  0.2333  0.0904 -0.6282
  139MOL0     C18656   7.503   7.998   4.498 -0.1082  0.4924 -0.1551
  139MOL0     C18657   7.371   7.975   4.540 -0.4646 -0.3101  0.4858
  139MOL0     C18658   7.288   7.903   4.444  0.2771  0.4348 -0.3383
  139MOL0     C18659   7.327   8.025   4.670  0.3709  0.3173 -0.4750
  139MOL0     C18660   7.185   8.008   4.711 -0.2148  1.1316  0.3695
  139MOL0     O18661   7.149   8.067   4.827  0.0128 -0.7697 -1.0443
  139MOL0     C18662   7.017   8.069   4.861  0.0595 -0.0331  0.3485
  139MOL0     C18663   6.915   8.120   4.770 -0.6445  0.1171 -0.3181
  139MOL0     C18664   6.779   8.116   4.814 -0.1191  0.9092 -0.1236
  139MOL0     C18665   6.731   8.058   4.936  0.4075  1.1498 -0.0651
  139MOL0     O18666   6.594   8.077   4.965 -0.0066  0.2127 -0.3622
  139MOL0     C18667   6.554   8.047   5.096 -0.8031  0.0291  0.4923
  139MOL0     C18668   6.411   8.109   5.099 -0.0068 -0.1793 -1.0305
  139MOL0     C18669   6.297   8.024   5.154 -0.3991 -0.0216 -0.6249
  139MOL0     C18670   6.290   7.878   5.095  0.3807  0.6667 -0.3913
  139MOL0     C18671   6.146   7.817   5.086 -0.2805  0.3042  0.5711
  139MOL0     C18672   6.067   7.817   5.217 -0.1967  0.1055 -0.1230
  139MOL0     C18673   5.976   7.941   5.221  0.3063  0.6674  0.4967
  139MOL0     C18674   5.830   7.900   5.258  0.7318 -0.0327  0.1690
  139MOL0    Cl18675   5.834   7.801   5.409 -0.2864  0.1064 -0.2575
  139MOL0     C18676   6.837   8.001   5.015  0.5959 -0.8957  0.8162
  139MOL0     C18677   6.976   8.019   4.983  0.4214 -0.1345 -0.0317
  139MOL0     O18678   7.106   7.940   4.640 -0.4870  0.2931  0.0916
  139MOL0     C18679   7.425   8.080   4.757  0.6692  0.3021  1.0815
  139MOL0     C18680   7.553   8.093   4.709  0.3525  1.1684 -0.7679
  139MOL0     N18681   8.251   8.002   4.107 -0.5402 -0.2345  0.0625
  139MOL0     N18682   8.312   8.016   3.997 -0.1343  0.6288  0.5364
  139MOL0     C18683   9.160   8.219   3.249 -0.1744  0.7755  0.0656
  139MOL0     C18684   9.289   8.199   3.194  0.1385  0.0312 -0.7272
  139MOL0     C18685   9.656   8.116   2.940 -0.5979  0.2737 -0.0615
  139MOL0     C18686   9.697   7.970   2.938  0.0452 -0.7100  0.3260
  139MOL0     C18687   9.824   7.937   2.886 -0.5829  0.2086 -0.2315
  139MOL0     C18688   9.912   8.035   2.824  0.0424  0.5245 -0.1323
  139MOL0     O18689  10.030   8.016   2.759 -0.6548  0.9272  0.5193
  139MOL0     C18690  10.080   7.879   2.731 -0.4935 -0.4285 -0.1213
  139MOL0     C18691  10.216   7.896   2.664 -0.6510  0.8523 -0.3845
  139MOL0     C18692  10.282   7.754   2.654 -0.1850 -0.1828  0.5802
  139MOL0     C18693  10.427   7.779   2.677  0.4442  0.0020 -0.1330
  139MOL0     C18694  10.499   7.650   2.702  0.6578 -0.3455  0.7706
  139MOL0     C18695  10.546   7.537   2.712 -0.0457 -0.2320 -0.4562
  139MOL0     C18696   9.872   8.173   2.837 -0.2252  1.0566  0.0416
  139MOL0     C18697   9.748   8.216   2.884  0.2397  0.0352  0.1380
  139MOL0     H18698   9.250   7.896   3.045  1.9834 -1.7703  2.9251
  139MOL0     H18699   9.009   7.947   3.124  0.1416 -1.3841  1.0165
  139MOL0     H18700   8.905   8.030   3.450  0.5704  0.6336  0.4826
  139MOL0     H18701   9.015   8.173   3.453  0.1259  2.5135 -3.6751
  139MOL0     H18702   8.829   8.323   3.456 -1.8968  0.4252  2.4582
  139MOL0     H18703   8.723   8.195   3.408  0.1133 -0.9611  0.3469
  139MOL0     H18704   8.762   8.077   3.632  1.2975 -0.1275 -1.9260
  139MOL0     H18705   8.871   8.186   3.678  1.0050 -2.2290 -1.9996
  139MOL0     H18706   8.697   8.374   3.668 -4.1655  0.8951 -2.0766
  139MOL0     H18707   8.573   8.256   3.615  0.8454 -2.5032  0.0104
  139MOL0     H18708   8.595   8.133   3.831 -0.6392 -0.1930 -0.1321
  139MOL0     H18709   8.708   8.259   3.876  0.1343  2.0778 -1.1531
  139MOL0     H18710   8.494   8.307   3.969 -2.4836 -2.1419 -1.1839
  139MOL0     H18711   8.542   8.437   3.849  1.5491 -0.6017 -1.1666
  139MOL0     H18712   8.322   8.410   3.845  2.5457  2.0637 -0.5747
  139MOL0     H18713   8.388   8.363   3.690  0.9674 -1.0412 -0.3376
  139MOL0     H18714   8.372   8.124   3.736  0.2145  1.2173 -1.9358
  139MOL0     H18715   8.215   8.201   3.745 -0.1223  2.2133  0.4926
  139MOL0     H18716   8.138   8.286   4.000 -1.2149 -0.3926 -0.2562
  139MOL0     H18717   8.172   8.142   4.342 -0.0279  0.1154  0.4697
  139MOL0     H18718   8.086   8.262   4.250  0.2651 -0.4745  0.1735
  139MOL0     H18719   7.999   7.963   4.289  1.4077  0.6452  0.4768
  139MOL0     H18720   7.925   8.098   4.192 -0.1224  0.1058  1.3643
  139MOL0     H18721   7.923   8.220   4.431 -0.9940  0.4479 -2.7456
  139MOL0     H18722   7.960   8.071   4.509 -1.6033 -1.0168  0.1660
  139MOL0     H18723   7.759   7.977   4.376  3.6190  0.7971 -1.5060
  139MOL0     H18724   7.703   8.153   4.373  0.9932  1.6657  0.4117
  139MOL0     H18725   7.529   7.979   4.395  0.5415  0.4308  0.0151
  139MOL0     H18726   7.214   7.974   4.407  3.0159  2.9043 -1.3946
  139MOL0     H18727   7.344   7.867   4.358 -0.5811 -1.5577 -0.1238
  139MOL0     H18728   7.248   7.807   4.481  0.7156  0.6166  0.6630
  139MOL0     H18729   6.927   8.179   4.679 -0.6871 -1.9648 -1.7235
  139MOL0     H18730   6.701   8.169   4.760  0.3063  1.8073  0.1188
  139MOL0     H18731   6.549   7.941   5.119 -1.0204  0.1405  0.9741
  139MOL0     H18732   6.619   8.092   5.171 -0.6808  0.8614 -0.0977
  139MOL0     H18733   6.412   8.200   5.159  2.4494 -1.6109  1.3182
  139MOL0     H18734   6.374   8.125   4.997  0.5788 -0.0668 -1.2319
  139MOL0     H18735   6.207   8.080   5.128  1.2127  1.3333 -3.8481
  139MOL0     H18736   6.318   8.018   5.261 -0.3278 -0.4027 -0.6566
  139MOL0     H18737   6.345   7.876   5.001 -0.1502  0.2577 -0.6966
  139MOL0     H18738   6.343   7.818   5.170  0.1928  4.3806  3.0588
  139MOL0     H18739   6.152   7.711   5.059 -1.0358  0.5062 -0.4284
  139MOL0     H18740   6.079   7.857   5.010  0.0451 -1.4172 -0.6996
  139MOL0     H18741   6.000   7.732   5.211 -0.3718  0.2439 -0.1302
  139MOL0     H18742   6.123   7.807   5.311 -0.4990 -1.1025 -0.0539
  139MOL0     H18743   5.974   7.995   5.126  0.7606  0.8242  0.5722
  139MOL0     H18744   6.013   8.006   5.301  4.2815  0.4276 -0.9501
  139MOL0     H18745   5.781   7.851   5.174  2.2252  0.2403 -0.8882
  139MOL0     H18746   5.771   7.990   5.280 -2.9318 -2.4686  1.3628
  139MOL0     H18747   6.803   7.953   5.106 -0.5015 -0.3180  0.7296
  139MOL0     H18748   7.053   7.973   5.044 -1.9506 -3.9949  0.4069
  139MOL0     H18749   7.407   8.113   4.858  0.5143 -0.5279  1.3345
  139MOL0     H18750   7.636   8.132   4.769  0.2391 -0.0207  0.1966
  139MOL0     H18751   9.141   8.304   3.313  0.6814  2.3044 -1.6172
  139MOL0     H18752   9.364   8.273   3.223 -1.2896  1.2183  0.0791
  139MOL0     H18753   9.630   7.896   2.980 -2.3051  2.0649  1.8760
  139MOL0     H18754   9.849   7.832   2.875 -0.1316  0.2393  0.4695
  139MOL0     H18755  10.077   7.822   2.824  2.6495 -0.1332  0.2632
  139MOL0     H18756  10.013   7.830   2.659  0.2831 -2.5841  0.5497
  139MOL0     H18757  10.267   7.964   2.733 -1.3309 -0.4286  1.4721
  139MOL0     H18758  10.195   7.946   2.569  1.3804  0.8924 -0.8504
  139MOL0     H18759  10.252   7.700   2.564 -0.0670 -1.0314  1.0311
  139MOL0     H18760  10.251   7.679   2.728 -0.0214 -1.5356 -0.6786
  139MOL0     H18761  10.435   7.841   2.767  0.1465  0.7713 -0.6333
  139MOL0     H18762  10.470   7.833   2.592 -0.0985  2.2207  0.9320
  139MOL0     H18763  10.597   7.444   2.721 -1.6922 -1.2555 -1.1292
  139MOL0     H18764   9.948   8.244   2.806  0.4584  1.3150  2.1793
  139MOL0     H18765   9.740   8.324   2.886  3.8271  0.4215  0.6583
  140MOL0     O18766   9.857   8.638   8.355  0.0403  0.5677  0.6260
  140MOL0     C18767   9.855   8.724   8.263  0.1010  1.0137 -0.5038
  140MOL0     O18768   9.746   8.749   8.175  0.2192 -0.1462  0.0128
  140MOL0     C18769   9.623   8.685   8.185 -0.2168  0.1615 -0.1299
  140MOL0     C18770   9.554   8.664   8.067  0.0114 -0.0056 -0.1284
  140MOL0     C18771   9.435   8.598   8.060  0.3671  0.4609  0.4240
  140MOL0     C18772   9.377   8.547   8.181  0.3252  0.3448 -0.8443
  140MOL0     O18773   9.265   8.464   8.179 -0.3388  0.3922 -0.0576
  140MOL0     C18774   9.145   8.516   8.109  0.5102 -0.1705 -1.1196
  140MOL0     C18775   9.056   8.404   8.088 -0.0099 -0.0407  0.1474
  140MOL0     C18776   8.915   8.442   8.025 -0.1389  0.3876  0.9878
  140MOL0     C18777   8.802   8.338   8.053  0.5979  0.3615 -0.2143
  140MOL0     C18778   8.679   8.366   7.963 -0.9262 -0.3126 -0.6795
  140MOL0     C18779   8.578   8.256   7.990 -0.1208  0.0439  0.0435
  140MOL0     C18780   8.437   8.294   7.934 -0.1172  0.5008  0.1758
  140MOL0     C18781   8.343   8.173   7.932  0.5810  0.6099  0.2907
  140MOL0     N18782   8.208   8.193   7.885  0.3885 -0.4522  0.6262
  140MOL0     C18783   8.131   8.091   7.842 -0.3923  0.5626  0.6565
  140MOL0     C18784   8.010   8.147   7.825  0.6049  0.1569  0.9764
  140MOL0     C18785   7.890   8.074   7.783  0.6959  0.7043  0.3869
  140MOL0     C18786   7.766   8.167   7.760 -0.1776  0.6478  0.1376
  140MOL0     C18787   7.649   8.076   7.725  0.5673  0.0099 -0.5433
  140MOL0     C18788   7.521   8.162   7.706  0.1190  0.1845 -0.2857
  140MOL0     O18789   7.403   8.101   7.757  0.4715 -0.0214  0.3243
  140MOL0     C18790   7.270   8.141   7.728 -0.3035  0.1201  0.4386
  140MOL0     C18791   7.235   8.259   7.665 -0.3399 -0.0242  0.6678
  140MOL0     C18792   7.104   8.270   7.611 -0.5594  0.2686 -0.6144
  140MOL0     C18793   7.071   8.389   7.522 -0.0251 -0.1823  0.6021
  140MOL0     C18794   7.008   8.173   7.637 -0.0612  0.4952 -0.3989
  140MOL0     C18795   6.868   8.179   7.583  0.3996 -0.2819 -0.0696
  140MOL0     O18796   6.785   8.079   7.616 -0.1225 -0.1244 -0.5874
  140MOL0     C18797   6.663   8.049   7.557 -0.5167  0.2274  0.0169
  140MOL0     C18798   6.619   7.922   7.588 -0.8063 -0.5746 -0.2666
  140MOL0     C18799   6.497   7.870   7.535  0.3116  0.3001 -1.2552
  140MOL0     C18800   6.421   7.942   7.439 -0.4588 -0.9977 -0.6207
  140MOL0     O18801   6.308   7.889   7.396  0.0152  1.0569  0.5778
  140MOL0     C18802   6.229   7.968   7.304 -1.0640 -1.3034 -0.5088
  140MOL0     C18803   6.098   7.895   7.304 -0.2017 -0.1668 -0.4907
  140MOL0     C18804   6.003   7.953   7.204 -0.0299 -0.3089 -0.0887
  140MOL0     C18805   5.859   7.912   7.235 -0.3986 -0.1543  0.3456
  140MOL0     C18806   5.759   7.998   7.156 -0.0604  0.1333  0.3808
  140MOL0     C18807   5.615   7.935   7.154  0.3199  0.1242  0.2456
  140MOL0     C18808   5.520   8.032   7.075 -0.2260  0.7285  0.4777
  140MOL0     C18809   5.377   7.972   7.086 -0.1061 -0.1763 -0.3240
  140MOL0    Cl18810   5.395   7.803   7.015 -0.2023 -0.5946 -0.3373
  140MOL0     C18811   6.473   8.063   7.401  0.1939  0.4875  1.3498
  140MOL0     C18812   6.588   8.118   7.454  0.0305  0.2895  0.0076
  140MOL0     O18813   6.823   8.271   7.516  0.0207 -0.8794  0.3423
  140MOL0     C18814   7.047   8.059   7.709 -0.0702  0.2257  0.2764
  140MOL0     C18815   7.177   8.043   7.750  1.0411 -0.0988  0.5095
  140MOL0     N18816   8.014   8.275   7.876 -0.3752 -0.2500  0.2323
  140MOL0     N18817   8.131   8.304   7.903 -0.5706  0.5204  0.1525
  140MOL0     C18818   9.442   8.573   8.304  0.2865 -0.0396  0.9169
  140MOL0     C18819   9.563   8.647   8.305  0.2906 -0.0260  0.7022
  140MOL0     C18820   9.976   8.807   8.246 -0.8909  0.1139 -0.9226
  140MOL0     C18821  10.103   8.767   8.301  0.4547  0.2944  0.1959
  140MOL0     C18822  10.213   8.852   8.294  0.6793 -0.2741  0.2239
  140MOL0     C18823  10.200   8.974   8.224  0.3619 -0.9233  0.5043
  140MOL0     O18824  10.323   9.033   8.211  0.2062 -0.4955 -0.7516
  140MOL0     C18825  10.332   9.144   8.125 -0.5388 -0.1330 -0.3451
  140MOL0     C18826  10.477   9.198   8.131 -0.8501 -0.1417 -0.2327
  140MOL0     C18827  10.523   9.208   8.278 -1.1576  1.0071  0.7581
  140MOL0     C18828  10.616   9.326   8.302 -0.3413 -0.0314  0.9154
  140MOL0     C18829  10.548   9.426   8.379  0.9111 -0.6625  0.2670
  140MOL0     C18830  10.482   9.509   8.435  0.2482  0.2800  0.1185
  140MOL0     C18831  10.078   9.015   8.176  0.6863 -0.2306  0.0552
  140MOL0     C18832   9.966   8.929   8.183 -0.2492 -0.8082 -0.1839
  140MOL0     H18833   9.593   8.699   7.972  0.7086 -1.3236 -0.3463
  140MOL0     H18834   9.386   8.587   7.964 -1.2129  1.1410  1.1161
  140MOL0     H18835   9.091   8.587   8.172  1.8545 -2.0437  2.4401
  140MOL0     H18836   9.169   8.560   8.012  2.6589  1.2254 -0.0267
  140MOL0     H18837   9.103   8.321   8.034 -1.9929  0.1861 -2.1540
  140MOL0     H18838   9.032   8.377   8.191 -1.0250 -0.7085 -0.2444
  140MOL0     H18839   8.868   8.535   8.059 -2.7661 -0.9184  1.2099
  140MOL0     H18840   8.919   8.452   7.916 -5.5246 -2.4824  0.1283
  140MOL0     H18841   8.852   8.246   8.023  2.3666  0.6892  1.5597
  140MOL0     H18842   8.775   8.325   8.158 -1.0146 -1.9031 -0.8211
  140MOL0     H18843   8.633   8.459   7.999 -1.4477 -1.6938  2.5201
  140MOL0     H18844   8.703   8.353   7.857  1.4179 -0.6311 -0.1684
  140MOL0     H18845   8.614   8.164   7.942  3.0078  1.5733 -0.7795
  140MOL0     H18846   8.570   8.243   8.098 -0.9820 -1.9237 -0.2024
  140MOL0     H18847   8.395   8.380   7.986 -0.2170  0.4984  0.0995
  140MOL0     H18848   8.442   8.328   7.830 -1.0182  1.5683  0.4690
  140MOL0     H18849   8.333   8.126   8.030 -0.1204  1.4414  0.6339
  140MOL0     H18850   8.386   8.107   7.856 -0.6141  1.4032 -1.1386
  140MOL0     H18851   8.166   7.991   7.820 -3.2196 -0.5721  0.9699
  140MOL0     H18852   7.915   8.027   7.688 -0.0518 -3.2693  1.9674
  140MOL0     H18853   7.871   7.987   7.847 -0.8409  0.4327 -0.3873
  140MOL0     H18854   7.774   8.235   7.674 -0.1107 -0.8792 -1.1171
  140MOL0     H18855   7.740   8.231   7.844  0.2424 -0.0182  0.7911
  140MOL0     H18856   7.641   8.011   7.813  0.6855  2.6706  1.5867
  140MOL0     H18857   7.662   8.020   7.632 -0.5103  1.6815 -1.7649
  140MOL0     H18858   7.510   8.180   7.598 -0.5908 -1.4160 -0.5073
  140MOL0     H18859   7.526   8.251   7.769 -1.4139 -0.8734  1.4160
  140MOL0     H18860   7.317   8.327   7.649  0.2322 -0.9090 -0.3073
  140MOL0     H18861   7.035   8.361   7.423 -3.4330  0.1992  1.6010
  140MOL0     H18862   6.987   8.442   7.568  0.3308  2.4161 -1.4865
  140MOL0     H18863   7.149   8.466   7.520  0.3069 -0.5077  0.7812
  140MOL0     H18864   6.690   7.867   7.649  2.3634  1.8168 -1.5272
  140MOL0     H18865   6.459   7.773   7.565  1.3039  0.4414  0.5666
  140MOL0     H18866   6.205   8.067   7.345 -1.7393 -1.3601 -0.7484
  140MOL0     H18867   6.269   7.980   7.203  0.0526  1.4583  0.1654
  140MOL0     H18868   6.125   7.791   7.282 -2.2065 -0.4212 -2.0347
  140MOL0     H18869   6.049   7.905   7.401 -0.1327  0.7556 -0.5395
  140MOL0     H18870   6.034   7.940   7.100  2.2089 -1.5989  0.6677
  140MOL0     H18871   6.014   8.059   7.229 -0.8140 -0.7894  2.6115
  140MOL0     H18872   5.855   7.804   7.218 -1.3622  0.0583 -0.8510
  140MOL0     H18873   5.836   7.910   7.342  0.2571 -2.8292  0.4979
  140MOL0     H18874   5.801   8.007   7.055  0.2350 -0.0188  0.4900
  140MOL0     H18875   5.756   8.096   7.204  0.2853  0.0995  0.4734
  140MOL0     H18876   5.632   7.831   7.124  1.4860 -0.2269  1.9964
  140MOL0     H18877   5.577   7.931   7.256  0.9641  3.4023  0.7524
  140MOL0     H18878   5.545   8.038   6.969 -3.1646  2.5074 -0.2185
  140MOL0     H18879   5.518   8.132   7.119  1.7852  1.4222 -0.8677
  140MOL0     H18880   5.299   8.015   7.024  0.1640 -1.5616 -1.6996
  140MOL0     H18881   5.343   7.963   7.189  0.8154 -0.8045 -0.0562
  140MOL0     H18882   6.405   8.123   7.340 -2.5029 -0.2886  3.4033
  140MOL0     H18883   6.620   8.215   7.418 -0.4076  0.5519  0.3213
  140MOL0     H18884   6.986   7.975   7.742 -0.5962 -0.2990 -1.8967
  140MOL0     H18885   7.204   7.950   7.801 -2.2336 -1.1740  0.4942
  140MOL0     H18886   9.401   8.524   8.392  0.3659 -1.3769  0.2320
  140MOL0     H18887   9.616   8.662   8.398 -2.1623  2.1616  1.8758
  140MOL0     H18888  10.112   8.680   8.366  0.0948  1.8694  2.4698
  140MOL0     H18889  10.310   8.832   8.337  1.4159  0.6859 -0.9104
  140MOL0     H18890  10.302   9.103   8.028  2.2384 -3.6348  0.0523
  140MOL0     H18891  10.265   9.225   8.157 -0.8689 -1.4470  2.5874
  140MOL0     H18892  10.464   9.295   8.082 -3.1904  0.1413  0.8272
  140MOL0     H18893  10.556   9.160   8.065 -0.6581  1.0966 -0.7599
  140MOL0     H18894  10.582   9.116   8.284 -1.3188  0.6610 -1.7331
  140MOL0     H18895  10.447   9.211   8.356 -1.2081  2.3328  0.6816
  140MOL0     H18896  10.651   9.374   8.211 -0.5424  0.1550  0.9331
  140MOL0     H18897  10.710   9.291   8.346  0.3904 -0.4088 -0.8705
  140MOL0     H18898  10.421   9.573   8.497  0.0295  1.8480 -1.6224
  140MOL0     H18899  10.069   9.111   8.125 -1.4337 -1.1471 -1.4308
  140MOL0     H18900   9.875   8.956   8.131 -0.0849  2.5512  1.0456
  141MOL0     O18901   7.565   5.025   1.419  0.4792 -0.7453 -0.0454
  141MOL0     C18902   7.543   5.133   1.473 -0.3381 -0.6384  0.3167
  141MOL0     O18903   7.425   5.201   1.483  0.3659  0.1305  0.3319
  141MOL0     C18904   7.308   5.133   1.452 -0.3906 -0.3621 -0.2373
  141MOL0     C18905   7.289   4.989   1.425 -0.3395 -0.3152 -0.0592
  141MOL0     C18906   7.160   4.941   1.381 -0.9229  0.0717  0.3223
  141MOL0     C18907   7.059   5.032   1.381 -0.3530  0.2276  0.5810
  141MOL0     O18908   6.933   4.980   1.356  0.0278 -0.9211 -0.8990
  141MOL0     C18909   6.823   5.030   1.437 -0.0841 -0.5281 -0.3453
  141MOL0     C18910   6.773   4.898   1.501 -0.4118  0.4354  0.9247
  141MOL0     C18911   6.869   4.839   1.606 -0.6425 -0.1990  0.6001
  141MOL0     C18912   6.925   4.698   1.566  0.9428 -0.6959  0.0164
  141MOL0     C18913   7.036   4.657   1.671  0.2844 -0.2000 -0.3552
  141MOL0     C18914   7.114   4.531   1.634  1.1259 -1.0910  0.2847
  141MOL0     C18915   7.026   4.409   1.630  0.4106 -0.2757 -0.6171
  141MOL0     C18916   7.088   4.317   1.524  0.0544 -0.1821 -0.4205
  141MOL0     N18917   6.981   4.238   1.452  0.2254 -0.0262 -0.2147
  141MOL0     C18918   6.853   4.203   1.505  0.5542 -0.4076  0.5072
  141MOL0     C18919   6.805   4.108   1.427 -0.2213  0.1292  0.0320
  141MOL0     C18920   6.682   4.035   1.444  0.6792  0.1237  0.6675
  141MOL0     C18921   6.573   4.073   1.342  0.5062 -0.3195 -0.5833
  141MOL0     C18922   6.466   3.957   1.328 -0.1684 -0.8944  0.6711
  141MOL0     C18923   6.340   4.013   1.261 -0.4045 -0.1546 -0.3293
  141MOL0     O18924   6.281   3.892   1.208  0.0380  0.2159  0.1745
  141MOL0     C18925   6.144   3.883   1.209  0.1310 -0.4337  0.5112
  141MOL0     C18926   6.081   3.758   1.188  0.7682  0.5073  0.2201
  141MOL0     C18927   5.943   3.749   1.184  0.4090 -0.0013  0.5671
  141MOL0     C18928   5.882   3.609   1.168 -0.4566  0.1053  0.1342
  141MOL0     C18929   5.864   3.869   1.206 -0.4196 -0.3102  1.0917
  141MOL0     C18930   5.719   3.886   1.183 -0.7180  0.3386  0.6658
  141MOL0     O18931   5.682   4.000   1.130  0.3151 -0.4511 -0.5250
  141MOL0     C18932   5.550   4.034   1.125 -0.7812  0.4886 -0.1139
  141MOL0     C18933   5.504   4.102   1.012 -0.1461  0.5770  0.0517
  141MOL0     C18934   5.369   4.140   1.000 -0.6142  0.1420  0.2028
  141MOL0     C18935   5.273   4.093   1.091 -0.3220  0.5361  0.8586
  141MOL0     O18936   5.145   4.136   1.070 -0.2365  0.0789  0.7584
  141MOL0     C18937   5.072   4.172   1.190 -0.7737 -0.5866 -0.4837
  141MOL0     C18938   4.970   4.277   1.143 -0.6075 -0.0735  0.7889
  141MOL0     C18939   4.893   4.335   1.258  0.5569 -0.1224  0.1530
  141MOL0     C18940   4.818   4.461   1.198 -0.8246 -0.3816 -0.5420
  141MOL0     C18941   4.715   4.514   1.300  0.6513  0.7466  0.3046
  141MOL0     C18942   4.750   4.522   1.449  0.3107  0.3129  0.4608
  141MOL0     C18943   4.619   4.565   1.520  0.0945  0.4539  0.7400
  141MOL0     C18944   4.569   4.718   1.498  0.4488  0.2447 -0.0598
  141MOL0    Cl18945   4.429   4.729   1.605  0.2632 -0.0499  0.0730
  141MOL0     C18946   5.312   4.016   1.195  0.5640 -0.1329 -0.7441
  141MOL0     C18947   5.452   3.997   1.222 -0.6881  0.3504 -0.2968
  141MOL0     O18948   5.653   3.789   1.175  0.1460  0.4638  0.2164
  141MOL0     C18949   5.934   3.987   1.226 -1.3046 -0.4518  0.0209
  141MOL0     C18950   6.068   3.990   1.222  0.3523  0.7777 -1.7458
  141MOL0     N18951   6.896   4.080   1.325  0.6080  0.2048 -0.1180
  141MOL0     N18952   7.001   4.155   1.342  0.0627  0.7330  0.6861
  141MOL0     C18953   7.071   5.171   1.391  0.5559  0.3334 -0.6930
  141MOL0     C18954   7.197   5.225   1.441 -0.5885 -0.4798  0.9239
  141MOL0     C18955   7.662   5.206   1.511 -0.3241  0.1187 -0.2391
  141MOL0     C18956   7.791   5.157   1.463 -0.1577  0.8073 -0.3688
  141MOL0     C18957   7.909   5.230   1.502 -0.0527 -0.1142  0.2125
  141MOL0     C18958   7.902   5.349   1.575 -0.3675  0.0004  0.4301
  141MOL0     O18959   8.016   5.420   1.598  0.2334 -0.4532 -0.0247
  141MOL0     C18960   8.001   5.556   1.645  0.1770  0.2779  0.7757
  141MOL0     C18961   8.141   5.600   1.668  0.3678 -0.2318 -0.5651
  141MOL0     C18962   8.238   5.585   1.541  0.3154 -0.6082  0.3696
  141MOL0     C18963   8.360   5.672   1.568 -0.3317  0.3424 -0.0882
  141MOL0     C18964   8.449   5.621   1.675  0.7322 -0.3650 -0.5347
  141MOL0     C18965   8.517   5.589   1.770 -0.4891  0.6099 -0.2252
  141MOL0     C18966   7.776   5.392   1.608  0.3038  0.7500 -0.2743
  141MOL0     C18967   7.659   5.325   1.577  0.5983  0.5292  0.2049
  141MOL0     H18968   7.354   4.903   1.441 -1.0971 -1.6232 -3.2101
  141MOL0     H18969   7.124   4.839   1.372 -3.0619  0.8749 -0.8386
  141MOL0     H18970   6.862   5.103   1.508 -0.2929 -0.2435 -0.5194
  141MOL0     H18971   6.738   5.068   1.380 -1.5375 -1.4382  1.1514
  141MOL0     H18972   6.681   4.915   1.559  0.1430  1.8981  1.4352
  141MOL0     H18973   6.760   4.826   1.421 -0.3473  0.7082  0.6675
  141MOL0     H18974   6.959   4.900   1.618 -0.4019 -0.0198 -1.6346
  141MOL0     H18975   6.819   4.833   1.703 -5.6129  1.1331 -1.5739
  141MOL0     H18976   6.842   4.627   1.574  0.9520 -0.5237  2.4791
  141MOL0     H18977   6.957   4.703   1.462  1.5988  0.3811  0.2563
  141MOL0     H18978   7.108   4.739   1.666  1.8871 -1.6062 -1.0989
  141MOL0     H18979   6.992   4.655   1.771  0.7041 -0.8198 -0.1816
  141MOL0     H18980   7.166   4.554   1.540  0.1898  2.4628  0.4914
  141MOL0     H18981   7.201   4.514   1.698  2.0184  0.6618 -0.3965
  141MOL0     H18982   7.020   4.354   1.724  0.1099  1.6640  0.5691
  141MOL0     H18983   6.921   4.429   1.606  0.9248  0.7438 -2.1904
  141MOL0     H18984   7.157   4.251   1.577 -0.9598 -0.4002  0.6446
  141MOL0     H18985   7.151   4.373   1.453 -0.1022  1.1764  0.4690
  141MOL0     H18986   6.804   4.253   1.588  2.0195  2.0990 -0.0025
  141MOL0     H18987   6.694   3.927   1.449  0.8194  0.1892  2.0913
  141MOL0     H18988   6.646   4.067   1.542  0.0103  2.4555 -0.2609
  141MOL0     H18989   6.623   4.089   1.246 -1.1340  1.0428 -1.2792
  141MOL0     H18990   6.525   4.161   1.385  2.7661 -0.2208  1.9771
  141MOL0     H18991   6.447   3.915   1.427  1.2490 -0.6325  1.0778
  141MOL0     H18992   6.496   3.879   1.257 -0.2333 -1.1161  0.8848
  141MOL0     H18993   6.349   4.084   1.178 -0.8182  0.1989 -0.0751
  141MOL0     H18994   6.291   4.066   1.344  0.2083  3.0039 -1.8257
  141MOL0     H18995   6.144   3.672   1.170 -0.7735 -0.1910 -2.3061
  141MOL0     H18996   5.812   3.575   1.245 -0.6156  0.2928  0.0732
  141MOL0     H18997   5.844   3.605   1.065  0.6734 -1.7449 -0.2523
  141MOL0     H18998   5.972   3.548   1.169 -0.8517 -0.4786  0.7582
  141MOL0     H18999   5.582   4.134   0.943 -1.1143  2.2873 -0.2991
  141MOL0     H19000   5.330   4.203   0.921  1.2278  0.0368 -0.8346
  141MOL0     H19001   5.030   4.079   1.230 -0.3035 -0.1883  1.0241
  141MOL0     H19002   5.137   4.220   1.265  0.5645 -0.2117 -1.8301
  141MOL0     H19003   5.025   4.361   1.098  0.3622  0.6427  3.0955
  141MOL0     H19004   4.911   4.240   1.059  2.4180  2.4144 -2.7823
  141MOL0     H19005   4.947   4.371   1.346 -0.3084 -0.3744  0.8026
  141MOL0     H19006   4.820   4.265   1.299 -0.2822  1.0674  0.7697
  141MOL0     H19007   4.895   4.537   1.181 -0.9055 -0.2941 -0.5167
  141MOL0     H19008   4.785   4.435   1.097  1.1496  0.4105 -1.4399
  141MOL0     H19009   4.627   4.449   1.295  0.1171  1.0768  3.4058
  141MOL0     H19010   4.679   4.607   1.255  0.8300  0.5212 -0.3161
  141MOL0     H19011   4.769   4.422   1.489 -1.2834  0.0029  0.5369
  141MOL0     H19012   4.831   4.595   1.458 -0.1450  0.7654  0.9312
  141MOL0     H19013   4.626   4.548   1.628  2.6309  0.5943  0.6752
  141MOL0     H19014   4.534   4.506   1.486  0.1745 -1.3867  3.3771
  141MOL0     H19015   4.544   4.738   1.393 -0.4834 -2.7122 -0.4964
  141MOL0     H19016   4.655   4.779   1.525 -1.4459  1.7720  3.0450
  141MOL0     H19017   5.238   3.996   1.271  2.0910 -1.0377  0.5644
  141MOL0     H19018   5.482   3.941   1.310  0.2513  3.4730  1.5446
  141MOL0     H19019   5.894   4.088   1.236 -0.8293 -0.3013  0.4364
  141MOL0     H19020   6.108   4.088   1.247  0.6981  0.1188  0.5368
  141MOL0     H19021   6.987   5.240   1.387  0.2171  0.1428  1.4451
  141MOL0     H19022   7.219   5.328   1.466  1.3397 -0.8390  0.9370
  141MOL0     H19023   7.806   5.059   1.417 -1.2089  0.5835 -0.2683
  141MOL0     H19024   8.005   5.195   1.466 -0.2805 -1.2442  0.6731
  141MOL0     H19025   7.970   5.633   1.574  1.2374  0.3280  0.3494
  141MOL0     H19026   7.954   5.557   1.744  0.7645 -0.2286  1.0662
  141MOL0     H19027   8.175   5.537   1.751 -1.1881 -0.1860  0.1476
  141MOL0     H19028   8.134   5.704   1.701  1.0586 -0.3018 -0.1720
  141MOL0     H19029   8.195   5.626   1.450  2.3846 -2.3187 -1.4828
  141MOL0     H19030   8.267   5.485   1.511  1.6184 -0.3110  0.5780
  141MOL0     H19031   8.326   5.772   1.596 -5.2306 -1.3705  1.1800
  141MOL0     H19032   8.418   5.675   1.475 -1.1678  0.9439 -0.6112
  141MOL0     H19033   8.578   5.559   1.852 -1.0177 -0.4692 -0.1974
  141MOL0     H19034   7.763   5.488   1.658 -2.6402  0.5720 -0.5203
  141MOL0     H19035   7.563   5.372   1.596 -0.1175  0.4225 -2.5858
  142MOL0     O19036  10.239   2.992   1.712 -0.0100  0.2703  0.7294
  142MOL0     C19037  10.345   2.991   1.645  0.6606 -0.4331 -0.8411
  142MOL0     O19038  10.352   3.020   1.513  0.3617  0.4928  0.2105
  142MOL0     C19039  10.231   3.011   1.442 -0.1060  0.0171  1.5015
  142MOL0     C19040  10.237   2.940   1.322  0.2663  0.1579 -0.3327
  142MOL0     C19041  10.126   2.929   1.238  1.0638  0.1095 -0.7773
  142MOL0     C19042   9.999   2.962   1.286 -0.1311  0.1444  0.5960
  142MOL0     O19043   9.891   2.938   1.205  0.1498  0.7451 -0.0949
  142MOL0     C19044   9.879   3.001   1.081 -0.5092  0.2441  1.1430
  142MOL0     C19045   9.771   2.942   0.999  0.6208  0.8222 -0.0560
  142MOL0     C19046   9.770   3.011   0.863  0.6334 -0.2194  0.5795
  142MOL0     C19047   9.716   3.151   0.879 -1.1633 -0.6176  0.4440
  142MOL0     C19048   9.583   3.174   0.793 -0.1413  0.1510 -0.6129
  142MOL0     C19049   9.617   3.188   0.643  0.2266 -0.4349  0.2702
  142MOL0     C19050   9.473   3.190   0.572  0.6361  0.6000 -0.2909
  142MOL0     C19051   9.482   3.246   0.430 -0.6166 -0.2055 -0.7007
  142MOL0     N19052   9.522   3.388   0.420  0.8333 -0.4397  0.2888
  142MOL0     C19053   9.639   3.436   0.375 -0.5709 -0.1409  0.2086
  142MOL0     C19054   9.614   3.563   0.333  0.5475  0.3893 -0.4531
  142MOL0     C19055   9.705   3.673   0.291 -1.2974  0.4998 -0.7307
  142MOL0     C19056   9.641   3.735   0.166 -0.7880  0.0069 -0.6271
  142MOL0     C19057   9.737   3.837   0.112  0.8528 -1.0531 -0.1152
  142MOL0     C19058   9.710   3.877  -0.033 -0.5421  0.1048  0.3200
  142MOL0     O19059   9.573   3.866  -0.060 -0.6843 -0.0539 -0.4162
  142MOL0     C19060   9.516   3.924  -0.170  0.5093  0.0729 -0.2716
  142MOL0     C19061   9.586   3.990  -0.274  0.1436  0.0017 -0.2410
  142MOL0     C19062   9.524   4.039  -0.384 -0.6077  0.2298  0.4443
  142MOL0     C19063   9.607   4.099  -0.492  0.2937  0.8045 -0.3243
  142MOL0     C19064   9.386   4.025  -0.394  0.9002  0.4958 -0.7068
  142MOL0     C19065   9.296   4.089  -0.498  0.6708 -0.5463  0.7717
  142MOL0     O19066   9.338   4.207  -0.551 -0.0229  0.4883  0.0835
  142MOL0     C19067   9.240   4.273  -0.618 -0.4745  0.2477  0.5972
  142MOL0     C19068   9.219   4.248  -0.758 -0.3675  0.8301  0.1828
  142MOL0     C19069   9.123   4.309  -0.834  0.3023 -0.8041  0.3288
  142MOL0     C19070   9.028   4.390  -0.762 -1.2035  0.6979  0.0099
  142MOL0     O19071   8.928   4.449  -0.825 -0.4893 -0.4737  1.1074
  142MOL0     C19072   8.856   4.380  -0.935 -0.0972 -0.0825 -0.1270
  142MOL0     C19073   8.744   4.483  -0.967 -0.1951  0.5687  0.6158
  142MOL0     C19074   8.650   4.534  -0.860  0.1991  0.4579 -0.9423
  142MOL0     C19075   8.554   4.634  -0.931 -0.6763  0.4634 -0.1024
  142MOL0     C19076   8.455   4.699  -0.845  0.1615 -1.2759 -1.3734
  142MOL0     C19077   8.387   4.820  -0.913  0.4072  1.0035 -0.9936
  142MOL0     C19078   8.472   4.946  -0.924 -0.2928  0.7003 -0.6463
  142MOL0     C19079   8.392   5.064  -0.965  0.2947 -0.5285  0.0951
  142MOL0    Cl19080   8.260   5.101  -0.855  0.1016 -0.7166 -0.1695
  142MOL0     C19081   9.039   4.408  -0.621 -0.3124  0.3155 -0.3235
  142MOL0     C19082   9.140   4.355  -0.553 -0.2769  0.1782  0.6175
  142MOL0     O19083   9.181   4.042  -0.514  0.6628  0.9374  0.0558
  142MOL0     C19084   9.309   3.952  -0.295  0.4518 -0.1998 -0.1853
  142MOL0     C19085   9.378   3.896  -0.185  1.6821  0.0448 -0.7303
  142MOL0     N19086   9.478   3.589   0.368  0.1907  0.7846  0.3929
  142MOL0     N19087   9.426   3.485   0.406 -0.0684  0.0652  0.2813
  142MOL0     C19088   9.995   3.040   1.408 -0.2791  1.0044  0.8862
  142MOL0     C19089  10.112   3.068   1.480 -0.2897  0.5122  0.2422
  142MOL0     C19090  10.472   2.977   1.726 -0.4923  0.2832  0.5697
  142MOL0     C19091  10.602   2.945   1.667  0.2561  0.7311  0.2596
  142MOL0     C19092  10.722   2.946   1.743  1.2121 -0.7662  0.6034
  142MOL0     C19093  10.716   2.979   1.871 -0.6883  0.1945  0.9050
  142MOL0     O19094  10.824   2.989   1.959  0.2333  0.5260  0.1625
  142MOL0     C19095  10.951   2.979   1.898  0.0634 -0.7462  0.3448
  142MOL0     C19096  11.062   2.964   2.011  0.3735 -0.9745 -0.2786
  142MOL0     C19097  11.108   3.106   2.038 -0.8349  0.5999  0.5850
  142MOL0     C19098  11.210   3.106   2.153 -0.3045  0.4623 -0.0044
  142MOL0     C19099  11.332   3.027   2.118  0.4914  0.0853  0.2539
  142MOL0     C19100  11.431   2.957   2.105 -0.7021 -0.4359  0.3896
  142MOL0     C19101  10.595   3.008   1.938 -0.1507 -0.2399  0.2723
  142MOL0     C19102  10.469   3.007   1.862 -0.6137  0.0503  0.0825
  142MOL0     H19103  10.329   2.889   1.293  2.4276  2.5662  1.7426
  142MOL0     H19104  10.142   2.888   1.139 -1.3730 -0.6271 -0.9335
  142MOL0     H19105   9.856   3.105   1.107 -1.4157  0.2661  0.3351
  142MOL0     H19106   9.979   2.996   1.036 -0.5244  0.3210  1.0983
  142MOL0     H19107   9.792   2.837   0.980  1.9348  1.0837 -0.1223
  142MOL0     H19108   9.669   2.943   1.038  0.9020  0.1185  0.7245
  142MOL0     H19109   9.865   3.021   0.810 -0.4635  3.1815 -1.0416
  142MOL0     H19110   9.702   2.957   0.797  0.5865 -0.0889  0.5192
  142MOL0     H19111   9.698   3.174   0.985  1.6298  2.9247  0.3364
  142MOL0     H19112   9.793   3.220   0.845 -1.0068 -2.3291 -3.1001
  142MOL0     H19113   9.526   3.084   0.816 -2.6414  1.4745 -1.2598
  142MOL0     H19114   9.533   3.268   0.821  4.3291  2.3484  1.0948
  142MOL0     H19115   9.661   3.287   0.624  0.4749 -0.4045  0.9550
  142MOL0     H19116   9.681   3.109   0.604  0.8231  0.7570 -1.2346
  142MOL0     H19117   9.443   3.085   0.564  0.4246  0.6776 -0.5131
  142MOL0     H19118   9.399   3.242   0.633 -0.3050 -0.0308 -0.8754
  142MOL0     H19119   9.389   3.225   0.376 -1.8014 -2.6628  1.9744
  142MOL0     H19120   9.553   3.188   0.370  0.8264  1.8783 -1.0917
  142MOL0     H19121   9.734   3.387   0.392 -0.2258  1.0113  1.8812
  142MOL0     H19122   9.730   3.743   0.371  2.5435 -0.2581 -1.0490
  142MOL0     H19123   9.802   3.630   0.263 -0.8820 -0.6944  2.1909
  142MOL0     H19124   9.547   3.788   0.182 -0.2708  1.1527 -1.1904
  142MOL0     H19125   9.642   3.652   0.095  1.6856  1.0104 -1.9109
  142MOL0     H19126   9.843   3.815   0.100  1.3529  1.6167 -1.4293
  142MOL0     H19127   9.732   3.929   0.171  2.8453 -0.8115 -0.2448
  142MOL0     H19128   9.769   3.806  -0.091  0.6195 -2.0556  3.8031
  142MOL0     H19129   9.740   3.978  -0.062 -0.8687  0.5136  1.3541
  142MOL0     H19130   9.694   3.996  -0.261  0.1873 -0.0143 -0.5919
  142MOL0     H19131   9.706   4.052  -0.495 -1.6224 -3.7616 -4.0988
  142MOL0     H19132   9.566   4.087  -0.592 -2.4214  1.8911  0.5798
  142MOL0     H19133   9.608   4.204  -0.462  0.2192  1.0795 -1.2719
  142MOL0     H19134   9.291   4.183  -0.807  2.3261  4.2553 -0.8273
  142MOL0     H19135   9.124   4.293  -0.942 -0.3601  2.3531 -0.2673
  142MOL0     H19136   8.931   4.362  -1.012 -1.1493 -0.0698 -1.1798
  142MOL0     H19137   8.815   4.282  -0.909 -0.1034 -0.2156 -0.6283
  142MOL0     H19138   8.794   4.571  -1.009  1.8812 -0.7126  0.2542
  142MOL0     H19139   8.681   4.441  -1.045 -2.4273  0.3431  2.4191
  142MOL0     H19140   8.693   4.578  -0.769 -0.6814 -0.5016 -0.0361
  142MOL0     H19141   8.593   4.446  -0.827 -1.4381  1.0518 -2.0635
  142MOL0     H19142   8.618   4.704  -0.985  0.9988 -0.8778  0.0739
  142MOL0     H19143   8.500   4.590  -1.016 -0.2224 -0.6609  0.1658
  142MOL0     H19144   8.511   4.742  -0.761 -2.6005  0.3382 -0.2089
  142MOL0     H19145   8.380   4.628  -0.809 -0.3562  0.6923  1.9149
  142MOL0     H19146   8.340   4.786  -1.005  0.8075 -0.3096 -0.7332
  142MOL0     H19147   8.304   4.855  -0.850  1.4905  0.8546  0.5804
  142MOL0     H19148   8.552   4.930  -0.996 -1.4117  0.4577 -1.8711
  142MOL0     H19149   8.526   4.966  -0.831 -1.2965 -0.9895  0.3652
  142MOL0     H19150   8.340   5.053  -1.061 -2.8766  2.4338  1.2587
  142MOL0     H19151   8.462   5.147  -0.980 -0.4467  0.6721  2.7562
  142MOL0     H19152   8.966   4.475  -0.578  0.5688  1.7642 -0.9886
  142MOL0     H19153   9.162   4.383  -0.450 -0.2937 -2.6368  1.4815
  142MOL0     H19154   9.203   3.931  -0.302  0.4552  0.0347 -1.0863
  142MOL0     H19155   9.330   3.841  -0.105  0.0107  0.5929 -1.3067
  142MOL0     H19156   9.898   3.073   1.443 -0.2919  0.5511  1.3008
  142MOL0     H19157  10.095   3.116   1.576 -1.2191 -0.5471  0.6404
  142MOL0     H19158  10.596   2.905   1.566 -0.1440 -4.2600  1.9567
  142MOL0     H19159  10.808   2.921   1.682 -0.1714  1.6727 -2.6453
  142MOL0     H19160  10.953   2.889   1.835  1.5469  0.4764 -1.4692
  142MOL0     H19161  10.963   3.067   1.834  1.2365 -0.5750  0.7766
  142MOL0     H19162  11.142   2.915   1.954  2.7653  3.4651 -1.2292
  142MOL0     H19163  11.023   2.917   2.101  1.7493 -0.3325  0.6931
  142MOL0     H19164  11.025   3.174   2.060  0.2860  2.1251  0.2544
  142MOL0     H19165  11.150   3.147   1.946 -1.4511 -0.5522 -0.2427
  142MOL0     H19166  11.166   3.060   2.242  2.4976 -1.4310  0.5323
  142MOL0     H19167  11.245   3.206   2.180 -1.8415  1.5272 -1.6983
  142MOL0     H19168  11.518   2.895   2.097 -1.5329 -1.9270  2.2318
  142MOL0     H19169  10.599   3.045   2.040  1.8045  2.5596 -0.6957
  142MOL0     H19170  10.375   3.026   1.914 -1.7813 -1.7196 -1.2782
  143MOL0     O19171   0.807  10.675   0.792 -0.5055 -0.7947 -0.2575
  143MOL0     C19172   0.852  10.567   0.756  1.0504 -0.3329 -0.1480
  143MOL0     O19173   0.773  10.460   0.720 -0.0899 -0.7285 -0.7644
  143MOL0     C19174   0.644  10.443   0.752 -0.0770 -0.1493 -1.1494
  143MOL0     C19175   0.599  10.458   0.890  0.3773 -0.4033 -0.7999
  143MOL0     C19176   0.464  10.447   0.919 -0.7699  0.0584 -1.0571
  143MOL0     C19177   0.378  10.399   0.829 -0.1454 -0.2666  0.6396
  143MOL0     O19178   0.254  10.345   0.852 -0.1812  0.3316 -0.0321
  143MOL0     C19179   0.188  10.380   0.978  0.4746 -0.2738  0.3403
  143MOL0     C19180   0.049  10.301   0.993  0.2423  0.1485 -0.2226
  143MOL0     C19181  -0.066  10.355   0.905 -0.8130 -0.5957 -0.4631
  143MOL0     C19182  -0.202  10.300   0.943  0.1063  0.4888  0.8890
  143MOL0     C19183  -0.215  10.162   0.885  0.2558  0.2842  0.6224
  143MOL0     C19184  -0.327  10.081   0.957  0.1614 -0.0612 -0.5220
  143MOL0     C19185  -0.471  10.115   0.913  0.2189  0.0982  0.7172
  143MOL0     C19186  -0.566   9.997   0.940 -0.1360 -0.4296 -0.0728
  143MOL0     N19187  -0.687  10.047   0.892  0.2138 -0.5788  0.4888
  143MOL0     C19188  -0.763  10.133   0.963  0.5037 -0.3408 -0.2823
  143MOL0     C19189  -0.862  10.170   0.879 -0.8264 -0.1973 -0.5990
  143MOL0     C19190  -0.976  10.266   0.912 -0.0532  0.2186  0.2008
  143MOL0     C19191  -1.091  10.194   0.974  0.3378  0.4023  0.5852
  143MOL0     C19192  -1.199  10.295   1.017  0.0051  0.3223  0.3379
  143MOL0     C19193  -1.334  10.257   1.067 -0.4126  0.7845 -0.1804
  143MOL0     O19194  -1.385  10.379   1.124  0.0975  0.2472 -0.1653
  143MOL0     C19195  -1.496  10.376   1.204 -0.1973  1.0879  0.1746
  143MOL0     C19196  -1.539  10.503   1.235  0.1706 -0.1709 -0.2853
  143MOL0     C19197  -1.669  10.523   1.289 -0.2107 -0.3956  0.0148
  143MOL0     C19198  -1.712  10.663   1.306 -0.2268  0.2513 -0.3492
  143MOL0     C19199  -1.749  10.410   1.324 -0.3857  0.0969 -0.3954
  143MOL0     C19200  -1.873  10.420   1.398  0.3956 -0.1104  0.1239
  143MOL0     O19201  -1.880  10.527   1.489 -0.5272  0.0346  0.4391
  143MOL0     C19202  -1.987  10.523   1.578 -0.9230 -0.0256 -0.2191
  143MOL0     C19203  -1.974  10.459   1.705  0.1097  1.0092 -1.4084
  143MOL0     C19204  -2.087  10.451   1.790 -0.0039 -0.3736  0.2671
  143MOL0     C19205  -2.205  10.526   1.748  0.4405  0.4223 -0.6642
  143MOL0     O19206  -2.306  10.536   1.844  0.2552  0.2819  0.7081
  143MOL0     C19207  -2.446  10.526   1.809  0.2859 -0.3342  0.3314
  143MOL0     C19208  -2.483  10.378   1.788  0.4079  0.2402  0.2627
  143MOL0     C19209  -2.641  10.373   1.774 -0.2513 -0.1829  0.1352
  143MOL0     C19210  -2.691  10.243   1.722 -0.3005  0.4694  0.3648
  143MOL0     C19211  -2.839  10.250   1.707 -1.1599 -0.1619  0.2637
  143MOL0     C19212  -2.899  10.121   1.659  0.7766  0.3475 -0.1605
  143MOL0     C19213  -2.834  10.031   1.549  0.3253  0.2043 -0.8336
  143MOL0     C19214  -2.819  10.104   1.417  0.0015 -0.5837  0.1204
  143MOL0    Cl19215  -2.979  10.123   1.348  0.3484  0.3563 -0.3013
  143MOL0     C19216  -2.210  10.583   1.622 -0.3241 -0.0304  0.4082
  143MOL0     C19217  -2.101  10.580   1.542 -0.0277 -0.6618  0.4274
  143MOL0     O19218  -1.964  10.337   1.380 -0.1435 -0.3657  0.0432
  143MOL0     C19219  -1.708  10.284   1.280  0.4610 -0.4804 -0.9460
  143MOL0     C19220  -1.580  10.267   1.220 -0.1572  0.1568 -0.4896
  143MOL0     N19221  -0.854  10.092   0.767 -0.1348 -0.3022 -0.0742
  143MOL0     N19222  -0.749  10.017   0.775 -0.0613  0.4282 -0.4219
  143MOL0     C19223   0.424  10.375   0.700 -0.3040 -0.5520  0.6891
  143MOL0     C19224   0.559  10.393   0.659 -0.3065  0.8658 -0.2963
  143MOL0     C19225   0.999  10.544   0.747  0.3122  0.3614  0.0285
  143MOL0     C19226   1.049  10.454   0.666  0.6586  0.0931  0.2907
  143MOL0     C19227   1.192  10.424   0.663  0.0380  0.4021 -0.8150
  143MOL0     C19228   1.280  10.497   0.739 -0.3351  0.2566 -0.3279
  143MOL0     O19229   1.416  10.474   0.733  0.4153  0.0298 -0.0602
  143MOL0     C19230   1.460  10.479   0.599  0.9203  0.6967  0.1639
  143MOL0     C19231   1.608  10.525   0.598 -0.2105  0.9481  0.7560
  143MOL0     C19232   1.682  10.477   0.465  0.6332 -0.2721  0.1041
  143MOL0     C19233   1.807  10.554   0.443 -0.2327 -0.7434 -0.2392
  143MOL0     C19234   1.910  10.524   0.550  0.7394 -0.6115  0.0443
  143MOL0     C19235   1.976  10.495   0.650 -0.3236  0.1746  0.4565
  143MOL0     C19236   1.231  10.599   0.820 -0.1942 -0.1959  0.2329
  143MOL0     C19237   1.094  10.618   0.823  0.1947 -0.4271 -0.1440
  143MOL0     H19238   0.660  10.498   0.971  1.1939 -0.4830 -1.3709
  143MOL0     H19239   0.441  10.455   1.025  0.7741 -1.0315 -0.6089
  143MOL0     H19240   0.259  10.361   1.059  3.2959 -0.3400 -1.9877
  143MOL0     H19241   0.182  10.489   0.976 -0.9399 -0.3388 -0.3114
  143MOL0     H19242   0.074  10.198   0.968  1.6900  1.0645 -2.9240
  143MOL0     H19243   0.008  10.309   1.094 -2.3148  5.0260 -1.3204
  143MOL0     H19244  -0.076  10.464   0.917 -1.5645 -0.7663  0.5130
  143MOL0     H19245  -0.045  10.329   0.800 -0.6572 -3.2518  0.1573
  143MOL0     H19246  -0.219  10.305   1.051  0.1182  1.8151  0.8509
  143MOL0     H19247  -0.277  10.363   0.895 -2.6548 -2.7199  0.6797
  143MOL0     H19248  -0.227  10.171   0.777  0.8458 -0.4387  0.4891
  143MOL0     H19249  -0.122  10.108   0.900 -0.0808 -0.8100 -0.9377
  143MOL0     H19250  -0.310   9.973   0.944  0.1483 -0.4668  2.1993
  143MOL0     H19251  -0.322  10.096   1.066  1.0284 -1.9873 -0.2474
  143MOL0     H19252  -0.507  10.203   0.966 -0.9930  1.4415 -2.1153
  143MOL0     H19253  -0.477  10.136   0.806 -1.9348 -0.2864  0.7135
  143MOL0     H19254  -0.563   9.965   1.044 -0.6998 -0.8001 -0.1671
  143MOL0     H19255  -0.546   9.910   0.877 -2.2079 -1.1619  0.1945
  143MOL0     H19256  -0.750  10.175   1.063 -3.6381 -0.2707  0.4104
  143MOL0     H19257  -0.934  10.344   0.975  1.1101  0.1178 -0.4084
  143MOL0     H19258  -1.003  10.300   0.811  0.0828 -0.1655  0.0279
  143MOL0     H19259  -1.049  10.153   1.066  0.8124  2.5275  1.3779
  143MOL0     H19260  -1.129  10.118   0.905 -0.1262  1.0336  0.1331
  143MOL0     H19261  -1.221  10.353   0.927  0.7845  1.0287  0.5894
  143MOL0     H19262  -1.159  10.354   1.100  2.3328 -0.3353 -0.2511
  143MOL0     H19263  -1.313  10.183   1.145  1.5351  0.4570 -0.9570
  143MOL0     H19264  -1.401  10.214   0.992  0.8070 -1.0944 -0.2310
  143MOL0     H19265  -1.481  10.594   1.219 -1.4690  1.7356  3.3197
  143MOL0     H19266  -1.658  10.732   1.240 -1.7886  3.5405  1.5722
  143MOL0     H19267  -1.818  10.671   1.279 -0.6190  1.5129  1.4053
  143MOL0     H19268  -1.700  10.692   1.411  2.5204 -0.5484 -0.3670
  143MOL0     H19269  -1.877  10.417   1.729 -1.3528 -1.4892  0.5948
  143MOL0     H19270  -2.073  10.415   1.892 -1.8053  0.8439  0.9922
  143MOL0     H19271  -2.500  10.569   1.894  2.3365  1.5339  0.7862
  143MOL0     H19272  -2.466  10.591   1.723 -0.1555 -1.5580 -0.5121
  143MOL0     H19273  -2.429  10.343   1.699  1.5109  0.0018  1.0057
  143MOL0     H19274  -2.456  10.317   1.875 -0.4354 -1.5195 -0.6423
  143MOL0     H19275  -2.665  10.442   1.692 -2.1172 -0.7944  0.1271
  143MOL0     H19276  -2.697  10.412   1.859 -0.1432  1.2278 -0.4060
  143MOL0     H19277  -2.641  10.219   1.628 -3.0232  0.2764 -1.1471
  143MOL0     H19278  -2.670  10.170   1.801 -0.7149  0.0867  0.1292
  143MOL0     H19279  -2.862  10.327   1.633  1.8579  0.1359 -0.4682
  143MOL0     H19280  -2.886  10.282   1.800 -0.0912  1.4935  0.2635
  143MOL0     H19281  -2.921  10.068   1.752 -0.9176 -0.0041 -0.7247
  143MOL0     H19282  -3.002  10.141   1.628  0.7748 -1.6178 -1.6193
  143MOL0     H19283  -2.882   9.935   1.529  1.5835 -0.4077 -1.0358
  143MOL0     H19284  -2.737  10.000   1.590  1.1872  1.4297 -1.8429
  143MOL0     H19285  -2.758  10.048   1.345 -1.2165  0.7874 -2.1105
  143MOL0     H19286  -2.774  10.202   1.435 -2.8881  1.1467 -1.2763
  143MOL0     H19287  -2.302  10.634   1.593 -0.8660  0.0938  2.2220
  143MOL0     H19288  -2.121  10.615   1.441 -3.7819 -0.9150  0.9402
  143MOL0     H19289  -1.764  10.191   1.291 -0.2086 -0.2781 -2.3634
  143MOL0     H19290  -1.551  10.169   1.182 -2.1406  0.1833 -2.2881
  143MOL0     H19291   0.364  10.353   0.613 -1.0583  3.1420  0.0735
  143MOL0     H19292   0.601  10.363   0.564  0.4785 -2.4522  0.9664
  143MOL0     H19293   0.982  10.402   0.599 -2.1956  1.8296  1.6047
  143MOL0     H19294   1.233  10.346   0.599 -0.6784 -0.0017 -0.7951
  143MOL0     H19295   1.452  10.383   0.547 -0.3220  0.3159  1.0186
  143MOL0     H19296   1.406  10.546   0.532  1.2616 -0.1868 -1.0369
  143MOL0     H19297   1.656  10.481   0.687  1.2093  2.7197  0.9270
  143MOL0     H19298   1.630  10.631   0.609  3.7611  0.2806  0.9279
  143MOL0     H19299   1.614  10.496   0.382  0.6728 -0.1642  0.0958
  143MOL0     H19300   1.695  10.369   0.478 -1.7790 -0.4422  1.9360
  143MOL0     H19301   1.798  10.662   0.432 -0.0385 -0.6866  0.1823
  143MOL0     H19302   1.846  10.515   0.348  3.2621 -2.8564  1.8623
  143MOL0     H19303   2.038  10.477   0.735 -2.3438  0.3261  2.0309
  143MOL0     H19304   1.306  10.657   0.872  1.3716 -0.5934 -1.5001
  143MOL0     H19305   1.061  10.700   0.887  0.0757 -0.1987 -0.4958
  144MOL0     O19306   2.292   6.938  10.177  0.3777  0.0168  0.0743
  144MOL0     C19307   2.338   6.998  10.081 -0.9541 -0.3512 -0.7131
  144MOL0     O19308   2.268   7.074   9.989 -0.9008 -0.5266  0.1799
  144MOL0     C19309   2.134   7.069  10.017 -1.0415  0.7194  0.4730
  144MOL0     C19310   2.074   7.136  10.124 -0.4361  1.1729  0.2373
  144MOL0     C19311   1.945   7.114  10.167 -0.9031  0.5713  0.3513
  144MOL0     C19312   1.861   7.027  10.092 -1.3294  0.1062  0.1964
  144MOL0     O19313   1.730   6.995  10.125 -0.6057 -0.4102  0.5960
  144MOL0     C19314   1.669   7.061  10.236  0.7071 -0.1412 -0.2978
  144MOL0     C19315   1.555   6.974  10.290 -0.4902  0.1746  0.0052
  144MOL0     C19316   1.432   6.964  10.201  0.7868 -0.1721  0.3797
  144MOL0     C19317   1.418   6.831  10.127  0.1650  0.3332  0.7474
  144MOL0     C19318   1.292   6.824  10.047  0.3775 -0.0958 -0.8288
  144MOL0     C19319   1.160   6.833  10.140  0.1563 -0.1720 -0.1880
  144MOL0     C19320   1.042   6.798  10.050 -0.0986  0.1968  0.0594
  144MOL0     C19321   0.910   6.766  10.122 -0.6138  0.4047 -0.1198
  144MOL0     N19322   0.801   6.776  10.019 -0.2900  0.1486  0.2368
  144MOL0     C19323   0.687   6.849  10.046 -0.3133 -0.8051  0.0040
  144MOL0     C19324   0.615   6.836   9.932  0.6846  0.3187  0.6741
  144MOL0     C19325   0.485   6.918   9.918  0.4931 -0.1027  0.0804
  144MOL0     C19326   0.368   6.850   9.986  0.3551  0.2502 -0.4723
  144MOL0     C19327   0.246   6.940   9.970  0.3417  0.3818 -0.6021
  144MOL0     C19328   0.117   6.884  10.026 -0.5663 -0.0631  0.8208
  144MOL0     O19329   0.022   6.980  10.016 -0.3604  0.5511 -0.5532
  144MOL0     C19330  -0.112   6.952  10.019 -0.0738 -0.4320 -0.4000
  144MOL0     C19331  -0.165   6.839  10.083  0.9586  1.0878  0.6165
  144MOL0     C19332  -0.301   6.807  10.088  0.1703  0.0270  0.0576
  144MOL0     C19333  -0.340   6.685  10.168 -0.0691  0.0685  0.4764
  144MOL0     C19334  -0.390   6.900  10.041 -0.0266 -1.1989 -0.4905
  144MOL0     C19335  -0.539   6.887  10.039  0.6234  0.1169  0.1103
  144MOL0     O19336  -0.605   6.992   9.991  0.1721 -0.0801  0.5412
  144MOL0     C19337  -0.743   6.984   9.992 -0.3495 -0.1941 -0.5673
  144MOL0     C19338  -0.809   7.059  10.092  0.5357 -0.2152 -0.0072
  144MOL0     C19339  -0.945   7.063  10.091 -0.2261  0.7376 -1.3456
  144MOL0     C19340  -1.025   7.007   9.987  0.2965  0.0341 -0.7130
  144MOL0     O19341  -1.159   6.995  10.006  0.1069 -0.3543 -0.1945
  144MOL0     C19342  -1.237   6.996   9.888  0.2664  0.1971 -0.5062
  144MOL0     C19343  -1.367   7.046   9.948  0.4131  0.4692  0.6393
  144MOL0     C19344  -1.483   7.033   9.854  0.5837  0.4517 -0.3484
  144MOL0     C19345  -1.530   7.175   9.808 -0.4220 -0.8431 -0.2611
  144MOL0     C19346  -1.651   7.160   9.716  0.3692 -0.2771  0.0289
  144MOL0     C19347  -1.687   7.291   9.660  0.0066  0.5304 -0.0446
  144MOL0     C19348  -1.816   7.295   9.578  0.6371  0.1703  0.6703
  144MOL0     C19349  -1.805   7.405   9.472 -0.4613  0.6467 -0.2597
  144MOL0    Cl19350  -1.971   7.438   9.414 -0.0323 -0.0010  0.2669
  144MOL0     C19351  -0.960   6.937   9.884  0.6202  0.6377  0.3236
  144MOL0     C19352  -0.817   6.920   9.886 -0.4217 -0.6244 -0.1530
  144MOL0     O19353  -0.595   6.775  10.053  0.2750  0.3439  0.1889
  144MOL0     C19354  -0.339   7.008   9.973  0.3755 -0.3526 -0.1042
  144MOL0     C19355  -0.207   7.040   9.969 -0.1041  0.0362  0.2776
  144MOL0     N19356   0.686   6.758   9.836 -0.1709 -0.2138  0.1460
  144MOL0     N19357   0.795   6.734   9.892  0.2116 -0.4896  0.6693
  144MOL0     C19358   1.913   6.984   9.973 -0.6828  0.2233  0.0971
  144MOL0     C19359   2.050   6.996   9.930  0.3725  0.1934 -0.1577
  144MOL0     C19360   2.479   6.982  10.053 -0.7060 -0.3781 -0.3132
  144MOL0     C19361   2.546   7.076   9.973  0.0984 -0.0573  0.4311
  144MOL0     C19362   2.684   7.053   9.939  0.3364 -0.5182  0.5933
  144MOL0     C19363   2.752   6.941   9.988 -0.4897 -0.0661 -0.1905
  144MOL0     O19364   2.883   6.933   9.957  0.4657 -0.3458  0.0428
  144MOL0     C19365   2.961   6.819   9.995 -0.5587 -0.6677  0.0870
  144MOL0     C19366   2.924   6.695   9.918 -0.5964  0.0638  0.3105
  144MOL0     C19367   2.917   6.711   9.762  0.2706 -0.8568  0.2780
  144MOL0     C19368   2.919   6.597   9.663  0.6499  0.0308  0.3662
  144MOL0     C19369   2.792   6.531   9.685  0.8399  0.4603  0.2570
  144MOL0     C19370   2.683   6.480   9.703  0.3449  0.4549  0.6255
  144MOL0     C19371   2.686   6.853  10.080 -0.3483 -0.0331 -0.0650
  144MOL0     C19372   2.551   6.870  10.105 -0.4133  0.3851  0.0071
  144MOL0     H19373   2.134   7.204  10.184 -1.3509  0.4340  2.0409
  144MOL0     H19374   1.904   7.145  10.262 -2.9573 -0.5864 -0.0974
  144MOL0     H19375   1.734   7.073  10.323 -0.7296  2.4691  0.5145
  144MOL0     H19376   1.623   7.153  10.199 -1.1438 -1.8290 -2.5876
  144MOL0     H19377   1.585   6.871  10.313 -0.7152  0.8283  4.1272
  144MOL0     H19378   1.511   7.023  10.378 -0.0613  2.2661 -0.8920
  144MOL0     H19379   1.343   6.977  10.263  0.3325 -0.2220 -0.2539
  144MOL0     H19380   1.436   7.038  10.120 -2.2263 -2.0605 -1.7103
  144MOL0     H19381   1.503   6.822  10.059 -0.0028  0.0792  0.5711
  144MOL0     H19382   1.425   6.748  10.198 -1.5279 -1.1840 -0.7643
  144MOL0     H19383   1.291   6.908   9.976  2.2247  1.3902  0.7810
  144MOL0     H19384   1.298   6.729   9.993  1.5665 -0.6188  0.1836
  144MOL0     H19385   1.164   6.766  10.227 -0.9414 -0.7625 -0.5796
  144MOL0     H19386   1.143   6.931  10.184 -0.9004 -0.1389 -0.6491
  144MOL0     H19387   1.035   6.880   9.978  2.6676  1.3266  0.9379
  144MOL0     H19388   1.065   6.701  10.005 -0.3722 -0.7053  1.7894
  144MOL0     H19389   0.887   6.832  10.205 -0.9307 -1.7018  1.5427
  144MOL0     H19390   0.923   6.674  10.180 -2.7622  1.5369  2.3337
  144MOL0     H19391   0.648   6.904  10.131 -2.4341 -2.4214  0.1815
  144MOL0     H19392   0.506   7.017   9.959  2.0305 -0.5007  0.3167
  144MOL0     H19393   0.455   6.921   9.812  0.3844  0.6163  0.1296
  144MOL0     H19394   0.386   6.829  10.092 -1.5125 -1.5936 -0.4690
  144MOL0     H19395   0.355   6.759   9.927 -0.9170 -0.2490  0.5350
  144MOL0     H19396   0.236   6.970   9.865 -2.3955 -1.5892 -1.0205
  144MOL0     H19397   0.269   7.023  10.036 -2.6879  0.8160  0.0354
  144MOL0     H19398   0.126   6.850  10.130  1.1344 -0.0675  0.6911
  144MOL0     H19399   0.095   6.791   9.971  1.6895  0.5111 -1.2207
  144MOL0     H19400  -0.100   6.771  10.137  1.5039 -1.4607 -2.8817
  144MOL0     H19401  -0.399   6.716  10.254 -0.2057 -1.2098  0.8647
  144MOL0     H19402  -0.404   6.616  10.113 -0.8935  1.1488  0.0442
  144MOL0     H19403  -0.253   6.621  10.189 -0.2034 -0.6113 -0.9093
  144MOL0     H19404  -0.750   7.106  10.170 -0.2943  1.4722 -0.3422
  144MOL0     H19405  -0.988   7.112  10.178  1.2925  1.5126 -1.0034
  144MOL0     H19406  -1.204   7.058   9.804 -1.2009  0.0425 -1.2216
  144MOL0     H19407  -1.247   6.891   9.860  1.0540 -0.0567  0.1361
  144MOL0     H19408  -1.388   6.997  10.043 -3.0509  2.4907  1.0729
  144MOL0     H19409  -1.360   7.148   9.986 -3.8855  1.1640  0.0451
  144MOL0     H19410  -1.567   6.988   9.908 -0.1790  1.9874 -0.1957
  144MOL0     H19411  -1.462   6.980   9.761  0.0590  0.6740 -0.5945
  144MOL0     H19412  -1.547   7.246   9.889  0.8104  3.0449 -3.0791
  144MOL0     H19413  -1.454   7.223   9.744 -0.3828 -1.1693 -0.4623
  144MOL0     H19414  -1.732   7.112   9.771  0.1522  0.6608  0.5373
  144MOL0     H19415  -1.636   7.099   9.626  2.8465 -1.0969  0.9035
  144MOL0     H19416  -1.686   7.366   9.739 -0.3603  0.7864 -0.2832
  144MOL0     H19417  -1.604   7.320   9.594 -0.1790  1.4376  0.1210
  144MOL0     H19418  -1.906   7.297   9.639 -1.2347  0.8448 -1.9632
  144MOL0     H19419  -1.830   7.206   9.516 -0.5742  0.4970  0.4622
  144MOL0     H19420  -1.735   7.368   9.396 -2.5496 -1.5843 -1.2141
  144MOL0     H19421  -1.760   7.496   9.512 -0.1132  0.2387  0.2954
  144MOL0     H19422  -1.005   6.887   9.799  4.0950 -1.0176 -0.7144
  144MOL0     H19423  -0.764   6.869   9.806  2.0830 -0.1540  1.0923
  144MOL0     H19424  -0.401   7.076   9.915 -0.1196 -3.5777 -3.7632
  144MOL0     H19425  -0.177   7.132   9.920 -0.3199  0.6798  1.3161
  144MOL0     H19426   1.841   6.945   9.902 -0.2847  0.9266 -0.7122
  144MOL0     H19427   2.090   6.946   9.842  1.0332  0.1025  0.1844
  144MOL0     H19428   2.502   7.168   9.938  1.6629 -0.0547 -1.7801
  144MOL0     H19429   2.734   7.117   9.867 -1.3628 -0.5137 -0.6327
  144MOL0     H19430   3.067   6.844   9.986 -0.6086 -0.6265 -0.4297
  144MOL0     H19431   2.947   6.793  10.100  1.3003 -0.5477  0.3923
  144MOL0     H19432   2.825   6.662   9.951 -0.5359 -3.0888 -2.1348
  144MOL0     H19433   2.996   6.618   9.949  1.1552  2.3072  2.2426
  144MOL0     H19434   3.000   6.777   9.733  0.6434 -1.3431  0.2374
  144MOL0     H19435   2.832   6.777   9.743  0.9083 -0.1772 -0.2953
  144MOL0     H19436   2.988   6.521   9.700 -1.2856 -1.4332  1.1547
  144MOL0     H19437   2.939   6.617   9.557  3.1508 -2.1759  0.3082
  144MOL0     H19438   2.609   6.416   9.747 -0.8353 -0.6681 -2.6685
  144MOL0     H19439   2.723   6.762  10.125 -0.7612  0.5143  1.4350
  144MOL0     H19440   2.493   6.795  10.158  0.1672 -1.6240 -2.0488
  145MOL0     O19441   7.494   9.288   0.236 -0.1880  0.3117 -0.0642
  145MOL0     C19442   7.539   9.194   0.168  0.7203  0.2025 -0.2821
  145MOL0     O19443   7.496   9.057   0.172 -0.6167  0.0591 -0.5403
  145MOL0     C19444   7.399   9.011   0.268 -0.7475  1.1660  0.6494
  145MOL0     C19445   7.345   8.886   0.237 -0.3281  0.0336 -0.0054
  145MOL0     C19446   7.238   8.827   0.314 -0.3595 -0.2725  0.1511
  145MOL0     C19447   7.189   8.892   0.420 -0.2516 -0.2429 -0.2926
  145MOL0     O19448   7.094   8.847   0.509  0.2134  0.8035  0.5051
  145MOL0     C19449   7.053   8.713   0.499  0.6164 -0.4374  0.1439
  145MOL0     C19450   6.936   8.695   0.412 -0.0887  0.2966 -0.3977
  145MOL0     C19451   6.888   8.549   0.411 -0.0520  0.0113 -0.4115
  145MOL0     C19452   6.742   8.531   0.361 -0.0195  0.0787  0.8291
  145MOL0     C19453   6.699   8.382   0.348  0.1788 -0.5464  0.0089
  145MOL0     C19454   6.556   8.367   0.314 -0.0994 -0.0878  0.4748
  145MOL0     C19455   6.518   8.223   0.275 -0.1976  0.3406  0.1457
  145MOL0     C19456   6.372   8.194   0.297 -0.2710  0.0439 -0.0931
  145MOL0     N19457   6.336   8.061   0.235 -0.0486 -0.2086  0.1775
  145MOL0     C19458   6.291   8.049   0.108 -0.1087  0.0737  0.2437
  145MOL0     C19459   6.282   7.912   0.084 -0.2950 -0.5959  0.2282
  145MOL0     C19460   6.236   7.850  -0.055 -0.6912 -0.5256 -0.0628
  145MOL0     C19461   6.106   7.918  -0.109  0.1639  0.3163 -0.3688
  145MOL0     C19462   6.042   7.828  -0.218 -0.4731  0.4491 -0.7398
  145MOL0     C19463   5.975   7.922  -0.318  0.5702  0.2601  0.5062
  145MOL0     O19464   5.848   7.970  -0.267  0.5717 -0.1467 -0.3383
  145MOL0     C19465   5.812   8.100  -0.303 -0.1450  0.5425  0.8026
  145MOL0     C19466   5.881   8.215  -0.250  0.1512 -0.1095 -0.2217
  145MOL0     C19467   5.851   8.344  -0.294  0.0431 -0.7540  0.5093
  145MOL0     C19468   5.929   8.470  -0.241  0.1013 -0.7560 -0.3154
  145MOL0     C19469   5.751   8.350  -0.399  0.0552  0.1831  0.9714
  145MOL0     C19470   5.710   8.480  -0.465  0.1225 -0.4801 -0.8432
  145MOL0     O19471   5.645   8.567  -0.385 -0.2229 -0.4343 -0.1701
  145MOL0     C19472   5.594   8.690  -0.435 -0.1205  1.4479 -0.3663
  145MOL0     C19473   5.460   8.707  -0.405 -0.1861 -0.0164  0.8739
  145MOL0     C19474   5.394   8.833  -0.435 -0.2174 -0.0157 -0.3028
  145MOL0     C19475   5.468   8.932  -0.499 -0.7890  0.4628 -0.5452
  145MOL0     O19476   5.406   9.051  -0.543  0.4498  0.4252 -0.4381
  145MOL0     C19477   5.487   9.170  -0.548 -0.2943  0.3620 -0.0442
  145MOL0     C19478   5.416   9.299  -0.515 -0.6212 -0.1706 -0.4696
  145MOL0     C19479   5.504   9.426  -0.533 -0.1328  0.6596  0.3205
  145MOL0     C19480   5.408   9.550  -0.543  0.6096  0.1388  1.2652
  145MOL0     C19481   5.502   9.670  -0.543 -0.2275  0.0044  0.4225
  145MOL0     C19482   5.443   9.808  -0.591 -0.1915  0.6033  0.9707
  145MOL0     C19483   5.320   9.852  -0.522 -0.2570  0.2872 -0.1562
  145MOL0     C19484   5.342   9.992  -0.467 -0.2079 -0.0511 -0.2151
  145MOL0    Cl19485   5.197  10.026  -0.371  0.4520  0.1755 -0.0713
  145MOL0     C19486   5.591   8.897  -0.536  0.9913 -0.3331  1.1904
  145MOL0     C19487   5.661   8.779  -0.512  0.5043  0.0779  0.2706
  145MOL0     O19488   5.750   8.505  -0.579  0.1231 -0.3705 -0.4519
  145MOL0     C19489   5.691   8.237  -0.454  0.0525  0.4644  0.3791
  145MOL0     C19490   5.729   8.110  -0.407 -0.0404 -0.7034  0.4814
  145MOL0     N19491   6.336   7.849   0.192  0.3718  0.7654  0.0629
  145MOL0     N19492   6.366   7.931   0.278  0.8834  0.8458 -0.2451
  145MOL0     C19493   7.234   9.020   0.453 -0.0478 -0.0932 -0.2167
  145MOL0     C19494   7.343   9.071   0.384  0.1967  0.2793 -0.2996
  145MOL0     C19495   7.625   9.238   0.056  0.1177 -0.0135  0.1444
  145MOL0     C19496   7.672   9.370   0.049 -0.3330 -0.2699 -0.4846
  145MOL0     C19497   7.758   9.401  -0.056 -0.8248 -0.0827 -0.1809
  145MOL0     C19498   7.798   9.310  -0.149 -0.4632  0.4958  0.3735
  145MOL0     O19499   7.900   9.320  -0.247  0.0743 -0.1366 -0.0827
  145MOL0     C19500   7.941   9.453  -0.287  0.3270  0.7551 -0.2425
  145MOL0     C19501   8.040   9.469  -0.404  0.1245  0.3104 -0.9941
  145MOL0     C19502   8.176   9.416  -0.360  0.0184 -0.4223  0.2246
  145MOL0     C19503   8.287   9.471  -0.457  1.2100  0.3809 -0.5781
  145MOL0     C19504   8.418   9.430  -0.406 -0.2400  0.3586  0.4089
  145MOL0     C19505   8.520   9.379  -0.373 -0.6893  0.3588  0.1087
  145MOL0     C19506   7.747   9.181  -0.146  0.3908 -1.4820  0.1361
  145MOL0     C19507   7.661   9.156  -0.044 -0.3949  0.7953 -0.8553
  145MOL0     H19508   7.378   8.828   0.151 -2.5734  1.6663 -2.1322
  145MOL0     H19509   7.196   8.731   0.284  0.1273 -0.0128 -1.4622
  145MOL0     H19510   7.135   8.653   0.459  1.4548  0.9328 -0.2530
  145MOL0     H19511   7.038   8.674   0.600 -0.6012 -1.5599 -0.4460
  145MOL0     H19512   6.868   8.762   0.465  2.4124  0.8633  2.3362
  145MOL0     H19513   6.959   8.724   0.309 -1.2047 -0.3918 -0.8522
  145MOL0     H19514   6.962   8.493   0.354  0.9476  0.0754  0.7658
  145MOL0     H19515   6.899   8.499   0.507  1.1633 -0.7658 -0.9359
  145MOL0     H19516   6.687   8.588   0.437 -0.0014  0.3967  0.6027
  145MOL0     H19517   6.731   8.579   0.263  0.8914 -0.7871  0.2828
  145MOL0     H19518   6.755   8.332   0.268 -1.0531  0.6520 -1.6989
  145MOL0     H19519   6.724   8.339   0.445 -1.4450 -0.6635  0.3936
  145MOL0     H19520   6.488   8.401   0.393 -0.1742  2.6635 -0.6612
  145MOL0     H19521   6.530   8.434   0.232 -0.3640  0.3468  0.9057
  145MOL0     H19522   6.527   8.211   0.167  0.2725  0.9390  0.1124
  145MOL0     H19523   6.590   8.164   0.333  1.9444  2.0749 -0.6129
  145MOL0     H19524   6.304   8.272   0.261  0.2873  1.4044  1.6668
  145MOL0     H19525   6.342   8.184   0.402 -2.7659  0.5722 -0.6883
  145MOL0     H19526   6.272   8.131   0.040  0.0140 -2.4233 -3.0172
  145MOL0     H19527   6.322   7.864  -0.122  0.0414  2.5774  1.3260
  145MOL0     H19528   6.216   7.743  -0.044 -2.2766 -0.1748  0.6825
  145MOL0     H19529   6.140   8.015  -0.146  1.8535  0.2072  0.8183
  145MOL0     H19530   6.023   7.932  -0.039 -1.8250  0.5466 -2.6225
  145MOL0     H19531   5.975   7.759  -0.166  0.3537  0.6733  0.6686
  145MOL0     H19532   6.119   7.775  -0.274 -0.8982 -1.0029 -0.0110
  145MOL0     H19533   5.942   7.862  -0.404  1.7581  1.2069 -0.6533
  145MOL0     H19534   6.043   8.003  -0.347  2.1496 -0.2415  2.5817
  145MOL0     H19535   5.948   8.200  -0.166 -0.0870  1.6603  0.3173
  145MOL0     H19536   6.024   8.484  -0.295  0.7773  0.9444  1.2232
  145MOL0     H19537   5.876   8.565  -0.252 -0.6470 -0.5913  3.4774
  145MOL0     H19538   5.949   8.454  -0.135  0.0592 -0.2100 -0.2216
  145MOL0     H19539   5.403   8.627  -0.359  0.0625 -0.4268  0.4713
  145MOL0     H19540   5.293   8.850  -0.399  0.9175  0.6128  2.8880
  145MOL0     H19541   5.567   9.160  -0.474  1.5427  0.5652 -1.9081
  145MOL0     H19542   5.532   9.185  -0.646  0.3204  0.8714  0.3071
  145MOL0     H19543   5.324   9.304  -0.575 -0.9769  1.4930  0.1748
  145MOL0     H19544   5.394   9.295  -0.408  2.2959 -0.0033  0.2214
  145MOL0     H19545   5.564   9.425  -0.624  0.1568  0.6913  0.5109
  145MOL0     H19546   5.580   9.433  -0.454 -3.0471  3.0489  3.2141
  145MOL0     H19547   5.344   9.547  -0.631  1.8014  1.6632  0.3065
  145MOL0     H19548   5.353   9.559  -0.448  1.1812  1.0615  1.5194
  145MOL0     H19549   5.593   9.655  -0.601  1.6630 -0.9741  3.4457
  145MOL0     H19550   5.543   9.683  -0.443  4.6201  3.3346 -1.6630
  145MOL0     H19551   5.525   9.880  -0.600  2.2486 -2.1261 -1.1049
  145MOL0     H19552   5.422   9.811  -0.699  1.7856  2.9735  0.5476
  145MOL0     H19553   5.291   9.781  -0.443 -1.8052 -0.4461 -1.3188
  145MOL0     H19554   5.227   9.852  -0.580 -0.3263 -2.5514 -0.1757
  145MOL0     H19555   5.341  10.068  -0.545 -0.5892 -0.6560 -0.8074
  145MOL0     H19556   5.427   9.995  -0.398 -0.2429  1.3356 -0.2069
  145MOL0     H19557   5.632   8.962  -0.612  0.5425 -1.7110 -0.2701
  145MOL0     H19558   5.758   8.761  -0.557 -0.1619  0.6341 -1.4543
  145MOL0     H19559   5.604   8.246  -0.518 -0.1313  2.8854  0.8664
  145MOL0     H19560   5.675   8.027  -0.451 -2.6294  2.0511 -2.0337
  145MOL0     H19561   7.184   9.074   0.533  0.7209  0.1137  0.1306
  145MOL0     H19562   7.385   9.165   0.419  0.7231  0.5267 -1.5603
  145MOL0     H19563   7.645   9.454   0.113  0.9643 -0.8575  0.9053
  145MOL0     H19564   7.809   9.495  -0.038 -1.4908  0.5607 -1.5838
  145MOL0     H19565   7.847   9.500  -0.317 -0.4064 -0.5105  0.0332
  145MOL0     H19566   7.982   9.509  -0.202  0.1408  0.1079  0.2770
  145MOL0     H19567   8.037   9.575  -0.431 -1.9207  0.8437  0.9796
  145MOL0     H19568   7.998   9.414  -0.489 -0.0328 -2.0590  0.5429
  145MOL0     H19569   8.175   9.306  -0.363  1.4739 -0.4708 -3.5382
  145MOL0     H19570   8.190   9.453  -0.258 -2.3801 -0.4720  0.6251
  145MOL0     H19571   8.274   9.579  -0.448  0.9573  0.2144  1.5271
  145MOL0     H19572   8.276   9.443  -0.563  0.9047 -0.3084 -0.3706
  145MOL0     H19573   8.608   9.331  -0.338 -0.0916  2.7893  2.2602
  145MOL0     H19574   7.782   9.103  -0.214  2.5824 -1.1682  0.8092
  145MOL0     H19575   7.605   9.063  -0.050 -0.5677  0.9122 -1.1013
  146MOL0     O19576   3.667   4.100  10.553  0.5491 -0.6146 -0.3216
  146MOL0     C19577   3.743   4.118  10.645  0.3484  0.2540  0.6267
  146MOL0     O19578   3.708   4.138  10.771  0.4025  0.1959  0.0527
  146MOL0     C19579   3.571   4.146  10.801 -0.4022 -0.2760  0.6502
  146MOL0     C19580   3.498   4.057  10.871 -0.3022 -0.3773  0.2748
  146MOL0     C19581   3.359   4.082  10.883 -0.3983  0.8727 -0.5702
  146MOL0     C19582   3.280   4.191  10.847 -0.1496 -0.7504  0.0150
  146MOL0     O19583   3.142   4.195  10.869  0.5563 -0.5360  0.2758
  146MOL0     C19584   3.071   4.319  10.837  0.0425  0.0901  0.2910
  146MOL0     C19585   2.919   4.288  10.816 -0.6332  0.6526  0.2246
  146MOL0     C19586   2.842   4.419  10.787 -0.1564  0.8915 -0.6230
  146MOL0     C19587   2.691   4.385  10.768  0.2469 -0.3651  0.2154
  146MOL0     C19588   2.606   4.502  10.709  0.5856 -0.4906  0.4590
  146MOL0     C19589   2.467   4.459  10.660 -0.2630 -0.2355 -0.3809
  146MOL0     C19590   2.380   4.581  10.635  0.3345  0.4742  0.0140
  146MOL0     C19591   2.254   4.539  10.554 -0.2602 -0.2417 -0.4658
  146MOL0     N19592   2.134   4.612  10.597  0.1463  0.0803  0.2356
  146MOL0     C19593   2.093   4.739  10.558  0.5839  0.4314 -0.6623
  146MOL0     C19594   1.968   4.746  10.622 -0.5662 -0.0799  0.2490
  146MOL0     C19595   1.875   4.872  10.601  0.2126  0.6173 -0.0287
  146MOL0     C19596   1.863   4.918  10.460  0.1835 -0.4952  0.1687
  146MOL0     C19597   1.802   4.818  10.367 -0.1108  0.2712  0.2561
  146MOL0     C19598   1.647   4.797  10.380  0.0891 -0.6725 -0.1318
  146MOL0     O19599   1.578   4.923  10.371  0.3940  0.4369  0.8012
  146MOL0     C19600   1.445   4.913  10.394 -0.2201  0.0178  0.3966
  146MOL0     C19601   1.402   4.917  10.525  0.4649  0.8491  0.6093
  146MOL0     C19602   1.264   4.894  10.558  0.2300  0.3551 -0.2486
  146MOL0     C19603   1.225   4.924  10.704 -0.2070 -0.1500 -0.6708
  146MOL0     C19604   1.170   4.886  10.457  0.0525  0.0142  0.6979
  146MOL0     C19605   1.027   4.903  10.476  0.7591 -0.0404 -0.6262
  146MOL0     O19606   0.984   5.015  10.544 -0.6039  0.3938  0.3589
  146MOL0     C19607   0.848   5.019  10.571 -0.0470  0.2214  0.4454
  146MOL0     C19608   0.765   5.068  10.479  0.3732 -1.0829  0.6475
  146MOL0     C19609   0.635   5.086  10.511 -0.6237 -0.3423  0.5128
  146MOL0     C19610   0.579   5.041  10.628 -0.2693 -0.0498  0.3745
  146MOL0     O19611   0.449   5.056  10.643  0.3584  0.3852 -0.2072
  146MOL0     C19612   0.379   4.937  10.700 -0.4983 -0.0754  0.3809
  146MOL0     C19613   0.231   4.944  10.662  0.1933 -0.5941  0.2501
  146MOL0     C19614   0.138   5.021  10.747  0.1921  0.6261 -0.4516
  146MOL0     C19615  -0.011   4.984  10.725 -0.6783  0.1401 -0.8771
  146MOL0     C19616  -0.086   5.011  10.856  0.3158  0.2200  0.3347
  146MOL0     C19617  -0.226   4.970  10.819 -0.5197  0.2795  0.2274
  146MOL0     C19618  -0.333   4.988  10.928 -0.0883 -0.4443 -0.8179
  146MOL0     C19619  -0.466   4.915  10.891  0.6597 -0.0327 -0.5227
  146MOL0    Cl19620  -0.512   4.971  10.732  0.2327  0.2239  0.2598
  146MOL0     C19621   0.662   4.995  10.731 -0.0050  0.6924  0.8587
  146MOL0     C19622   0.795   4.974  10.693 -0.3992 -0.7077 -0.0129
  146MOL0     O19623   0.951   4.816  10.424  0.4136 -0.2561  0.1083
  146MOL0     C19624   1.212   4.873  10.326 -0.0813  0.6470  0.4501
  146MOL0     C19625   1.352   4.885  10.292 -0.8107 -0.0035  0.4477
  146MOL0     N19626   1.944   4.633  10.690 -0.0912  0.0581 -0.4434
  146MOL0     N19627   2.047   4.561  10.691 -0.6308 -0.6800  0.1495
  146MOL0     C19628   3.361   4.287  10.788  0.9061  0.3823 -0.1950
  146MOL0     C19629   3.499   4.263  10.760  0.9376  0.5501  0.2212
  146MOL0     C19630   3.886   4.111  10.621 -0.5706  0.9205 -0.6523
  146MOL0     C19631   3.975   4.123  10.728  0.0342 -0.4403  0.1313
  146MOL0     C19632   4.112   4.115  10.704 -0.8217  0.0780  0.8002
  146MOL0     C19633   4.167   4.093  10.577  0.0001  0.8737  0.0489
  146MOL0     O19634   4.300   4.087  10.548  0.2168  0.5713  0.6199
  146MOL0     C19635   4.386   4.020  10.635  0.3537  0.2818  0.4268
  146MOL0     C19636   4.504   4.102  10.690  0.5267  0.4868 -0.1524
  146MOL0     C19637   4.580   4.187  10.589  0.0203  0.5347 -0.0276
  146MOL0     C19638   4.635   4.107  10.469  0.4614  0.4856  0.3751
  146MOL0     C19639   4.734   4.185  10.392  0.5870 -0.7122  0.6388
  146MOL0     C19640   4.820   4.250  10.332  0.8463 -1.0591 -0.2171
  146MOL0     C19641   4.077   4.083  10.473 -0.7364 -0.6112 -0.2305
  146MOL0     C19642   3.937   4.083  10.496 -0.1465 -0.6690  0.6538
  146MOL0     H19643   3.552   3.971  10.910  1.4050  0.8367  0.7386
  146MOL0     H19644   3.314   3.995  10.929 -1.5849  0.5192 -2.3158
  146MOL0     H19645   3.096   4.396  10.910  0.5862  0.7442 -0.5653
  146MOL0     H19646   3.106   4.364  10.744  2.6892  2.7750  2.3868
  146MOL0     H19647   2.920   4.222  10.729  2.1107 -0.1137  0.7413
  146MOL0     H19648   2.867   4.238  10.899 -2.2101 -0.9932 -1.6671
  146MOL0     H19649   2.864   4.479  10.876 -2.9443 -0.4789  1.1463
  146MOL0     H19650   2.879   4.467  10.696 -2.2445  0.4854 -1.7246
  146MOL0     H19651   2.688   4.298  10.702 -1.4125 -1.0986  1.1983
  146MOL0     H19652   2.647   4.361  10.866  2.0887 -0.5039  1.0438
  146MOL0     H19653   2.602   4.583  10.782  2.3171 -0.3189  0.3979
  146MOL0     H19654   2.659   4.545  10.623  2.2875 -0.0689  1.6679
  146MOL0     H19655   2.475   4.394  10.572 -1.9016 -0.2865 -0.5155
  146MOL0     H19656   2.430   4.402  10.746 -3.4009  1.4886 -0.4435
  146MOL0     H19657   2.359   4.626  10.733 -0.2352  0.8313 -0.2663
  146MOL0     H19658   2.429   4.654  10.570  0.1092  0.3074 -0.3427
  146MOL0     H19659   2.234   4.432  10.563 -2.5377  0.1630 -0.1361
  146MOL0     H19660   2.261   4.557  10.446  2.8145 -0.3496 -0.3819
  146MOL0     H19661   2.130   4.827  10.506 -2.4188  2.7418  0.8076
  146MOL0     H19662   1.778   4.844  10.644  0.6232 -1.8355 -0.5220
  146MOL0     H19663   1.908   4.952  10.668 -1.0514  0.3496  0.9695
  146MOL0     H19664   1.964   4.946  10.427  0.5793 -0.9945  0.9252
  146MOL0     H19665   1.806   5.011  10.460  0.5735 -0.2531 -0.0300
  146MOL0     H19666   1.857   4.727  10.391 -1.3770 -0.7196 -0.4006
  146MOL0     H19667   1.820   4.849  10.263 -0.7421  0.2106  0.1218
  146MOL0     H19668   1.625   4.740  10.470  0.9637 -0.8702 -0.0370
  146MOL0     H19669   1.616   4.729  10.300 -0.1072 -1.9893  1.0285
  146MOL0     H19670   1.473   4.953  10.599 -0.3278 -1.6410  2.7381
  146MOL0     H19671   1.125   4.891  10.736 -0.0042  0.4465  0.6540
  146MOL0     H19672   1.301   4.885  10.772 -1.1702 -1.7917 -0.4631
  146MOL0     H19673   1.220   5.032  10.720 -0.6063 -0.2601  0.0147
  146MOL0     H19674   0.795   5.088  10.377 -0.8173 -1.0559  0.2951
  146MOL0     H19675   0.570   5.129  10.435 -0.9620 -2.2225 -0.3082
  146MOL0     H19676   0.427   4.844  10.668  1.6887  0.1392  2.7386
  146MOL0     H19677   0.380   4.937  10.809 -2.2328  0.7398  0.4359
  146MOL0     H19678   0.233   4.977  10.558  1.2443 -2.2595 -0.3008
  146MOL0     H19679   0.184   4.846  10.647 -0.8367  0.2608 -2.9281
  146MOL0     H19680   0.149   5.130  10.740 -3.1541  1.0422 -0.5703
  146MOL0     H19681   0.169   4.982  10.844  2.8529  0.6620 -1.2093
  146MOL0     H19682  -0.041   5.032  10.631 -3.7572 -1.9866 -1.1248
  146MOL0     H19683  -0.020   4.876  10.709 -0.4679 -0.7902  3.8413
  146MOL0     H19684  -0.078   5.110  10.900  0.3103  0.4798 -0.2475
  146MOL0     H19685  -0.059   4.932  10.928 -2.6454 -1.0076  0.2444
  146MOL0     H19686  -0.260   5.032  10.736  0.2088 -0.9684 -1.0427
  146MOL0     H19687  -0.226   4.864  10.791 -0.1788 -0.3276  2.3246
  146MOL0     H19688  -0.345   5.097  10.931  0.6277 -0.2112 -3.4657
  146MOL0     H19689  -0.290   4.938  11.015  2.3897 -1.7329 -2.6564
  146MOL0     H19690  -0.550   4.933  10.959 -0.5266  1.5786 -2.3165
  146MOL0     H19691  -0.459   4.806  10.890  1.2526  0.0010 -1.4665
  146MOL0     H19692   0.623   4.966  10.828 -1.6386 -0.8906 -0.2080
  146MOL0     H19693   0.861   4.935  10.771 -1.6900  1.2113  2.1642
  146MOL0     H19694   1.133   4.857  10.253 -0.0983 -0.6573  0.7383
  146MOL0     H19695   1.374   4.869  10.187 -3.5536  1.2478 -0.4064
  146MOL0     H19696   3.314   4.374  10.744 -0.0062 -0.7100 -1.4476
  146MOL0     H19697   3.555   4.337  10.703  0.0820  1.8257  0.9803
  146MOL0     H19698   3.935   4.150  10.825  0.6856 -0.2090  0.3387
  146MOL0     H19699   4.165   4.122  10.798 -0.8564  4.7994  0.6762
  146MOL0     H19700   4.335   3.987  10.726 -0.0933  1.8675  0.7813
  146MOL0     H19701   4.413   3.930  10.579 -0.0614  2.0915 -2.9431
  146MOL0     H19702   4.565   4.032  10.748 -0.0584  0.4160  0.3814
  146MOL0     H19703   4.454   4.160  10.768 -2.5492 -1.1917 -0.7174
  146MOL0     H19704   4.670   4.234  10.630  1.3126  0.4494 -2.5954
  146MOL0     H19705   4.509   4.266  10.562 -0.4656  1.5576  3.6316
  146MOL0     H19706   4.561   4.058  10.405  0.9421 -0.2792  0.3957
  146MOL0     H19707   4.684   4.023  10.519 -1.9186 -0.5912  1.0535
  146MOL0     H19708   4.896   4.291  10.268  1.5248 -1.6939  0.1676
  146MOL0     H19709   4.105   4.081  10.368  1.0756  1.5288  0.1519
  146MOL0     H19710   3.864   4.069  10.418  0.0907  2.3484 -0.2074
  147MOL0     O19711   5.517   8.993   1.492 -0.1444 -0.9096  0.0132
  147MOL0     C19712   5.515   9.118   1.479 -0.2355  0.6602 -0.9384
  147MOL0     O19713   5.415   9.196   1.438 -0.2598  0.0864  0.5172
  147MOL0     C19714   5.291   9.146   1.409  0.0218 -0.2655 -0.6275
  147MOL0     C19715   5.215   9.086   1.510 -0.2060  0.1269  0.3141
  147MOL0     C19716   5.093   9.048   1.473  0.2806  0.0863  0.8617
  147MOL0     C19717   5.047   9.042   1.347 -0.2558 -0.1236  0.2668
  147MOL0     O19718   4.923   8.994   1.319  0.2831  0.3896  0.6796
  147MOL0     C19719   4.921   8.853   1.324 -0.6175 -0.1992 -0.3171
  147MOL0     C19720   4.827   8.820   1.205 -0.1330 -0.1045  0.0946
  147MOL0     C19721   4.678   8.860   1.242  0.4609 -0.3873  1.3078
  147MOL0     C19722   4.587   8.871   1.121 -0.0201 -0.2771 -0.2383
  147MOL0     C19723   4.439   8.873   1.175 -0.0403 -0.0546  0.1546
  147MOL0     C19724   4.332   8.847   1.066  0.6855  0.7725  1.1091
  147MOL0     C19725   4.191   8.878   1.118 -0.8067 -0.2673  0.0203
  147MOL0     C19726   4.110   8.898   0.997  0.3610 -0.4658  0.7434
  147MOL0     N19727   3.972   8.944   1.033 -0.3469  0.6438  0.5892
  147MOL0     C19728   3.864   8.861   1.033  0.2781 -0.0409 -0.7814
  147MOL0     C19729   3.767   8.942   1.094 -0.7567  1.2412  0.5301
  147MOL0     C19730   3.625   8.895   1.117 -0.1273  0.3064  0.4640
  147MOL0     C19731   3.517   9.007   1.142  0.9314  0.5383  0.5013
  147MOL0     C19732   3.366   8.962   1.123 -0.1514  0.6888  0.1764
  147MOL0     C19733   3.260   9.071   1.115  0.1702  0.2901  0.5774
  147MOL0     O19734   3.135   9.029   1.177  0.1109 -0.0130  0.2260
  147MOL0     C19735   3.025   8.998   1.090  0.2547 -0.3289 -0.0810
  147MOL0     C19736   2.897   9.052   1.113  0.9625  0.2422  0.6040
  147MOL0     C19737   2.784   9.014   1.043 -0.1319 -0.3939  0.2338
  147MOL0     C19738   2.658   9.073   1.088  0.1292  0.7520 -0.4607
  147MOL0     C19739   2.806   8.935   0.925 -0.1118 -0.2336  0.1488
  147MOL0     C19740   2.699   8.911   0.816  0.3503 -0.6088 -0.0586
  147MOL0     O19741   2.577   8.965   0.832 -0.4753  0.3454  0.4016
  147MOL0     C19742   2.475   8.938   0.742  0.5987 -0.3690  1.1623
  147MOL0     C19743   2.494   8.913   0.599 -0.3296  0.5722 -0.4803
  147MOL0     C19744   2.380   8.920   0.510 -0.6942 -0.0404  0.4579
  147MOL0     C19745   2.252   8.944   0.556 -0.0202  0.3845 -0.0320
  147MOL0     O19746   2.146   8.974   0.472 -0.2471 -0.0403 -0.8757
  147MOL0     C19747   2.179   8.995   0.334  0.0791  0.0405 -0.7241
  147MOL0     C19748   2.054   8.989   0.251  0.8973  0.8455 -0.2240
  147MOL0     C19749   1.959   9.098   0.295  0.5302  1.0521  0.4020
  147MOL0     C19750   1.833   9.104   0.195 -0.1939 -0.6264 -0.5549
  147MOL0     C19751   1.754   9.232   0.231  0.4641 -0.1393 -0.1091
  147MOL0     C19752   1.618   9.259   0.151 -0.9713 -0.3259  0.3039
  147MOL0     C19753   1.499   9.170   0.178  1.0101  0.7996  0.5730
  147MOL0     C19754   1.373   9.225   0.112 -0.2044 -0.4903 -0.0138
  147MOL0    Cl19755   1.392   9.259  -0.063 -0.0785  0.3318  0.2624
  147MOL0     C19756   2.237   8.963   0.696  0.2678 -0.0232  0.6094
  147MOL0     C19757   2.347   8.967   0.781 -0.0038  0.7999 -0.6060
  147MOL0     O19758   2.733   8.836   0.724  0.2027  0.3612 -0.5193
  147MOL0     C19759   2.927   8.875   0.912 -0.1590  0.2231 -0.3554
  147MOL0     C19760   3.038   8.906   0.995 -0.4455  0.0559  0.2209
  147MOL0     N19761   3.819   9.065   1.126  0.3144  0.8977  0.8052
  147MOL0     N19762   3.942   9.060   1.092 -0.2007 -0.4015 -0.1999
  147MOL0     C19763   5.116   9.108   1.255  0.3202 -0.2998  0.3909
  147MOL0     C19764   5.244   9.165   1.286  0.3414  0.0452 -0.2086
  147MOL0     C19765   5.646   9.181   1.510  0.4890  0.6638 -0.1868
  147MOL0     C19766   5.659   9.320   1.499  0.1763 -0.9837  0.1565
  147MOL0     C19767   5.782   9.378   1.509 -0.9020  0.5061  1.0531
  147MOL0     C19768   5.892   9.303   1.551  0.1403  0.0684  0.1788
  147MOL0     O19769   6.021   9.351   1.561 -0.2069  0.2406  0.3865
  147MOL0     C19770   6.050   9.490   1.556 -0.8532 -0.8431 -0.0829
  147MOL0     C19771   6.204   9.522   1.540  0.6119 -0.0031  0.1004
  147MOL0     C19772   6.234   9.673   1.506  0.0553  0.1916 -0.4731
  147MOL0     C19773   6.387   9.683   1.506 -0.0820  0.0848  0.1741
  147MOL0     C19774   6.448   9.805   1.458 -0.2900  0.2378 -0.6023
  147MOL0     C19775   6.493   9.913   1.422  1.2487 -0.0302 -0.2240
  147MOL0     C19776   5.878   9.164   1.574 -0.7833 -0.6693 -0.3651
  147MOL0     C19777   5.758   9.100   1.549 -0.5042 -1.0926  0.9366
  147MOL0     H19778   5.263   9.078   1.608  0.3153  1.7004  0.2174
  147MOL0     H19779   5.028   9.010   1.551 -0.7468  1.3145  0.6350
  147MOL0     H19780   5.020   8.814   1.301 -0.8848 -0.2704 -1.4050
  147MOL0     H19781   4.885   8.812   1.419  2.1887  1.1012  1.4303
  147MOL0     H19782   4.862   8.876   1.118 -1.8049  1.2904  0.2515
  147MOL0     H19783   4.846   8.714   1.186  1.8408  0.3843 -0.8492
  147MOL0     H19784   4.637   8.783   1.309 -0.9731 -0.4126  0.4513
  147MOL0     H19785   4.677   8.956   1.294 -3.1154 -0.6393  1.9453
  147MOL0     H19786   4.608   8.967   1.071  0.6923  0.3724  1.2614
  147MOL0     H19787   4.589   8.787   1.051  0.9163 -0.7469  0.3399
  147MOL0     H19788   4.418   8.792   1.245 -0.6308  0.7616  0.9557
  147MOL0     H19789   4.420   8.970   1.222 -0.8372 -0.0406 -0.1824
  147MOL0     H19790   4.367   8.903   0.978 -1.3547 -0.5681 -0.6641
  147MOL0     H19791   4.336   8.745   1.027  1.6311  1.0460  0.4461
  147MOL0     H19792   4.162   8.793   1.182  2.9710 -1.4729  0.3958
  147MOL0     H19793   4.174   8.970   1.174  0.3049  0.9070 -1.4988
  147MOL0     H19794   4.098   8.805   0.940 -0.3461  0.0330  0.0554
  147MOL0     H19795   4.159   8.978   0.941  0.2403 -0.5700  0.4877
  147MOL0     H19796   3.850   8.760   0.994 -2.3407 -0.2395  0.4567
  147MOL0     H19797   3.596   8.843   1.025 -0.8713 -0.2275  0.9866
  147MOL0     H19798   3.608   8.821   1.195 -1.6498  1.8408  1.6585
  147MOL0     H19799   3.534   9.087   1.068 -2.0772 -0.7514 -1.8159
  147MOL0     H19800   3.536   9.054   1.239 -0.4115 -2.0111  2.1083
  147MOL0     H19801   3.340   8.917   1.220 -1.9080  2.8286  0.7760
  147MOL0     H19802   3.355   8.889   1.042  3.2248 -0.1446  0.3213
  147MOL0     H19803   3.242   9.089   1.008  1.6198  1.7425  0.5287
  147MOL0     H19804   3.305   9.156   1.168  3.1570  0.2235 -1.5513
  147MOL0     H19805   2.886   9.128   1.189 -0.4502  1.4002 -0.6798
  147MOL0     H19806   2.594   9.110   1.007 -1.0383 -1.0244 -0.3987
  147MOL0     H19807   2.613   8.987   1.137  3.3698 -1.1064 -0.4486
  147MOL0     H19808   2.662   9.161   1.153  0.9134  1.1900 -1.0782
  147MOL0     H19809   2.589   8.889   0.553 -1.2834  1.8396 -3.3632
  147MOL0     H19810   2.397   8.914   0.403  4.0790 -0.6068  1.0358
  147MOL0     H19811   2.220   9.095   0.324 -1.2406  0.5176 -1.6360
  147MOL0     H19812   2.239   8.916   0.288 -1.3655 -1.9142  0.5580
  147MOL0     H19813   2.068   8.996   0.142 -0.2408 -2.8190 -0.7427
  147MOL0     H19814   2.017   8.887   0.266  1.2537  0.7521  0.0359
  147MOL0     H19815   2.009   9.195   0.302 -0.3236  1.7194 -1.8209
  147MOL0     H19816   1.920   9.074   0.394  0.0761  3.4934  0.8832
  147MOL0     H19817   1.879   9.102   0.096  3.5479 -0.1478  0.9807
  147MOL0     H19818   1.778   9.011   0.203  1.1326 -1.4647 -0.8999
  147MOL0     H19819   1.824   9.315   0.222  1.0187 -0.3915  1.4446
  147MOL0     H19820   1.727   9.227   0.337  1.8868  1.0251  0.3493
  147MOL0     H19821   1.596   9.365   0.165  3.3919  1.5960 -4.3319
  147MOL0     H19822   1.641   9.247   0.045 -3.2600 -1.7902 -0.1055
  147MOL0     H19823   1.477   9.169   0.286 -0.0709  2.1164  0.3987
  147MOL0     H19824   1.527   9.070   0.145  3.1477  0.1845  3.7818
  147MOL0     H19825   1.344   9.321   0.156 -1.4839  0.1348 -2.0419
  147MOL0     H19826   1.294   9.151   0.128 -0.4226 -0.1340  0.5773
  147MOL0     H19827   2.138   8.987   0.735 -0.1083 -1.4335  0.5593
  147MOL0     H19828   2.332   8.978   0.888 -2.0264  0.0417 -0.7752
  147MOL0     H19829   2.960   8.801   0.840  0.2616  1.1596 -1.1631
  147MOL0     H19830   3.129   8.856   0.964 -1.7552 -2.1121 -0.2780
  147MOL0     H19831   5.071   9.135   1.160 -0.9591 -0.2479  0.9927
  147MOL0     H19832   5.303   9.227   1.219  2.5368 -1.0394  0.6266
  147MOL0     H19833   5.572   9.382   1.479  0.3966 -1.3238 -2.1171
  147MOL0     H19834   5.788   9.485   1.491  1.8157 -0.1194 -3.0241
  147MOL0     H19835   5.981   9.538   1.485 -0.1346 -3.1560 -2.4969
  147MOL0     H19836   6.034   9.529   1.657 -0.0278 -0.4329 -0.0985
  147MOL0     H19837   6.253   9.463   1.462  2.5136  2.0405 -0.3600
  147MOL0     H19838   6.261   9.490   1.628 -0.2036 -0.1466  0.5842
  147MOL0     H19839   6.189   9.738   1.582  3.5864  0.5577  1.5490
  147MOL0     H19840   6.203   9.695   1.404  1.9275  0.1145 -1.0894
  147MOL0     H19841   6.425   9.609   1.434  1.4710  1.6267 -0.6811
  147MOL0     H19842   6.425   9.656   1.605  0.0486  2.2738  0.7768
  147MOL0     H19843   6.514  10.009   1.379  3.0952  1.4361  3.4825
  147MOL0     H19844   5.946   9.091   1.618 -2.2956 -0.6491  2.2024
  147MOL0     H19845   5.749   8.993   1.533 -0.4501 -0.8590 -0.8931
  148MOL0     O19846   0.647   8.762   3.487 -0.6786  0.1483 -0.3212
  148MOL0     C19847   0.589   8.678   3.423  0.0813  0.5276 -0.5477
  148MOL0     O19848   0.586   8.549   3.459  0.5449 -0.2197  0.1225
  148MOL0     C19849   0.652   8.510   3.573  0.3705 -0.0962  0.3956
  148MOL0     C19850   0.699   8.378   3.571 -0.1279 -0.6018 -0.4732
  148MOL0     C19851   0.761   8.323   3.687 -0.6117 -0.0966  1.0573
  148MOL0     C19852   0.782   8.394   3.804 -0.2025 -0.8755 -0.2820
  148MOL0     O19853   0.823   8.322   3.915  0.1440  0.5086 -0.1766
  148MOL0     C19854   0.793   8.370   4.051  0.7345  0.4816 -0.0173
  148MOL0     C19855   0.824   8.255   4.153  0.0286 -0.0512 -0.0332
  148MOL0     C19856   0.747   8.266   4.284  0.3565  0.5896 -0.6215
  148MOL0     C19857   0.777   8.142   4.374  0.9005  0.4583 -0.1325
  148MOL0     C19858   0.654   8.054   4.354 -0.8247 -0.2732  0.4399
  148MOL0     C19859   0.670   7.961   4.482  0.2755  0.4769  0.0731
  148MOL0     C19860   0.557   7.854   4.492 -0.6292  0.5415 -0.5055
  148MOL0     C19861   0.578   7.766   4.621  0.2038 -0.1301  0.2900
  148MOL0     N19862   0.479   7.656   4.624 -0.5724 -0.0033 -0.1703
  148MOL0     C19863   0.508   7.531   4.572 -0.8677  0.1439 -0.7637
  148MOL0     C19864   0.397   7.462   4.597 -0.0363  0.1487  0.0577
  148MOL0     C19865   0.376   7.313   4.570  0.2107 -0.1460  0.1705
  148MOL0     C19866   0.336   7.298   4.426 -0.3641  0.1443  0.1265
  148MOL0     C19867   0.201   7.360   4.389 -0.7176  0.1508 -0.2468
  148MOL0     C19868   0.169   7.331   4.246 -1.0795  0.2208 -0.6463
  148MOL0     O19869   0.149   7.185   4.241  0.3150  0.3227  0.5040
  148MOL0     C19870   0.023   7.130   4.219  0.1270  0.6611  0.5147
  148MOL0     C19871  -0.095   7.200   4.243  0.5448  0.7324 -0.0176
  148MOL0     C19872  -0.217   7.152   4.212  0.2003  0.0817  0.4932
  148MOL0     C19873  -0.335   7.243   4.242  0.8991  0.3315 -0.0533
  148MOL0     C19874  -0.235   7.017   4.161 -0.2616  0.9551 -0.6876
  148MOL0     C19875  -0.366   6.956   4.123 -0.4046  0.0668 -0.1707
  148MOL0     O19876  -0.360   6.832   4.077 -0.3179 -0.6005  0.1248
  148MOL0     C19877  -0.487   6.774   4.070  0.1852  0.2103  1.2296
  148MOL0     C19878  -0.562   6.794   3.954  0.7280  0.2722 -0.2946
  148MOL0     C19879  -0.683   6.729   3.937  1.4186  0.8034 -0.3948
  148MOL0     C19880  -0.732   6.642   4.045 -0.4505  0.2551  0.2716
  148MOL0     O19881  -0.849   6.574   4.046  0.7437  0.4208  1.1336
  148MOL0     C19882  -0.964   6.634   3.993  0.2625  0.2824  0.3891
  148MOL0     C19883  -1.005   6.561   3.862  0.2965  0.4330  0.2638
  148MOL0     C19884  -1.060   6.419   3.886  0.1467 -0.5518 -0.0243
  148MOL0     C19885  -1.084   6.349   3.751 -0.4240  0.9825  0.0137
  148MOL0     C19886  -1.234   6.315   3.744 -0.6972 -0.0388 -0.1917
  148MOL0     C19887  -1.312   6.443   3.713 -0.2221 -0.1893  0.3159
  148MOL0     C19888  -1.468   6.430   3.710  0.0895  0.5558  0.2892
  148MOL0     C19889  -1.533   6.483   3.829 -0.7623  0.4439 -0.1023
  148MOL0    Cl19890  -1.695   6.412   3.864  0.1066  0.2194  0.2141
  148MOL0     C19891  -0.659   6.621   4.156  0.3242 -0.1160 -0.7566
  148MOL0     C19892  -0.531   6.689   4.165 -0.4772  0.4376  0.0449
  148MOL0     O19893  -0.470   7.029   4.116 -0.3446  0.2438 -0.0662
  148MOL0     C19894  -0.114   6.940   4.153  0.2297  0.5505 -0.2720
  148MOL0     C19895   0.010   6.997   4.180 -0.3706 -0.4156  0.2985
  148MOL0     N19896   0.303   7.534   4.667  0.9026  0.3577  0.1045
  148MOL0     N19897   0.356   7.656   4.681  0.8356 -0.0392 -0.1346
  148MOL0     C19898   0.747   8.531   3.799 -0.0434  0.6862  0.0672
  148MOL0     C19899   0.686   8.585   3.690  0.3041 -0.0510  0.5184
  148MOL0     C19900   0.517   8.720   3.304 -0.0876  0.7222  0.7867
  148MOL0     C19901   0.542   8.846   3.250  0.2020 -0.6188  0.1100
  148MOL0     C19902   0.470   8.893   3.139  0.0139  0.1817 -1.0691
  148MOL0     C19903   0.378   8.804   3.079 -0.1763 -0.4101 -0.0027
  148MOL0     O19904   0.293   8.846   2.982 -0.1054  0.6011  0.8439
  148MOL0     C19905   0.228   8.969   2.980  0.5537 -0.5149 -0.2152
  148MOL0     C19906   0.142   8.996   3.107 -0.6024 -0.6773 -0.2156
  148MOL0     C19907   0.034   8.898   3.116  0.2151 -0.1575 -0.4786
  148MOL0     C19908  -0.086   8.885   3.021  0.5943 -0.5279 -0.1884
  148MOL0     C19909  -0.181   8.994   3.042 -0.0422 -0.4776 -0.4028
  148MOL0     C19910  -0.245   9.090   3.055  0.3167 -0.8199 -0.6086
  148MOL0     C19911   0.341   8.682   3.141 -0.3048 -0.4216 -0.1357
  148MOL0     C19912   0.413   8.641   3.253  0.0813  0.3067  0.3374
  148MOL0     H19913   0.682   8.321   3.480  1.5804 -1.6717 -0.1637
  148MOL0     H19914   0.784   8.217   3.689 -2.0265 -0.4233  0.9036
  148MOL0     H19915   0.853   8.457   4.076  0.0907  0.8039  0.4532
  148MOL0     H19916   0.685   8.388   4.047  0.6614  0.5506  1.4714
  148MOL0     H19917   0.803   8.158   4.106 -3.0953  0.2535  0.4767
  148MOL0     H19918   0.931   8.255   4.173 -0.1880  0.5475  1.2600
  148MOL0     H19919   0.772   8.357   4.339  0.2785  0.4904 -0.4232
  148MOL0     H19920   0.641   8.270   4.258 -0.5434 -1.7811  2.1979
  148MOL0     H19921   0.870   8.089   4.352  1.0387  1.2554 -1.5754
  148MOL0     H19922   0.799   8.181   4.474  0.4307  3.7367 -1.1970
  148MOL0     H19923   0.551   8.090   4.362 -1.0386 -0.9780  1.0597
  148MOL0     H19924   0.663   8.002   4.259 -0.9792  3.4592 -1.8031
  148MOL0     H19925   0.767   7.912   4.465  0.0119 -0.0456  0.0346
  148MOL0     H19926   0.682   8.013   4.577  1.8476  0.6419 -0.1904
  148MOL0     H19927   0.461   7.907   4.490  0.6570  3.1552  1.3794
  148MOL0     H19928   0.560   7.800   4.397  0.3865 -1.2055  0.4765
  148MOL0     H19929   0.554   7.830   4.706 -2.5790  0.3575 -0.7726
  148MOL0     H19930   0.680   7.729   4.634  0.3123  0.0468 -0.0600
  148MOL0     H19931   0.602   7.499   4.528 -2.1048 -1.2964 -2.4672
  148MOL0     H19932   0.464   7.252   4.593  0.9750 -0.0208 -2.1208
  148MOL0     H19933   0.305   7.275   4.644 -0.9697 -1.3846 -1.5090
  148MOL0     H19934   0.339   7.190   4.409 -1.5781  0.0684  0.2719
  148MOL0     H19935   0.409   7.352   4.365 -0.5379  0.4992  0.2241
  148MOL0     H19936   0.200   7.468   4.405  1.7269 -0.0050  1.5623
  148MOL0     H19937   0.128   7.314   4.457 -1.7132  1.9795  0.0031
  148MOL0     H19938   0.256   7.348   4.182  0.4077 -0.7977  1.0071
  148MOL0     H19939   0.087   7.390   4.202 -2.4731 -1.2851 -0.1683
  148MOL0     H19940  -0.085   7.295   4.294  1.6978 -0.2741  1.7446
  148MOL0     H19941  -0.301   7.324   4.308  0.5636  0.2300  0.2488
  148MOL0     H19942  -0.379   7.272   4.146 -0.4307 -1.5950 -0.0653
  148MOL0     H19943  -0.410   7.194   4.304  0.9958 -1.2339 -1.1294
  148MOL0     H19944  -0.533   6.862   3.875  1.3967  2.2718  1.5902
  148MOL0     H19945  -0.744   6.744   3.848  0.5806  1.0473  0.2108
  148MOL0     H19946  -1.048   6.615   4.061 -0.4375 -1.8839 -0.9410
  148MOL0     H19947  -0.957   6.741   3.975  0.0677  0.1484 -0.5807
  148MOL0     H19948  -1.084   6.620   3.814 -0.2603 -1.6293 -1.5298
  148MOL0     H19949  -0.912   6.566   3.804  0.9424  0.2948  1.2787
  148MOL0     H19950  -1.142   6.426   3.958  0.1641  2.4047 -0.1638
  148MOL0     H19951  -0.984   6.353   3.928 -1.1879 -1.3984  1.1613
  148MOL0     H19952  -1.048   6.407   3.666 -1.1358  1.6299  0.1399
  148MOL0     H19953  -1.031   6.253   3.750 -1.9824  0.0558 -2.5752
  148MOL0     H19954  -1.267   6.278   3.841  1.4072  0.7147  0.8702
  148MOL0     H19955  -1.245   6.243   3.663  1.6711  1.1978 -1.7549
  148MOL0     H19956  -1.285   6.519   3.787 -2.1525 -1.2752  2.2733
  148MOL0     H19957  -1.285   6.469   3.611 -1.4219 -1.3367 -0.3267
  148MOL0     H19958  -1.485   6.323   3.691  1.2471  0.0839  1.6979
  148MOL0     H19959  -1.505   6.493   3.629 -0.4753 -1.9784 -1.5550
  148MOL0     H19960  -1.524   6.592   3.829 -0.5364  0.4918 -2.8568
  148MOL0     H19961  -1.467   6.450   3.910  0.8797  0.5723 -1.3314
  148MOL0     H19962  -0.695   6.561   4.239 -1.4812  1.5936 -0.2500
  148MOL0     H19963  -0.465   6.676   4.250 -1.8952  3.9320  1.8844
  148MOL0     H19964  -0.116   6.836   4.122 -0.9888  0.4217  0.1811
  148MOL0     H19965   0.105   6.943   4.177  0.3435  0.7069  1.4077
  148MOL0     H19966   0.765   8.592   3.887 -0.1765 -0.2294  0.7415
  148MOL0     H19967   0.665   8.691   3.702  1.3540  0.0813  1.3179
  148MOL0     H19968   0.615   8.907   3.301 -2.1701  0.4906  2.4177
  148MOL0     H19969   0.478   8.997   3.111 -2.3421  0.8901  0.5659
  148MOL0     H19970   0.298   9.050   2.958 -0.5858  0.6708  0.3789
  148MOL0     H19971   0.166   8.987   2.892  0.3513  0.7933  0.1760
  148MOL0     H19972   0.112   9.101   3.107 -0.4002 -0.5512 -2.5833
  148MOL0     H19973   0.208   8.998   3.194  0.1435  1.0739 -0.7728
  148MOL0     H19974  -0.005   8.913   3.218  1.0659  0.5018 -0.2354
  148MOL0     H19975   0.084   8.801   3.126  1.2635  0.3679 -0.4223
  148MOL0     H19976  -0.153   8.800   3.035 -2.8879  2.1794  1.2911
  148MOL0     H19977  -0.052   8.884   2.917  0.5282  1.9716 -0.3084
  148MOL0     H19978  -0.319   9.168   3.055  1.0586 -0.0897  0.3587
  148MOL0     H19979   0.262   8.621   3.098 -0.5865  0.6009 -1.1117
  148MOL0     H19980   0.386   8.551   3.307 -0.5607  0.4385  0.2349
  149MOL0     O19981   8.173   2.947   9.170  0.1600  0.0657 -0.1428
  149MOL0     C19982   8.195   2.824   9.184 -0.6289 -0.4336  0.2535
  149MOL0     O19983   8.104   2.723   9.167  0.0218 -0.0310  0.2830
  149MOL0     C19984   7.966   2.764   9.170 -0.5862 -0.4119  0.2195
  149MOL0     C19985   7.900   2.798   9.295  0.1702  0.0774  0.2810
  149MOL0     C19986   7.767   2.832   9.282  0.0007  0.4673  0.6312
  149MOL0     C19987   7.698   2.840   9.165  0.5442  0.3245 -0.1122
  149MOL0     O19988   7.568   2.872   9.177 -0.6434  0.8290 -0.2270
  149MOL0     C19989   7.483   2.757   9.177  0.2639  0.1805 -0.4910
  149MOL0     C19990   7.361   2.807   9.254  0.5943  0.0900  0.0615
  149MOL0     C19991   7.249   2.704   9.240  0.3442 -0.0997  0.1022
  149MOL0     C19992   7.116   2.775   9.286  0.4122  0.5600  0.4394
  149MOL0     C19993   7.000   2.681   9.300  0.5284  0.4291  0.3242
  149MOL0     C19994   6.870   2.750   9.359 -0.4757  0.2678  0.4132
  149MOL0     C19995   6.773   2.637   9.392 -0.1940 -0.4340 -0.5848
  149MOL0     C19996   6.670   2.684   9.495  0.4156  0.5070 -0.3365
  149MOL0     N19997   6.574   2.782   9.441 -0.3370  0.5303  0.0310
  149MOL0     C19998   6.521   2.881   9.511  0.1817 -1.0368  0.0743
  149MOL0     C19999   6.455   2.959   9.430  0.2508 -0.0067  0.2095
  149MOL0     C20000   6.387   3.095   9.456  0.0888  0.1261 -0.3392
  149MOL0     C20001   6.250   3.071   9.518 -0.3859  0.0675  0.1500
  149MOL0     C20002   6.161   2.978   9.441  0.5158  0.7894  0.0828
  149MOL0     C20003   6.128   3.042   9.308  0.4250  0.3314  0.9157
  149MOL0     O20004   6.060   2.948   9.217 -1.2555  0.3309  0.1960
  149MOL0     C20005   5.928   2.982   9.200  0.3530 -0.3020  0.2592
  149MOL0     C20006   5.891   3.043   9.075  0.2990  0.1554  0.0198
  149MOL0     C20007   5.772   3.111   9.057 -0.1285  0.9650 -0.1521
  149MOL0     C20008   5.753   3.192   8.931  0.0632  0.8329  0.9798
  149MOL0     C20009   5.673   3.105   9.162  0.4295  0.3163  0.6989
  149MOL0     C20010   5.539   3.176   9.159  1.3895 -0.0115  0.8961
  149MOL0     O20011   5.458   3.156   9.273 -0.1641  0.1760 -0.0412
  149MOL0     C20012   5.330   3.204   9.275  0.7080 -0.0419  0.6583
  149MOL0     C20013   5.233   3.173   9.178 -0.0713 -0.5522 -1.4339
  149MOL0     C20014   5.113   3.231   9.193  0.1865 -1.0024 -0.6015
  149MOL0     C20015   5.074   3.323   9.287  0.2365 -0.0987  0.8373
  149MOL0     O20016   4.945   3.373   9.278  0.2089  0.5255  0.1320
  149MOL0     C20017   4.902   3.452   9.393  0.5571 -0.2877 -0.1253
  149MOL0     C20018   4.757   3.487   9.375  0.1374 -0.7893 -0.3410
  149MOL0     C20019   4.699   3.572   9.484  0.1052  0.6586  0.5854
  149MOL0     C20020   4.562   3.611   9.444 -0.4738 -0.0012 -0.1369
  149MOL0     C20021   4.483   3.673   9.552 -1.2671  0.0171  0.0045
  149MOL0     C20022   4.417   3.564   9.634 -0.7294 -0.3045  0.1035
  149MOL0     C20023   4.302   3.626   9.714  0.0990  0.4181 -1.1989
  149MOL0     C20024   4.172   3.629   9.628  0.0096 -0.2672 -0.5081
  149MOL0    Cl20025   4.037   3.643   9.743  0.0362  0.2595 -0.4221
  149MOL0     C20026   5.179   3.364   9.375 -0.1302 -0.2679  0.4145
  149MOL0     C20027   5.303   3.303   9.370 -0.4120 -0.2161  0.0997
  149MOL0     O20028   5.500   3.227   9.051  0.4549 -1.2418 -0.2236
  149MOL0     C20029   5.701   3.035   9.278 -0.0047 -0.5267 -0.4766
  149MOL0     C20030   5.831   2.977   9.301 -0.2540 -0.5708  0.4699
  149MOL0     N20031   6.461   2.909   9.307 -0.0263  0.3596  0.6742
  149MOL0     N20032   6.517   2.795   9.315  0.7784  0.6644  0.3084
  149MOL0     C20033   7.762   2.810   9.048  0.5839  0.0031  0.1835
  149MOL0     C20034   7.893   2.768   9.046  0.1796 -0.1883 -0.7301
  149MOL0     C20035   8.336   2.786   9.223  0.8617  0.9026  0.2504
  149MOL0     C20036   8.435   2.879   9.240 -0.4786  0.1243  0.8308
  149MOL0     C20037   8.571   2.848   9.262  0.7484  0.0378 -0.9017
  149MOL0     C20038   8.603   2.711   9.287 -0.3025 -0.3061 -0.4930
  149MOL0     O20039   8.730   2.666   9.312  0.8322 -0.0060 -0.5260
  149MOL0     C20040   8.787   2.741   9.418 -0.1322 -0.2046 -0.5372
  149MOL0     C20041   8.859   2.638   9.508  0.7837 -1.2470 -0.3225
  149MOL0     C20042   8.953   2.542   9.432  0.7341 -0.0502  0.2297
  149MOL0     C20043   9.028   2.455   9.531  0.4424  0.3021  0.7013
  149MOL0     C20044   9.156   2.511   9.582 -0.2887 -0.4361 -1.6229
  149MOL0     C20045   9.260   2.558   9.624  0.0790 -0.8267  0.2369
  149MOL0     C20046   8.502   2.612   9.286  0.6489 -0.3745  0.3166
  149MOL0     C20047   8.369   2.654   9.253  0.1050 -0.8052  0.2578
  149MOL0     H20048   7.964   2.803   9.382  0.9159  0.3700 -0.2712
  149MOL0     H20049   7.717   2.868   9.372 -0.2605 -0.9528  1.0843
  149MOL0     H20050   7.456   2.739   9.073  0.0468 -1.0507 -0.2437
  149MOL0     H20051   7.524   2.665   9.220  0.5250 -0.1062 -1.3335
  149MOL0     H20052   7.382   2.828   9.359  0.2436 -3.6384  1.0109
  149MOL0     H20053   7.324   2.898   9.207 -0.5225 -0.5153 -0.2644
  149MOL0     H20054   7.232   2.683   9.133 -0.0107  0.7062 -0.0057
  149MOL0     H20055   7.279   2.612   9.291  0.4020  0.0279  0.2964
  149MOL0     H20056   7.132   2.827   9.381  0.1790  2.2077 -0.3796
  149MOL0     H20057   7.085   2.861   9.226 -2.2573  1.0952  2.3674
  149MOL0     H20058   6.967   2.642   9.202  1.1556 -0.0418  0.2984
  149MOL0     H20059   7.026   2.601   9.369 -0.0144  0.6976  0.8462
  149MOL0     H20060   6.886   2.818   9.444 -0.2988  3.5432 -2.0193
  149MOL0     H20061   6.835   2.831   9.294  0.7755  0.2057 -0.3692
  149MOL0     H20062   6.723   2.604   9.301  3.6135 -0.2016 -2.9434
  149MOL0     H20063   6.824   2.562   9.452  1.7667  0.2472 -1.3351
  149MOL0     H20064   6.711   2.713   9.592  1.8347 -1.6601 -0.2067
  149MOL0     H20065   6.605   2.600   9.522 -0.0448  1.3096  1.1438
  149MOL0     H20066   6.557   2.915   9.608 -4.0808  0.9018  1.2399
  149MOL0     H20067   6.436   3.155   9.534 -2.5581  1.0372  0.7425
  149MOL0     H20068   6.392   3.149   9.362  0.7510 -0.0337 -0.4016
  149MOL0     H20069   6.199   3.168   9.522 -1.7974 -0.3117 -3.9563
  149MOL0     H20070   6.269   3.034   9.619  1.5712  0.0384 -0.1942
  149MOL0     H20071   6.067   2.984   9.496  0.4475  2.7067 -0.1932
  149MOL0     H20072   6.200   2.876   9.427 -0.7956  0.2737  0.0292
  149MOL0     H20073   6.212   3.075   9.245  0.0774 -0.2662  0.1133
  149MOL0     H20074   6.063   3.128   9.325 -0.1792  0.6719 -2.3823
  149MOL0     H20075   5.975   3.043   9.006 -0.0683  0.2120 -0.4335
  149MOL0     H20076   5.737   3.296   8.962  2.9451  2.7056 -2.9758
  149MOL0     H20077   5.840   3.194   8.865 -0.6866 -0.2922 -0.0999
  149MOL0     H20078   5.673   3.149   8.869  0.0399 -0.3750  1.8114
  149MOL0     H20079   5.249   3.113   9.089  2.0462 -1.2785 -0.6248
  149MOL0     H20080   5.035   3.232   9.118 -3.3798  3.3087  2.5605
  149MOL0     H20081   4.922   3.400   9.487 -0.1124  1.0479  0.7782
  149MOL0     H20082   4.960   3.545   9.389 -1.3859  1.0576  1.4651
  149MOL0     H20083   4.747   3.545   9.282  0.8139  2.9304  1.7054
  149MOL0     H20084   4.697   3.396   9.374 -1.4007  0.1689  0.3994
  149MOL0     H20085   4.756   3.664   9.502  0.6252  0.0875  2.0449
  149MOL0     H20086   4.704   3.511   9.575 -0.5721  0.2226  0.3355
  149MOL0     H20087   4.565   3.679   9.358 -1.1865 -2.0460 -1.8765
  149MOL0     H20088   4.505   3.528   9.401  0.9064 -0.6124 -0.8642
  149MOL0     H20089   4.397   3.727   9.511 -1.2574 -0.6763 -0.9666
  149MOL0     H20090   4.543   3.733   9.621 -0.4800  1.1737 -1.6338
  149MOL0     H20091   4.370   3.485   9.574 -1.8675 -0.6906  1.4596
  149MOL0     H20092   4.481   3.521   9.711  0.6385 -0.4707 -1.0700
  149MOL0     H20093   4.322   3.731   9.735  1.1294  0.3586 -1.8181
  149MOL0     H20094   4.283   3.564   9.802  0.1340  1.4137 -0.4733
  149MOL0     H20095   4.157   3.535   9.574  0.5332 -0.4086 -0.4136
  149MOL0     H20096   4.155   3.702   9.549 -4.1759 -2.2564 -1.7569
  149MOL0     H20097   5.166   3.454   9.434 -1.8276  0.8468 -1.5512
  149MOL0     H20098   5.384   3.322   9.440 -0.6041 -0.3347  0.3514
  149MOL0     H20099   5.627   3.031   9.357 -0.5359 -1.5496 -1.0117
  149MOL0     H20100   5.866   2.925   9.388  2.0736 -0.5358 -0.3825
  149MOL0     H20101   7.697   2.820   8.961  2.6539  0.8956 -1.3282
  149MOL0     H20102   7.939   2.738   8.952 -0.0284 -0.2940 -0.7990
  149MOL0     H20103   8.410   2.982   9.214 -1.0647 -0.8424 -3.1572
  149MOL0     H20104   8.646   2.925   9.255  0.0381  0.6776 -1.7063
  149MOL0     H20105   8.861   2.800   9.364 -2.8126  2.9966 -1.0096
  149MOL0     H20106   8.719   2.804   9.476 -0.1145 -2.2153  1.8510
  149MOL0     H20107   8.785   2.579   9.563  1.9242  0.0745  2.8879
  149MOL0     H20108   8.924   2.682   9.585  1.2296 -1.2645 -0.6877
  149MOL0     H20109   9.036   2.591   9.380  0.0582  1.7698  0.7939
  149MOL0     H20110   8.890   2.483   9.365  2.9563 -1.1686 -1.0075
  149MOL0     H20111   9.061   2.362   9.484 -2.0544 -0.0423 -0.5195
  149MOL0     H20112   8.964   2.442   9.619  0.5830 -0.5633  0.6794
  149MOL0     H20113   9.356   2.593   9.656  0.6218 -1.1888 -0.9413
  149MOL0     H20114   8.521   2.507   9.306 -2.2529 -0.6436  2.4273
  149MOL0     H20115   8.294   2.576   9.240  2.1274 -2.8456  0.2665
  150MOL0     O20116   7.769   3.462   0.430  1.1746  0.4835 -0.4650
  150MOL0     C20117   7.751   3.566   0.367 -0.1859  0.1097 -0.7066
  150MOL0     O20118   7.632   3.618   0.330 -0.6872  0.3223  0.3280
  150MOL0     C20119   7.516   3.559   0.362  0.1071  0.5050 -0.5582
  150MOL0     C20120   7.471   3.553   0.503 -0.7023 -0.1081 -0.3995
  150MOL0     C20121   7.338   3.521   0.523 -0.2086 -0.5170  0.6346
  150MOL0     C20122   7.250   3.482   0.417  0.8558 -0.1921 -0.6767
  150MOL0     O20123   7.122   3.443   0.435 -0.1016  0.4502  0.7798
  150MOL0     C20124   7.094   3.335   0.523  0.1148 -0.3683 -0.4871
  150MOL0     C20125   6.951   3.285   0.488 -0.6470 -0.1803  0.4802
  150MOL0     C20126   6.920   3.225   0.355 -0.7864  0.3750  0.1325
  150MOL0     C20127   6.982   3.086   0.341  0.0682 -0.3294  0.3493
  150MOL0     C20128   6.953   3.020   0.206  0.3336  0.0808 -0.1334
  150MOL0     C20129   7.013   3.098   0.078  0.0405 -0.1837  0.8389
  150MOL0     C20130   6.986   3.010  -0.047  0.2930 -0.4243 -0.0903
  150MOL0     C20131   7.112   2.944  -0.083 -0.2699 -0.3656 -0.0417
  150MOL0     N20132   7.084   2.850  -0.188  0.5568  0.2076 -0.2403
  150MOL0     C20133   7.065   2.876  -0.317  0.0681 -0.5003  0.5628
  150MOL0     C20134   7.020   2.769  -0.378 -0.6479  0.1865 -0.9480
  150MOL0     C20135   6.995   2.736  -0.524 -0.8685 -0.6741  0.5180
  150MOL0     C20136   6.933   2.854  -0.605 -0.4230  0.1953 -0.4526
  150MOL0     C20137   6.781   2.845  -0.627 -0.6097  0.4065 -0.7476
  150MOL0     C20138   6.697   2.881  -0.504 -0.5244 -0.3516 -0.6067
  150MOL0     O20139   6.584   2.952  -0.556 -0.2154 -0.3311  0.4532
  150MOL0     C20140   6.462   2.906  -0.521 -0.5035  1.4822  0.1858
  150MOL0     C20141   6.359   2.865  -0.615 -0.1941  0.5142  0.1819
  150MOL0     C20142   6.225   2.832  -0.572  0.2200  0.3393  0.0719
  150MOL0     C20143   6.124   2.807  -0.680  0.1143  0.0081 -0.4563
  150MOL0     C20144   6.199   2.835  -0.425  0.2655  0.2849  0.2788
  150MOL0     C20145   6.063   2.796  -0.371  0.2247 -0.4750  0.3250
  150MOL0     O20146   6.029   2.845  -0.249 -0.5372  0.2810 -0.5171
  150MOL0     C20147   5.900   2.832  -0.191 -0.0095 -0.2255  0.3278
  150MOL0     C20148   5.881   2.850  -0.057  0.1562  0.3787  0.3294
  150MOL0     C20149   5.756   2.841   0.003 -0.2948 -0.4199  0.2005
  150MOL0     C20150   5.639   2.822  -0.073  0.4159 -0.3501 -0.5768
  150MOL0     O20151   5.519   2.825  -0.002 -0.1218  0.4969  0.3550
  150MOL0     C20152   5.395   2.832  -0.088  0.3437 -0.0294  0.2714
  150MOL0     C20153   5.280   2.850   0.004  0.5462  0.0399  0.6516
  150MOL0     C20154   5.154   2.901  -0.070 -0.0187 -0.7334 -0.4548
  150MOL0     C20155   5.027   2.926   0.017  0.2662 -1.0165  0.3218
  150MOL0     C20156   4.906   2.971  -0.071 -0.2834  0.0692  0.2895
  150MOL0     C20157   4.787   2.964   0.021  0.6007 -0.1683  0.1610
  150MOL0     C20158   4.664   3.002  -0.068  0.4895  1.2074  1.1606
  150MOL0     C20159   4.545   3.053  -0.003  0.5374  0.6056 -0.9686
  150MOL0    Cl20160   4.437   3.113  -0.126 -0.3198 -0.2443  0.0933
  150MOL0     C20161   5.655   2.818  -0.209  0.1312 -1.5699 -0.1778
  150MOL0     C20162   5.780   2.823  -0.269  0.7143  0.1789  0.7216
  150MOL0     O20163   5.989   2.728  -0.444  0.3521 -0.3883  0.4029
  150MOL0     C20164   6.309   2.874  -0.336  1.0039 -0.0804  0.4284
  150MOL0     C20165   6.435   2.904  -0.388  0.1254  0.5053 -0.4231
  150MOL0     N20166   7.001   2.675  -0.270  0.5175 -0.6374  0.2243
  150MOL0     N20167   7.045   2.719  -0.162  0.3712  1.2852 -0.3183
  150MOL0     C20168   7.295   3.485   0.290 -0.0459  0.1301 -0.4526
  150MOL0     C20169   7.426   3.519   0.258 -0.0543  0.0597 -0.1792
  150MOL0     C20170   7.869   3.642   0.324  0.2707 -0.0833  0.2697
  150MOL0     C20171   7.997   3.597   0.348  0.2299  0.2919  0.6219
  150MOL0     C20172   8.094   3.688   0.322 -0.7632  0.8605 -0.0412
  150MOL0     C20173   8.074   3.818   0.266 -0.3609  0.4842 -1.0625
  150MOL0     O20174   8.177   3.903   0.228 -0.7072 -0.6736  0.0483
  150MOL0     C20175   8.314   3.860   0.224 -0.2944  0.4456  0.3185
  150MOL0     C20176   8.391   3.946   0.126 -0.4988 -0.1927 -1.5431
  150MOL0     C20177   8.337   3.909  -0.011  0.8351 -0.0188 -0.3295
  150MOL0     C20178   8.408   3.972  -0.124  0.2612 -0.3369 -0.2995
  150MOL0     C20179   8.368   4.111  -0.156 -0.0148  0.8593  0.0643
  150MOL0     C20180   8.329   4.214  -0.187 -0.4825  0.2089 -0.1622
  150MOL0     C20181   7.943   3.856   0.228  0.1350  0.2093  0.6374
  150MOL0     C20182   7.841   3.767   0.262  0.4326  0.1119 -0.1467
  150MOL0     H20183   7.530   3.594   0.584  1.2601  1.9138 -2.6645
  150MOL0     H20184   7.295   3.525   0.623  1.1724 -0.1780  1.2368
  150MOL0     H20185   7.167   3.255   0.509 -0.3722 -0.8899 -0.0765
  150MOL0     H20186   7.106   3.384   0.620  2.1772  1.7337 -1.7052
  150MOL0     H20187   6.940   3.212   0.569 -1.7629 -0.9533 -0.3364
  150MOL0     H20188   6.879   3.367   0.498 -0.5188  0.5397 -3.0807
  150MOL0     H20189   6.811   3.215   0.351 -0.6392 -1.7738  0.4606
  150MOL0     H20190   6.954   3.293   0.276 -1.3346  1.1568  0.5479
  150MOL0     H20191   7.090   3.085   0.357  0.1199  0.2647  0.0719
  150MOL0     H20192   6.944   3.021   0.421  1.2080  0.0074  1.1804
  150MOL0     H20193   6.989   2.917   0.206 -0.8782 -0.3844 -1.6603
  150MOL0     H20194   6.845   3.016   0.192  0.3870  1.0597 -0.9762
  150MOL0     H20195   6.962   3.193   0.064 -1.0159 -1.1990 -4.3110
  150MOL0     H20196   7.118   3.125   0.089  0.3012 -0.4008 -0.8611
  150MOL0     H20197   6.900   2.944  -0.041  0.6457 -0.9831 -1.0214
  150MOL0     H20198   6.968   3.079  -0.130  2.2712 -1.2450 -1.2705
  150MOL0     H20199   7.136   2.889   0.009 -3.2154 -0.9537  0.4647
  150MOL0     H20200   7.193   3.011  -0.114  0.5881 -0.5411  1.6864
  150MOL0     H20201   7.096   2.964  -0.373 -1.4982 -1.8603 -2.7020
  150MOL0     H20202   7.077   2.692  -0.582 -0.7840  1.0216 -0.7349
  150MOL0     H20203   6.921   2.656  -0.517  1.3980 -3.0951 -1.1973
  150MOL0     H20204   6.978   2.864  -0.704 -0.3021  5.2969 -0.1483
  150MOL0     H20205   6.967   2.946  -0.557  2.5177 -1.4688  0.9623
  150MOL0     H20206   6.757   2.745  -0.662  1.2205 -0.0528 -0.7923
  150MOL0     H20207   6.757   2.912  -0.710 -3.7331  0.8410  0.3533
  150MOL0     H20208   6.762   2.942  -0.441  3.3962 -1.3883 -3.3022
  150MOL0     H20209   6.672   2.789  -0.450 -2.6238  0.6556  0.2773
  150MOL0     H20210   6.390   2.866  -0.719  2.2940  0.5438  0.8614
  150MOL0     H20211   6.089   2.704  -0.684  0.5800 -0.1229 -2.7272
  150MOL0     H20212   6.037   2.871  -0.659 -1.4108 -1.6786 -1.4045
  150MOL0     H20213   6.162   2.841  -0.777  0.4146 -3.1682 -1.5474
  150MOL0     H20214   5.960   2.877   0.013 -0.1228 -0.6762  1.0772
  150MOL0     H20215   5.761   2.847   0.111  3.3052  0.1449  0.1170
  150MOL0     H20216   5.412   2.919  -0.153  3.1051  1.7974  3.1364
  150MOL0     H20217   5.364   2.745  -0.147 -0.0274  0.9471 -1.0221
  150MOL0     H20218   5.261   2.747   0.035 -0.9101 -0.0478 -0.4412
  150MOL0     H20219   5.302   2.914   0.090 -0.2574  1.3161 -0.0714
  150MOL0     H20220   5.131   2.822  -0.142 -1.3458 -0.3092 -0.5146
  150MOL0     H20221   5.173   2.998  -0.116 -2.0111 -0.5686 -1.0226
  150MOL0     H20222   4.998   2.832   0.065  1.9788 -2.1787 -0.8350
  150MOL0     H20223   5.054   2.999   0.094 -1.5547 -2.5628  2.5811
  150MOL0     H20224   4.907   2.902  -0.156  1.2010 -0.5081  0.7371
  150MOL0     H20225   4.917   3.074  -0.107 -0.2607 -0.5372 -1.5478
  150MOL0     H20226   4.768   2.863   0.061  2.0745 -0.1354  1.0362
  150MOL0     H20227   4.792   3.038   0.101 -2.8455  0.8116 -0.3891
  150MOL0     H20228   4.623   2.915  -0.120 -0.1612  1.4757  1.2135
  150MOL0     H20229   4.694   3.071  -0.149 -1.6840 -0.1802 -0.9594
  150MOL0     H20230   4.570   3.126   0.075  3.9081 -2.5021  1.2068
  150MOL0     H20231   4.510   2.964   0.049 -1.0016  2.2617  1.0141
  150MOL0     H20232   5.567   2.817  -0.272 -0.9513 -1.5196  1.2798
  150MOL0     H20233   5.797   2.829  -0.376  0.7264  1.3840  0.7840
  150MOL0     H20234   6.294   2.871  -0.228  2.7319  1.7549  0.7775
  150MOL0     H20235   6.505   2.926  -0.308 -0.1769 -0.9222  0.2698
  150MOL0     H20236   7.220   3.467   0.214 -1.8059 -1.8213  1.6090
  150MOL0     H20237   7.453   3.508   0.153  2.8949 -2.2608  0.6634
  150MOL0     H20238   8.033   3.511   0.402  1.2380  1.0529  1.2074
  150MOL0     H20239   8.196   3.657   0.342 -1.0870  1.6146  3.5554
  150MOL0     H20240   8.352   3.844   0.326 -0.5280  0.9118  0.4827
  150MOL0     H20241   8.310   3.763   0.174 -1.4017  0.7876 -0.2880
  150MOL0     H20242   8.499   3.933   0.138 -0.1708  3.7425  2.5745
  150MOL0     H20243   8.386   4.052   0.153  2.5131 -1.0244  3.7568
  150MOL0     H20244   8.232   3.936  -0.025  0.9203  0.5720  0.1417
  150MOL0     H20245   8.345   3.801  -0.028  0.6945  0.0570 -0.8895
  150MOL0     H20246   8.404   3.909  -0.213  2.4088 -0.4088 -0.3859
  150MOL0     H20247   8.516   3.969  -0.107  0.0093  0.2853  1.7861
  150MOL0     H20248   8.289   4.311  -0.210  0.6928 -0.0221 -4.0045
  150MOL0     H20249   7.928   3.958   0.195  2.7427  0.3159 -0.4671
  150MOL0     H20250   7.741   3.808   0.250  1.1270  1.1421 -3.1396
  151MOL0     O20251   4.119   5.422   2.664 -0.0844 -0.8181  0.1294
  151MOL0     C20252   4.111   5.406   2.545 -0.4758 -0.3832 -0.5861
  151MOL0     O20253   3.997   5.388   2.473  0.5112  0.2098  0.1794
  151MOL0     C20254   3.879   5.406   2.532  0.1170 -0.6921  0.2861
  151MOL0     C20255   3.821   5.535   2.518  0.4277  0.2720  0.3436
  151MOL0     C20256   3.687   5.551   2.573 -0.6249  0.1709 -0.1389
  151MOL0     C20257   3.616   5.442   2.627  0.0234 -0.8512 -0.2609
  151MOL0     O20258   3.491   5.479   2.669 -0.6439 -0.1464 -0.1527
  151MOL0     C20259   3.427   5.391   2.763  0.5596 -0.1065 -0.5982
  151MOL0     C20260   3.290   5.459   2.796  0.3842  0.7705 -0.3311
  151MOL0     C20261   3.195   5.365   2.889 -0.0984 -0.3250  0.5272
  151MOL0     C20262   3.085   5.446   2.956  0.1524 -0.5083  0.1523
  151MOL0     C20263   3.020   5.389   3.084 -0.6357 -0.6993 -0.5124
  151MOL0     C20264   2.932   5.264   3.067 -0.4350 -0.3344  0.1865
  151MOL0     C20265   2.928   5.174   3.197  0.9639 -0.5932 -0.3376
  151MOL0     C20266   2.805   5.092   3.216 -0.3717 -0.7814  0.3147
  151MOL0     N20267   2.776   5.019   3.095  0.2359 -0.1321 -0.4474
  151MOL0     C20268   2.857   4.917   3.051  0.2084 -0.0456  0.1656
  151MOL0     C20269   2.822   4.900   2.923  0.4744  0.0230  0.4905
  151MOL0     C20270   2.866   4.792   2.827 -0.1173  0.0426 -0.3489
  151MOL0     C20271   2.836   4.645   2.869  0.1265 -0.2937 -0.4978
  151MOL0     C20272   2.688   4.615   2.895 -0.4076  0.1504 -0.2944
  151MOL0     C20273   2.596   4.667   2.781 -0.4342  0.3097 -0.3171
  151MOL0     O20274   2.462   4.621   2.796  0.1598  0.4566 -0.4092
  151MOL0     C20275   2.370   4.666   2.886 -0.4231 -0.2746 -0.1980
  151MOL0     C20276   2.377   4.773   2.973 -0.5619  0.2109  0.6327
  151MOL0     C20277   2.268   4.815   3.044 -0.2017 -0.3997 -0.8915
  151MOL0     C20278   2.295   4.928   3.137 -0.1611 -0.6702 -0.4417
  151MOL0     C20279   2.147   4.745   3.041 -0.2131 -0.2316 -0.4739
  151MOL0     C20280   2.027   4.773   3.133  0.4019 -1.2479 -1.2701
  151MOL0     O20281   2.041   4.849   3.251  0.2282 -0.6119 -0.2628
  151MOL0     C20282   1.933   4.895   3.328 -0.0491  0.6744  0.1765
  151MOL0     C20283   1.915   4.863   3.458  0.7991 -0.3320 -0.0496
  151MOL0     C20284   1.805   4.919   3.526 -0.3135 -0.8102 -0.6724
  151MOL0     C20285   1.723   5.017   3.469 -0.0636 -0.0874  0.4382
  151MOL0     O20286   1.615   5.061   3.544 -0.5020 -0.5211  0.1403
  151MOL0     C20287   1.547   5.184   3.495 -0.4502  0.2350  0.0104
  151MOL0     C20288   1.445   5.225   3.606  0.3805 -0.3334  0.3435
  151MOL0     C20289   1.378   5.352   3.572  0.5885 -0.4369 -0.0613
  151MOL0     C20290   1.278   5.331   3.461 -0.5461  0.5468 -0.7272
  151MOL0     C20291   1.233   5.464   3.412 -0.6344  0.1831  0.6607
  151MOL0     C20292   1.136   5.453   3.287  0.3068  0.4575  0.0812
  151MOL0     C20293   1.008   5.367   3.319  0.1429  0.7028  0.3281
  151MOL0     C20294   0.905   5.378   3.199  0.1100  0.1536  0.3958
  151MOL0    Cl20295   0.847   5.555   3.168 -0.0301  0.5192  0.0264
  151MOL0     C20296   1.737   5.047   3.334 -0.3127 -0.6839 -0.3395
  151MOL0     C20297   1.847   4.986   3.270  0.7387  0.0864 -0.3943
  151MOL0     O20298   1.922   4.711   3.099  0.0867 -0.1497 -0.6605
  151MOL0     C20299   2.141   4.639   2.948 -0.2220 -0.7042  0.3017
  151MOL0     C20300   2.253   4.597   2.873  0.5669 -0.5379  0.1379
  151MOL0     N20301   2.738   4.993   2.883  0.0163 -0.4837 -0.3810
  151MOL0     N20302   2.703   5.062   2.987  0.5171  0.4981  0.0951
  151MOL0     C20303   3.679   5.317   2.643  0.3654  0.2269  0.3960
  151MOL0     C20304   3.812   5.306   2.600  0.4515 -0.2870  0.1051
  151MOL0     C20305   4.239   5.406   2.480 -0.6323 -0.2737  0.6214
  151MOL0     C20306   4.250   5.340   2.353 -0.4005 -0.6564  0.0729
  151MOL0     C20307   4.368   5.341   2.280  0.1294  0.1054  0.3548
  151MOL0     C20308   4.479   5.414   2.324 -0.0088  0.0395 -0.2488
  151MOL0     O20309   4.607   5.402   2.279  0.0571 -0.1406  0.5436
  151MOL0     C20310   4.647   5.288   2.201 -0.4910 -0.6695 -0.0147
  151MOL0     C20311   4.787   5.286   2.162  0.0954 -0.5183  0.9674
  151MOL0     C20312   4.816   5.383   2.043  0.9379  0.2375 -0.4927
  151MOL0     C20313   4.965   5.413   2.036 -0.2257  0.4086 -0.0809
  151MOL0     C20314   5.007   5.511   2.138 -0.1555  0.0580  0.0514
  151MOL0     C20315   5.062   5.570   2.229  0.5458  0.5513  0.9002
  151MOL0     C20316   4.470   5.477   2.450 -0.9382 -0.5379  1.0508
  151MOL0     C20317   4.352   5.477   2.530 -0.1065 -0.0862 -0.2863
  151MOL0     H20318   3.872   5.616   2.467 -1.3705  1.8307  0.8669
  151MOL0     H20319   3.642   5.650   2.567 -1.8488 -0.4637 -3.1167
  151MOL0     H20320   3.412   5.299   2.707 -1.4910  1.9932 -3.8268
  151MOL0     H20321   3.490   5.372   2.850 -0.5911  0.8356  0.4828
  151MOL0     H20322   3.306   5.551   2.853  1.8086 -1.1370  2.6238
  151MOL0     H20323   3.235   5.479   2.704  1.3287 -2.4446 -1.7395
  151MOL0     H20324   3.150   5.280   2.839  1.8544 -0.6688 -0.7573
  151MOL0     H20325   3.264   5.325   2.964  3.5930  0.5905 -2.0720
  151MOL0     H20326   3.124   5.543   2.987  0.9386 -1.0351  0.8508
  151MOL0     H20327   3.011   5.474   2.880 -0.7685 -0.2317  1.1257
  151MOL0     H20328   3.109   5.365   3.143  0.9162 -0.7749 -2.7909
  151MOL0     H20329   2.952   5.453   3.141  0.9747 -0.9300  1.8083
  151MOL0     H20330   2.830   5.290   3.038 -1.7392 -3.5472  1.5337
  151MOL0     H20331   2.981   5.204   2.989  0.1991 -0.9744  1.0623
  151MOL0     H20332   3.014   5.108   3.210 -0.2996 -1.9463  1.6311
  151MOL0     H20333   2.917   5.228   3.291 -2.1063  0.2219 -1.0562
  151MOL0     H20334   2.718   5.148   3.252 -1.0515 -1.5942 -0.0550
  151MOL0     H20335   2.820   5.022   3.299  0.2178  1.1461  1.9355
  151MOL0     H20336   2.935   4.860   3.101  1.4638  2.6183  1.4679
  151MOL0     H20337   2.822   4.815   2.729 -0.5174 -0.0904 -0.2015
  151MOL0     H20338   2.973   4.797   2.805  0.1663  2.5190  1.1076
  151MOL0     H20339   2.892   4.613   2.957 -3.3923 -2.5146  1.1333
  151MOL0     H20340   2.858   4.582   2.782 -0.3031 -0.8513 -0.2082
  151MOL0     H20341   2.661   4.653   2.994 -1.5197 -0.2963 -0.4098
  151MOL0     H20342   2.678   4.507   2.913 -0.5094  0.0248 -1.0742
  151MOL0     H20343   2.620   4.628   2.682 -2.4592 -3.5998  0.5089
  151MOL0     H20344   2.599   4.776   2.778  1.7330  0.2583 -1.7068
  151MOL0     H20345   2.465   4.835   2.988 -0.1020 -0.1093 -0.6051
  151MOL0     H20346   2.384   4.985   3.110 -0.2256  0.9611  2.3172
  151MOL0     H20347   2.214   5.002   3.135  1.1084  0.7625 -1.9361
  151MOL0     H20348   2.309   4.875   3.232 -0.8640 -0.1059 -0.0077
  151MOL0     H20349   1.978   4.795   3.515  1.4912  2.3858  2.6838
  151MOL0     H20350   1.791   4.900   3.632  1.9389  0.2381 -0.1327
  151MOL0     H20351   1.618   5.263   3.471 -2.6396  2.7348  1.3046
  151MOL0     H20352   1.500   5.155   3.400  0.9999 -1.1776 -0.3291
  151MOL0     H20353   1.374   5.142   3.613  0.6364 -0.5283  0.6400
  151MOL0     H20354   1.483   5.235   3.708  0.1755 -0.1948  0.4088
  151MOL0     H20355   1.443   5.436   3.545 -1.5638  1.3284  0.0279
  151MOL0     H20356   1.335   5.375   3.670  1.5176 -0.7618  0.4423
  151MOL0     H20357   1.322   5.274   3.378 -2.0092 -0.7317 -0.6580
  151MOL0     H20358   1.196   5.268   3.495  0.6957  1.4734  4.8767
  151MOL0     H20359   1.313   5.528   3.374 -2.5431  1.6119 -1.2435
  151MOL0     H20360   1.174   5.513   3.490 -1.6856 -1.1549  0.7371
  151MOL0     H20361   1.100   5.551   3.254 -4.0500 -1.8108 -2.8739
  151MOL0     H20362   1.190   5.394   3.212 -2.5020 -2.1412 -0.0777
  151MOL0     H20363   0.957   5.394   3.412 -3.0474 -0.0588 -1.0642
  151MOL0     H20364   1.047   5.265   3.326 -0.0053  0.5155 -1.2220
  151MOL0     H20365   0.814   5.321   3.222  0.5235 -1.5559 -1.8010
  151MOL0     H20366   0.948   5.343   3.104 -2.8461 -1.1831 -0.5692
  151MOL0     H20367   1.676   5.121   3.283 -1.1453 -0.1337  1.3723
  151MOL0     H20368   1.870   5.018   3.169 -0.5824  2.0857 -0.1136
  151MOL0     H20369   2.048   4.589   2.922 -1.6187  2.4319 -1.2358
  151MOL0     H20370   2.254   4.510   2.808  3.2158 -2.6240  2.6954
  151MOL0     H20371   3.647   5.220   2.679  4.9214 -1.2390  1.1727
  151MOL0     H20372   3.860   5.210   2.612  2.0813  0.4977  0.0635
  151MOL0     H20373   4.170   5.277   2.315  1.0808 -2.7942  0.2798
  151MOL0     H20374   4.375   5.298   2.181 -3.5666 -0.3827  0.1716
  151MOL0     H20375   4.640   5.205   2.272 -0.0627 -0.5434  0.1747
  151MOL0     H20376   4.587   5.272   2.110 -0.6044  1.4301 -0.3534
  151MOL0     H20377   4.809   5.182   2.135 -5.2191 -1.7222 -0.0220
  151MOL0     H20378   4.842   5.319   2.250  1.8143  1.0942 -0.6132
  151MOL0     H20379   4.764   5.479   2.048  1.2191  0.3458  0.3660
  151MOL0     H20380   4.781   5.329   1.953  0.2856 -1.7897  0.8961
  151MOL0     H20381   4.994   5.458   1.940  0.1344 -1.4086 -0.8781
  151MOL0     H20382   5.020   5.318   2.041 -1.2165 -0.2584 -1.2637
  151MOL0     H20383   5.112   5.608   2.316  2.0098 -2.0456  1.2773
  151MOL0     H20384   4.559   5.534   2.478  0.4956 -0.6238 -2.8165
  151MOL0     H20385   4.345   5.533   2.623 -2.6385  1.1040 -1.1054
  152MOL0     O20386   4.365   8.111  10.814  0.5990 -0.1398  0.1297
  152MOL0     C20387   4.392   8.117  10.935 -0.1668 -0.4026 -0.4041
  152MOL0     O20388   4.301   8.137  11.033  0.6602 -0.1529  0.5532
  152MOL0     C20389   4.163   8.155  11.019 -0.0989  0.3504 -0.0734
  152MOL0     C20390   4.092   8.147  11.137  0.1086 -0.7081  0.5395
  152MOL0     C20391   3.953   8.150  11.130  0.1638  0.4845 -0.7467
  152MOL0     C20392   3.871   8.159  11.011 -1.1342 -1.0626  0.7299
  152MOL0     O20393   3.738   8.143  11.024 -0.0971 -0.3852  0.5644
  152MOL0     C20394   3.675   8.174  10.895  0.2657  0.9427  0.0327
  152MOL0     C20395   3.529   8.150  10.905  0.0267 -0.2455  0.2401
  152MOL0     C20396   3.469   8.156  10.760  0.0900 -0.2048  0.2011
  152MOL0     C20397   3.317   8.178  10.752  0.3820  0.6430  0.7229
  152MOL0     C20398   3.274   8.101  10.627  0.1054  0.5611 -0.0982
  152MOL0     C20399   3.126   8.127  10.573 -0.5866 -0.4030  0.1799
  152MOL0     C20400   3.117   8.273  10.525 -0.5977 -0.9928 -0.3106
  152MOL0     C20401   3.095   8.290  10.373  0.0702 -0.0692  0.3685
  152MOL0     N20402   2.966   8.238  10.321  0.6025 -0.2944 -0.0081
  152MOL0     C20403   2.862   8.326  10.324  0.8433  0.4604  0.2291
  152MOL0     C20404   2.759   8.237  10.290 -0.8939 -0.5772  0.1887
  152MOL0     C20405   2.628   8.285  10.228 -0.4271  0.5245 -0.0590
  152MOL0     C20406   2.500   8.254  10.316  0.2497 -0.3408 -0.0704
  152MOL0     C20407   2.380   8.284  10.231  0.2978 -0.2349 -0.0495
  152MOL0     C20408   2.247   8.247  10.303 -1.1571 -0.6456 -0.0626
  152MOL0     O20409   2.139   8.308  10.236  0.4703 -1.0594 -0.0999
  152MOL0     C20410   2.011   8.289  10.283 -1.0404 -0.2368 -0.3285
  152MOL0     C20411   1.968   8.224  10.404 -0.1627 -0.5761 -0.4488
  152MOL0     C20412   1.832   8.210  10.443  0.3024 -0.0153 -1.0209
  152MOL0     C20413   1.797   8.148  10.578 -0.4232 -0.5257  0.2623
  152MOL0     C20414   1.736   8.273  10.356 -0.1889 -0.1026 -0.2560
  152MOL0     C20415   1.587   8.280  10.384 -0.3822  0.3424 -1.0108
  152MOL0     O20416   1.508   8.310  10.283  0.3132 -0.1143 -0.6818
  152MOL0     C20417   1.369   8.290  10.293 -0.9279  0.4429 -0.2206
  152MOL0     C20418   1.282   8.362  10.375  0.1230  0.0010  0.2412
  152MOL0     C20419   1.148   8.337  10.375  0.4568 -0.3762 -0.7081
  152MOL0     C20420   1.085   8.247  10.291  0.1795 -0.0846 -0.6151
  152MOL0     O20421   0.951   8.226  10.284  0.1282 -0.4220  0.0414
  152MOL0     C20422   0.867   8.253  10.390  0.4055  0.2527 -0.1109
  152MOL0     C20423   0.730   8.187  10.359 -0.3016 -0.2053 -0.5975
  152MOL0     C20424   0.740   8.029  10.367  0.1297 -0.3238 -0.2409
  152MOL0     C20425   0.611   7.964  10.304 -0.0982 -0.2028  0.3844
  152MOL0     C20426   0.486   7.990  10.390  0.2128 -0.6914 -0.3114
  152MOL0     C20427   0.359   7.899  10.353  0.0985 -0.7991  0.4952
  152MOL0     C20428   0.226   7.947  10.398 -0.8318  0.3030 -0.3853
  152MOL0     C20429   0.112   7.868  10.328  0.1594 -0.1790  0.9796
  152MOL0    Cl20430  -0.053   7.916  10.385  0.2121 -0.1044  0.4973
  152MOL0     C20431   1.173   8.181  10.201 -0.5775 -0.0036  0.3285
  152MOL0     C20432   1.311   8.193  10.213 -1.1158  0.3950  0.9413
  152MOL0     O20433   1.554   8.288  10.505  1.1239  0.0615 -0.2531
  152MOL0     C20434   1.780   8.346  10.244  0.5919  0.4934  0.4896
  152MOL0     C20435   1.919   8.345  10.208 -0.2481  0.0715 -0.3659
  152MOL0     N20436   2.809   8.112  10.280 -0.4703 -0.6001 -0.3786
  152MOL0     N20437   2.938   8.105  10.298  0.3135 -0.1747  0.1781
  152MOL0     C20438   3.949   8.186  10.895  0.5060  0.0499 -0.7544
  152MOL0     C20439   4.088   8.178  10.899  0.0246  0.0316  0.0640
  152MOL0     C20440   4.536   8.108  10.976 -0.5442 -0.5925 -0.3924
  152MOL0     C20441   4.643   8.087  10.882  1.0987 -0.0611 -0.5664
  152MOL0     C20442   4.773   8.093  10.933 -0.0901  0.4466  0.1615
  152MOL0     C20443   4.809   8.122  11.063  0.6491 -0.2413  0.0265
  152MOL0     O20444   4.937   8.143  11.096  0.4865  0.0423 -0.3020
  152MOL0     C20445   4.987   8.128  11.229 -1.2652 -0.5466 -0.8587
  152MOL0     C20446   4.962   7.993  11.286 -0.4412  0.6281 -0.5561
  152MOL0     C20447   5.015   7.878  11.195 -0.0779  0.6622 -0.8623
  152MOL0     C20448   5.156   7.835  11.233 -0.0442 -0.3009 -0.0559
  152MOL0     C20449   5.160   7.746  11.355 -0.1223 -1.1528 -0.1772
  152MOL0     C20450   5.142   7.685  11.459 -0.1042  0.0925 -0.2754
  152MOL0     C20451   4.699   8.145  11.153  0.0247  0.0985  0.8553
  152MOL0     C20452   4.566   8.136  11.116 -0.5535 -0.1093  0.2215
  152MOL0     H20453   4.137   8.138  11.235  0.5347 -2.0017  0.2462
  152MOL0     H20454   3.900   8.135  11.224  0.7558  0.1677 -0.4613
  152MOL0     H20455   3.695   8.279  10.871  1.3388  0.4218 -1.4923
  152MOL0     H20456   3.706   8.113  10.810 -3.2214 -0.3618 -0.4832
  152MOL0     H20457   3.511   8.049  10.943  1.5557 -1.4072 -1.8930
  152MOL0     H20458   3.488   8.225  10.974 -0.0498 -0.0279 -0.0398
  152MOL0     H20459   3.524   8.236  10.708  1.3356  0.5728  2.5638
  152MOL0     H20460   3.495   8.065  10.705  2.0025 -1.0370  2.3284
  152MOL0     H20461   3.267   8.159  10.848  1.7046  1.4627  1.6132
  152MOL0     H20462   3.285   8.281  10.731 -0.6810  0.2115  0.1292
  152MOL0     H20463   3.348   8.120  10.549  1.7748  0.2388  1.3606
  152MOL0     H20464   3.275   7.995  10.656 -0.8830  0.8968  1.2483
  152MOL0     H20465   3.108   8.059  10.489 -1.7015 -2.4075  1.9371
  152MOL0     H20466   3.056   8.101  10.653 -2.3250  1.3823 -0.6817
  152MOL0     H20467   3.030   8.318  10.575  1.2200  1.8655  0.5368
  152MOL0     H20468   3.208   8.328  10.551 -1.1877 -0.7361  1.3355
  152MOL0     H20469   3.183   8.242  10.328  0.5520  2.3538 -1.5541
  152MOL0     H20470   3.109   8.396  10.346  3.0273 -1.2254 -3.6527
  152MOL0     H20471   2.859   8.433  10.312 -2.6548  0.5321  0.7255
  152MOL0     H20472   2.627   8.393  10.211 -0.6990  0.5131 -0.1116
  152MOL0     H20473   2.622   8.235  10.131 -2.6319 -0.4663  0.5452
  152MOL0     H20474   2.505   8.324  10.400  3.0916 -0.5391  0.0356
  152MOL0     H20475   2.502   8.152  10.354  2.9700 -0.3489 -0.0177
  152MOL0     H20476   2.377   8.224  10.139  0.6378  0.2143 -0.3580
  152MOL0     H20477   2.387   8.386  10.194  1.5831 -0.1723  0.3293
  152MOL0     H20478   2.256   8.275  10.408  2.9974 -0.2894 -0.3697
  152MOL0     H20479   2.234   8.141  10.280 -1.8232 -0.0743 -2.7500
  152MOL0     H20480   2.042   8.187  10.473 -0.5157  0.6320  0.6119
  152MOL0     H20481   1.892   8.104  10.609  0.5399  0.0677 -1.6256
  152MOL0     H20482   1.762   8.224  10.648  2.5055  0.0610  1.2499
  152MOL0     H20483   1.721   8.070  10.571 -0.2756 -0.6558  0.1068
  152MOL0     H20484   1.322   8.439  10.441 -1.0199 -0.8817  2.0672
  152MOL0     H20485   1.088   8.403  10.437  1.7515  1.3398 -1.1714
  152MOL0     H20486   0.899   8.209  10.485  0.5098 -0.2333 -0.3674
  152MOL0     H20487   0.858   8.362  10.395 -0.2719  0.2089 -0.3895
  152MOL0     H20488   0.659   8.222  10.436  1.3827 -0.1231  0.9890
  152MOL0     H20489   0.703   8.230  10.262  0.6340 -1.1610 -1.2974
  152MOL0     H20490   0.745   7.989  10.468 -1.7285 -1.8892 -0.7194
  152MOL0     H20491   0.829   7.996  10.312 -1.5682 -2.2006 -2.0399
  152MOL0     H20492   0.592   8.003  10.203  0.3999 -0.2912  0.2541
  152MOL0     H20493   0.625   7.855  10.304 -3.3443 -0.8909 -3.7277
  152MOL0     H20494   0.443   8.089  10.375  0.2587 -0.9408 -2.4048
  152MOL0     H20495   0.516   7.968  10.493  0.5336 -0.0709 -0.2625
  152MOL0     H20496   0.356   7.895  10.244  2.1115  1.6994  0.2460
  152MOL0     H20497   0.383   7.804  10.401 -0.3912 -1.2529 -0.1560
  152MOL0     H20498   0.208   8.054  10.380 -1.2341  0.7075  2.0100
  152MOL0     H20499   0.215   7.931  10.506 -3.2445  1.0431 -0.4510
  152MOL0     H20500   0.138   7.765  10.353 -0.8464 -0.6802  0.0313
  152MOL0     H20501   0.130   7.877  10.220 -0.4064 -1.9726  0.7051
  152MOL0     H20502   1.124   8.116  10.130 -4.5728 -1.2207  3.7852
  152MOL0     H20503   1.371   8.140  10.139 -1.4491  1.2392  0.0496
  152MOL0     H20504   1.708   8.385  10.173 -0.5681 -3.5453 -0.8522
  152MOL0     H20505   1.947   8.394  10.115  0.3231  2.8144  1.1453
  152MOL0     H20506   3.902   8.192  10.797 -2.6695 -3.9189  0.2112
  152MOL0     H20507   4.141   8.209  10.810 -0.4163  0.2456 -0.1316
  152MOL0     H20508   4.628   8.066  10.776 -1.8372  1.0696 -0.4515
  152MOL0     H20509   4.856   8.080  10.864 -0.4920  2.3817 -0.7680
  152MOL0     H20510   5.094   8.151  11.220 -1.5059 -0.1040 -3.1532
  152MOL0     H20511   4.958   8.217  11.284 -1.9305 -0.8482 -0.7147
  152MOL0     H20512   4.855   7.983  11.308  0.2496  0.1729  3.3489
  152MOL0     H20513   5.006   7.975  11.384 -2.5663  1.2189  0.5751
  152MOL0     H20514   5.017   7.905  11.089 -1.4180 -0.2730 -1.1537
  152MOL0     H20515   4.945   7.796  11.213 -0.7000  1.4107  0.2640
  152MOL0     H20516   5.221   7.922  11.241 -0.0786  0.0100 -2.4307
  152MOL0     H20517   5.202   7.774  11.154  2.9996  0.5485  0.9428
  152MOL0     H20518   5.141   7.624  11.547  1.2642 -0.3162 -0.5331
  152MOL0     H20519   4.720   8.172  11.256 -3.2548  0.0209  1.6468
  152MOL0     H20520   4.485   8.159  11.183 -0.3109 -2.2371  1.3229
  153MOL0     O20521   1.486   5.566   2.626  0.5519 -0.0682 -0.6365
  153MOL0     C20522   1.505   5.448   2.605  0.3835  0.2712 -0.5935
  153MOL0     O20523   1.435   5.373   2.516 -0.1819 -0.2888  0.5721
  153MOL0     C20524   1.346   5.430   2.428 -0.1672  0.8292  0.0922
  153MOL0     C20525   1.209   5.393   2.433 -0.3018 -0.7789 -0.9620
  153MOL0     C20526   1.115   5.462   2.346  0.2245 -0.3981 -0.0192
  153MOL0     C20527   1.159   5.566   2.265 -0.3323 -0.3329 -0.2835
  153MOL0     O20528   1.066   5.653   2.217 -0.2339  0.0418  0.3005
  153MOL0     C20529   0.997   5.609   2.104 -0.1719  0.4311 -0.0361
  153MOL0     C20530   0.973   5.718   2.006 -0.0291  0.9500 -0.0586
  153MOL0     C20531   1.095   5.777   1.938  0.5700  0.2149  0.2523
  153MOL0     C20532   1.041   5.874   1.835  0.0085 -1.2499  0.0377
  153MOL0     C20533   1.148   5.940   1.754  0.7746 -0.1595 -0.1155
  153MOL0     C20534   1.097   6.040   1.652  0.2838 -0.3778  0.0548
  153MOL0     C20535   1.203   6.135   1.593 -0.6067 -0.2635 -0.2439
  153MOL0     C20536   1.315   6.070   1.507 -0.0753 -0.0507  0.0732
  153MOL0     N20537   1.255   5.988   1.398 -0.8506  0.2174 -0.0413
  153MOL0     C20538   1.183   6.043   1.294 -0.0173 -0.1541  0.7678
  153MOL0     C20539   1.148   5.931   1.223  0.0236  0.6340  0.2586
  153MOL0     C20540   1.050   5.945   1.109 -0.4934 -0.0086  0.0972
  153MOL0     C20541   0.914   6.002   1.146  0.2652 -0.4040  0.5819
  153MOL0     C20542   0.801   5.990   1.036  0.8537 -0.5009  0.1189
  153MOL0     C20543   0.821   6.092   0.920  0.7029 -0.6526 -1.1698
  153MOL0     O20544   0.729   6.060   0.816 -0.2855  0.6246  0.2670
  153MOL0     C20545   0.602   6.099   0.828  0.3160  0.2349  0.7973
  153MOL0     C20546   0.541   6.169   0.932 -1.2134  0.0258 -0.4129
  153MOL0     C20547   0.404   6.195   0.929  0.2613 -0.2706 -0.3120
  153MOL0     C20548   0.352   6.269   1.047  0.0820  0.6021  0.0251
  153MOL0     C20549   0.323   6.150   0.821 -0.5055 -0.1193  0.1873
  153MOL0     C20550   0.172   6.168   0.814 -0.1322  0.2885 -1.1918
  153MOL0     O20551   0.122   6.282   0.870 -0.0726 -0.6069 -0.0164
  153MOL0     C20552  -0.011   6.299   0.853  0.0940 -0.0605 -0.0148
  153MOL0     C20553  -0.106   6.274   0.949  0.6829 -0.2551 -0.3891
  153MOL0     C20554  -0.240   6.292   0.912 -0.4581  0.8391 -0.4317
  153MOL0     C20555  -0.282   6.343   0.793  0.1626 -0.0165  0.1747
  153MOL0     O20556  -0.419   6.355   0.764  0.0630  0.1349 -0.5338
  153MOL0     C20557  -0.462   6.429   0.647  0.4953  0.1704  0.1237
  153MOL0     C20558  -0.615   6.430   0.645  1.0612  0.2737  0.4200
  153MOL0     C20559  -0.676   6.526   0.746 -0.3894 -0.3688 -0.9409
  153MOL0     C20560  -0.825   6.526   0.744  0.3000  0.1535 -0.4630
  153MOL0     C20561  -0.881   6.624   0.637  0.6715 -0.6084  0.3472
  153MOL0     C20562  -1.034   6.647   0.657  0.0948 -0.7043  0.0315
  153MOL0     C20563  -1.094   6.726   0.541  0.1616 -0.0055 -0.2775
  153MOL0     C20564  -1.244   6.750   0.573  0.5684 -0.6564  0.9169
  153MOL0    Cl20565  -1.319   6.584   0.589  0.0731 -0.2765 -0.0825
  153MOL0     C20566  -0.183   6.370   0.692  0.3107 -0.1418 -0.2920
  153MOL0     C20567  -0.047   6.350   0.722 -0.1573  0.1699 -0.3109
  153MOL0     O20568   0.103   6.077   0.770 -0.3104 -0.4447  0.2585
  153MOL0     C20569   0.378   6.067   0.717 -0.3866  0.3090 -0.0521
  153MOL0     C20570   0.515   6.037   0.728 -0.4211  0.3536 -0.9323
  153MOL0     N20571   1.208   5.821   1.283  0.6835 -0.5603 -0.3268
  153MOL0     N20572   1.261   5.851   1.393  0.0855 -0.5962 -0.1981
  153MOL0     C20573   1.292   5.605   2.255 -0.0414  0.2263  0.3045
  153MOL0     C20574   1.387   5.531   2.332  0.1275  0.0807 -0.5608
  153MOL0     C20575   1.611   5.387   2.682 -1.4372  0.5767  0.1666
  153MOL0     C20576   1.715   5.456   2.744 -0.3670  0.4735  0.5483
  153MOL0     C20577   1.820   5.388   2.820 -0.1012 -0.3998  0.2805
  153MOL0     C20578   1.821   5.249   2.820  0.0716 -0.0145  0.0440
  153MOL0     O20579   1.916   5.193   2.909 -0.1637 -0.3359  0.8094
  153MOL0     C20580   2.013   5.100   2.851  0.4767 -0.6029 -0.8544
  153MOL0     C20581   2.152   5.161   2.846  0.0940  0.7114  0.6407
  153MOL0     C20582   2.243   5.057   2.766 -0.7749  0.2336  0.4127
  153MOL0     C20583   2.396   5.083   2.771  0.1689  0.3199  0.1786
  153MOL0     C20584   2.439   5.196   2.679 -0.2026 -0.7889 -0.4802
  153MOL0     C20585   2.456   5.286   2.600  0.9253 -0.5210  0.1027
  153MOL0     C20586   1.716   5.182   2.752  0.4260 -0.0330 -0.1180
  153MOL0     C20587   1.618   5.248   2.684 -0.2221 -0.5808 -0.6382
  153MOL0     H20588   1.166   5.321   2.503 -0.3302  1.3242  1.3230
  153MOL0     H20589   1.011   5.431   2.352  0.2904 -0.3779  1.7711
  153MOL0     H20590   1.031   5.521   2.048 -1.0905  0.8242 -1.2545
  153MOL0     H20591   0.899   5.583   2.147  0.5661 -0.7557  1.0012
  153MOL0     H20592   0.914   5.669   1.928  1.1499 -0.4399 -0.1291
  153MOL0     H20593   0.902   5.791   2.045 -1.9989 -0.7004 -0.3699
  153MOL0     H20594   1.148   5.832   2.016  2.3714  0.2521 -0.9495
  153MOL0     H20595   1.150   5.690   1.900 -2.6611 -1.0950 -1.8777
  153MOL0     H20596   0.961   5.823   1.781 -1.2582  0.3679  0.2912
  153MOL0     H20597   0.989   5.952   1.892  0.2762 -1.5510  0.7020
  153MOL0     H20598   1.228   5.996   1.803  0.6016  1.2372 -1.3673
  153MOL0     H20599   1.188   5.863   1.688  0.9888  0.2224 -0.4282
  153MOL0     H20600   1.049   5.997   1.564 -0.5915 -0.3505  0.5150
  153MOL0     H20601   1.022   6.104   1.699  0.7580  1.9044 -2.0262
  153MOL0     H20602   1.140   6.195   1.526 -0.4502 -1.9347 -1.9891
  153MOL0     H20603   1.248   6.190   1.676  0.1932  2.3095 -2.2446
  153MOL0     H20604   1.383   6.022   1.579 -0.4679  1.2547  1.3638
  153MOL0     H20605   1.377   6.152   1.470 -0.9438  0.9093  0.6779
  153MOL0     H20606   1.158   6.146   1.269  2.1773 -0.1569 -1.9446
  153MOL0     H20607   1.099   6.010   1.036  0.0300 -0.8978 -0.3613
  153MOL0     H20608   1.028   5.849   1.061  0.5419 -1.3783  2.2273
  153MOL0     H20609   0.920   6.102   1.189 -1.2258 -0.4331  0.9154
  153MOL0     H20610   0.875   5.940   1.227 -0.2529  0.0791  0.7127
  153MOL0     H20611   0.702   6.013   1.076  0.1337  1.0405 -2.3209
  153MOL0     H20612   0.796   5.886   1.003  1.0074 -0.6278  0.4904
  153MOL0     H20613   0.928   6.084   0.897  1.4191  3.5547 -0.2328
  153MOL0     H20614   0.816   6.194   0.959  0.9292 -1.1460  0.2093
  153MOL0     H20615   0.607   6.196   1.014 -4.4345 -1.7162  3.0725
  153MOL0     H20616   0.265   6.219   1.090 -0.0920 -0.7563 -1.7613
  153MOL0     H20617   0.421   6.265   1.132 -0.1899 -1.8836  0.2100
  153MOL0     H20618   0.324   6.370   1.016 -0.4549  0.1006 -1.1989
  153MOL0     H20619  -0.066   6.254   1.048  0.2517  1.8505  0.2551
  153MOL0     H20620  -0.317   6.268   0.986  0.9465 -0.9444  0.5579
  153MOL0     H20621  -0.438   6.536   0.646  0.0545  0.2957  1.4031
  153MOL0     H20622  -0.432   6.374   0.557  0.7043  0.1250  0.2224
  153MOL0     H20623  -0.641   6.461   0.543  1.4149 -2.6054 -0.6428
  153MOL0     H20624  -0.648   6.326   0.651 -1.4859  0.9202 -0.7931
  153MOL0     H20625  -0.633   6.626   0.740  0.0068 -0.2668  2.2705
  153MOL0     H20626  -0.646   6.489   0.844 -1.7375 -2.1612 -1.1579
  153MOL0     H20627  -0.873   6.429   0.726 -1.4551  0.3762  2.4359
  153MOL0     H20628  -0.853   6.567   0.841  0.0517  1.2274 -0.9705
  153MOL0     H20629  -0.857   6.588   0.537  4.5975 -1.6709  1.4934
  153MOL0     H20630  -0.829   6.720   0.637  1.3517 -0.9717  0.5313
  153MOL0     H20631  -1.088   6.552   0.669 -0.9173  0.1562  3.4100
  153MOL0     H20632  -1.049   6.702   0.751  0.3129  1.8617 -1.3493
  153MOL0     H20633  -1.087   6.663   0.452  0.3085  1.3492 -1.2550
  153MOL0     H20634  -1.045   6.822   0.520 -2.3642  1.2165 -1.0066
  153MOL0     H20635  -1.294   6.791   0.485  0.3091 -0.6020  1.0914
  153MOL0     H20636  -1.266   6.823   0.651 -0.3141 -0.6450  0.6687
  153MOL0     H20637  -0.209   6.411   0.595 -1.5353 -1.2222 -0.3016
  153MOL0     H20638   0.026   6.362   0.643  0.9849 -2.0575  0.3323
  153MOL0     H20639   0.320   6.026   0.635  0.2277 -0.6546 -0.0147
  153MOL0     H20640   0.561   5.971   0.655  0.4633 -1.8991  1.4913
  153MOL0     H20641   1.312   5.682   2.181 -1.2289  1.6474  1.4061
  153MOL0     H20642   1.491   5.561   2.341 -0.3692  1.6280  0.2734
  153MOL0     H20643   1.708   5.564   2.738 -2.2609  0.3749  0.3305
  153MOL0     H20644   1.889   5.451   2.875 -0.8897  1.4728 -0.7961
  153MOL0     H20645   2.021   5.013   2.917 -0.9999  0.1878  0.3934
  153MOL0     H20646   1.999   5.089   2.743  3.3301  1.5317 -1.5773
  153MOL0     H20647   2.187   5.182   2.947 -0.6820  2.1721  0.6274
  153MOL0     H20648   2.150   5.262   2.805  2.1348  0.8940  0.8714
  153MOL0     H20649   2.213   5.055   2.661 -0.1788 -1.3519  0.2549
  153MOL0     H20650   2.215   4.961   2.808 -1.5322  1.4619  2.9003
  153MOL0     H20651   2.446   4.988   2.751 -2.8050 -0.9884 -1.7826
  153MOL0     H20652   2.433   5.118   2.868  2.1852 -1.0927 -0.0185
  153MOL0     H20653   2.470   5.354   2.519  2.7231  0.5970  1.2735
  153MOL0     H20654   1.690   5.077   2.758 -1.6644  0.4887  0.6389
  153MOL0     H20655   1.549   5.180   2.634  1.1822 -3.3545  0.9078
  154MOL0     O20656   1.332  11.160  10.422 -0.5491 -1.3010  0.3214
  154MOL0     C20657   1.353  11.276  10.382  0.3870 -0.0859  0.3448
  154MOL0     O20658   1.295  11.387  10.428 -0.1383 -0.5059 -0.5873
  154MOL0     C20659   1.179  11.393  10.499  0.7123  0.1702 -0.2962
  154MOL0     C20660   1.158  11.515  10.577  0.1730 -0.6105  0.2233
  154MOL0     C20661   1.033  11.531  10.631 -0.1756 -0.6952  0.1260
  154MOL0     C20662   0.931  11.438  10.630 -0.4898 -0.7039  0.7077
  154MOL0     O20663   0.810  11.472  10.689  0.2275  0.5606 -0.5859
  154MOL0     C20664   0.704  11.375  10.673  0.0170  0.2518 -0.3775
  154MOL0     C20665   0.582  11.410  10.761 -0.4084 -0.6411  0.9162
  154MOL0     C20666   0.510  11.535  10.729  0.4923  0.2033  0.7514
  154MOL0     C20667   0.414  11.518  10.606  0.1057 -0.0731  0.3565
  154MOL0     C20668   0.371  11.660  10.553 -0.1246 -0.3055  0.0866
  154MOL0     C20669   0.267  11.648  10.433 -1.1015 -0.3132 -0.6321
  154MOL0     C20670   0.237  11.791  10.394  0.2492 -0.0986 -0.6292
  154MOL0     C20671   0.157  11.801  10.257  0.0225  0.0195  0.2732
  154MOL0     N20672   0.015  11.763  10.268  0.3540  0.3330  0.0658
  154MOL0     C20673  -0.108  11.836  10.290 -0.1388 -0.4428  0.3100
  154MOL0     C20674  -0.198  11.740  10.272 -0.0381 -0.0922 -0.4430
  154MOL0     C20675  -0.343  11.766  10.275  0.0221 -0.3230 -1.4439
  154MOL0     C20676  -0.412  11.688  10.159 -0.4152 -0.2323  1.0433
  154MOL0     C20677  -0.561  11.694  10.158  0.2257 -0.2552  0.1779
  154MOL0     C20678  -0.644  11.617  10.260 -1.2028 -0.4789  0.2043
  154MOL0     O20679  -0.778  11.655  10.245 -0.0611 -0.3012 -0.8109
  154MOL0     C20680  -0.850  11.600  10.150 -0.2124  0.9447 -0.0905
  154MOL0     C20681  -0.813  11.487  10.069 -0.9106 -0.3866 -0.0187
  154MOL0     C20682  -0.918  11.419   9.991 -0.0567 -0.5728 -0.6302
  154MOL0     C20683  -0.871  11.299   9.910 -0.0095  0.4580 -0.5725
  154MOL0     C20684  -1.048  11.468   9.990  0.6620 -0.3290 -0.4250
  154MOL0     C20685  -1.164  11.406   9.918  0.8540 -1.1101 -0.1663
  154MOL0     O20686  -1.280  11.475   9.927  0.8109 -0.3582 -0.4129
  154MOL0     C20687  -1.398  11.430   9.875 -0.6458 -0.0650 -0.0849
  154MOL0     C20688  -1.460  11.321   9.934  0.5064  0.3991 -0.3707
  154MOL0     C20689  -1.600  11.301   9.896 -0.6680 -0.5028 -0.4245
  154MOL0     C20690  -1.653  11.345   9.777  0.4518 -0.2180  0.9689
  154MOL0     O20691  -1.771  11.315   9.718 -0.4911 -0.3322  0.0130
  154MOL0     C20692  -1.847  11.202   9.780  0.5402  0.5604 -0.6345
  154MOL0     C20693  -1.933  11.244   9.908  0.4944  0.1821  0.6598
  154MOL0     C20694  -2.026  11.367   9.881  0.2486 -0.6602  0.4011
  154MOL0     C20695  -2.158  11.351   9.956 -0.5766  0.0237 -0.0845
  154MOL0     C20696  -2.235  11.481   9.938 -0.3899 -0.6199 -0.1409
  154MOL0     C20697  -2.370  11.479  10.021  0.0489 -0.3497  0.2914
  154MOL0     C20698  -2.462  11.384   9.956  0.1503 -0.0159 -1.3739
  154MOL0     C20699  -2.604  11.417  10.002  0.7184 -0.0636 -0.9560
  154MOL0    Cl20700  -2.610  11.438  10.182 -0.3186  0.6604 -0.3837
  154MOL0     C20701  -1.582  11.440   9.708 -0.2344 -0.0812 -0.8423
  154MOL0     C20702  -1.459  11.485   9.753 -0.0773  0.0636 -0.1461
  154MOL0     O20703  -1.152  11.303   9.857 -0.3252  0.4243 -0.2849
  154MOL0     C20704  -1.074  11.583  10.071 -0.1969 -0.1093 -0.1145
  154MOL0     C20705  -0.980  11.656  10.136  0.0474  0.0362 -0.2336
  154MOL0     N20706  -0.143  11.625  10.248 -0.1242  0.1759 -0.1076
  154MOL0     N20707  -0.015  11.636  10.245 -0.8673  0.4730  0.1612
  154MOL0     C20708   0.952  11.324  10.554 -0.0637 -0.6360 -0.7062
  154MOL0     C20709   1.071  11.304  10.479 -0.0369  0.1712  0.7126
  154MOL0     C20710   1.472  11.292  10.297 -0.1422 -0.2285 -0.0001
  154MOL0     C20711   1.535  11.179  10.235  0.1989  0.1935  1.2212
  154MOL0     C20712   1.651  11.200  10.163 -0.2275 -0.4822 -1.4902
  154MOL0     C20713   1.693  11.334  10.134  0.1245 -0.3513 -0.2464
  154MOL0     O20714   1.814  11.358  10.070  0.5797 -0.3109  0.4673
  154MOL0     C20715   1.812  11.372   9.927  0.2452  0.1294  0.4692
  154MOL0     C20716   1.941  11.414   9.856  0.2302  0.4887 -0.2889
  154MOL0     C20717   1.913  11.444   9.710  0.8222 -0.2247  0.2977
  154MOL0     C20718   2.039  11.499   9.650  0.1991  0.3178 -0.3622
  154MOL0     C20719   2.119  11.400   9.583  0.4942 -1.2491 -0.7060
  154MOL0     C20720   2.181  11.319   9.517 -0.6061  0.1719 -0.3741
  154MOL0     C20721   1.623  11.440  10.188 -0.3457 -0.6452 -1.1387
  154MOL0     C20722   1.514  11.417  10.274 -0.5901  0.2373 -1.2715
  154MOL0     H20723   1.237  11.589  10.574 -1.8593  1.6666 -0.2460
  154MOL0     H20724   1.024  11.620  10.693 -2.2510  0.2809 -1.4478
  154MOL0     H20725   0.654  11.354  10.577 -0.9316 -1.7656  0.5040
  154MOL0     H20726   0.749  11.287  10.719  0.9544 -0.6169 -2.7708
  154MOL0     H20727   0.517  11.322  10.756 -0.2237 -0.8091  1.3980
  154MOL0     H20728   0.607  11.404  10.867  0.2023 -3.0335  0.7076
  154MOL0     H20729   0.441  11.567  10.808  0.3212 -0.8996  1.0698
  154MOL0     H20730   0.578  11.616  10.702 -1.0668  1.3162 -0.0109
  154MOL0     H20731   0.468  11.477  10.520 -0.7687  2.7918 -1.7101
  154MOL0     H20732   0.325  11.459  10.630 -0.4594  0.5958 -0.0561
  154MOL0     H20733   0.325  11.707  10.640  0.9196 -1.4719  1.3133
  154MOL0     H20734   0.463  11.715  10.532  1.0568 -2.0648  0.4411
  154MOL0     H20735   0.312  11.592  10.351 -0.3715 -0.7007  0.0220
  154MOL0     H20736   0.173  11.601  10.463 -0.8985 -0.3600 -0.0615
  154MOL0     H20737   0.175  11.839  10.469 -0.4946 -2.0322  0.0429
  154MOL0     H20738   0.334  11.839  10.374  1.4342 -1.8298  0.6380
  154MOL0     H20739   0.197  11.741  10.174 -1.1874  2.9527 -2.6716
  154MOL0     H20740   0.151  11.900  10.210 -0.8951 -0.9089 -1.6872
  154MOL0     H20741  -0.122  11.944  10.290  0.8523 -0.3109  0.9473
  154MOL0     H20742  -0.378  11.719  10.367  0.7567  1.4894 -0.1628
  154MOL0     H20743  -0.372  11.872  10.278  0.3212 -0.2375  1.6846
  154MOL0     H20744  -0.373  11.591  10.125 -1.8189  0.7909 -4.5293
  154MOL0     H20745  -0.382  11.739  10.067  1.4083 -3.0665 -0.0979
  154MOL0     H20746  -0.596  11.662  10.060 -1.9161  0.7499  0.5483
  154MOL0     H20747  -0.591  11.798  10.173 -0.4372 -0.2519 -1.0268
  154MOL0     H20748  -0.612  11.631  10.364 -0.0188 -0.9353 -0.0811
  154MOL0     H20749  -0.631  11.510  10.241 -1.1144 -0.3279 -0.6201
  154MOL0     H20750  -0.714  11.444  10.077 -0.9658 -0.3493  1.0277
  154MOL0     H20751  -0.762  11.308   9.909  0.1171  0.2131  2.1182
  154MOL0     H20752  -0.890  11.197   9.944 -1.3441  0.0542 -2.4116
  154MOL0     H20753  -0.906  11.320   9.809 -0.4416  0.3171 -0.4525
  154MOL0     H20754  -1.419  11.285  10.028 -1.1217 -1.9159 -0.4536
  154MOL0     H20755  -1.652  11.227   9.956 -0.2608 -0.3784  0.0928
  154MOL0     H20756  -1.922  11.157   9.715 -1.7901  0.0040  2.2292
  154MOL0     H20757  -1.779  11.120   9.807 -0.2305  0.1650  0.1517
  154MOL0     H20758  -1.990  11.154   9.932  0.3949 -0.6822 -2.3800
  154MOL0     H20759  -1.864  11.272   9.988  1.4952 -0.4544  0.0298
  154MOL0     H20760  -2.042  11.390   9.775  0.1044 -1.2420  0.2955
  154MOL0     H20761  -1.980  11.461   9.912 -3.5177  0.6294  2.8479
  154MOL0     H20762  -2.199  11.261   9.910  0.8434  0.9211 -3.4485
  154MOL0     H20763  -2.139  11.329  10.061 -0.6649 -1.3764 -0.3428
  154MOL0     H20764  -2.256  11.496   9.832  0.9603 -0.7850 -0.4449
  154MOL0     H20765  -2.175  11.569   9.961  2.4070 -2.6628  0.8492
  154MOL0     H20766  -2.346  11.458  10.126  0.8933  3.0192  0.9020
  154MOL0     H20767  -2.416  11.578  10.023  0.6233 -0.0078 -1.6644
  154MOL0     H20768  -2.436  11.287   9.997  2.0237  1.8336  2.2102
  154MOL0     H20769  -2.459  11.390   9.846  0.3110  1.5178 -1.3084
  154MOL0     H20770  -2.678  11.344   9.968  1.8839 -1.0749 -1.4213
  154MOL0     H20771  -2.636  11.519   9.981  0.7110  1.1270  3.6117
  154MOL0     H20772  -1.618  11.493   9.620 -0.0826  1.5289  0.0345
  154MOL0     H20773  -1.410  11.564   9.698  0.6174 -1.0676 -1.2134
  154MOL0     H20774  -1.179  11.611  10.067 -0.1581  0.1543  0.5503
  154MOL0     H20775  -1.016  11.740  10.194 -3.4250 -0.3953 -1.5291
  154MOL0     H20776   0.876  11.250  10.532 -0.5107 -0.1362 -0.8453
  154MOL0     H20777   1.077  11.223  10.406 -0.5749  0.4330  0.3693
  154MOL0     H20778   1.503  11.077  10.249 -0.9602 -0.4653 -4.0748
  154MOL0     H20779   1.713  11.115  10.136 -0.3011 -1.1241  0.2294
  154MOL0     H20780   1.804  11.268   9.893 -0.1540  0.1386  0.5323
  154MOL0     H20781   1.726  11.434   9.899  1.1691  3.4577  4.1327
  154MOL0     H20782   2.022  11.342   9.869  1.5407  2.0688  0.9673
  154MOL0     H20783   1.972  11.502   9.914  1.8229 -1.0890  1.3902
  154MOL0     H20784   1.836  11.521   9.708 -0.7275 -1.7232 -0.6845
  154MOL0     H20785   1.880  11.361   9.646  2.0202  0.4783 -1.3146
  154MOL0     H20786   2.096  11.550   9.728 -0.8838 -1.4462  1.6750
  154MOL0     H20787   2.018  11.582   9.582  2.5913  0.4709 -1.0050
  154MOL0     H20788   2.258  11.257   9.474 -0.6758 -1.0115  1.1392
  154MOL0     H20789   1.661  11.539  10.168  0.2448 -0.3831  0.9702
  154MOL0     H20790   1.463  11.507  10.305 -0.2414  0.2528 -0.7283
  155MOL0     O20791   1.919   8.320   3.556  0.1860  0.0970  0.1361
  155MOL0     C20792   2.000   8.380   3.484 -0.5641  0.3141 -0.6973
  155MOL0     O20793   1.969   8.411   3.348 -0.5655  0.6236 -0.0329
  155MOL0     C20794   1.846   8.399   3.303 -0.6038  0.0317 -0.1321
  155MOL0     C20795   1.820   8.302   3.205  0.1891  0.1373  0.5497
  155MOL0     C20796   1.692   8.283   3.156  0.3242  0.6907 -0.0520
  155MOL0     C20797   1.581   8.364   3.190 -0.6777 -0.2643  0.2111
  155MOL0     O20798   1.457   8.355   3.133 -0.5330 -0.5797  0.2168
  155MOL0     C20799   1.396   8.228   3.121 -1.2089 -0.2807  0.8178
  155MOL0     C20800   1.257   8.228   3.054 -0.4108  0.0946 -0.5058
  155MOL0     C20801   1.146   8.202   3.159  0.0608 -0.4267  0.2658
  155MOL0     C20802   1.002   8.172   3.117  0.7881 -0.3439  1.2619
  155MOL0     C20803   0.908   8.135   3.239 -0.5931  0.1000  0.2743
  155MOL0     C20804   0.935   7.993   3.293  0.6851 -0.0107  0.4136
  155MOL0     C20805   0.842   7.956   3.408  1.0293  0.3403  0.9680
  155MOL0     C20806   0.911   7.852   3.503  0.3557 -0.1219 -0.1667
  155MOL0     N20807   0.823   7.806   3.614  0.2458 -0.1752  0.5703
  155MOL0     C20808   0.779   7.886   3.720 -0.5002 -1.2825  0.1515
  155MOL0     C20809   0.701   7.820   3.800  0.5621 -0.1122  0.1260
  155MOL0     C20810   0.637   7.866   3.927  0.0319  0.5777  0.3930
  155MOL0     C20811   0.546   7.995   3.897  0.2529  0.1924  0.1197
  155MOL0     C20812   0.507   8.075   4.018 -0.3953  0.4208  0.4661
  155MOL0     C20813   0.451   8.218   3.991 -0.6008 -0.6762  0.2757
  155MOL0     O20814   0.340   8.198   3.908  0.5993  0.4525  0.3680
  155MOL0     C20815   0.243   8.298   3.910  0.4039 -0.3946 -0.0031
  155MOL0     C20816   0.281   8.437   3.904  0.2388  0.4574  0.2131
  155MOL0     C20817   0.185   8.538   3.897 -0.0623 -0.1880 -0.3455
  155MOL0     C20818   0.231   8.682   3.885 -0.4433  0.1536  0.7222
  155MOL0     C20819   0.046   8.498   3.899 -0.2383 -0.4347 -0.8547
  155MOL0     C20820  -0.070   8.596   3.909 -0.2035 -0.2937 -0.4935
  155MOL0     O20821  -0.200   8.549   3.891  0.7648 -0.1364 -0.2281
  155MOL0     C20822  -0.316   8.628   3.891 -0.1224  0.3720  0.2298
  155MOL0     C20823  -0.432   8.559   3.847 -0.2879  0.7547  0.1209
  155MOL0     C20824  -0.550   8.630   3.830 -0.2192 -0.4592  0.2455
  155MOL0     C20825  -0.560   8.763   3.847  0.4695  0.1678 -0.5810
  155MOL0     O20826  -0.675   8.837   3.817 -0.0023 -0.0922 -0.5227
  155MOL0     C20827  -0.798   8.778   3.844  0.1415  0.0322  0.1126
  155MOL0     C20828  -0.901   8.887   3.869 -0.8033  0.7080 -0.6645
  155MOL0     C20829  -0.893   9.003   3.771  0.1475 -1.1061  0.9263
  155MOL0     C20830  -1.016   9.089   3.788 -0.4392 -0.5044  1.0989
  155MOL0     C20831  -0.998   9.224   3.718 -0.9282 -0.0661  0.3561
  155MOL0     C20832  -1.116   9.311   3.737  0.4437  0.3229  0.0457
  155MOL0     C20833  -1.090   9.443   3.672 -0.3599 -0.5968  0.2577
  155MOL0     C20834  -1.199   9.549   3.726  0.3845  0.3292 -0.1676
  155MOL0    Cl20835  -1.189   9.699   3.620 -0.0860  0.0416 -0.2552
  155MOL0     C20836  -0.447   8.831   3.886  0.1182  0.9318 -0.3527
  155MOL0     C20837  -0.325   8.767   3.909 -0.4736  0.0410 -0.4145
  155MOL0     O20838  -0.044   8.702   3.960  0.4315 -0.4274  0.0093
  155MOL0     C20839   0.014   8.359   3.893 -0.4566 -0.0470 -0.4079
  155MOL0     C20840   0.105   8.260   3.909 -0.0012  0.4159  0.1458
  155MOL0     N20841   0.689   7.696   3.734  0.6902 -0.4350  0.1849
  155MOL0     N20842   0.764   7.687   3.626 -0.0243 -0.4710  0.3177
  155MOL0     C20843   1.605   8.465   3.290  0.2749  0.6452  0.6811
  155MOL0     C20844   1.737   8.483   3.340 -0.0268  0.2450 -0.0988
  155MOL0     C20845   2.145   8.394   3.524 -0.2632  0.4970 -0.0771
  155MOL0     C20846   2.192   8.321   3.637  0.8915 -0.2150 -0.2426
  155MOL0     C20847   2.330   8.322   3.669  0.5342  0.3049  0.7484
  155MOL0     C20848   2.421   8.406   3.583  0.3401 -1.0197  0.4765
  155MOL0     O20849   2.560   8.429   3.608 -0.5543 -0.4324 -0.3096
  155MOL0     C20850   2.635   8.333   3.684  0.3579  0.0536  0.9344
  155MOL0     C20851   2.651   8.206   3.605 -0.3036 -0.3110  0.0354
  155MOL0     C20852   2.729   8.106   3.695  0.8699  1.3260 -0.7720
  155MOL0     C20853   2.669   8.059   3.831  0.5344  0.4286  0.3806
  155MOL0     C20854   2.534   7.993   3.814 -0.5657 -0.3350 -0.4285
  155MOL0     C20855   2.436   7.932   3.819 -0.2409 -0.1017  1.2082
  155MOL0     C20856   2.360   8.482   3.478  0.7326 -1.1434  0.0583
  155MOL0     C20857   2.228   8.474   3.442 -0.1114 -1.3225  0.0360
  155MOL0     H20858   1.906   8.240   3.184  0.5449  0.0291  2.1933
  155MOL0     H20859   1.687   8.218   3.069  1.6617  2.4478 -1.5379
  155MOL0     H20860   1.468   8.175   3.058  1.7077  2.4822  1.5312
  155MOL0     H20861   1.384   8.196   3.225  0.7806  0.7775  1.4210
  155MOL0     H20862   1.246   8.324   3.002  2.0328  0.3222 -0.7265
  155MOL0     H20863   1.262   8.155   2.973  0.5498 -0.7453  0.2864
  155MOL0     H20864   1.170   8.109   3.211  0.3860 -0.5648 -0.1267
  155MOL0     H20865   1.149   8.287   3.228  1.0923  0.7255 -1.1307
  155MOL0     H20866   0.971   8.255   3.054  2.8034 -0.5468 -0.0936
  155MOL0     H20867   1.014   8.095   3.040  1.2209  1.9595 -1.1134
  155MOL0     H20868   0.923   8.200   3.326  0.0655 -0.9295  0.9495
  155MOL0     H20869   0.804   8.148   3.208 -0.3855  0.5896 -0.2561
  155MOL0     H20870   0.917   7.923   3.211 -3.6978 -0.6758  1.6621
  155MOL0     H20871   1.038   7.981   3.325  0.1843  0.3450  2.2606
  155MOL0     H20872   0.810   8.046   3.462  0.3715  0.7249 -0.0527
  155MOL0     H20873   0.745   7.914   3.380  0.1507  2.3598  0.8622
  155MOL0     H20874   0.992   7.901   3.558 -0.9615  1.7383  0.2361
  155MOL0     H20875   0.942   7.771   3.437  1.1309  0.7591 -0.9155
  155MOL0     H20876   0.798   7.992   3.737  0.1569 -1.4220  0.2904
  155MOL0     H20877   0.577   7.780   3.960  1.5122 -0.1947  1.1416
  155MOL0     H20878   0.715   7.895   3.997 -0.3162  3.4295 -0.2566
  155MOL0     H20879   0.453   7.951   3.859 -1.2565  1.7873  1.7557
  155MOL0     H20880   0.590   8.056   3.817 -1.9285  1.1528 -0.4276
  155MOL0     H20881   0.599   8.093   4.075  0.0635 -0.4457  0.0198
  155MOL0     H20882   0.431   8.026   4.080 -0.9583  2.4337  1.4643
  155MOL0     H20883   0.529   8.272   3.936 -2.2538 -0.6154 -2.1873
  155MOL0     H20884   0.417   8.273   4.079 -1.0976  0.6624 -0.7069
  155MOL0     H20885   0.385   8.468   3.911  1.1663 -2.0191 -0.9555
  155MOL0     H20886   0.331   8.691   3.841 -0.7398  0.8191  0.1613
  155MOL0     H20887   0.164   8.745   3.826 -0.6916  0.2045  1.0549
  155MOL0     H20888   0.232   8.733   3.982 -1.2073  1.0768  0.2608
  155MOL0     H20889  -0.420   8.457   3.814 -0.3062  1.0950 -1.0009
  155MOL0     H20890  -0.640   8.576   3.806  0.3335 -1.3235  0.0817
  155MOL0     H20891  -0.820   8.721   3.754  0.5062  1.2571 -0.7739
  155MOL0     H20892  -0.800   8.716   3.934  1.0504 -0.0097  0.1206
  155MOL0     H20893  -0.994   8.829   3.871  0.1197 -0.8611  2.1504
  155MOL0     H20894  -0.898   8.919   3.973 -0.0727 -1.0574 -0.1010
  155MOL0     H20895  -0.896   8.971   3.666  0.4857  2.0910 -0.1549
  155MOL0     H20896  -0.805   9.066   3.777 -0.0049 -0.3358 -2.5952
  155MOL0     H20897  -1.106   9.043   3.746 -3.2482  1.9423  3.8682
  155MOL0     H20898  -1.034   9.109   3.894 -2.4844 -0.0243  0.7242
  155MOL0     H20899  -0.980   9.203   3.612 -2.9332 -0.1360  0.0049
  155MOL0     H20900  -0.903   9.269   3.749  0.0429 -0.0802 -2.2591
  155MOL0     H20901  -1.204   9.261   3.696  0.7213 -0.1163 -0.0248
  155MOL0     H20902  -1.134   9.327   3.843  0.9737 -1.7976  0.5181
  155MOL0     H20903  -1.104   9.451   3.564  0.8382  2.6966  0.2153
  155MOL0     H20904  -0.991   9.488   3.685 -0.4173 -0.4642  0.2465
  155MOL0     H20905  -1.185   9.566   3.833 -1.0300 -3.4142  0.7658
  155MOL0     H20906  -1.297   9.514   3.694 -0.2051  1.7659 -0.0075
  155MOL0     H20907  -0.457   8.939   3.886  0.8615  1.0571 -2.5912
  155MOL0     H20908  -0.242   8.833   3.933 -0.1905 -0.8759  1.3665
  155MOL0     H20909  -0.090   8.338   3.917 -0.1912 -0.5326  0.3497
  155MOL0     H20910   0.075   8.156   3.906  0.3075  0.3573 -1.3547
  155MOL0     H20911   1.529   8.539   3.311 -0.2149  0.4200 -0.2631
  155MOL0     H20912   1.761   8.557   3.415 -0.4475 -0.6656  0.9684
  155MOL0     H20913   2.121   8.273   3.703 -1.7295  2.0802 -1.1316
  155MOL0     H20914   2.362   8.262   3.753 -0.6877 -0.2157  0.8643
  155MOL0     H20915   2.735   8.377   3.696  1.1245 -1.0831 -0.8927
  155MOL0     H20916   2.582   8.305   3.775 -1.7363  1.0631  0.1016
  155MOL0     H20917   2.706   8.213   3.511  0.0375 -4.7732 -0.3200
  155MOL0     H20918   2.551   8.168   3.581 -0.7537  0.2076  1.0442
  155MOL0     H20919   2.831   8.143   3.711  1.9504 -0.9117 -2.0033
  155MOL0     H20920   2.747   8.017   3.634 -4.7538  0.1437 -1.2706
  155MOL0     H20921   2.650   8.146   3.894 -0.6857  0.7110 -0.3467
  155MOL0     H20922   2.736   8.000   3.894 -0.8176  1.5484  3.0049
  155MOL0     H20923   2.352   7.865   3.814  2.4892 -3.8277 -0.4729
  155MOL0     H20924   2.430   8.551   3.431  1.4727 -1.0450  1.2637
  155MOL0     H20925   2.191   8.530   3.357 -0.3362  0.3999  1.1915
  156MOL0     O20926   2.333   5.596   2.571 -0.2586 -0.2419 -0.4546
  156MOL0     C20927   2.263   5.540   2.653 -0.4586  0.1425 -0.7257
  156MOL0     O20928   2.133   5.495   2.631  0.6580  0.2092 -0.0229
  156MOL0     C20929   2.057   5.531   2.524  0.5154  0.3352  0.2007
  156MOL0     C20930   1.934   5.468   2.513  0.2760 -0.0806  0.0437
  156MOL0     C20931   1.847   5.506   2.404 -0.9634 -0.2606  0.3439
  156MOL0     C20932   1.886   5.607   2.313  0.8192 -0.3109  0.2150
  156MOL0     O20933   1.786   5.648   2.226  0.0094 -0.3299 -0.6049
  156MOL0     C20934   1.771   5.781   2.192 -0.0441  1.1120  0.6539
  156MOL0     C20935   1.644   5.812   2.112 -0.0855 -0.1505 -0.4178
  156MOL0     C20936   1.654   5.793   1.961  0.5407 -0.0026  0.6281
  156MOL0     C20937   1.536   5.847   1.879 -0.6104 -0.6574  0.2880
  156MOL0     C20938   1.534   5.804   1.729 -0.3893  0.0981 -0.6416
  156MOL0     C20939   1.633   5.900   1.663 -0.2671  0.2730 -0.2238
  156MOL0     C20940   1.671   5.871   1.520 -0.1509 -0.3175  0.2260
  156MOL0     C20941   1.732   5.991   1.449  0.3703 -0.2491 -0.5061
  156MOL0     N20942   1.740   5.956   1.305  1.0703 -0.1159 -0.9323
  156MOL0     C20943   1.648   5.916   1.220  1.1036 -1.0850 -0.2216
  156MOL0     C20944   1.705   5.908   1.099 -0.2844 -0.1977 -0.0486
  156MOL0     C20945   1.646   5.859   0.965 -0.0784  0.2176 -0.7089
  156MOL0     C20946   1.489   5.835   0.978  0.4497  0.1519  0.9958
  156MOL0     C20947   1.425   5.778   0.851 -0.3889 -0.5342 -0.2781
  156MOL0     C20948   1.281   5.737   0.854 -0.3055  0.3543  0.0090
  156MOL0     O20949   1.249   5.621   0.934  0.6483  0.5550 -0.3535
  156MOL0     C20950   1.122   5.562   0.911  0.4168  0.6302 -0.6510
  156MOL0     C20951   1.007   5.619   0.860 -0.0990 -0.5868 -0.5864
  156MOL0     C20952   0.893   5.555   0.829  0.1134  0.1736  0.4883
  156MOL0     C20953   0.788   5.644   0.783  0.1486 -0.1315 -0.0340
  156MOL0     C20954   0.886   5.417   0.864  0.1592  0.0492  0.4722
  156MOL0     C20955   0.765   5.338   0.834  0.8572 -0.3263 -0.7300
  156MOL0     O20956   0.690   5.365   0.725 -0.2556 -0.5659 -0.1839
  156MOL0     C20957   0.569   5.298   0.703 -0.9828 -0.6663  0.3771
  156MOL0     C20958   0.453   5.369   0.665  0.5631 -0.2112 -0.3087
  156MOL0     C20959   0.323   5.306   0.640 -0.0897 -0.1574  0.1882
  156MOL0     C20960   0.317   5.170   0.657  0.4364  0.7988  0.4480
  156MOL0     O20961   0.212   5.090   0.624 -0.3042  0.4572 -0.4843
  156MOL0     C20962   0.085   5.149   0.606  0.0944  0.4847  0.1850
  156MOL0     C20963  -0.020   5.071   0.683 -1.0630  0.2427 -0.3387
  156MOL0     C20964  -0.144   5.151   0.697  1.0513 -0.2866 -0.4068
  156MOL0     C20965  -0.234   5.080   0.797  0.3138 -0.6010 -0.3778
  156MOL0     C20966  -0.354   5.167   0.846  1.5701 -0.6185 -0.7855
  156MOL0     C20967  -0.446   5.214   0.726 -1.0248  0.8370 -0.0475
  156MOL0     C20968  -0.541   5.100   0.691  0.8944 -0.1583 -0.1466
  156MOL0     C20969  -0.580   5.077   0.546 -0.3165  0.7697  0.0165
  156MOL0    Cl20970  -0.690   5.203   0.490 -0.0990 -0.0402 -0.1480
  156MOL0     C20971   0.437   5.098   0.689 -0.3406  0.3403 -0.0797
  156MOL0     C20972   0.556   5.161   0.718  0.8764  0.8128 -0.2730
  156MOL0     O20973   0.752   5.238   0.901 -0.2538 -0.4277 -0.6659
  156MOL0     C20974   0.995   5.353   0.932 -0.5613 -0.3243 -0.1695
  156MOL0     C20975   1.111   5.426   0.958 -0.2394 -0.2250 -0.0491
  156MOL0     N20976   1.844   5.937   1.121 -0.2361  0.2823  0.0151
  156MOL0     N20977   1.858   5.963   1.241  0.3049 -0.8500 -0.6868
  156MOL0     C20978   2.004   5.680   2.332 -0.2492  0.0636  0.0077
  156MOL0     C20979   2.084   5.639   2.432 -0.0383  0.5053 -0.1844
  156MOL0     C20980   2.304   5.536   2.797  0.3171  0.8391 -0.4979
  156MOL0     C20981   2.207   5.521   2.902  0.3938  0.7980  0.1589
  156MOL0     C20982   2.258   5.516   3.035 -0.2765  0.3733 -0.1217
  156MOL0     C20983   2.398   5.502   3.056  0.7135  0.3825  0.2440
  156MOL0     O20984   2.438   5.484   3.187 -0.6640 -0.0140  0.1872
  156MOL0     C20985   2.498   5.357   3.198  0.2524  0.2697 -0.8443
  156MOL0     C20986   2.533   5.341   3.349  0.7328 -0.4726 -0.2079
  156MOL0     C20987   2.660   5.426   3.382 -0.4824  0.4739 -0.3065
  156MOL0     C20988   2.697   5.427   3.527 -0.1096  0.5873 -0.0887
  156MOL0     C20989   2.593   5.494   3.611 -0.4550  0.1461 -0.8469
  156MOL0     C20990   2.515   5.547   3.686 -0.1534  0.5714 -0.1114
  156MOL0     C20991   2.487   5.523   2.953  0.5390 -0.5759 -0.2566
  156MOL0     C20992   2.444   5.537   2.827 -0.4067  0.2954  1.1217
  156MOL0     H20993   1.896   5.387   2.574 -3.0288 -0.3900 -2.1486
  156MOL0     H20994   1.754   5.458   2.379  0.3714 -1.1446 -3.6930
  156MOL0     H20995   1.770   5.841   2.284 -2.6812  2.8157 -0.3878
  156MOL0     H20996   1.857   5.802   2.128  0.1750 -1.6688 -0.1081
  156MOL0     H20997   1.567   5.742   2.146  1.1321 -0.8594  1.0157
  156MOL0     H20998   1.606   5.910   2.143  4.3677  1.0140  2.4146
  156MOL0     H20999   1.746   5.840   1.926 -0.2877 -0.8737 -3.1063
  156MOL0     H21000   1.659   5.687   1.937 -0.1357  0.0665  0.1528
  156MOL0     H21001   1.441   5.817   1.923  0.3844 -1.9074  1.7125
  156MOL0     H21002   1.544   5.955   1.892  0.1435 -0.4254 -1.6486
  156MOL0     H21003   1.568   5.700   1.728  0.4444  0.3514 -0.0009
  156MOL0     H21004   1.439   5.816   1.676 -1.3459 -0.7975  0.7763
  156MOL0     H21005   1.587   5.999   1.665 -1.1151 -0.1221  1.7773
  156MOL0     H21006   1.724   5.894   1.722  1.7667 -1.4125 -3.2361
  156MOL0     H21007   1.742   5.789   1.527  1.9615  1.2015 -1.9008
  156MOL0     H21008   1.583   5.837   1.465  0.3177  1.6973 -1.9474
  156MOL0     H21009   1.832   6.013   1.487 -0.0952  0.7881  0.1544
  156MOL0     H21010   1.682   6.087   1.459  1.4180  0.4017 -1.3192
  156MOL0     H21011   1.539   5.911   1.228  0.7296 -0.1612 -3.5094
  156MOL0     H21012   1.659   5.934   0.887  0.0670  0.1523 -0.7472
  156MOL0     H21013   1.689   5.760   0.947 -0.0358  0.1066 -0.0143
  156MOL0     H21014   1.435   5.929   0.998 -2.3549 -1.4136  1.3495
  156MOL0     H21015   1.461   5.767   1.059  0.9680 -0.8249  0.3702
  156MOL0     H21016   1.483   5.691   0.822  2.9468  1.2120  0.6537
  156MOL0     H21017   1.432   5.848   0.767 -4.7013 -0.9081 -1.1612
  156MOL0     H21018   1.249   5.713   0.752 -0.8728 -3.4546  0.9353
  156MOL0     H21019   1.222   5.820   0.894  2.1665  2.6318 -0.7444
  156MOL0     H21020   1.005   5.725   0.839  0.0325 -0.6556 -0.9586
  156MOL0     H21021   0.684   5.617   0.806  0.1069 -1.1430 -1.3345
  156MOL0     H21022   0.799   5.750   0.811 -2.0319 -0.2941  1.8012
  156MOL0     H21023   0.805   5.644   0.675 -2.4026 -0.7617 -0.4942
  156MOL0     H21024   0.467   5.474   0.643  0.5844 -0.6209 -2.4899
  156MOL0     H21025   0.243   5.366   0.598 -0.0660  1.2785  2.0210
  156MOL0     H21026   0.078   5.253   0.640 -1.8301  0.8667 -1.2141
  156MOL0     H21027   0.055   5.141   0.501 -2.2904 -2.0035  0.9426
  156MOL0     H21028  -0.034   4.977   0.628  3.3403 -1.1800  0.5327
  156MOL0     H21029   0.018   5.043   0.782  1.0370  0.1792 -1.1149
  156MOL0     H21030  -0.184   5.141   0.596  0.3672 -3.0508  0.0607
  156MOL0     H21031  -0.121   5.256   0.720  1.8544 -0.9393  2.0996
  156MOL0     H21032  -0.276   4.996   0.739  0.4040 -0.2473 -0.9598
  156MOL0     H21033  -0.186   5.049   0.891 -1.0669  0.7600  0.8367
  156MOL0     H21034  -0.324   5.258   0.899 -0.6745 -0.1102 -0.2563
  156MOL0     H21035  -0.411   5.122   0.928  2.1920  3.2023  2.0075
  156MOL0     H21036  -0.504   5.304   0.749 -2.8874 -0.1032 -0.8263
  156MOL0     H21037  -0.387   5.241   0.638 -1.2871 -0.6044 -0.6921
  156MOL0     H21038  -0.631   5.105   0.752  0.4660  1.2480 -0.8403
  156MOL0     H21039  -0.493   5.008   0.727 -0.1260 -1.2313 -1.4281
  156MOL0     H21040  -0.632   4.982   0.534  1.1623 -0.1956  0.8039
  156MOL0     H21041  -0.487   5.080   0.488 -0.7963 -0.5498 -0.8744
  156MOL0     H21042   0.427   4.991   0.704 -0.4969  0.0479 -1.9534
  156MOL0     H21043   0.642   5.096   0.711  0.8551  0.1620  3.4391
  156MOL0     H21044   0.979   5.253   0.970  0.7123 -0.0993  1.0236
  156MOL0     H21045   1.183   5.363   1.009 -0.4081 -0.9583 -0.6882
  156MOL0     H21046   2.027   5.758   2.260 -1.6688 -0.0003 -0.5560
  156MOL0     H21047   2.180   5.690   2.433  1.4792 -2.1718  0.6626
  156MOL0     H21048   2.101   5.521   2.881  0.0907  1.3988  1.5510
  156MOL0     H21049   2.202   5.517   3.127  1.4393 -0.0957  0.9814
  156MOL0     H21050   2.431   5.275   3.172 -0.0215  0.4082 -0.5748
  156MOL0     H21051   2.592   5.343   3.142  0.7648  1.0958 -0.2114
  156MOL0     H21052   2.556   5.236   3.368 -0.1884 -0.3798  1.6762
  156MOL0     H21053   2.456   5.388   3.411  1.7302  1.8087 -0.5867
  156MOL0     H21054   2.645   5.529   3.347 -3.7388  0.5486  0.9990
  156MOL0     H21055   2.744   5.374   3.334 -0.6010 -1.4290  1.4250
  156MOL0     H21056   2.796   5.473   3.536  0.4218 -0.4073 -0.7597
  156MOL0     H21057   2.709   5.325   3.565  0.0243 -0.5676 -2.9822
  156MOL0     H21058   2.451   5.599   3.753 -0.3598 -0.8257  0.8133
  156MOL0     H21059   2.591   5.544   2.974  0.1534  0.3666  0.8580
  156MOL0     H21060   2.514   5.559   2.747 -1.7604  3.5995  0.7156
  157MOL0     O21061  10.681   3.696   7.385  0.0780 -0.1736  0.6275
  157MOL0     C21062  10.670   3.722   7.505 -0.5062 -0.7937  0.2755
  157MOL0     O21063  10.550   3.760   7.571  0.4978 -0.0551 -1.2526
  157MOL0     C21064  10.437   3.740   7.501 -0.0826  0.5639 -0.1536
  157MOL0     C21065  10.401   3.813   7.388 -0.2380 -0.2437 -0.6512
  157MOL0     C21066  10.275   3.806   7.335 -0.2602  0.7092 -0.3976
  157MOL0     C21067  10.182   3.709   7.381  0.7342  0.6329 -0.0113
  157MOL0     O21068  10.070   3.678   7.301  0.1478  0.2773 -0.7220
  157MOL0     C21069  10.020   3.767   7.198 -0.1974  0.9153 -0.1272
  157MOL0     C21070   9.939   3.677   7.109  0.5878  0.0949  0.3239
  157MOL0     C21071   9.800   3.634   7.167 -0.4163  0.1237  0.3249
  157MOL0     C21072   9.710   3.562   7.053 -0.5829 -0.0856 -0.5253
  157MOL0     C21073   9.564   3.594   7.067  0.4042  0.3815  0.1519
  157MOL0     C21074   9.499   3.531   7.189 -0.1206 -0.0502 -0.3648
  157MOL0     C21075   9.342   3.557   7.195 -0.3677 -0.3880 -0.0397
  157MOL0     C21076   9.288   3.493   7.323 -0.1373 -0.8686  0.4630
  157MOL0     N21077   9.148   3.524   7.337  0.4984 -0.3686  0.8317
  157MOL0     C21078   9.046   3.434   7.301  0.7322  1.2403 -0.1401
  157MOL0     C21079   8.931   3.490   7.358  0.0086  0.9376  0.0580
  157MOL0     C21080   8.796   3.436   7.358  0.4684 -0.1695 -0.9879
  157MOL0     C21081   8.719   3.538   7.278  1.1128  0.3050  0.7850
  157MOL0     C21082   8.564   3.526   7.299 -0.9732  0.8767 -0.3268
  157MOL0     C21083   8.494   3.395   7.253 -0.2205  0.0742  0.0744
  157MOL0     O21084   8.480   3.399   7.108  0.4320  0.0823  0.0207
  157MOL0     C21085   8.368   3.345   7.055  0.0731 -0.2687 -0.9176
  157MOL0     C21086   8.373   3.206   7.011 -0.1894 -0.4535 -0.1838
  157MOL0     C21087   8.276   3.148   6.938 -0.0501  0.3909 -0.5258
  157MOL0     C21088   8.292   3.006   6.898  0.3425 -0.3980  0.3942
  157MOL0     C21089   8.161   3.231   6.909 -0.4822  0.0929  0.4480
  157MOL0     C21090   8.049   3.180   6.829  1.0174 -0.5143  0.2986
  157MOL0     O21091   7.936   3.261   6.840 -0.0083 -0.1467  0.0470
  157MOL0     C21092   7.817   3.235   6.787 -0.9798  0.5283 -0.7552
  157MOL0     C21093   7.703   3.281   6.853 -0.4420 -0.1878  0.1771
  157MOL0     C21094   7.577   3.283   6.789 -0.8316 -0.5214 -0.3329
  157MOL0     C21095   7.560   3.234   6.661 -0.4790  0.5252 -0.2198
  157MOL0     O21096   7.445   3.229   6.591  0.1022  0.2018 -0.3732
  157MOL0     C21097   7.367   3.117   6.636 -0.9802  0.3900  0.9110
  157MOL0     C21098   7.272   3.069   6.523  0.8278  0.2555  0.1720
  157MOL0     C21099   7.138   3.036   6.587 -0.8075  0.3567  0.0683
  157MOL0     C21100   7.032   2.986   6.496  0.5659 -1.3847 -0.2645
  157MOL0     C21101   6.912   2.928   6.582  0.3924 -0.3464  0.6377
  157MOL0     C21102   6.855   3.025   6.681 -0.6641  1.0747  0.8194
  157MOL0     C21103   6.704   2.997   6.716  0.0453 -0.4914  0.5146
  157MOL0     C21104   6.679   2.844   6.714  0.5470  0.2909 -0.4565
  157MOL0    Cl21105   6.501   2.829   6.684 -0.1719 -0.2692 -0.4108
  157MOL0     C21106   7.676   3.181   6.596  0.0462 -0.6914 -0.4032
  157MOL0     C21107   7.802   3.188   6.659  0.2489  0.4688  0.3187
  157MOL0     O21108   8.050   3.071   6.768 -0.1508  0.9863 -0.5504
  157MOL0     C21109   8.157   3.361   6.961 -0.0419  0.1310 -0.5019
  157MOL0     C21110   8.259   3.419   7.036  0.7340 -0.9712  0.0444
  157MOL0     N21111   8.968   3.608   7.426 -0.0332 -0.0609 -0.2610
  157MOL0     N21112   9.091   3.623   7.415 -0.3678 -0.8897 -0.5925
  157MOL0     C21113  10.214   3.622   7.493  0.8340 -0.6509  0.5131
  157MOL0     C21114  10.345   3.647   7.557 -0.6903 -0.4390 -0.1075
  157MOL0     C21115  10.797   3.711   7.591  0.6699  0.4722 -0.6481
  157MOL0     C21116  10.922   3.673   7.552 -0.1395  0.5517 -0.5504
  157MOL0     C21117  11.023   3.648   7.637 -0.3127  0.4624  0.4264
  157MOL0     C21118  11.007   3.655   7.771  0.1133 -0.5913  0.0005
  157MOL0     O21119  11.114   3.633   7.851 -0.4407  0.1002 -0.4817
  157MOL0     C21120  11.095   3.628   7.994  0.0553  0.6966 -0.2510
  157MOL0     C21121  11.212   3.556   8.066 -1.5696 -0.3715  0.1266
  157MOL0     C21122  11.225   3.409   8.024 -0.6189  0.1531 -0.8160
  157MOL0     C21123  11.324   3.327   8.106 -0.3018  0.3957 -0.2103
  157MOL0     C21124  11.457   3.351   8.042  0.3265 -0.2421  0.0857
  157MOL0     C21125  11.565   3.381   7.992  0.1331 -0.2741 -1.0361
  157MOL0     C21126  10.882   3.688   7.816 -0.3731 -0.5389 -0.6846
  157MOL0     C21127  10.778   3.722   7.727  0.5223 -0.5822  0.2668
  157MOL0     H21128  10.468   3.890   7.353  1.5664 -1.3481  0.2438
  157MOL0     H21129  10.248   3.880   7.260 -0.4064  1.8130  0.7064
  157MOL0     H21130   9.967   3.850   7.247 -0.4544 -0.5753  2.3111
  157MOL0     H21131  10.106   3.797   7.138  0.0121 -0.3736 -0.4820
  157MOL0     H21132   9.911   3.726   7.015 -1.5661  0.3037  1.0023
  157MOL0     H21133   9.995   3.585   7.092 -0.1142 -0.6828  1.9421
  157MOL0     H21134   9.815   3.561   7.246  1.4809 -0.3644 -0.4328
  157MOL0     H21135   9.754   3.727   7.202 -0.1568  0.4193 -0.0998
  157MOL0     H21136   9.744   3.602   6.958  1.8922 -1.0706 -0.1298
  157MOL0     H21137   9.728   3.454   7.056  0.4755 -0.0417 -2.9287
  157MOL0     H21138   9.553   3.703   7.069 -0.0154  0.3506 -0.1768
  157MOL0     H21139   9.517   3.550   6.978 -0.3219  3.2242 -1.0059
  157MOL0     H21140   9.524   3.425   7.180 -1.5100 -0.5178  0.7953
  157MOL0     H21141   9.552   3.578   7.273 -2.1076 -1.2816  1.6845
  157MOL0     H21142   9.324   3.665   7.208  0.7952 -0.0551 -1.0592
  157MOL0     H21143   9.292   3.523   7.105 -0.4788 -2.1353  0.6410
  157MOL0     H21144   9.330   3.537   7.413 -0.7099  0.3662  0.1512
  157MOL0     H21145   9.301   3.384   7.318 -1.5785 -1.2383  2.9456
  157MOL0     H21146   9.048   3.339   7.249 -3.5608 -1.2951  3.6016
  157MOL0     H21147   8.793   3.336   7.313 -0.1696 -0.5835 -0.0611
  157MOL0     H21148   8.755   3.421   7.458 -1.1854  2.6100 -1.1397
  157MOL0     H21149   8.735   3.521   7.171  1.1010 -0.6813  0.9299
  157MOL0     H21150   8.753   3.639   7.300 -0.8019  1.5166 -1.4583
  157MOL0     H21151   8.520   3.609   7.242 -0.6389  2.6132  1.8396
  157MOL0     H21152   8.560   3.548   7.406 -1.1208  2.4751 -0.6296
  157MOL0     H21153   8.397   3.394   7.304  0.4566 -0.1151  1.4280
  157MOL0     H21154   8.550   3.303   7.272 -1.2708 -0.7187 -0.5579
  157MOL0     H21155   8.467   3.154   7.025  1.4550  1.1804 -3.7811
  157MOL0     H21156   8.217   2.944   6.948 -1.6436  1.3418 -0.2967
  157MOL0     H21157   8.278   2.997   6.789 -0.6880 -0.9336  0.5544
  157MOL0     H21158   8.394   2.972   6.916  0.7745  1.2682  1.2595
  157MOL0     H21159   7.723   3.319   6.952 -0.2452  0.0891  0.0351
  157MOL0     H21160   7.494   3.328   6.843  0.4637  1.7584 -0.1295
  157MOL0     H21161   7.421   3.034   6.682 -0.5836  0.3350  0.3618
  157MOL0     H21162   7.309   3.166   6.714  0.3073 -0.7168  2.6170
  157MOL0     H21163   7.264   3.151   6.451 -1.1338  0.8392  0.9994
  157MOL0     H21164   7.315   2.979   6.478  3.6514  1.5081  0.1390
  157MOL0     H21165   7.109   3.133   6.630  0.7980  1.9664 -2.2436
  157MOL0     H21166   7.157   2.974   6.675 -1.8432  0.9145  0.7040
  157MOL0     H21167   6.999   3.072   6.437  0.1091 -1.4740 -0.1440
  157MOL0     H21168   7.073   2.911   6.427 -0.5474 -0.1102 -2.4228
  157MOL0     H21169   6.933   2.829   6.623 -0.5910 -0.9216 -0.1876
  157MOL0     H21170   6.841   2.912   6.500 -0.5671  1.9651  0.9510
  157MOL0     H21171   6.907   3.030   6.777 -0.2477 -1.9114  0.8530
  157MOL0     H21172   6.845   3.126   6.641 -1.4852  1.3442  1.6702
  157MOL0     H21173   6.640   3.038   6.638 -0.1157  0.4352  1.1191
  157MOL0     H21174   6.666   3.037   6.811 -1.2824 -0.5633  0.0318
  157MOL0     H21175   6.709   2.810   6.813 -1.1827 -2.7371 -0.8540
  157MOL0     H21176   6.731   2.783   6.640 -0.7063 -1.9860  0.4500
  157MOL0     H21177   7.667   3.146   6.494 -2.6582  3.5290 -1.8873
  157MOL0     H21178   7.890   3.157   6.603 -0.2815  0.6057 -0.6207
  157MOL0     H21179   8.077   3.431   6.938 -0.0022 -0.0451 -1.2013
  157MOL0     H21180   8.239   3.513   7.088 -2.6892 -3.6323  4.2405
  157MOL0     H21181  10.136   3.557   7.531 -0.3027 -0.7932 -1.8997
  157MOL0     H21182  10.385   3.587   7.638 -2.6082 -1.5322  0.0882
  157MOL0     H21183  10.953   3.654   7.450  3.3256  0.7135  0.3641
  157MOL0     H21184  11.116   3.618   7.590 -0.7275  0.6343 -0.5295
  157MOL0     H21185  11.082   3.733   8.019 -0.7254 -0.0365  2.9591
  157MOL0     H21186  11.003   3.570   8.010 -0.9271  1.9532 -1.1693
  157MOL0     H21187  11.204   3.563   8.175  0.1151 -2.6658  0.4671
  157MOL0     H21188  11.299   3.619   8.047 -0.7248 -1.2594  0.9178
  157MOL0     H21189  11.249   3.389   7.919 -1.0844  2.9141 -1.5185
  157MOL0     H21190  11.129   3.363   8.049  0.6415 -1.7815  0.7752
  157MOL0     H21191  11.304   3.219   8.100 -0.5810  0.4379 -0.0356
  157MOL0     H21192  11.331   3.360   8.210  0.4490  2.2800 -0.8171
  157MOL0     H21193  11.656   3.386   7.936 -0.0794  0.5991 -1.3223
  157MOL0     H21194  10.865   3.701   7.923  1.2949 -2.3766 -0.1277
  157MOL0     H21195  10.680   3.750   7.765  1.3734  2.6350  0.3936
  158MOL0     O21196  10.607   0.012   8.013 -0.2551 -0.5405 -0.7134
  158MOL0     C21197  10.672  -0.073   8.079 -0.1892  0.0954 -0.4592
  158MOL0     O21198  10.628  -0.138   8.190 -0.1817 -0.3328 -0.1949
  158MOL0     C21199  10.495  -0.125   8.229 -0.9536 -0.9758 -0.0066
  158MOL0     C21200  10.460  -0.104   8.362 -0.1477 -0.1366  0.0072
  158MOL0     C21201  10.325  -0.085   8.399 -0.3259  1.1233  0.2610
  158MOL0     C21202  10.225  -0.111   8.304 -0.0482  0.8792 -0.0362
  158MOL0     O21203  10.098  -0.107   8.345 -0.2813  0.0840 -0.3368
  158MOL0     C21204   9.993  -0.132   8.256 -0.6319  0.2233 -0.1914
  158MOL0     C21205   9.865  -0.107   8.338 -1.0385 -0.1595 -0.1380
  158MOL0     C21206   9.744  -0.137   8.258  0.0797 -0.3945 -0.1279
  158MOL0     C21207   9.611  -0.118   8.335 -0.6531  0.4173 -0.5929
  158MOL0     C21208   9.502  -0.143   8.231  0.3902  0.2952 -0.0094
  158MOL0     C21209   9.359  -0.121   8.279 -0.4173 -0.1091 -0.5897
  158MOL0     C21210   9.266  -0.217   8.202 -0.1869 -0.3334 -1.2116
  158MOL0     C21211   9.243  -0.178   8.056 -0.4453 -0.5534  0.2252
  158MOL0     N21212   9.137  -0.265   8.009  0.0915 -0.6635  0.7762
  158MOL0     C21213   9.015  -0.231   7.957  0.8137 -0.0803 -0.4258
  158MOL0     C21214   8.975  -0.342   7.898  0.5162 -0.4880  0.4180
  158MOL0     C21215   8.845  -0.353   7.825  0.5216  1.0319 -0.1093
  158MOL0     C21216   8.864  -0.440   7.700 -0.1205 -0.7641  0.0811
  158MOL0     C21217   8.762  -0.398   7.592 -0.3488  0.4056  0.3110
  158MOL0     C21218   8.613  -0.394   7.638  0.5575  0.0881 -0.3731
  158MOL0     O21219   8.589  -0.257   7.683 -0.1676  1.1944 -0.1716
  158MOL0     C21220   8.465  -0.214   7.720 -0.0666  0.0228  0.1609
  158MOL0     C21221   8.464  -0.086   7.787  0.1756  0.6320 -0.1350
  158MOL0     C21222   8.349  -0.034   7.849 -0.0337 -0.2235  0.2055
  158MOL0     C21223   8.355   0.104   7.913  0.3488  0.4566 -0.1980
  158MOL0     C21224   8.239  -0.119   7.855  0.1118 -0.7180 -0.0623
  158MOL0     C21225   8.113  -0.089   7.924 -0.2838 -1.1535  0.2377
  158MOL0     O21226   8.025  -0.191   7.922  0.6396 -0.1957 -0.2699
  158MOL0     C21227   7.914  -0.175   8.002 -0.2885  0.0520 -0.4386
  158MOL0     C21228   7.803  -0.095   7.972 -0.2318 -0.4215 -0.1595
  158MOL0     C21229   7.691  -0.097   8.062  0.2343 -0.0229 -0.2940
  158MOL0     C21230   7.697  -0.150   8.184 -0.0476  0.0422 -0.5755
  158MOL0     O21231   7.577  -0.138   8.254  0.2832  0.3222 -0.1460
  158MOL0     C21232   7.571  -0.182   8.390  0.0394 -0.3646 -0.7333
  158MOL0     C21233   7.434  -0.159   8.458 -0.0841  0.4232  0.3818
  158MOL0     C21234   7.324  -0.248   8.402  0.9260 -0.7633 -0.0863
  158MOL0     C21235   7.346  -0.394   8.424 -0.5494 -0.2585 -0.1765
  158MOL0     C21236   7.218  -0.476   8.391  1.0429 -0.0654  0.3120
  158MOL0     C21237   7.242  -0.579   8.275  0.4310 -1.1644  0.1971
  158MOL0     C21238   7.340  -0.683   8.317 -0.3673  0.1376 -0.4098
  158MOL0     C21239   7.410  -0.759   8.215  0.6171  0.4136  0.0963
  158MOL0    Cl21240   7.290  -0.782   8.072  0.1683  0.3409 -0.2206
  158MOL0     C21241   7.807  -0.231   8.219  0.5633 -0.1577 -0.3098
  158MOL0     C21242   7.913  -0.237   8.127 -0.4467  0.1913  0.3658
  158MOL0     O21243   8.100   0.011   7.994 -0.3821 -0.4070  0.4569
  158MOL0     C21244   8.241  -0.239   7.777  0.1726  0.4767  0.2945
  158MOL0     C21245   8.350  -0.290   7.705  0.3647 -0.5002 -0.3672
  158MOL0     N21246   9.068  -0.441   7.906  0.3583 -0.0769  0.4686
  158MOL0     N21247   9.168  -0.392   7.972 -0.3596  0.5332  0.5444
  158MOL0     C21248  10.259  -0.139   8.169 -0.2563  0.2774 -0.1229
  158MOL0     C21249  10.391  -0.141   8.131 -0.1863 -0.3820 -0.3288
  158MOL0     C21250  10.815  -0.100   8.030  0.8093 -0.3684  0.1098
  158MOL0     C21251  10.862  -0.031   7.920 -0.0295  0.0263 -0.3255
  158MOL0     C21252  10.996  -0.056   7.879  0.3939 -0.4590 -0.1015
  158MOL0     C21253  11.073  -0.154   7.949 -0.5053 -0.8977  0.0084
  158MOL0     O21254  11.198  -0.173   7.893  0.6032 -0.5502 -0.1547
  158MOL0     C21255  11.301  -0.219   7.979  0.5225  0.3829 -0.4004
  158MOL0     C21256  11.435  -0.200   7.904 -0.1000 -0.6596  0.1897
  158MOL0     C21257  11.452  -0.048   7.879 -0.7629 -0.0156  0.0320
  158MOL0     C21258  11.604  -0.016   7.866 -0.0817 -0.0227  0.0292
  158MOL0     C21259  11.646  -0.077   7.737  0.1021  0.2228  0.2544
  158MOL0     C21260  11.677  -0.127   7.628 -0.5789 -1.1513  0.2103
  158MOL0     C21261  11.029  -0.212   8.068 -0.7390 -0.8041 -0.0164
  158MOL0     C21262  10.898  -0.189   8.102 -0.4208 -0.1256 -0.1994
  158MOL0     H21263  10.534  -0.104   8.441 -0.3997 -2.2334  0.2981
  158MOL0     H21264  10.306  -0.081   8.506 -0.1305 -2.8061  0.5613
  158MOL0     H21265   9.995  -0.059   8.174  1.7889 -1.7819 -2.0799
  158MOL0     H21266   9.993  -0.232   8.212 -0.6009  0.6763 -1.2714
  158MOL0     H21267   9.863  -0.187   8.413  0.3120 -0.8338 -0.7861
  158MOL0     H21268   9.865  -0.007   8.382  0.4064 -0.1344 -0.1615
  158MOL0     H21269   9.750  -0.065   8.175 -0.0337 -0.2338  0.0018
  158MOL0     H21270   9.738  -0.239   8.218 -1.6740  0.1762 -1.4708
  158MOL0     H21271   9.602  -0.189   8.418  2.2719 -1.5672 -1.8190
  158MOL0     H21272   9.617  -0.016   8.375 -0.5811  1.0534 -2.1632
  158MOL0     H21273   9.520  -0.090   8.138 -3.9711  0.2416 -1.0973
  158MOL0     H21274   9.517  -0.248   8.204 -2.0530  0.2302 -1.4017
  158MOL0     H21275   9.354  -0.144   8.386  0.5017  3.8468  0.4526
  158MOL0     H21276   9.327  -0.018   8.264 -3.3648 -0.2309  3.3689
  158MOL0     H21277   9.314  -0.315   8.202  1.2460  0.3477 -0.8277
  158MOL0     H21278   9.169  -0.215   8.252 -0.6941  3.3068 -2.0565
  158MOL0     H21279   9.339  -0.189   8.003  0.5657  0.9630  1.6369
  158MOL0     H21280   9.213  -0.074   8.044 -1.6421 -1.0266 -1.1875
  158MOL0     H21281   8.964  -0.135   7.964  0.9922 -0.1139  2.6416
  158MOL0     H21282   8.772  -0.391   7.896  0.1592  3.2807  0.8225
  158MOL0     H21283   8.809  -0.256   7.787 -0.7336  1.1434  1.2992
  158MOL0     H21284   8.868  -0.548   7.715  0.2611 -0.8301 -0.4579
  158MOL0     H21285   8.960  -0.425   7.648  0.3194 -0.6514  0.9032
  158MOL0     H21286   8.770  -0.477   7.517 -2.2680  2.5808 -2.3769
  158MOL0     H21287   8.792  -0.312   7.532  0.5970 -0.8202 -1.0427
  158MOL0     H21288   8.595  -0.460   7.724  1.5877  1.2816  0.8129
  158MOL0     H21289   8.540  -0.421   7.562 -1.5700 -0.8874  1.8814
  158MOL0     H21290   8.559  -0.034   7.792  1.0338 -0.8919  0.2211
  158MOL0     H21291   8.454   0.149   7.899  0.8787 -1.0751 -1.7272
  158MOL0     H21292   8.285   0.167   7.857 -0.6964  1.8884  2.5199
  158MOL0     H21293   8.326   0.096   8.018 -1.0110 -2.3894 -0.7007
  158MOL0     H21294   7.804  -0.049   7.874  2.5166 -1.5605 -0.7881
  158MOL0     H21295   7.598  -0.043   8.045  0.2135  0.3896  0.9855
  158MOL0     H21296   7.594  -0.288   8.402  0.4891 -0.0124  2.4552
  158MOL0     H21297   7.627  -0.117   8.458  0.1595 -3.2074  2.1131
  158MOL0     H21298   7.454  -0.179   8.564 -0.8561 -0.4145  0.3825
  158MOL0     H21299   7.396  -0.057   8.454 -0.4771  0.3429  1.6365
  158MOL0     H21300   7.312  -0.233   8.294  2.2723  0.1397 -0.1370
  158MOL0     H21301   7.232  -0.206   8.443  0.5284  0.0462 -1.7353
  158MOL0     H21302   7.435  -0.433   8.373 -0.4828 -0.0264 -0.2414
  158MOL0     H21303   7.364  -0.394   8.532 -3.1294 -3.6220  0.4117
  158MOL0     H21304   7.134  -0.413   8.359  1.1264 -0.4495 -0.7142
  158MOL0     H21305   7.180  -0.525   8.481 -1.0364  0.6364 -0.1232
  158MOL0     H21306   7.156  -0.639   8.240 -0.5253  0.8089 -0.9975
  158MOL0     H21307   7.282  -0.533   8.185 -1.7151 -0.3617 -0.4130
  158MOL0     H21308   7.285  -0.756   8.376 -0.7726 -0.1034 -1.0852
  158MOL0     H21309   7.406  -0.642   8.395 -0.8735  0.9543 -0.3928
  158MOL0     H21310   7.445  -0.853   8.258  0.0691  0.8271  1.5000
  158MOL0     H21311   7.494  -0.706   8.170  1.9553 -2.9773 -1.7707
  158MOL0     H21312   7.823  -0.275   8.317  0.2670  1.4112  0.4723
  158MOL0     H21313   7.997  -0.297   8.160 -0.5497 -0.3070 -0.2601
  158MOL0     H21314   8.161  -0.311   7.766  0.4490 -0.0141  1.3620
  158MOL0     H21315   8.355  -0.385   7.654 -0.5849 -0.3422 -0.7780
  158MOL0     H21316  10.191  -0.154   8.085 -1.8305  2.5267  0.6621
  158MOL0     H21317  10.425  -0.156   8.029 -0.1820 -2.1070 -0.1014
  158MOL0     H21318  10.814   0.046   7.860 -0.8904 -0.0625  0.2378
  158MOL0     H21319  11.037  -0.006   7.791  1.2267 -0.9540 -0.0010
  158MOL0     H21320  11.297  -0.171   8.078  2.5549 -1.9158  0.9261
  158MOL0     H21321  11.291  -0.326   7.997  3.7315 -0.2049 -1.3352
  158MOL0     H21322  11.425  -0.256   7.810 -1.2016 -0.3123  0.0926
  158MOL0     H21323  11.517  -0.225   7.972 -0.6511  0.8812  1.4516
  158MOL0     H21324  11.406   0.012   7.957  0.5612  0.2824  0.6236
  158MOL0     H21325  11.397  -0.026   7.787 -2.2657 -2.9864  0.0950
  158MOL0     H21326  11.663  -0.049   7.951  1.1255 -0.4126 -0.9340
  158MOL0     H21327  11.610   0.093   7.860  1.8720 -0.1183 -0.3412
  158MOL0     H21328  11.683  -0.158   7.526 -4.7432  0.7199 -0.8006
  158MOL0     H21329  11.092  -0.280   8.125 -0.9704 -0.7244  0.3373
  158MOL0     H21330  10.859  -0.235   8.192  3.1056  1.1317  2.1557
  159MOL0     O21331  10.700   4.439   8.355  0.6241 -0.1428 -0.1095
  159MOL0     C21332  10.713   4.341   8.439 -1.1936  0.3290  0.4110
  159MOL0     O21333  10.610   4.284   8.512  0.3619  0.0474 -0.6821
  159MOL0     C21334  10.476   4.284   8.476  0.0443 -0.8848 -0.2655
  159MOL0     C21335  10.425   4.284   8.349 -0.4373  0.3349 -1.1515
  159MOL0     C21336  10.293   4.267   8.324 -0.5574  0.2406  0.6366
  159MOL0     C21337  10.203   4.265   8.431  0.2032 -0.4927 -0.1517
  159MOL0     O21338  10.071   4.277   8.404  0.2729  0.5036  0.0814
  159MOL0     C21339   9.990   4.180   8.474  0.2369 -0.3624  0.0995
  159MOL0     C21340   9.871   4.124   8.401  0.1524 -0.3500  0.2114
  159MOL0     C21341   9.918   4.092   8.251  1.0503 -0.6631 -0.0233
  159MOL0     C21342   9.788   4.053   8.180  1.2026 -0.6721  0.1196
  159MOL0     C21343   9.803   3.951   8.071  0.3355  0.8858 -0.0090
  159MOL0     C21344   9.665   3.909   8.028 -1.3871  0.4702  0.2881
  159MOL0     C21345   9.666   3.798   7.922 -0.4003  0.3533 -0.5832
  159MOL0     C21346   9.526   3.785   7.856 -0.0852  0.2256 -0.4273
  159MOL0     N21347   9.517   3.665   7.772 -0.3286 -0.2916 -1.0026
  159MOL0     C21348   9.478   3.541   7.817 -0.5548 -0.5395  0.5995
  159MOL0     C21349   9.503   3.454   7.716 -0.8175  0.8255 -0.0269
  159MOL0     C21350   9.454   3.315   7.718  0.1339 -0.2393  1.1455
  159MOL0     C21351   9.315   3.293   7.662  0.6547  0.0473 -0.1886
  159MOL0     C21352   9.268   3.154   7.692  0.5630 -0.0648 -0.4105
  159MOL0     C21353   9.119   3.136   7.649  0.3861  0.5193 -0.2577
  159MOL0     O21354   9.106   3.092   7.514  0.7883 -0.6364  0.0660
  159MOL0     C21355   8.978   3.078   7.453  0.0032 -0.5371 -0.9722
  159MOL0     C21356   8.979   3.043   7.315  0.0752  0.2571 -0.7194
  159MOL0     C21357   8.859   3.021   7.250  0.1888 -0.9291 -0.0906
  159MOL0     C21358   8.867   3.002   7.105 -0.9728  0.8135  0.4963
  159MOL0     C21359   8.734   3.027   7.320  0.0068 -0.5985 -0.4340
  159MOL0     C21360   8.593   2.990   7.272 -0.4836  0.6349  0.8395
  159MOL0     O21361   8.492   3.026   7.350 -0.2966 -0.0818 -0.4151
  159MOL0     C21362   8.363   2.998   7.308  0.7051 -0.3171 -0.2211
  159MOL0     C21363   8.312   2.873   7.274  0.3839 -0.7989 -1.0749
  159MOL0     C21364   8.175   2.870   7.236 -0.1323  0.1840 -1.0380
  159MOL0     C21365   8.092   2.982   7.230  0.0814  0.1154 -0.5195
  159MOL0     O21366   7.957   2.967   7.211  0.6916 -0.4482 -0.3793
  159MOL0     C21367   7.905   3.052   7.103 -0.1204  0.5693 -0.5653
  159MOL0     C21368   7.756   3.029   7.101 -0.3090  0.7679 -0.0563
  159MOL0     C21369   7.704   2.940   6.985 -0.0589  0.0031  0.0049
  159MOL0     C21370   7.558   2.933   7.001 -0.1474 -0.3843 -0.7804
  159MOL0     C21371   7.500   2.846   6.904  0.0096  0.8170  0.4342
  159MOL0     C21372   7.347   2.841   6.917 -0.8352  0.3606  0.2374
  159MOL0     C21373   7.305   2.781   7.055 -0.3663  0.2283  0.4017
  159MOL0     C21374   7.164   2.718   7.056  1.0399 -0.4176  0.8998
  159MOL0    Cl21375   7.048   2.850   6.996  0.9642  0.6054  0.1733
  159MOL0     C21376   8.145   3.109   7.269  0.1147  0.3435 -0.0750
  159MOL0     C21377   8.273   3.111   7.313  0.2945  0.0052 -0.7674
  159MOL0     O21378   8.586   2.940   7.152  0.2193  0.1261 -0.3384
  159MOL0     C21379   8.740   3.082   7.456 -0.4169  0.1361 -0.1111
  159MOL0     C21380   8.856   3.106   7.523 -0.2195 -0.3714  0.1044
  159MOL0     N21381   9.558   3.527   7.612 -0.6771  0.8243 -0.0266
  159MOL0     N21382   9.579   3.647   7.651  0.7833  0.7422  0.9053
  159MOL0     C21383  10.251   4.261   8.564  0.6599  0.3456 -0.2374
  159MOL0     C21384  10.393   4.254   8.588  0.9290 -0.0759  0.3828
  159MOL0     C21385  10.852   4.310   8.466  1.1075  0.3994  0.4436
  159MOL0     C21386  10.959   4.361   8.383 -0.4715  1.5260  0.3898
  159MOL0     C21387  11.090   4.323   8.427 -0.4045  0.0697 -0.0676
  159MOL0     C21388  11.118   4.242   8.536  0.1766 -0.0838  0.5239
  159MOL0     O21389  11.242   4.198   8.572 -0.7951 -0.8119 -0.3243
  159MOL0     C21390  11.354   4.260   8.512  0.1392 -0.0069  0.1452
  159MOL0     C21391  11.469   4.185   8.588 -0.0319  0.0990  0.1512
  159MOL0     C21392  11.606   4.251   8.569 -0.3656 -0.1176 -0.2702
  159MOL0     C21393  11.645   4.248   8.419  0.1015 -0.2717  0.5005
  159MOL0     C21394  11.784   4.302   8.400 -0.1335  0.5450  0.1584
  159MOL0     C21395  11.897   4.347   8.399  1.0657 -0.2275 -0.8241
  159MOL0     C21396  11.011   4.197   8.615 -0.4353 -0.6114  0.0875
  159MOL0     C21397  10.882   4.233   8.577 -0.0813  0.1792  0.5616
  159MOL0     H21398  10.488   4.298   8.261  0.9877 -1.1577 -0.4174
  159MOL0     H21399  10.259   4.278   8.221  0.5875  1.0612  0.3186
  159MOL0     H21400  10.048   4.089   8.493 -2.8197 -2.0100  2.4418
  159MOL0     H21401   9.944   4.214   8.567 -1.6112 -1.5946 -0.3134
  159MOL0     H21402   9.833   4.033   8.450 -1.4202  0.3275  0.2950
  159MOL0     H21403   9.794   4.201   8.408  0.6714  0.2284 -0.3314
  159MOL0     H21404   9.959   4.175   8.192  0.1418 -1.0135 -1.1765
  159MOL0     H21405   9.989   4.009   8.244  0.3490 -1.1987 -1.1510
  159MOL0     H21406   9.710   4.019   8.249  0.3823  0.9238  0.0210
  159MOL0     H21407   9.752   4.146   8.135 -0.9015 -0.5891  1.8178
  159MOL0     H21408   9.865   3.991   7.990  0.0665 -0.8012 -1.1026
  159MOL0     H21409   9.854   3.866   8.119  1.3629  0.4419 -1.7954
  159MOL0     H21410   9.612   3.878   8.119  0.6597  1.1448  1.7788
  159MOL0     H21411   9.623   4.002   7.987  0.8259  2.5813  2.5019
  159MOL0     H21412   9.746   3.804   7.848  0.3236  3.6257  0.3257
  159MOL0     H21413   9.687   3.702   7.972 -2.3968 -0.1034 -0.5164
  159MOL0     H21414   9.504   3.875   7.798  1.7962  1.5579  0.8161
  159MOL0     H21415   9.458   3.766   7.939  0.4014 -2.1763 -0.5025
  159MOL0     H21416   9.443   3.519   7.917 -2.2056 -2.8050 -0.3859
  159MOL0     H21417   9.519   3.257   7.651 -2.0695 -0.4443 -0.9430
  159MOL0     H21418   9.465   3.284   7.822  0.2278  0.0400  1.2207
  159MOL0     H21419   9.318   3.293   7.552 -2.4271  0.5891 -0.3518
  159MOL0     H21420   9.249   3.372   7.699  0.6103  0.1375 -0.4572
  159MOL0     H21421   9.274   3.128   7.798 -2.0286 -0.0561 -0.1961
  159MOL0     H21422   9.331   3.081   7.641  2.9126  1.4351  0.1953
  159MOL0     H21423   9.062   3.228   7.659 -1.4215 -0.5757  0.0229
  159MOL0     H21424   9.080   3.066   7.723  2.7181  0.9692  1.5088
  159MOL0     H21425   9.073   3.022   7.266  1.1920 -2.2567  2.1823
  159MOL0     H21426   8.965   3.039   7.075  0.8260 -2.0926  2.3755
  159MOL0     H21427   8.861   2.897   7.077  0.5456  0.8388 -0.0137
  159MOL0     H21428   8.793   3.062   7.050  1.6188  0.1154 -4.1749
  159MOL0     H21429   8.371   2.782   7.268  1.1070 -0.7168  2.5632
  159MOL0     H21430   8.134   2.772   7.216  0.8041 -0.6137  0.7319
  159MOL0     H21431   7.925   3.159   7.108 -1.0216  0.8093 -1.7132
  159MOL0     H21432   7.949   3.020   7.009  0.3910  0.6075 -0.3386
  159MOL0     H21433   7.738   2.975   7.194 -2.3477  1.8744  0.2409
  159MOL0     H21434   7.707   3.126   7.109 -0.8019  0.5328 -0.1740
  159MOL0     H21435   7.748   2.839   6.978 -1.6590 -0.6274 -1.7358
  159MOL0     H21436   7.719   2.998   6.894  0.6093  3.2439  2.0383
  159MOL0     H21437   7.543   2.901   7.105 -4.9687  3.5696  0.1377
  159MOL0     H21438   7.512   3.031   6.987  1.7757  0.7379  0.2306
  159MOL0     H21439   7.537   2.743   6.905 -1.4280  0.1161 -3.0505
  159MOL0     H21440   7.529   2.885   6.806 -2.2941  0.2807 -0.5380
  159MOL0     H21441   7.306   2.943   6.919  0.1175  0.7598  1.7971
  159MOL0     H21442   7.303   2.799   6.826  3.3408 -2.7624 -0.6046
  159MOL0     H21443   7.313   2.852   7.138 -1.2568  1.6605 -0.6914
  159MOL0     H21444   7.383   2.712   7.088 -0.0221 -0.4055 -1.5903
  159MOL0     H21445   7.133   2.692   7.158 -0.8747  4.7374  1.9503
  159MOL0     H21446   7.142   2.637   6.986 -0.7922  0.2798  0.6176
  159MOL0     H21447   8.076   3.193   7.263 -1.7743 -0.9441  1.9108
  159MOL0     H21448   8.312   3.209   7.341  0.9818 -1.1157  2.6687
  159MOL0     H21449   8.651   3.089   7.517 -0.7604  1.3033 -0.7309
  159MOL0     H21450   8.854   3.145   7.624  0.4781  2.7402 -0.9832
  159MOL0     H21451  10.185   4.251   8.649  0.5070 -2.8375 -0.5981
  159MOL0     H21452  10.451   4.263   8.680  0.2236  2.5883  0.6470
  159MOL0     H21453  10.948   4.425   8.296 -0.3711  1.7056  0.5086
  159MOL0     H21454  11.174   4.377   8.384  0.8720  0.0226  2.2160
  159MOL0     H21455  11.347   4.239   8.405  1.7774 -1.2734  0.2685
  159MOL0     H21456  11.368   4.366   8.536 -4.4312  0.6976  0.7022
  159MOL0     H21457  11.479   4.081   8.553  0.9034  0.2421 -0.0424
  159MOL0     H21458  11.453   4.182   8.696  1.3827  5.3069  0.7595
  159MOL0     H21459  11.676   4.186   8.622 -0.3932  0.2683  0.2346
  159MOL0     H21460  11.600   4.356   8.598 -1.0817  0.1365 -1.2422
  159MOL0     H21461  11.573   4.308   8.362 -1.9555 -1.8032  1.3428
  159MOL0     H21462  11.631   4.150   8.373  1.4989  0.8408 -2.5574
  159MOL0     H21463  11.986   4.404   8.417  0.5215  0.1946  0.6769
  159MOL0     H21464  11.018   4.126   8.697  3.7967 -0.3250  0.2125
  159MOL0     H21465  10.796   4.202   8.635 -2.0359  1.0280 -1.7329
  160MOL0     O21466   3.435   8.313  10.360 -0.3551 -0.8655  0.1502
  160MOL0     C21467   3.517   8.348  10.269 -1.0518 -0.5360  0.0330
  160MOL0     O21468   3.485   8.393  10.139  0.3290  0.1367 -0.7923
  160MOL0     C21469   3.353   8.403  10.109  0.2615  0.0647  0.6377
  160MOL0     C21470   3.292   8.524  10.133 -0.2728  0.8254 -0.9290
  160MOL0     C21471   3.161   8.535  10.096 -0.9105  1.2233 -0.2549
  160MOL0     C21472   3.089   8.432  10.028  0.1850  1.0018  0.3865
  160MOL0     O21473   2.956   8.448   9.986  0.0227  0.1200  0.1852
  160MOL0     C21474   2.875   8.339   9.937 -0.5285 -0.8363  0.0662
  160MOL0     C21475   2.735   8.383   9.889  0.2710 -0.0399  0.4000
  160MOL0     C21476   2.655   8.260   9.838  0.0650 -0.1210 -0.2034
  160MOL0     C21477   2.540   8.294   9.749 -0.5497  0.1076  0.3119
  160MOL0     C21478   2.430   8.352   9.826 -0.0832 -0.3948 -0.1375
  160MOL0     C21479   2.323   8.399   9.734 -1.4134 -0.5024  0.1517
  160MOL0     C21480   2.193   8.413   9.823  0.2502 -0.0922 -0.1597
  160MOL0     C21481   2.097   8.512   9.758  0.3525  0.6166 -0.2349
  160MOL0     N21482   1.959   8.481   9.777  0.3580  0.0283  0.8022
  160MOL0     C21483   1.899   8.371   9.722  0.6173 -0.3325 -0.1483
  160MOL0     C21484   1.777   8.368   9.789  0.2959 -0.0628  0.2640
  160MOL0     C21485   1.682   8.249   9.785 -0.0449 -0.1225 -0.3608
  160MOL0     C21486   1.534   8.284   9.766  0.0948 -0.5141 -0.2174
  160MOL0     C21487   1.468   8.319   9.901 -0.5381  0.0296  0.0758
  160MOL0     C21488   1.314   8.322   9.882 -1.2730 -0.1730  0.2407
  160MOL0     O21489   1.254   8.195   9.863  0.5007 -0.0182  0.1488
  160MOL0     C21490   1.117   8.189   9.862  0.2115 -0.1771  1.1980
  160MOL0     C21491   1.076   8.067   9.808 -0.1435 -0.4975 -0.9680
  160MOL0     C21492   0.944   8.031   9.800  0.3134 -0.6214  0.1499
  160MOL0     C21493   0.908   7.892   9.741  0.2614  0.5598 -0.2583
  160MOL0     C21494   0.849   8.119   9.849 -0.3279 -0.5723 -0.3896
  160MOL0     C21495   0.706   8.078   9.886 -0.2123 -0.9294 -0.2730
  160MOL0     O21496   0.615   8.178   9.873 -0.9884  0.5208 -0.1044
  160MOL0     C21497   0.486   8.145   9.889  0.1214  0.0887 -0.5641
  160MOL0     C21498   0.418   8.186  10.005  0.8340  0.4472  0.1034
  160MOL0     C21499   0.271   8.163  10.010 -1.1200  1.3690 -0.1622
  160MOL0     C21500   0.206   8.086   9.912 -0.3722 -0.5763 -0.6111
  160MOL0     O21501   0.069   8.062   9.945  0.1983 -0.3132  0.2401
  160MOL0     C21502  -0.004   7.979   9.859 -0.4337 -0.6658 -0.0986
  160MOL0     C21503  -0.146   7.971   9.913 -0.1350 -0.1495 -0.3255
  160MOL0     C21504  -0.227   8.099   9.878  0.4802  0.6100  0.1624
  160MOL0     C21505  -0.376   8.083   9.928  0.1873 -0.6411 -0.2463
  160MOL0     C21506  -0.453   8.225   9.939 -0.0027  0.0468  0.4417
  160MOL0     C21507  -0.394   8.321  10.030  0.0504 -0.4857 -0.3175
  160MOL0     C21508  -0.488   8.429  10.081  0.0070 -0.2000 -0.1839
  160MOL0     C21509  -0.420   8.517  10.185 -0.2220 -0.1796 -0.5544
  160MOL0    Cl21510  -0.349   8.444  10.330  0.1276  0.4396  0.0179
  160MOL0     C21511   0.280   8.039   9.799  0.0645 -0.1380  0.2211
  160MOL0     C21512   0.417   8.069   9.797  0.3120 -0.2426 -0.0109
  160MOL0     O21513   0.688   7.970   9.942 -0.4223 -0.3599  0.0689
  160MOL0     C21514   0.889   8.245   9.900 -1.4186 -0.0025 -0.2710
  160MOL0     C21515   1.021   8.279   9.901  0.3697 -0.6098  0.5349
  160MOL0     N21516   1.773   8.474   9.880 -0.5158  0.2499  0.4999
  160MOL0     N21517   1.881   8.545   9.867  0.4214  0.0502 -0.3702
  160MOL0     C21518   3.151   8.309  10.010 -0.0942 -0.5019 -0.9376
  160MOL0     C21519   3.279   8.303  10.043 -1.9705 -0.6681 -0.1744
  160MOL0     C21520   3.657   8.352  10.314 -0.5329 -0.3592  0.6254
  160MOL0     C21521   3.743   8.449  10.267 -1.0666  0.0128  0.1511
  160MOL0     C21522   3.886   8.435  10.297 -0.3680 -0.8514  0.1759
  160MOL0     C21523   3.936   8.347  10.395  0.0706  0.1614  0.1413
  160MOL0     O21524   4.056   8.332  10.446 -0.2879  0.0888  0.0747
  160MOL0     C21525   4.145   8.441  10.412  0.7170  0.2977  0.2956
  160MOL0     C21526   4.265   8.428  10.500  0.0967  0.2458  0.1797
  160MOL0     C21527   4.359   8.543  10.473 -0.8552  0.3924  0.2672
  160MOL0     C21528   4.309   8.671  10.545  0.2158  0.0149 -0.3039
  160MOL0     C21529   4.420   8.764  10.574  0.5715  0.2007  0.0384
  160MOL0     C21530   4.484   8.867  10.567  0.5421 -0.5480  0.4836
  160MOL0     C21531   3.840   8.267  10.457  0.1070 -1.1776 -0.7966
  160MOL0     C21532   3.703   8.279  10.421  0.3888  0.8848 -0.2617
  160MOL0     H21533   3.349   8.599  10.186 -1.8597 -0.3683  2.7573
  160MOL0     H21534   3.106   8.627  10.112 -0.2584  1.3625  1.4771
  160MOL0     H21535   2.923   8.309   9.843  1.9323  1.4604  0.4786
  160MOL0     H21536   2.858   8.263  10.013  0.2439 -0.6642  0.4203
  160MOL0     H21537   2.688   8.428   9.978 -0.8459 -4.4705  2.3601
  160MOL0     H21538   2.744   8.459   9.811 -1.0112 -1.1432 -0.8929
  160MOL0     H21539   2.708   8.187   9.776 -1.2138  0.9114 -2.6493
  160MOL0     H21540   2.616   8.202   9.922 -0.5302 -0.1543 -0.4987
  160MOL0     H21541   2.569   8.363   9.669 -0.8876  1.8115  1.5964
  160MOL0     H21542   2.499   8.200   9.710 -0.1063 -0.5949  1.4752
  160MOL0     H21543   2.391   8.272   9.889  2.1616 -0.8503  0.7650
  160MOL0     H21544   2.478   8.427   9.888  1.0253 -0.5018 -0.8384
  160MOL0     H21545   2.362   8.492   9.692  1.8241 -2.3186 -1.2479
  160MOL0     H21546   2.302   8.319   9.662 -1.5009  0.7169 -1.2189
  160MOL0     H21547   2.131   8.324   9.840 -3.0856  1.5782 -2.5117
  160MOL0     H21548   2.232   8.451   9.917 -0.5687 -1.7997  0.9233
  160MOL0     H21549   2.111   8.500   9.650 -1.5899 -3.1554 -0.2393
  160MOL0     H21550   2.123   8.611   9.796  4.2017 -0.8967  1.6757
  160MOL0     H21551   1.931   8.297   9.649 -2.6649 -1.7667 -0.3204
  160MOL0     H21552   1.708   8.175   9.708 -0.6922  0.0052 -0.7176
  160MOL0     H21553   1.694   8.191   9.877 -1.5162  1.0001  0.5730
  160MOL0     H21554   1.492   8.194   9.720 -0.1207  0.2973 -1.6815
  160MOL0     H21555   1.523   8.373   9.703 -1.2848 -0.9243 -0.5844
  160MOL0     H21556   1.501   8.416   9.940  0.4507  0.0730 -0.8262
  160MOL0     H21557   1.489   8.253   9.986 -1.5407  1.3731  1.4348
  160MOL0     H21558   1.293   8.394   9.802  0.3266 -0.7621 -0.7611
  160MOL0     H21559   1.275   8.364   9.975  0.9319  0.8665  0.7565
  160MOL0     H21560   1.162   8.008   9.776 -1.4905 -2.8774 -0.4411
  160MOL0     H21561   0.816   7.886   9.683  1.3625  1.1660 -2.1415
  160MOL0     H21562   0.982   7.855   9.669 -0.2054 -0.9110 -0.0263
  160MOL0     H21563   0.911   7.810   9.814 -0.7198 -0.1270 -0.9510
  160MOL0     H21564   0.465   8.241  10.086  1.2759  3.1401 -1.8514
  160MOL0     H21565   0.201   8.195  10.087 -3.3183 -0.1266 -1.4127
  160MOL0     H21566  -0.007   8.026   9.761  3.4817  0.1909  0.0233
  160MOL0     H21567   0.044   7.881   9.848  1.1093 -0.0946  1.1228
  160MOL0     H21568  -0.201   7.887   9.870  0.0230  0.0551 -0.9401
  160MOL0     H21569  -0.142   7.952  10.021  0.0326  1.1274 -0.0886
  160MOL0     H21570  -0.231   8.101   9.769  0.3633 -1.4132  0.0900
  160MOL0     H21571  -0.183   8.190   9.920  3.6917  0.4553 -2.4852
  160MOL0     H21572  -0.430   8.010   9.866  0.5204 -0.0832 -1.2204
  160MOL0     H21573  -0.376   8.054  10.033 -1.9344  0.2208  0.0339
  160MOL0     H21574  -0.551   8.204   9.983  0.6116 -0.3974  1.6109
  160MOL0     H21575  -0.474   8.276   9.844  1.5997  2.5128  1.3275
  160MOL0     H21576  -0.350   8.282  10.122 -0.6720  1.1437  0.7769
  160MOL0     H21577  -0.309   8.363   9.976  0.6802 -2.4991 -0.9754
  160MOL0     H21578  -0.576   8.382  10.126 -0.2094 -1.6532 -2.0243
  160MOL0     H21579  -0.520   8.491   9.997  2.9986  0.3978 -1.0005
  160MOL0     H21580  -0.483   8.599  10.220  1.3507 -0.2846  2.9019
  160MOL0     H21581  -0.329   8.554  10.137 -0.2309  0.7987  0.1580
  160MOL0     H21582   0.243   7.974   9.720 -3.1960 -1.1114  2.3334
  160MOL0     H21583   0.467   8.017   9.716  0.9971  1.9717 -1.0712
  160MOL0     H21584   0.811   8.311   9.938  1.0236  2.9263 -0.0055
  160MOL0     H21585   1.040   8.376   9.946 -0.6887 -1.3690  2.7461
  160MOL0     H21586   3.109   8.226   9.956  0.0654  0.3871 -2.4968
  160MOL0     H21587   3.329   8.208  10.023  0.0716  0.3539 -0.1681
  160MOL0     H21588   3.717   8.528  10.197  0.5109  0.5475  0.1373
  160MOL0     H21589   3.948   8.510  10.248 -4.4447  0.8138 -2.9627
  160MOL0     H21590   4.167   8.436  10.305 -0.4762  1.7113 -0.0533
  160MOL0     H21591   4.096   8.539  10.421  0.9149  0.3299  1.0949
  160MOL0     H21592   4.310   8.330  10.483 -1.2479 -0.3465 -0.1258
  160MOL0     H21593   4.230   8.419  10.603 -2.2940 -2.5264 -0.7138
  160MOL0     H21594   4.385   8.564  10.369 -1.3109 -0.2518  0.0198
  160MOL0     H21595   4.453   8.511  10.517 -2.6215 -1.4009  3.0952
  160MOL0     H21596   4.262   8.649  10.641 -1.2035  1.6853 -0.5669
  160MOL0     H21597   4.237   8.719  10.478 -2.2183 -3.6254 -0.6106
  160MOL0     H21598   4.533   8.962  10.554 -2.7455  1.5689  2.2684
  160MOL0     H21599   3.868   8.197  10.535 -1.6509  0.4261  1.4077
  160MOL0     H21600   3.642   8.208  10.476 -2.7137  2.6519 -1.1832
  161MOL0     O21601  10.340   0.754  11.246 -0.1946  0.3202  0.3926
  161MOL0     C21602  10.350   0.856  11.312  0.3667 -0.7420 -1.0445
  161MOL0     O21603  10.263   0.888  11.418 -0.4191 -0.1470 -0.1037
  161MOL0     C21604  10.158   0.802  11.430 -0.0463 -0.5203 -0.0595
  161MOL0     C21605  10.170   0.681  11.504  0.1618  0.2728 -0.4753
  161MOL0     C21606  10.064   0.598  11.524 -0.4473  1.2677  0.0345
  161MOL0     C21607   9.942   0.629  11.474  0.5684 -0.9092 -0.1262
  161MOL0     O21608   9.829   0.556  11.503 -0.2604  0.5222  0.1125
  161MOL0     C21609   9.738   0.522  11.403  0.5295 -0.1814 -0.0740
  161MOL0     C21610   9.642   0.417  11.450 -0.3527  0.1059 -0.2071
  161MOL0     C21611   9.516   0.403  11.355 -0.3143  0.8253  0.5617
  161MOL0     C21612   9.425   0.293  11.394  0.6615 -0.0337  0.3261
  161MOL0     C21613   9.303   0.346  11.480 -0.2004  0.6899 -0.2438
  161MOL0     C21614   9.178   0.335  11.395  0.0304  0.1571 -0.0742
  161MOL0     C21615   9.052   0.372  11.464 -0.2078  0.3382  0.1650
  161MOL0     C21616   8.929   0.316  11.395  0.7074  0.1182  0.6110
  161MOL0     N21617   8.802   0.356  11.452  0.3763  0.0421 -0.0106
  161MOL0     C21618   8.687   0.408  11.395  0.4671 -0.8653 -0.8549
  161MOL0     C21619   8.595   0.415  11.495  0.1431  1.3803 -0.2847
  161MOL0     C21620   8.464   0.482  11.494 -0.2180  0.2272  0.2804
  161MOL0     C21621   8.342   0.388  11.531 -0.4952  0.4016  0.6925
  161MOL0     C21622   8.315   0.275  11.432  0.2826 -0.9991 -0.3116
  161MOL0     C21623   8.202   0.196  11.493  0.4409  0.0867 -0.1846
  161MOL0     O21624   8.097   0.280  11.542  0.8954 -1.1570 -0.2501
  161MOL0     C21625   7.974   0.213  11.577 -0.7874  0.4462 -0.0766
  161MOL0     C21626   7.865   0.297  11.610 -0.0389  0.3681 -0.5138
  161MOL0     C21627   7.748   0.242  11.670 -0.6378  0.3204 -0.2344
  161MOL0     C21628   7.642   0.338  11.730  1.0183  1.1444 -0.6452
  161MOL0     C21629   7.729   0.106  11.667  0.2499  0.1422 -0.2174
  161MOL0     C21630   7.605   0.057  11.724  0.5069  0.3516 -0.3706
  161MOL0     O21631   7.483   0.094  11.676 -0.0952  0.0499  0.6849
  161MOL0     C21632   7.376   0.021  11.719  0.7328  0.3929  0.7846
  161MOL0     C21633   7.331  -0.093  11.658 -0.5598 -0.5620 -0.3550
  161MOL0     C21634   7.219  -0.163  11.697 -0.4716 -0.0769  0.1523
  161MOL0     C21635   7.140  -0.113  11.798 -0.4248  0.9000  0.2662
  161MOL0     O21636   7.008  -0.161  11.835 -0.3535  0.5114 -0.2255
  161MOL0     C21637   6.938  -0.241  11.740  0.1125 -0.3297 -0.0992
  161MOL0     C21638   6.801  -0.261  11.800 -0.7131  0.4622 -0.1847
  161MOL0     C21639   6.695  -0.316  11.699 -1.1517  0.0700 -0.0154
  161MOL0     C21640   6.550  -0.301  11.756  0.1866 -0.0326 -0.7688
  161MOL0     C21641   6.450  -0.366  11.663 -0.3177 -0.4273  0.7334
  161MOL0     C21642   6.327  -0.405  11.748  0.0559 -0.0140 -0.0842
  161MOL0     C21643   6.239  -0.490  11.656 -0.5736  0.1459  0.7350
  161MOL0     C21644   6.103  -0.540  11.709  0.1739  0.5115  0.6314
  161MOL0    Cl21645   5.995  -0.392  11.742 -0.0996 -0.0154 -0.4943
  161MOL0     C21646   7.179   0.001  11.860 -0.6560  0.1913 -0.8512
  161MOL0     C21647   7.300   0.064  11.827  0.5936  0.5170  0.0326
  161MOL0     O21648   7.624  -0.028  11.813 -0.1292 -0.3441  0.4937
  161MOL0     C21649   7.826   0.022  11.614  0.0914 -0.0856  0.6817
  161MOL0     C21650   7.950   0.073  11.575  0.3546 -0.3144 -0.1378
  161MOL0     N21651   8.648   0.365  11.610 -0.0962 -0.2936 -0.4933
  161MOL0     N21652   8.772   0.336  11.580  0.1790  0.4032 -0.1734
  161MOL0     C21653   9.921   0.749  11.398  0.3614 -0.5916  1.0196
  161MOL0     C21654  10.037   0.836  11.380  1.2085  0.0684 -0.0096
  161MOL0     C21655  10.465   0.943  11.287 -0.2062  0.1888 -0.0168
  161MOL0     C21656  10.543   0.931  11.168 -0.0111 -0.5735 -0.1557
  161MOL0     C21657  10.665   0.993  11.155  0.4554  0.2399  0.1229
  161MOL0     C21658  10.704   1.091  11.246 -0.2929  0.6298  0.6822
  161MOL0     O21659  10.820   1.164  11.236 -0.0905  0.3922 -0.5115
  161MOL0     C21660  10.927   1.103  11.172 -0.2249 -0.6944  0.2696
  161MOL0     C21661  11.056   1.185  11.205  1.0382 -0.5200 -0.5755
  161MOL0     C21662  11.092   1.182  11.352 -0.1426 -0.0278  0.1415
  161MOL0     C21663  11.204   1.287  11.377  0.6123 -0.3917 -1.1277
  161MOL0     C21664  11.216   1.330  11.517  0.2164  0.1232  1.1711
  161MOL0     C21665  11.228   1.371  11.629  0.8191 -0.2669 -0.4610
  161MOL0     C21666  10.619   1.111  11.355  0.1920  0.2228  0.2640
  161MOL0     C21667  10.507   1.045  11.376  0.0337  0.4957 -0.4853
  161MOL0     H21668  10.263   0.646  11.548 -0.0879  2.7314  2.2962
  161MOL0     H21669  10.060   0.501  11.572 -0.2447  0.2543 -1.9140
  161MOL0     H21670   9.674   0.603  11.365 -3.1984 -3.5084 -1.6325
  161MOL0     H21671   9.795   0.489  11.316 -1.3118  1.1582 -1.8722
  161MOL0     H21672   9.695   0.322  11.446  3.8030  2.2117 -0.7907
  161MOL0     H21673   9.616   0.435  11.555 -2.0626 -1.8957 -0.2355
  161MOL0     H21674   9.467   0.501  11.361 -2.6118 -0.1288 -1.1404
  161MOL0     H21675   9.543   0.384  11.251 -2.0458  0.2528  0.1870
  161MOL0     H21676   9.389   0.230  11.312 -2.3755 -0.6092  1.9367
  161MOL0     H21677   9.483   0.235  11.467  0.5554 -0.0752  0.3778
  161MOL0     H21678   9.295   0.288  11.573 -1.6042  1.0857 -0.0910
  161MOL0     H21679   9.315   0.450  11.512  0.8017  0.9402 -1.3882
  161MOL0     H21680   9.184   0.389  11.300 -3.0637  0.5200 -0.1750
  161MOL0     H21681   9.168   0.229  11.372  1.6864 -0.7451  2.8482
  161MOL0     H21682   9.040   0.343  11.569 -1.2801 -1.4264 -0.4012
  161MOL0     H21683   9.055   0.481  11.459 -3.6634  0.4674 -2.2295
  161MOL0     H21684   8.924   0.207  11.387  0.9958  0.1755 -0.4798
  161MOL0     H21685   8.923   0.358  11.294 -2.6500 -1.5017 -0.0011
  161MOL0     H21686   8.656   0.439  11.296 -2.4653  3.2341  1.0425
  161MOL0     H21687   8.468   0.549  11.580 -0.1250 -1.4933  1.6712
  161MOL0     H21688   8.456   0.543  11.404 -1.6982  0.7357  0.7330
  161MOL0     H21689   8.260   0.461  11.533 -0.6436  0.3128 -0.8244
  161MOL0     H21690   8.349   0.349  11.633  0.8159 -1.7597 -0.1608
  161MOL0     H21691   8.402   0.212  11.411  0.5292 -0.1622 -1.9404
  161MOL0     H21692   8.287   0.319  11.335 -1.4208 -2.4209 -0.5133
  161MOL0     H21693   8.236   0.132  11.574 -2.1645  0.4389  1.2965
  161MOL0     H21694   8.162   0.126  11.419  0.4401 -1.7426  1.4734
  161MOL0     H21695   7.868   0.405  11.603  1.6621  0.4680  1.0491
  161MOL0     H21696   7.555   0.342  11.665  0.8038  1.2292 -0.3555
  161MOL0     H21697   7.620   0.296  11.829  2.5121 -3.8640 -2.1140
  161MOL0     H21698   7.675   0.440  11.748 -0.0875  1.3315  0.4765
  161MOL0     H21699   7.389  -0.121  11.570  0.2155 -1.4838  0.4377
  161MOL0     H21700   7.206  -0.262  11.655 -0.0154 -0.9627  1.9836
  161MOL0     H21701   6.938  -0.184  11.647 -1.1089 -0.2706 -0.0819
  161MOL0     H21702   6.982  -0.339  11.717  0.7721  0.4107 -2.1806
  161MOL0     H21703   6.817  -0.326  11.887  1.0640 -0.6813 -1.3186
  161MOL0     H21704   6.759  -0.164  11.830 -2.2343 -0.5031  0.9470
  161MOL0     H21705   6.726  -0.419  11.676  1.4569  0.5898  0.7690
  161MOL0     H21706   6.691  -0.254  11.609 -1.1922  0.3513  0.1789
  161MOL0     H21707   6.546  -0.337  11.860 -2.6293 -0.2709 -0.8828
  161MOL0     H21708   6.516  -0.197  11.757 -2.1795 -0.7183  0.6522
  161MOL0     H21709   6.495  -0.456  11.622  3.9131  1.6641  0.1815
  161MOL0     H21710   6.421  -0.297  11.582 -0.8203 -0.0860  1.1937
  161MOL0     H21711   6.374  -0.463  11.827  1.2207 -0.5088 -1.1079
  161MOL0     H21712   6.293  -0.307  11.782  1.8661  1.2984 -1.8375
  161MOL0     H21713   6.294  -0.583  11.639 -2.6806 -1.4864  2.2362
  161MOL0     H21714   6.224  -0.441  11.560  0.5322 -3.9365 -1.7758
  161MOL0     H21715   6.129  -0.593  11.801 -1.7142  0.3039  1.0868
  161MOL0     H21716   6.066  -0.611  11.635  0.9071  0.4655  0.3044
  161MOL0     H21717   7.120   0.035  11.944  1.1040  1.4889 -0.0781
  161MOL0     H21718   7.315   0.162  11.872 -3.8641  0.2688  2.7498
  161MOL0     H21719   7.818  -0.087  11.613  0.4578 -0.1258  1.2859
  161MOL0     H21720   8.029   0.001  11.555 -1.8815 -3.2758  0.9115
  161MOL0     H21721   9.831   0.785  11.350  0.9301  1.4625  1.3561
  161MOL0     H21722  10.026   0.928  11.322 -1.2777 -1.2888 -1.8890
  161MOL0     H21723  10.532   0.852  11.094  0.0738  0.3677 -1.1898
  161MOL0     H21724  10.719   0.959  11.068  0.4811 -0.8218  0.5341
  161MOL0     H21725  10.925   0.995  11.187  0.9117 -1.1943 -2.4460
  161MOL0     H21726  10.903   1.129  11.068  0.4354 -1.4655 -0.1009
  161MOL0     H21727  11.033   1.288  11.176  2.9179 -0.1437 -0.8482
  161MOL0     H21728  11.145   1.148  11.152  2.5416  0.4495  1.1843
  161MOL0     H21729  11.133   1.085  11.381 -1.7550 -1.3857 -1.7543
  161MOL0     H21730  11.008   1.193  11.422  0.9336  0.0180  1.4544
  161MOL0     H21731  11.191   1.376  11.314 -0.6370  1.1425  1.1382
  161MOL0     H21732  11.294   1.232  11.347 -0.1958 -0.9995 -2.5344
  161MOL0     H21733  11.223   1.395  11.733 -0.3186  1.9022 -0.9580
  161MOL0     H21734  10.646   1.183  11.432 -4.2607  2.4397  0.0398
  161MOL0     H21735  10.448   1.061  11.465 -1.7129 -3.3211 -0.7344
  162MOL0     O21736   6.378   6.103   4.961 -0.1632 -0.4748  0.4044
  162MOL0     C21737   6.403   6.178   4.865 -0.1070  0.5164  0.3919
  162MOL0     O21738   6.320   6.195   4.757  0.3738  0.0564 -0.4123
  162MOL0     C21739   6.185   6.188   4.774  0.6652  0.6758 -0.3192
  162MOL0     C21740   6.119   6.192   4.896  0.9797 -0.7703 -0.1635
  162MOL0     C21741   5.983   6.179   4.902 -0.4076 -0.3419  0.3104
  162MOL0     C21742   5.905   6.153   4.789 -0.7745  0.3241  0.1159
  162MOL0     O21743   5.771   6.131   4.785 -0.7091  0.3191  0.3116
  162MOL0     C21744   5.715   6.062   4.903 -0.5774  0.3474  0.5007
  162MOL0     C21745   5.576   6.022   4.863 -0.4010  0.0654 -0.2271
  162MOL0     C21746   5.451   6.106   4.890 -0.2255  0.4552 -0.2448
  162MOL0     C21747   5.413   6.107   5.036  0.1172 -0.1648 -0.2377
  162MOL0     C21748   5.292   6.210   5.050  0.1365  0.2620 -0.1576
  162MOL0     C21749   5.155   6.141   5.057  0.4079  0.0425 -0.7746
  162MOL0     C21750   5.051   6.244   5.109 -0.4648  0.0343 -0.0919
  162MOL0     C21751   4.903   6.213   5.077  0.2164 -0.6009 -0.0874
  162MOL0     N21752   4.812   6.328   5.109 -0.0098 -0.2549 -0.2130
  162MOL0     C21753   4.825   6.457   5.066  0.4217  0.1676 -0.1369
  162MOL0     C21754   4.709   6.524   5.101  0.1828 -0.2002  0.0220
  162MOL0     C21755   4.682   6.668   5.071  0.6667  0.6050 -0.1413
  162MOL0     C21756   4.778   6.751   5.153  0.0768 -0.8293 -0.7238
  162MOL0     C21757   4.740   6.902   5.148 -0.1327 -0.5457 -0.0120
  162MOL0     C21758   4.627   6.948   5.248  0.5022  0.6137  0.4099
  162MOL0     O21759   4.601   7.088   5.241  0.2833 -0.4166  0.8044
  162MOL0     C21760   4.527   7.152   5.142 -0.3296  0.4595  0.1913
  162MOL0     C21761   4.430   7.092   5.076  0.3597 -1.2436  0.5896
  162MOL0     C21762   4.349   7.161   4.977 -0.1241 -0.9962 -0.3779
  162MOL0     C21763   4.235   7.080   4.922 -0.6540  0.2163  0.9484
  162MOL0     C21764   4.383   7.296   4.950 -0.1078 -0.0420 -0.6286
  162MOL0     C21765   4.298   7.378   4.858 -0.0820  0.0471  0.5356
  162MOL0     O21766   4.345   7.510   4.837  0.6380 -0.3111 -0.2395
  162MOL0     C21767   4.256   7.604   4.780 -0.3489  0.1282 -0.3202
  162MOL0     C21768   4.211   7.591   4.648 -0.1831 -0.5980 -0.3459
  162MOL0     C21769   4.128   7.693   4.591  0.0615  0.0386  0.0258
  162MOL0     C21770   4.106   7.815   4.653 -0.2399  0.2479  0.7561
  162MOL0     O21771   4.023   7.891   4.575  0.0545 -0.7746  0.2466
  162MOL0     C21772   4.048   8.036   4.586 -0.3243  0.6180 -0.1991
  162MOL0     C21773   3.940   8.108   4.511 -0.4267  0.4492  0.4704
  162MOL0     C21774   3.949   8.100   4.352 -0.5168 -0.6110 -0.7552
  162MOL0     C21775   3.868   8.218   4.297 -0.1421  0.4795 -0.1351
  162MOL0     C21776   3.858   8.201   4.148  0.9709 -0.2590 -0.0946
  162MOL0     C21777   3.763   8.083   4.110 -0.0104 -0.0101 -0.7582
  162MOL0     C21778   3.711   8.102   3.970  0.3755 -0.2986  0.4068
  162MOL0     C21779   3.801   8.053   3.856  0.8322  0.0392  0.0960
  162MOL0    Cl21780   3.808   7.876   3.848  0.2897  0.2492 -0.3805
  162MOL0     C21781   4.154   7.832   4.784  0.3430 -0.0003  0.6032
  162MOL0     C21782   4.224   7.725   4.846 -0.8324 -0.9095  0.4679
  162MOL0     O21783   4.195   7.327   4.802 -0.2073  0.2288  0.1317
  162MOL0     C21784   4.485   7.359   5.025  0.4701 -0.5201 -0.2298
  162MOL0     C21785   4.551   7.284   5.125  0.3022 -0.6413  0.0356
  162MOL0     N21786   4.622   6.421   5.151  0.0050  0.7787  0.2378
  162MOL0     N21787   4.688   6.308   5.162 -0.7196  0.9255 -0.4752
  162MOL0     C21788   5.964   6.145   4.668 -0.3171  0.4227  0.5737
  162MOL0     C21789   6.105   6.162   4.659  0.5260  0.3746  0.5356
  162MOL0     C21790   6.537   6.232   4.850 -0.2938 -0.4830  0.3270
  162MOL0     C21791   6.628   6.216   4.955  0.0019  0.0143 -0.0732
  162MOL0     C21792   6.758   6.251   4.940 -0.1448 -0.4537 -0.7847
  162MOL0     C21793   6.809   6.291   4.818 -0.4474  1.1015  0.1856
  162MOL0     O21794   6.947   6.309   4.809  0.2471 -0.0007  0.4481
  162MOL0     C21795   7.010   6.268   4.681  0.0244 -0.4755 -1.2536
  162MOL0     C21796   6.984   6.124   4.651 -0.5175  0.4768  0.2006
  162MOL0     C21797   7.072   6.031   4.729  1.0855 -0.3041 -0.0276
  162MOL0     C21798   7.097   5.910   4.640  0.4416 -1.0287  0.4985
  162MOL0     C21799   7.177   5.813   4.715 -0.2550  0.9264  0.1835
  162MOL0     C21800   7.226   5.726   4.783 -0.0925 -0.2278  0.0553
  162MOL0     C21801   6.715   6.310   4.711  0.0797 -0.3209  0.0889
  162MOL0     C21802   6.581   6.275   4.728  0.7146 -0.5127  0.2300
  162MOL0     H21803   6.172   6.203   4.990  0.4787  0.3694  0.0097
  162MOL0     H21804   5.951   6.200   5.003  0.6712  1.2651  0.3362
  162MOL0     H21805   5.764   5.967   4.926 -2.7394 -0.6509  1.2606
  162MOL0     H21806   5.695   6.130   4.986  0.3938  1.3775 -0.0745
  162MOL0     H21807   5.583   6.011   4.754  0.8925  0.6243 -0.2213
  162MOL0     H21808   5.563   5.924   4.908 -0.0425 -0.4017 -1.1204
  162MOL0     H21809   5.464   6.210   4.857 -0.8594  1.8002  3.3386
  162MOL0     H21810   5.370   6.060   4.832  1.4978  1.0365 -3.3493
  162MOL0     H21811   5.381   6.006   5.063  1.0346 -0.9669 -2.0009
  162MOL0     H21812   5.499   6.131   5.100 -0.9612  0.2293  1.1114
  162MOL0     H21813   5.298   6.265   5.144 -2.4299  0.0458  0.1871
  162MOL0     H21814   5.292   6.287   4.972 -4.2199 -1.1997 -1.8846
  162MOL0     H21815   5.137   6.096   4.959  1.5583 -2.1751 -0.0468
  162MOL0     H21816   5.157   6.061   5.131 -1.0064  1.5051  0.9312
  162MOL0     H21817   5.063   6.254   5.217 -0.6281 -1.2131  0.0555
  162MOL0     H21818   5.085   6.336   5.060  1.1386 -0.6223 -0.3031
  162MOL0     H21819   4.878   6.117   5.122  1.7988 -0.6098  0.8505
  162MOL0     H21820   4.885   6.198   4.971 -1.1040 -1.8674  0.2889
  162MOL0     H21821   4.900   6.504   5.004 -2.0806  5.9780  0.5518
  162MOL0     H21822   4.698   6.693   4.966 -1.3586  1.2530 -0.3426
  162MOL0     H21823   4.581   6.698   5.099  0.3038 -1.1142  0.5278
  162MOL0     H21824   4.878   6.744   5.110 -0.4296  1.1568 -2.4423
  162MOL0     H21825   4.775   6.726   5.259 -1.8658  2.0170  0.0419
  162MOL0     H21826   4.717   6.928   5.045  2.6623  0.1382 -0.5597
  162MOL0     H21827   4.834   6.952   5.173 -0.2233  0.1646 -1.0620
  162MOL0     H21828   4.659   6.925   5.350  0.1597 -1.2046  0.1430
  162MOL0     H21829   4.540   6.886   5.222  0.0396  1.4315 -0.0336
  162MOL0     H21830   4.405   6.989   5.099 -0.8943 -1.5163 -1.6409
  162MOL0     H21831   4.248   6.975   4.950  1.1278 -0.3781 -1.7264
  162MOL0     H21832   4.143   7.132   4.950 -0.4185  2.6576 -2.2328
  162MOL0     H21833   4.240   7.086   4.813 -1.5381 -0.4036  0.8660
  162MOL0     H21834   4.237   7.513   4.577 -0.4425  2.5475 -4.2542
  162MOL0     H21835   4.089   7.674   4.492  1.8159 -0.9142 -0.5257
  162MOL0     H21836   4.056   8.071   4.689 -3.1212 -3.6845  1.7608
  162MOL0     H21837   4.141   8.060   4.533  0.0105  0.2296  0.2086
  162MOL0     H21838   3.842   8.063   4.532 -0.2253  0.2079  0.9100
  162MOL0     H21839   3.931   8.216   4.526  1.8018  0.8464 -0.7337
  162MOL0     H21840   3.911   8.003   4.320 -3.0775  0.2708 -0.5563
  162MOL0     H21841   4.050   8.103   4.310 -1.0605  0.0794 -2.0639
  162MOL0     H21842   3.769   8.219   4.343 -0.4057  0.3397 -0.6907
  162MOL0     H21843   3.903   8.319   4.316  0.4503  0.4316 -0.8895
  162MOL0     H21844   3.958   8.189   4.106  1.8452  0.8799  1.5724
  162MOL0     H21845   3.810   8.296   4.120 -1.1101 -0.8264  1.2943
  162MOL0     H21846   3.804   7.982   4.118  1.8635  0.8280  1.4356
  162MOL0     H21847   3.672   8.097   4.169  0.5441 -1.8427  0.6360
  162MOL0     H21848   3.707   8.210   3.951 -2.8243  0.1660  2.8785
  162MOL0     H21849   3.612   8.060   3.950  1.0406 -1.6679 -0.1591
  162MOL0     H21850   3.901   8.098   3.854  0.5033  0.7742 -0.2083
  162MOL0     H21851   3.744   8.082   3.767 -2.4580 -1.2404  1.6142
  162MOL0     H21852   4.137   7.923   4.841 -2.3448 -0.2271  0.3248
  162MOL0     H21853   4.253   7.760   4.944  2.5517  0.2341 -0.7827
  162MOL0     H21854   4.510   7.464   5.010 -1.0318  0.0201  0.7476
  162MOL0     H21855   4.621   7.329   5.194  0.3631  0.6045 -0.8039
  162MOL0     H21856   5.898   6.124   4.584 -0.2352  1.9129  0.1027
  162MOL0     H21857   6.167   6.149   4.571  2.1046  2.1808  1.3063
  162MOL0     H21858   6.598   6.178   5.052 -0.2690  1.7820  0.5655
  162MOL0     H21859   6.824   6.248   5.026 -0.7297  3.0798 -0.0448
  162MOL0     H21860   6.983   6.339   4.603  2.4179 -0.8945 -2.5599
  162MOL0     H21861   7.118   6.278   4.696 -0.3130  0.4806  1.0222
  162MOL0     H21862   6.983   6.108   4.542 -2.9869  3.0772 -0.2819
  162MOL0     H21863   6.881   6.100   4.680  0.3721  0.5307  3.7823
  162MOL0     H21864   7.020   5.998   4.819  2.9746  2.1199  2.1161
  162MOL0     H21865   7.169   6.077   4.751  1.0161  0.9990 -2.1577
  162MOL0     H21866   7.149   5.938   4.548  0.0547 -1.7009  0.0601
  162MOL0     H21867   7.011   5.849   4.610 -0.2071 -0.3921  1.0511
  162MOL0     H21868   7.273   5.648   4.841 -0.1338  0.1938  0.6660
  162MOL0     H21869   6.743   6.346   4.613  0.0834  0.6522  0.4343
  162MOL0     H21870   6.514   6.297   4.646  2.6011  1.9934 -0.7796
  163MOL0     O21871   2.063   1.674   7.892 -0.1024  0.7817 -0.3016
  163MOL0     C21872   2.143   1.641   7.805  0.0659 -0.8512  0.3362
  163MOL0     O21873   2.111   1.584   7.683 -0.1290 -0.1243 -0.2941
  163MOL0     C21874   1.989   1.537   7.654  0.0473 -0.5635  0.2004
  163MOL0     C21875   1.916   1.455   7.743 -0.0941 -0.0531 -0.2739
  163MOL0     C21876   1.788   1.411   7.708  0.2024  0.7355  0.2541
  163MOL0     C21877   1.736   1.446   7.586 -0.0612 -0.0675  0.8605
  163MOL0     O21878   1.606   1.403   7.562 -0.7072  1.1433 -0.2964
  163MOL0     C21879   1.542   1.463   7.451  1.0262 -0.9967  0.4974
  163MOL0     C21880   1.383   1.456   7.441 -0.1996  0.2009  0.0314
  163MOL0     C21881   1.339   1.351   7.342  0.1492 -0.4170 -0.4383
  163MOL0     C21882   1.180   1.335   7.320  0.8809 -0.4687 -0.6569
  163MOL0     C21883   1.143   1.236   7.210  0.5540 -1.0004 -0.0211
  163MOL0     C21884   1.011   1.275   7.141 -0.0537 -0.1395  0.0972
  163MOL0     C21885   0.913   1.161   7.133  0.4112  0.5908  0.1458
  163MOL0     C21886   0.975   1.059   7.028 -0.1964 -0.0129 -0.6307
  163MOL0     N21887   0.892   0.948   6.994  0.0014  0.4428  0.4630
  163MOL0     C21888   0.763   0.952   6.938 -0.5372  0.7705  0.8388
  163MOL0     C21889   0.736   0.822   6.922  0.1179 -0.0052 -0.0840
  163MOL0     C21890   0.608   0.766   6.871 -0.2815  0.1570 -0.0874
  163MOL0     C21891   0.485   0.835   6.931  0.3101  0.4749  0.1507
  163MOL0     C21892   0.356   0.765   6.874  0.2621 -0.8287  0.3279
  163MOL0     C21893   0.228   0.834   6.928 -0.8737 -0.0374 -0.4139
  163MOL0     O21894   0.121   0.773   6.855  0.4292 -0.4377 -0.4045
  163MOL0     C21895  -0.010   0.813   6.882 -0.9468  0.3351 -0.5574
  163MOL0     C21896  -0.050   0.938   6.945 -0.2044  0.6362 -0.9317
  163MOL0     C21897  -0.188   0.975   6.964 -0.4986 -0.2909  0.7247
  163MOL0     C21898  -0.216   1.103   7.035 -0.3189 -0.2615 -0.1146
  163MOL0     C21899  -0.285   0.884   6.914  0.4223 -0.9457  0.0973
  163MOL0     C21900  -0.425   0.909   6.951  0.9044 -0.3252 -1.4185
  163MOL0     O21901  -0.505   0.904   6.848  0.0538  0.8924 -0.4265
  163MOL0     C21902  -0.628   0.949   6.861  0.3935 -0.1629 -0.1416
  163MOL0     C21903  -0.646   1.091   6.867 -0.1058 -0.2498  0.2522
  163MOL0     C21904  -0.769   1.142   6.861  0.2110  0.2446  0.8354
  163MOL0     C21905  -0.880   1.062   6.838 -0.0452  0.6505 -0.3262
  163MOL0     O21906  -1.001   1.125   6.833 -0.1481 -0.2225 -0.3394
  163MOL0     C21907  -1.123   1.055   6.782  0.5989  0.1227  0.1016
  163MOL0     C21908  -1.118   1.018   6.631  0.8438 -0.5770 -0.5984
  163MOL0     C21909  -1.070   1.142   6.544  0.1005 -0.3699 -0.5945
  163MOL0     C21910  -1.183   1.250   6.532  1.1960 -0.0769  0.6166
  163MOL0     C21911  -1.156   1.345   6.415 -0.4128  0.5383  0.4538
  163MOL0     C21912  -1.287   1.428   6.381 -0.1497 -0.7651  0.0349
  163MOL0     C21913  -1.327   1.512   6.497 -0.3529 -0.8668 -0.1120
  163MOL0     C21914  -1.451   1.612   6.473 -0.9496 -0.1651  0.3119
  163MOL0    Cl21915  -1.386   1.757   6.381  0.1199 -0.1098 -0.5505
  163MOL0     C21916  -0.867   0.918   6.828 -0.1372  0.4808  0.2655
  163MOL0     C21917  -0.742   0.861   6.845 -0.4755 -0.5534  0.3272
  163MOL0     O21918  -0.452   0.948   7.067 -0.7540  0.1609 -0.7452
  163MOL0     C21919  -0.245   0.774   6.835  0.4594 -0.2239 -0.6451
  163MOL0     C21920  -0.111   0.743   6.823  0.2547 -0.6531  0.2353
  163MOL0     N21921   0.844   0.744   6.953  0.2848  0.2961 -0.1932
  163MOL0     N21922   0.940   0.823   6.988 -1.0743 -0.1292 -0.2980
  163MOL0     C21923   1.811   1.520   7.488 -0.5087  0.6200 -1.1209
  163MOL0     C21924   1.939   1.558   7.522 -0.1664 -0.2400  0.1924
  163MOL0     C21925   2.285   1.692   7.823 -0.6507  0.1450  0.1259
  163MOL0     C21926   2.307   1.819   7.888  0.6577  0.0393 -0.0918
  163MOL0     C21927   2.435   1.867   7.921 -0.3134  0.3026  1.0547
  163MOL0     C21928   2.539   1.789   7.873  0.4536  0.3872  0.2487
  163MOL0     O21929   2.666   1.820   7.908  0.6033  0.3383  0.5101
  163MOL0     C21930   2.705   1.738   8.018  1.0592  0.0058  0.8342
  163MOL0     C21931   2.831   1.779   8.094 -0.2978  0.0061 -0.2271
  163MOL0     C21932   2.817   1.715   8.238 -1.0900 -0.1480 -0.1993
  163MOL0     C21933   2.938   1.765   8.323  0.7264  0.2233 -0.3805
  163MOL0     C21934   2.899   1.889   8.394 -1.6269  0.3095  0.3308
  163MOL0     C21935   2.859   1.986   8.449 -0.0138  0.5208 -0.4769
  163MOL0     C21936   2.522   1.673   7.791  0.2433  0.2285  0.1370
  163MOL0     C21937   2.394   1.623   7.773  0.6319 -1.1478  0.8227
  163MOL0     H21938   1.958   1.429   7.840 -0.7923  3.8257  1.2272
  163MOL0     H21939   1.731   1.352   7.780 -1.5473  0.7250 -1.0586
  163MOL0     H21940   1.561   1.571   7.454 -0.9485 -0.3960 -3.1281
  163MOL0     H21941   1.585   1.430   7.356  1.1322 -0.0152  0.1979
  163MOL0     H21942   1.355   1.420   7.541 -0.9902  2.3603  0.6388
  163MOL0     H21943   1.338   1.552   7.414 -2.9709 -1.4832 -1.7819
  163MOL0     H21944   1.376   1.387   7.246 -0.1764  0.1253 -0.3617
  163MOL0     H21945   1.380   1.253   7.369 -1.5693 -0.6837  1.4244
  163MOL0     H21946   1.142   1.310   7.420  0.8454  0.8591 -0.3159
  163MOL0     H21947   1.133   1.431   7.297 -1.2360 -0.5555  2.5381
  163MOL0     H21948   1.230   1.224   7.145  0.8515 -0.8858  0.3488
  163MOL0     H21949   1.128   1.143   7.265  0.3740 -0.6603  0.5167
  163MOL0     H21950   0.962   1.360   7.191 -0.5732  0.6261 -1.6210
  163MOL0     H21951   1.025   1.315   7.040  2.1704 -2.2923 -0.5380
  163MOL0     H21952   0.891   1.113   7.229  1.5954 -0.0402  0.1183
  163MOL0     H21953   0.819   1.201   7.094  0.5286  1.2998  0.5771
  163MOL0     H21954   1.070   1.019   7.066  1.5290  3.2994 -1.0581
  163MOL0     H21955   1.000   1.112   6.936 -0.7337  0.2835 -0.6106
  163MOL0     H21956   0.694   1.033   6.920 -0.4939  1.1798  2.3586
  163MOL0     H21957   0.599   0.777   6.762 -0.6406  1.3404  0.0443
  163MOL0     H21958   0.600   0.663   6.909 -0.1679  1.4096  3.7119
  163MOL0     H21959   0.482   0.936   6.889 -0.5497  1.0420  1.5187
  163MOL0     H21960   0.497   0.842   7.039  1.5261 -0.7253  0.1198
  163MOL0     H21961   0.347   0.658   6.897 -1.1771 -0.3815  2.1818
  163MOL0     H21962   0.341   0.782   6.767 -0.2185 -0.7447  0.4039
  163MOL0     H21963   0.242   0.941   6.908 -2.6940  0.1626 -0.8043
  163MOL0     H21964   0.216   0.817   7.036  1.1141  2.2787  0.2463
  163MOL0     H21965   0.024   0.993   7.001 -0.4348 -3.0510  3.6386
  163MOL0     H21966  -0.133   1.174   7.021 -0.7951  0.3554  0.1721
  163MOL0     H21967  -0.309   1.148   6.999 -0.3162 -0.8029 -0.8188
  163MOL0     H21968  -0.221   1.088   7.143 -2.9982 -4.2823 -0.6121
  163MOL0     H21969  -0.563   1.159   6.878  0.7142 -0.2274 -4.1308
  163MOL0     H21970  -0.791   1.249   6.860  0.7039  0.4339 -2.5387
  163MOL0     H21971  -1.155   0.963   6.833 -3.2866 -1.7427 -4.9120
  163MOL0     H21972  -1.207   1.124   6.787 -0.2037 -0.8880  0.9621
  163MOL0     H21973  -1.059   0.928   6.613 -1.8186 -1.9045 -3.6583
  163MOL0     H21974  -1.216   0.978   6.605  0.8678 -1.2389  0.2973
  163MOL0     H21975  -1.053   1.106   6.442 -1.9318 -0.5791 -0.9094
  163MOL0     H21976  -0.976   1.183   6.581 -0.7696  1.4200 -0.2945
  163MOL0     H21977  -1.275   1.192   6.517  1.6166 -0.5878 -0.0588
  163MOL0     H21978  -1.187   1.311   6.623  1.8292  0.8394  0.0468
  163MOL0     H21979  -1.126   1.293   6.324  0.5164  1.6892  0.0812
  163MOL0     H21980  -1.073   1.409   6.448 -1.4941  1.7418  0.9535
  163MOL0     H21981  -1.276   1.493   6.294 -3.1097 -2.7538 -1.9931
  163MOL0     H21982  -1.369   1.360   6.358 -0.3662 -1.6288  2.9619
  163MOL0     H21983  -1.241   1.568   6.535 -1.5475  1.4937 -0.6667
  163MOL0     H21984  -1.349   1.443   6.579  2.2467  0.6259  2.0040
  163MOL0     H21985  -1.482   1.626   6.577  2.0958  0.1003  1.2944
  163MOL0     H21986  -1.525   1.567   6.407 -1.4687 -1.1215  1.5139
  163MOL0     H21987  -0.942   0.841   6.816 -2.4364  2.6152  0.2671
  163MOL0     H21988  -0.713   0.756   6.843  2.1885  0.0948 -0.6655
  163MOL0     H21989  -0.316   0.719   6.774  1.7218 -2.5289 -0.1323
  163MOL0     H21990  -0.078   0.673   6.747  1.6428 -1.7823  1.7816
  163MOL0     H21991   1.775   1.540   7.388 -2.0827 -1.6901 -1.1222
  163MOL0     H21992   2.005   1.600   7.446  2.0880 -3.4659  0.1708
  163MOL0     H21993   2.234   1.859   7.957  2.2260 -0.6073  2.0547
  163MOL0     H21994   2.456   1.962   7.970 -0.5486  2.1502 -2.1600
  163MOL0     H21995   2.618   1.720   8.082  0.1352 -2.6560 -0.9806
  163MOL0     H21996   2.723   1.638   7.976 -2.1459 -0.8023  1.1103
  163MOL0     H21997   2.833   1.887   8.111  0.5300 -0.0206 -0.1434
  163MOL0     H21998   2.920   1.754   8.036 -1.5710  0.8491 -2.6935
  163MOL0     H21999   2.820   1.606   8.234  1.0831 -0.1662  0.5564
  163MOL0     H22000   2.726   1.749   8.289 -1.5579  1.4283 -1.9804
  163MOL0     H22001   3.029   1.771   8.262  1.1203 -2.0303 -0.0800
  163MOL0     H22002   2.968   1.698   8.404 -0.8423 -4.1358 -3.0893
  163MOL0     H22003   2.812   2.062   8.507 -0.2705 -1.0886  1.5446
  163MOL0     H22004   2.610   1.625   7.749  0.6453  0.2002  0.9968
  163MOL0     H22005   2.382   1.535   7.711  3.1607 -0.1262 -1.2692
  164MOL0     O22006   6.774   8.455   8.712  0.2164 -0.5652  0.4799
  164MOL0     C22007   6.723   8.563   8.742  0.8717 -0.1293 -0.0063
  164MOL0     O22008   6.787   8.690   8.743 -0.0810 -0.6288 -0.6571
  164MOL0     C22009   6.907   8.704   8.680 -0.7067  0.1392 -0.4510
  164MOL0     C22010   6.917   8.753   8.551  1.2941 -0.1745  0.0763
  164MOL0     C22011   7.042   8.776   8.494  0.7137 -0.5736  0.6213
  164MOL0     C22012   7.158   8.734   8.562  0.5332 -0.1456  1.4446
  164MOL0     O22013   7.285   8.745   8.518 -0.3423 -0.2932  0.2072
  164MOL0     C22014   7.327   8.706   8.387  0.0096 -0.3867  0.2917
  164MOL0     C22015   7.479   8.744   8.373  0.0285 -0.1622  0.5839
  164MOL0     C22016   7.562   8.687   8.488 -0.4989 -0.0320  0.4634
  164MOL0     C22017   7.574   8.528   8.492 -0.2188  0.9153  0.5602
  164MOL0     C22018   7.648   8.471   8.614 -1.0269 -0.4951  0.0899
  164MOL0     C22019   7.569   8.359   8.677 -0.0461 -0.1511  0.3284
  164MOL0     C22020   7.451   8.427   8.740  0.4543 -0.0357 -0.0404
  164MOL0     C22021   7.399   8.338   8.855  0.4224 -0.4620  0.2347
  164MOL0     N22022   7.301   8.241   8.812  0.1438  0.0873  0.5904
  164MOL0     C22023   7.185   8.269   8.745 -0.5652 -0.7652  0.2157
  164MOL0     C22024   7.134   8.148   8.722 -0.3078 -0.0896 -0.0576
  164MOL0     C22025   6.999   8.122   8.656  0.2112  0.3519 -0.3302
  164MOL0     C22026   6.892   8.114   8.767  0.6061  0.8697 -0.2616
  164MOL0     C22027   6.747   8.098   8.694  0.4811  0.4103 -0.0063
  164MOL0     C22028   6.636   8.121   8.798 -0.4330  0.7819 -0.1534
  164MOL0     O22029   6.519   8.134   8.717 -0.1912 -0.1229  0.5330
  164MOL0     C22030   6.420   8.038   8.724 -0.7051  0.2570 -0.9717
  164MOL0     C22031   6.403   7.947   8.832  0.1084  0.9483  0.1069
  164MOL0     C22032   6.297   7.859   8.842  0.2823 -0.1294  0.1390
  164MOL0     C22033   6.301   7.777   8.967  0.1018 -0.0766  0.1845
  164MOL0     C22034   6.196   7.859   8.739 -0.5064 -1.0869 -0.2838
  164MOL0     C22035   6.090   7.760   8.730  0.2225  0.2926 -0.1589
  164MOL0     O22036   5.971   7.796   8.671 -0.7415  0.6519  0.8753
  164MOL0     C22037   5.867   7.713   8.678 -0.1202 -0.1691 -0.3301
  164MOL0     C22038   5.833   7.646   8.565 -0.0211 -0.1351  0.3052
  164MOL0     C22039   5.720   7.561   8.568  0.6164  0.3566  0.0093
  164MOL0     C22040   5.640   7.562   8.686 -0.5415  0.1416  0.2166
  164MOL0     O22041   5.523   7.490   8.701  0.1829  0.4976  0.1174
  164MOL0     C22042   5.478   7.426   8.582  0.7328  0.3197  0.0140
  164MOL0     C22043   5.349   7.364   8.630  0.7129  0.4002  0.4792
  164MOL0     C22044   5.293   7.265   8.535 -0.1680  0.2051  0.5635
  164MOL0     C22045   5.210   7.335   8.424  0.3577  0.1466  0.3894
  164MOL0     C22046   5.087   7.405   8.493 -0.2758 -0.4558  0.7366
  164MOL0     C22047   5.006   7.481   8.387  0.4756  0.5003  0.5721
  164MOL0     C22048   4.856   7.497   8.426 -0.6451 -0.0554  0.5279
  164MOL0     C22049   4.787   7.570   8.304  0.3209  0.1193  0.4714
  164MOL0    Cl22050   4.787   7.473   8.160 -0.1072  0.2188 -0.0298
  164MOL0     C22051   5.679   7.638   8.795  0.5245  0.7637 -0.6570
  164MOL0     C22052   5.798   7.707   8.794 -0.1537 -0.3614 -1.0115
  164MOL0     O22053   6.118   7.652   8.766  0.1110  1.2244  0.3669
  164MOL0     C22054   6.210   7.953   8.632  0.3038 -0.3118 -0.0357
  164MOL0     C22055   6.327   8.037   8.631 -0.0059 -0.3363  0.0755
  164MOL0     N22056   7.212   8.053   8.775  0.8397  0.1510  0.6226
  164MOL0     N22057   7.318   8.106   8.826  0.5027  0.3209 -0.1941
  164MOL0     C22058   7.143   8.696   8.696  0.5418 -0.1585  0.7823
  164MOL0     C22059   7.023   8.684   8.754  0.2502  0.2560 -0.4337
  164MOL0     C22060   6.594   8.556   8.789  1.0235  0.5033  1.0681
  164MOL0     C22061   6.532   8.665   8.859  0.3939  0.2799  0.1480
  164MOL0     C22062   6.408   8.644   8.921 -0.2095 -0.4409 -0.7443
  164MOL0     C22063   6.338   8.517   8.911 -0.0828 -0.2083  0.0951
  164MOL0     O22064   6.209   8.511   8.965  0.2232  0.0965 -0.5119
  164MOL0     C22065   6.121   8.632   8.956 -0.5370 -0.6707  0.0839
  164MOL0     C22066   5.969   8.592   8.939  0.0336 -0.2976  0.5130
  164MOL0     C22067   5.958   8.500   8.812 -0.0653 -0.3946  0.4762
  164MOL0     C22068   5.818   8.489   8.751  0.3676 -0.8761  0.0015
  164MOL0     C22069   5.704   8.468   8.839  0.4475  0.2255  0.3331
  164MOL0     C22070   5.616   8.434   8.916 -1.0335 -0.3111 -0.0535
  164MOL0     C22071   6.389   8.420   8.820 -0.1021  0.2870  0.3314
  164MOL0     C22072   6.512   8.439   8.769 -1.3236 -0.1828  0.2565
  164MOL0     H22073   6.827   8.757   8.490 -0.2093 -1.0194  2.1141
  164MOL0     H22074   7.043   8.822   8.395  0.4092  0.2019  0.9664
  164MOL0     H22075   7.311   8.598   8.383 -1.9665 -0.1708  1.3997
  164MOL0     H22076   7.262   8.745   8.309 -2.1133 -1.3553  1.4946
  164MOL0     H22077   7.518   8.707   8.278  0.9268  1.2462  0.3771
  164MOL0     H22078   7.490   8.852   8.364  1.2719 -0.1539  1.9632
  164MOL0     H22079   7.660   8.736   8.486 -1.2476  1.5132 -0.6073
  164MOL0     H22080   7.518   8.715   8.585  0.3392 -1.6887  1.3559
  164MOL0     H22081   7.475   8.480   8.489  0.2084  0.0092  0.7350
  164MOL0     H22082   7.637   8.502   8.407 -2.8425 -0.0470 -1.2445
  164MOL0     H22083   7.743   8.438   8.570  0.1849  1.7132  0.9303
  164MOL0     H22084   7.664   8.548   8.690 -3.2703 -1.3832  1.5839
  164MOL0     H22085   7.545   8.291   8.595  0.8788  1.6088 -1.4598
  164MOL0     H22086   7.636   8.312   8.750  3.3341  2.4403 -0.8526
  164MOL0     H22087   7.481   8.521   8.787  0.1859 -0.6852  1.4882
  164MOL0     H22088   7.367   8.448   8.674 -0.6718  2.3303  1.9768
  164MOL0     H22089   7.352   8.407   8.926  0.0517  1.6638 -1.9658
  164MOL0     H22090   7.469   8.292   8.925 -1.6839 -1.4349  1.8268
  164MOL0     H22091   7.153   8.370   8.724  1.3516  0.0033  0.7826
  164MOL0     H22092   6.981   8.200   8.582  5.4286  2.4179  0.1365
  164MOL0     H22093   6.998   8.024   8.608 -1.6787  0.1096  0.0977
  164MOL0     H22094   6.901   8.203   8.830  0.1979  0.4391  0.4245
  164MOL0     H22095   6.916   8.029   8.831 -0.8447 -0.3538 -1.2705
  164MOL0     H22096   6.729   8.001   8.646  1.9504 -0.0271  0.2714
  164MOL0     H22097   6.740   8.171   8.614  1.8359 -0.1009 -0.6159
  164MOL0     H22098   6.636   8.222   8.839 -0.0095  0.1145  1.5852
  164MOL0     H22099   6.646   8.060   8.888 -0.7984 -0.9830 -1.2472
  164MOL0     H22100   6.467   7.955   8.919 -0.5835  0.4408  0.6727
  164MOL0     H22101   6.367   7.817   9.045 -0.9028  1.4907  0.2805
  164MOL0     H22102   6.204   7.780   9.017 -0.4488  1.3808 -0.8964
  164MOL0     H22103   6.323   7.673   8.942 -2.4235 -0.5835 -0.2422
  164MOL0     H22104   5.901   7.666   8.484  0.8803 -1.8735  0.5866
  164MOL0     H22105   5.704   7.503   8.478  0.5041 -1.9890  1.4420
  164MOL0     H22106   5.455   7.496   8.501 -0.6980  1.3853  1.2756
  164MOL0     H22107   5.539   7.341   8.548 -1.2411 -0.6270 -1.3708
  164MOL0     H22108   5.377   7.291   8.707 -0.2725 -1.5054 -0.8986
  164MOL0     H22109   5.282   7.444   8.661  0.5144  1.5297 -2.5340
  164MOL0     H22110   5.225   7.197   8.587  0.4684  0.4497  1.7402
  164MOL0     H22111   5.378   7.209   8.496  2.5901  3.1211  1.9544
  164MOL0     H22112   5.266   7.412   8.370  1.6974 -1.7787 -1.0944
  164MOL0     H22113   5.200   7.257   8.348  0.1524 -0.0572  0.6258
  164MOL0     H22114   5.113   7.485   8.563  2.0349 -1.5229  1.2153
  164MOL0     H22115   5.021   7.337   8.547 -0.5116 -0.3234  0.6158
  164MOL0     H22116   5.052   7.581   8.381  1.7707  0.0828  2.6090
  164MOL0     H22117   5.029   7.426   8.296  1.7427  0.8380  0.6640
  164MOL0     H22118   4.855   7.552   8.520 -0.9505 -3.0451  2.4054
  164MOL0     H22119   4.796   7.411   8.455 -2.6380  1.4697  1.1223
  164MOL0     H22120   4.832   7.666   8.279 -3.8077  1.9278 -0.9567
  164MOL0     H22121   4.682   7.591   8.327 -0.2418 -1.9408  0.0343
  164MOL0     H22122   5.620   7.630   8.885  2.3753  3.2079  0.8968
  164MOL0     H22123   5.828   7.749   8.890 -0.9832  0.2238 -0.9873
  164MOL0     H22124   6.133   7.947   8.556  0.8248 -4.4574 -0.5073
  164MOL0     H22125   6.338   8.086   8.535 -0.4268 -0.0988  0.1463
  164MOL0     H22126   7.238   8.678   8.746  1.6088  1.6842 -0.4664
  164MOL0     H22127   7.010   8.641   8.853 -0.1204 -2.4343 -1.5542
  164MOL0     H22128   6.570   8.765   8.877 -2.0254  1.5641 -1.3000
  164MOL0     H22129   6.363   8.729   8.973  3.6646  0.7519  1.0013
  164MOL0     H22130   6.126   8.684   9.052  0.4324  0.0196 -0.3292
  164MOL0     H22131   6.147   8.702   8.876  0.4876  0.6646  1.5346
  164MOL0     H22132   5.910   8.682   8.923  1.5803  0.6047 -0.3070
  164MOL0     H22133   5.935   8.535   9.026  1.1175 -1.8882 -0.0670
  164MOL0     H22134   5.992   8.398   8.832  0.9639 -0.2978 -0.6992
  164MOL0     H22135   6.023   8.534   8.731 -1.6274 -1.3916 -1.2834
  164MOL0     H22136   5.813   8.412   8.674 -2.6003 -0.1202 -0.6779
  164MOL0     H22137   5.796   8.587   8.707  1.5072 -0.6411 -0.0833
  164MOL0     H22138   5.536   8.401   8.979 -0.8707 -1.6010 -0.4892
  164MOL0     H22139   6.335   8.333   8.785  3.1025 -0.7862 -2.5447
  164MOL0     H22140   6.546   8.362   8.700  0.8830  0.7430  0.2195
  165MOL0     O22141   2.166   6.600   8.912  0.3518  0.9989  0.9405
  165MOL0     C22142   2.258   6.653   8.852  0.2102 -0.2283  1.0357
  165MOL0     O22143   2.249   6.764   8.764 -0.2092  0.0502 -0.2700
  165MOL0     C22144   2.145   6.859   8.774  0.1984  1.1722  0.0675
  165MOL0     C22145   2.079   6.895   8.892 -0.3057 -0.5414 -0.2322
  165MOL0     C22146   1.961   6.979   8.887  0.7025 -0.0373 -0.6453
  165MOL0     C22147   1.905   7.025   8.761  0.4179  0.1437 -0.6784
  165MOL0     O22148   1.803   7.110   8.735 -0.4788 -1.1056  0.1784
  165MOL0     C22149   1.727   7.157   8.845 -0.5064 -0.3675 -0.3529
  165MOL0     C22150   1.609   7.065   8.884 -0.1577 -0.6356 -0.3307
  165MOL0     C22151   1.522   7.045   8.755 -0.1890 -0.6206  0.1971
  165MOL0     C22152   1.387   6.991   8.798 -0.1462 -0.5203  0.2530
  165MOL0     C22153   1.289   6.984   8.676 -0.1296  0.3515 -0.2531
  165MOL0     C22154   1.323   6.859   8.589 -0.6055 -0.2453  1.0139
  165MOL0     C22155   1.244   6.859   8.453 -0.0674  0.0963  0.5763
  165MOL0     C22156   1.210   6.726   8.405  1.0119  0.5596 -0.4407
  165MOL0     N22157   1.129   6.645   8.494 -0.1842  0.0875 -0.6076
  165MOL0     C22158   1.017   6.673   8.564 -0.7501  0.2856 -0.4368
  165MOL0     C22159   0.992   6.564   8.642 -0.6885 -0.0175 -0.4821
  165MOL0     C22160   0.882   6.553   8.751  0.7276  0.2019  0.1474
  165MOL0     C22161   0.747   6.520   8.697  0.2441 -0.1415  0.2366
  165MOL0     C22162   0.679   6.655   8.650 -0.4412 -0.2751 -0.7567
  165MOL0     C22163   0.541   6.637   8.587  0.0225  1.0258  0.1842
  165MOL0     O22164   0.443   6.569   8.673  0.3278  0.0185  0.0135
  165MOL0     C22165   0.319   6.564   8.620  0.1334  0.5098  0.2050
  165MOL0     C22166   0.293   6.556   8.484  0.1359 -0.1334  0.9020
  165MOL0     C22167   0.170   6.546   8.430 -0.5197  0.2133  1.2009
  165MOL0     C22168   0.175   6.528   8.274  0.0838  0.7314 -0.6408
  165MOL0     C22169   0.059   6.551   8.514  0.5873 -0.3662  0.4095
  165MOL0     C22170  -0.088   6.556   8.466  0.2549  0.1274  0.5777
  165MOL0     O22171  -0.188   6.529   8.553  0.0137 -0.3380 -0.0192
  165MOL0     C22172  -0.307   6.479   8.521 -0.4618 -0.3711 -0.4591
  165MOL0     C22173  -0.337   6.399   8.405 -0.5008 -0.3959  0.2878
  165MOL0     C22174  -0.459   6.336   8.388 -0.3056 -0.6858 -0.1812
  165MOL0     C22175  -0.568   6.363   8.477  0.9016 -0.4546 -0.8956
  165MOL0     O22176  -0.692   6.310   8.473 -0.5540 -1.0547 -0.2962
  165MOL0     C22177  -0.737   6.265   8.346  0.3968 -1.0922 -0.4175
  165MOL0     C22178  -0.859   6.182   8.388 -0.4549 -0.9033  0.5162
  165MOL0     C22179  -0.916   6.095   8.271  0.6101 -0.2338 -0.3207
  165MOL0     C22180  -1.052   6.037   8.332 -0.3988  0.9014 -0.4442
  165MOL0     C22181  -1.127   5.942   8.242  0.0499  0.1339  0.2799
  165MOL0     C22182  -1.158   6.010   8.109 -0.1507 -0.9859 -0.4291
  165MOL0     C22183  -1.219   5.912   8.006 -0.9722  0.7769  0.4250
  165MOL0     C22184  -1.339   5.825   8.054  0.1881  0.0555 -0.7213
  165MOL0    Cl22185  -1.455   5.884   8.166  0.5576 -0.0283 -0.0364
  165MOL0     C22186  -0.544   6.438   8.587  0.1149  0.1615 -0.4891
  165MOL0     C22187  -0.418   6.492   8.608  0.0393 -1.2255  0.4200
  165MOL0     O22188  -0.108   6.565   8.340  0.2657  0.1554 -0.3792
  165MOL0     C22189   0.082   6.542   8.653 -1.2483  0.7210 -0.4300
  165MOL0     C22190   0.212   6.545   8.708 -0.5244 -0.7052 -0.1639
  165MOL0     N22191   1.096   6.473   8.618 -0.3004  0.1239 -0.1029
  165MOL0     N22192   1.178   6.524   8.528  0.6223  0.5919 -0.4407
  165MOL0     C22193   1.982   6.989   8.645  0.4231 -0.1542  0.2449
  165MOL0     C22194   2.089   6.907   8.655 -0.2403 -0.3131 -0.3067
  165MOL0     C22195   2.386   6.581   8.861  0.1015 -0.0911  0.3223
  165MOL0     C22196   2.499   6.618   8.782 -0.1105 -0.5665 -0.4745
  165MOL0     C22197   2.623   6.564   8.796 -0.5189  0.7000  0.3622
  165MOL0     C22198   2.645   6.450   8.884  0.0173  0.2531  0.4487
  165MOL0     O22199   2.770   6.391   8.905 -0.1587 -0.2696  0.0277
  165MOL0     C22200   2.826   6.308   8.799 -0.3875 -1.1015 -0.2136
  165MOL0     C22201   2.758   6.166   8.785 -1.0303 -0.4048  0.2955
  165MOL0     C22202   2.714   6.104   8.916  0.2836 -0.0987 -0.9102
  165MOL0     C22203   2.817   6.004   8.977 -0.7167 -0.0467  0.5402
  165MOL0     C22204   2.951   6.063   9.008 -0.4890 -0.3929 -0.2062
  165MOL0     C22205   3.055   6.118   9.039 -0.3960  0.7104  0.0262
  165MOL0     C22206   2.525   6.403   8.950 -0.0982 -0.3775 -0.7368
  165MOL0     C22207   2.403   6.473   8.942  0.0849  0.3639 -0.7039
  165MOL0     H22208   2.111   6.864   8.991 -0.0900  3.4842  1.1273
  165MOL0     H22209   1.912   7.008   8.980 -0.2782  3.3786 -2.0942
  165MOL0     H22210   1.788   7.193   8.928 -0.0543  0.6677 -1.0991
  165MOL0     H22211   1.698   7.258   8.815 -1.3550 -1.2039 -2.5926
  165MOL0     H22212   1.651   6.972   8.923 -3.7514 -1.6311  1.6365
  165MOL0     H22213   1.544   7.109   8.960  0.7583 -1.7873  1.1861
  165MOL0     H22214   1.510   7.141   8.705  0.6356  0.5667  2.1678
  165MOL0     H22215   1.570   6.981   8.681 -0.1603  0.6624 -0.9280
  165MOL0     H22216   1.400   6.888   8.834 -2.3884 -1.6680 -1.8797
  165MOL0     H22217   1.334   7.057   8.867 -1.2985 -0.1516 -0.9355
  165MOL0     H22218   1.186   6.975   8.712 -0.4511 -0.2825 -1.2767
  165MOL0     H22219   1.287   7.074   8.615 -0.8771 -1.8485 -3.7578
  165MOL0     H22220   1.429   6.862   8.562 -0.9570  0.5955 -0.4098
  165MOL0     H22221   1.298   6.769   8.647  1.6895  0.1695  2.7743
  165MOL0     H22222   1.150   6.916   8.450 -1.6742 -2.4323 -1.8144
  165MOL0     H22223   1.308   6.903   8.376 -0.7505  2.9205  1.5020
  165MOL0     H22224   1.302   6.668   8.394  1.2151  0.3749  1.7562
  165MOL0     H22225   1.151   6.742   8.314 -1.6207  1.4028  1.2883
  165MOL0     H22226   0.945   6.755   8.567 -1.3531 -0.1570 -1.8757
  165MOL0     H22227   0.912   6.471   8.817 -1.7771  0.7681  2.1387
  165MOL0     H22228   0.876   6.640   8.818  1.9800 -0.5713  1.3244
  165MOL0     H22229   0.689   6.477   8.779  1.0259 -2.4313 -0.3318
  165MOL0     H22230   0.759   6.456   8.609 -3.1040 -0.2006 -0.3209
  165MOL0     H22231   0.747   6.702   8.577 -0.1897 -0.0108 -0.3548
  165MOL0     H22232   0.660   6.725   8.732  2.8555 -0.5155  0.3646
  165MOL0     H22233   0.551   6.577   8.495 -1.3911 -1.0287  1.2698
  165MOL0     H22234   0.500   6.735   8.560  0.1583  1.1928  0.5893
  165MOL0     H22235   0.371   6.560   8.408 -2.6285  1.1526 -2.1023
  165MOL0     H22236   0.129   6.612   8.223 -1.3139 -0.0088 -0.6510
  165MOL0     H22237   0.274   6.506   8.233  0.8727  3.2504 -0.2582
  165MOL0     H22238   0.118   6.435   8.266  1.5579 -0.3220  0.3669
  165MOL0     H22239  -0.261   6.375   8.331 -0.0729  1.4617  0.0701
  165MOL0     H22240  -0.464   6.263   8.307  0.7545 -1.2121  0.2107
  165MOL0     H22241  -0.767   6.342   8.274  1.7413 -1.4402 -1.3873
  165MOL0     H22242  -0.673   6.198   8.289  1.1532 -0.2844 -0.5448
  165MOL0     H22243  -0.838   6.121   8.477 -1.4570 -0.4286  1.0965
  165MOL0     H22244  -0.927   6.263   8.416  1.4034  1.1547 -0.6470
  165MOL0     H22245  -0.852   6.011   8.244  1.8813  0.3459  0.7686
  165MOL0     H22246  -0.949   6.154   8.184 -1.4818 -0.9221 -0.0581
  165MOL0     H22247  -1.032   5.982   8.424  1.8804 -1.6670 -2.2780
  165MOL0     H22248  -1.123   6.118   8.349 -2.5967 -1.1265  0.6406
  165MOL0     H22249  -1.221   5.924   8.294 -0.5879  3.0321  0.3155
  165MOL0     H22250  -1.066   5.852   8.229 -1.3519 -0.4734 -2.8740
  165MOL0     H22251  -1.228   6.093   8.123 -0.4435 -1.3801  0.5793
  165MOL0     H22252  -1.067   6.046   8.061  0.5735 -1.8484  0.2485
  165MOL0     H22253  -1.148   5.843   7.959 -3.1262 -1.8625  0.7630
  165MOL0     H22254  -1.269   5.975   7.933  0.6510  0.2784 -1.2009
  165MOL0     H22255  -1.305   5.741   8.115 -1.1732 -0.0698 -0.1049
  165MOL0     H22256  -1.391   5.781   7.969  0.7658 -2.7985  0.3104
  165MOL0     H22257  -0.625   6.462   8.655  1.7324 -1.8026  2.3299
  165MOL0     H22258  -0.404   6.552   8.698 -0.0813 -1.5206  0.6362
  165MOL0     H22259   0.007   6.524   8.729  1.2535  0.2936  2.1498
  165MOL0     H22260   0.236   6.557   8.813 -2.0564  0.0802  0.1251
  165MOL0     H22261   1.947   7.025   8.549 -0.0596 -0.3537  0.3442
  165MOL0     H22262   2.130   6.870   8.562 -0.8932 -0.7717 -0.4224
  165MOL0     H22263   2.490   6.708   8.722 -1.0936 -1.1284 -1.2165
  165MOL0     H22264   2.714   6.594   8.744 -1.6743 -1.4804 -3.2521
  165MOL0     H22265   2.829   6.363   8.705  1.1138  1.8711  1.4532
  165MOL0     H22266   2.929   6.290   8.830 -0.3266  0.3148  0.4949
  165MOL0     H22267   2.823   6.102   8.725 -0.6936 -0.1601  0.3952
  165MOL0     H22268   2.672   6.173   8.719 -0.4210 -2.9300 -0.9089
  165MOL0     H22269   2.624   6.044   8.896 -1.4210  1.8969  0.3270
  165MOL0     H22270   2.696   6.177   8.995  1.9139 -3.5035  2.9110
  165MOL0     H22271   2.829   5.922   8.905  1.5348  0.4970  0.2355
  165MOL0     H22272   2.784   5.957   9.070  1.0719 -1.4494  0.5264
  165MOL0     H22273   3.145   6.156   9.083  1.2616 -1.8135 -0.9415
  165MOL0     H22274   2.514   6.324   9.024 -0.8844  0.7003  0.3340
  165MOL0     H22275   2.322   6.445   9.009  0.5908  2.0103  0.6385
  166MOL0     O22276   5.753   5.747   4.679  0.6798 -0.5278 -0.3218
  166MOL0     C22277   5.819   5.659   4.632  0.3904  0.0555  0.0820
  166MOL0     O22278   5.777   5.555   4.556  0.1630 -0.4738  0.6352
  166MOL0     C22279   5.648   5.556   4.516 -0.6361 -0.0974  0.2372
  166MOL0     C22280   5.563   5.454   4.566  0.2178 -0.3229  0.2497
  166MOL0     C22281   5.428   5.452   4.531  0.2515 -0.4379  0.7242
  166MOL0     C22282   5.373   5.553   4.446  0.2032  0.2946  0.7799
  166MOL0     O22283   5.241   5.560   4.420  0.1810 -0.1655 -0.2984
  166MOL0     C22284   5.155   5.459   4.465  0.0653  0.8857  0.1297
  166MOL0     C22285   5.018   5.493   4.403 -0.0750 -0.3954  0.3354
  166MOL0     C22286   5.024   5.472   4.250  0.3591 -0.6968  0.2943
  166MOL0     C22287   4.996   5.611   4.186  0.4248 -0.0825  0.0213
  166MOL0     C22288   4.968   5.595   4.036  0.8108 -0.3729  0.5851
  166MOL0     C22289   4.910   5.722   3.963 -0.0197 -0.1676 -0.0133
  166MOL0     C22290   5.006   5.836   3.966 -0.0522 -0.2057 -0.0568
  166MOL0     C22291   4.975   5.959   3.879  0.7068  0.7841 -0.4849
  166MOL0     N22292   4.842   6.021   3.908  0.9494  0.6248 -0.6641
  166MOL0     C22293   4.752   6.069   3.821 -0.6529 -1.2254  0.4816
  166MOL0     C22294   4.648   6.112   3.896  0.2597  0.0922  0.5485
  166MOL0     C22295   4.524   6.186   3.837 -0.6997  0.6222  0.2113
  166MOL0     C22296   4.407   6.084   3.828  0.2738  0.0678  0.5471
  166MOL0     C22297   4.344   6.064   3.971  0.4998  0.4299  0.8452
  166MOL0     C22298   4.221   6.160   3.984 -0.1993  0.6935 -0.7407
  166MOL0     O22299   4.138   6.126   4.104 -0.1921 -0.2078  0.5168
  166MOL0     C22300   4.006   6.162   4.120  0.7687 -0.1013 -0.3961
  166MOL0     C22301   3.929   6.226   4.022 -0.4492 -0.8831  0.8627
  166MOL0     C22302   3.796   6.265   4.046 -0.0244 -1.2771  0.0699
  166MOL0     C22303   3.726   6.348   3.933  0.1591 -0.1771 -0.3471
  166MOL0     C22304   3.733   6.233   4.166 -0.0547 -0.2764  0.0865
  166MOL0     C22305   3.591   6.253   4.197  0.4069  0.8861 -0.3292
  166MOL0     O22306   3.548   6.229   4.330 -0.0214  0.2778  0.1397
  166MOL0     C22307   3.431   6.275   4.378  1.1362  0.1062  0.7276
  166MOL0     C22308   3.388   6.207   4.495 -0.6216 -0.7372 -0.7308
  166MOL0     C22309   3.281   6.262   4.567 -0.1834 -0.1192 -0.8788
  166MOL0     C22310   3.190   6.352   4.501  0.0732  0.2533 -0.0448
  166MOL0     O22311   3.061   6.392   4.545 -0.1685  0.3895 -0.6318
  166MOL0     C22312   3.023   6.354   4.682 -1.2080  0.4914 -0.8333
  166MOL0     C22313   2.971   6.211   4.689  0.8233 -0.1326  0.6684
  166MOL0     C22314   2.981   6.134   4.818  0.0936  0.1440 -0.5171
  166MOL0     C22315   3.107   6.050   4.837  0.2856  0.0491 -0.1287
  166MOL0     C22316   3.098   5.964   4.960 -0.1863  0.1626  0.8745
  166MOL0     C22317   3.191   5.846   4.932  0.2438 -0.1886 -0.1151
  166MOL0     C22318   3.185   5.751   5.048 -0.5130 -0.3346 -0.3882
  166MOL0     C22319   3.276   5.626   5.035  0.4637  0.1610 -0.4389
  166MOL0    Cl22320   3.448   5.654   5.077  0.1744  0.1016  0.0471
  166MOL0     C22321   3.228   6.410   4.380 -0.5732  0.8409 -0.9491
  166MOL0     C22322   3.352   6.373   4.322  0.4041 -1.0170  0.0018
  166MOL0     O22323   3.508   6.282   4.105  0.2873  0.0269 -0.3047
  166MOL0     C22324   3.810   6.178   4.267 -0.2718  0.0189  0.3576
  166MOL0     C22325   3.942   6.137   4.240 -0.5395 -0.3554 -0.1904
  166MOL0     N22326   4.689   6.105   4.032 -0.4553 -0.1509  0.4535
  166MOL0     N22327   4.807   6.055   4.037 -0.5318 -1.1282  0.4344
  166MOL0     C22328   5.458   5.659   4.403  0.5320 -0.1625  0.2316
  166MOL0     C22329   5.600   5.660   4.431  1.0129 -0.3542  0.2946
  166MOL0     C22330   5.972   5.673   4.645  0.0677  0.0630  0.0728
  166MOL0     C22331   6.026   5.793   4.687  0.4948 -0.4601 -0.2429
  166MOL0     C22332   6.169   5.807   4.682  0.0376 -1.0968 -0.1066
  166MOL0     C22333   6.265   5.704   4.646  0.1235  0.2886 -0.1470
  166MOL0     O22334   6.405   5.717   4.638  0.4982 -0.3444  0.2722
  166MOL0     C22335   6.456   5.843   4.669  0.0584 -1.2375 -0.4256
  166MOL0     C22336   6.606   5.842   4.655  0.0869  0.4715  0.1403
  166MOL0     C22337   6.666   5.790   4.793 -0.4654 -0.4587 -0.3657
  166MOL0     C22338   6.659   5.884   4.918 -0.3355  0.5599  0.0192
  166MOL0     C22339   6.716   5.820   5.041  0.5129 -0.1040  0.5349
  166MOL0     C22340   6.782   5.772   5.132  0.1642  0.2221  0.1807
  166MOL0     C22341   6.199   5.589   4.601 -0.4538  0.5164  0.3152
  166MOL0     C22342   6.059   5.576   4.603  0.9542  0.2138  0.2496
  166MOL0     H22343   5.587   5.375   4.637 -0.4493  0.4328  1.3424
  166MOL0     H22344   5.368   5.377   4.581  1.7405 -1.9023  0.4232
  166MOL0     H22345   5.165   5.360   4.419 -1.6693  0.6332  0.1987
  166MOL0     H22346   5.155   5.450   4.574 -2.4063  0.0891  0.1412
  166MOL0     H22347   4.947   5.421   4.445 -0.1984 -1.2101 -1.1629
  166MOL0     H22348   4.989   5.595   4.430 -1.8547 -0.3477 -1.4769
  166MOL0     H22349   5.119   5.425   4.222 -0.1269 -1.4885 -0.0718
  166MOL0     H22350   4.947   5.406   4.208 -0.2441  0.9137 -1.2355
  166MOL0     H22351   4.903   5.652   4.226  1.2715  0.2083  1.7622
  166MOL0     H22352   5.085   5.674   4.198  1.8873 -2.1946  0.9454
  166MOL0     H22353   5.051   5.554   3.977  1.1000 -0.8266  1.3017
  166MOL0     H22354   4.895   5.514   4.023  0.7489 -0.5145  1.7694
  166MOL0     H22355   4.869   5.703   3.863  0.2893  3.0240 -0.8305
  166MOL0     H22356   4.823   5.759   4.019  0.4630 -0.1313  0.7128
  166MOL0     H22357   5.029   5.876   4.065 -0.3912 -0.0551 -0.0369
  166MOL0     H22358   5.107   5.809   3.934  1.1616  3.5366  0.1494
  166MOL0     H22359   4.985   5.926   3.775  0.0701 -3.0635  0.5235
  166MOL0     H22360   5.051   6.036   3.899  0.8574  0.1337  1.8311
  166MOL0     H22361   4.764   6.081   3.714 -0.1183 -1.5605  0.5008
  166MOL0     H22362   4.496   6.265   3.907 -0.0992  0.2610  0.8758
  166MOL0     H22363   4.554   6.214   3.735 -0.4722 -1.8021 -0.4517
  166MOL0     H22364   4.454   5.996   3.786  0.3382  0.9919 -1.4113
  166MOL0     H22365   4.332   6.112   3.753  0.9807 -1.3753 -0.7465
  166MOL0     H22366   4.420   6.071   4.050 -0.7416  1.1782  2.0316
  166MOL0     H22367   4.313   5.959   3.974  1.3983 -0.0056 -2.3150
  166MOL0     H22368   4.159   6.152   3.895  2.4611  1.3357 -2.7808
  166MOL0     H22369   4.260   6.261   3.974  2.3667 -0.3500 -2.1229
  166MOL0     H22370   3.968   6.241   3.922  0.8068  0.7004  1.5426
  166MOL0     H22371   3.636   6.298   3.896  1.3334 -3.5965  1.0072
  166MOL0     H22372   3.695   6.443   3.979  0.7501  0.6506 -1.6075
  166MOL0     H22373   3.796   6.378   3.856  2.3635  3.7199  2.7899
  166MOL0     H22374   3.450   6.131   4.542  3.0097  0.4965 -3.0019
  166MOL0     H22375   3.269   6.232   4.670  2.5197  0.2565 -0.3769
  166MOL0     H22376   3.108   6.361   4.751 -0.9458  1.3015 -1.2299
  166MOL0     H22377   2.949   6.428   4.714 -0.0488  0.7108  1.5867
  166MOL0     H22378   2.866   6.236   4.670  1.6001  2.0575 -1.2683
  166MOL0     H22379   3.005   6.144   4.609 -0.6955  0.1780 -0.2843
  166MOL0     H22380   2.892   6.073   4.837  0.1873  0.7709  2.4995
  166MOL0     H22381   2.989   6.201   4.904  1.0428 -1.5562  0.8189
  166MOL0     H22382   3.112   5.977   4.755  0.3605 -0.6183  0.4582
  166MOL0     H22383   3.204   6.099   4.837  0.5384 -0.2071  3.4118
  166MOL0     H22384   2.997   5.925   4.977 -0.0849 -0.3268  0.3578
  166MOL0     H22385   3.128   6.013   5.053  0.6761  0.1579  0.6075
  166MOL0     H22386   3.143   5.798   4.846 -1.3701  1.0507  0.0417
  166MOL0     H22387   3.293   5.884   4.916 -0.5683  1.2063 -2.5153
  166MOL0     H22388   3.083   5.715   5.066 -1.7810 -0.6203 -6.0624
  166MOL0     H22389   3.227   5.803   5.134 -1.0028  0.7546 -0.7795
  166MOL0     H22390   3.260   5.581   4.937  1.0265 -0.1854 -0.3784
  166MOL0     H22391   3.243   5.562   5.117  1.3819  4.3343  3.6515
  166MOL0     H22392   3.166   6.475   4.319 -1.1692  0.6571 -0.5600
  166MOL0     H22393   3.375   6.445   4.244 -2.6881  0.8809  0.6493
  166MOL0     H22394   3.772   6.155   4.366  1.0680 -1.4909  0.5613
  166MOL0     H22395   3.991   6.098   4.328  1.2527 -0.1915 -1.0776
  166MOL0     H22396   5.429   5.744   4.342  0.0628 -2.4097 -2.9137
  166MOL0     H22397   5.664   5.734   4.383  1.6097 -1.3116 -0.4258
  166MOL0     H22398   5.966   5.878   4.718  0.7066  0.2533 -1.7024
  166MOL0     H22399   6.213   5.904   4.702 -2.1919  0.7837 -3.4693
  166MOL0     H22400   6.422   5.926   4.607 -0.6356  0.1444  1.6846
  166MOL0     H22401   6.425   5.872   4.770 -2.4656  0.7729 -1.6718
  166MOL0     H22402   6.636   5.945   4.636 -0.6198  1.0236  1.8381
  166MOL0     H22403   6.631   5.773   4.574  0.3992 -1.1904  1.5590
  166MOL0     H22404   6.774   5.780   4.778  0.0251  1.1582  1.5907
  166MOL0     H22405   6.624   5.692   4.819  1.3243 -0.7468  1.8299
  166MOL0     H22406   6.556   5.918   4.930 -1.2625 -0.7751 -3.1492
  166MOL0     H22407   6.731   5.966   4.913 -0.1119  0.4790  1.4102
  166MOL0     H22408   6.837   5.730   5.215  0.0413  2.0190  1.2251
  166MOL0     H22409   6.259   5.507   4.562 -0.8754  0.4903 -0.3049
  166MOL0     H22410   6.018   5.480   4.571 -0.1106  0.6778  0.1582
  167MOL0     O22411  11.030   1.084   2.486  0.2149 -0.5725 -0.0964
  167MOL0     C22412  11.099   0.984   2.507 -0.4477  0.0391 -0.2933
  167MOL0     O22413  11.067   0.855   2.487 -0.0311  0.4485 -0.4611
  167MOL0     C22414  10.931   0.845   2.450 -0.0937 -0.2055 -0.1982
  167MOL0     C22415  10.849   0.757   2.528 -0.5774  0.0838 -0.2599
  167MOL0     C22416  10.719   0.730   2.508 -0.0923 -0.2846 -0.4329
  167MOL0     C22417  10.655   0.767   2.393  0.6849 -0.9837 -0.4722
  167MOL0     O22418  10.523   0.729   2.382 -0.0213 -0.1721  0.1527
  167MOL0     C22419  10.473   0.744   2.249  0.7951 -0.2453  0.3477
  167MOL0     C22420  10.349   0.658   2.235  0.5327  0.5508 -0.2837
  167MOL0     C22421  10.267   0.694   2.112 -0.4304  0.4908  0.2712
  167MOL0     C22422  10.143   0.601   2.100  0.2965 -0.8894  0.1592
  167MOL0     C22423  10.059   0.638   1.974 -0.0223  0.5017 -0.2137
  167MOL0     C22424   9.908   0.619   1.999 -0.0541 -0.1668  0.8071
  167MOL0     C22425   9.826   0.648   1.872 -0.2146  0.2771 -0.4203
  167MOL0     C22426   9.672   0.644   1.899  0.4142  0.2813  0.0643
  167MOL0     N22427   9.628   0.506   1.930  0.6621  0.4707  0.2429
  167MOL0     C22428   9.663   0.403   1.851  0.3551  0.3272  0.9151
  167MOL0     C22429   9.601   0.293   1.909  0.6029 -0.2348  0.4222
  167MOL0     C22430   9.619   0.149   1.867 -0.1956 -0.3167 -0.1514
  167MOL0     C22431   9.670   0.131   1.722  0.3323  0.3404 -0.1122
  167MOL0     C22432   9.704  -0.020   1.702  0.0795 -1.0808 -0.1218
  167MOL0     C22433   9.712  -0.037   1.545  0.0986  0.4141 -0.0405
  167MOL0     O22434   9.602   0.027   1.476 -0.6870  0.0942  0.1795
  167MOL0     C22435   9.480  -0.032   1.462 -0.4968  0.1443  0.5266
  167MOL0     C22436   9.466  -0.146   1.381 -0.0036  0.0943 -0.0355
  167MOL0     C22437   9.345  -0.222   1.377 -0.7323  0.0312 -0.3965
  167MOL0     C22438   9.327  -0.350   1.306 -0.1572  0.0271  0.3329
  167MOL0     C22439   9.240  -0.184   1.467 -0.6869 -0.5043 -0.0557
  167MOL0     C22440   9.112  -0.252   1.474  0.0005  1.2678  0.1196
  167MOL0     O22441   9.045  -0.221   1.587 -0.1619  0.5885  0.5223
  167MOL0     C22442   8.913  -0.253   1.594 -0.4823  0.3274  0.6319
  167MOL0     C22443   8.817  -0.188   1.514  0.3769  0.3650 -0.8505
  167MOL0     C22444   8.679  -0.234   1.520  0.0861  0.4300  0.0419
  167MOL0     C22445   8.635  -0.328   1.606  0.6495 -0.5404 -0.2965
  167MOL0     O22446   8.506  -0.368   1.623  0.1518  0.8597 -0.3346
  167MOL0     C22447   8.394  -0.293   1.569 -1.2382  0.3583  0.9000
  167MOL0     C22448   8.255  -0.360   1.568  0.3758 -0.0543 -0.1089
  167MOL0     C22449   8.268  -0.503   1.516  0.9709 -0.0715  0.3095
  167MOL0     C22450   8.124  -0.559   1.519 -0.0404  0.3848 -0.1192
  167MOL0     C22451   8.149  -0.710   1.510 -0.9484  0.4445  0.2754
  167MOL0     C22452   8.019  -0.793   1.505  0.5529  0.1192  0.1782
  167MOL0     C22453   8.037  -0.944   1.476 -0.6790  0.0532 -0.1823
  167MOL0     C22454   7.908  -1.026   1.455 -0.5383  0.3671 -0.8571
  167MOL0    Cl22455   7.944  -1.200   1.447 -0.0082 -0.2738 -0.3804
  167MOL0     C22456   8.739  -0.389   1.689  0.6427  1.1672 -0.4014
  167MOL0     C22457   8.879  -0.355   1.677 -0.0838 -0.4981  0.0842
  167MOL0     O22458   9.070  -0.335   1.389 -0.2208 -0.4306  0.4720
  167MOL0     C22459   9.254  -0.071   1.542  1.6100 -0.8033 -0.7107
  167MOL0     C22460   9.372   0.001   1.547 -0.7419 -0.7741  0.5423
  167MOL0     N22461   9.538   0.335   2.029 -0.2149 -0.0305  0.7573
  167MOL0     N22462   9.549   0.461   2.035  0.5742 -0.6231 -0.5452
  167MOL0     C22463  10.730   0.862   2.313 -0.3042 -0.1509 -0.0218
  167MOL0     C22464  10.868   0.904   2.340  0.9480  0.6238  0.5034
  167MOL0     C22465  11.235   1.015   2.548  0.1263 -0.0520  0.3128
  167MOL0     C22466  11.347   0.937   2.516  0.2526 -0.1259 -0.5606
  167MOL0     C22467  11.474   0.973   2.560  0.3959  0.7377  0.0009
  167MOL0     C22468  11.500   1.095   2.624 -0.1270 -0.2939 -0.3282
  167MOL0     O22469  11.622   1.157   2.637  0.4417  0.1914  0.3385
  167MOL0     C22470  11.735   1.094   2.592 -0.9402  0.3506 -0.1108
  167MOL0     C22471  11.795   1.008   2.697  0.5220 -0.3553 -0.1459
  167MOL0     C22472  11.936   0.964   2.675 -0.0854 -0.4192 -0.0311
  167MOL0     C22473  11.974   0.915   2.531 -0.7355 -0.2045  0.2388
  167MOL0     C22474  11.881   0.808   2.496 -0.1270 -0.0320  0.0151
  167MOL0     C22475  11.820   0.712   2.466  0.7975 -0.2551 -0.2325
  167MOL0     C22476  11.385   1.169   2.662 -0.2200  0.3990  0.2596
  167MOL0     C22477  11.258   1.129   2.619 -0.7948  0.3488 -0.4147
  167MOL0     H22478  10.890   0.713   2.619  0.2898 -4.0699 -2.4009
  167MOL0     H22479  10.671   0.678   2.590 -1.4464  0.6008 -0.6398
  167MOL0     H22480  10.452   0.851   2.239  1.0861 -0.3883 -4.0773
  167MOL0     H22481  10.557   0.718   2.183 -0.6233 -2.2058 -0.7930
  167MOL0     H22482  10.366   0.550   2.234 -0.4039  0.3354 -3.6326
  167MOL0     H22483  10.287   0.680   2.323  1.5925  1.7896  0.1900
  167MOL0     H22484  10.222   0.793   2.122  0.4830  1.3133 -2.6550
  167MOL0     H22485  10.334   0.692   2.026  0.3168  3.9621  0.6169
  167MOL0     H22486  10.194   0.505   2.089  1.1192 -0.4206 -0.2078
  167MOL0     H22487  10.080   0.605   2.189  0.2898 -1.2009  0.1700
  167MOL0     H22488  10.079   0.744   1.954 -4.9784  2.0903  1.5837
  167MOL0     H22489  10.098   0.576   1.893  0.5868  0.5067  0.0709
  167MOL0     H22490   9.899   0.516   2.035 -0.9167 -1.8529 -3.5944
  167MOL0     H22491   9.876   0.674   2.088 -1.3997  2.4312 -1.1508
  167MOL0     H22492   9.861   0.745   1.836 -0.4671  0.9142  0.9440
  167MOL0     H22493   9.838   0.575   1.792 -2.1093  1.3647 -1.7940
  167MOL0     H22494   9.623   0.677   1.807  2.2834  0.0001 -1.0811
  167MOL0     H22495   9.640   0.711   1.979  0.8621  1.8831 -1.0491
  167MOL0     H22496   9.713   0.412   1.755 -0.1555 -0.8921  0.5157
  167MOL0     H22497   9.694   0.109   1.935  1.4947 -3.0023 -3.2580
  167MOL0     H22498   9.529   0.092   1.892 -0.1438 -0.3479 -0.0371
  167MOL0     H22499   9.761   0.191   1.713 -0.1788  0.9541 -1.3805
  167MOL0     H22500   9.603   0.169   1.645  0.3773  0.8082  0.0792
  167MOL0     H22501   9.633  -0.089   1.749  2.0331 -2.0145  1.6308
  167MOL0     H22502   9.799  -0.053   1.745 -0.5350 -0.1800  2.0587
  167MOL0     H22503   9.716  -0.145   1.526 -3.3169 -0.1183  1.5054
  167MOL0     H22504   9.808   0.003   1.512  0.1508 -1.5077 -2.4696
  167MOL0     H22505   9.548  -0.173   1.315  0.2342  3.1747 -1.1649
  167MOL0     H22506   9.288  -0.428   1.372  0.4870  1.8124  2.9446
  167MOL0     H22507   9.259  -0.322   1.225  0.6928  2.4949  0.3998
  167MOL0     H22508   9.431  -0.369   1.276 -0.3582 -0.9158  0.2049
  167MOL0     H22509   8.853  -0.115   1.442  1.5042  2.1053  1.3504
  167MOL0     H22510   8.609  -0.197   1.446  0.1007 -2.2659 -1.4358
  167MOL0     H22511   8.380  -0.197   1.619 -1.9220  0.9949 -0.4768
  167MOL0     H22512   8.422  -0.280   1.464  0.4497 -2.6731  0.8329
  167MOL0     H22513   8.203  -0.355   1.664  0.2203  0.5578 -0.2170
  167MOL0     H22514   8.185  -0.304   1.505 -0.7148 -0.2266  0.9037
  167MOL0     H22515   8.323  -0.566   1.586 -0.5967 -0.1055  1.5687
  167MOL0     H22516   8.303  -0.505   1.412  0.0426  1.5736 -0.0730
  167MOL0     H22517   8.072  -0.534   1.612 -1.5846  1.7955 -1.3048
  167MOL0     H22518   8.059  -0.528   1.437 -1.7750 -1.7038  0.3581
  167MOL0     H22519   8.215  -0.752   1.586 -1.1620 -1.9155 -0.7730
  167MOL0     H22520   8.207  -0.720   1.418  1.3889 -2.7677  1.9075
  167MOL0     H22521   7.964  -0.783   1.599 -0.7903  1.2035 -0.6716
  167MOL0     H22522   7.963  -0.745   1.423  1.6835  1.0083 -0.0893
  167MOL0     H22523   8.115  -0.986   1.540  0.3711 -1.0218 -2.0648
  167MOL0     H22524   8.085  -0.945   1.377  1.9355  2.6206  0.9097
  167MOL0     H22525   7.862  -0.995   1.361 -1.8224 -0.4831 -0.5422
  167MOL0     H22526   7.823  -1.010   1.522 -2.6892  4.0329 -4.0495
  167MOL0     H22527   8.730  -0.466   1.765  0.5568 -0.6660 -2.1892
  167MOL0     H22528   8.954  -0.400   1.740 -0.0431 -1.6244 -0.7404
  167MOL0     H22529   9.180  -0.035   1.613  3.0801  0.4589  0.2593
  167MOL0     H22530   9.391   0.093   1.603  0.7780  0.2375 -1.5075
  167MOL0     H22531  10.685   0.894   2.220 -0.2736  1.9439  0.6260
  167MOL0     H22532  10.917   0.973   2.272  2.1993 -0.3492  0.3936
  167MOL0     H22533  11.339   0.845   2.459  2.5623  0.3032 -1.6850
  167MOL0     H22534  11.556   0.905   2.538  1.3728  2.1198 -0.7678
  167MOL0     H22535  11.725   1.033   2.502  0.1453  1.2853 -0.8840
  167MOL0     H22536  11.805   1.169   2.554  1.5781 -2.5166 -1.5990
  167MOL0     H22537  11.726   0.925   2.712 -0.4882  0.6780  1.2456
  167MOL0     H22538  11.794   1.055   2.796 -1.6743 -1.2837  0.3310
  167MOL0     H22539  11.969   0.897   2.755 -1.2187 -0.6758  0.2256
  167MOL0     H22540  11.990   1.058   2.690 -0.7028 -0.1855  0.7954
  167MOL0     H22541  12.078   0.882   2.520 -0.1763  1.5106  0.0272
  167MOL0     H22542  11.966   1.000   2.463 -1.0962  0.3426  0.9538
  167MOL0     H22543  11.765   0.622   2.444  2.1575 -1.6331  1.7042
  167MOL0     H22544  11.392   1.258   2.724  3.3961  0.7662 -0.4397
  167MOL0     H22545  11.177   1.194   2.651 -0.5460 -0.4461  2.0195
  168MOL0     O22546   3.260   2.332  10.288 -0.0383  0.1382 -0.1281
  168MOL0     C22547   3.292   2.234  10.357  0.8631  0.3056  0.3530
  168MOL0     O22548   3.261   2.220  10.487 -0.1094  0.1418 -0.2576
  168MOL0     C22549   3.180   2.317  10.542  0.6860  0.2569  0.2923
  168MOL0     C22550   3.065   2.281  10.612  0.5478  0.1817 -0.5265
  168MOL0     C22551   2.989   2.376  10.682  0.8133 -0.4923  0.3713
  168MOL0     C22552   3.045   2.504  10.693 -0.3470  0.3162 -0.4458
  168MOL0     O22553   2.970   2.595  10.767  0.6166 -0.1845 -0.2424
  168MOL0     C22554   3.028   2.715  10.821  0.6432 -0.2922 -0.4805
  168MOL0     C22555   2.930   2.781  10.920  0.8715  0.2829  0.4957
  168MOL0     C22556   2.815   2.846  10.844 -0.9140  0.2282  0.8815
  168MOL0     C22557   2.713   2.897  10.940  0.5062  0.0359  1.6161
  168MOL0     C22558   2.566   2.903  10.890 -0.2379  0.5820 -0.6749
  168MOL0     C22559   2.494   2.767  10.871  0.5327  0.4409  0.6252
  168MOL0     C22560   2.348   2.783  10.858  0.1709 -0.7795 -0.2350
  168MOL0     C22561   2.271   2.646  10.852 -0.4455  0.0619 -0.0198
  168MOL0     N22562   2.135   2.673  10.815  0.3393  0.0312 -0.1007
  168MOL0     C22563   2.039   2.684  10.913  0.0331  0.6427 -0.2936
  168MOL0     C22564   1.915   2.674  10.840  0.3018 -0.1041 -0.3618
  168MOL0     C22565   1.772   2.659  10.900 -0.0180 -0.5313 -0.2730
  168MOL0     C22566   1.709   2.530  10.843  0.1878 -0.0114  0.7258
  168MOL0     C22567   1.566   2.514  10.892  0.1964 -0.3528 -1.3044
  168MOL0     C22568   1.503   2.378  10.866 -0.0210  0.3135  0.1660
  168MOL0     O22569   1.450   2.372  10.727 -0.2068 -0.0526 -0.1346
  168MOL0     C22570   1.322   2.330  10.713 -0.0438  0.7007 -0.9721
  168MOL0     C22571   1.289   2.207  10.664  1.0223 -0.3814  0.1084
  168MOL0     C22572   1.151   2.170  10.641 -0.7660  0.0174 -0.3659
  168MOL0     C22573   1.128   2.034  10.580 -0.1541 -0.3755  0.7425
  168MOL0     C22574   1.043   2.262  10.674 -0.7549  0.7741  0.0523
  168MOL0     C22575   0.902   2.232  10.639 -0.1081 -0.5162  0.1708
  168MOL0     O22576   0.818   2.342  10.647  0.0548  0.0822 -0.2755
  168MOL0     C22577   0.694   2.324  10.601 -0.2237  0.2073  0.2223
  168MOL0     C22578   0.585   2.335  10.690  0.3785  0.8981  0.2293
  168MOL0     C22579   0.451   2.317  10.650 -0.4655  0.1990  0.2855
  168MOL0     C22580   0.420   2.315  10.513 -1.1263 -0.0768 -0.6250
  168MOL0     O22581   0.287   2.312  10.486  0.0810  0.1219  0.2273
  168MOL0     C22582   0.258   2.242  10.361 -0.3223 -0.9405  0.1444
  168MOL0     C22583   0.113   2.228  10.348  0.7076  0.0984 -0.1435
  168MOL0     C22584   0.082   2.150  10.220 -0.0370  1.1296  0.7858
  168MOL0     C22585  -0.064   2.169  10.198 -0.8671  0.2210 -0.4649
  168MOL0     C22586  -0.114   2.075  10.083  0.3417 -0.1465 -0.3051
  168MOL0     C22587  -0.256   2.120  10.037 -0.0381  0.3567 -0.0897
  168MOL0     C22588  -0.373   2.089  10.132  0.1969  0.6538 -0.6188
  168MOL0     C22589  -0.496   2.171  10.112 -0.7047 -0.7151  1.1309
  168MOL0    Cl22590  -0.569   2.141   9.954 -0.2374 -0.2326  0.2394
  168MOL0     C22591   0.527   2.308  10.418  1.0294 -1.0018 -0.5172
  168MOL0     C22592   0.662   2.317  10.463  0.0346 -0.0793  0.0531
  168MOL0     O22593   0.861   2.125  10.600  0.5233 -0.3060  0.9558
  168MOL0     C22594   1.080   2.387  10.733 -0.2045 -0.5939  0.5438
  168MOL0     C22595   1.220   2.416  10.757  0.8638  0.2911 -0.4717
  168MOL0     N22596   1.953   2.656  10.706  0.6532 -0.4343 -0.7723
  168MOL0     N22597   2.077   2.649  10.694  0.1559  0.1414 -0.1097
  168MOL0     C22598   3.159   2.538  10.625 -0.1740 -0.4407 -0.5236
  168MOL0     C22599   3.224   2.441  10.557  0.4342 -1.0457 -0.6539
  168MOL0     C22600   3.341   2.107  10.293 -0.8101  1.1514 -0.2414
  168MOL0     C22601   3.350   2.080  10.157  0.2664 -0.0305 -0.1564
  168MOL0     C22602   3.400   1.963  10.114 -0.8496  0.2347  0.1456
  168MOL0     C22603   3.444   1.858  10.201 -0.3702 -0.5090  0.3724
  168MOL0     O22604   3.489   1.732  10.170  0.0462  0.1956 -0.6591
  168MOL0     C22605   3.521   1.710  10.030  0.8516  0.2397  0.0773
  168MOL0     C22606   3.609   1.584  10.024  1.3244  0.6084 -1.2512
  168MOL0     C22607   3.665   1.581   9.881 -0.3621 -0.4205 -0.2048
  168MOL0     C22608   3.741   1.456   9.846 -0.8396 -0.3569 -0.6941
  168MOL0     C22609   3.642   1.346   9.847 -0.0574 -0.4656 -0.3906
  168MOL0     C22610   3.561   1.256   9.848  0.1997 -0.1377 -0.2798
  168MOL0     C22611   3.427   1.872  10.336 -0.5610 -0.2833 -1.0882
  168MOL0     C22612   3.381   1.994  10.377 -0.1439  0.3192  0.5894
  168MOL0     H22613   3.032   2.178  10.615  0.2825  0.2863  0.6800
  168MOL0     H22614   2.901   2.352  10.740  0.4048 -1.0746 -0.4749
  168MOL0     H22615   3.120   2.689  10.873 -0.5884 -0.5170  1.7454
  168MOL0     H22616   3.054   2.788  10.744  1.4170  0.9622  0.9215
  168MOL0     H22617   2.893   2.698  10.981  0.5866  0.1158  0.1012
  168MOL0     H22618   2.980   2.856  10.981  1.1046  0.6673 -0.1555
  168MOL0     H22619   2.848   2.930  10.781 -0.8243 -0.8306 -0.5288
  168MOL0     H22620   2.774   2.770  10.778  0.2435 -0.7214  1.2341
  168MOL0     H22621   2.712   2.826  11.024 -0.7919 -1.0718  0.7152
  168MOL0     H22622   2.726   3.000  10.974 -0.8685 -0.2427  3.1230
  168MOL0     H22623   2.500   2.951  10.963 -0.4984  2.2897 -1.9896
  168MOL0     H22624   2.559   2.957  10.796 -2.8660 -0.8745 -1.4260
  168MOL0     H22625   2.527   2.702  10.790  1.0183 -1.8316  2.5253
  168MOL0     H22626   2.520   2.715  10.964  0.8778  0.8524  0.7585
  168MOL0     H22627   2.311   2.839  10.945 -1.0244 -0.1302 -1.1240
  168MOL0     H22628   2.330   2.844  10.769  2.5422  0.2405 -0.0959
  168MOL0     H22629   2.284   2.600  10.950  0.9498 -1.5382 -0.9114
  168MOL0     H22630   2.322   2.580  10.781 -1.1550  0.8819 -1.3312
  168MOL0     H22631   2.055   2.696  11.019  0.1169 -0.0499 -0.2281
  168MOL0     H22632   1.779   2.650  11.009 -0.3403  4.3094  0.3443
  168MOL0     H22633   1.714   2.745  10.867 -0.1367 -0.9725 -1.2688
  168MOL0     H22634   1.775   2.444  10.859  0.7971 -0.2531 -2.3631
  168MOL0     H22635   1.707   2.538  10.734  0.1316 -0.6308  0.6773
  168MOL0     H22636   1.499   2.589  10.848  0.0827  2.3621  2.8833
  168MOL0     H22637   1.562   2.525  11.001 -2.7646  0.1370 -1.3862
  168MOL0     H22638   1.426   2.361  10.942  0.2384 -0.3234  0.2920
  168MOL0     H22639   1.575   2.299  10.886 -0.2196 -0.6196 -2.3981
  168MOL0     H22640   1.377   2.145  10.655  1.2916 -0.3401  1.9648
  168MOL0     H22641   1.056   2.038  10.498  1.3166 -0.1391 -0.5690
  168MOL0     H22642   1.225   1.999  10.546  0.5114  2.8601 -1.0475
  168MOL0     H22643   1.079   1.967  10.652 -1.2017 -2.0355 -1.3948
  168MOL0     H22644   0.616   2.342  10.794  3.3246 -1.3712 -0.3683
  168MOL0     H22645   0.379   2.329  10.730 -0.0660 -2.7179  1.2161
  168MOL0     H22646   0.283   2.302  10.273 -4.0077  0.6801  0.0147
  168MOL0     H22647   0.301   2.141  10.360  1.7968 -0.0878 -0.1630
  168MOL0     H22648   0.062   2.176  10.429 -1.7710  0.8329 -1.1299
  168MOL0     H22649   0.083   2.333  10.348  0.6194  0.1110 -1.8836
  168MOL0     H22650   0.091   2.042  10.238 -2.9371  0.1511 -2.6089
  168MOL0     H22651   0.151   2.176  10.139 -2.2536 -0.7316 -1.8666
  168MOL0     H22652  -0.109   2.128  10.290  2.1776  0.9843  1.4981
  168MOL0     H22653  -0.095   2.274  10.187 -0.8312  0.2256 -0.5180
  168MOL0     H22654  -0.111   1.970  10.112  0.0358  0.7279  3.2689
  168MOL0     H22655  -0.055   2.082   9.991 -1.9488  1.4958 -1.7720
  168MOL0     H22656  -0.258   2.230  10.033 -0.4977  0.3710  0.4255
  168MOL0     H22657  -0.286   2.080   9.940 -0.3080 -0.0992  0.1770
  168MOL0     H22658  -0.340   2.106  10.235  1.9332  2.2974 -1.3839
  168MOL0     H22659  -0.395   1.982  10.130  0.7488  0.5442 -0.7739
  168MOL0     H22660  -0.470   2.278  10.116 -0.7740 -0.4517 -2.5100
  168MOL0     H22661  -0.566   2.160  10.195 -0.1263  2.9470  2.2891
  168MOL0     H22662   0.516   2.300  10.310 -1.3462  1.7863 -0.6149
  168MOL0     H22663   0.747   2.316  10.396 -0.8495 -2.9310 -1.1530
  168MOL0     H22664   1.013   2.470  10.751  2.4374  2.0600 -0.9228
  168MOL0     H22665   1.257   2.512  10.794 -0.9849  0.9314 -0.1849
  168MOL0     H22666   3.199   2.638  10.626 -1.0586 -0.0216 -2.3807
  168MOL0     H22667   3.312   2.475  10.503 -1.2427  3.5857 -0.9028
  168MOL0     H22668   3.331   2.154  10.080  2.5764  1.6409  0.7763
  168MOL0     H22669   3.418   1.941  10.009 -0.2994  0.1303  0.2594
  168MOL0     H22670   3.429   1.689   9.974  0.9992 -0.9511  0.2517
  168MOL0     H22671   3.570   1.793   9.979  0.2058  0.3866 -0.3133
  168MOL0     H22672   3.541   1.501  10.043  0.9014  1.3591  0.8476
  168MOL0     H22673   3.682   1.596  10.106 -0.7407 -2.7645  1.3537
  168MOL0     H22674   3.718   1.676   9.875 -1.0539  0.1166  1.6150
  168MOL0     H22675   3.583   1.587   9.809  0.4336  0.5002 -1.0487
  168MOL0     H22676   3.817   1.436   9.922 -2.9827  0.1651  1.7096
  168MOL0     H22677   3.786   1.464   9.746 -1.1244 -2.1051 -0.9903
  168MOL0     H22678   3.490   1.175   9.850  0.3364 -0.2906  2.0494
  168MOL0     H22679   3.457   1.796  10.406  0.5871 -0.2699 -1.5400
  168MOL0     H22680   3.386   2.013  10.484  1.2294  3.1013  0.1172
  169MOL0     O22681   4.766  10.469   3.526  0.2033 -0.1556  0.3989
  169MOL0     C22682   4.857  10.495   3.445 -0.7477  0.3098 -0.1625
  169MOL0     O22683   4.870  10.614   3.376 -0.0436  0.2644  0.1015
  169MOL0     C22684   4.778  10.709   3.365 -0.4246 -1.0968 -0.4620
  169MOL0     C22685   4.642  10.704   3.396 -0.1008  0.3428  0.6263
  169MOL0     C22686   4.563  10.818   3.362 -0.1241 -0.1931  0.2176
  169MOL0     C22687   4.609  10.922   3.280  0.3134 -0.3644 -1.3212
  169MOL0     O22688   4.510  11.014   3.244 -0.1111  0.4016 -0.2779
  169MOL0     C22689   4.527  11.054   3.105 -0.5422  0.0529 -0.0743
  169MOL0     C22690   4.473  10.944   3.008  0.1551  0.3721  0.0372
  169MOL0     C22691   4.329  10.979   2.947  0.6736  0.1542  0.1232
  169MOL0     C22692   4.207  10.999   3.040  0.1309 -0.1067  0.6175
  169MOL0     C22693   4.192  11.146   3.072 -0.2104  0.2391 -0.0714
  169MOL0     C22694   4.065  11.172   3.159 -0.6827 -0.1183  0.3098
  169MOL0     C22695   4.053  11.124   3.305  0.2571 -1.2978  0.4580
  169MOL0     C22696   4.179  11.163   3.389  0.3126 -0.0224  0.2544
  169MOL0     N22697   4.141  11.179   3.530 -0.4572  0.6263 -0.1044
  169MOL0     C22698   4.077  11.075   3.600  0.2444 -0.2456  0.2882
  169MOL0     C22699   4.055  11.125   3.723 -0.1735  0.1448 -0.2367
  169MOL0     C22700   3.992  11.044   3.835  0.4522  0.1515  1.0049
  169MOL0     C22701   4.015  10.894   3.810 -0.1267  0.6850 -0.4821
  169MOL0     C22702   3.986  10.804   3.933 -0.1533  0.0741  0.4098
  169MOL0     C22703   3.979  10.660   3.901  0.6210 -0.7258  0.5472
  169MOL0     O22704   3.889  10.628   3.790  0.0410 -0.2396 -0.5570
  169MOL0     C22705   3.750  10.655   3.793  0.2096 -0.1254 -0.1897
  169MOL0     C22706   3.681  10.620   3.674  0.0641 -0.2345 -0.9733
  169MOL0     C22707   3.548  10.644   3.653  0.2734 -0.4894 -0.3190
  169MOL0     C22708   3.495  10.626   3.511  0.5986 -0.5296  0.2267
  169MOL0     C22709   3.477  10.684   3.772 -0.6388 -0.2805 -0.3149
  169MOL0     C22710   3.335  10.714   3.766  0.6847 -0.7427 -0.6486
  169MOL0     O22711   3.288  10.740   3.638 -0.1112  1.0285 -0.8710
  169MOL0     C22712   3.152  10.719   3.610 -0.7633 -0.2980 -1.0224
  169MOL0     C22713   3.091  10.818   3.543  0.2751  0.5096  0.0137
  169MOL0     C22714   2.963  10.801   3.508 -0.0881  0.5705  0.6193
  169MOL0     C22715   2.886  10.684   3.530 -0.2992 -0.4307  0.0119
  169MOL0     O22716   2.754  10.682   3.477  0.3629 -0.5305 -0.3883
  169MOL0     C22717   2.687  10.561   3.483 -0.1411  0.6175 -0.5171
  169MOL0     C22718   2.583  10.569   3.381  0.8985 -0.3799  0.2121
  169MOL0     C22719   2.489  10.446   3.377 -1.0581  0.4949 -0.8484
  169MOL0     C22720   2.432  10.434   3.233 -0.3937 -0.3432  0.3889
  169MOL0     C22721   2.361  10.295   3.205 -0.1282  0.2491 -0.0734
  169MOL0     C22722   2.276  10.306   3.072 -0.1448  0.4426  0.1783
  169MOL0     C22723   2.217  10.173   3.014 -0.3377  0.5788 -0.0000
  169MOL0     C22724   2.063  10.169   3.051 -0.5523  0.7546 -0.3611
  169MOL0    Cl22725   1.970  10.288   2.956 -0.2937 -0.3673 -0.2090
  169MOL0     C22726   2.952  10.589   3.610 -0.5767 -0.0843  0.1736
  169MOL0     C22727   3.082  10.606   3.648 -0.0779  0.2738  0.9529
  169MOL0     O22728   3.263  10.707   3.867 -0.0220  0.2595  0.0155
  169MOL0     C22729   3.543  10.700   3.900  0.4890  0.5126 -0.3746
  169MOL0     C22730   3.681  10.694   3.907  0.3531  0.0502  0.3429
  169MOL0     N22731   4.103  11.250   3.729  0.1775 -0.0364 -0.8738
  169MOL0     N22732   4.154  11.285   3.612  0.3519 -0.2048  0.5407
  169MOL0     C22733   4.742  10.930   3.261 -0.1586  0.0393  0.6222
  169MOL0     C22734   4.826  10.829   3.300 -0.1451  0.0537  0.0155
  169MOL0     C22735   4.973  10.395   3.443  0.1807  0.5424  1.2832
  169MOL0     C22736   5.094  10.430   3.377  0.6458  0.6354  0.1047
  169MOL0     C22737   5.206  10.344   3.377 -0.7446  0.1837 -0.2303
  169MOL0     C22738   5.204  10.227   3.458  0.1954  0.3859 -0.7190
  169MOL0     O22739   5.306  10.128   3.461  0.2094 -0.5112  0.7543
  169MOL0     C22740   5.439  10.181   3.460 -0.1754  0.1787 -0.0220
  169MOL0     C22741   5.549  10.086   3.520 -0.2415  0.4577 -0.3616
  169MOL0     C22742   5.550   9.948   3.448  0.6169 -0.0856  0.1125
  169MOL0     C22743   5.602   9.851   3.542 -0.0307 -0.2453 -0.2804
  169MOL0     C22744   5.734   9.891   3.596 -0.2112  0.4388 -0.3369
  169MOL0     C22745   5.846   9.895   3.654 -0.6091  0.5704 -0.2843
  169MOL0     C22746   5.076  10.188   3.509 -0.1650  0.6364 -0.6452
  169MOL0     C22747   4.964  10.272   3.501 -0.0748  0.1370 -0.3814
  169MOL0     H22748   4.587  10.620   3.435 -0.2988  1.9046  4.1146
  169MOL0     H22749   4.456  10.814   3.382 -0.1372 -1.0818  0.0287
  169MOL0     H22750   4.478  11.149   3.084 -0.9914 -0.0735  0.3903
  169MOL0     H22751   4.633  11.069   3.082 -0.3889 -0.9552 -0.0904
  169MOL0     H22752   4.542  10.924   2.926  0.6307  1.9205  0.0230
  169MOL0     H22753   4.466  10.847   3.058  1.8549  0.7708  1.1326
  169MOL0     H22754   4.348  11.079   2.906 -0.4140 -0.0750 -0.9982
  169MOL0     H22755   4.307  10.914   2.861  1.1088 -0.6546  0.6095
  169MOL0     H22756   4.117  10.961   2.992  0.0090  1.6081 -0.6156
  169MOL0     H22757   4.222  10.955   3.139  0.7539  0.2283  0.6792
  169MOL0     H22758   4.282  11.186   3.120 -0.1682  0.3087 -0.2064
  169MOL0     H22759   4.187  11.193   2.973  2.4717 -0.8440 -0.8443
  169MOL0     H22760   4.050  11.280   3.162  0.0083  0.0413 -1.1765
  169MOL0     H22761   3.986  11.128   3.097  0.2370 -1.6181  0.1381
  169MOL0     H22762   3.962  11.175   3.338  0.2289 -1.7255  1.0507
  169MOL0     H22763   4.045  11.015   3.310  0.2760 -1.4528 -1.8581
  169MOL0     H22764   4.212  11.262   3.358 -0.5278  0.0313 -0.4942
  169MOL0     H22765   4.258  11.089   3.370 -1.4134 -2.5095  2.1450
  169MOL0     H22766   4.046  10.978   3.563  0.4008 -0.3254  0.3687
  169MOL0     H22767   4.044  11.059   3.930  0.0351 -0.5891  1.3539
  169MOL0     H22768   3.884  11.058   3.829  0.4785 -0.1997 -0.9414
  169MOL0     H22769   4.121  10.875   3.789 -0.5826 -2.3108 -0.4537
  169MOL0     H22770   3.960  10.860   3.722  1.3389  2.6179 -2.2609
  169MOL0     H22771   3.899  10.844   3.986 -1.3320 -0.4390 -1.0797
  169MOL0     H22772   4.060  10.826   4.012 -0.0354  1.7631 -0.1281
  169MOL0     H22773   3.961  10.596   3.988  2.7495 -3.3789 -0.8306
  169MOL0     H22774   4.079  10.624   3.873 -0.0234 -0.8771 -1.7946
  169MOL0     H22775   3.747  10.590   3.593  1.5527  0.7383 -0.1667
  169MOL0     H22776   3.411  10.558   3.522 -1.1532  0.5913 -4.1301
  169MOL0     H22777   3.454  10.717   3.466  0.7380 -1.2485 -1.4194
  169MOL0     H22778   3.569  10.584   3.442 -0.8392  0.5753 -2.0945
  169MOL0     H22779   3.145  10.908   3.516 -0.1499 -0.3699 -4.4595
  169MOL0     H22780   2.907  10.883   3.465  0.4064  1.4504  1.6117
  169MOL0     H22781   2.761  10.486   3.451 -0.1395  0.9490 -1.2962
  169MOL0     H22782   2.642  10.556   3.583  1.5596  0.5841  0.2838
  169MOL0     H22783   2.518  10.651   3.413  0.1013 -1.8045  2.5382
  169MOL0     H22784   2.621  10.592   3.281  2.3754 -0.7256  0.6714
  169MOL0     H22785   2.408  10.452   3.450 -1.3827  2.3175 -1.3059
  169MOL0     H22786   2.548  10.354   3.389 -3.7334 -0.9499  5.1892
  169MOL0     H22787   2.357  10.512   3.223  0.1550  0.0443 -0.8227
  169MOL0     H22788   2.512  10.439   3.159 -0.7785 -1.7065 -0.1624
  169MOL0     H22789   2.292  10.275   3.288  0.3694 -0.1968  0.2438
  169MOL0     H22790   2.444  10.225   3.192 -1.0525 -0.7201 -1.0272
  169MOL0     H22791   2.199  10.381   3.094  0.3679  0.8083  0.8132
  169MOL0     H22792   2.348  10.342   2.997  2.1252 -5.6091 -1.0663
  169MOL0     H22793   2.268  10.089   3.064  1.5328  1.5655 -0.1439
  169MOL0     H22794   2.243  10.159   2.909  0.3236 -1.1452  0.3581
  169MOL0     H22795   2.043  10.184   3.157 -2.7777 -1.4668 -0.3884
  169MOL0     H22796   2.016  10.079   3.012 -2.6914  1.1366  1.1818
  169MOL0     H22797   2.902  10.496   3.636  0.5833 -0.1499  2.4499
  169MOL0     H22798   3.130  10.522   3.698 -1.1939 -1.0178 -0.0564
  169MOL0     H22799   3.479  10.714   3.987  0.4845 -3.9232  0.5530
  169MOL0     H22800   3.737  10.687   4.000  0.1734 -6.1088  0.4260
  169MOL0     H22801   4.784  11.017   3.210  1.2021  0.0431  1.6826
  169MOL0     H22802   4.932  10.833   3.275 -0.2620  0.4671 -0.4390
  169MOL0     H22803   5.104  10.533   3.344  1.4292  0.3237 -0.6724
  169MOL0     H22804   5.299  10.354   3.321 -0.6804 -0.6124 -0.2694
  169MOL0     H22805   5.452  10.206   3.355  0.4742  0.9250  0.2317
  169MOL0     H22806   5.437  10.280   3.507  0.3425  0.1272  0.1145
  169MOL0     H22807   5.530  10.079   3.627 -1.3727  0.4264 -0.5443
  169MOL0     H22808   5.648  10.130   3.510  0.7494 -1.3883  0.8414
  169MOL0     H22809   5.615   9.971   3.364  0.3179  1.7062  0.3403
  169MOL0     H22810   5.451   9.920   3.411  1.5663 -3.6516 -0.0960
  169MOL0     H22811   5.593   9.752   3.496 -2.6496  0.3318 -1.1679
  169MOL0     H22812   5.531   9.854   3.625 -1.5062  1.0640 -1.5333
  169MOL0     H22813   5.938   9.897   3.708  0.8601  1.0408 -2.6292
  169MOL0     H22814   5.071  10.098   3.569 -2.0534  1.3786  0.3910
  169MOL0     H22815   4.875  10.245   3.557 -1.5016 -0.6195 -2.8424
  170MOL0     O22816   5.781   4.378   3.401 -0.8767  0.1798 -0.0201
  170MOL0     C22817   5.828   4.266   3.394  0.6640 -0.0425  0.0594
  170MOL0     O22818   5.755   4.157   3.407  0.5985 -0.6896 -0.2584
  170MOL0     C22819   5.616   4.172   3.424 -0.0440  0.3070 -0.5547
  170MOL0     C22820   5.545   4.255   3.342 -0.3227 -0.0568  0.4208
  170MOL0     C22821   5.409   4.285   3.357 -0.6542 -0.2572  0.4370
  170MOL0     C22822   5.333   4.217   3.455  0.5378  0.2662 -0.0777
  170MOL0     O22823   5.208   4.271   3.472  0.3309 -0.9616 -0.3071
  170MOL0     C22824   5.123   4.227   3.581  0.2660 -0.8941  0.4071
  170MOL0     C22825   5.037   4.107   3.533 -0.2098 -0.8070 -0.2717
  170MOL0     C22826   4.928   4.131   3.423 -0.5263 -0.4720 -0.2581
  170MOL0     C22827   4.886   3.993   3.356  0.0645  1.7956  0.2426
  170MOL0     C22828   4.777   4.005   3.254 -0.0073  0.1731 -0.0079
  170MOL0     C22829   4.636   4.036   3.313  0.1213  0.2172 -0.0258
  170MOL0     C22830   4.533   4.079   3.207  0.4376  0.2251  0.1231
  170MOL0     C22831   4.398   4.080   3.278  0.4878  0.0829  0.2934
  170MOL0     N22832   4.343   3.947   3.299  0.2985 -0.0196 -0.4907
  170MOL0     C22833   4.331   3.881   3.416 -0.2486 -0.5602 -0.3468
  170MOL0     C22834   4.284   3.754   3.388 -0.3254 -0.6075  1.0711
  170MOL0     C22835   4.239   3.640   3.478  0.2288 -0.1382  0.4180
  170MOL0     C22836   4.083   3.650   3.496 -0.1148  0.5581  0.1562
  170MOL0     C22837   4.027   3.538   3.584 -0.3184  0.0086 -0.5909
  170MOL0     C22838   3.879   3.547   3.617 -0.8033  0.3285  0.6195
  170MOL0     O22839   3.855   3.666   3.694 -0.2639 -0.6863 -1.0860
  170MOL0     C22840   3.725   3.704   3.739  0.1876  1.2661  0.2825
  170MOL0     C22841   3.610   3.615   3.724 -0.1828 -0.0912  0.0572
  170MOL0     C22842   3.486   3.670   3.763 -0.0137  0.6086  0.2047
  170MOL0     C22843   3.379   3.561   3.762  1.0091  0.1779 -1.0757
  170MOL0     C22844   3.471   3.795   3.818  0.1280 -0.3778  0.5411
  170MOL0     C22845   3.340   3.848   3.872 -0.2709  0.6410 -0.2116
  170MOL0     O22846   3.360   3.969   3.934 -0.3998 -0.5459 -0.5396
  170MOL0     C22847   3.248   4.033   3.972  0.2843 -0.0381 -1.0798
  170MOL0     C22848   3.186   4.116   3.884  0.2531  0.6405 -0.1900
  170MOL0     C22849   3.063   4.174   3.912  0.3339  0.2645 -0.0908
  170MOL0     C22850   3.007   4.160   4.036  0.0926  0.0155  0.1475
  170MOL0     O22851   2.888   4.220   4.063  0.0079  0.0477 -0.2682
  170MOL0     C22852   2.908   4.336   4.139 -0.1854 -0.2181 -0.0202
  170MOL0     C22853   2.767   4.392   4.181 -0.3435  0.4010  0.0004
  170MOL0     C22854   2.769   4.537   4.244 -0.3996  0.5974 -0.0688
  170MOL0     C22855   2.643   4.560   4.324  0.0205 -1.2836 -0.2704
  170MOL0     C22856   2.626   4.699   4.386 -0.0309  0.3410 -0.1458
  170MOL0     C22857   2.608   4.803   4.278  0.2341 -0.2639 -0.4878
  170MOL0     C22858   2.565   4.933   4.345  0.1384  0.3774  0.1385
  170MOL0     C22859   2.416   4.952   4.358 -0.5397 -0.0305  0.3432
  170MOL0    Cl22860   2.342   4.957   4.199  0.8768  0.2257  0.0734
  170MOL0     C22861   3.074   4.079   4.127  0.2661 -0.6174 -0.0595
  170MOL0     C22862   3.204   4.028   4.106  0.6422  0.6729 -0.7729
  170MOL0     O22863   3.238   3.790   3.840 -0.4530 -0.1780  0.1389
  170MOL0     C22864   3.591   3.875   3.840  0.3535  0.0469 -0.2136
  170MOL0     C22865   3.715   3.822   3.811 -0.1971  1.3209 -0.4109
  170MOL0     N22866   4.246   3.756   3.256  0.3079  0.2461 -1.3427
  170MOL0     N22867   4.280   3.873   3.204 -0.3371  0.3274  0.3760
  170MOL0     C22868   5.401   4.129   3.544 -0.5415 -0.4308  0.1308
  170MOL0     C22869   5.542   4.116   3.527 -0.3895  0.3421  0.1785
  170MOL0     C22870   5.978   4.260   3.358 -0.0606 -0.3131 -0.1703
  170MOL0     C22871   6.055   4.382   3.333  0.4730 -0.5183  0.1920
  170MOL0     C22872   6.192   4.378   3.300  0.0907  0.0956  0.8265
  170MOL0     C22873   6.262   4.255   3.290  0.5714 -0.4888  0.2603
  170MOL0     O22874   6.391   4.269   3.241  0.1229 -0.5297 -0.3493
  170MOL0     C22875   6.462   4.146   3.203 -0.1592  0.3028  0.3201
  170MOL0     C22876   6.597   4.179   3.125 -0.0409  0.6465  0.4231
  170MOL0     C22877   6.603   4.302   3.034  0.7111  0.2061  0.0796
  170MOL0     C22878   6.661   4.433   3.096 -1.3353 -0.5543  0.2342
  170MOL0     C22879   6.778   4.401   3.173  0.6279  0.2001  0.5528
  170MOL0     C22880   6.877   4.383   3.234  0.1977 -0.3982  0.5673
  170MOL0     C22881   6.189   4.140   3.320 -0.2515  0.0435  0.0861
  170MOL0     C22882   6.051   4.145   3.345  0.0042 -0.0094 -0.0356
  170MOL0     H22883   5.601   4.313   3.269  1.3033 -0.1766  1.5143
  170MOL0     H22884   5.352   4.348   3.289 -0.2097 -0.4728 -0.1440
  170MOL0     H22885   5.195   4.212   3.662  4.2390  2.2313 -2.1759
  170MOL0     H22886   5.059   4.310   3.615  0.0327 -0.3024 -1.3952
  170MOL0     H22887   5.109   4.042   3.483 -1.8139 -0.5092 -3.1761
  170MOL0     H22888   4.981   4.056   3.612 -2.5235 -0.8972 -1.8737
  170MOL0     H22889   4.834   4.170   3.463 -0.3027  1.0837 -1.1533
  170MOL0     H22890   4.960   4.208   3.352  0.1704  0.4914  1.0549
  170MOL0     H22891   4.982   3.962   3.314  0.1778 -0.3261  1.8894
  170MOL0     H22892   4.874   3.918   3.435  4.4545  3.0915  2.4234
  170MOL0     H22893   4.810   4.085   3.188 -1.6246  0.9517  0.1037
  170MOL0     H22894   4.774   3.912   3.195  0.3611  0.1049  0.0729
  170MOL0     H22895   4.589   3.954   3.367  0.5132  0.0181  0.0179
  170MOL0     H22896   4.652   4.106   3.395  2.0061  1.6282 -1.5006
  170MOL0     H22897   4.572   4.178   3.182  0.5987 -0.0470 -0.7360
  170MOL0     H22898   4.529   4.016   3.117  0.9012  2.2458 -1.3824
  170MOL0     H22899   4.339   4.124   3.198  1.6828  0.4099 -0.4397
  170MOL0     H22900   4.399   4.145   3.366 -3.3529  1.2034 -0.3284
  170MOL0     H22901   4.356   3.922   3.514  1.7764 -1.5689 -0.3960
  170MOL0     H22902   4.264   3.542   3.438 -1.8059 -0.4109 -0.3061
  170MOL0     H22903   4.282   3.640   3.578 -0.2902  0.1333  0.6440
  170MOL0     H22904   4.036   3.642   3.398  2.7306  0.7304 -1.3312
  170MOL0     H22905   4.056   3.746   3.542  1.3730  0.0991  2.1294
  170MOL0     H22906   4.088   3.542   3.675 -0.4603  3.2066 -0.5322
  170MOL0     H22907   4.054   3.441   3.542  1.1422 -0.2841  0.9138
  170MOL0     H22908   3.850   3.457   3.672  3.4633 -2.3292 -1.0288
  170MOL0     H22909   3.819   3.543   3.525  3.1034  0.5364 -2.2015
  170MOL0     H22910   3.613   3.513   3.687  0.9999  0.2218 -0.7576
  170MOL0     H22911   3.294   3.595   3.702  1.0599  2.0014 -0.1941
  170MOL0     H22912   3.402   3.462   3.722 -1.9608  0.3377 -3.5430
  170MOL0     H22913   3.352   3.550   3.868  1.9086 -0.4615 -0.8934
  170MOL0     H22914   3.226   4.124   3.783 -1.0553 -0.3753 -0.8325
  170MOL0     H22915   3.010   4.224   3.831 -0.1011  0.4067  0.2746
  170MOL0     H22916   2.977   4.315   4.221  2.9514 -1.9452 -2.8480
  170MOL0     H22917   2.973   4.393   4.071  0.5331 -2.1248 -0.9979
  170MOL0     H22918   2.708   4.383   4.090  0.4725 -1.0307 -0.4092
  170MOL0     H22919   2.724   4.325   4.256 -3.1975  1.9016 -0.1237
  170MOL0     H22920   2.787   4.610   4.165  0.1968 -1.2394 -1.7050
  170MOL0     H22921   2.850   4.533   4.317 -1.0882 -2.5024  0.6575
  170MOL0     H22922   2.549   4.537   4.273 -0.8470  3.0944 -1.0937
  170MOL0     H22923   2.655   4.497   4.412  1.4061  0.4624  0.8564
  170MOL0     H22924   2.707   4.727   4.454 -0.0158  1.1207 -0.4647
  170MOL0     H22925   2.541   4.694   4.454  0.3817 -1.0672  0.2934
  170MOL0     H22926   2.705   4.818   4.229 -0.4859  0.2553 -1.8185
  170MOL0     H22927   2.532   4.777   4.204 -2.1721  1.6544  1.1843
  170MOL0     H22928   2.609   5.010   4.281 -0.4915  0.2002 -0.5139
  170MOL0     H22929   2.611   4.933   4.445  1.1086 -2.6819 -0.1960
  170MOL0     H22930   2.387   5.045   4.407  1.8133  0.2162  1.4027
  170MOL0     H22931   2.371   4.874   4.421 -0.4289  0.4795  1.0600
  170MOL0     H22932   3.029   4.060   4.224 -0.7703  0.1032 -0.3776
  170MOL0     H22933   3.248   3.969   4.185 -0.5373 -1.8359 -1.8720
  170MOL0     H22934   3.584   3.972   3.888  0.0174 -0.5156  0.9031
  170MOL0     H22935   3.807   3.875   3.835 -0.8423  2.2856 -0.0071
  170MOL0     H22936   5.354   4.076   3.626  2.3559 -5.0463 -0.8554
  170MOL0     H22937   5.589   4.066   3.611  0.0034  0.3340 -0.0394
  170MOL0     H22938   6.008   4.479   3.337 -0.0890 -0.5178 -3.2732
  170MOL0     H22939   6.243   4.467   3.266 -0.7384  0.6001  0.8828
  170MOL0     H22940   6.474   4.070   3.281 -1.7523 -1.2101 -0.8432
  170MOL0     H22941   6.401   4.099   3.126  1.1120  1.0656 -1.1977
  170MOL0     H22942   6.617   4.084   3.074 -0.6263 -0.2987  1.8969
  170MOL0     H22943   6.677   4.188   3.199 -0.5368  1.6421  0.8424
  170MOL0     H22944   6.500   4.321   3.002 -0.6677 -0.3540  3.7349
  170MOL0     H22945   6.657   4.290   2.940  2.4534  3.3804  0.5339
  170MOL0     H22946   6.585   4.480   3.160 -2.7186 -0.9724 -1.0465
  170MOL0     H22947   6.686   4.516   3.031  2.3024 -0.9991  0.8695
  170MOL0     H22948   6.969   4.372   3.287  0.6356  0.8580  0.1086
  170MOL0     H22949   6.246   4.048   3.329  1.0898  1.0304  2.6275
  170MOL0     H22950   5.999   4.055   3.375  0.4070 -1.9237 -4.3503
  171MOL0     O22951   6.684   9.198   9.094 -0.3235 -0.0155  0.0147
  171MOL0     C22952   6.741   9.102   9.046  0.4605  0.2533  1.2454
  171MOL0     O22953   6.693   8.974   9.057  0.1634  0.3334  0.2947
  171MOL0     C22954   6.566   8.957   9.109 -0.4079 -0.3529 -0.1662
  171MOL0     C22955   6.564   8.887   9.225  0.9323 -0.2063 -0.1259
  171MOL0     C22956   6.434   8.864   9.278 -0.1471  0.5406 -0.0138
  171MOL0     C22957   6.317   8.896   9.209  0.1844  0.4615 -0.2798
  171MOL0     O22958   6.197   8.848   9.269  0.4425 -0.3512 -0.7056
  171MOL0     C22959   6.076   8.907   9.215  1.4150  0.0037 -0.2494
  171MOL0     C22960   5.971   8.861   9.317 -0.2526 -0.5474  0.0621
  171MOL0     C22961   5.963   8.717   9.345  0.0702  0.6872 -0.1462
  171MOL0     C22962   5.818   8.670   9.322 -0.2399 -0.0657  0.0940
  171MOL0     C22963   5.805   8.521   9.328  0.1539  0.7107  0.6293
  171MOL0     C22964   5.658   8.469   9.297 -0.1675  0.8382 -0.3788
  171MOL0     C22965   5.561   8.513   9.406 -0.2841  0.2202 -0.1157
  171MOL0     C22966   5.433   8.457   9.368 -0.1298  0.7421 -0.2999
  171MOL0     N22967   5.340   8.503   9.469  0.5505  0.5290 -0.1381
  171MOL0     C22968   5.276   8.621   9.465  0.4043 -0.0341 -0.5489
  171MOL0     C22969   5.237   8.646   9.595 -0.0707 -0.0949  0.3592
  171MOL0     C22970   5.166   8.773   9.648  0.6987 -0.2576 -0.2745
  171MOL0     C22971   5.022   8.727   9.683  0.7889 -0.2995 -0.7934
  171MOL0     C22972   4.937   8.842   9.741 -0.1491 -0.5006  0.9335
  171MOL0     C22973   4.785   8.801   9.745 -0.1601 -0.5923 -0.1841
  171MOL0     O22974   4.727   8.742   9.626 -0.4279 -0.8470 -0.0257
  171MOL0     C22975   4.592   8.748   9.616  0.0228  0.1853  0.3344
  171MOL0     C22976   4.535   8.733   9.494 -0.0741 -0.0181 -0.7508
  171MOL0     C22977   4.399   8.726   9.469  0.3775  0.5663  0.9951
  171MOL0     C22978   4.358   8.711   9.326  0.1754  0.1829  0.2111
  171MOL0     C22979   4.310   8.733   9.581  0.0507  0.1433 -0.0006
  171MOL0     C22980   4.163   8.728   9.560 -1.0819 -0.1398  0.0516
  171MOL0     O22981   4.113   8.643   9.463  0.4957 -0.1539 -0.6816
  171MOL0     C22982   3.976   8.617   9.453  0.3944  0.6491  0.1675
  171MOL0     C22983   3.919   8.617   9.325  0.2773  0.5677  0.5388
  171MOL0     C22984   3.789   8.587   9.310  0.9280 -0.4433 -0.0925
  171MOL0     C22985   3.703   8.569   9.425  0.3994  0.5663  0.1270
  171MOL0     O22986   3.566   8.545   9.423 -0.5139 -0.2839  0.0628
  171MOL0     C22987   3.483   8.534   9.307 -0.3661  0.0327 -0.1906
  171MOL0     C22988   3.439   8.668   9.258  0.6110 -0.3271 -0.5620
  171MOL0     C22989   3.409   8.666   9.109  0.0891  0.5051  0.3586
  171MOL0     C22990   3.383   8.804   9.046  0.4095 -0.9804  0.0050
  171MOL0     C22991   3.231   8.828   9.005  0.1368  0.0243  0.9052
  171MOL0     C22992   3.180   8.973   8.965 -1.0125  0.5166 -0.1585
  171MOL0     C22993   3.079   8.955   8.847  0.6226 -0.2928 -0.0828
  171MOL0     C22994   3.039   9.075   8.765  0.5957 -0.3117  0.1649
  171MOL0    Cl22995   2.985   9.215   8.859 -0.3619 -0.0768 -0.1837
  171MOL0     C22996   3.754   8.574   9.552 -0.8934  0.1531 -0.3838
  171MOL0     C22997   3.895   8.601   9.569  0.2584  0.4082 -0.2364
  171MOL0     O22998   4.097   8.819   9.615  0.0136  0.3511 -0.7492
  171MOL0     C22999   4.366   8.753   9.708 -0.2382 -0.7067  0.5013
  171MOL0     C23000   4.507   8.759   9.727  0.3224 -0.1498  0.4009
  171MOL0     N23001   5.284   8.541   9.674  0.5852  0.1158 -0.9244
  171MOL0     N23002   5.340   8.453   9.595 -0.2207 -0.1818 -0.6212
  171MOL0     C23003   6.326   8.962   9.087 -0.5093 -0.7487  0.6706
  171MOL0     C23004   6.451   8.986   9.035  0.8572 -0.6645 -0.4347
  171MOL0     C23005   6.873   9.127   8.982  0.0688  0.5022  0.7533
  171MOL0     C23006   6.925   9.025   8.890 -0.3081  0.0279 -0.1588
  171MOL0     C23007   7.050   9.042   8.833  0.1373  0.4782  0.5946
  171MOL0     C23008   7.122   9.152   8.857  0.1780 -0.2643 -0.0041
  171MOL0     O23009   7.233   9.187   8.783  0.4805  0.1058  1.1505
  171MOL0     C23010   7.287   9.114   8.674 -0.2855 -0.2339 -0.6698
  171MOL0     C23011   7.427   9.156   8.665  0.1132 -0.5251 -0.4316
  171MOL0     C23012   7.508   9.065   8.579 -0.0494  0.3899  0.3567
  171MOL0     C23013   7.651   9.125   8.565 -0.1133 -0.6471 -0.1887
  171MOL0     C23014   7.739   9.032   8.484  0.8136 -0.1595 -0.6816
  171MOL0     C23015   7.791   8.967   8.395  0.6109 -0.1931 -0.0479
  171MOL0     C23016   7.082   9.256   8.947  0.1898  0.2505  0.3613
  171MOL0     C23017   6.957   9.241   9.008  0.2288  0.0307 -0.3654
  171MOL0     H23018   6.655   8.858   9.276  0.0858  0.7844  2.0858
  171MOL0     H23019   6.432   8.817   9.376  0.9272 -0.3285 -0.3828
  171MOL0     H23020   6.088   9.016   9.212  0.1886  0.1357 -1.1134
  171MOL0     H23021   6.046   8.869   9.117 -0.3986 -1.6268  0.8500
  171MOL0     H23022   5.991   8.906   9.415 -1.2397 -1.3705  0.6536
  171MOL0     H23023   5.874   8.902   9.289  1.1802  3.9495  0.8874
  171MOL0     H23024   6.026   8.651   9.284 -1.5264 -3.1523  1.9721
  171MOL0     H23025   5.995   8.693   9.447 -0.5708 -1.5530 -0.4025
  171MOL0     H23026   5.761   8.719   9.402 -1.1240 -0.7010 -0.1293
  171MOL0     H23027   5.778   8.698   9.224 -2.0645  1.1041  1.1076
  171MOL0     H23028   5.870   8.488   9.246 -2.9513  0.9736 -2.1492
  171MOL0     H23029   5.831   8.482   9.427 -1.4055 -2.4895 -0.0715
  171MOL0     H23030   5.623   8.493   9.196 -2.0162 -1.0229 -0.2544
  171MOL0     H23031   5.658   8.360   9.287 -1.1834  0.7657  0.2018
  171MOL0     H23032   5.587   8.486   9.509  2.4989 -2.7464 -1.4016
  171MOL0     H23033   5.544   8.621   9.405 -2.4733 -0.0807 -0.3176
  171MOL0     H23034   5.438   8.347   9.373 -0.7057  0.7480  0.7066
  171MOL0     H23035   5.400   8.488   9.269 -0.9568  0.5526 -0.0957
  171MOL0     H23036   5.248   8.688   9.385  0.2925  1.2648  0.5309
  171MOL0     H23037   5.220   8.818   9.732 -0.8986  2.6588 -0.6502
  171MOL0     H23038   5.166   8.845   9.566  2.8073 -0.9860 -0.9658
  171MOL0     H23039   5.025   8.655   9.765  0.0691  1.6457  1.0450
  171MOL0     H23040   4.972   8.693   9.592  0.1769  1.0071 -0.9768
  171MOL0     H23041   4.947   8.941   9.697 -0.2521  0.1743  2.3892
  171MOL0     H23042   4.968   8.845   9.845  2.3856 -0.0190  0.2230
  171MOL0     H23043   4.736   8.898   9.762  1.6414  0.4543 -0.7809
  171MOL0     H23044   4.764   8.740   9.833 -3.2509 -0.2098 -0.5295
  171MOL0     H23045   4.606   8.721   9.412  1.4083  0.8875  0.3495
  171MOL0     H23046   4.338   8.609   9.292 -0.8878  1.3100 -2.9412
  171MOL0     H23047   4.271   8.774   9.306  0.3783  1.0883  1.9855
  171MOL0     H23048   4.437   8.751   9.262  1.2596 -0.8584  0.8577
  171MOL0     H23049   3.981   8.634   9.237  0.9471 -1.6492  0.5314
  171MOL0     H23050   3.751   8.578   9.209  2.4320  0.3689 -0.7615
  171MOL0     H23051   3.540   8.478   9.233 -0.6264 -1.7783  0.9365
  171MOL0     H23052   3.391   8.480   9.333 -1.1665  1.7446  0.7121
  171MOL0     H23053   3.347   8.694   9.310  0.3098 -2.3141 -0.0292
  171MOL0     H23054   3.521   8.738   9.276  0.9639 -0.6221 -0.9915
  171MOL0     H23055   3.325   8.597   9.093  1.3510 -0.7250 -1.4283
  171MOL0     H23056   3.495   8.617   9.062 -0.9051  0.4235 -1.4649
  171MOL0     H23057   3.407   8.880   9.120 -1.8596 -1.7298  1.6040
  171MOL0     H23058   3.449   8.823   8.961 -0.9935 -0.8735 -1.0951
  171MOL0     H23059   3.158   8.805   9.083 -2.6519  0.6037 -1.3394
  171MOL0     H23060   3.211   8.756   8.925  2.7407  0.3261 -0.1319
  171MOL0     H23061   3.125   9.008   9.053 -0.9733 -1.7109  0.8145
  171MOL0     H23062   3.259   9.043   8.938 -2.1038  1.5990 -0.6349
  171MOL0     H23063   2.990   8.923   8.902  0.3827  0.8981  0.2742
  171MOL0     H23064   3.117   8.881   8.776 -1.1743  0.1070 -1.5346
  171MOL0     H23065   2.965   9.044   8.691  1.9852  0.8055 -1.8142
  171MOL0     H23066   3.128   9.107   8.709 -0.4409  0.1101 -1.3047
  171MOL0     H23067   3.692   8.554   9.639 -0.4460  0.5623  0.0333
  171MOL0     H23068   3.924   8.619   9.672 -1.6728  0.3883  0.3483
  171MOL0     H23069   4.296   8.761   9.790 -3.1226 -0.1749 -1.8352
  171MOL0     H23070   4.548   8.767   9.827  1.6201  4.0173 -0.2965
  171MOL0     H23071   6.236   8.989   9.034  0.1290 -0.1957 -0.1515
  171MOL0     H23072   6.455   9.036   8.939 -4.1077  0.7308 -0.2322
  171MOL0     H23073   6.871   8.933   8.868 -0.7715 -0.0062  1.0221
  171MOL0     H23074   7.100   8.972   8.767 -0.4528  1.9129 -1.4998
  171MOL0     H23075   7.292   9.010   8.708  1.9678  0.3232  0.8998
  171MOL0     H23076   7.233   9.115   8.579 -1.3272 -1.3256 -0.1166
  171MOL0     H23077   7.468   9.155   8.766  0.2153  0.5562 -0.4470
  171MOL0     H23078   7.435   9.262   8.637  1.3582 -0.4852 -0.0048
  171MOL0     H23079   7.461   9.059   8.481 -0.8562  0.7758  0.7070
  171MOL0     H23080   7.504   8.962   8.615  0.8620 -1.4509 -4.1516
  171MOL0     H23081   7.683   9.120   8.669 -0.6565 -1.8225 -0.0571
  171MOL0     H23082   7.662   9.225   8.523  5.2100 -0.4802  0.9157
  171MOL0     H23083   7.843   8.902   8.327  1.6406  0.5799 -0.0354
  171MOL0     H23084   7.152   9.337   8.958  2.0091 -1.0291 -1.1068
  171MOL0     H23085   6.934   9.306   9.092  0.7251  1.3175 -1.1986
  172MOL0     O23086   0.161   4.477   9.575  0.2350  0.1003  0.0416
  172MOL0     C23087   0.205   4.501   9.456  0.7987  0.8804 -0.0249
  172MOL0     O23088   0.134   4.566   9.352 -0.5394 -0.1085  0.1915
  172MOL0     C23089   0.003   4.606   9.373  1.1213 -0.4402 -0.1708
  172MOL0     C23090  -0.030   4.708   9.465  0.0976 -1.2609  0.1646
  172MOL0     C23091  -0.163   4.750   9.483 -0.3019  0.4694 -0.2505
  172MOL0     C23092  -0.270   4.689   9.408  0.0437  0.2301 -0.2825
  172MOL0     O23093  -0.406   4.725   9.408 -0.0382  0.4143 -0.2363
  172MOL0     C23094  -0.469   4.843   9.460 -0.6360 -0.3574 -0.5314
  172MOL0     C23095  -0.614   4.815   9.457 -0.0067  0.5444 -0.9351
  172MOL0     C23096  -0.671   4.830   9.316  0.1960  0.2616 -0.0870
  172MOL0     C23097  -0.818   4.785   9.309 -0.2497 -0.0761 -0.0431
  172MOL0     C23098  -0.893   4.853   9.190  0.0564 -0.3647  0.2375
  172MOL0     C23099  -1.040   4.804   9.184 -0.4743 -0.5754 -0.1358
  172MOL0     C23100  -1.125   4.888   9.102 -0.0477  0.1862 -0.7265
  172MOL0     C23101  -1.270   4.843   9.128  0.0365  0.8290  0.3685
  172MOL0     N23102  -1.361   4.936   9.060  0.0889  0.1595  0.0661
  172MOL0     C23103  -1.430   5.037   9.123  1.0863  0.7801 -0.4417
  172MOL0     C23104  -1.515   5.087   9.027  0.3047 -0.4750  0.4302
  172MOL0     C23105  -1.598   5.218   9.033 -0.0159  0.0173 -0.4521
  172MOL0     C23106  -1.705   5.204   9.137 -0.6873  0.0402  0.1168
  172MOL0     C23107  -1.793   5.077   9.123 -0.3599  0.6901  0.9494
  172MOL0     C23108  -1.873   5.103   8.995 -0.2743  0.2629 -0.4187
  172MOL0     O23109  -1.953   4.989   8.981  0.0387  0.0161 -0.5033
  172MOL0     C23110  -2.059   4.996   8.893 -0.3396 -0.4693 -0.1401
  172MOL0     C23111  -2.153   4.900   8.892 -0.2794  1.0103 -0.6837
  172MOL0     C23112  -2.273   4.900   8.811  0.1855  0.1005 -0.6170
  172MOL0     C23113  -2.377   4.788   8.830 -0.3145  0.0921  0.4455
  172MOL0     C23114  -2.277   5.009   8.716  0.5271  0.4473  0.0830
  172MOL0     C23115  -2.397   5.022   8.623 -0.3432  0.5741 -0.6150
  172MOL0     O23116  -2.436   4.903   8.563  0.3376 -0.2707  0.6970
  172MOL0     C23117  -2.561   4.888   8.513 -0.0501 -0.8448 -0.3803
  172MOL0     C23118  -2.676   4.964   8.540 -0.7719 -0.0983 -0.6874
  172MOL0     C23119  -2.789   4.952   8.450 -0.0215 -0.1993  0.7859
  172MOL0     C23120  -2.792   4.844   8.355  0.0426  0.1368  0.2192
  172MOL0     O23121  -2.913   4.800   8.302 -0.3517 -0.2509 -0.1032
  172MOL0     C23122  -3.012   4.756   8.394  0.8492  0.1907  0.7405
  172MOL0     C23123  -3.147   4.731   8.319  0.1549 -0.1930 -0.0654
  172MOL0     C23124  -3.158   4.595   8.266  0.4010  1.8477  0.4304
  172MOL0     C23125  -3.297   4.562   8.212 -0.1557  0.6518  0.0217
  172MOL0     C23126  -3.297   4.437   8.125 -0.0010  0.0514  0.3912
  172MOL0     C23127  -3.441   4.381   8.086 -0.4159  0.1131 -0.3784
  172MOL0     C23128  -3.480   4.426   7.946 -0.1837  0.9296 -0.0798
  172MOL0     C23129  -3.617   4.367   7.901  0.5559 -0.0888  0.1940
  172MOL0    Cl23130  -3.604   4.187   7.895  0.1071  0.0994  0.1803
  172MOL0     C23131  -2.673   4.769   8.341 -0.0530  0.0233  1.1370
  172MOL0     C23132  -2.554   4.793   8.418  0.6228  0.2293 -0.3652
  172MOL0     O23133  -2.446   5.141   8.613 -0.2171  1.2385 -0.8894
  172MOL0     C23134  -2.171   5.100   8.708 -0.3422 -0.4868  0.2516
  172MOL0     C23135  -2.068   5.099   8.797 -0.4617 -0.1023 -0.5157
  172MOL0     N23136  -1.480   5.018   8.910 -0.5939  0.0604 -0.4275
  172MOL0     N23137  -1.396   4.927   8.929  0.0154  0.0498 -0.5118
  172MOL0     C23138  -0.237   4.588   9.316  0.2265 -1.2886  1.1644
  172MOL0     C23139  -0.099   4.551   9.300 -0.3582 -0.8423  0.5190
  172MOL0     C23140   0.342   4.461   9.413 -0.1656  0.1497 -1.2143
  172MOL0     C23141   0.385   4.483   9.278  1.6246  0.9243  1.1619
  172MOL0     C23142   0.504   4.422   9.232  0.8829 -0.7573 -0.4511
  172MOL0     C23143   0.594   4.365   9.324  0.4758 -0.2984 -0.7008
  172MOL0     O23144   0.705   4.295   9.272 -0.3018 -0.3298 -0.0911
  172MOL0     C23145   0.778   4.217   9.367 -0.2355  0.0482  0.8840
  172MOL0     C23146   0.900   4.165   9.289 -0.1855  0.0420  0.3559
  172MOL0     C23147   0.990   4.271   9.221  0.7447 -0.4439 -0.3373
  172MOL0     C23148   1.099   4.207   9.138  0.6330  0.2973  0.0464
  172MOL0     C23149   1.210   4.156   9.223  0.1056 -1.2020  0.0430
  172MOL0     C23150   1.317   4.132   9.282  0.7061  0.0163 -0.3180
  172MOL0     C23151   0.559   4.377   9.466 -0.5247  0.5506  1.1831
  172MOL0     C23152   0.437   4.413   9.505 -0.2792 -0.0904 -0.2296
  172MOL0     H23153   0.044   4.769   9.515 -1.8208  1.3497  0.0244
  172MOL0     H23154  -0.185   4.826   9.557  2.8597  0.7257  0.5675
  172MOL0     H23155  -0.438   4.872   9.561 -2.2553 -5.6386  1.8210
  172MOL0     H23156  -0.452   4.924   9.388 -2.5678 -1.0752 -1.8982
  172MOL0     H23157  -0.636   4.716   9.500 -0.8686  1.9822  2.2258
  172MOL0     H23158  -0.659   4.892   9.520  0.9950  2.0778 -2.0148
  172MOL0     H23159  -0.659   4.936   9.289  2.2039  0.0504 -0.2089
  172MOL0     H23160  -0.614   4.788   9.233  0.0379 -0.0921 -0.0148
  172MOL0     H23161  -0.820   4.676   9.313 -0.5173 -0.0706  3.3752
  172MOL0     H23162  -0.864   4.809   9.405  0.3666  2.8299 -0.3977
  172MOL0     H23163  -0.901   4.962   9.200 -1.1168 -0.3425 -0.7572
  172MOL0     H23164  -0.854   4.823   9.093  0.5413 -1.3668  0.7280
  172MOL0     H23165  -1.046   4.702   9.142 -2.3754 -0.6949  0.3464
  172MOL0     H23166  -1.076   4.795   9.287 -0.0708  0.2367  0.0763
  172MOL0     H23167  -1.117   4.993   9.133  0.9184 -0.7040  2.3785
  172MOL0     H23168  -1.108   4.871   8.996 -1.4843 -0.2582 -0.9052
  172MOL0     H23169  -1.290   4.826   9.234 -0.6923  4.0878  0.8677
  172MOL0     H23170  -1.280   4.751   9.070  0.3666  1.9071 -1.5020
  172MOL0     H23171  -1.412   5.059   9.227 -1.8754 -2.0855  0.8819
  172MOL0     H23172  -1.530   5.299   9.060  0.1416  0.3089 -1.7032
  172MOL0     H23173  -1.646   5.247   8.939 -0.0182  3.2574  0.4165
  172MOL0     H23174  -1.761   5.297   9.121 -1.0867 -0.3469 -0.8379
  172MOL0     H23175  -1.659   5.189   9.234  1.3611 -1.3997 -1.0040
  172MOL0     H23176  -1.864   5.077   9.206 -2.8091 -1.2355 -0.9729
  172MOL0     H23177  -1.734   4.985   9.114  0.9236  1.5932 -0.2065
  172MOL0     H23178  -1.812   5.101   8.904 -0.5202  0.2701 -0.5841
  172MOL0     H23179  -1.932   5.196   8.999  0.8095  0.9391  0.5569
  172MOL0     H23180  -2.144   4.823   8.968  0.9872  0.9773 -0.8438
  172MOL0     H23181  -2.472   4.834   8.859  1.1275  3.7756 -0.1361
  172MOL0     H23182  -2.380   4.725   8.741 -0.2103 -1.5780  1.5705
  172MOL0     H23183  -2.337   4.719   8.905  1.9632  0.2657 -0.5289
  172MOL0     H23184  -2.680   5.040   8.618 -0.6080  0.4957 -1.2466
  172MOL0     H23185  -2.884   5.002   8.464  0.1956  0.3276  0.4304
  172MOL0     H23186  -2.975   4.668   8.447 -0.1120 -2.5849 -2.8021
  172MOL0     H23187  -3.029   4.835   8.468  0.3067  0.0200  0.8031
  172MOL0     H23188  -3.218   4.754   8.399 -2.1300 -0.8615 -1.7772
  172MOL0     H23189  -3.166   4.809   8.244 -0.2348  0.3052  0.5366
  172MOL0     H23190  -3.144   4.525   8.348  0.2682  0.1828 -0.9145
  172MOL0     H23191  -3.084   4.580   8.187 -1.9915  0.8085 -1.7836
  172MOL0     H23192  -3.362   4.535   8.296  0.6221 -0.4935  0.2907
  172MOL0     H23193  -3.330   4.639   8.142  1.0578 -0.5272 -1.9542
  172MOL0     H23194  -3.236   4.361   8.176 -2.2544 -2.0330  0.1690
  172MOL0     H23195  -3.247   4.469   8.033 -0.8911  1.1507  0.2705
  172MOL0     H23196  -3.435   4.272   8.076 -1.3337  0.1397 -1.4201
  172MOL0     H23197  -3.521   4.398   8.159 -0.2462 -1.2666  0.1547
  172MOL0     H23198  -3.411   4.386   7.871 -1.3744 -1.1542 -0.1600
  172MOL0     H23199  -3.481   4.535   7.949  2.8150  1.0467  2.6573
  172MOL0     H23200  -3.657   4.395   7.803  2.1083  1.0996 -0.1319
  172MOL0     H23201  -3.687   4.392   7.981 -0.9026 -1.4201 -0.6151
  172MOL0     H23202  -2.662   4.700   8.258  3.6044  3.6321 -1.7966
  172MOL0     H23203  -2.472   4.726   8.394 -0.0259 -2.1867  3.2891
  172MOL0     H23204  -2.183   5.176   8.632  1.1425 -1.6895 -1.2599
  172MOL0     H23205  -1.997   5.180   8.793  1.4811 -1.6001  1.2799
  172MOL0     H23206  -0.316   4.540   9.259 -1.0480  1.4062  0.5381
  172MOL0     H23207  -0.072   4.480   9.222  4.0478  0.1706  0.8529
  172MOL0     H23208   0.318   4.530   9.207 -0.0261  0.5793  2.4418
  172MOL0     H23209   0.537   4.436   9.130 -1.4480 -0.6953 -1.2577
  172MOL0     H23210   0.818   4.270   9.454  2.6004  0.5658 -0.6073
  172MOL0     H23211   0.708   4.139   9.399 -1.9514  0.3599 -1.7889
  172MOL0     H23212   0.857   4.086   9.226 -1.0911  0.1340  0.8409
  172MOL0     H23213   0.966   4.111   9.358  0.0732  0.5286  0.4906
  172MOL0     H23214   1.036   4.326   9.303 -2.9204 -0.9326  2.3124
  172MOL0     H23215   0.927   4.342   9.168 -0.7396 -0.2829  1.5354
  172MOL0     H23216   1.133   4.284   9.068  3.2060 -1.2571 -0.5255
  172MOL0     H23217   1.059   4.119   9.086  1.7763 -0.9720  1.2409
  172MOL0     H23218   1.407   4.118   9.338  0.7903  0.4253 -0.3481
  172MOL0     H23219   0.624   4.332   9.540 -0.1468 -1.0015 -0.0175
  172MOL0     H23220   0.411   4.405   9.610  1.5334  2.8639  0.5453
  173MOL0     O23221   5.272   6.886   2.588  0.1595 -0.2308 -0.3324
  173MOL0     C23222   5.260   7.001   2.630  0.8691 -0.6225 -0.6391
  173MOL0     O23223   5.142   7.079   2.658  0.2512  0.0299  0.6664
  173MOL0     C23224   5.014   7.029   2.645 -0.5806 -0.1772 -0.8969
  173MOL0     C23225   4.914   7.127   2.634 -0.2970 -0.2882 -0.5394
  173MOL0     C23226   4.786   7.090   2.614  0.3465  0.3742  0.8457
  173MOL0     C23227   4.749   6.952   2.599 -0.3633 -0.0798  0.5883
  173MOL0     O23228   4.618   6.917   2.560 -0.2205  0.1392 -0.1491
  173MOL0     C23229   4.531   7.019   2.509  0.1145  0.0427  0.2955
  173MOL0     C23230   4.392   6.977   2.468 -0.6624 -0.8079  0.1405
  173MOL0     C23231   4.296   6.950   2.580  0.4511  0.5174  0.6385
  173MOL0     C23232   4.161   6.937   2.504  0.5707  0.2960  1.1114
  173MOL0     C23233   4.052   6.887   2.606 -0.0301 -0.6205 -0.1076
  173MOL0     C23234   3.924   6.867   2.524 -0.6053  0.1206 -1.0622
  173MOL0     C23235   3.798   6.828   2.620 -0.0848 -0.0781  0.5981
  173MOL0     C23236   3.667   6.816   2.551 -0.3279  0.0417  0.0088
  173MOL0     N23237   3.575   6.778   2.665  0.4238 -0.5969 -0.0512
  173MOL0     C23238   3.509   6.881   2.738 -0.5155 -0.3898 -0.7074
  173MOL0     C23239   3.441   6.821   2.839 -0.7703 -0.0230 -0.3010
  173MOL0     C23240   3.365   6.887   2.955 -0.5852 -0.4110 -0.9172
  173MOL0     C23241   3.213   6.910   2.950  0.3086  0.5756 -0.2085
  173MOL0     C23242   3.181   6.995   2.827 -0.8588  0.3893 -0.0618
  173MOL0     C23243   3.041   7.042   2.840 -0.4995  0.0251 -0.2318
  173MOL0     O23244   3.034   7.165   2.918 -0.6241 -0.6304  0.6411
  173MOL0     C23245   2.921   7.241   2.933 -0.0513 -0.0869 -0.2773
  173MOL0     C23246   2.938   7.378   2.967  0.6834 -1.0850 -0.4049
  173MOL0     C23247   2.835   7.464   2.995  0.4450 -0.3621  1.1315
  173MOL0     C23248   2.870   7.610   3.011  0.2568 -0.2744  0.6298
  173MOL0     C23249   2.708   7.413   2.983  0.1900 -0.2832 -0.4151
  173MOL0     C23250   2.585   7.484   2.992  0.6898 -0.3138  0.2343
  173MOL0     O23251   2.472   7.412   2.961  0.1859 -0.1743 -0.2990
  173MOL0     C23252   2.346   7.448   2.995 -1.1556 -0.2151  0.0465
  173MOL0     C23253   2.244   7.349   2.977  0.1670 -0.2310 -1.3632
  173MOL0     C23254   2.113   7.382   3.003  0.4974  0.1814 -0.0642
  173MOL0     C23255   2.070   7.513   3.042  0.1335 -0.7416  0.7188
  173MOL0     O23256   1.935   7.547   3.040  0.5726 -0.3821  0.7108
  173MOL0     C23257   1.830   7.461   2.987 -0.4113  0.8509  0.4228
  173MOL0     C23258   1.706   7.528   3.033 -0.3139 -0.5673  0.2724
  173MOL0     C23259   1.588   7.478   2.956 -0.4792 -0.1995  0.2620
  173MOL0     C23260   1.531   7.345   3.019  0.0714  0.3103  0.3869
  173MOL0     C23261   1.441   7.266   2.911 -0.3492  0.3164  0.0123
  173MOL0     C23262   1.316   7.352   2.859  0.2913  1.2005  0.0344
  173MOL0     C23263   1.228   7.279   2.751  0.3054 -0.7817  0.5687
  173MOL0     C23264   1.088   7.238   2.792  0.0553 -0.5929 -0.0666
  173MOL0    Cl23265   1.098   7.089   2.896 -0.1248 -0.5509  0.5804
  173MOL0     C23266   2.166   7.617   3.048  0.1408  0.0226  0.5796
  173MOL0     C23267   2.301   7.582   3.025  0.6464 -0.0484  0.0615
  173MOL0     O23268   2.588   7.603   3.021  0.2068 -0.6114 -0.1053
  173MOL0     C23269   2.691   7.270   2.963  0.0029  0.2062 -1.0436
  173MOL0     C23270   2.801   7.181   2.946  0.8724 -0.3899 -0.6577
  173MOL0     N23271   3.477   6.678   2.833 -0.2566 -0.5819  0.1802
  173MOL0     N23272   3.549   6.659   2.721  0.6807  0.0231  0.1361
  173MOL0     C23273   4.839   6.847   2.612  0.3733 -0.1945 -0.0504
  173MOL0     C23274   4.977   6.888   2.634 -0.0869 -0.4041 -0.8247
  173MOL0     C23275   5.389   7.071   2.652 -1.0675 -0.2112  0.0088
  173MOL0     C23276   5.501   6.998   2.691  0.3760 -0.3441 -0.5984
  173MOL0     C23277   5.628   7.058   2.710  0.2734  0.7439  0.1768
  173MOL0     C23278   5.632   7.203   2.705  0.3978 -0.1173  0.6918
  173MOL0     O23279   5.748   7.276   2.738  0.3637 -0.2303  0.1211
  173MOL0     C23280   5.874   7.206   2.749 -0.3323  0.0506  0.2063
  173MOL0     C23281   5.985   7.311   2.721 -0.0115 -0.1932  0.4674
  173MOL0     C23282   5.959   7.365   2.576 -0.2520 -0.3163 -0.3581
  173MOL0     C23283   6.078   7.390   2.493 -0.2409 -0.1361 -0.0659
  173MOL0     C23284   6.153   7.514   2.516  0.5413 -1.1252  0.2611
  173MOL0     C23285   6.233   7.603   2.526 -0.0046  0.6598  0.0824
  173MOL0     C23286   5.523   7.273   2.659  0.1752 -0.1505 -0.3057
  173MOL0     C23287   5.403   7.207   2.634  0.1848 -0.0050 -0.6411
  173MOL0     H23288   4.944   7.231   2.630 -0.9218 -0.0879 -0.0304
  173MOL0     H23289   4.712   7.169   2.612 -0.2204 -0.1614  0.0289
  173MOL0     H23290   4.515   7.093   2.588 -0.9881 -1.4710  1.5392
  173MOL0     H23291   4.575   7.071   2.423 -2.2710  3.3069  0.8248
  173MOL0     H23292   4.363   7.070   2.418  2.2148 -0.0257 -0.2273
  173MOL0     H23293   4.396   6.896   2.395 -2.0869  1.1965 -2.3573
  173MOL0     H23294   4.316   6.855   2.632 -1.2237  0.6007  1.4748
  173MOL0     H23295   4.294   7.034   2.650 -0.8992 -1.5057  3.2260
  173MOL0     H23296   4.131   7.026   2.448 -3.5775 -1.2637  0.4774
  173MOL0     H23297   4.159   6.873   2.416  2.1326  0.0594  1.2248
  173MOL0     H23298   4.096   6.795   2.645 -1.8282 -1.0776  0.9769
  173MOL0     H23299   4.022   6.956   2.686  0.8283 -1.3625  0.8726
  173MOL0     H23300   3.909   6.967   2.483 -1.8535 -0.2531 -1.5611
  173MOL0     H23301   3.941   6.781   2.459  0.0242 -0.4332 -0.1972
  173MOL0     H23302   3.828   6.747   2.687 -0.7525  0.3157  1.3968
  173MOL0     H23303   3.795   6.891   2.709 -1.4824 -1.2465  1.4287
  173MOL0     H23304   3.662   6.736   2.476 -1.6635 -0.9376  1.0786
  173MOL0     H23305   3.642   6.906   2.495  0.8413 -0.0906 -0.7666
  173MOL0     H23306   3.522   6.988   2.725 -1.0705 -0.5805 -3.4389
  173MOL0     H23307   3.399   6.828   3.041  1.2498  0.2996 -1.1259
  173MOL0     H23308   3.406   6.987   2.972 -2.1006  0.6923 -3.1293
  173MOL0     H23309   3.168   6.957   3.038 -0.0395 -1.5565  0.8022
  173MOL0     H23310   3.157   6.817   2.943  0.9802  0.0101  1.5552
  173MOL0     H23311   3.198   6.927   2.742  0.6999 -1.6349  1.7649
  173MOL0     H23312   3.251   7.079   2.824  1.3956 -1.4138 -1.7071
  173MOL0     H23313   2.977   6.971   2.893  0.6308 -1.1180 -0.3523
  173MOL0     H23314   3.007   7.068   2.739 -2.9447  3.2979  1.2636
  173MOL0     H23315   3.043   7.406   2.967  0.9617 -2.1089 -0.4004
  173MOL0     H23316   2.966   7.637   2.967 -0.0632 -0.6730 -0.3391
  173MOL0     H23317   2.796   7.664   2.952  2.1045  0.9476 -0.6770
  173MOL0     H23318   2.869   7.637   3.117  4.0731  1.0303  0.4838
  173MOL0     H23319   2.266   7.250   2.938  0.4006  0.1252 -2.1622
  173MOL0     H23320   2.047   7.298   2.984 -1.8412  1.8364  0.2423
  173MOL0     H23321   1.834   7.452   2.878 -4.2614 -2.6626  0.3143
  173MOL0     H23322   1.836   7.358   3.024  4.5673  1.3073  1.6316
  173MOL0     H23323   1.705   7.519   3.142  0.4949 -0.3879  0.3054
  173MOL0     H23324   1.722   7.635   3.013 -1.7049 -0.0657  1.6191
  173MOL0     H23325   1.606   7.465   2.849 -0.8573 -1.0618  0.2934
  173MOL0     H23326   1.505   7.548   2.965  0.1986  0.6061  0.3846
  173MOL0     H23327   1.612   7.284   3.057  0.0651  1.1012  1.7118
  173MOL0     H23328   1.464   7.367   3.102 -1.3838  0.2049 -0.6995
  173MOL0     H23329   1.401   7.173   2.952  2.0551  0.0007  1.8230
  173MOL0     H23330   1.504   7.251   2.823 -0.8507  1.9869 -0.6867
  173MOL0     H23331   1.249   7.380   2.941 -0.6722 -0.0800 -0.2825
  173MOL0     H23332   1.357   7.443   2.815  1.7672  0.0662 -1.0506
  173MOL0     H23333   1.277   7.191   2.710  0.2113 -0.6373  0.1476
  173MOL0     H23334   1.217   7.347   2.666 -1.9216 -2.7612 -0.8461
  173MOL0     H23335   1.034   7.215   2.700  1.5766 -0.0645 -1.1437
  173MOL0     H23336   1.027   7.309   2.848  1.4682  0.2167  0.4989
  173MOL0     H23337   2.127   7.717   3.066 -3.2264 -1.3471  1.5779
  173MOL0     H23338   2.367   7.668   3.023 -1.1811  1.4072 -0.9886
  173MOL0     H23339   2.593   7.224   2.952 -1.1050  1.8008  1.3994
  173MOL0     H23340   2.786   7.074   2.943 -1.3916 -0.1580  0.4866
  173MOL0     H23341   4.807   6.744   2.611 -1.2001  0.2824 -1.2160
  173MOL0     H23342   5.044   6.804   2.642  0.4401  0.1258  0.6146
  173MOL0     H23343   5.496   6.894   2.722  2.1826  0.5501  3.3580
  173MOL0     H23344   5.704   6.985   2.733 -1.4741 -1.3860 -0.4591
  173MOL0     H23345   5.884   7.158   2.846 -3.0418 -1.6904 -0.2716
  173MOL0     H23346   5.885   7.129   2.672  0.0067  0.3249 -0.0222
  173MOL0     H23347   6.086   7.270   2.727  0.4391  0.3109 -2.1457
  173MOL0     H23348   5.980   7.399   2.785 -0.3388  2.3442 -2.7365
  173MOL0     H23349   5.887   7.447   2.582  0.2892  0.0969  3.4131
  173MOL0     H23350   5.903   7.286   2.524  0.0734 -1.7212  1.3145
  173MOL0     H23351   6.060   7.398   2.386  1.2891 -1.7138 -0.4924
  173MOL0     H23352   6.152   7.310   2.490  0.9325  0.9072  0.2370
  173MOL0     H23353   6.307   7.680   2.535  0.5247  1.0657 -5.1557
  173MOL0     H23354   5.512   7.379   2.636 -3.1731 -0.0290  1.2153
  173MOL0     H23355   5.325   7.261   2.582 -1.0485 -1.8073 -0.7857
  174MOL0     O23356  11.221   5.683   0.274  0.6395 -0.6010  0.1885
  174MOL0     C23357  11.269   5.694   0.390 -0.4251  0.7353  0.5613
  174MOL0     O23358  11.207   5.650   0.507 -0.0458 -0.4278 -0.1815
  174MOL0     C23359  11.067   5.653   0.506  0.0770  0.1038  0.1015
  174MOL0     C23360  10.995   5.549   0.562 -0.1204  0.4219  0.6957
  174MOL0     C23361  10.858   5.548   0.555  0.6588  0.6335  0.0021
  174MOL0     C23362  10.796   5.650   0.476  0.2403 -0.0913  0.9730
  174MOL0     O23363  10.661   5.646   0.439 -0.6414  0.0141 -0.1702
  174MOL0     C23364  10.562   5.582   0.531  0.2654 -0.0803  0.2039
  174MOL0     C23365  10.453   5.679   0.563  0.8209  0.1820 -0.2587
  174MOL0     C23366  10.353   5.626   0.670  0.2316 -0.0368 -0.3932
  174MOL0     C23367  10.260   5.733   0.716  0.0877 -0.0066 -0.4759
  174MOL0     C23368  10.132   5.688   0.791 -0.6140 -0.3372 -1.2638
  174MOL0     C23369  10.064   5.823   0.836  0.0576  0.3349 -0.9840
  174MOL0     C23370   9.926   5.784   0.909 -0.4129  0.1469 -0.5266
  174MOL0     C23371   9.851   5.892   0.974  0.0788 -0.7101 -0.2561
  174MOL0     N23372   9.709   5.864   0.990  0.0520 -0.3919  0.3113
  174MOL0     C23373   9.626   5.818   0.890 -0.1590 -0.3103 -0.1596
  174MOL0     C23374   9.512   5.788   0.959  0.2744  0.4355 -0.3519
  174MOL0     C23375   9.390   5.730   0.911  0.6308 -0.1689 -0.1406
  174MOL0     C23376   9.277   5.828   0.877  0.0693  0.0278  0.2679
  174MOL0     C23377   9.143   5.753   0.866 -1.0124  0.4571  0.3004
  174MOL0     C23378   9.034   5.845   0.797  0.2149  0.7782  0.0544
  174MOL0     O23379   9.025   5.974   0.864  0.2067  0.1475  0.3644
  174MOL0     C23380   8.906   6.034   0.855 -0.0824 -0.6731  0.3514
  174MOL0     C23381   8.874   6.135   0.947  0.5802  0.9418 -0.0686
  174MOL0     C23382   8.751   6.209   0.943  0.0288  0.7358  0.3351
  174MOL0     C23383   8.717   6.300   1.057 -0.1928  0.1527 -0.1813
  174MOL0     C23384   8.657   6.169   0.838 -0.2584 -0.6620 -0.4435
  174MOL0     C23385   8.522   6.234   0.826 -0.1821  0.3668 -0.8886
  174MOL0     O23386   8.433   6.157   0.770  0.7097 -0.0470  0.6848
  174MOL0     C23387   8.301   6.194   0.751  0.3393  0.3694  0.0149
  174MOL0     C23388   8.251   6.297   0.671 -0.0477  0.1756  1.1130
  174MOL0     C23389   8.111   6.317   0.661  0.6531  0.3898 -0.1577
  174MOL0     C23390   8.026   6.235   0.744 -0.3372  0.4962  0.3061
  174MOL0     O23391   7.900   6.248   0.709  0.0177 -0.1274  0.4664
  174MOL0     C23392   7.793   6.168   0.771 -1.1063 -0.6337  0.0161
  174MOL0     C23393   7.663   6.207   0.696 -1.0021 -0.3053 -0.3919
  174MOL0     C23394   7.547   6.148   0.768  0.1166  0.9780 -0.2651
  174MOL0     C23395   7.412   6.211   0.731 -0.5109  0.7235  0.0209
  174MOL0     C23396   7.289   6.167   0.820  0.3692  0.5511 -0.0610
  174MOL0     C23397   7.155   6.214   0.737  0.2482 -0.6730  0.5064
  174MOL0     C23398   7.029   6.159   0.794  1.1843 -0.4565  0.3441
  174MOL0     C23399   6.912   6.212   0.713 -0.1593 -0.5895  0.1379
  174MOL0    Cl23400   6.765   6.128   0.779 -0.0963  0.1588  0.1278
  174MOL0     C23401   8.084   6.141   0.830  0.9953  0.6014  0.1850
  174MOL0     C23402   8.218   6.118   0.826 -0.2995  0.5547 -0.5466
  174MOL0     O23403   8.503   6.350   0.862  0.5990 -0.1841  0.1659
  174MOL0     C23404   8.694   6.067   0.752  0.0837  0.4211  0.6990
  174MOL0     C23405   8.811   6.006   0.761 -0.9514  0.0116  0.7230
  174MOL0     N23406   9.523   5.822   1.086  0.3009 -0.1408  0.5870
  174MOL0     N23407   9.643   5.864   1.112 -0.6390 -0.9165 -0.1922
  174MOL0     C23408  10.864   5.760   0.429 -0.1540 -0.2576 -0.4480
  174MOL0     C23409  11.001   5.759   0.451  0.0381 -0.4792  1.2612
  174MOL0     C23410  11.412   5.716   0.405 -0.3681 -0.3506 -0.5254
  174MOL0     C23411  11.492   5.705   0.293 -0.2091  0.2072 -0.3514
  174MOL0     C23412  11.629   5.714   0.307 -0.2655  0.1164 -0.1905
  174MOL0     C23413  11.696   5.735   0.426 -0.6972 -0.0664  0.0534
  174MOL0     O23414  11.827   5.760   0.451 -0.1424 -0.2486 -0.2438
  174MOL0     C23415  11.914   5.753   0.337 -0.6259 -0.6687 -0.1151
  174MOL0     C23416  12.051   5.793   0.386 -0.0661  0.0017  0.3587
  174MOL0     C23417  12.160   5.775   0.268 -0.7879 -0.5258 -1.4299
  174MOL0     C23418  12.230   5.641   0.262 -0.3937  1.1676  0.0591
  174MOL0     C23419  12.299   5.612   0.387  0.0208  0.2007 -0.5530
  174MOL0     C23420  12.352   5.583   0.490 -0.2538  0.3094 -0.0359
  174MOL0     C23421  11.614   5.736   0.540 -0.7238 -0.3641 -0.2353
  174MOL0     C23422  11.473   5.727   0.538  0.0935  0.2078  0.2238
  174MOL0     H23423  11.039   5.463   0.612  0.2756  0.6373  0.7145
  174MOL0     H23424  10.800   5.459   0.582 -0.3627  0.9487 -1.0630
  174MOL0     H23425  10.519   5.485   0.504  0.1936 -0.4830  1.6794
  174MOL0     H23426  10.612   5.551   0.624  1.5464 -1.0117 -0.7600
  174MOL0     H23427  10.489   5.772   0.607 -1.0157  0.8746 -0.1373
  174MOL0     H23428  10.384   5.705   0.482  1.8068  0.7233 -0.9312
  174MOL0     H23429  10.293   5.542   0.635 -0.9379  0.8562 -0.6135
  174MOL0     H23430  10.418   5.597   0.754  3.6096  1.2621 -2.3539
  174MOL0     H23431  10.322   5.807   0.768  3.9037 -2.7210 -0.6987
  174MOL0     H23432  10.224   5.791   0.631 -0.7722  0.4009  0.1489
  174MOL0     H23433  10.060   5.625   0.738 -0.4604 -1.6835  0.0633
  174MOL0     H23434  10.162   5.626   0.876 -2.5175  1.2319  0.6912
  174MOL0     H23435  10.121   5.886   0.904  2.2704 -1.6209 -0.9083
  174MOL0     H23436  10.037   5.880   0.747 -1.6344  0.1765 -0.6067
  174MOL0     H23437   9.863   5.743   0.830  0.3036 -3.2745  0.5315
  174MOL0     H23438   9.947   5.707   0.984 -0.3998 -1.4907 -2.1333
  174MOL0     H23439   9.856   5.983   0.913  1.6516  0.1851  1.1277
  174MOL0     H23440   9.892   5.935   1.067 -2.2808  1.3384 -0.0462
  174MOL0     H23441   9.656   5.805   0.786  0.0216 -2.8466  0.1284
  174MOL0     H23442   9.411   5.676   0.818  1.8352 -0.8112  0.4849
  174MOL0     H23443   9.359   5.663   0.992  0.0868  0.0108 -0.1970
  174MOL0     H23444   9.296   5.875   0.780  0.7302 -2.3610 -0.8314
  174MOL0     H23445   9.262   5.908   0.951 -2.8503 -1.0697  1.0051
  174MOL0     H23446   9.116   5.723   0.968  1.4428 -0.6754  0.7103
  174MOL0     H23447   9.165   5.661   0.811 -2.1088 -0.5742  1.5256
  174MOL0     H23448   8.940   5.790   0.804 -1.3489  2.4306 -4.5020
  174MOL0     H23449   9.060   5.850   0.691  0.1925 -1.5089 -0.1157
  174MOL0     H23450   8.951   6.160   1.019  0.3350  1.3728  0.0483
  174MOL0     H23451   8.675   6.397   1.030 -0.8752  0.3176  1.3696
  174MOL0     H23452   8.639   6.249   1.115 -0.1607 -1.6920 -1.6731
  174MOL0     H23453   8.808   6.322   1.114  1.1989 -0.4557 -2.0486
  174MOL0     H23454   8.324   6.353   0.612  1.6028 -1.4899  1.4548
  174MOL0     H23455   8.068   6.400   0.606  0.3788  0.3956  0.0661
  174MOL0     H23456   7.826   6.065   0.756 -0.4926 -0.2972 -1.0865
  174MOL0     H23457   7.792   6.196   0.877  0.4060 -1.3474  0.2427
  174MOL0     H23458   7.665   6.317   0.701  2.2071 -0.2953  0.2255
  174MOL0     H23459   7.662   6.166   0.595 -2.4557  2.6728 -1.7135
  174MOL0     H23460   7.564   6.149   0.876  1.2656 -1.5689 -0.3422
  174MOL0     H23461   7.543   6.043   0.739  0.8672  0.5450  1.0758
  174MOL0     H23462   7.419   6.320   0.725  2.5135  0.6447  0.6364
  174MOL0     H23463   7.398   6.179   0.628  1.8801  0.2097 -0.2045
  174MOL0     H23464   7.276   6.211   0.920  1.0568 -1.7139  1.1012
  174MOL0     H23465   7.295   6.058   0.834 -1.5986  0.4253  0.2136
  174MOL0     H23466   7.148   6.320   0.710  2.1954 -0.8063 -0.6466
  174MOL0     H23467   7.163   6.178   0.635 -1.8320 -0.1819  0.1247
  174MOL0     H23468   7.033   6.185   0.900 -0.8068 -0.8724  0.5610
  174MOL0     H23469   7.020   6.050   0.785 -2.8495 -0.4215  1.9241
  174MOL0     H23470   6.922   6.198   0.605  1.9983 -1.7332  0.4294
  174MOL0     H23471   6.900   6.319   0.727 -0.8454 -0.5137 -0.8999
  174MOL0     H23472   8.020   6.068   0.878 -1.2228 -0.2165 -3.5892
  174MOL0     H23473   8.258   6.037   0.886  2.8688  1.2351 -1.5513
  174MOL0     H23474   8.627   6.024   0.678  0.9657  0.6652 -0.2669
  174MOL0     H23475   8.833   5.942   0.676 -1.3911  0.1859  0.4785
  174MOL0     H23476  10.822   5.839   0.368 -1.0661 -0.3739  0.0234
  174MOL0     H23477  11.053   5.838   0.398 -0.4816 -0.9787 -0.0406
  174MOL0     H23478  11.446   5.699   0.195 -0.2171 -2.2747 -0.2651
  174MOL0     H23479  11.682   5.715   0.212 -1.4033 -1.7704 -0.9185
  174MOL0     H23480  11.904   5.652   0.296  3.5940 -1.4901  0.4273
  174MOL0     H23481  11.892   5.825   0.258  0.9171 -0.8757 -0.7620
  174MOL0     H23482  12.076   5.721   0.465 -0.0408 -1.7456 -1.1678
  174MOL0     H23483  12.045   5.894   0.427  0.3654 -0.4728  1.6457
  174MOL0     H23484  12.236   5.852   0.288 -2.6019  0.9004  0.4465
  174MOL0     H23485  12.120   5.800   0.169  1.1751  1.4834 -1.8025
  174MOL0     H23486  12.314   5.639   0.192 -0.6258  1.0880 -0.2198
  174MOL0     H23487  12.155   5.565   0.235 -2.1199  1.4801  3.4604
  174MOL0     H23488  12.406   5.536   0.570  0.8207  0.4667 -0.6429
  174MOL0     H23489  11.656   5.747   0.640 -0.6647 -1.8611 -0.0715
  174MOL0     H23490  11.406   5.729   0.624 -1.7694 -0.8072 -1.1207
  175MOL0     O23491   6.446   7.569  10.331  0.2509 -0.1373 -0.3441
  175MOL0     C23492   6.500   7.541  10.439  0.1767  0.1678  0.6312
  175MOL0     O23493   6.435   7.553  10.566  0.0607 -0.0309 -0.0629
  175MOL0     C23494   6.305   7.590  10.561 -0.6559  0.3392 -0.5137
  175MOL0     C23495   6.209   7.502  10.611 -0.6598  0.3073 -1.0454
  175MOL0     C23496   6.073   7.534  10.604  0.0309  0.0707 -0.7609
  175MOL0     C23497   6.041   7.664  10.562  1.1388 -0.4740  0.1142
  175MOL0     O23498   5.915   7.707  10.541  1.1674 -0.5770  0.1497
  175MOL0     C23499   5.820   7.680  10.642  0.1394 -1.1544 -0.2155
  175MOL0     C23500   5.725   7.804  10.661 -0.0413  0.9673 -0.9436
  175MOL0     C23501   5.639   7.838  10.537  0.0009  0.6950 -0.6433
  175MOL0     C23502   5.528   7.728  10.513  0.1267 -0.6970 -0.0701
  175MOL0     C23503   5.466   7.755  10.372  0.0554 -0.0218 -0.2053
  175MOL0     C23504   5.354   7.655  10.329 -0.6290 -1.3297 -0.1752
  175MOL0     C23505   5.275   7.687  10.208 -0.8672 -0.1942 -0.5172
  175MOL0     C23506   5.145   7.602  10.203 -0.1328 -0.0296 -0.3869
  175MOL0     N23507   5.043   7.645  10.108 -0.8063 -0.5278  0.3149
  175MOL0     C23508   4.905   7.638  10.121  0.4156 -0.8223 -0.6837
  175MOL0     C23509   4.857   7.730  10.033  0.2942  0.1370  0.1216
  175MOL0     C23510   4.704   7.740  10.001  0.0496  0.7189  0.4642
  175MOL0     C23511   4.621   7.783  10.122  1.2507 -0.5962 -1.0579
  175MOL0     C23512   4.478   7.755  10.090  0.2904 -0.0628 -0.8805
  175MOL0     C23513   4.375   7.810  10.194  0.2443  1.2119  0.2998
  175MOL0     O23514   4.247   7.749  10.180 -0.2092  0.3297 -0.4104
  175MOL0     C23515   4.155   7.793  10.273 -0.1159  0.9919  0.7191
  175MOL0     C23516   4.179   7.873  10.385 -0.2331  0.7041  0.6107
  175MOL0     C23517   4.078   7.901  10.478 -0.3710  0.3498 -0.0230
  175MOL0     C23518   4.125   7.984  10.590 -0.8681  0.5294 -0.4519
  175MOL0     C23519   3.953   7.850  10.462  0.1414 -0.5250  0.2497
  175MOL0     C23520   3.848   7.864  10.555  0.8853 -0.4436 -0.7746
  175MOL0     O23521   3.754   7.761  10.555  0.9408  0.4432  0.0981
  175MOL0     C23522   3.641   7.773  10.630  0.8412  0.7518  0.2900
  175MOL0     C23523   3.625   7.751  10.764 -0.0342  0.6059 -0.1603
  175MOL0     C23524   3.501   7.731  10.827 -0.7264  0.0731 -0.4763
  175MOL0     C23525   3.380   7.738  10.753 -0.4972  1.0522  0.1345
  175MOL0     O23526   3.259   7.742  10.816 -0.3065 -0.3586 -0.1849
  175MOL0     C23527   3.257   7.757  10.959 -0.6840 -0.6960 -0.7037
  175MOL0     C23528   3.117   7.735  11.019 -0.0571  0.2634 -0.2529
  175MOL0     C23529   3.001   7.800  10.957 -0.3839  0.1618  0.2236
  175MOL0     C23530   3.000   7.950  10.950  0.4165 -0.0406 -0.6145
  175MOL0     C23531   2.872   8.010  10.882 -0.3007 -0.1268  0.1733
  175MOL0     C23532   2.740   7.984  10.948 -0.0517  0.0343  0.3133
  175MOL0     C23533   2.623   8.026  10.861 -0.5686  0.1929 -0.6295
  175MOL0     C23534   2.479   7.981  10.916 -0.0630 -0.0331 -0.9038
  175MOL0    Cl23535   2.431   8.038  11.078  0.2867  0.3536 -0.0141
  175MOL0     C23536   3.395   7.749  10.611  1.3318  0.3811 -0.1600
  175MOL0     C23537   3.517   7.773  10.559 -1.0789 -0.6609 -0.3924
  175MOL0     O23538   3.843   7.956  10.631  0.3308 -0.0181  0.7577
  175MOL0     C23539   3.921   7.769  10.351 -0.0694 -0.0724  1.3423
  175MOL0     C23540   4.026   7.735  10.255  0.1888 -0.0833  0.2762
  175MOL0     N23541   4.961   7.777   9.960  0.2795  0.6661 -0.6788
  175MOL0     N23542   5.070   7.730  10.005  0.5131 -0.3047  0.0025
  175MOL0     C23543   6.136   7.752  10.517 -0.2306 -0.1613 -0.3647
  175MOL0     C23544   6.275   7.724  10.514  1.0590  0.5616  0.6343
  175MOL0     C23545   6.646   7.506  10.435  1.0908  0.8205 -0.0612
  175MOL0     C23546   6.721   7.518  10.318  0.2099 -0.1865  0.3764
  175MOL0     C23547   6.859   7.487  10.318  0.1620 -0.1613 -0.0839
  175MOL0     C23548   6.927   7.443  10.435  0.1848  0.8388  0.7297
  175MOL0     O23549   7.058   7.418  10.417 -0.8568 -0.4148 -0.4817
  175MOL0     C23550   7.115   7.351  10.543 -0.1240  0.2677 -0.0376
  175MOL0     C23551   7.246   7.301  10.515  0.8324  0.3668  0.3716
  175MOL0     C23552   7.313   7.276  10.642  0.3754 -0.3825  0.1493
  175MOL0     C23553   7.393   7.144  10.650  0.0767  0.1105  0.1361
  175MOL0     C23554   7.508   7.160  10.562  0.1063  0.3072 -0.0529
  175MOL0     C23555   7.617   7.176  10.501 -0.0319 -0.4354 -0.0104
  175MOL0     C23556   6.852   7.441  10.552  0.5727 -0.3989 -0.0880
  175MOL0     C23557   6.711   7.472  10.556 -0.1835 -0.1054 -0.3312
  175MOL0     H23558   6.239   7.401  10.639 -1.2392 -1.0653 -4.8001
  175MOL0     H23559   5.995   7.461  10.623 -0.5793  0.7994 -0.4376
  175MOL0     H23560   5.760   7.594  10.610  0.5347 -1.2239 -0.7921
  175MOL0     H23561   5.864   7.646  10.736 -1.5124  2.2092  1.9589
  175MOL0     H23562   5.653   7.797  10.743 -0.3671 -2.1160 -1.3660
  175MOL0     H23563   5.796   7.883  10.686 -1.2765  1.3224  1.7968
  175MOL0     H23564   5.593   7.935  10.557  2.8179  1.8390  0.8051
  175MOL0     H23565   5.715   7.833  10.458 -1.0725 -1.0476 -1.6303
  175MOL0     H23566   5.564   7.625  10.524 -2.3674 -1.4820  1.5348
  175MOL0     H23567   5.451   7.737  10.590  0.7960 -2.0265  0.8033
  175MOL0     H23568   5.422   7.856  10.368  0.7191  0.2570 -0.6846
  175MOL0     H23569   5.540   7.758  10.291  1.6454  2.4493  1.1994
  175MOL0     H23570   5.395   7.554  10.318 -0.9684 -1.5860  0.7971
  175MOL0     H23571   5.286   7.659  10.414 -2.4229  3.0975 -1.5251
  175MOL0     H23572   5.247   7.793  10.202  1.2900  0.4850  0.3869
  175MOL0     H23573   5.331   7.670  10.115 -1.5280  3.4910 -1.7649
  175MOL0     H23574   5.094   7.594  10.299 -1.9865 -1.2230 -1.3908
  175MOL0     H23575   5.162   7.498  10.175  1.3929 -0.3287  1.4641
  175MOL0     H23576   4.847   7.589  10.197 -0.5443  2.9585  1.2740
  175MOL0     H23577   4.691   7.816   9.923 -0.0841 -1.0158 -1.2828
  175MOL0     H23578   4.682   7.639   9.966 -0.7767  0.8020  0.7151
  175MOL0     H23579   4.641   7.886  10.150  0.9625 -1.0329  0.9084
  175MOL0     H23580   4.643   7.722  10.211 -0.8019 -0.5111 -0.4487
  175MOL0     H23581   4.462   7.647  10.082 -1.7572  0.1392 -0.0266
  175MOL0     H23582   4.447   7.799   9.995 -2.5874  0.5881  0.2807
  175MOL0     H23583   4.366   7.918  10.178  1.5364  0.9628 -2.8101
  175MOL0     H23584   4.425   7.792  10.290 -0.0624 -0.2280  0.2086
  175MOL0     H23585   4.280   7.903  10.412  0.9572 -0.5930 -2.0435
  175MOL0     H23586   4.073   7.967  10.685  1.1760  0.4445  0.7243
  175MOL0     H23587   4.230   7.967  10.619 -1.4476  0.8740  2.0676
  175MOL0     H23588   4.111   8.090  10.567 -2.3161  0.6101  0.6560
  175MOL0     H23589   3.716   7.743  10.824  1.2023  0.2227 -1.9939
  175MOL0     H23590   3.512   7.724  10.935  1.8525 -0.8591 -0.7341
  175MOL0     H23591   3.320   7.683  11.010 -0.1985  0.5544  0.6102
  175MOL0     H23592   3.301   7.856  10.978 -3.3226  0.5026 -0.4622
  175MOL0     H23593   3.104   7.627  11.019 -1.3772  0.3930  0.9386
  175MOL0     H23594   3.113   7.755  11.126  3.2016 -1.8437  0.4040
  175MOL0     H23595   2.916   7.779  11.023 -0.0792 -2.3229 -0.0592
  175MOL0     H23596   2.979   7.739  10.869  1.2236 -2.9467  1.8147
  175MOL0     H23597   3.003   7.989  11.052  0.0529  0.1006 -0.6539
  175MOL0     H23598   3.091   7.983  10.901  1.2748 -1.3158  0.0575
  175MOL0     H23599   2.883   7.987  10.776  1.5573 -1.3510  0.5662
  175MOL0     H23600   2.888   8.118  10.876 -1.6714  0.0259 -1.5361
  175MOL0     H23601   2.732   7.875  10.947  1.9062 -0.1768  1.6721
  175MOL0     H23602   2.735   8.020  11.051  1.0171  0.6557  0.1648
  175MOL0     H23603   2.644   7.984  10.763  2.5997 -0.5885  0.2871
  175MOL0     H23604   2.615   8.133  10.843 -0.7880 -0.0165 -1.8791
  175MOL0     H23605   2.489   7.872  10.930 -1.1580 -0.1910 -1.3152
  175MOL0     H23606   2.402   7.999  10.841  0.4706  4.1329 -0.6649
  175MOL0     H23607   3.299   7.742  10.561  0.9756 -1.5043  0.7173
  175MOL0     H23608   3.513   7.783  10.451 -2.1942 -0.9750 -0.3947
  175MOL0     H23609   3.823   7.730  10.327 -0.2363  2.0995 -2.2184
  175MOL0     H23610   3.994   7.679  10.168 -0.1483 -0.5673  0.7065
  175MOL0     H23611   6.108   7.849  10.476  3.1450  0.6584 -1.1047
  175MOL0     H23612   6.346   7.793  10.469 -0.6127 -0.3901 -4.0465
  175MOL0     H23613   6.678   7.546  10.222  2.7039 -1.8209 -1.3683
  175MOL0     H23614   6.912   7.500  10.225 -2.7206  1.5212 -1.6372
  175MOL0     H23615   7.126   7.438  10.608  0.7544  1.5290 -1.7808
  175MOL0     H23616   7.042   7.279  10.582 -0.7742  0.4556 -0.8689
  175MOL0     H23617   7.311   7.369  10.458  1.8198  0.3801  1.4866
  175MOL0     H23618   7.243   7.210  10.454 -1.7489  0.3033  0.4643
  175MOL0     H23619   7.236   7.278  10.719 -0.5172  5.7510 -0.4047
  175MOL0     H23620   7.383   7.358  10.665  2.0166 -1.2210 -1.5888
  175MOL0     H23621   7.339   7.057  10.610  1.1394 -0.4085 -0.2010
  175MOL0     H23622   7.422   7.125  10.753 -1.4601  0.4237  0.6605
  175MOL0     H23623   7.701   7.194  10.437  0.1957  1.3305  0.7532
  175MOL0     H23624   6.898   7.420  10.648 -1.2456  1.1688  1.2004
  175MOL0     H23625   6.656   7.466  10.650 -0.2756 -1.3993 -0.4466
  176MOL0     O23626   2.426  11.108   4.096  0.0067 -0.4884  0.4173
  176MOL0     C23627   2.393  11.183   4.005  0.2349 -0.2753  0.0189
  176MOL0     O23628   2.267  11.199   3.960 -1.2328 -0.1814 -0.3346
  176MOL0     C23629   2.150  11.148   4.018  0.1000 -0.6056 -0.3544
  176MOL0     C23630   2.028  11.208   3.982 -0.4711 -0.3351  0.1472
  176MOL0     C23631   1.908  11.156   4.023  0.4859  0.2491  0.1691
  176MOL0     C23632   1.905  11.048   4.110  0.2841  0.1058 -0.1274
  176MOL0     O23633   1.781  11.026   4.166  0.8566 -0.5474  0.4284
  176MOL0     C23634   1.780  10.916   4.255 -0.0164  0.5654 -1.0733
  176MOL0     C23635   1.665  10.918   4.361 -0.4863  0.4814 -0.4536
  176MOL0     C23636   1.519  10.946   4.300 -0.3706  0.0114  0.3692
  176MOL0     C23637   1.399  10.945   4.395 -0.2471 -0.5614  0.0244
  176MOL0     C23638   1.274  10.912   4.318  0.1013  0.5984  0.0420
  176MOL0     C23639   1.254  10.767   4.293  0.1809 -0.2312  0.1870
  176MOL0     C23640   1.237  10.685   4.425  0.8307 -0.3675  0.3450
  176MOL0     C23641   1.352  10.596   4.461 -0.1048  0.1692 -0.5233
  176MOL0     N23642   1.344  10.471   4.396  0.3831  0.5396  0.0689
  176MOL0     C23643   1.433  10.424   4.305 -0.0014 -0.3988  0.1507
  176MOL0     C23644   1.402  10.291   4.294  0.2813 -0.0071 -0.6330
  176MOL0     C23645   1.464  10.197   4.194 -0.4020  0.3054  0.0677
  176MOL0     C23646   1.615  10.162   4.208 -0.0636  0.4748 -0.5642
  176MOL0     C23647   1.654  10.107   4.068 -0.1269  0.2564  0.1172
  176MOL0     C23648   1.806  10.091   4.052 -0.1130 -0.4328 -0.4812
  176MOL0     O23649   1.864  10.221   4.054 -0.1579  0.2871  0.2830
  176MOL0     C23650   2.002  10.233   4.020 -0.1170  0.1072 -0.2589
  176MOL0     C23651   2.091  10.115   4.023 -0.4541 -0.1281  0.7432
  176MOL0     C23652   2.226  10.134   3.990 -0.6435  0.2077 -0.1983
  176MOL0     C23653   2.309  10.006   3.981 -0.3026  0.3975 -0.0224
  176MOL0     C23654   2.284  10.259   3.984  0.0550 -0.2060  0.8077
  176MOL0     C23655   2.426  10.283   3.951 -0.5898  0.2718 -0.3556
  176MOL0     O23656   2.533  10.218   4.026  0.1622  1.1196  0.1326
  176MOL0     C23657   2.669  10.232   4.000  0.1926  0.3151 -0.5416
  176MOL0     C23658   2.754  10.125   3.965  0.1773  0.1496  0.0344
  176MOL0     C23659   2.888  10.132   3.962  0.7783 -0.3353 -1.0431
  176MOL0     C23660   2.951  10.253   4.001  0.0887  0.2066  0.5103
  176MOL0     O23661   3.091  10.249   4.013  0.0316 -0.3854 -0.6913
  176MOL0     C23662   3.165  10.366   4.053 -0.0289  0.3779  0.2553
  176MOL0     C23663   3.313  10.325   4.055  0.7595  0.0162 -0.4227
  176MOL0     C23664   3.402  10.442   4.096 -0.5810  0.4248  0.2627
  176MOL0     C23665   3.379  10.487   4.241 -0.4137  0.3732 -0.2900
  176MOL0     C23666   3.503  10.536   4.316 -0.3448  0.0759  0.5664
  176MOL0     C23667   3.612  10.424   4.337  0.2409 -0.0821  0.6707
  176MOL0     C23668   3.686  10.448   4.461  0.7621  0.2243  0.3215
  176MOL0     C23669   3.757  10.314   4.511  0.3431 -0.5072 -0.6680
  176MOL0    Cl23670   3.846  10.333   4.663  0.1916  0.1605 -0.0799
  176MOL0     C23671   2.878  10.368   4.024  0.3302 -0.8366 -0.4028
  176MOL0     C23672   2.734  10.355   4.027 -0.0851 -0.2201  0.0850
  176MOL0     O23673   2.459  10.369   3.869  0.1241  0.5187  0.6023
  176MOL0     C23674   2.201  10.370   3.995  0.8135 -0.8019 -0.5106
  176MOL0     C23675   2.060  10.360   4.014 -0.2786  0.9835 -0.4619
  176MOL0     N23676   1.289  10.261   4.367 -0.4554  0.5581 -0.3417
  176MOL0     N23677   1.260  10.371   4.429  0.4068  0.3437 -0.7815
  176MOL0     C23678   2.032  10.991   4.151 -0.0017  0.2778  0.0563
  176MOL0     C23679   2.148  11.041   4.103  0.3426 -0.4735  0.6457
  176MOL0     C23680   2.498  11.261   3.941 -1.0502  0.1529  0.8994
  176MOL0     C23681   2.463  11.362   3.850 -0.0983 -0.2539  0.0564
  176MOL0     C23682   2.562  11.447   3.795  0.1128 -0.4983 -0.7791
  176MOL0     C23683   2.702  11.431   3.823  0.1134  0.4130  0.3399
  176MOL0     O23684   2.799  11.512   3.766  0.1070  0.1673  0.3926
  176MOL0     C23685   2.941  11.492   3.792  0.6241  0.2961 -0.5628
  176MOL0     C23686   3.032  11.599   3.725 -0.0592 -1.0148 -0.2893
  176MOL0     C23687   3.164  11.544   3.656  0.5631  0.0886 -0.6318
  176MOL0     C23688   3.137  11.545   3.510  0.6457 -0.2573  0.2941
  176MOL0     C23689   3.246  11.462   3.448 -0.0124 -0.3829 -0.0162
  176MOL0     C23690   3.338  11.404   3.396 -0.1641 -0.6980  0.0791
  176MOL0     C23691   2.731  11.334   3.916 -1.3677  0.4825  0.5798
  176MOL0     C23692   2.635  11.254   3.974 -0.0951 -0.1980 -0.6334
  176MOL0     H23693   2.038  11.300   3.926  1.1892  1.0126  2.4332
  176MOL0     H23694   1.815  11.207   3.999 -0.6783 -0.2895  3.1538
  176MOL0     H23695   1.786  10.824   4.195 -0.5760 -1.3426  1.5940
  176MOL0     H23696   1.870  10.920   4.318 -1.5262  0.6752  1.2025
  176MOL0     H23697   1.666  10.818   4.405  0.1747  0.8589  0.4243
  176MOL0     H23698   1.696  10.991   4.437  1.7818  1.6873 -2.4241
  176MOL0     H23699   1.529  11.047   4.260  0.5687  0.5499  1.8524
  176MOL0     H23700   1.513  10.876   4.216  0.2142 -0.3041  0.5847
  176MOL0     H23701   1.415  10.875   4.478  2.3354 -1.5930 -1.2197
  176MOL0     H23702   1.389  11.041   4.445 -1.0666  0.1440 -1.4428
  176MOL0     H23703   1.187  10.950   4.374 -1.2928 -0.9371 -0.9909
  176MOL0     H23704   1.264  10.963   4.222 -2.9672 -0.7519 -0.4863
  176MOL0     H23705   1.158  10.766   4.240 -0.9289  4.6775  1.5825
  176MOL0     H23706   1.329  10.728   4.224 -0.5285  0.9890 -1.3459
  176MOL0     H23707   1.217  10.756   4.506 -2.4054 -0.0480 -0.5892
  176MOL0     H23708   1.146  10.625   4.416  0.7265 -0.5137  2.0954
  176MOL0     H23709   1.351  10.576   4.569  3.9833 -2.5394 -0.7466
  176MOL0     H23710   1.452  10.636   4.439  0.4862 -0.5926  0.6463
  176MOL0     H23711   1.510  10.479   4.251  1.0736 -1.3148  0.7003
  176MOL0     H23712   1.399  10.110   4.181 -0.1562  0.0668  0.4123
  176MOL0     H23713   1.446  10.247   4.098 -2.2142 -0.5719 -0.0841
  176MOL0     H23714   1.627  10.081   4.280 -1.2351  2.3378  1.9079
  176MOL0     H23715   1.677  10.245   4.242  3.2657 -2.1620  0.3483
  176MOL0     H23716   1.627  10.183   3.994  0.7359  2.6096  2.0725
  176MOL0     H23717   1.610  10.009   4.049 -1.2819  1.1578 -2.3603
  176MOL0     H23718   1.834  10.046   3.956  3.5814  0.0139  0.2404
  176MOL0     H23719   1.854  10.028   4.127 -0.4201 -1.0832 -0.8199
  176MOL0     H23720   2.057  10.013   4.033 -0.0502 -0.0750  3.0068
  176MOL0     H23721   2.377  10.009   3.895  3.5837 -0.0003  2.7396
  176MOL0     H23722   2.362   9.981   4.073 -0.9122 -0.4751  0.1025
  176MOL0     H23723   2.244   9.920   3.961  1.6690 -0.3867 -4.2308
  176MOL0     H23724   2.708  10.027   3.955 -3.2640  1.7560 -1.3935
  176MOL0     H23725   2.946  10.048   3.927  0.2869 -0.7255 -0.9276
  176MOL0     H23726   3.148  10.449   3.984  0.4989  1.9511  1.9288
  176MOL0     H23727   3.130  10.397   4.152 -0.3443 -0.7634  0.5162
  176MOL0     H23728   3.323  10.250   4.134 -1.2971  2.0184  1.8808
  176MOL0     H23729   3.350  10.279   3.962  2.2020  0.0136  0.1237
  176MOL0     H23730   3.369  10.525   4.032 -0.8980  0.4794  0.4958
  176MOL0     H23731   3.509  10.421   4.085  0.2536  3.8698  0.4381
  176MOL0     H23732   3.313  10.575   4.239  0.0910  1.0308  3.4575
  176MOL0     H23733   3.341  10.407   4.306 -0.3738  0.0798 -0.6238
  176MOL0     H23734   3.466  10.567   4.415  0.8390  0.1749  1.0019
  176MOL0     H23735   3.553  10.619   4.265 -0.8668  0.1798  0.2279
  176MOL0     H23736   3.575  10.322   4.346  0.7159 -0.1540  1.9687
  176MOL0     H23737   3.679  10.433   4.251 -0.7407  1.5238  0.0161
  176MOL0     H23738   3.628  10.489   4.544 -0.8305 -0.2313 -0.5294
  176MOL0     H23739   3.753  10.531   4.437 -2.8921  3.2329 -0.4674
  176MOL0     H23740   3.827  10.282   4.434  3.1863  0.5870  1.2837
  176MOL0     H23741   3.684  10.236   4.534  0.3026  0.3357  2.7317
  176MOL0     H23742   2.912  10.469   4.043 -1.9854 -0.0192 -0.2448
  176MOL0     H23743   2.669  10.432   4.068  1.7658  1.4333  0.0809
  176MOL0     H23744   2.244  10.470   3.995 -2.4304  0.6988 -0.6089
  176MOL0     H23745   1.996  10.444   4.038 -0.4047  0.6665  0.3176
  176MOL0     H23746   2.046  10.902   4.212 -0.1084  0.7315  0.7553
  176MOL0     H23747   2.235  10.987   4.139 -0.2695 -1.4202  0.7298
  176MOL0     H23748   2.364  11.391   3.817  0.9633  1.1504 -2.1779
  176MOL0     H23749   2.538  11.530   3.728 -0.1702  0.3471  0.3288
  176MOL0     H23750   2.965  11.514   3.896  1.2498  2.5870 -1.1462
  176MOL0     H23751   2.967  11.391   3.759 -2.0951 -0.4078 -0.7842
  176MOL0     H23752   3.058  11.676   3.799  0.5667  0.5241 -2.0315
  176MOL0     H23753   2.972  11.659   3.656  0.3165 -1.0562 -0.6562
  176MOL0     H23754   3.181  11.444   3.696  0.3236  0.1707 -0.3150
  176MOL0     H23755   3.250  11.607   3.682 -1.5721  4.5226 -3.0579
  176MOL0     H23756   3.148  11.649   3.481 -1.5650 -0.4407 -1.5358
  176MOL0     H23757   3.038  11.506   3.484  0.0799  2.5297 -2.2207
  176MOL0     H23758   3.426  11.371   3.345  0.5533  0.4274  0.5562
  176MOL0     H23759   2.830  11.320   3.958 -1.5688  1.7640  1.5576
  176MOL0     H23760   2.664  11.187   4.054 -0.7810 -1.5111 -1.4441
  177MOL0     O23761   7.452   1.278   3.891 -0.2000 -0.2097  0.1210
  177MOL0     C23762   7.475   1.264   4.017 -0.1122 -0.4069 -0.1935
  177MOL0     O23763   7.384   1.249   4.124 -0.0605 -0.0907  0.0102
  177MOL0     C23764   7.246   1.271   4.106  0.4861 -0.0924  0.8152
  177MOL0     C23765   7.187   1.341   4.004  0.6897  0.2048  0.3766
  177MOL0     C23766   7.047   1.348   3.992  0.3120  0.3975 -0.5769
  177MOL0     C23767   6.963   1.294   4.085 -0.1761  0.2024  1.2172
  177MOL0     O23768   6.829   1.311   4.073  0.6750  0.2207  0.7667
  177MOL0     C23769   6.737   1.295   4.191 -0.0486  0.1237  0.1857
  177MOL0     C23770   6.610   1.388   4.180 -0.1480 -0.3090 -0.2276
  177MOL0     C23771   6.510   1.354   4.077 -0.1837 -0.7016 -0.6003
  177MOL0     C23772   6.415   1.244   4.115 -0.7334  0.7680  0.0500
  177MOL0     C23773   6.318   1.223   4.005  0.2723 -0.0628 -0.0394
  177MOL0     C23774   6.215   1.113   4.041 -0.4151  0.6339  0.6167
  177MOL0     C23775   6.128   1.073   3.915 -0.0558 -1.0748  0.3673
  177MOL0     C23776   6.015   0.976   3.948  0.0968 -0.2930  0.4032
  177MOL0     N23777   5.908   0.996   3.848 -0.0550 -0.3258  0.1336
  177MOL0     C23778   5.829   1.108   3.831  0.0348  0.4589  0.8743
  177MOL0     C23779   5.729   1.081   3.743 -0.0094 -0.3420 -0.5296
  177MOL0     C23780   5.616   1.170   3.697  0.2160 -0.1726  0.4776
  177MOL0     C23781   5.536   1.118   3.567  0.1521 -0.4430 -0.2179
  177MOL0     C23782   5.428   1.206   3.524 -0.2081  0.2001 -0.5623
  177MOL0     C23783   5.371   1.149   3.401 -0.4969 -0.6171 -0.4314
  177MOL0     O23784   5.292   1.249   3.335 -0.0208 -0.4138  0.1645
  177MOL0     C23785   5.157   1.251   3.343 -0.5506 -0.5619 -0.4349
  177MOL0     C23786   5.097   1.370   3.388  0.3122 -0.3524 -0.1157
  177MOL0     C23787   4.952   1.372   3.395 -0.0147  0.4717  0.4758
  177MOL0     C23788   4.885   1.505   3.420 -0.1059 -0.3800 -0.4007
  177MOL0     C23789   4.875   1.249   3.365 -0.6556 -0.9386 -0.3612
  177MOL0     C23790   4.727   1.260   3.369 -0.7790 -0.3703  0.0949
  177MOL0     O23791   4.667   1.325   3.477  0.4983 -0.3160 -0.0575
  177MOL0     C23792   4.533   1.354   3.469  0.9369 -0.3192  0.4885
  177MOL0     C23793   4.467   1.371   3.349 -0.4105  0.1705  0.2512
  177MOL0     C23794   4.328   1.401   3.352 -0.7410  0.1693  0.4913
  177MOL0     C23795   4.260   1.425   3.468 -1.2780  0.4763 -0.2199
  177MOL0     O23796   4.130   1.462   3.466 -0.0906  0.4259  0.1184
  177MOL0     C23797   4.059   1.481   3.344 -1.2895 -0.0587  1.1258
  177MOL0     C23798   3.934   1.559   3.351 -0.6199  0.1088  0.0412
  177MOL0     C23799   3.838   1.511   3.227  0.1169 -0.3506 -0.4451
  177MOL0     C23800   3.690   1.563   3.249  0.0603  0.3425  0.4169
  177MOL0     C23801   3.598   1.511   3.142 -0.2922  0.1956  0.2535
  177MOL0     C23802   3.634   1.556   2.999  0.5139  0.1297 -0.0146
  177MOL0     C23803   3.637   1.711   2.973  0.2041 -0.7724  0.2091
  177MOL0     C23804   3.661   1.741   2.824  0.1741 -0.4161 -0.0285
  177MOL0    Cl23805   3.807   1.662   2.772 -0.0275  0.1766 -0.4667
  177MOL0     C23806   4.325   1.394   3.593  0.9984 -0.3392 -0.0714
  177MOL0     C23807   4.461   1.366   3.589 -0.2726 -0.1685  0.0656
  177MOL0     O23808   4.671   1.199   3.280 -0.4297  0.7328 -0.3424
  177MOL0     C23809   4.942   1.142   3.316 -0.3461  0.4192 -0.4864
  177MOL0     C23810   5.083   1.143   3.315 -0.0833  0.2316 -0.2542
  177MOL0     N23811   5.751   0.949   3.702  0.3119 -0.4232 -0.9007
  177MOL0     N23812   5.854   0.902   3.765  0.0912  0.2774 -0.3224
  177MOL0     C23813   7.028   1.216   4.188 -0.0707  0.0168 -0.3954
  177MOL0     C23814   7.172   1.206   4.198 -0.2133 -0.0803  0.7215
  177MOL0     C23815   7.615   1.264   4.053 -0.1450 -0.1500  0.4368
  177MOL0     C23816   7.654   1.197   4.173 -0.3920 -0.0060  0.7304
  177MOL0     C23817   7.800   1.197   4.194  0.7230 -0.0578 -0.6579
  177MOL0     C23818   7.893   1.276   4.121  0.7202 -0.7805 -1.1657
  177MOL0     O23819   8.028   1.283   4.151 -0.0815 -0.5993 -0.0837
  177MOL0     C23820   8.085   1.233   4.267 -0.0874  0.0465 -0.5856
  177MOL0     C23821   8.227   1.294   4.285  0.0195 -0.0906  0.0648
  177MOL0     C23822   8.327   1.225   4.375  0.4545 -0.4001  0.2703
  177MOL0     C23823   8.454   1.314   4.376  0.6593  0.1094  0.8647
  177MOL0     C23824   8.553   1.238   4.456  0.2266  0.2562 -0.2561
  177MOL0     C23825   8.643   1.182   4.521 -0.8183 -1.0770  0.2134
  177MOL0     C23826   7.846   1.339   4.006 -0.5262  0.2215  0.8950
  177MOL0     C23827   7.712   1.332   3.972 -0.2714  0.8283  1.2923
  177MOL0     H23828   7.247   1.397   3.933 -1.2591 -0.4447 -1.9107
  177MOL0     H23829   7.012   1.422   3.920 -3.0417  0.5202  0.9773
  177MOL0     H23830   6.697   1.194   4.190  0.0345  0.0808  0.7655
  177MOL0     H23831   6.786   1.322   4.285 -1.5797 -1.3620  1.4636
  177MOL0     H23832   6.559   1.382   4.276  1.2739 -1.7922  0.4874
  177MOL0     H23833   6.635   1.493   4.162  0.3296  0.0666  2.3178
  177MOL0     H23834   6.446   1.442   4.066 -0.4735 -0.8022  0.2442
  177MOL0     H23835   6.564   1.340   3.983 -2.4884  0.2421 -2.1488
  177MOL0     H23836   6.462   1.147   4.129 -3.8223 -0.6988  1.1629
  177MOL0     H23837   6.367   1.270   4.210 -1.0582 -0.9636  0.3850
  177MOL0     H23838   6.254   1.311   3.992  1.1649  0.4461 -1.1646
  177MOL0     H23839   6.370   1.207   3.910  0.3278 -0.6435  0.0864
  177MOL0     H23840   6.260   1.016   4.065 -1.5235 -0.1337 -0.3056
  177MOL0     H23841   6.154   1.138   4.128  0.4899 -0.8545  1.7355
  177MOL0     H23842   6.071   1.159   3.877 -1.3593 -2.0763 -0.0262
  177MOL0     H23843   6.199   1.037   3.839 -1.0187 -1.3233 -0.4429
  177MOL0     H23844   5.988   0.992   4.052  2.0631  1.9991  0.6644
  177MOL0     H23845   6.051   0.875   3.929  0.7199  0.3107 -2.0214
  177MOL0     H23846   5.847   1.206   3.874  1.7645  0.3811  0.4122
  177MOL0     H23847   5.544   1.167   3.779  2.3723 -1.7090  2.4559
  177MOL0     H23848   5.660   1.268   3.677  2.6409 -1.6859 -2.4502
  177MOL0     H23849   5.500   1.022   3.604 -2.0300  0.7210  0.8564
  177MOL0     H23850   5.610   1.109   3.487 -0.1974 -0.3454 -0.5531
  177MOL0     H23851   5.474   1.304   3.507  0.9899  0.0973  1.7260
  177MOL0     H23852   5.351   1.208   3.602  0.9030 -2.5083  0.7008
  177MOL0     H23853   5.325   1.052   3.421 -0.4732 -0.5673 -0.1400
  177MOL0     H23854   5.453   1.122   3.335  1.2965 -1.0631  1.8604
  177MOL0     H23855   5.155   1.460   3.405  1.3406 -0.5973 -2.0629
  177MOL0     H23856   4.827   1.536   3.332  3.3329  3.6512 -1.5630
  177MOL0     H23857   4.832   1.494   3.515 -0.3300 -0.8821 -0.5792
  177MOL0     H23858   4.955   1.589   3.417 -0.9619  0.3283 -1.1730
  177MOL0     H23859   4.522   1.354   3.257  2.8226 -2.2896  2.3964
  177MOL0     H23860   4.287   1.382   3.253 -0.8265 -0.0834  0.5756
  177MOL0     H23861   4.123   1.543   3.280 -0.6965  2.5645  4.0183
  177MOL0     H23862   4.053   1.378   3.306 -1.4140 -0.0079  1.0064
  177MOL0     H23863   3.890   1.537   3.449  2.9281 -0.0032  1.7515
  177MOL0     H23864   3.940   1.668   3.347  1.2500  0.0850  1.0752
  177MOL0     H23865   3.833   1.402   3.222  0.1211 -0.3470 -0.5173
  177MOL0     H23866   3.875   1.562   3.138  0.2687  1.6056  0.6744
  177MOL0     H23867   3.636   1.555   3.343 -1.7459  0.2573 -0.5855
  177MOL0     H23868   3.697   1.673   3.248  0.0321  0.3438 -0.1255
  177MOL0     H23869   3.500   1.557   3.159 -2.1649 -2.1255 -3.1953
  177MOL0     H23870   3.592   1.402   3.152 -0.2501  0.0851 -0.8348
  177MOL0     H23871   3.731   1.519   2.965  0.4450  0.7462 -0.9245
  177MOL0     H23872   3.551   1.515   2.941 -0.2399  0.0330  1.0965
  177MOL0     H23873   3.715   1.760   3.031 -1.9477  2.1622  0.8916
  177MOL0     H23874   3.542   1.756   3.004 -0.6552 -1.2734 -1.5503
  177MOL0     H23875   3.672   1.849   2.809 -0.6387 -0.5478 -1.8306
  177MOL0     H23876   3.577   1.721   2.757  1.6690  1.7880 -2.8024
  177MOL0     H23877   4.275   1.393   3.688 -0.5191  0.8845 -0.8206
  177MOL0     H23878   4.510   1.343   3.683 -0.1738  1.2886  0.3980
  177MOL0     H23879   4.890   1.050   3.292  1.1549 -0.6019  0.0509
  177MOL0     H23880   5.136   1.054   3.282 -0.1670 -0.2246  0.7866
  177MOL0     H23881   6.963   1.174   4.264  0.6927  2.9244  2.0678
  177MOL0     H23882   7.220   1.138   4.267 -4.6150 -2.8214  1.4256
  177MOL0     H23883   7.589   1.134   4.233 -1.0440 -0.2847 -0.2507
  177MOL0     H23884   7.841   1.129   4.269  2.3840 -0.0682 -1.5376
  177MOL0     H23885   8.028   1.257   4.358  1.2323 -2.7797  1.1498
  177MOL0     H23886   8.092   1.127   4.242  3.3531 -0.3165  1.2535
  177MOL0     H23887   8.212   1.393   4.328 -4.7200 -1.0074  1.0627
  177MOL0     H23888   8.273   1.304   4.187 -0.3391  0.4853 -0.0491
  177MOL0     H23889   8.351   1.126   4.334 -1.6565 -0.3331 -1.3038
  177MOL0     H23890   8.295   1.213   4.479 -1.0800 -0.0800 -0.1455
  177MOL0     H23891   8.441   1.415   4.415 -0.1552  1.3462 -2.3203
  177MOL0     H23892   8.481   1.327   4.270 -2.1275  2.7942  0.3638
  177MOL0     H23893   8.728   1.137   4.568 -0.9863 -1.2463  0.3579
  177MOL0     H23894   7.908   1.383   3.928 -2.3245 -3.8492 -3.3149
  177MOL0     H23895   7.681   1.370   3.876  0.7011 -1.0014  0.1918
  178MOL0     O23896   5.329   4.617   1.693  0.2690  0.0213 -0.1100
  178MOL0     C23897   5.392   4.596   1.793 -0.3328 -0.3725  0.4815
  178MOL0     O23898   5.344   4.587   1.924 -0.2046  0.7582  0.2999
  178MOL0     C23899   5.210   4.586   1.953  1.3158 -0.0946  0.1301
  178MOL0     C23900   5.106   4.564   1.855  0.3718 -0.3902 -0.4371
  178MOL0     C23901   4.973   4.550   1.901  0.0205  0.0263 -0.1390
  178MOL0     C23902   4.939   4.555   2.036 -0.5321 -0.2232  0.0262
  178MOL0     O23903   4.814   4.533   2.094 -0.3556  0.2126 -0.5366
  178MOL0     C23904   4.697   4.509   2.012 -0.1677  0.3740 -0.7554
  178MOL0     C23905   4.604   4.627   1.999 -0.4935  0.5253 -0.1412
  178MOL0     C23906   4.470   4.583   1.952  0.0401  0.0822  0.6204
  178MOL0     C23907   4.366   4.706   1.947 -0.1501  0.0806  0.1011
  178MOL0     C23908   4.229   4.657   1.887 -0.3037 -0.1173 -1.2853
  178MOL0     C23909   4.130   4.765   1.842  0.6748 -0.9519  0.2812
  178MOL0     C23910   3.998   4.700   1.783 -0.1270  0.1434 -0.2350
  178MOL0     C23911   3.904   4.808   1.725  0.6405 -0.0669 -0.1493
  178MOL0     N23912   3.777   4.756   1.680  0.1031  0.4300 -0.2501
  178MOL0     C23913   3.655   4.781   1.736  0.2016  0.3568 -0.0421
  178MOL0     C23914   3.571   4.679   1.694 -0.4858  0.3197  0.5267
  178MOL0     C23915   3.424   4.676   1.729 -0.4708  0.5435  0.6734
  178MOL0     C23916   3.341   4.611   1.611  0.3952 -0.6350 -0.0385
  178MOL0     C23917   3.197   4.608   1.647  0.5198  0.1975  0.4434
  178MOL0     C23918   3.110   4.570   1.521 -0.3915  0.1082  0.2087
  178MOL0     O23919   2.971   4.603   1.551  0.5114  0.2235 -0.0608
  178MOL0     C23920   2.882   4.608   1.440 -0.1930  0.4701 -0.3901
  178MOL0     C23921   2.911   4.538   1.316  0.1119 -0.6389  0.5551
  178MOL0     C23922   2.822   4.532   1.215  0.1029  0.0030 -0.5759
  178MOL0     C23923   2.856   4.450   1.100  0.4832  0.7992  0.6073
  178MOL0     C23924   2.694   4.598   1.234  0.0860 -1.1009  0.4204
  178MOL0     C23925   2.578   4.594   1.137 -0.7624  0.0467 -0.4513
  178MOL0     O23926   2.457   4.647   1.180 -0.7363 -0.4577 -0.0965
  178MOL0     C23927   2.325   4.635   1.131 -0.1153  0.0131 -0.4844
  178MOL0     C23928   2.217   4.669   1.215 -0.6248  0.2557 -0.1345
  178MOL0     C23929   2.084   4.647   1.167 -0.8357  0.1121 -1.0840
  178MOL0     C23930   2.058   4.594   1.045  0.4219 -0.7884 -0.2541
  178MOL0     O23931   1.931   4.562   1.003 -1.0421  0.4665  0.2903
  178MOL0     C23932   1.828   4.534   1.095 -0.1150 -0.1743  0.0459
  178MOL0     C23933   1.697   4.527   1.010  0.5657  0.4735  0.3624
  178MOL0     C23934   1.586   4.456   1.081  0.7343 -0.8818  0.1994
  178MOL0     C23935   1.594   4.303   1.076  0.7434  0.3322  0.0485
  178MOL0     C23936   1.461   4.255   1.137  0.4097 -0.1005  0.4788
  178MOL0     C23937   1.440   4.103   1.124  0.3406 -0.3805  0.3004
  178MOL0     C23938   1.311   4.041   1.164  0.1710 -0.5303 -0.2170
  178MOL0     C23939   1.315   3.892   1.179  0.3553 -0.5806  0.5831
  178MOL0    Cl23940   1.355   3.799   1.021 -0.4424  0.1299  0.0248
  178MOL0     C23941   2.166   4.568   0.963  0.0351 -0.2076  0.0987
  178MOL0     C23942   2.298   4.594   1.000  0.2842 -0.9303  0.0052
  178MOL0     O23943   2.600   4.546   1.027 -0.1869 -0.4894 -0.2628
  178MOL0     C23944   2.678   4.671   1.348  0.2434 -0.4687  0.4787
  178MOL0     C23945   2.768   4.680   1.444  0.5971  0.6682 -0.5836
  178MOL0     N23946   3.652   4.600   1.611  0.5652  0.5777 -0.0499
  178MOL0     N23947   3.776   4.643   1.609  0.1436 -0.3055  0.5449
  178MOL0     C23948   5.044   4.589   2.129  0.6274  0.1048 -0.0020
  178MOL0     C23949   5.172   4.612   2.084  1.0997  0.1641 -0.3038
  178MOL0     C23950   5.538   4.574   1.772  0.2355 -0.4805 -0.2306
  178MOL0     C23951   5.619   4.560   1.887 -0.8070  0.3245  0.5075
  178MOL0     C23952   5.753   4.564   1.869  0.0353 -0.0743 -0.0782
  178MOL0     C23953   5.813   4.565   1.740  0.5585 -0.2919 -0.5393
  178MOL0     O23954   5.950   4.555   1.717  0.5868  0.5458 -0.3387
  178MOL0     C23955   6.039   4.583   1.828  0.1101  0.1250  0.9987
  178MOL0     C23956   6.171   4.533   1.779 -0.0344  0.2099 -1.2460
  178MOL0     C23957   6.231   4.609   1.657  0.0163 -0.3285  0.0670
  178MOL0     C23958   6.287   4.745   1.698  0.3389  0.0023 -0.1656
  178MOL0     C23959   6.363   4.797   1.583 -0.4722  0.0701 -0.5937
  178MOL0     C23960   6.424   4.811   1.481  0.2565  0.4340  0.4099
  178MOL0     C23961   5.730   4.572   1.628  0.1517  0.5609  0.1006
  178MOL0     C23962   5.593   4.566   1.643  0.1471  0.1211 -0.1160
  178MOL0     H23963   5.124   4.545   1.750  1.4646  1.6158 -0.6678
  178MOL0     H23964   4.893   4.538   1.829 -0.8683 -3.2085  1.1896
  178MOL0     H23965   4.725   4.461   1.918 -2.0140 -0.1568 -1.0880
  178MOL0     H23966   4.640   4.431   2.065 -0.6105  1.4451  0.4034
  178MOL0     H23967   4.600   4.678   2.096  0.6906  0.9050 -0.2751
  178MOL0     H23968   4.651   4.695   1.927 -3.0442  0.3165 -2.0929
  178MOL0     H23969   4.484   4.542   1.851  1.6791 -2.3083  1.7234
  178MOL0     H23970   4.428   4.501   2.011 -1.0950 -0.7788 -1.2755
  178MOL0     H23971   4.368   4.746   2.049  0.3369  1.6714 -0.5088
  178MOL0     H23972   4.409   4.774   1.873 -0.9426 -2.3137 -2.7459
  178MOL0     H23973   4.266   4.603   1.800  1.7050  0.2349 -0.7224
  178MOL0     H23974   4.193   4.588   1.963  0.5852  0.5525 -0.2136
  178MOL0     H23975   4.112   4.832   1.927  0.1734 -1.9131  0.9446
  178MOL0     H23976   4.174   4.835   1.770  2.1760 -0.4907  1.5746
  178MOL0     H23977   4.025   4.625   1.709 -2.0449 -0.4988 -0.3485
  178MOL0     H23978   3.946   4.644   1.861  2.3264 -2.1880 -0.1545
  178MOL0     H23979   3.968   4.853   1.647 -0.2399  2.2400  0.3640
  178MOL0     H23980   3.874   4.883   1.800 -3.0054 -1.4389 -0.0507
  178MOL0     H23981   3.624   4.860   1.802 -0.2864 -1.3025  1.8079
  178MOL0     H23982   3.411   4.629   1.827  1.5555  0.0653  0.7665
  178MOL0     H23983   3.390   4.780   1.737  0.3397  0.9917 -1.1422
  178MOL0     H23984   3.383   4.514   1.580  2.0740  0.6403 -2.0498
  178MOL0     H23985   3.348   4.680   1.527 -1.6206  2.1839  1.9305
  178MOL0     H23986   3.169   4.704   1.691  3.9388  0.2815  2.8196
  178MOL0     H23987   3.190   4.535   1.728  0.5126 -0.8476 -0.4792
  178MOL0     H23988   3.111   4.462   1.505 -2.5892 -0.1205  1.2235
  178MOL0     H23989   3.141   4.626   1.432  0.1691  0.9952  0.9384
  178MOL0     H23990   2.991   4.464   1.312 -1.5858 -2.5220 -1.2186
  178MOL0     H23991   2.860   4.508   1.007  0.8630 -0.0734  0.0681
  178MOL0     H23992   2.958   4.410   1.103  0.1662  0.0550  2.0094
  178MOL0     H23993   2.785   4.369   1.080 -0.4492  1.7788 -0.1514
  178MOL0     H23994   2.233   4.702   1.317  1.4997  1.4362 -0.7815
  178MOL0     H23995   2.013   4.665   1.247  2.9247 -0.1201  2.6559
  178MOL0     H23996   1.837   4.435   1.142 -0.5879  1.7839  4.8249
  178MOL0     H23997   1.817   4.610   1.173 -2.7371  0.9721 -1.3160
  178MOL0     H23998   1.665   4.625   0.973  1.5478  0.0164 -1.8661
  178MOL0     H23999   1.727   4.474   0.919 -2.0569 -0.1613 -0.2098
  178MOL0     H24000   1.491   4.489   1.038 -0.8103  0.3589  4.1980
  178MOL0     H24001   1.573   4.494   1.182 -3.3870  2.2407 -1.2340
  178MOL0     H24002   1.607   4.274   0.971 -0.0991  2.8096 -0.8176
  178MOL0     H24003   1.687   4.264   1.119 -0.7077 -2.4106  0.9757
  178MOL0     H24004   1.376   4.296   1.082  0.5557 -1.0446 -0.4939
  178MOL0     H24005   1.450   4.286   1.241 -1.7873 -0.7979  0.5232
  178MOL0     H24006   1.458   4.066   1.023  1.0703 -2.1612  1.0463
  178MOL0     H24007   1.512   4.059   1.194 -0.6594  0.5774  2.0036
  178MOL0     H24008   1.239   4.078   1.090  1.5553 -0.9686 -1.8727
  178MOL0     H24009   1.284   4.081   1.262  3.9762 -2.3059  1.7746
  178MOL0     H24010   1.219   3.862   1.223  1.3328 -2.0484  1.8571
  178MOL0     H24011   1.390   3.861   1.252  2.2062  1.4186 -0.3735
  178MOL0     H24012   2.147   4.527   0.864  1.7663 -0.0342 -0.3350
  178MOL0     H24013   2.386   4.577   0.938  0.6962  0.2958  0.2245
  178MOL0     H24014   2.593   4.734   1.374  1.9177  1.8967  0.5456
  178MOL0     H24015   2.754   4.741   1.533 -0.6642  1.1544 -1.0890
  178MOL0     H24016   5.016   4.610   2.232  0.6965 -2.1503  0.5374
  178MOL0     H24017   5.254   4.643   2.146  0.1078  1.9568  0.1714
  178MOL0     H24018   5.583   4.576   1.988  1.0231  2.2783  0.9060
  178MOL0     H24019   5.804   4.545   1.963  3.0103  1.2642 -1.2826
  178MOL0     H24020   6.027   4.689   1.852 -0.0630 -0.3013  2.9125
  178MOL0     H24021   6.014   4.526   1.918  0.0802 -3.3229 -1.0302
  178MOL0     H24022   6.165   4.425   1.763 -2.2050 -0.2039  1.6046
  178MOL0     H24023   6.238   4.543   1.864 -0.2490 -1.7462 -0.7893
  178MOL0     H24024   6.156   4.624   1.578 -0.1122 -0.9918  0.0575
  178MOL0     H24025   6.308   4.540   1.620 -0.2845 -0.1639 -0.9134
  178MOL0     H24026   6.339   4.746   1.794  0.5912  0.0746 -0.3008
  178MOL0     H24027   6.206   4.818   1.701 -2.1278 -2.4907 -1.3423
  178MOL0     H24028   6.474   4.827   1.388 -0.6225  0.7992 -0.0160
  178MOL0     H24029   5.780   4.567   1.532 -0.7447  2.4788 -0.5161
  178MOL0     H24030   5.529   4.546   1.557 -2.0519 -3.2124  2.0316
  179MOL0     O24031  10.448   7.768   6.312  0.1887  0.5040 -0.2065
  179MOL0     C24032  10.477   7.839   6.214 -1.1633  1.2556 -0.8214
  179MOL0     O24033  10.384   7.907   6.142 -0.8546 -0.0002 -0.2817
  179MOL0     C24034  10.248   7.912   6.181  0.4350  0.6213  0.5914
  179MOL0     C24035  10.152   7.915   6.082  1.5695  0.7830  0.2782
  179MOL0     C24036  10.014   7.918   6.100  0.1881  1.0967 -0.2719
  179MOL0     C24037   9.971   7.915   6.232 -0.6974  0.4702  0.3207
  179MOL0     O24038   9.835   7.914   6.267  0.7290 -0.2590 -0.2241
  179MOL0     C24039   9.756   7.795   6.230  0.1675 -0.2823 -0.2909
  179MOL0     C24040   9.655   7.763   6.337 -0.1038  0.9870 -0.2033
  179MOL0     C24041   9.560   7.869   6.381 -0.4518 -0.1226 -0.5489
  179MOL0     C24042   9.485   7.941   6.262 -0.5129 -0.2232 -0.6270
  179MOL0     C24043   9.393   7.860   6.178 -0.3101  0.0200  0.5218
  179MOL0     C24044   9.275   7.803   6.265 -0.3157  0.4810  0.3623
  179MOL0     C24045   9.138   7.823   6.196 -0.7751 -0.2718 -0.4140
  179MOL0     C24046   9.074   7.959   6.232  0.5630  0.9596 -0.4917
  179MOL0     N24047   8.952   7.987   6.157 -0.2428 -0.2107  0.5035
  179MOL0     C24048   8.833   7.971   6.215  0.2465 -0.5678 -0.1818
  179MOL0     C24049   8.748   8.013   6.121  0.2907 -0.2596  0.3373
  179MOL0     C24050   8.603   8.039   6.148  0.2474  0.4739 -0.2272
  179MOL0     C24051   8.513   8.014   6.023 -0.6706 -0.4072  0.6863
  179MOL0     C24052   8.369   8.064   6.063  0.0126  0.3777  0.6379
  179MOL0     C24053   8.259   8.012   5.965  0.2558 -0.4040 -0.9150
  179MOL0     O24054   8.278   8.058   5.832 -0.2993 -0.2807  0.1890
  179MOL0     C24055   8.168   8.120   5.765 -0.2885  0.2870  0.1389
  179MOL0     C24056   8.179   8.129   5.625  0.7074 -1.3684  0.3906
  179MOL0     C24057   8.074   8.192   5.542  0.3072  1.1310 -0.6137
  179MOL0     C24058   8.101   8.208   5.399 -0.0629  0.3807  0.4633
  179MOL0     C24059   7.967   8.250   5.612 -1.0759 -0.0204  0.4355
  179MOL0     C24060   7.854   8.313   5.533  0.1302  0.1986 -0.7200
  179MOL0     O24061   7.735   8.297   5.595 -0.3598 -0.0926  0.4802
  179MOL0     C24062   7.627   8.323   5.516 -0.4139 -0.2077  0.4480
  179MOL0     C24063   7.517   8.232   5.531  0.1652 -0.4650  0.1846
  179MOL0     C24064   7.398   8.253   5.464 -0.2635 -0.9410  0.6782
  179MOL0     C24065   7.376   8.365   5.384  0.7519 -0.4488  0.4750
  179MOL0     O24066   7.248   8.388   5.344 -0.5454 -0.8598  0.3333
  179MOL0     C24067   7.215   8.518   5.290  0.6703 -0.9492 -0.1003
  179MOL0     C24068   7.058   8.520   5.292  0.2088  0.6198  1.2718
  179MOL0     C24069   6.995   8.618   5.200  0.6330 -0.2362  0.7566
  179MOL0     C24070   6.847   8.589   5.180 -0.5766 -0.5450  0.5000
  179MOL0     C24071   6.782   8.693   5.096 -0.2055  0.0451  0.3249
  179MOL0     C24072   6.627   8.689   5.124  1.2712  0.1768 -0.5362
  179MOL0     C24073   6.555   8.819   5.111 -0.6949  0.5964 -0.9817
  179MOL0     C24074   6.429   8.817   5.036  0.0039 -0.2585  0.2338
  179MOL0    Cl24075   6.290   8.774   5.138  0.2692 -0.4338  0.5063
  179MOL0     C24076   7.480   8.458   5.377  0.5556  0.2880  0.0520
  179MOL0     C24077   7.603   8.437   5.440  0.1291 -0.2267 -0.0611
  179MOL0     O24078   7.876   8.379   5.425 -0.2937 -0.4891  0.9009
  179MOL0     C24079   7.958   8.240   5.756 -0.3945 -0.6593 -0.1607
  179MOL0     C24080   8.062   8.178   5.827  0.7904  0.1010  0.0252
  179MOL0     N24081   8.818   8.087   6.026 -0.3451  0.0262 -0.1923
  179MOL0     N24082   8.946   8.061   6.046  0.5549 -0.4667 -0.3063
  179MOL0     C24083  10.062   7.925   6.338 -0.5676  0.0674  0.2490
  179MOL0     C24084  10.201   7.926   6.311  0.9629 -0.0866  0.1420
  179MOL0     C24085  10.610   7.833   6.153 -0.0322  0.1488  0.2282
  179MOL0     C24086  10.712   7.752   6.196  0.4289  0.6222  0.2331
  179MOL0     C24087  10.837   7.749   6.140  0.1286 -0.3620 -0.4206
  179MOL0     C24088  10.865   7.830   6.037 -0.0893 -0.0283  1.4697
  179MOL0     O24089  10.995   7.828   5.992  0.6348  0.4453  0.5864
  179MOL0     C24090  11.016   7.852   5.850  0.7093  0.3025 -0.5557
  179MOL0     C24091  11.135   7.779   5.803 -0.5669  0.2837 -0.4170
  179MOL0     C24092  11.199   7.850   5.681  0.6929 -0.5384 -0.0422
  179MOL0     C24093  11.319   7.780   5.610  0.5206  0.6591  0.2164
  179MOL0     C24094  11.444   7.804   5.679 -0.1719 -0.0797  0.0691
  179MOL0     C24095  11.545   7.803   5.742  0.8441  0.6016 -0.1633
  179MOL0     C24096  10.769   7.925   5.990  0.3103 -0.1528  0.6109
  179MOL0     C24097  10.642   7.923   6.057 -0.0145 -0.5266  0.6229
  179MOL0     H24098  10.190   7.916   5.980  1.3631  2.6480  0.1831
  179MOL0     H24099   9.943   7.909   6.019  0.2378 -2.2854 -0.0617
  179MOL0     H24100   9.697   7.819   6.141  1.2827  0.3974 -0.8729
  179MOL0     H24101   9.825   7.711   6.213 -0.6962 -0.8189 -1.2343
  179MOL0     H24102   9.605   7.672   6.303  1.5486  0.1187 -0.3953
  179MOL0     H24103   9.704   7.724   6.426 -1.7699  0.0804  0.3487
  179MOL0     H24104   9.491   7.837   6.458  0.0152 -0.4791 -0.2707
  179MOL0     H24105   9.626   7.941   6.431  5.3419 -1.8932 -4.5793
  179MOL0     H24106   9.427   8.014   6.318  2.2319  1.6496 -0.0550
  179MOL0     H24107   9.557   8.002   6.208  0.6216  1.7878  2.8373
  179MOL0     H24108   9.348   7.930   6.106  0.5624  0.7411  0.6628
  179MOL0     H24109   9.445   7.781   6.123  0.1050  0.4614  0.2726
  179MOL0     H24110   9.297   7.699   6.289  2.3283  0.9561  0.2507
  179MOL0     H24111   9.262   7.858   6.358 -1.6180  0.4190  0.2440
  179MOL0     H24112   9.151   7.812   6.088  0.0741 -1.7299 -0.1761
  179MOL0     H24113   9.082   7.742   6.243 -0.0037 -0.8825 -0.5320
  179MOL0     H24114   9.138   8.044   6.204  0.1623  1.5696  0.4046
  179MOL0     H24115   9.058   7.967   6.340 -1.0408 -0.6740 -0.5616
  179MOL0     H24116   8.814   7.938   6.317  0.8122 -0.2846  0.0211
  179MOL0     H24117   8.571   7.974   6.230  2.7690 -0.0929  0.3719
  179MOL0     H24118   8.588   8.141   6.185 -1.3258  0.6540 -1.2594
  179MOL0     H24119   8.514   7.908   5.997 -1.5056  0.0174 -1.2335
  179MOL0     H24120   8.551   8.078   5.943  1.2802 -1.5553  0.6270
  179MOL0     H24121   8.370   8.172   6.044  1.3776  0.6738  2.0918
  179MOL0     H24122   8.348   8.028   6.164 -2.8013 -0.1330 -0.0599
  179MOL0     H24123   8.162   8.042   6.006  1.4536  0.6162  1.3154
  179MOL0     H24124   8.270   7.903   5.970 -1.6369 -0.5797  1.7760
  179MOL0     H24125   8.267   8.083   5.582  2.3612 -0.6358  2.7680
  179MOL0     H24126   8.092   8.313   5.370 -0.8756  0.9816  2.7128
  179MOL0     H24127   8.198   8.172   5.362  0.0571 -0.7294  1.7896
  179MOL0     H24128   8.030   8.140   5.350 -0.7866  0.3458  1.5412
  179MOL0     H24129   7.547   8.143   5.586  3.2136 -2.5812 -4.2458
  179MOL0     H24130   7.321   8.177   5.457  2.0533 -3.6436  2.2854
  179MOL0     H24131   7.259   8.597   5.351 -1.4566  1.7708 -1.8624
  179MOL0     H24132   7.240   8.530   5.184 -2.9995 -1.5829 -1.1843
  179MOL0     H24133   7.032   8.419   5.257  1.6020  0.4925  0.5095
  179MOL0     H24134   7.022   8.535   5.394 -2.5553 -0.1406  0.4914
  179MOL0     H24135   7.031   8.619   5.096 -0.5799  0.7999  0.3232
  179MOL0     H24136   7.003   8.719   5.239  0.4932  0.1638 -0.2292
  179MOL0     H24137   6.838   8.488   5.139 -1.4398 -0.5357  0.6462
  179MOL0     H24138   6.799   8.589   5.278 -1.8948 -2.9026 -0.0749
  179MOL0     H24139   6.798   8.678   4.989 -2.4639 -0.0837 -0.0501
  179MOL0     H24140   6.815   8.792   5.128 -0.1584  0.0528  0.2514
  179MOL0     H24141   6.593   8.623   5.043  2.7790 -1.9055  0.4269
  179MOL0     H24142   6.599   8.643   5.219 -1.6782  0.0848 -1.3452
  179MOL0     H24143   6.617   8.891   5.056 -0.5237  0.6360 -0.7429
  179MOL0     H24144   6.541   8.868   5.208 -1.6415 -0.5477 -0.5215
  179MOL0     H24145   6.426   8.748   4.952  1.4003  1.5006 -1.3577
  179MOL0     H24146   6.412   8.919   5.001 -2.0500  0.3340  2.6672
  179MOL0     H24147   7.462   8.550   5.323  1.2346 -0.3785 -1.3635
  179MOL0     H24148   7.681   8.512   5.437  1.1582 -1.2781 -1.4089
  179MOL0     H24149   7.869   8.279   5.804 -2.2706 -2.5549 -1.8993
  179MOL0     H24150   8.042   8.182   5.934  0.6207 -0.3225  0.0107
  179MOL0     H24151  10.021   7.941   6.437 -2.1287 -1.1172 -0.1599
  179MOL0     H24152  10.267   7.944   6.396 -0.4940 -0.0279  1.3058
  179MOL0     H24153  10.690   7.689   6.282  0.7824 -1.7204 -1.3007
  179MOL0     H24154  10.921   7.693   6.180 -1.6247 -1.3832  2.0728
  179MOL0     H24155  10.926   7.821   5.797  0.2709 -2.9890  1.8363
  179MOL0     H24156  11.029   7.961   5.848  0.9788  0.2668 -2.0020
  179MOL0     H24157  11.097   7.679   5.779  0.9197 -1.2432  2.9789
  179MOL0     H24158  11.208   7.757   5.881  0.8718  0.0279 -1.7802
  179MOL0     H24159  11.236   7.945   5.721  0.6618 -0.6550  0.2661
  179MOL0     H24160  11.125   7.885   5.608  1.4194  3.4600  0.9092
  179MOL0     H24161  11.328   7.820   5.508 -3.4160  1.4164  0.0063
  179MOL0     H24162  11.291   7.675   5.604  1.0265  0.3577  2.4365
  179MOL0     H24163  11.634   7.808   5.802  1.0682 -2.3967 -0.1016
  179MOL0     H24164  10.795   8.000   5.916 -0.7448 -1.0765 -0.7735
  179MOL0     H24165  10.571   7.999   6.025  1.5325  1.1596  1.0281
  180MOL0     O24166   2.556   8.509   4.243 -0.0317  0.3897  0.2508
  180MOL0     C24167   2.617   8.427   4.184  0.1150  0.4116  0.2858
  180MOL0     O24168   2.573   8.354   4.075  0.3822 -0.4107 -0.0377
  180MOL0     C24169   2.438   8.357   4.046 -0.3767  0.3928 -0.0221
  180MOL0     C24170   2.361   8.475   4.037  0.1880  0.6410  0.4170
  180MOL0     C24171   2.225   8.473   4.008 -1.1299 -0.1301  0.4323
  180MOL0     C24172   2.151   8.358   4.009 -0.1540 -0.0469  1.1955
  180MOL0     O24173   2.015   8.350   3.985  0.2574  0.4438 -0.3010
  180MOL0     C24174   1.948   8.444   3.900 -0.2845  0.0692 -0.4148
  180MOL0     C24175   1.800   8.420   3.907 -0.1228  0.1185 -0.2730
  180MOL0     C24176   1.723   8.521   3.816 -0.0579 -0.7533  0.3186
  180MOL0     C24177   1.575   8.484   3.808 -0.8213  1.1153  1.2967
  180MOL0     C24178   1.543   8.384   3.691  0.2468 -0.1147 -0.4165
  180MOL0     C24179   1.397   8.348   3.680  0.6006 -0.5263  0.1204
  180MOL0     C24180   1.383   8.241   3.574  0.0956 -0.1898  0.7969
  180MOL0     C24181   1.234   8.217   3.546  0.3338  0.1116 -0.1379
  180MOL0     N24182   1.176   8.123   3.642  0.1849  0.1277 -0.3021
  180MOL0     C24183   1.218   7.994   3.670  0.1701 -1.0797  0.8760
  180MOL0     C24184   1.150   7.949   3.777 -0.0085 -0.7504  0.3776
  180MOL0     C24185   1.171   7.827   3.852 -0.3036  0.4487 -0.1212
  180MOL0     C24186   1.241   7.718   3.772  0.0061  0.2898 -0.2176
  180MOL0     C24187   1.279   7.599   3.861 -0.0959  0.1035  0.3602
  180MOL0     C24188   1.159   7.515   3.905 -0.4267  0.0091 -0.2290
  180MOL0     O24189   1.110   7.449   3.789 -0.0745 -0.4353 -0.4965
  180MOL0     C24190   0.985   7.393   3.807 -0.2811 -0.3293  0.8128
  180MOL0     C24191   0.883   7.395   3.707  0.7684 -0.0510 -0.3529
  180MOL0     C24192   0.750   7.338   3.728  1.0680 -0.7413  0.0632
  180MOL0     C24193   0.659   7.353   3.603 -0.0984  0.1786  0.5786
  180MOL0     C24194   0.731   7.255   3.840  0.4625  0.3261  0.5386
  180MOL0     C24195   0.607   7.182   3.885 -0.0421  0.2005 -0.6724
  180MOL0     O24196   0.524   7.156   3.782  0.2479  0.1943 -0.4016
  180MOL0     C24197   0.442   7.049   3.800 -0.2498  0.2252 -0.3198
  180MOL0     C24198   0.310   7.068   3.847  0.3912 -0.7507  0.4331
  180MOL0     C24199   0.222   6.959   3.852  0.0749 -0.7480 -0.4989
  180MOL0     C24200   0.255   6.837   3.807 -0.1621  0.7543 -0.3920
  180MOL0     O24201   0.184   6.720   3.820  0.0400  0.4974  1.2575
  180MOL0     C24202   0.042   6.746   3.841  0.5578  0.5376  0.2480
  180MOL0     C24203  -0.027   6.609   3.845 -0.3194  0.3269 -0.1099
  180MOL0     C24204  -0.180   6.622   3.873  0.7059 -0.2967 -0.0374
  180MOL0     C24205  -0.243   6.481   3.859  0.3321 -0.4323  0.2756
  180MOL0     C24206  -0.394   6.487   3.881  0.0646 -0.0389 -0.2131
  180MOL0     C24207  -0.461   6.343   3.864 -0.5530 -0.1173 -0.6287
  180MOL0     C24208  -0.611   6.346   3.896  0.1957 -0.0047  1.1978
  180MOL0     C24209  -0.680   6.210   3.857  0.6679  0.0606  0.4620
  180MOL0    Cl24210  -0.738   6.146   4.009 -0.0665  0.1665 -0.3153
  180MOL0     C24211   0.393   6.822   3.762  0.8383 -1.1245  0.1239
  180MOL0     C24212   0.484   6.928   3.756 -0.8006 -0.0547  1.1273
  180MOL0     O24213   0.595   7.144   4.007  0.2733  0.2230  0.0775
  180MOL0     C24214   0.836   7.242   3.930 -0.1033  0.5068  0.3296
  180MOL0     C24215   0.958   7.314   3.918  0.7960 -0.0193  0.7688
  180MOL0     N24216   1.063   8.053   3.815 -0.6559  0.1390 -0.9452
  180MOL0     N24217   1.084   8.153   3.735  0.2790  0.6585 -0.1241
  180MOL0     C24218   2.225   8.235   4.024  1.0693  0.1298 -0.8424
  180MOL0     C24219   2.365   8.239   4.042 -0.2044  0.5528  0.1993
  180MOL0     C24220   2.760   8.408   4.224  0.0795  0.5393 -0.0679
  180MOL0     C24221   2.817   8.474   4.337 -0.3847 -0.5319  0.0407
  180MOL0     C24222   2.955   8.460   4.370  0.1091  0.2873  0.4204
  180MOL0     C24223   3.035   8.373   4.296 -0.4337 -1.0133 -0.2924
  180MOL0     O24224   3.171   8.361   4.308 -0.1173  0.3565  0.0024
  180MOL0     C24225   3.262   8.471   4.321  1.1456  0.2278  0.5826
  180MOL0     C24226   3.392   8.437   4.377 -0.0897 -0.5637  0.1423
  180MOL0     C24227   3.386   8.387   4.519  0.4251  0.3472  0.2543
  180MOL0     C24228   3.518   8.317   4.565  0.5154 -0.2508 -0.5910
  180MOL0     C24229   3.634   8.406   4.567  0.0690  0.9242  0.2400
  180MOL0     C24230   3.743   8.461   4.573  0.0679  0.0816 -0.6296
  180MOL0     C24231   2.977   8.311   4.186 -0.6003 -0.0359 -0.1029
  180MOL0     C24232   2.846   8.328   4.142  0.5786  0.0295 -0.8699
  180MOL0     H24233   2.414   8.569   4.040 -0.6102  1.0741  1.6113
  180MOL0     H24234   2.184   8.573   4.003  1.0637  0.9082  1.8846
  180MOL0     H24235   1.972   8.544   3.937  3.0371 -0.0697 -1.8605
  180MOL0     H24236   1.988   8.438   3.798  0.4156 -0.1838 -0.1329
  180MOL0     H24237   1.786   8.316   3.876 -1.7047  0.4460 -0.7527
  180MOL0     H24238   1.767   8.439   4.010  2.5154  1.9086  0.3461
  180MOL0     H24239   1.730   8.610   3.879 -2.0195 -0.7623  0.6271
  180MOL0     H24240   1.778   8.534   3.722  1.2878  3.8747  1.4557
  180MOL0     H24241   1.554   8.431   3.901  1.0199 -1.8600  0.1612
  180MOL0     H24242   1.511   8.572   3.800 -0.8177  1.3759  3.3914
  180MOL0     H24243   1.582   8.433   3.601  2.6514  0.8620  1.0551
  180MOL0     H24244   1.608   8.297   3.706 -0.9238 -1.1255 -1.0286
  180MOL0     H24245   1.366   8.303   3.775 -1.7786 -0.0248 -0.3475
  180MOL0     H24246   1.338   8.437   3.657  1.6604  0.8187  2.3689
  180MOL0     H24247   1.420   8.277   3.478  0.3040 -2.1717  0.0846
  180MOL0     H24248   1.440   8.150   3.594 -1.7931 -2.0365 -1.4713
  180MOL0     H24249   1.212   8.175   3.447 -3.0783 -0.5784  0.7756
  180MOL0     H24250   1.196   8.319   3.537  0.5018 -0.0421 -5.0002
  180MOL0     H24251   1.292   7.936   3.616  0.6506 -3.2590  3.6510
  180MOL0     H24252   1.235   7.856   3.936  0.2820 -0.1321 -0.3521
  180MOL0     H24253   1.077   7.791   3.895  0.2865 -1.8826 -0.6355
  180MOL0     H24254   1.332   7.767   3.738  0.3862 -1.5450 -2.1069
  180MOL0     H24255   1.174   7.704   3.686 -1.2888  2.0126  0.4591
  180MOL0     H24256   1.323   7.636   3.954 -2.4792 -0.2092  1.6993
  180MOL0     H24257   1.354   7.539   3.808  0.6802  0.7224  0.7277
  180MOL0     H24258   1.079   7.579   3.943 -1.0077 -0.4120 -0.7304
  180MOL0     H24259   1.193   7.447   3.984  2.6665  0.4126 -1.0618
  180MOL0     H24260   0.917   7.456   3.624 -0.1234  1.2031  0.1604
  180MOL0     H24261   0.555   7.341   3.632 -0.2878  1.0939  0.3251
  180MOL0     H24262   0.677   7.449   3.553 -1.2999  0.1945  0.1395
  180MOL0     H24263   0.685   7.273   3.533 -0.8419 -0.7619  1.3590
  180MOL0     H24264   0.282   7.165   3.886 -3.1981 -0.2343 -2.7434
  180MOL0     H24265   0.124   6.990   3.888  0.3182  0.7763 -1.0627
  180MOL0     H24266   0.022   6.797   3.935 -1.6703  4.2092 -1.9648
  180MOL0     H24267   0.002   6.801   3.755 -1.3243  0.4352  1.0039
  180MOL0     H24268  -0.008   6.561   3.748 -1.9524  0.9309 -0.7670
  180MOL0     H24269   0.016   6.534   3.911  0.9400  0.7675 -0.3878
  180MOL0     H24270  -0.232   6.698   3.814  1.6172  1.2253  1.0178
  180MOL0     H24271  -0.198   6.648   3.978  0.9789 -1.0322  0.1960
  180MOL0     H24272  -0.213   6.447   3.760 -1.4034  4.0224 -2.0583
  180MOL0     H24273  -0.203   6.416   3.938  1.8718  0.6088  0.3825
  180MOL0     H24274  -0.447   6.558   3.816 -0.8335  1.3121  1.8746
  180MOL0     H24275  -0.413   6.514   3.985 -3.3639 -2.2892 -0.0902
  180MOL0     H24276  -0.453   6.314   3.759 -1.7945  2.2461 -1.4302
  180MOL0     H24277  -0.402   6.274   3.926  1.5764  3.3954  1.5849
  180MOL0     H24278  -0.666   6.420   3.837 -3.3715 -1.3859  2.5134
  180MOL0     H24279  -0.625   6.366   4.003  0.0353  1.1298  0.9824
  180MOL0     H24280  -0.608   6.132   3.830  0.4250 -0.4146  1.1684
  180MOL0     H24281  -0.753   6.214   3.776  2.2898 -3.5950 -1.4402
  180MOL0     H24282   0.409   6.717   3.739 -1.2931 -1.4170 -0.2239
  180MOL0     H24283   0.588   6.914   3.730 -1.0441 -2.4919  1.1740
  180MOL0     H24284   0.823   7.167   4.007 -0.5583 -1.0864 -1.2375
  180MOL0     H24285   1.027   7.296   4.000  0.4506  4.3595  2.2760
  180MOL0     H24286   2.154   8.153   4.027  0.5691  0.5759 -0.0245
  180MOL0     H24287   2.412   8.141   4.042 -0.5396  0.3814  0.9781
  180MOL0     H24288   2.761   8.543   4.398  1.1265  1.0778 -0.3264
  180MOL0     H24289   2.991   8.520   4.454 -0.9463  1.8390 -0.1884
  180MOL0     H24290   3.273   8.504   4.217 -1.3100  0.0133  0.1926
  180MOL0     H24291   3.220   8.548   4.386 -1.3890 -1.7446  1.4282
  180MOL0     H24292   3.457   8.524   4.370 -1.5132  0.4748 -0.8050
  180MOL0     H24293   3.433   8.363   4.307  2.7064 -0.0261  1.0798
  180MOL0     H24294   3.289   8.340   4.534 -1.0812  2.8572 -0.9450
  180MOL0     H24295   3.369   8.477   4.578  0.7434 -0.1479  1.1174
  180MOL0     H24296   3.540   8.244   4.487  2.1814  1.3271 -1.6906
  180MOL0     H24297   3.518   8.277   4.666 -3.2236 -2.7721 -1.3910
  180MOL0     H24298   3.839   8.503   4.594  0.7524 -1.9920  0.8158
  180MOL0     H24299   3.032   8.245   4.121 -1.3413  1.0947 -1.9672
  180MOL0     H24300   2.804   8.278   4.056  1.0832 -4.4787  1.2512
  181MOL0     O24301   0.846   0.597   6.063 -0.1388 -0.7279  0.1932
  181MOL0     C24302   0.926   0.624   5.970  0.6329 -0.1356 -0.2734
  181MOL0     O24303   0.928   0.571   5.843 -0.2168  0.1047  0.5991
  181MOL0     C24304   0.805   0.517   5.807 -0.1642 -0.9612 -0.2595
  181MOL0     C24305   0.770   0.389   5.841 -0.4894 -0.0939 -0.1807
  181MOL0     C24306   0.655   0.330   5.787  1.0061  0.5713  0.2574
  181MOL0     C24307   0.569   0.401   5.704 -0.4589  0.4822 -0.0078
  181MOL0     O24308   0.467   0.325   5.644  0.0552 -0.7717 -0.4117
  181MOL0     C24309   0.367   0.402   5.575  0.4502 -0.4673  0.0353
  181MOL0     C24310   0.250   0.320   5.527  0.5313 -0.0944 -0.4313
  181MOL0     C24311   0.139   0.406   5.477  0.7492  0.0429 -0.3853
  181MOL0     C24312   0.024   0.310   5.445 -0.2187  0.2969 -0.3602
  181MOL0     C24313  -0.110   0.373   5.410 -0.2682 -0.3047  0.0440
  181MOL0     C24314  -0.210   0.260   5.400  0.4033  0.1050 -0.3505
  181MOL0     C24315  -0.349   0.327   5.387 -0.1000  0.4637  0.6450
  181MOL0     C24316  -0.461   0.239   5.339 -0.3575 -0.5612 -0.2315
  181MOL0     N24317  -0.577   0.234   5.432  0.1706 -0.2476 -0.0615
  181MOL0     C24318  -0.701   0.295   5.414  0.2939  0.4642  1.0620
  181MOL0     C24319  -0.772   0.283   5.526 -0.1520 -0.3103  0.3546
  181MOL0     C24320  -0.907   0.334   5.567  0.6456  0.0943  0.3018
  181MOL0     C24321  -0.997   0.225   5.568  0.0548 -0.0398  0.5311
  181MOL0     C24322  -1.145   0.269   5.606 -0.5980 -0.6044  0.4955
  181MOL0     C24323  -1.244   0.151   5.596  0.8779 -0.3916 -0.0690
  181MOL0     O24324  -1.370   0.204   5.636  0.3076 -0.1475 -0.6363
  181MOL0     C24325  -1.485   0.121   5.645 -0.6391 -0.3799 -0.4609
  181MOL0     C24326  -1.599   0.194   5.657  0.2131 -0.3250  0.1423
  181MOL0     C24327  -1.724   0.139   5.667  0.5148  0.0940  0.1218
  181MOL0     C24328  -1.842   0.227   5.679 -1.0418 -1.5574 -0.9716
  181MOL0     C24329  -1.727   0.001   5.662 -0.2243  0.2829  0.0205
  181MOL0     C24330  -1.851  -0.082   5.667 -0.2801 -0.4804  0.0922
  181MOL0     O24331  -1.968  -0.015   5.677  0.2953 -0.7423 -0.1986
  181MOL0     C24332  -2.085  -0.079   5.681  0.9320 -0.7390 -0.4354
  181MOL0     C24333  -2.137  -0.185   5.606  0.3097  0.1595  0.3944
  181MOL0     C24334  -2.276  -0.224   5.610  0.5935 -0.7770  0.4578
  181MOL0     C24335  -2.359  -0.172   5.706 -0.3562  0.1720  0.7516
  181MOL0     O24336  -2.485  -0.227   5.713 -0.4926 -0.6102 -0.3821
  181MOL0     C24337  -2.559  -0.196   5.826  0.8801 -0.0349  0.3837
  181MOL0     C24338  -2.688  -0.281   5.840 -0.1251  0.8575 -0.5862
  181MOL0     C24339  -2.769  -0.262   5.705  0.8573 -0.1085 -0.5867
  181MOL0     C24340  -2.889  -0.347   5.721  0.0543  0.3685 -0.2481
  181MOL0     C24341  -3.005  -0.318   5.622 -0.4607 -0.0750 -0.7030
  181MOL0     C24342  -3.103  -0.439   5.645  0.3709 -0.0240  0.7326
  181MOL0     C24343  -3.212  -0.429   5.542  0.4860  0.1665 -0.5465
  181MOL0     C24344  -3.326  -0.529   5.577 -0.8459 -0.5847  0.4674
  181MOL0    Cl24345  -3.426  -0.474   5.714  0.2173 -0.0727 -0.3843
  181MOL0     C24346  -2.315  -0.060   5.774 -0.4354 -0.2915 -0.0535
  181MOL0     C24347  -2.184  -0.011   5.762  0.1337 -0.6165 -0.2001
  181MOL0     O24348  -1.845  -0.199   5.650 -0.1116 -0.3590 -0.1042
  181MOL0     C24349  -1.612  -0.079   5.648 -0.2188 -0.2598  1.1629
  181MOL0     C24350  -1.484  -0.013   5.638  0.9127 -0.4798  0.1081
  181MOL0     N24351  -0.695   0.205   5.607 -0.6489 -0.1188  0.0678
  181MOL0     N24352  -0.577   0.177   5.553  0.9228  0.0454  0.3280
  181MOL0     C24353   0.604   0.527   5.676  0.1203 -0.8870  0.0132
  181MOL0     C24354   0.725   0.591   5.718  0.1134 -0.3187 -1.0008
  181MOL0     C24355   1.041   0.701   6.012 -0.1137 -0.9075  1.1934
  181MOL0     C24356   1.122   0.775   5.924 -0.2167 -0.3663 -0.2438
  181MOL0     C24357   1.231   0.864   5.953  0.1350 -0.3267  0.2544
  181MOL0     C24358   1.275   0.860   6.086  0.1283 -0.2563  0.0955
  181MOL0     O24359   1.378   0.941   6.134  0.2787 -0.4583 -0.0488
  181MOL0     C24360   1.461   1.019   6.045  0.2797 -0.4627  0.0068
  181MOL0     C24361   1.552   0.932   5.964 -0.1467 -0.0317  0.0383
  181MOL0     C24362   1.659   0.846   6.050 -0.3537  0.0103 -0.6984
  181MOL0     C24363   1.759   0.775   5.962 -0.9513 -0.4289  0.1438
  181MOL0     C24364   1.712   0.683   5.858  0.9593 -0.2401 -0.1291
  181MOL0     C24365   1.683   0.622   5.758 -0.2900  0.2967  0.0253
  181MOL0     C24366   1.207   0.790   6.184  0.1895  0.7156  0.8914
  181MOL0     C24367   1.097   0.706   6.150 -0.5167 -0.2491  0.1528
  181MOL0     H24368   0.825   0.313   5.897 -0.0718 -0.7507 -1.4420
  181MOL0     H24369   0.631   0.225   5.798 -3.1328  1.4266  1.1430
  181MOL0     H24370   0.314   0.464   5.648 -1.4075 -2.1729  0.2232
  181MOL0     H24371   0.399   0.470   5.495 -1.2433  1.3244  0.7977
  181MOL0     H24372   0.285   0.253   5.448  2.5354 -0.2566  0.5284
  181MOL0     H24373   0.213   0.253   5.604 -0.0342 -1.5901 -1.9429
  181MOL0     H24374   0.103   0.468   5.559 -1.1146  0.1898 -1.2568
  181MOL0     H24375   0.171   0.460   5.387  1.8604 -0.4102 -0.2841
  181MOL0     H24376   0.050   0.258   5.352 -2.1722 -1.0023 -0.2287
  181MOL0     H24377  -0.002   0.235   5.520 -0.8515 -0.1979 -1.0639
  181MOL0     H24378  -0.126   0.450   5.486  1.9042  1.3845 -1.1040
  181MOL0     H24379  -0.093   0.417   5.311  2.3020 -0.9278  0.1437
  181MOL0     H24380  -0.191   0.189   5.319 -0.6995  0.4952 -0.9638
  181MOL0     H24381  -0.216   0.205   5.494 -0.0064 -0.6718 -0.8271
  181MOL0     H24382  -0.361   0.372   5.486 -0.2990  1.0755  0.3462
  181MOL0     H24383  -0.350   0.407   5.313 -2.2620  0.0647  0.1803
  181MOL0     H24384  -0.432   0.135   5.321  0.5237 -0.5392  0.9441
  181MOL0     H24385  -0.498   0.276   5.243 -2.1269 -0.2738  0.5365
  181MOL0     H24386  -0.744   0.354   5.333  0.2922 -0.1741  0.5928
  181MOL0     H24387  -0.895   0.369   5.670  0.5186 -1.7901  0.9814
  181MOL0     H24388  -0.939   0.416   5.502  3.8072  1.9535  0.8761
  181MOL0     H24389  -0.963   0.158   5.647 -1.1998  0.7762  1.8118
  181MOL0     H24390  -0.984   0.180   5.469 -1.7142 -0.2965  0.3941
  181MOL0     H24391  -1.174   0.352   5.540 -0.5139 -0.5061  0.5813
  181MOL0     H24392  -1.144   0.297   5.711 -2.1152 -0.9054  0.6190
  181MOL0     H24393  -1.218   0.064   5.656 -2.4578 -1.7624 -0.3663
  181MOL0     H24394  -1.257   0.122   5.492 -2.7293 -0.1277  0.1743
  181MOL0     H24395  -1.586   0.302   5.660  1.9799 -0.4683 -1.1441
  181MOL0     H24396  -1.915   0.214   5.599 -1.4031  1.9155 -1.3725
  181MOL0     H24397  -1.891   0.198   5.773  1.1750  2.1239  1.5843
  181MOL0     H24398  -1.802   0.328   5.690  2.4442 -2.7018 -1.9218
  181MOL0     H24399  -2.077  -0.232   5.528 -1.2244  1.9329 -1.9891
  181MOL0     H24400  -2.301  -0.307   5.544  1.7752  0.0963 -1.1639
  181MOL0     H24401  -2.496  -0.208   5.915 -1.0416  1.0306  1.9764
  181MOL0     H24402  -2.592  -0.091   5.825  0.5183 -0.1461 -0.2779
  181MOL0     H24403  -2.664  -0.387   5.853  1.0991  0.6224 -3.9232
  181MOL0     H24404  -2.755  -0.256   5.923 -2.6785  1.0954 -2.6304
  181MOL0     H24405  -2.724  -0.309   5.617 -1.7826 -1.9918 -1.0434
  181MOL0     H24406  -2.793  -0.156   5.690  2.7602  0.0998 -2.6234
  181MOL0     H24407  -2.853  -0.449   5.707 -0.1019  0.2564  0.1768
  181MOL0     H24408  -2.921  -0.336   5.825  0.7055  0.7825 -0.0844
  181MOL0     H24409  -2.960  -0.306   5.523 -0.0415 -1.7117 -0.7322
  181MOL0     H24410  -3.050  -0.221   5.646  0.3548 -0.0870  1.0154
  181MOL0     H24411  -3.052  -0.533   5.619  1.6271  0.8894 -0.2202
  181MOL0     H24412  -3.135  -0.435   5.749 -1.1520 -0.8803  0.3222
  181MOL0     H24413  -3.169  -0.455   5.445 -0.1311 -2.1717 -0.2727
  181MOL0     H24414  -3.262  -0.332   5.543  0.2687  0.2334  3.7398
  181MOL0     H24415  -3.294  -0.631   5.601 -1.1277 -1.2214 -1.6581
  181MOL0     H24416  -3.391  -0.546   5.490 -0.4962 -0.7955  0.2416
  181MOL0     H24417  -2.372  -0.001   5.846  0.4553 -2.1841  2.3148
  181MOL0     H24418  -2.149   0.070   5.826  1.8967 -1.2989 -0.2741
  181MOL0     H24419  -1.614  -0.187   5.634  0.9395 -0.3042  1.2343
  181MOL0     H24420  -1.391  -0.065   5.618  2.0063  0.4991  2.2957
  181MOL0     H24421   0.547   0.585   5.604 -0.3755 -1.8950 -0.4275
  181MOL0     H24422   0.755   0.694   5.702 -0.2144  0.1225  0.9392
  181MOL0     H24423   1.083   0.779   5.824 -1.6725  1.5339  0.3389
  181MOL0     H24424   1.265   0.933   5.877  0.4130  0.1524  0.8053
  181MOL0     H24425   1.404   1.085   5.979  0.3929  0.2252  0.5892
  181MOL0     H24426   1.520   1.078   6.116 -0.3346 -0.0923  0.2184
  181MOL0     H24427   1.602   0.999   5.894 -3.4952  0.9197 -1.6702
  181MOL0     H24428   1.497   0.856   5.907  1.0111 -1.9667  1.3911
  181MOL0     H24429   1.615   0.784   6.129  1.3029 -0.7551 -0.3359
  181MOL0     H24430   1.709   0.923   6.109  1.4984 -0.9636 -0.9224
  181MOL0     H24431   1.829   0.719   6.024  1.1122  1.3051 -0.5022
  181MOL0     H24432   1.830   0.850   5.925 -0.8045 -0.3057  0.6656
  181MOL0     H24433   1.663   0.557   5.675 -0.5132 -2.2324  1.9439
  181MOL0     H24434   1.232   0.780   6.290 -1.1098  0.5347  1.1951
  181MOL0     H24435   1.043   0.649   6.224 -2.0620 -3.8032 -3.3744
  182MOL0     O24436   5.651   7.114   0.799 -0.6884  0.3749  0.0411
  182MOL0     C24437   5.657   7.237   0.821  0.7641  0.8384  0.1497
  182MOL0     O24438   5.625   7.339   0.736  0.3169  0.3534 -0.6480
  182MOL0     C24439   5.600   7.328   0.605  0.7251  0.0434 -0.5546
  182MOL0     C24440   5.549   7.446   0.546  0.0006 -0.5937  0.1902
  182MOL0     C24441   5.511   7.442   0.410 -0.2124 -0.0772 -0.5787
  182MOL0     C24442   5.529   7.324   0.333  0.7680 -0.8196 -0.3942
  182MOL0     O24443   5.507   7.322   0.196 -0.1422  0.1521  0.2686
  182MOL0     C24444   5.414   7.415   0.138 -0.0143 -0.4508 -0.7087
  182MOL0     C24445   5.350   7.349   0.009  0.2293  0.3578  0.1317
  182MOL0     C24446   5.231   7.437  -0.031  0.1584 -0.1221  0.0876
  182MOL0     C24447   5.150   7.383  -0.149  0.7938 -0.1988  0.1742
  182MOL0     C24448   5.027   7.469  -0.187 -0.5923  0.5553  0.2041
  182MOL0     C24449   4.915   7.387  -0.270  0.2125  0.4157 -0.4837
  182MOL0     C24450   4.802   7.480  -0.320  0.8774 -0.3830 -0.1327
  182MOL0     C24451   4.821   7.517  -0.468 -1.3543  0.5652 -0.7903
  182MOL0     N24452   4.949   7.578  -0.497 -0.3027 -0.4439 -0.0221
  182MOL0     C24453   4.980   7.711  -0.478  0.2857 -0.5496  0.0197
  182MOL0     C24454   5.102   7.724  -0.531  0.2194  0.2625 -0.1272
  182MOL0     C24455   5.195   7.842  -0.536 -0.5586  0.6437 -0.6408
  182MOL0     C24456   5.208   7.908  -0.667 -0.4981  0.6627  0.7454
  182MOL0     C24457   5.087   7.995  -0.697  0.5201 -0.2695  0.0105
  182MOL0     C24458   5.075   8.030  -0.844  0.2226 -0.8828 -0.5674
  182MOL0     O24459   5.024   7.913  -0.914  0.2494 -0.2183 -0.6882
  182MOL0     C24460   4.894   7.871  -0.883  0.8075 -0.3216 -0.0769
  182MOL0     C24461   4.789   7.961  -0.869  0.2280 -0.0806 -0.2931
  182MOL0     C24462   4.661   7.920  -0.816  0.0644 -0.1382  0.0105
  182MOL0     C24463   4.544   8.026  -0.816 -0.5830  0.0265 -0.3732
  182MOL0     C24464   4.642   7.786  -0.780 -1.0494 -0.8258  0.2119
  182MOL0     C24465   4.530   7.731  -0.700  0.3333 -0.4296 -0.1233
  182MOL0     O24466   4.488   7.599  -0.735  0.2366 -0.5093  0.6352
  182MOL0     C24467   4.373   7.548  -0.665 -0.7232 -0.0468 -0.5679
  182MOL0     C24468   4.252   7.616  -0.655 -0.2700 -0.3911  0.1912
  182MOL0     C24469   4.147   7.562  -0.583  0.0640  0.1007  0.5694
  182MOL0     C24470   4.171   7.447  -0.503 -0.2433 -0.6126 -0.1232
  182MOL0     O24471   4.074   7.391  -0.426  0.0492  0.2667 -0.2448
  182MOL0     C24472   3.933   7.431  -0.447 -0.0252  0.2395 -0.2823
  182MOL0     C24473   3.851   7.341  -0.358  1.2445 -0.5846 -1.2528
  182MOL0     C24474   3.712   7.394  -0.338 -0.0960  0.2313  0.1790
  182MOL0     C24475   3.656   7.334  -0.210  0.0827 -1.0408  0.7374
  182MOL0     C24476   3.510   7.385  -0.183 -0.5750  0.4935  0.7458
  182MOL0     C24477   3.421   7.330  -0.292  0.2414 -0.5239  0.1282
  182MOL0     C24478   3.275   7.364  -0.257 -0.8889 -0.1709  0.2308
  182MOL0     C24479   3.175   7.281  -0.339 -0.3620  0.2856  0.3463
  182MOL0    Cl24480   2.998   7.323  -0.324  0.0476  0.9871 -0.3173
  182MOL0     C24481   4.292   7.385  -0.503  0.3521 -0.2303 -0.1790
  182MOL0     C24482   4.387   7.426  -0.594  0.3212  0.0469  0.0103
  182MOL0     O24483   4.495   7.796  -0.601  0.4703  0.2555  0.5353
  182MOL0     C24484   4.753   7.698  -0.803  0.5443  0.9685  0.1004
  182MOL0     C24485   4.873   7.741  -0.844 -0.2886 -0.4108 -0.0736
  182MOL0     N24486   5.127   7.603  -0.607  0.2757 -0.3322  0.1105
  182MOL0     N24487   5.034   7.516  -0.584  0.5143 -1.0303 -0.7602
  182MOL0     C24488   5.590   7.212   0.391  0.4719  0.3351 -0.8399
  182MOL0     C24489   5.620   7.210   0.528  0.4931  0.0310 -0.6230
  182MOL0     C24490   5.686   7.278   0.954  0.1841  0.2838  0.1078
  182MOL0     C24491   5.674   7.188   1.066 -0.2480 -0.4344 -0.4017
  182MOL0     C24492   5.693   7.235   1.196  0.1763  0.4984  0.2718
  182MOL0     C24493   5.717   7.369   1.214 -0.1772 -0.7561 -0.4790
  182MOL0     O24494   5.740   7.423   1.333  0.4182 -0.7833  0.3564
  182MOL0     C24495   5.649   7.382   1.434 -0.2916 -0.7056 -0.5118
  182MOL0     C24496   5.600   7.495   1.529 -0.1371 -1.0286  0.1300
  182MOL0     C24497   5.709   7.537   1.621  0.4217  0.0839  0.0145
  182MOL0     C24498   5.851   7.570   1.559  0.3988 -0.0141 -0.8603
  182MOL0     C24499   5.930   7.651   1.642 -0.4791 -0.5461 -0.2202
  182MOL0     C24500   6.008   7.718   1.702  0.0388 -0.1056  0.0407
  182MOL0     C24501   5.720   7.456   1.113 -0.7565 -0.5953 -0.2054
  182MOL0     C24502   5.706   7.418   0.983 -0.1246  0.2568  0.7506
  182MOL0     H24503   5.528   7.535   0.604  2.1422 -0.7880  1.3511
  182MOL0     H24504   5.466   7.533   0.370 -1.7364  0.0973  1.3891
  182MOL0     H24505   5.339   7.462   0.202 -1.1452  0.9467 -2.9265
  182MOL0     H24506   5.461   7.504   0.094 -1.9111 -1.0597 -4.4484
  182MOL0     H24507   5.419   7.341  -0.076 -1.3910 -0.7810 -1.1342
  182MOL0     H24508   5.316   7.248   0.031 -0.5451  0.2719 -1.2884
  182MOL0     H24509   5.176   7.449   0.062  2.9454 -0.0087  1.8524
  182MOL0     H24510   5.283   7.526  -0.066 -2.0381  0.8731 -0.8020
  182MOL0     H24511   5.211   7.393  -0.239 -0.1319 -2.1464 -0.7112
  182MOL0     H24512   5.102   7.287  -0.129 -1.8120  0.7099 -1.2238
  182MOL0     H24513   4.980   7.521  -0.103  1.0865  2.7533 -0.1208
  182MOL0     H24514   5.057   7.551  -0.253  0.1559  0.4155  0.3709
  182MOL0     H24515   4.962   7.339  -0.356 -1.5938 -1.1849 -0.6397
  182MOL0     H24516   4.875   7.311  -0.202  2.4392 -0.6180 -0.2454
  182MOL0     H24517   4.704   7.440  -0.292  1.4074  0.4078  3.4132
  182MOL0     H24518   4.805   7.575  -0.265 -1.3726 -0.4759  0.2713
  182MOL0     H24519   4.736   7.577  -0.502 -2.0629  0.4853  0.7800
  182MOL0     H24520   4.823   7.423  -0.523 -3.3707 -0.8951  1.4290
  182MOL0     H24521   4.933   7.797  -0.432 -1.3657 -0.7470 -1.2020
  182MOL0     H24522   5.163   7.908  -0.454  1.0619  1.7183 -0.8220
  182MOL0     H24523   5.295   7.801  -0.517 -0.0929  1.3771 -1.4706
  182MOL0     H24524   5.211   7.829  -0.743 -1.7546  0.8576  0.4779
  182MOL0     H24525   5.303   7.960  -0.683  1.1418 -2.5889 -1.2065
  182MOL0     H24526   5.098   8.087  -0.639 -0.3919 -0.5258  0.6087
  182MOL0     H24527   4.999   7.943  -0.658 -0.3141 -1.4001 -3.0862
  182MOL0     H24528   5.180   8.044  -0.872  1.1770 -2.4919  1.8470
  182MOL0     H24529   5.014   8.117  -0.870 -0.0855 -0.4923  1.3078
  182MOL0     H24530   4.812   8.067  -0.882 -2.0901  0.6583  1.0738
  182MOL0     H24531   4.461   7.992  -0.753  0.0782  2.1017  1.7609
  182MOL0     H24532   4.588   8.113  -0.766 -2.5922 -0.3127  2.2297
  182MOL0     H24533   4.522   8.059  -0.918  2.8413  0.8622 -0.9570
  182MOL0     H24534   4.234   7.707  -0.711 -1.1619 -0.2833  0.6230
  182MOL0     H24535   4.053   7.615  -0.588 -0.7405 -1.4001 -1.5223
  182MOL0     H24536   3.919   7.537  -0.422  2.7702  0.6407 -0.0467
  182MOL0     H24537   3.896   7.417  -0.549 -1.1322  3.5076 -0.4389
  182MOL0     H24538   3.840   7.242  -0.404  2.3402 -1.0523 -0.5423
  182MOL0     H24539   3.895   7.341  -0.258  0.1327  1.9993 -0.6746
  182MOL0     H24540   3.649   7.368  -0.423 -0.7698 -0.4833  0.8920
  182MOL0     H24541   3.699   7.503  -0.331  1.3786  0.7258 -3.0751
  182MOL0     H24542   3.662   7.225  -0.197 -0.7326 -1.3989 -1.4784
  182MOL0     H24543   3.719   7.368  -0.127  1.7929 -2.4589  0.0826
  182MOL0     H24544   3.510   7.494  -0.190 -1.6813  0.6417  2.5960
  182MOL0     H24545   3.469   7.353  -0.087 -0.5336  0.1848  0.6592
  182MOL0     H24546   3.446   7.371  -0.390  2.0474 -1.2727  0.2499
  182MOL0     H24547   3.435   7.222  -0.301  1.6310 -0.2375 -1.5714
  182MOL0     H24548   3.256   7.472  -0.266 -1.2184 -0.0117  2.3526
  182MOL0     H24549   3.253   7.339  -0.153 -1.7512  0.3201  0.1803
  182MOL0     H24550   3.182   7.180  -0.298  0.1234  0.2210  0.1044
  182MOL0     H24551   3.194   7.267  -0.446 -1.5331  0.2349  0.1280
  182MOL0     H24552   4.311   7.298  -0.442 -3.2344 -0.7124  0.4832
  182MOL0     H24553   4.482   7.374  -0.597  0.9109  1.0778  0.3173
  182MOL0     H24554   4.748   7.594  -0.771  0.8540  1.2328  1.0440
  182MOL0     H24555   4.961   7.680  -0.830 -0.9023 -1.3720 -0.3246
  182MOL0     H24556   5.625   7.124   0.337 -0.0365  0.1506 -0.8705
  182MOL0     H24557   5.652   7.114   0.568 -0.2058 -0.3069 -0.8457
  182MOL0     H24558   5.661   7.082   1.048  2.3418 -0.7488 -0.9398
  182MOL0     H24559   5.684   7.166   1.278  1.0186  4.0150  3.6121
  182MOL0     H24560   5.552   7.350   1.396  0.0748  1.2342 -3.4564
  182MOL0     H24561   5.698   7.310   1.500  0.2473 -0.8834 -1.0958
  182MOL0     H24562   5.510   7.461   1.580 -1.0659  0.1763 -0.6463
  182MOL0     H24563   5.569   7.578   1.465  1.3313 -0.4924  0.0771
  182MOL0     H24564   5.716   7.456   1.694 -2.3317 -1.2705 -1.0736
  182MOL0     H24565   5.669   7.622   1.679  1.1192 -1.1649  2.4813
  182MOL0     H24566   5.844   7.609   1.458  1.0917 -0.9302 -1.2810
  182MOL0     H24567   5.900   7.473   1.545  2.0609  0.5568  0.6297
  182MOL0     H24568   6.084   7.785   1.738  2.7502 -1.0486 -3.3539
  182MOL0     H24569   5.755   7.558   1.125 -1.2399 -0.4591  0.0685
  182MOL0     H24570   5.712   7.495   0.906 -3.5548  0.3748  0.4287
  183MOL0     O24571   9.548   2.028   5.552  0.0582  0.8490  0.2052
  183MOL0     C24572   9.569   1.990   5.663  0.8507 -0.2877 -0.3876
  183MOL0     O24573   9.486   1.915   5.737  0.2432 -0.1000  0.4618
  183MOL0     C24574   9.356   1.886   5.685 -0.2412  0.9725 -0.8111
  183MOL0     C24575   9.258   1.978   5.684  0.0796 -0.6758  0.2920
  183MOL0     C24576   9.130   1.946   5.642  0.2432  0.7870  0.4891
  183MOL0     C24577   9.105   1.823   5.578 -0.0212 -0.1409 -0.9730
  183MOL0     O24578   8.989   1.781   5.518 -0.0619 -0.2919 -0.5339
  183MOL0     C24579   8.884   1.873   5.519  0.3107 -0.1395 -0.0323
  183MOL0     C24580   8.757   1.820   5.465  0.3166  0.1853 -0.0067
  183MOL0     C24581   8.638   1.909   5.503 -0.4675  0.3640  0.0275
  183MOL0     C24582   8.505   1.864   5.452 -0.2018  1.1275 -0.0771
  183MOL0     C24583   8.390   1.969   5.440 -0.9754  0.3273  1.2067
  183MOL0     C24584   8.264   1.893   5.411 -0.2148 -0.4583 -0.4256
  183MOL0     C24585   8.141   1.984   5.403 -0.1546 -0.4601  0.6133
  183MOL0     C24586   8.118   2.039   5.256  0.2006 -0.0337 -0.0578
  183MOL0     N24587   8.104   1.938   5.151  0.7365  0.3180  0.3203
  183MOL0     C24588   8.143   1.960   5.026 -1.0473  0.7335  0.2551
  183MOL0     C24589   8.093   1.857   4.953  0.3444  0.1494  0.0279
  183MOL0     C24590   8.131   1.819   4.809 -0.0523 -0.0031  0.2253
  183MOL0     C24591   8.033   1.851   4.697 -0.3775 -0.5053  0.6000
  183MOL0     C24592   7.930   1.745   4.664  0.1836 -0.8590  0.1901
  183MOL0     C24593   7.805   1.759   4.754  0.3145 -0.0227  0.4162
  183MOL0     O24594   7.680   1.728   4.689 -0.1570 -0.3474 -0.0677
  183MOL0     C24595   7.570   1.738   4.769 -0.4626 -0.3681  0.3799
  183MOL0     C24596   7.564   1.733   4.911 -0.3006  0.0153 -0.5685
  183MOL0     C24597   7.445   1.744   4.980  0.3044  0.5566  0.5772
  183MOL0     C24598   7.442   1.719   5.129  0.1331 -0.1784 -0.2037
  183MOL0     C24599   7.318   1.769   4.909 -1.2732  0.2220 -0.5355
  183MOL0     C24600   7.189   1.798   4.972 -0.2863 -0.4541 -0.6170
  183MOL0     O24601   7.183   1.868   5.090  0.1121 -0.3826  0.1231
  183MOL0     C24602   7.056   1.891   5.139 -0.3393 -0.4738 -0.1862
  183MOL0     C24603   6.989   1.790   5.201  0.5793  0.0226 -0.9555
  183MOL0     C24604   6.860   1.808   5.251  0.3547 -0.2402 -0.3598
  183MOL0     C24605   6.782   1.912   5.193 -0.2917  0.4789  0.2705
  183MOL0     O24606   6.642   1.916   5.216 -0.3377 -0.2525 -0.7846
  183MOL0     C24607   6.558   1.997   5.128 -0.5852  0.6973 -0.2936
  183MOL0     C24608   6.415   2.002   5.187 -0.0027  0.3153  0.4702
  183MOL0     C24609   6.316   2.082   5.103 -0.1485 -0.9427 -0.1173
  183MOL0     C24610   6.176   2.069   5.172  0.5881  1.0996 -0.4819
  183MOL0     C24611   6.066   2.147   5.094 -1.2765  0.5877  0.0140
  183MOL0     C24612   5.929   2.144   5.164 -0.0492 -0.1294 -0.3391
  183MOL0     C24613   5.852   2.278   5.166 -0.6873 -0.1837  0.6140
  183MOL0     C24614   5.715   2.263   5.228 -0.4609 -0.2002 -0.0428
  183MOL0    Cl24615   5.636   2.431   5.239 -0.1880 -0.3211  0.0201
  183MOL0     C24616   6.844   2.020   5.125 -0.5952 -0.1425 -0.1971
  183MOL0     C24617   6.983   2.008   5.106 -0.1740 -0.1870  0.2186
  183MOL0     O24618   7.095   1.747   4.911 -0.3538  0.4409  0.1477
  183MOL0     C24619   7.333   1.757   4.771 -0.7445 -0.7766 -0.7530
  183MOL0     C24620   7.452   1.739   4.705 -0.1067  0.0163  0.2816
  183MOL0     N24621   8.022   1.767   5.035 -0.7058 -0.2994 -0.2708
  183MOL0     N24622   8.033   1.822   5.153 -0.2914  0.3065 -0.1502
  183MOL0     C24623   9.201   1.730   5.583 -0.2823  0.5269  0.6709
  183MOL0     C24624   9.325   1.755   5.639  0.0541  0.8322 -0.4549
  183MOL0     C24625   9.698   2.026   5.723  0.1894 -0.7343 -0.7874
  183MOL0     C24626   9.774   2.125   5.658 -0.3009 -0.3759 -0.5212
  183MOL0     C24627   9.909   2.142   5.689  0.3054 -0.1015 -0.0310
  183MOL0     C24628   9.969   2.069   5.795  0.4733  0.5647  0.1914
  183MOL0     O24629  10.095   2.111   5.833  0.4361 -0.4523  0.4552
  183MOL0     C24630  10.189   2.005   5.821 -0.0490  0.2595  0.4770
  183MOL0     C24631  10.328   2.065   5.807  0.0411 -0.1716  0.1122
  183MOL0     C24632  10.427   1.956   5.804 -1.0332  0.0545 -0.0031
  183MOL0     C24633  10.407   1.838   5.712  0.1025  0.3735  0.1660
  183MOL0     C24634  10.394   1.894   5.574  1.3886 -0.6387  0.4193
  183MOL0     C24635  10.383   1.951   5.463 -0.3888  0.2323  0.3073
  183MOL0     C24636   9.886   1.982   5.867 -0.5095 -0.6831  0.1635
  183MOL0     C24637   9.755   1.952   5.834 -0.7298 -0.4118  0.1657
  183MOL0     H24638   9.266   2.075   5.733 -2.4984 -0.5717  0.6469
  183MOL0     H24639   9.048   2.016   5.642 -2.0194 -1.6270 -2.1935
  183MOL0     H24640   8.866   1.920   5.616  2.9093  3.0815 -0.9202
  183MOL0     H24641   8.910   1.963   5.463 -1.0120 -1.2241 -2.5695
  183MOL0     H24642   8.757   1.806   5.356 -1.9324  1.7570 -0.2877
  183MOL0     H24643   8.732   1.726   5.514 -1.7900 -0.6433 -2.4549
  183MOL0     H24644   8.630   1.900   5.612  0.0770  0.0150  0.0416
  183MOL0     H24645   8.644   2.012   5.467 -2.7209  0.0060 -1.5579
  183MOL0     H24646   8.520   1.803   5.363 -0.4632 -1.3151  1.4421
  183MOL0     H24647   8.471   1.787   5.523  0.2623 -0.2856 -1.3396
  183MOL0     H24648   8.386   2.030   5.530 -1.7558  0.2687  1.2143
  183MOL0     H24649   8.406   2.036   5.354 -0.6995  0.0089  1.0059
  183MOL0     H24650   8.280   1.830   5.323  0.7254 -2.0503  0.8261
  183MOL0     H24651   8.239   1.827   5.495 -3.4870 -0.2374 -1.0900
  183MOL0     H24652   8.046   1.939   5.434  0.7557 -2.8375  0.1585
  183MOL0     H24653   8.145   2.070   5.471 -2.7906  2.3508 -2.4105
  183MOL0     H24654   8.210   2.093   5.234 -0.0171  0.6249  0.5641
  183MOL0     H24655   8.036   2.112   5.259  1.5667  1.5677 -0.2113
  183MOL0     H24656   8.209   2.043   5.002 -1.1503  0.4362 -1.1357
  183MOL0     H24657   8.216   1.886   4.789 -0.1899  0.7237  1.8630
  183MOL0     H24658   8.171   1.719   4.789  1.8403  1.4343 -4.8809
  183MOL0     H24659   8.097   1.863   4.609 -1.3987 -1.5623 -0.3170
  183MOL0     H24660   7.987   1.950   4.706  0.0190 -0.1711 -0.7868
  183MOL0     H24661   7.972   1.645   4.681  2.6496  0.2887  1.3748
  183MOL0     H24662   7.891   1.757   4.562  2.1871 -1.0024 -0.6276
  183MOL0     H24663   7.797   1.858   4.800  0.3794  0.1176  0.1295
  183MOL0     H24664   7.814   1.697   4.844 -1.9487  0.4429  1.0255
  183MOL0     H24665   7.654   1.709   4.967 -0.9859 -1.7236 -0.1452
  183MOL0     H24666   7.541   1.721   5.175 -0.2684  2.4825  0.7020
  183MOL0     H24667   7.396   1.808   5.172  0.6649  1.5897 -3.0127
  183MOL0     H24668   7.386   1.628   5.152 -1.8754  0.9738 -0.2795
  183MOL0     H24669   7.052   1.707   5.232  0.3587  0.8207  1.8603
  183MOL0     H24670   6.812   1.736   5.317  0.9502 -0.3850 -0.0791
  183MOL0     H24671   6.594   2.101   5.126  3.1226 -0.4487 -1.9948
  183MOL0     H24672   6.571   1.953   5.029  2.9471  1.5735 -0.3835
  183MOL0     H24673   6.377   1.899   5.183  2.1782 -0.7238  3.1088
  183MOL0     H24674   6.418   2.035   5.291 -1.7283  1.3532  0.2217
  183MOL0     H24675   6.313   2.048   4.999  1.3294 -0.1485 -0.4517
  183MOL0     H24676   6.335   2.189   5.095 -2.5662 -0.4983 -0.7842
  183MOL0     H24677   6.149   1.964   5.183 -1.6665  1.6323 -0.5161
  183MOL0     H24678   6.188   2.108   5.274  0.8278  0.1951 -0.1492
  183MOL0     H24679   6.055   2.109   4.992  1.3009 -0.1412 -0.0483
  183MOL0     H24680   6.099   2.250   5.084  2.2053 -0.3769  0.3597
  183MOL0     H24681   5.856   2.071   5.128 -1.7914 -0.7316  3.8037
  183MOL0     H24682   5.935   2.105   5.266  1.5965 -1.4932 -0.9018
  183MOL0     H24683   5.839   2.305   5.061 -0.9055  0.2691  0.7527
  183MOL0     H24684   5.913   2.349   5.223  3.2819 -1.8112 -1.2325
  183MOL0     H24685   5.731   2.233   5.332  1.3117  0.1406 -0.1864
  183MOL0     H24686   5.664   2.185   5.172 -1.4408  1.2188 -1.2255
  183MOL0     H24687   6.798   2.115   5.100 -0.2263  0.1551  0.2421
  183MOL0     H24688   7.046   2.088   5.067  0.3960 -1.5039 -1.7275
  183MOL0     H24689   7.237   1.767   4.721  0.0160  1.5400 -1.8797
  183MOL0     H24690   7.448   1.735   4.596  4.1512 -1.3940  0.0039
  183MOL0     H24691   9.185   1.630   5.543  0.1476  0.8081 -0.2301
  183MOL0     H24692   9.398   1.675   5.638 -1.9590 -1.1203 -1.2409
  183MOL0     H24693   9.737   2.191   5.580 -0.7911  0.8355  0.7191
  183MOL0     H24694   9.972   2.212   5.635 -1.9736  1.6916 -0.5732
  183MOL0     H24695  10.183   1.927   5.898  1.5495 -2.9105 -2.3047
  183MOL0     H24696  10.155   1.952   5.732 -0.3643 -0.6720  1.1298
  183MOL0     H24697  10.348   2.126   5.896 -1.9664  1.5901 -0.5529
  183MOL0     H24698  10.340   2.133   5.722  1.8457  1.1858  1.3705
  183MOL0     H24699  10.436   1.917   5.906 -1.0805 -1.0247 -0.3963
  183MOL0     H24700  10.523   2.003   5.781 -0.9487 -0.7198 -1.2985
  183MOL0     H24701  10.311   1.789   5.731  0.0532  0.1968 -0.5217
  183MOL0     H24702  10.485   1.762   5.719 -0.3884 -0.0254  1.9034
  183MOL0     H24703  10.374   1.984   5.362  2.2369  1.6702  0.4547
  183MOL0     H24704   9.915   1.933   5.959 -1.1842 -0.7075  0.3711
  183MOL0     H24705   9.689   1.887   5.892 -1.5462 -1.2664 -1.6363
  184MOL0     O24706   8.585  11.071   6.749 -0.2886  0.7896  0.2035
  184MOL0     C24707   8.558  11.175   6.686  0.0558 -0.2938 -0.1023
  184MOL0     O24708   8.431  11.217   6.656 -0.4212  0.1064  1.1491
  184MOL0     C24709   8.331  11.122   6.656 -0.2352 -0.1196  0.1909
  184MOL0     C24710   8.202  11.165   6.668  0.5289  0.3310 -0.0175
  184MOL0     C24711   8.093  11.080   6.661 -0.4473 -1.2742  0.4931
  184MOL0     C24712   8.111  10.941   6.632 -0.0906 -0.1181 -0.1097
  184MOL0     O24713   8.006  10.864   6.599  0.1029  1.2364 -0.2012
  184MOL0     C24714   7.886  10.864   6.670 -0.0807  0.4699 -0.2305
  184MOL0     C24715   7.827  10.724   6.664 -0.1660 -0.1704  1.3019
  184MOL0     C24716   7.691  10.694   6.726  0.6252  0.2178 -0.2319
  184MOL0     C24717   7.704  10.644   6.869 -0.7629  0.6367 -0.2946
  184MOL0     C24718   7.573  10.616   6.937  0.0488  0.6615  0.7300
  184MOL0     C24719   7.475  10.731   6.950  0.2785  0.0514  0.0474
  184MOL0     C24720   7.384  10.683   7.065  0.6281 -1.2743  1.0494
  184MOL0     C24721   7.283  10.790   7.076 -0.3078  0.3739 -0.0105
  184MOL0     N24722   7.175  10.748   7.174 -1.1216  0.4212  0.4214
  184MOL0     C24723   7.180  10.690   7.302  0.0433 -0.5441  0.6338
  184MOL0     C24724   7.047  10.660   7.329 -1.2831  0.4314  0.5400
  184MOL0     C24725   7.005  10.604   7.462 -0.5218 -0.6235 -0.4521
  184MOL0     C24726   6.992  10.724   7.564 -0.6017 -0.1557 -0.5590
  184MOL0     C24727   6.842  10.751   7.595  0.0515  0.6499 -0.2525
  184MOL0     C24728   6.829  10.854   7.711 -0.0230 -0.2700  0.9572
  184MOL0     O24729   6.696  10.905   7.690  0.4384  0.3877  0.2213
  184MOL0     C24730   6.589  10.823   7.713 -0.2727 -0.4219 -0.4078
  184MOL0     C24731   6.575  10.743   7.828  0.3162  0.1625 -0.0939
  184MOL0     C24732   6.455  10.671   7.857  0.3573  0.1995  0.2326
  184MOL0     C24733   6.451  10.581   7.974 -0.3002 -1.2293  0.2080
  184MOL0     C24734   6.349  10.679   7.760 -1.0984 -0.4979  0.2841
  184MOL0     C24735   6.216  10.620   7.752 -0.0113 -0.1287 -0.3190
  184MOL0     O24736   6.128  10.655   7.659  0.1798 -0.0046 -0.6251
  184MOL0     C24737   5.997  10.609   7.667  0.3437 -0.0688  0.1718
  184MOL0     C24738   5.881  10.691   7.683  0.1533  0.5632  0.1014
  184MOL0     C24739   5.758  10.637   7.681  0.1393 -0.2792  0.3949
  184MOL0     C24740   5.734  10.500   7.653  0.4188 -0.2256  0.5502
  184MOL0     O24741   5.603  10.463   7.663 -0.6204 -0.4930  0.3942
  184MOL0     C24742   5.585  10.328   7.690  0.0390  0.8890  0.4836
  184MOL0     C24743   5.444  10.286   7.710 -0.1787  0.3056 -0.0045
  184MOL0     C24744   5.348  10.327   7.597  0.4905 -0.8294  0.3849
  184MOL0     C24745   5.210  10.277   7.627  0.6263 -0.6916 -0.3814
  184MOL0     C24746   5.111  10.334   7.535 -0.2864 -0.5161 -0.5312
  184MOL0     C24747   4.986  10.242   7.561  0.1680  0.5358 -0.3834
  184MOL0     C24748   4.864  10.287   7.477  0.5290 -0.0366  0.5428
  184MOL0     C24749   4.756  10.185   7.517 -0.7975 -0.9198  0.0001
  184MOL0    Cl24750   4.601  10.200   7.441  0.4013  0.0753 -0.1259
  184MOL0     C24751   5.849  10.424   7.616  0.0017  0.1806  0.6357
  184MOL0     C24752   5.973  10.474   7.631 -0.3925  0.4419 -0.0052
  184MOL0     O24753   6.188  10.538   7.839 -0.3242 -0.2311  0.3584
  184MOL0     C24754   6.363  10.764   7.645 -0.9873  0.6854 -1.3215
  184MOL0     C24755   6.487  10.830   7.621  0.1138 -0.0580 -0.0738
  184MOL0     N24756   6.971  10.697   7.214 -0.0979 -0.4324 -0.0890
  184MOL0     N24757   7.052  10.746   7.122  1.0224  0.6074  0.5732
  184MOL0     C24758   8.241  10.889   6.618  0.5560 -0.9508 -0.3053
  184MOL0     C24759   8.352  10.984   6.626 -0.7009  0.5965 -0.1497
  184MOL0     C24760   8.670  11.262   6.645 -0.0836 -0.2407  1.3328
  184MOL0     C24761   8.803  11.221   6.673  0.1059 -0.3491 -0.0113
  184MOL0     C24762   8.913  11.302   6.655  0.2738  0.4816  0.5697
  184MOL0     C24763   8.895  11.428   6.594 -0.3727 -0.2884 -0.2989
  184MOL0     O24764   9.004  11.513   6.569  0.3459 -0.4244 -0.7509
  184MOL0     C24765   9.121  11.461   6.510  0.4542 -0.2820  0.0886
  184MOL0     C24766   9.231  11.553   6.550  0.3208  0.1336 -0.7949
  184MOL0     C24767   9.361  11.483   6.521 -0.0023 -0.4251  0.0166
  184MOL0     C24768   9.467  11.578   6.580  0.2499  0.3162 -1.1302
  184MOL0     C24769   9.484  11.702   6.510  0.4683  0.3786 -0.0645
  184MOL0     C24770   9.509  11.801   6.446  0.4663  0.2639  0.6617
  184MOL0     C24771   8.770  11.472   6.556  0.3975  0.1081  0.1257
  184MOL0     C24772   8.663  11.387   6.582  0.7731 -0.3874  0.5253
  184MOL0     H24773   8.196  11.268   6.702  0.0015 -0.1137  1.3303
  184MOL0     H24774   7.991  11.114   6.654 -0.3261 -1.1519 -1.0510
  184MOL0     H24775   7.905  10.890   6.775  2.2384  1.5504 -0.8352
  184MOL0     H24776   7.819  10.940   6.630 -1.1427  0.3832  1.2955
  184MOL0     H24777   7.817  10.698   6.558  2.5008  3.3205  0.0046
  184MOL0     H24778   7.903  10.652   6.697  1.2050 -0.3772 -1.9183
  184MOL0     H24779   7.616  10.773   6.719 -1.4956 -1.3006  2.8194
  184MOL0     H24780   7.647  10.606   6.676 -0.7387  0.8901 -0.2596
  184MOL0     H24781   7.778  10.563   6.872  0.7263  1.9296  3.0788
  184MOL0     H24782   7.756  10.718   6.931  4.3350 -2.1699 -0.7189
  184MOL0     H24783   7.525  10.541   6.875  0.3958  2.8739 -2.4791
  184MOL0     H24784   7.607  10.584   7.036  0.3111  2.0069  1.1068
  184MOL0     H24785   7.519  10.822   6.990 -1.1930 -0.8923  4.3592
  184MOL0     H24786   7.425  10.761   6.857  0.3250  1.4627  0.4636
  184MOL0     H24787   7.328  10.593   7.036 -0.2116 -0.7701  1.0999
  184MOL0     H24788   7.440  10.662   7.157 -1.3664 -0.0784  2.6295
  184MOL0     H24789   7.233  10.816   6.982  1.5396  0.8519 -0.8989
  184MOL0     H24790   7.328  10.885   7.107 -1.6331  1.4086 -1.0948
  184MOL0     H24791   7.260  10.677   7.374  0.1639  2.6912  1.2510
  184MOL0     H24792   6.909  10.553   7.464 -0.9326  0.1197 -0.8624
  184MOL0     H24793   7.093  10.552   7.502 -0.3674  0.7615  1.1203
  184MOL0     H24794   7.031  10.817   7.521 -2.6085  1.0847  0.1464
  184MOL0     H24795   7.043  10.710   7.660  0.1079  3.0667 -0.3297
  184MOL0     H24796   6.797  10.654   7.619  1.6369  0.0631  0.5421
  184MOL0     H24797   6.792  10.795   7.509  0.0117  0.8024 -0.1512
  184MOL0     H24798   6.894  10.939   7.691 -0.2866 -0.0680  0.9583
  184MOL0     H24799   6.855  10.799   7.802 -1.1481 -1.4306  0.6109
  184MOL0     H24800   6.660  10.731   7.895 -2.5359 -0.5959  3.7215
  184MOL0     H24801   6.515  10.496   7.950  2.7826  1.1622 -0.6634
  184MOL0     H24802   6.504  10.632   8.055 -0.2052  2.8034 -2.1032
  184MOL0     H24803   6.352  10.549   8.009 -1.1536  0.9533 -0.0197
  184MOL0     H24804   5.902  10.795   7.707 -0.6439  0.8145 -0.2467
  184MOL0     H24805   5.676  10.707   7.696 -0.1451 -0.0662 -1.8172
  184MOL0     H24806   5.636  10.270   7.612  0.2080  1.6880 -0.0187
  184MOL0     H24807   5.632  10.301   7.785  1.2754  0.0684 -0.3292
  184MOL0     H24808   5.448  10.177   7.718 -1.4056  0.3389  1.4981
  184MOL0     H24809   5.411  10.337   7.801 -0.9184 -0.0082 -0.0951
  184MOL0     H24810   5.378  10.275   7.505 -1.4647  0.8937 -1.3415
  184MOL0     H24811   5.358  10.435   7.581 -0.8377 -1.0149 -2.3425
  184MOL0     H24812   5.218  10.168   7.624  1.5543 -1.0176  4.7210
  184MOL0     H24813   5.178  10.301   7.729 -0.7070  0.6280 -1.0609
  184MOL0     H24814   5.147  10.324   7.432  1.2196 -0.0323 -0.0860
  184MOL0     H24815   5.094  10.439   7.560 -0.4758 -0.0743 -2.4162
  184MOL0     H24816   5.007  10.136   7.541 -0.3429  0.8706 -3.1941
  184MOL0     H24817   4.958  10.250   7.666 -2.2975  0.9761 -1.0023
  184MOL0     H24818   4.874  10.291   7.368 -2.2861  1.1416  0.2431
  184MOL0     H24819   4.834  10.385   7.513  0.7862 -0.4205  1.8613
  184MOL0     H24820   4.748  10.201   7.625 -1.6932  0.3538 -0.2275
  184MOL0     H24821   4.806  10.091   7.494  1.2262  0.1287 -0.0753
  184MOL0     H24822   5.834  10.327   7.569 -2.4999  1.3399 -1.2324
  184MOL0     H24823   6.057  10.413   7.599 -1.8897 -0.5404 -2.3112
  184MOL0     H24824   6.294  10.762   7.562  1.7636 -1.8513 -3.7883
  184MOL0     H24825   6.503  10.882   7.528 -2.0498  1.5164  0.3534
  184MOL0     H24826   8.255  10.783   6.597  0.0555 -2.0532  4.0050
  184MOL0     H24827   8.446  10.932   6.611 -2.3067 -2.7122  0.2184
  184MOL0     H24828   8.823  11.130   6.729  0.2379  0.2083  0.8543
  184MOL0     H24829   9.013  11.265   6.670 -0.6337 -1.9042  1.2051
  184MOL0     H24830   9.143  11.362   6.553  0.4146  0.2695  1.4260
  184MOL0     H24831   9.118  11.457   6.401  2.4726 -0.8450  0.0220
  184MOL0     H24832   9.219  11.574   6.657 -0.6194  0.3122 -0.9272
  184MOL0     H24833   9.225  11.652   6.505 -1.5495  0.9844  1.1304
  184MOL0     H24834   9.359  11.462   6.413 -1.5094 -1.5703  0.2199
  184MOL0     H24835   9.368  11.381   6.559 -1.0565 -1.2066 -1.7423
  184MOL0     H24836   9.563  11.526   6.578  0.0477 -0.2428  1.3043
  184MOL0     H24837   9.442  11.603   6.683  1.9379 -3.7858  0.4587
  184MOL0     H24838   9.530  11.868   6.365  1.4342 -1.4968 -0.6188
  184MOL0     H24839   8.759  11.572   6.515 -0.5016 -0.9384 -2.3604
  184MOL0     H24840   8.562  11.415   6.553  0.6584 -1.2676  0.0340
  185MOL0     O24841   3.146   2.683   0.005  0.2210  0.5117  0.4396
  185MOL0     C24842   3.267   2.698   0.040  0.5836 -0.8741  0.2862
  185MOL0     O24843   3.298   2.774   0.150  0.4501  0.4335 -0.0296
  185MOL0     C24844   3.196   2.818   0.225 -0.1637  0.1030 -1.2518
  185MOL0     C24845   3.126   2.731   0.308 -0.9186 -0.7027 -0.0781
  185MOL0     C24846   3.020   2.779   0.389  0.1743  0.1083 -0.9259
  185MOL0     C24847   2.972   2.914   0.380  0.1876  0.0484  0.5643
  185MOL0     O24848   2.855   2.955   0.444  0.5214 -0.0528  0.1106
  185MOL0     C24849   2.740   2.969   0.355 -0.3579 -0.1124 -0.0582
  185MOL0     C24850   2.623   3.034   0.423  0.2108  0.3551 -0.2109
  185MOL0     C24851   2.515   3.110   0.334  0.8345  0.0512 -0.6147
  185MOL0     C24852   2.427   3.203   0.414 -0.0653 -0.1228  0.6105
  185MOL0     C24853   2.284   3.196   0.345 -0.2814 -0.3414  0.3979
  185MOL0     C24854   2.200   3.066   0.380 -0.3494  0.1268  0.3562
  185MOL0     C24855   2.054   3.076   0.321  0.0940  0.0184 -0.5052
  185MOL0     C24856   1.958   2.947   0.337 -0.9645 -0.6650 -0.3351
  185MOL0     N24857   1.854   2.964   0.439 -0.4720 -0.2898 -0.0615
  185MOL0     C24858   1.748   3.048   0.439  1.0408  0.3438  0.5945
  185MOL0     C24859   1.660   2.996   0.535 -0.2018  0.3136  0.7081
  185MOL0     C24860   1.509   3.026   0.557 -0.2631 -0.2210  0.7016
  185MOL0     C24861   1.427   2.902   0.558  0.2279  0.3337  0.5507
  185MOL0     C24862   1.278   2.933   0.564  0.6487 -0.3868 -0.9682
  185MOL0     C24863   1.185   2.814   0.543 -0.8151  0.3052  0.2128
  185MOL0     O24864   1.065   2.886   0.538  0.3268  0.2091  0.8414
  185MOL0     C24865   0.949   2.814   0.571 -0.4341 -0.7371  0.9157
  185MOL0     C24866   0.913   2.685   0.533  0.4416  0.7273 -0.1892
  185MOL0     C24867   0.782   2.628   0.565 -1.2569 -0.2391  0.5489
  185MOL0     C24868   0.759   2.479   0.544  0.0579  0.1662  0.0516
  185MOL0     C24869   0.681   2.705   0.631  0.4774 -1.4771 -0.1877
  185MOL0     C24870   0.538   2.667   0.654  1.1536  0.5488 -0.3332
  185MOL0     O24871   0.490   2.548   0.622 -0.3357  0.3784  0.2136
  185MOL0     C24872   0.416   2.491   0.721 -0.3607 -0.0301  0.0327
  185MOL0     C24873   0.280   2.470   0.690 -1.0588  0.2795  0.0952
  185MOL0     C24874   0.193   2.413   0.785  0.3946  0.0901  0.2606
  185MOL0     C24875   0.243   2.367   0.903  0.3981  0.7170  0.0976
  185MOL0     O24876   0.145   2.310   0.981 -0.2865 -0.4213 -0.1094
  185MOL0     C24877   0.192   2.218   1.077  0.3981 -0.2057  0.5278
  185MOL0     C24878   0.069   2.152   1.134  0.5309  0.5501  0.1817
  185MOL0     C24879   0.042   2.214   1.270  0.0097 -0.1684 -0.7223
  185MOL0     C24880  -0.096   2.173   1.324 -0.5273 -0.7475 -0.5812
  185MOL0     C24881  -0.125   2.217   1.469  1.1371 -0.1862  0.4186
  185MOL0     C24882  -0.240   2.150   1.534 -0.2756  0.0512  0.6009
  185MOL0     C24883  -0.279   2.198   1.669 -0.3494  0.5173  0.3405
  185MOL0     C24884  -0.401   2.118   1.716  0.0493 -0.3823  0.3696
  185MOL0    Cl24885  -0.547   2.180   1.643  0.2512 -0.3843 -0.2209
  185MOL0     C24886   0.383   2.371   0.926  0.2660 -0.1856 -0.9108
  185MOL0     C24887   0.468   2.435   0.839  0.4257  0.2411  0.3946
  185MOL0     O24888   0.469   2.760   0.694  0.5683  0.8702 -0.0315
  185MOL0     C24889   0.724   2.841   0.669 -0.1775  0.1646  0.0298
  185MOL0     C24890   0.857   2.883   0.639  0.5006  0.0592 -0.0219
  185MOL0     N24891   1.728   2.900   0.604  0.3904  0.2269 -0.6703
  185MOL0     N24892   1.848   2.888   0.550  0.4587  0.0621  0.8232
  185MOL0     C24893   3.036   3.000   0.292 -0.0806  0.3657  0.3350
  185MOL0     C24894   3.146   2.949   0.212 -0.3227 -0.0974  0.0216
  185MOL0     C24895   3.373   2.650  -0.049 -0.1943 -0.1169  0.1026
  185MOL0     C24896   3.510   2.654  -0.018 -0.0202  0.9379 -0.5418
  185MOL0     C24897   3.606   2.617  -0.113 -0.2048  0.4801 -0.5181
  185MOL0     C24898   3.569   2.583  -0.241 -0.2888 -0.0126 -0.5598
  185MOL0     O24899   3.662   2.548  -0.328 -0.0956 -0.0135 -0.0396
  185MOL0     C24900   3.737   2.650  -0.396  0.4363  0.8226  0.6085
  185MOL0     C24901   3.885   2.638  -0.369 -0.1664 -0.7945 -0.0627
  185MOL0     C24902   3.967   2.741  -0.445 -0.0704 -0.3064 -0.1224
  185MOL0     C24903   4.113   2.724  -0.415  0.5320 -0.1246 -0.1980
  185MOL0     C24904   4.195   2.694  -0.531 -0.2609  0.2167  0.3966
  185MOL0     C24905   4.252   2.671  -0.634 -0.1934 -0.4510 -0.5812
  185MOL0     C24906   3.438   2.587  -0.276  0.1513 -0.1977 -0.5336
  185MOL0     C24907   3.335   2.611  -0.177  0.3419 -0.6863 -0.3849
  185MOL0     H24908   3.162   2.629   0.318  0.3140 -0.0858  2.4838
  185MOL0     H24909   2.969   2.703   0.448  1.7111 -1.3875 -1.4282
  185MOL0     H24910   2.766   3.031   0.269 -0.9477 -1.6800 -1.4262
  185MOL0     H24911   2.710   2.869   0.320 -2.4135  0.3807  0.1500
  185MOL0     H24912   2.559   2.968   0.483 -1.0026  0.2945 -1.5325
  185MOL0     H24913   2.660   3.102   0.501  1.5942 -0.2459 -0.3258
  185MOL0     H24914   2.559   3.160   0.248  1.8697 -1.3040 -0.9098
  185MOL0     H24915   2.449   3.035   0.288  0.3647  0.9513 -1.4371
  185MOL0     H24916   2.419   3.170   0.518 -2.4667 -2.5347 -0.2213
  185MOL0     H24917   2.460   3.307   0.421  1.4496 -0.4332 -1.0598
  185MOL0     H24918   2.237   3.286   0.386  1.9456  0.4530  1.3857
  185MOL0     H24919   2.287   3.207   0.236 -0.4582 -3.0547  0.0382
  185MOL0     H24920   2.254   2.988   0.327  2.1984  1.5405  0.7223
  185MOL0     H24921   2.194   3.043   0.486  0.0943  0.1227  0.3805
  185MOL0     H24922   2.009   3.170   0.354  0.0362 -0.5563  1.1919
  185MOL0     H24923   2.062   3.088   0.213 -1.9125  0.8785 -0.5941
  185MOL0     H24924   2.016   2.856   0.357 -1.6371 -2.0812 -3.9917
  185MOL0     H24925   1.893   2.933   0.249  0.8531  0.5484 -1.9493
  185MOL0     H24926   1.722   3.120   0.363  0.2793  0.2481  0.7582
  185MOL0     H24927   1.501   3.079   0.652 -0.7748  2.7213 -0.8819
  185MOL0     H24928   1.470   3.094   0.481 -1.0846 -0.2611  1.0783
  185MOL0     H24929   1.457   2.839   0.642 -0.0437 -1.7267 -0.8235
  185MOL0     H24930   1.454   2.851   0.465  2.2419  0.2058  1.1493
  185MOL0     H24931   1.253   3.003   0.483 -1.2860 -1.3760 -1.3044
  185MOL0     H24932   1.251   2.970   0.663  1.1335 -0.9730 -0.6075
  185MOL0     H24933   1.181   2.741   0.624  0.0716  2.5535  2.4187
  185MOL0     H24934   1.189   2.769   0.443 -0.6371  0.4258  0.1670
  185MOL0     H24935   0.975   2.620   0.473  0.1816  0.7936 -0.5303
  185MOL0     H24936   0.701   2.450   0.632  0.6249  1.0551  0.7333
  185MOL0     H24937   0.698   2.471   0.454  0.5202  0.4349 -0.2868
  185MOL0     H24938   0.848   2.416   0.538  0.2604  0.4434  0.0952
  185MOL0     H24939   0.243   2.502   0.593 -1.2554  0.4488  0.2239
  185MOL0     H24940   0.090   2.400   0.754  0.7860  0.4102 -1.2360
  185MOL0     H24941   0.252   2.138   1.034  0.3320  0.5444 -1.0211
  185MOL0     H24942   0.255   2.264   1.154  0.3020 -2.3866  2.0057
  185MOL0     H24943  -0.018   2.147   1.068 -0.6802 -1.9482  1.8131
  185MOL0     H24944   0.107   2.051   1.154  1.5785  0.7277 -0.8074
  185MOL0     H24945   0.046   2.322   1.258 -1.0214  0.1115  1.0123
  185MOL0     H24946   0.119   2.183   1.341  0.9301  0.0592 -1.6050
  185MOL0     H24947  -0.180   2.204   1.261  0.6891 -0.0266 -1.9026
  185MOL0     H24948  -0.099   2.064   1.330  0.9920 -0.8253 -0.7611
  185MOL0     H24949  -0.143   2.325   1.471 -0.9410 -0.5062  0.8079
  185MOL0     H24950  -0.033   2.197   1.525  1.0459  0.7033  0.8984
  185MOL0     H24951  -0.321   2.174   1.464 -0.2230 -3.3715 -0.8233
  185MOL0     H24952  -0.240   2.041   1.528  1.9765 -0.0569  1.4994
  185MOL0     H24953  -0.303   2.305   1.667  0.4890  0.8421  3.1297
  185MOL0     H24954  -0.198   2.176   1.739  0.0830  1.3098  0.1089
  185MOL0     H24955  -0.405   2.135   1.824 -0.1048  0.8893  0.1797
  185MOL0     H24956  -0.392   2.011   1.693 -0.4751 -0.8661  2.2671
  185MOL0     H24957   0.422   2.340   1.023  0.9517  2.0913 -0.3910
  185MOL0     H24958   0.572   2.448   0.870  0.8617 -0.9284 -0.4928
  185MOL0     H24959   0.660   2.897   0.736  1.4673  0.2989  1.5652
  185MOL0     H24960   0.894   2.982   0.666  1.9890  0.0231 -1.7284
  185MOL0     H24961   2.994   3.099   0.277 -1.2926  0.6408  4.4061
  185MOL0     H24962   3.204   3.002   0.137  0.0286  0.4917  0.6944
  185MOL0     H24963   3.540   2.690   0.080 -0.9707 -0.5801  0.3445
  185MOL0     H24964   3.712   2.623  -0.093  0.1468 -3.4122 -0.4689
  185MOL0     H24965   3.722   2.656  -0.504  0.2110  2.3118  0.7003
  185MOL0     H24966   3.694   2.743  -0.358  1.9484  1.6423  0.3887
  185MOL0     H24967   3.911   2.536  -0.398 -0.4547 -0.4645 -1.5535
  185MOL0     H24968   3.912   2.645  -0.263  1.2522 -0.1378 -0.4470
  185MOL0     H24969   3.927   2.839  -0.417 -0.1374 -0.5971  0.8310
  185MOL0     H24970   3.953   2.725  -0.552  2.0108  2.1179 -0.8600
  185MOL0     H24971   4.111   2.636  -0.349 -2.4790  1.0407  1.4661
  185MOL0     H24972   4.152   2.813  -0.365 -0.8887  1.3064 -1.5721
  185MOL0     H24973   4.325   2.668  -0.713  0.0079  0.4845 -0.4503
  185MOL0     H24974   3.416   2.574  -0.381  0.9302  0.6617 -0.8197
  185MOL0     H24975   3.230   2.612  -0.203 -0.4106  0.8025  2.3400
  186MOL0     O24976   8.683   3.265   2.350  0.0942 -0.3052  0.2859
  186MOL0     C24977   8.698   3.152   2.308 -0.5289 -0.6985  0.3367
  186MOL0     O24978   8.819   3.097   2.276  0.1246 -0.0479 -0.2949
  186MOL0     C24979   8.944   3.162   2.283  0.4817  0.6472  0.6000
  186MOL0     C24980   9.047   3.070   2.275 -0.3681 -0.1219 -0.2271
  186MOL0     C24981   9.179   3.109   2.289 -0.3061  0.4496 -0.1848
  186MOL0     C24982   9.210   3.243   2.314 -0.6637 -0.2706 -0.5708
  186MOL0     O24983   9.345   3.282   2.309  0.1958 -0.5237  0.0271
  186MOL0     C24984   9.396   3.378   2.403 -0.4847 -0.2742 -0.3715
  186MOL0     C24985   9.547   3.399   2.371  0.6180  1.2208 -1.0088
  186MOL0     C24986   9.617   3.505   2.468 -0.4170  0.4300  0.7792
  186MOL0     C24987   9.759   3.498   2.423  0.0319  0.5498 -0.0975
  186MOL0     C24988   9.832   3.619   2.479 -0.2364 -0.2974  0.7750
  186MOL0     C24989   9.980   3.619   2.434 -0.5320 -0.0159 -0.8069
  186MOL0     C24990  10.064   3.740   2.480 -0.9590 -0.0208 -0.1920
  186MOL0     C24991  10.184   3.758   2.392 -0.3074 -0.0676  0.4852
  186MOL0     N24992  10.162   3.806   2.257 -0.3081  0.4929  0.0781
  186MOL0     C24993  10.129   3.934   2.227 -0.9068 -0.7300 -0.2363
  186MOL0     C24994  10.143   3.945   2.088  0.5174  0.1769 -0.1043
  186MOL0     C24995  10.109   4.059   2.010 -0.1883  0.0004  0.2113
  186MOL0     C24996   9.957   4.066   1.973  0.0818  0.4668 -0.9041
  186MOL0     C24997   9.910   4.185   1.891  0.1089 -0.1664 -0.3821
  186MOL0     C24998   9.762   4.190   1.854 -0.1166  0.0912  0.6265
  186MOL0     O24999   9.699   4.223   1.979  0.0200  0.6634  0.2410
  186MOL0     C25000   9.559   4.214   1.980 -0.3001 -1.1119  0.6320
  186MOL0     C25001   9.507   4.228   2.101  0.4718  0.0985 -1.6875
  186MOL0     C25002   9.371   4.211   2.135  0.1805 -0.5390 -0.0873
  186MOL0     C25003   9.321   4.213   2.278 -0.8388 -0.6865  0.4828
  186MOL0     C25004   9.281   4.205   2.026  0.1958 -0.1189  0.0038
  186MOL0     C25005   9.131   4.197   2.038  0.6616 -0.7189 -1.3556
  186MOL0     O25006   9.065   4.160   1.931 -0.9567 -0.2618 -0.3114
  186MOL0     C25007   8.930   4.145   1.936  0.7455 -0.1626  0.7581
  186MOL0     C25008   8.869   4.024   1.967  0.8156 -1.6126  0.3942
  186MOL0     C25009   8.735   4.010   1.968  0.0425  0.3397 -0.7952
  186MOL0     C25010   8.656   4.108   1.905  0.9157  0.3905  0.2849
  186MOL0     O25011   8.522   4.091   1.881 -0.3162  0.0996  0.0916
  186MOL0     C25012   8.480   3.980   1.806 -0.3840 -0.1372  0.1200
  186MOL0     C25013   8.360   4.011   1.726 -0.5088  0.7400  0.0915
  186MOL0     C25014   8.282   3.890   1.685 -0.3838  0.0555 -0.3156
  186MOL0     C25015   8.178   3.928   1.580  0.0551  0.4472  0.4807
  186MOL0     C25016   8.076   3.817   1.544 -0.2279  0.1832  0.2226
  186MOL0     C25017   7.955   3.883   1.471  0.2927  0.1433  0.2323
  186MOL0     C25018   7.849   3.778   1.444 -0.6016 -0.6082  0.4450
  186MOL0     C25019   7.736   3.820   1.345  0.1676  0.1549  0.6634
  186MOL0    Cl25020   7.781   3.799   1.166 -0.7840 -0.3726  0.2220
  186MOL0     C25021   8.709   4.229   1.861  0.4597 -0.4761  0.2183
  186MOL0     C25022   8.847   4.239   1.875  0.0135  0.0359  0.1867
  186MOL0     O25023   9.077   4.241   2.139  0.1422 -0.6834  0.0820
  186MOL0     C25024   9.329   4.195   1.895  0.1753 -0.4152 -0.7964
  186MOL0     C25025   9.469   4.206   1.871 -0.4401  0.5474  0.0926
  186MOL0     N25026  10.187   3.824   2.036  0.4623  0.3460 -0.1714
  186MOL0     N25027  10.196   3.742   2.137  0.2260  1.0251 -0.4420
  186MOL0     C25028   9.106   3.332   2.324 -0.4204  0.8952 -0.1148
  186MOL0     C25029   8.969   3.296   2.310  0.0322 -0.1144  0.1526
  186MOL0     C25030   8.579   3.078   2.279 -0.5971  0.3640 -0.3211
  186MOL0     C25031   8.455   3.116   2.339  0.3074 -0.3989 -0.8338
  186MOL0     C25032   8.345   3.037   2.319  0.1079  0.2006  0.3322
  186MOL0     C25033   8.353   2.922   2.233  0.4577 -0.7413 -0.4638
  186MOL0     O25034   8.239   2.854   2.201 -0.2475  0.7221 -0.2589
  186MOL0     C25035   8.254   2.730   2.127  0.2220  1.3666  0.6520
  186MOL0     C25036   8.130   2.640   2.128  0.2661  0.2863  0.4537
  186MOL0     C25037   8.103   2.575   2.261  0.3894 -0.7376 -0.5620
  186MOL0     C25038   7.995   2.468   2.254 -0.0646  0.4752 -0.4993
  186MOL0     C25039   7.859   2.516   2.234 -0.3718  0.2611  0.0684
  186MOL0     C25040   7.741   2.543   2.227 -0.9846 -0.2664 -0.0401
  186MOL0     C25041   8.472   2.887   2.177  0.3249  0.2478 -0.1453
  186MOL0     C25042   8.586   2.964   2.203  0.3321  1.0689  0.2113
  186MOL0     H25043   9.024   2.966   2.252  1.8718 -0.5231 -0.8669
  186MOL0     H25044   9.249   3.028   2.270  0.5343  0.4279  2.5570
  186MOL0     H25045   9.343   3.474   2.409 -1.3511 -0.8081  1.2349
  186MOL0     H25046   9.392   3.331   2.502  4.2776 -1.9190 -0.6944
  186MOL0     H25047   9.599   3.305   2.388  0.4666  1.4061  0.7025
  186MOL0     H25048   9.557   3.424   2.265  0.5895  1.7327 -0.8958
  186MOL0     H25049   9.582   3.606   2.442 -1.0924 -0.1126 -0.5450
  186MOL0     H25050   9.597   3.479   2.572 -0.0811 -0.5290  0.6129
  186MOL0     H25051   9.810   3.405   2.450  3.2945  2.1055 -0.4417
  186MOL0     H25052   9.767   3.508   2.314  1.1083 -0.9704 -0.1803
  186MOL0     H25053   9.786   3.714   2.448  0.6125 -0.0235  0.3165
  186MOL0     H25054   9.830   3.618   2.588 -2.2972 -3.5853  0.8182
  186MOL0     H25055  10.025   3.529   2.475  0.8268  1.6975  1.6630
  186MOL0     H25056   9.982   3.600   2.326 -0.2943  1.8337 -1.1610
  186MOL0     H25057   9.998   3.828   2.476 -1.1418 -0.1938 -1.1229
  186MOL0     H25058  10.104   3.722   2.581  0.1584 -1.4350 -0.8499
  186MOL0     H25059  10.240   3.664   2.392 -0.7191 -0.3316  1.4251
  186MOL0     H25060  10.257   3.826   2.437  2.2087 -0.3088 -2.9051
  186MOL0     H25061  10.109   4.012   2.300 -0.2989 -0.9959  0.2236
  186MOL0     H25062  10.137   4.141   2.077  1.0028 -0.7692  0.6839
  186MOL0     H25063  10.171   4.073   1.921  0.3295 -1.2122  0.3603
  186MOL0     H25064   9.898   4.058   2.065  1.8338  0.6072  0.2586
  186MOL0     H25065   9.930   3.985   1.904  0.4501 -0.3346 -0.1169
  186MOL0     H25066   9.965   4.178   1.797  0.4842 -0.9797 -0.1069
  186MOL0     H25067   9.936   4.283   1.933  0.9225 -0.6837  0.3274
  186MOL0     H25068   9.730   4.091   1.818  3.6104 -1.6411  1.5993
  186MOL0     H25069   9.737   4.269   1.783 -0.7518  0.1896  0.9475
  186MOL0     H25070   9.577   4.228   2.184 -0.9843 -3.3860 -0.2902
  186MOL0     H25071   9.275   4.309   2.302  1.4175  0.2875  1.1948
  186MOL0     H25072   9.248   4.134   2.298 -0.7296 -1.3835 -1.5714
  186MOL0     H25073   9.401   4.210   2.353 -0.3494  3.9208  0.4373
  186MOL0     H25074   8.939   3.946   1.994 -0.9750 -3.4469  0.0168
  186MOL0     H25075   8.693   3.920   2.010 -1.6426  1.7784  0.7511
  186MOL0     H25076   8.556   3.943   1.737  1.2189 -0.4291  1.9381
  186MOL0     H25077   8.452   3.901   1.878  1.9138 -0.3287  0.9019
  186MOL0     H25078   8.289   4.055   1.798  0.2453 -0.1619  1.4175
  186MOL0     H25079   8.377   4.078   1.642 -0.3253 -0.3234 -0.7286
  186MOL0     H25080   8.242   3.835   1.770  2.4232 -0.6963  0.6411
  186MOL0     H25081   8.342   3.809   1.643 -2.1369 -1.7492  0.4876
  186MOL0     H25082   8.113   4.009   1.614 -1.0068 -0.0778 -0.2657
  186MOL0     H25083   8.235   3.962   1.494 -1.0206  2.0366  0.3573
  186MOL0     H25084   8.043   3.771   1.638  1.4242 -1.2658  0.1450
  186MOL0     H25085   8.130   3.745   1.483  2.3864  1.6730  0.6059
  186MOL0     H25086   7.908   3.953   1.541  1.4439  0.4751  0.7085
  186MOL0     H25087   7.987   3.935   1.380 -2.8261 -3.8702 -3.5953
  186MOL0     H25088   7.803   3.757   1.541  0.2577 -1.5886  0.6511
  186MOL0     H25089   7.903   3.690   1.408 -0.4837 -0.9925  1.5442
  186MOL0     H25090   7.712   3.925   1.366 -0.3370  0.1458  0.1615
  186MOL0     H25091   7.641   3.770   1.363  0.9212 -0.7232  2.3907
  186MOL0     H25092   8.651   4.306   1.812 -0.9472 -0.1940  2.2116
  186MOL0     H25093   8.907   4.326   1.852 -2.1174  1.3303 -0.6662
  186MOL0     H25094   9.265   4.196   1.807  0.6096 -1.7306 -1.1383
  186MOL0     H25095   9.508   4.197   1.771 -0.9715  0.0501 -0.0743
  186MOL0     H25096   9.131   3.437   2.335  0.8663  0.6719 -0.7018
  186MOL0     H25097   8.903   3.381   2.326 -1.0062 -0.8027 -0.3673
  186MOL0     H25098   8.456   3.203   2.404  1.5244 -1.4556  0.6194
  186MOL0     H25099   8.247   3.077   2.338 -0.5180 -1.0635 -0.1125
  186MOL0     H25100   8.285   2.747   2.023  0.6568  0.1326  0.5648
  186MOL0     H25101   8.333   2.668   2.168 -0.3803 -0.7917 -1.2398
  186MOL0     H25102   8.137   2.561   2.053 -2.4722  2.0211 -1.8623
  186MOL0     H25103   8.051   2.705   2.090  3.1936  2.3013 -2.8467
  186MOL0     H25104   8.075   2.648   2.338  0.0229 -0.9509 -0.4853
  186MOL0     H25105   8.201   2.545   2.298 -0.3364  1.0558  3.3088
  186MOL0     H25106   7.998   2.411   2.347  0.5630 -1.1312 -1.4469
  186MOL0     H25107   8.019   2.392   2.179  0.3423  0.5612 -0.4606
  186MOL0     H25108   7.635   2.543   2.210 -0.9017 -0.5964 -0.5760
  186MOL0     H25109   8.494   2.800   2.116 -0.7279 -1.2895  1.5543
  186MOL0     H25110   8.678   2.935   2.154 -0.1189 -1.8810  0.9578
  187MOL0     O25111   9.533   2.507   9.925  0.2904 -0.2151  0.1851
  187MOL0     C25112   9.529   2.562  10.036  0.1472 -0.4214  0.2962
  187MOL0     O25113   9.422   2.623  10.086  0.3852  0.5378 -0.1712
  187MOL0     C25114   9.288   2.596  10.060  0.0594  0.0653 -0.1875
  187MOL0     C25115   9.192   2.641  10.152 -0.4332 -0.1629  0.7270
  187MOL0     C25116   9.057   2.627  10.126  0.4002  0.1009 -0.1992
  187MOL0     C25117   9.010   2.557  10.019  0.7317 -0.2374 -0.3121
  187MOL0     O25118   8.874   2.547   9.996  0.1647 -0.0398 -0.1084
  187MOL0     C25119   8.776   2.645  10.045 -0.2569  0.5944 -0.7786
  187MOL0     C25120   8.654   2.617   9.965  0.3627 -0.3882 -0.8601
  187MOL0     C25121   8.662   2.690   9.838  0.1459  0.1765  0.0265
  187MOL0     C25122   8.534   2.660   9.754 -0.2561 -0.7025 -0.3736
  187MOL0     C25123   8.409   2.714   9.822 -0.1960 -1.4496 -0.5406
  187MOL0     C25124   8.308   2.748   9.713 -0.1466  0.5073 -0.3103
  187MOL0     C25125   8.169   2.779   9.765 -0.0344  0.0036  0.4775
  187MOL0     C25126   8.100   2.875   9.672  0.3025  0.0223  0.5711
  187MOL0     N25127   7.958   2.897   9.692 -0.1131  0.2378  0.9342
  187MOL0     C25128   7.910   2.985   9.783 -0.6743  0.3740 -0.3136
  187MOL0     C25129   7.774   2.986   9.753 -0.8714 -0.5541 -0.2792
  187MOL0     C25130   7.685   3.073   9.833 -0.4453 -0.4515 -0.7900
  187MOL0     C25131   7.536   3.038   9.799 -0.2007  0.5995 -0.0047
  187MOL0     C25132   7.448   3.157   9.838 -0.3762  0.2433  0.4178
  187MOL0     C25133   7.302   3.116   9.810 -0.4354 -0.6275  0.6617
  187MOL0     O25134   7.216   3.175   9.909  0.4007  0.6043  0.3526
  187MOL0     C25135   7.081   3.162   9.883 -0.3794 -0.3424  0.4181
  187MOL0     C25136   6.989   3.204   9.982 -0.7107  0.3069  0.3095
  187MOL0     C25137   6.854   3.179   9.990 -0.4391  0.8794  0.1609
  187MOL0     C25138   6.774   3.262  10.092 -0.2487 -0.2353  0.8575
  187MOL0     C25139   6.801   3.091   9.889 -0.0331 -0.6624  0.0247
  187MOL0     C25140   6.664   3.036   9.881  0.7556 -1.6857 -0.3317
  187MOL0     O25141   6.561   3.129   9.885  0.4531 -0.4925  0.0459
  187MOL0     C25142   6.428   3.104   9.909  0.0136  0.1657 -0.1192
  187MOL0     C25143   6.344   3.212   9.927  0.3489 -1.2257  0.5890
  187MOL0     C25144   6.205   3.201   9.956 -0.4011  0.0223 -0.9644
  187MOL0     C25145   6.151   3.068   9.952 -0.9091  0.5144 -0.3162
  187MOL0     O25146   6.016   3.039   9.957  0.6352 -0.2808  0.2132
  187MOL0     C25147   5.924   3.142  10.008  0.1940 -0.1573  0.4046
  187MOL0     C25148   5.798   3.066  10.066 -0.1452 -0.1191  0.2408
  187MOL0     C25149   5.673   3.064   9.961 -0.9720  0.7630  0.7821
  187MOL0     C25150   5.542   3.018  10.022  0.6394 -0.6572 -0.3705
  187MOL0     C25151   5.415   3.053   9.942  0.0342  0.1381 -0.5832
  187MOL0     C25152   5.293   2.991  10.011  0.0043 -0.9971  0.4563
  187MOL0     C25153   5.172   3.024   9.930  0.7213  0.1823  0.2702
  187MOL0     C25154   5.067   2.910   9.942  0.0091  0.0684  0.1333
  187MOL0    Cl25155   4.895   2.956   9.903 -0.2797  0.2953 -0.5305
  187MOL0     C25156   6.236   2.967   9.928  1.1751  0.4082 -0.1563
  187MOL0     C25157   6.372   2.979   9.909 -0.6366 -0.0697  0.0325
  187MOL0     O25158   6.658   2.919   9.845  0.3912  0.2709 -0.5419
  187MOL0     C25159   6.889   3.060   9.780  0.1189 -0.7630  0.6559
  187MOL0     C25160   7.024   3.094   9.778  0.0097  0.1342 -0.2359
  187MOL0     N25161   7.750   2.895   9.658  0.5297 -0.2751 -0.0194
  187MOL0     N25162   7.858   2.854   9.619  0.1625 -0.9382  0.2269
  187MOL0     C25163   9.103   2.496   9.937  0.6967 -0.3250 -0.5788
  187MOL0     C25164   9.243   2.515   9.954 -0.0200  0.6416  0.5842
  187MOL0     C25165   9.645   2.573  10.130  0.1183 -0.0736  1.0944
  187MOL0     C25166   9.647   2.657  10.235  0.2454 -0.3455  0.1793
  187MOL0     C25167   9.766   2.659  10.318 -0.0735  1.2461 -0.9322
  187MOL0     C25168   9.887   2.592  10.287 -0.1343 -0.8115  0.3750
  187MOL0     O25169   9.994   2.627  10.367  1.1483 -0.0203 -0.0603
  187MOL0     C25170  10.120   2.602  10.306  0.0808 -0.1836 -0.1980
  187MOL0     C25171  10.227   2.621  10.420  0.3462  0.2669  0.6447
  187MOL0     C25172  10.221   2.506  10.531  0.5492 -0.0058  0.2585
  187MOL0     C25173  10.309   2.505  10.655 -0.5590 -0.1509  0.2818
  187MOL0     C25174  10.439   2.573  10.633  0.1215 -0.8522  0.0270
  187MOL0     C25175  10.542   2.630  10.617 -0.9057  0.1611 -0.4631
  187MOL0     C25176   9.883   2.510  10.170 -0.3734 -0.2156 -0.2825
  187MOL0     C25177   9.759   2.491  10.097  0.6830 -0.6170  0.2631
  187MOL0     H25178   9.239   2.684  10.240 -0.1348 -1.3913  1.1823
  187MOL0     H25179   8.989   2.677  10.195  0.1503 -1.6443  0.8759
  187MOL0     H25180   8.751   2.627  10.150 -2.9829  2.8752 -0.9321
  187MOL0     H25181   8.827   2.741  10.033  1.1269  0.2252  1.5673
  187MOL0     H25182   8.628   2.511   9.950 -3.4158  0.0867  1.1258
  187MOL0     H25183   8.568   2.665  10.012  0.0162  0.6931 -2.4967
  187MOL0     H25184   8.671   2.797   9.859 -0.2860  0.1110  0.5742
  187MOL0     H25185   8.756   2.676   9.783 -1.2957  2.3864 -3.3118
  187MOL0     H25186   8.543   2.697   9.651  0.7407  0.8316  0.2355
  187MOL0     H25187   8.523   2.551   9.751  1.5654 -0.9411  0.2233
  187MOL0     H25188   8.373   2.644   9.898  0.4135 -0.3252  0.8370
  187MOL0     H25189   8.433   2.809   9.870 -2.0171 -1.4745  0.4852
  187MOL0     H25190   8.337   2.833   9.650 -1.9979  1.1059 -0.4023
  187MOL0     H25191   8.303   2.660   9.648 -0.8505  1.1188 -1.1150
  187MOL0     H25192   8.101   2.694   9.775 -2.5824  1.8932  0.1431
  187MOL0     H25193   8.176   2.822   9.866  0.6518  1.8656 -0.3104
  187MOL0     H25194   8.113   2.832   9.572 -0.3557 -0.6390  0.7614
  187MOL0     H25195   8.154   2.968   9.689 -3.6560  2.3393  1.6281
  187MOL0     H25196   7.969   3.034   9.859 -0.3554  0.0950 -0.3768
  187MOL0     H25197   7.719   3.067   9.937  0.2738 -1.2868 -1.0621
  187MOL0     H25198   7.697   3.178   9.804 -2.1870 -0.3479 -1.2591
  187MOL0     H25199   7.508   2.947   9.852 -1.2830  0.5663 -0.6015
  187MOL0     H25200   7.533   3.026   9.690  1.2316  2.2144 -0.2690
  187MOL0     H25201   7.496   3.247   9.799 -0.0156  0.1077  0.5377
  187MOL0     H25202   7.465   3.172   9.946 -1.1537  0.2547  0.5449
  187MOL0     H25203   7.289   3.008   9.816  0.9239 -0.7596  1.7755
  187MOL0     H25204   7.284   3.155   9.709  1.8313 -2.4198 -0.5407
  187MOL0     H25205   7.027   3.269  10.060 -1.8478  0.8556  0.4250
  187MOL0     H25206   6.833   3.269  10.184  1.8121 -2.0408 -0.2363
  187MOL0     H25207   6.748   3.359  10.047  0.4876 -1.3447 -2.1819
  187MOL0     H25208   6.684   3.209  10.126 -0.2220  0.9175  2.9513
  187MOL0     H25209   6.392   3.309   9.934  0.1759 -1.0379 -0.5895
  187MOL0     H25210   6.142   3.284   9.987  0.5240  0.8186 -1.1551
  187MOL0     H25211   5.969   3.193  10.093  0.5676 -3.0675  2.0750
  187MOL0     H25212   5.896   3.213   9.929  0.0672  1.4859  1.8465
  187MOL0     H25213   5.829   2.963  10.087  0.3081 -0.0763 -0.1893
  187MOL0     H25214   5.767   3.100  10.165  0.8173 -0.8406  0.8138
  187MOL0     H25215   5.701   3.016   9.867  1.6409  1.1734  1.2722
  187MOL0     H25216   5.645   3.167   9.939  1.5240  0.6456 -4.2712
  187MOL0     H25217   5.539   2.910  10.040 -2.6512 -0.8002 -1.1047
  187MOL0     H25218   5.546   3.059  10.124  1.1892 -1.7319  0.0647
  187MOL0     H25219   5.433   3.021   9.839 -1.6246  1.3628 -1.3050
  187MOL0     H25220   5.403   3.162   9.944 -1.7114 -0.0396  0.9128
  187MOL0     H25221   5.302   2.882  10.008 -3.4042 -1.3957 -0.2845
  187MOL0     H25222   5.274   3.029  10.112 -0.2364 -0.7275  0.3099
  187MOL0     H25223   5.212   3.031   9.829  3.8638  0.6683  1.4444
  187MOL0     H25224   5.121   3.117   9.957 -0.8340  0.2496 -2.5189
  187MOL0     H25225   5.067   2.877  10.046  1.6362  0.6093  0.3326
  187MOL0     H25226   5.079   2.840   9.858 -1.2783  1.7753 -1.5721
  187MOL0     H25227   6.192   2.867   9.928 -0.7876  1.2092  0.8633
  187MOL0     H25228   6.438   2.894   9.895  2.0825  2.1288 -1.6454
  187MOL0     H25229   6.849   3.010   9.693 -0.3402  2.0414 -0.8562
  187MOL0     H25230   7.092   3.061   9.701  0.9940  0.4200  0.4930
  187MOL0     H25231   9.058   2.434   9.859 -0.0862 -2.6479  1.5941
  187MOL0     H25232   9.305   2.458   9.885 -2.0607  0.6837 -1.4001
  187MOL0     H25233   9.552   2.703  10.264  0.0787 -1.3820  1.3517
  187MOL0     H25234   9.771   2.720  10.407  2.3412 -0.0536 -0.0574
  187MOL0     H25235  10.135   2.499  10.273  5.2574  0.5605 -0.9819
  187MOL0     H25236  10.147   2.671  10.226  1.4757 -1.5021 -0.9311
  187MOL0     H25237  10.208   2.713  10.477  1.5043  0.0126  1.4780
  187MOL0     H25238  10.324   2.621  10.370  0.0454 -1.6768 -0.0189
  187MOL0     H25239  10.252   2.414  10.481  0.5039  0.5421 -0.8036
  187MOL0     H25240  10.120   2.493  10.572 -0.3660 -0.3976 -1.9821
  187MOL0     H25241  10.323   2.405  10.696 -2.1261 -0.5636 -0.1425
  187MOL0     H25242  10.261   2.554  10.740  1.6857  0.3972  1.3247
  187MOL0     H25243  10.637   2.681  10.611 -0.1995 -1.2398 -2.0607
  187MOL0     H25244   9.971   2.453  10.140 -0.9068 -0.7394 -0.8675
  187MOL0     H25245   9.746   2.435  10.005  4.7292  2.1338 -2.3054
  188MOL0     O25246  11.196   8.490   2.378  0.7097 -0.3784  0.0973
  188MOL0     C25247  11.267   8.560   2.310 -0.1417 -0.4158  0.4009
  188MOL0     O25248  11.233   8.656   2.220 -0.7849  0.0391  0.6395
  188MOL0     C25249  11.105   8.713   2.198 -0.4124  1.0094 -0.4727
  188MOL0     C25250  11.077   8.795   2.088  0.7025 -0.6274 -0.1967
  188MOL0     C25251  10.945   8.846   2.073 -0.3889 -0.1115  0.5825
  188MOL0     C25252  10.851   8.840   2.174 -0.9384  0.3270 -0.2119
  188MOL0     O25253  10.738   8.912   2.171  0.2075 -1.1338 -0.1832
  188MOL0     C25254  10.747   9.053   2.170  0.5487 -0.3539 -0.3334
  188MOL0     C25255  10.647   9.112   2.082  0.6400  0.8648 -0.5298
  188MOL0     C25256  10.499   9.091   2.132  0.6030  0.0827  1.0092
  188MOL0     C25257  10.401   9.118   2.021 -0.6876  0.1472  0.6297
  188MOL0     C25258  10.267   9.148   2.088  0.0098 -0.1093 -0.0022
  188MOL0     C25259  10.155   9.147   1.976 -0.0019  0.0690  0.2390
  188MOL0     C25260  10.050   9.250   2.031 -0.2951  0.7907 -0.6495
  188MOL0     C25261   9.920   9.205   1.973  0.4242  0.1532  0.1714
  188MOL0     N25262   9.891   9.249   1.837 -0.1100 -0.6105  0.3395
  188MOL0     C25263   9.761   9.260   1.791 -0.3076 -0.7915 -0.6995
  188MOL0     C25264   9.770   9.288   1.661 -0.2635 -0.7153 -0.2668
  188MOL0     C25265   9.652   9.292   1.563  0.9167  0.8606  0.3394
  188MOL0     C25266   9.581   9.423   1.565 -0.5976 -0.0475  0.3130
  188MOL0     C25267   9.473   9.434   1.454 -0.2550  0.5631 -0.5511
  188MOL0     C25268   9.392   9.567   1.472  0.3452 -0.6229  0.7324
  188MOL0     O25269   9.307   9.554   1.585  0.4335  0.0974  0.2929
  188MOL0     C25270   9.178   9.523   1.552 -0.3310  0.5499  0.1533
  188MOL0     C25271   9.097   9.600   1.469  0.2008  0.1954 -0.8640
  188MOL0     C25272   8.959   9.578   1.446  0.4158  0.0400  0.1933
  188MOL0     C25273   8.871   9.694   1.391 -0.2981  0.1657  0.3182
  188MOL0     C25274   8.899   9.459   1.494 -0.0901  0.5658 -0.1997
  188MOL0     C25275   8.757   9.408   1.479  0.5212  0.9881 -1.0300
  188MOL0     O25276   8.738   9.280   1.456  0.4028  0.7291 -0.0299
  188MOL0     C25277   8.614   9.223   1.466  0.1645 -0.1923 -0.4762
  188MOL0     C25278   8.575   9.185   1.592 -0.5854 -0.0778  0.5084
  188MOL0     C25279   8.443   9.137   1.609 -0.5044  0.1724 -0.5822
  188MOL0     C25280   8.345   9.113   1.512  0.4509  1.2489 -0.5894
  188MOL0     O25281   8.214   9.057   1.520 -0.2851 -0.0157  0.5946
  188MOL0     C25282   8.158   9.034   1.648  0.1793  0.3362  0.4588
  188MOL0     C25283   8.053   8.923   1.635 -0.3554 -0.5438 -0.9723
  188MOL0     C25284   7.946   8.957   1.533 -0.7107 -0.5172 -0.3142
  188MOL0     C25285   7.828   8.851   1.549  0.2604  1.2773  0.4749
  188MOL0     C25286   7.861   8.725   1.471  0.7237 -0.1919 -0.4578
  188MOL0     C25287   7.777   8.601   1.507 -0.4381  0.1128  0.3487
  188MOL0     C25288   7.822   8.490   1.421  0.3457  0.2643  0.1161
  188MOL0     C25289   7.734   8.366   1.416 -0.0099  0.8350 -0.0386
  188MOL0    Cl25290   7.574   8.394   1.338 -0.5712  0.2928  0.1204
  188MOL0     C25291   8.401   9.139   1.378 -0.0611 -1.0277 -0.0167
  188MOL0     C25292   8.524   9.205   1.359 -0.3056 -0.1821  0.0768
  188MOL0     O25293   8.666   9.486   1.492 -0.9894 -0.5170 -0.4742
  188MOL0     C25294   8.986   9.379   1.582  0.7334  0.0583  0.1548
  188MOL0     C25295   9.118   9.410   1.609  0.5235  0.4457 -0.0402
  188MOL0     N25296   9.909   9.303   1.632  0.6666 -0.6773 -0.1322
  188MOL0     N25297   9.977   9.273   1.735  0.0718  0.7169 -0.5162
  188MOL0     C25298  10.884   8.776   2.292  0.7244 -0.1319 -0.2388
  188MOL0     C25299  11.005   8.705   2.301 -0.2342 -0.3391 -0.5434
  188MOL0     C25300  11.398   8.507   2.306 -0.8402 -0.3276  0.5950
  188MOL0     C25301  11.439   8.424   2.413  0.6767 -0.6943 -0.4142
  188MOL0     C25302  11.563   8.372   2.428 -0.4224 -0.8979  0.1138
  188MOL0     C25303  11.663   8.400   2.332  0.8973 -0.1608 -0.4878
  188MOL0     O25304  11.790   8.348   2.334  0.1727 -0.0804 -0.3742
  188MOL0     C25305  11.833   8.264   2.444  0.3698 -0.7194  0.8736
  188MOL0     C25306  11.981   8.238   2.434  0.2883 -0.8278 -0.2160
  188MOL0     C25307  12.009   8.150   2.314 -0.0307  0.5846  0.1352
  188MOL0     C25308  12.157   8.121   2.297  0.3220  1.1753 -0.0128
  188MOL0     C25309  12.238   8.242   2.297 -0.4092  0.2109  0.0150
  188MOL0     C25310  12.300   8.343   2.272 -0.5262  0.2756  0.5433
  188MOL0     C25311  11.616   8.473   2.216  0.1397  0.1955  0.3529
  188MOL0     C25312  11.489   8.539   2.207 -0.6963 -0.5813  0.2016
  188MOL0     H25313  11.157   8.814   2.017  1.1138 -0.1528  0.3789
  188MOL0     H25314  10.931   8.910   1.987  0.9853 -0.3284  0.1737
  188MOL0     H25315  10.727   9.095   2.269  2.9220  0.5608 -0.1652
  188MOL0     H25316  10.845   9.094   2.145  0.5203  0.8444  1.3084
  188MOL0     H25317  10.672   9.218   2.071  1.9511  0.5000 -1.3095
  188MOL0     H25318  10.655   9.068   1.982  1.9001 -2.3847  0.8536
  188MOL0     H25319  10.485   8.988   2.167  1.8586  0.6151  3.2516
  188MOL0     H25320  10.474   9.160   2.212  2.7015 -0.0843  1.8746
  188MOL0     H25321  10.447   9.202   1.967  1.6730 -1.6132 -0.2766
  188MOL0     H25322  10.395   9.029   1.957  1.3007  1.5395 -1.6725
  188MOL0     H25323  10.238   9.088   2.175  0.2634 -0.9156 -0.4596
  188MOL0     H25324  10.275   9.249   2.128  0.9155 -0.8553  1.8576
  188MOL0     H25325  10.176   9.191   1.878 -2.6539 -1.6877 -1.2464
  188MOL0     H25326  10.123   9.042   1.975  1.8870 -0.7025  3.9004
  188MOL0     H25327  10.036   9.245   2.139  1.1610 -0.3388 -0.4879
  188MOL0     H25328  10.069   9.355   2.004 -4.0731  1.4292 -1.3731
  188MOL0     H25329   9.848   9.263   2.031  0.9522 -0.2360  1.2488
  188MOL0     H25330   9.907   9.097   1.981 -0.8127  0.3588  1.1535
  188MOL0     H25331   9.672   9.245   1.850  0.4479  0.9148  0.9775
  188MOL0     H25332   9.696   9.276   1.463  0.8313  0.3428  0.3796
  188MOL0     H25333   9.578   9.211   1.570  1.1155  0.4864 -1.3453
  188MOL0     H25334   9.666   9.489   1.546  0.4743 -1.7119 -0.8563
  188MOL0     H25335   9.548   9.449   1.666  1.7163 -0.6476  1.2773
  188MOL0     H25336   9.409   9.345   1.459  1.5150 -1.0638 -3.6463
  188MOL0     H25337   9.522   9.436   1.357  0.6116  3.2352 -0.1390
  188MOL0     H25338   9.335   9.581   1.380  2.0543 -0.8768 -0.4130
  188MOL0     H25339   9.465   9.647   1.490  2.3709 -1.8166 -1.5498
  188MOL0     H25340   9.145   9.688   1.427 -1.2823  1.5928  0.2819
  188MOL0     H25341   8.806   9.670   1.306  0.6500 -0.0388 -0.3693
  188MOL0     H25342   8.803   9.719   1.473  1.0956  2.9678  0.7226
  188MOL0     H25343   8.922   9.786   1.363 -0.9800  0.2728 -0.6197
  188MOL0     H25344   8.644   9.189   1.675  0.5678  2.8854 -0.4469
  188MOL0     H25345   8.416   9.141   1.715  0.4581  2.0737 -0.3654
  188MOL0     H25346   8.235   9.004   1.720  0.8124  1.0844  0.1078
  188MOL0     H25347   8.106   9.119   1.692  0.2363  0.3415  0.5185
  188MOL0     H25348   8.103   8.832   1.601  0.9407  0.5889 -2.2414
  188MOL0     H25349   8.008   8.907   1.733  1.1928  0.5386 -0.0260
  188MOL0     H25350   7.979   8.956   1.429 -0.5450  0.1426 -0.2719
  188MOL0     H25351   7.903   9.055   1.553  0.0757 -0.0209 -1.0171
  188MOL0     H25352   7.813   8.818   1.653 -3.5861  2.5460  0.4540
  188MOL0     H25353   7.735   8.895   1.512  0.0399  2.7610  2.6050
  188MOL0     H25354   7.962   8.688   1.489  1.0986  0.3084 -1.4526
  188MOL0     H25355   7.849   8.758   1.367 -0.2113 -2.4710 -1.1459
  188MOL0     H25356   7.796   8.579   1.612  1.2864 -3.5557 -0.5498
  188MOL0     H25357   7.671   8.621   1.486 -0.5634  0.8205  1.5539
  188MOL0     H25358   7.921   8.469   1.465  1.0878  2.8687 -0.1537
  188MOL0     H25359   7.834   8.523   1.318  1.6544  2.7827  0.9871
  188MOL0     H25360   7.721   8.365   1.524  0.9877  0.9747  0.0938
  188MOL0     H25361   7.784   8.274   1.384  1.1569  0.9007  1.4998
  188MOL0     H25362   8.333   9.120   1.295 -0.9429 -2.2710  0.9387
  188MOL0     H25363   8.563   9.228   1.261  2.8558 -0.4207  1.1661
  188MOL0     H25364   8.940   9.292   1.628  2.4480 -0.5143  0.8605
  188MOL0     H25365   9.166   9.350   1.686 -0.0596 -0.0520 -0.0620
  188MOL0     H25366  10.806   8.780   2.367  0.3904  0.7099 -0.6169
  188MOL0     H25367  11.014   8.640   2.388 -0.9829  1.9936  1.4044
  188MOL0     H25368  11.370   8.392   2.491 -0.0553 -0.6566 -1.0440
  188MOL0     H25369  11.572   8.328   2.527 -0.3458  1.5182  1.2737
  188MOL0     H25370  11.824   8.305   2.545 -1.6981 -1.5116  1.0569
  188MOL0     H25371  11.774   8.172   2.442 -0.2237 -0.4376  3.1651
  188MOL0     H25372  12.027   8.201   2.526 -1.0560 -0.5300  0.6108
  188MOL0     H25373  12.029   8.337   2.427 -0.4155 -0.3027  1.5921
  188MOL0     H25374  11.957   8.185   2.225  0.3363 -1.1623 -0.8048
  188MOL0     H25375  11.970   8.052   2.342 -0.4818  1.4415  2.8947
  188MOL0     H25376  12.165   8.059   2.207 -0.0501  1.4525 -0.2405
  188MOL0     H25377  12.186   8.076   2.392 -2.1097  2.3743  1.3959
  188MOL0     H25378  12.364   8.421   2.235 -0.0389 -1.0015 -1.4637
  188MOL0     H25379  11.676   8.491   2.128  0.4372 -1.3065  0.2166
  188MOL0     H25380  11.473   8.598   2.118 -0.5879  0.7708  1.0471
  189MOL0     O25381   3.970   1.745   0.954 -0.0841  0.6375  0.4607
  189MOL0     C25382   4.035   1.845   0.954  0.2749 -0.7410 -0.5763
  189MOL0     O25383   3.979   1.965   0.955  0.4707 -0.2640 -0.9300
  189MOL0     C25384   3.844   1.971   0.991 -0.0330 -0.5798 -0.3437
  189MOL0     C25385   3.808   2.011   1.121 -0.8138  0.8446 -0.0123
  189MOL0     C25386   3.672   2.023   1.157  0.1253 -0.1229  0.0054
  189MOL0     C25387   3.567   1.990   1.066 -0.9943  0.4059 -0.5185
  189MOL0     O25388   3.433   1.998   1.102  0.0950 -0.0682 -0.1286
  189MOL0     C25389   3.405   1.911   1.215  0.4302  0.1231  0.0706
  189MOL0     C25390   3.380   1.997   1.338  0.1917 -0.4253  0.3243
  189MOL0     C25391   3.257   2.080   1.332  1.4650 -0.2077 -0.1544
  189MOL0     C25392   3.134   1.998   1.292  0.2833  0.8660  0.6336
  189MOL0     C25393   3.011   2.077   1.301  0.1420  0.5629 -0.3272
  189MOL0     C25394   2.895   1.989   1.264  0.9560  0.0430  0.1115
  189MOL0     C25395   2.882   1.966   1.117 -0.9888  0.2304  0.2023
  189MOL0     C25396   2.764   1.880   1.082  0.5823 -0.0831  0.0862
  189MOL0     N25397   2.636   1.956   1.102  0.1664  0.9623 -0.6189
  189MOL0     C25398   2.593   2.076   1.043  0.4781  0.7785  0.0262
  189MOL0     C25399   2.469   2.106   1.096 -0.6500 -0.8826 -0.8989
  189MOL0     C25400   2.394   2.226   1.061 -0.0655  0.5206  0.3328
  189MOL0     C25401   2.309   2.289   1.178  0.0782  0.0741  0.4896
  189MOL0     C25402   2.212   2.387   1.120  0.0494 -0.4247 -0.1128
  189MOL0     C25403   2.071   2.360   1.174 -0.2554 -0.5554  0.2230
  189MOL0     O25404   1.959   2.427   1.108  0.2720 -0.4321 -0.4989
  189MOL0     C25405   1.844   2.416   1.176  0.1556  0.9730  0.0613
  189MOL0     C25406   1.814   2.339   1.290  0.6185 -0.5195 -0.8415
  189MOL0     C25407   1.685   2.326   1.344 -0.5779  0.0340 -0.0025
  189MOL0     C25408   1.684   2.266   1.480  0.2594 -0.7882 -0.0736
  189MOL0     C25409   1.573   2.384   1.272  0.4113  0.0470 -0.4334
  189MOL0     C25410   1.428   2.363   1.306  0.2719  0.1680  0.3758
  189MOL0     O25411   1.341   2.460   1.256 -0.4430 -0.7386 -0.0458
  189MOL0     C25412   1.213   2.449   1.294  0.3023  0.9240  0.5112
  189MOL0     C25413   1.176   2.518   1.405  0.4468 -0.5303 -1.4373
  189MOL0     C25414   1.037   2.504   1.443 -0.7631  0.1543 -0.1656
  189MOL0     C25415   0.958   2.402   1.389  0.1467 -0.6248 -0.7490
  189MOL0     O25416   0.840   2.372   1.454  0.4133 -0.1372 -0.4171
  189MOL0     C25417   0.775   2.247   1.409 -0.6942 -0.1811  0.9669
  189MOL0     C25418   0.707   2.174   1.521 -0.0258 -0.1461  0.3313
  189MOL0     C25419   0.588   2.252   1.581  0.0911 -0.0233 -0.6608
  189MOL0     C25420   0.497   2.183   1.693 -0.8530 -0.3185  0.0629
  189MOL0     C25421   0.369   2.265   1.704 -0.3764  0.1912  0.5849
  189MOL0     C25422   0.267   2.202   1.789  0.3216  0.5849  0.7381
  189MOL0     C25423   0.306   2.227   1.934 -0.0539 -0.6218 -0.1333
  189MOL0     C25424   0.198   2.185   2.023  0.1750  1.5023 -0.2639
  189MOL0    Cl25425   0.059   2.298   2.027 -0.1515 -0.1970 -0.1348
  189MOL0     C25426   1.002   2.342   1.275  0.2845 -0.1815  0.3171
  189MOL0     C25427   1.124   2.365   1.224  0.3178 -0.1137 -0.0646
  189MOL0     O25428   1.381   2.272   1.382 -0.1318  0.8445 -0.0701
  189MOL0     C25429   1.609   2.459   1.151 -0.5871  0.6451  0.5472
  189MOL0     C25430   1.742   2.471   1.110  0.6813 -0.4435 -0.1398
  189MOL0     N25431   2.447   2.001   1.188 -0.5461  0.3961  0.2219
  189MOL0     N25432   2.536   1.905   1.186  0.0134  0.1913  0.9234
  189MOL0     C25433   3.605   1.947   0.938  0.7683 -0.1690  0.5327
  189MOL0     C25434   3.738   1.929   0.897 -0.3004 -0.5217 -0.7160
  189MOL0     C25435   4.182   1.825   0.929 -0.3635 -0.0393 -0.3483
  189MOL0     C25436   4.238   1.700   0.909  0.4713 -0.2101 -0.0007
  189MOL0     C25437   4.378   1.685   0.881 -0.0201  0.0807  0.1078
  189MOL0     C25438   4.462   1.790   0.891 -0.3991  0.0473 -0.0908
  189MOL0     O25439   4.597   1.783   0.877  0.2022  0.3399  0.4856
  189MOL0     C25440   4.660   1.674   0.811 -0.6277  0.0911  0.2264
  189MOL0     C25441   4.814   1.693   0.806  0.0602  0.1059  0.1218
  189MOL0     C25442   4.894   1.576   0.740 -0.2281 -0.6432 -0.0972
  189MOL0     C25443   5.047   1.598   0.751 -0.2811  0.8185  0.1313
  189MOL0     C25444   5.091   1.726   0.685 -0.3988  0.4254  0.2661
  189MOL0     C25445   5.118   1.825   0.620 -0.1430 -0.1762 -0.6403
  189MOL0     C25446   4.408   1.925   0.904  0.1574 -0.1943 -0.2618
  189MOL0     C25447   4.269   1.935   0.920 -0.5211 -0.9565 -0.5360
  189MOL0     H25448   3.896   2.036   1.179  0.4246 -1.7801 -0.5960
  189MOL0     H25449   3.651   2.053   1.259  2.1222 -2.3999  1.1982
  189MOL0     H25450   3.319   1.845   1.201  1.0985 -0.6572 -0.4418
  189MOL0     H25451   3.493   1.852   1.243 -1.3963 -1.9544  1.9231
  189MOL0     H25452   3.372   1.918   1.413  0.2998 -0.5526  0.2019
  189MOL0     H25453   3.458   2.062   1.378 -2.8032  2.2215  2.3224
  189MOL0     H25454   3.237   2.122   1.431  1.0977 -0.3590 -0.1617
  189MOL0     H25455   3.268   2.162   1.261  0.1579  1.7935  1.8366
  189MOL0     H25456   3.143   1.972   1.186 -2.8582  0.0388  0.4769
  189MOL0     H25457   3.135   1.905   1.349  0.1378 -0.5700 -1.6159
  189MOL0     H25458   2.992   2.114   1.402 -1.3429 -0.6853 -0.1203
  189MOL0     H25459   3.030   2.165   1.239  4.1375 -0.9918 -1.5844
  189MOL0     H25460   2.896   1.891   1.313 -1.3398 -0.6995 -1.1730
  189MOL0     H25461   2.805   2.035   1.306  1.6562 -0.0045  1.7452
  189MOL0     H25462   2.882   2.061   1.063 -1.4264  0.2711  0.2721
  189MOL0     H25463   2.970   1.913   1.078 -0.7830 -0.2305  1.2755
  189MOL0     H25464   2.761   1.783   1.132 -2.9297 -0.3601 -0.4029
  189MOL0     H25465   2.759   1.866   0.974 -1.0078 -0.8603  0.2359
  189MOL0     H25466   2.650   2.118   0.961  2.6757 -0.1594  0.9661
  189MOL0     H25467   2.457   2.308   1.027  3.0783 -0.2152  3.7447
  189MOL0     H25468   2.326   2.197   0.981 -0.3644 -2.8369  1.6372
  189MOL0     H25469   2.377   2.326   1.255  1.3947 -2.7140  0.7775
  189MOL0     H25470   2.253   2.206   1.223 -1.4062  0.9381  0.3177
  189MOL0     H25471   2.202   2.359   1.015 -0.8071 -0.6496  0.0178
  189MOL0     H25472   2.245   2.491   1.124  1.5133 -0.8364 -0.9027
  189MOL0     H25473   2.076   2.385   1.280  1.6552  0.8720 -0.1541
  189MOL0     H25474   2.061   2.252   1.158  2.4348 -0.8879  0.3511
  189MOL0     H25475   1.891   2.277   1.335  1.0398 -0.6558 -1.7305
  189MOL0     H25476   1.781   2.267   1.530 -0.2177  3.0473  1.0566
  189MOL0     H25477   1.629   2.339   1.539  2.8158  0.7170  0.5953
  189MOL0     H25478   1.644   2.165   1.493  0.9597 -1.2633 -1.3433
  189MOL0     H25479   1.248   2.573   1.465 -0.2660 -1.2646  0.1532
  189MOL0     H25480   0.996   2.545   1.535 -0.7158  0.2074 -0.1687
  189MOL0     H25481   0.715   2.261   1.318  1.2097 -2.3753 -0.7561
  189MOL0     H25482   0.847   2.173   1.372 -1.7918 -0.2532 -1.1896
  189MOL0     H25483   0.673   2.077   1.482 -3.7542  1.1770 -0.1254
  189MOL0     H25484   0.783   2.151   1.597 -0.1301  1.0190  0.8089
  189MOL0     H25485   0.515   2.258   1.499 -0.0403 -0.6642 -0.5878
  189MOL0     H25486   0.627   2.345   1.624 -0.2961 -2.1156  4.9564
  189MOL0     H25487   0.474   2.077   1.675 -0.1857 -0.3954 -0.3710
  189MOL0     H25488   0.552   2.180   1.788 -0.0122 -0.2174 -0.4127
  189MOL0     H25489   0.327   2.267   1.603 -0.4606  0.2120  0.6205
  189MOL0     H25490   0.384   2.371   1.727  1.0110  0.2601 -0.4800
  189MOL0     H25491   0.170   2.248   1.773  0.1645  1.5315  3.7950
  189MOL0     H25492   0.269   2.095   1.765  2.1638  0.8861 -0.7232
  189MOL0     H25493   0.326   2.330   1.965 -0.1711 -1.3823  2.6958
  189MOL0     H25494   0.397   2.169   1.951  0.7349  0.2367 -1.2271
  189MOL0     H25495   0.233   2.177   2.126  1.0982  0.2223 -0.6523
  189MOL0     H25496   0.163   2.086   1.992  0.5108  0.0995  3.3610
  189MOL0     H25497   0.943   2.265   1.225  0.8681 -0.7135  0.4458
  189MOL0     H25498   1.144   2.315   1.129 -2.2290 -0.4196 -0.5197
  189MOL0     H25499   1.538   2.511   1.087 -0.7621 -1.0425 -0.6773
  189MOL0     H25500   1.750   2.532   1.021 -0.9480  0.7280  0.4635
  189MOL0     H25501   3.525   1.925   0.869  0.5490  0.7459  0.4828
  189MOL0     H25502   3.763   1.884   0.801  3.1767  0.3875 -0.3487
  189MOL0     H25503   4.168   1.617   0.900 -2.9667  1.8787  3.8429
  189MOL0     H25504   4.413   1.587   0.851  3.0945  1.1539 -0.0895
  189MOL0     H25505   4.630   1.581   0.860  0.1068  0.5834  1.6738
  189MOL0     H25506   4.631   1.674   0.705  3.4210 -1.5311 -1.0820
  189MOL0     H25507   4.863   1.718   0.901  1.5164 -1.0089 -0.2992
  189MOL0     H25508   4.837   1.780   0.743  1.1265  0.5493  1.0701
  189MOL0     H25509   4.872   1.575   0.632 -1.2735  2.0635  0.0070
  189MOL0     H25510   4.874   1.485   0.797 -0.6705  0.2099  1.1528
  189MOL0     H25511   5.098   1.508   0.715 -3.0205 -1.3440  1.2598
  189MOL0     H25512   5.082   1.612   0.854  0.7004  1.4246 -0.2661
  189MOL0     H25513   5.122   1.906   0.550  2.3402 -1.3165 -1.9224
  189MOL0     H25514   4.466   2.016   0.917  0.5141  0.0026 -2.7234
  189MOL0     H25515   4.221   2.030   0.937  1.5314 -0.4588  3.8846
  190MOL0     O25516   8.300   2.848   5.006  0.0342 -0.6843  0.4419
  190MOL0     C25517   8.305   2.966   5.037 -0.6749 -0.2161  0.5644
  190MOL0     O25518   8.213   3.064   4.987  0.6359 -0.1175  0.1473
  190MOL0     C25519   8.131   3.019   4.884  0.4597 -0.1026 -0.4511
  190MOL0     C25520   8.008   2.958   4.914  0.1611 -0.8939 -1.1021
  190MOL0     C25521   7.927   2.918   4.816 -0.7793  0.2190  0.2192
  190MOL0     C25522   7.959   2.939   4.681  0.5597  1.0191 -0.2695
  190MOL0     O25523   7.878   2.908   4.579 -0.2191 -0.5882  0.8907
  190MOL0     C25524   7.738   2.899   4.600 -0.7739  0.3255  0.3056
  190MOL0     C25525   7.670   2.919   4.468 -0.2409 -0.2406 -0.9657
  190MOL0     C25526   7.517   2.933   4.481  0.5821 -0.3620 -0.6640
  190MOL0     C25527   7.439   2.906   4.353  0.3261 -0.6751  0.4450
  190MOL0     C25528   7.299   2.961   4.339 -0.1622  0.3150  0.0694
  190MOL0     C25529   7.260   2.989   4.197  0.2535 -0.5458 -0.5505
  190MOL0     C25530   7.259   2.867   4.111  0.0045 -0.3496  0.0329
  190MOL0     C25531   7.187   2.746   4.160  0.3930  0.3515  0.8598
  190MOL0     N25532   7.055   2.764   4.224  0.0618 -0.2433  0.4333
  190MOL0     C25533   6.951   2.843   4.183  0.7681 -0.3872  0.3076
  190MOL0     C25534   6.888   2.874   4.305  0.0870  0.2247  0.2228
  190MOL0     C25535   6.765   2.957   4.334 -0.0480 -0.5477 -0.6878
  190MOL0     C25536   6.632   2.882   4.289 -0.4499  0.9595  0.0763
  190MOL0     C25537   6.509   2.969   4.299 -0.3473 -0.3803 -0.9946
  190MOL0     C25538   6.508   3.102   4.224  0.6877  0.1241 -0.5294
  190MOL0     O25539   6.471   3.079   4.085 -0.4471  0.2802  0.0866
  190MOL0     C25540   6.334   3.043   4.061  0.1998  0.1645 -0.2149
  190MOL0     C25541   6.322   2.953   3.960 -0.2743 -0.3488  0.6851
  190MOL0     C25542   6.200   2.914   3.910  0.6932  0.9777 -0.1602
  190MOL0     C25543   6.205   2.826   3.792  0.0015 -0.1368  0.2369
  190MOL0     C25544   6.086   2.975   3.967 -0.3680 -1.5980 -0.3770
  190MOL0     C25545   5.951   2.949   3.925  1.1345  0.4068 -0.0650
  190MOL0     O25546   5.857   3.038   3.964 -0.3367 -0.0094 -0.7297
  190MOL0     C25547   5.727   2.989   3.979  0.4458  0.0031  0.5501
  190MOL0     C25548   5.683   2.904   4.078  0.3530 -0.4097  0.4802
  190MOL0     C25549   5.547   2.886   4.107  0.6388  0.0403 -0.2004
  190MOL0     C25550   5.450   2.955   4.030  0.7353  0.7142  0.2359
  190MOL0     O25551   5.312   2.957   4.050 -0.4985 -0.1365  1.0457
  190MOL0     C25552   5.248   2.881   4.150 -0.6497 -0.7198 -0.0072
  190MOL0     C25553   5.101   2.878   4.139  0.2336 -0.2182 -0.1292
  190MOL0     C25554   5.031   3.013   4.159 -0.5025 -0.6598  0.6126
  190MOL0     C25555   4.881   2.999   4.196  0.4886  0.0779  1.0571
  190MOL0     C25556   4.797   2.941   4.082  0.0993 -0.3600  0.0863
  190MOL0     C25557   4.651   2.931   4.112  0.7890  0.1886 -0.1057
  190MOL0     C25558   4.573   3.067   4.096 -0.7449  0.1130 -0.4889
  190MOL0     C25559   4.474   3.095   4.208  0.1804  0.4817  0.5033
  190MOL0    Cl25560   4.362   2.959   4.229  0.1090  0.5443  0.0246
  190MOL0     C25561   5.502   3.039   3.929  0.8707 -0.3712 -0.2065
  190MOL0     C25562   5.637   3.057   3.902  0.4258  0.3064  0.7037
  190MOL0     O25563   5.924   2.849   3.865  0.1244  0.5647  0.0584
  190MOL0     C25564   6.100   3.069   4.074  0.0469 -0.5563 -0.3617
  190MOL0     C25565   6.222   3.102   4.121  0.5419 -0.2579 -1.3380
  190MOL0     N25566   6.954   2.809   4.404  0.6252  0.5300  0.5257
  190MOL0     N25567   7.039   2.733   4.351 -0.4146  0.7517 -0.6396
  190MOL0     C25568   8.080   2.986   4.651 -0.2985  0.9559  0.6526
  190MOL0     C25569   8.174   3.032   4.752  0.4966 -0.5485 -0.5325
  190MOL0     C25570   8.417   3.011   5.121 -0.6954  1.1082 -0.2731
  190MOL0     C25571   8.538   2.944   5.133  0.2105 -0.2981 -0.4443
  190MOL0     C25572   8.632   3.001   5.218  0.4603 -0.0209 -0.2161
  190MOL0     C25573   8.607   3.116   5.293 -0.7300 -0.0304  0.2116
  190MOL0     O25574   8.719   3.167   5.363  0.5139  0.1285  1.3191
  190MOL0     C25575   8.726   3.287   5.433 -0.6620 -0.2126  0.2665
  190MOL0     C25576   8.768   3.401   5.327  0.8649  0.0988  0.1472
  190MOL0     C25577   8.911   3.361   5.274 -0.0584  0.0105 -0.3530
  190MOL0     C25578   8.954   3.480   5.191  0.5010 -0.2610  0.3128
  190MOL0     C25579   9.100   3.476   5.166  0.2456 -0.2012 -0.2750
  190MOL0     C25580   9.217   3.455   5.139 -0.0148  0.6292  0.1758
  190MOL0     C25581   8.488   3.188   5.281  0.1620  1.0571  0.8987
  190MOL0     C25582   8.395   3.131   5.194 -0.0360  0.1242 -0.0089
  190MOL0     H25583   7.980   2.934   5.016 -1.4091 -0.5741 -1.4246
  190MOL0     H25584   7.841   2.862   4.850  0.0035 -1.1202  0.0407
  190MOL0     H25585   7.712   2.797   4.629  0.6592 -0.1330  0.0542
  190MOL0     H25586   7.707   2.974   4.674 -2.6259 -0.4637  0.3864
  190MOL0     H25587   7.718   3.006   4.423  1.3897 -0.9043 -0.5939
  190MOL0     H25588   7.688   2.830   4.408 -0.6639  0.6433 -2.4322
  190MOL0     H25589   7.483   2.861   4.556 -0.5909  0.6495 -0.1696
  190MOL0     H25590   7.501   3.031   4.528  1.4612 -0.8557  0.7501
  190MOL0     H25591   7.496   2.953   4.272 -1.5579  3.5971  1.3444
  190MOL0     H25592   7.430   2.798   4.339  0.6464 -0.7941  1.1129
  190MOL0     H25593   7.235   2.893   4.397  0.9721  0.7207  1.9022
  190MOL0     H25594   7.311   3.056   4.392  1.9874  0.8083 -1.1909
  190MOL0     H25595   7.160   3.034   4.200  0.1955 -0.7249  0.6272
  190MOL0     H25596   7.324   3.067   4.155  0.9487 -0.2778  0.9686
  190MOL0     H25597   7.213   2.894   4.016 -2.9099  2.2736  2.0161
  190MOL0     H25598   7.366   2.850   4.096  0.5498  1.6538  1.1980
  190MOL0     H25599   7.253   2.700   4.235 -1.5364 -3.6032  0.3884
  190MOL0     H25600   7.158   2.672   4.086  1.4380 -0.4231  1.2010
  190MOL0     H25601   6.926   2.892   4.089  1.1481 -0.1370  0.3341
  190MOL0     H25602   6.755   2.977   4.441 -2.1121  1.5907 -1.1836
  190MOL0     H25603   6.774   3.056   4.287 -0.0717  0.4898  1.3883
  190MOL0     H25604   6.622   2.787   4.342  0.7953 -0.6891 -2.4117
  190MOL0     H25605   6.627   2.853   4.183 -1.3064  0.3505  0.2764
  190MOL0     H25606   6.490   3.006   4.400 -0.8039 -0.1527 -1.1609
  190MOL0     H25607   6.424   2.907   4.270 -1.9376  0.8480  0.7484
  190MOL0     H25608   6.606   3.150   4.219 -0.6761  3.3512  0.7116
  190MOL0     H25609   6.443   3.182   4.263  0.1543 -0.8301  0.5972
  190MOL0     H25610   6.418   2.936   3.912 -0.1905 -0.0097  0.7297
  190MOL0     H25611   6.116   2.830   3.728 -0.7559  1.6199  1.3428
  190MOL0     H25612   6.289   2.840   3.724  2.2448 -1.1408  2.6349
  190MOL0     H25613   6.227   2.726   3.832 -0.6516  0.3157  1.7782
  190MOL0     H25614   5.761   2.864   4.141  0.3746 -1.4447 -0.1831
  190MOL0     H25615   5.517   2.826   4.193  0.1531 -0.6859 -0.8631
  190MOL0     H25616   5.285   2.778   4.155  1.0911 -0.0678  1.6419
  190MOL0     H25617   5.267   2.929   4.246  1.1394 -2.9437  0.8489
  190MOL0     H25618   5.060   2.835   4.048  0.7546  1.6995 -1.3322
  190MOL0     H25619   5.069   2.811   4.219 -1.2830  0.5695 -0.0372
  190MOL0     H25620   5.038   3.064   4.062 -1.2024 -0.7509  0.5102
  190MOL0     H25621   5.076   3.081   4.233 -0.4563  2.0317 -1.7277
  190MOL0     H25622   4.875   2.935   4.285 -0.4553  0.6939  1.4491
  190MOL0     H25623   4.838   3.094   4.226 -0.3175 -0.2996  1.1066
  190MOL0     H25624   4.834   2.840   4.059 -1.6522 -0.8216 -0.8323
  190MOL0     H25625   4.808   2.999   3.990 -0.6833 -0.2851  0.0321
  190MOL0     H25626   4.609   2.857   4.043  1.0289 -1.5246  1.4828
  190MOL0     H25627   4.623   2.895   4.212  1.3060  0.0737  0.0010
  190MOL0     H25628   4.511   3.053   4.006 -0.7068  4.5166 -1.3992
  190MOL0     H25629   4.638   3.154   4.083  0.9733 -1.0679 -0.0573
  190MOL0     H25630   4.424   3.191   4.191 -2.5285 -1.1511 -1.7431
  190MOL0     H25631   4.535   3.113   4.297 -0.4634  2.0712  0.6475
  190MOL0     H25632   5.432   3.112   3.891  0.4145 -0.7182 -0.0462
  190MOL0     H25633   5.679   3.135   3.841 -1.3970  0.1294 -0.8565
  190MOL0     H25634   6.015   3.127   4.111 -0.6144 -1.9699  0.4173
  190MOL0     H25635   6.235   3.169   4.206  0.4722  0.3037 -1.7662
  190MOL0     H25636   8.113   2.994   4.547 -0.6155 -2.0147  0.2271
  190MOL0     H25637   8.268   3.079   4.725  0.0367 -1.0706 -3.3644
  190MOL0     H25638   8.575   2.855   5.083  0.6823 -0.3689  0.0158
  190MOL0     H25639   8.726   2.949   5.236 -0.5223 -1.7067  0.1852
  190MOL0     H25640   8.628   3.309   5.477 -2.3298 -1.6849 -2.3973
  190MOL0     H25641   8.796   3.282   5.517  1.3011  0.9514 -1.2263
  190MOL0     H25642   8.769   3.494   5.384 -1.3742 -1.6023  3.2745
  190MOL0     H25643   8.692   3.416   5.250  0.1508  1.0723  0.9992
  190MOL0     H25644   8.908   3.267   5.218  0.3051  0.5462 -1.3085
  190MOL0     H25645   8.977   3.347   5.360 -0.1964  1.5962  0.0451
  190MOL0     H25646   8.926   3.567   5.250  2.3798 -0.5113  1.6336
  190MOL0     H25647   8.896   3.470   5.098  0.8936 -1.5281  0.1846
  190MOL0     H25648   9.315   3.434   5.100  0.0092  1.3747 -0.1787
  190MOL0     H25649   8.471   3.280   5.335  3.6940  2.2301  0.2823
  190MOL0     H25650   8.299   3.180   5.186  0.7651  1.8938  0.7325
  191MOL0     O25651   1.684   9.028   8.929  0.1681  0.4168 -0.1591
  191MOL0     C25652   1.723   8.990   9.036 -0.1027 -0.5311 -0.2883
  191MOL0     O25653   1.661   8.995   9.159  0.3130  0.0135 -0.1561
  191MOL0     C25654   1.523   9.008   9.158 -0.2358 -0.1683  0.2512
  191MOL0     C25655   1.464   9.127   9.116 -0.1459 -0.0705 -0.7707
  191MOL0     C25656   1.323   9.140   9.113  1.2842 -0.7678 -0.9683
  191MOL0     C25657   1.241   9.044   9.181 -1.0068  0.7646  0.1593
  191MOL0     O25658   1.099   9.054   9.184  0.1389 -0.0228  0.9162
  191MOL0     C25659   1.024   8.931   9.194  0.0738 -0.0085  0.6470
  191MOL0     C25660   0.876   8.970   9.175  0.7663  0.6626 -0.3897
  191MOL0     C25661   0.807   8.838   9.153  0.6737  1.1233 -0.2278
  191MOL0     C25662   0.655   8.858   9.107 -0.0422 -0.1500 -0.4683
  191MOL0     C25663   0.557   8.762   9.166 -0.6133 -0.0232 -0.3502
  191MOL0     C25664   0.424   8.792   9.106 -0.4253  0.3600 -0.3112
  191MOL0     C25665   0.307   8.701   9.164 -0.0269 -0.1749 -0.2529
  191MOL0     C25666   0.300   8.568   9.093 -0.5842  0.4962 -0.0797
  191MOL0     N25667   0.182   8.493   9.135  0.4611  0.2216  0.2927
  191MOL0     C25668   0.124   8.405   9.044 -0.0702 -0.8785 -0.8003
  191MOL0     C25669   0.039   8.327   9.113  0.6968 -0.5109  0.1728
  191MOL0     C25670  -0.058   8.225   9.051 -0.7661 -0.2134 -0.1896
  191MOL0     C25671  -0.189   8.291   9.003  0.8516 -0.2023 -0.0935
  191MOL0     C25672  -0.288   8.306   9.130  0.2444  0.2505  0.2886
  191MOL0     C25673  -0.409   8.378   9.078 -0.6317  0.6062  0.3264
  191MOL0     O25674  -0.515   8.372   9.175  0.5597  1.1666 -0.0722
  191MOL0     C25675  -0.642   8.419   9.129 -0.3151 -0.0265 -0.3520
  191MOL0     C25676  -0.662   8.498   9.014  0.5364  0.9859 -0.7743
  191MOL0     C25677  -0.795   8.541   8.976 -0.0402 -0.1455  0.3126
  191MOL0     C25678  -0.786   8.606   8.845  0.5000 -0.3309  0.0882
  191MOL0     C25679  -0.906   8.507   9.059 -0.2637 -0.7113  0.1624
  191MOL0     C25680  -1.046   8.542   9.016  0.3697  0.1857 -0.4589
  191MOL0     O25681  -1.075   8.619   8.906 -0.2318  0.3152  0.0215
  191MOL0     C25682  -1.206   8.659   8.878  0.1067  0.9947 -0.1612
  191MOL0     C25683  -1.280   8.731   8.971 -0.1206  0.9043  0.4590
  191MOL0     C25684  -1.401   8.789   8.928 -0.4447 -0.3384 -0.3105
  191MOL0     C25685  -1.445   8.775   8.800  0.8788 -0.1288  0.0271
  191MOL0     O25686  -1.551   8.845   8.753  0.0789 -0.3692 -0.3648
  191MOL0     C25687  -1.670   8.768   8.756  0.8552 -0.0825 -0.8208
  191MOL0     C25688  -1.786   8.837   8.679 -0.6465 -0.2793  0.0985
  191MOL0     C25689  -1.919   8.756   8.687 -0.1631 -0.3712 -0.0329
  191MOL0     C25690  -2.021   8.796   8.579 -0.1995 -0.6579  0.0245
  191MOL0     C25691  -2.159   8.755   8.621 -0.1522 -0.2475  0.0351
  191MOL0     C25692  -2.170   8.602   8.630 -0.9132 -0.3041 -1.0514
  191MOL0     C25693  -2.308   8.551   8.623  0.3817  0.3863 -0.0606
  191MOL0     C25694  -2.352   8.532   8.474 -0.3278  0.2497 -0.0690
  191MOL0    Cl25695  -2.528   8.504   8.483  0.0902  0.2296 -0.2965
  191MOL0     C25696  -1.368   8.695   8.709 -1.0812 -0.0045 -0.4114
  191MOL0     C25697  -1.247   8.639   8.754 -0.2391  0.1195  0.2271
  191MOL0     O25698  -1.132   8.503   9.094  0.8000 -0.2305 -0.1457
  191MOL0     C25699  -0.882   8.434   9.182 -0.8879 -0.0005  0.7528
  191MOL0     C25700  -0.755   8.386   9.212  0.1017 -0.5030  1.1428
  191MOL0     N25701   0.035   8.375   9.245  0.0099 -0.9909 -0.6188
  191MOL0     N25702   0.129   8.468   9.259 -0.9987  0.3071 -0.0754
  191MOL0     C25703   1.309   8.934   9.242  0.1972  0.8577 -0.3235
  191MOL0     C25704   1.443   8.922   9.236 -0.3297  0.4649  0.3145
  191MOL0     C25705   1.862   8.942   9.035 -0.0587  0.2321 -0.0162
  191MOL0     C25706   1.953   8.947   8.929 -0.1041 -0.1969  0.0056
  191MOL0     C25707   2.087   8.895   8.937  0.7982 -0.0024  0.3276
  191MOL0     C25708   2.129   8.832   9.051 -0.0274  0.5839 -0.4167
  191MOL0     O25709   2.249   8.770   9.067  0.1095 -0.3907 -0.0947
  191MOL0     C25710   2.328   8.725   8.957 -0.6496  0.2435 -0.0894
  191MOL0     C25711   2.455   8.657   9.010  0.2894  0.6673  1.0692
  191MOL0     C25712   2.431   8.529   9.089 -0.1401  0.3549  0.5658
  191MOL0     C25713   2.556   8.459   9.142  0.9231  0.2420  0.9226
  191MOL0     C25714   2.573   8.487   9.285 -0.1831  0.0025  0.1423
  191MOL0     C25715   2.597   8.509   9.405  0.3675 -0.0060  0.2951
  191MOL0     C25716   2.040   8.829   9.158  0.2838  0.1354 -0.1354
  191MOL0     C25717   1.911   8.877   9.151 -0.7017 -0.0022  0.4116
  191MOL0     H25718   1.532   9.203   9.081 -0.1191 -0.2654 -1.1436
  191MOL0     H25719   1.276   9.229   9.072 -0.3035  0.2399  2.6430
  191MOL0     H25720   1.060   8.863   9.116  0.3909 -0.8827  1.5298
  191MOL0     H25721   1.039   8.876   9.287 -0.8268 -0.2608  0.6489
  191MOL0     H25722   0.829   9.010   9.266 -0.7635  0.0625 -0.8945
  191MOL0     H25723   0.877   9.037   9.089  2.8264  3.7213  1.7804
  191MOL0     H25724   0.861   8.786   9.073 -1.8255 -0.0149 -1.2638
  191MOL0     H25725   0.818   8.772   9.241 -1.2950  2.5761  1.1989
  191MOL0     H25726   0.623   8.957   9.141 -0.7318 -0.2043 -0.9157
  191MOL0     H25727   0.655   8.864   8.997  1.3404 -0.7436 -0.5208
  191MOL0     H25728   0.583   8.657   9.152 -0.7989 -0.2427  0.8316
  191MOL0     H25729   0.558   8.783   9.274 -1.0487  1.8630 -0.6792
  191MOL0     H25730   0.392   8.893   9.134 -2.2627 -0.2193 -0.1504
  191MOL0     H25731   0.441   8.778   8.999  4.7993  0.6600  0.2187
  191MOL0     H25732   0.320   8.681   9.271 -0.9142  3.1770  0.6026
  191MOL0     H25733   0.218   8.759   9.139 -0.2551  0.0492  0.9944
  191MOL0     H25734   0.392   8.511   9.110 -1.6112 -2.9089 -4.3319
  191MOL0     H25735   0.291   8.575   8.985 -1.9007 -2.9628 -0.3387
  191MOL0     H25736   0.133   8.408   8.936  2.6120  1.6454 -0.6187
  191MOL0     H25737  -0.013   8.175   8.965  0.5287  0.1066  0.2903
  191MOL0     H25738  -0.082   8.152   9.129 -0.2255  0.6744  0.8297
  191MOL0     H25739  -0.241   8.217   8.940 -1.4863  0.0274  1.4323
  191MOL0     H25740  -0.168   8.384   8.950 -3.2783  1.2305  0.3936
  191MOL0     H25741  -0.238   8.359   9.212  1.8638 -0.3797 -0.2354
  191MOL0     H25742  -0.313   8.209   9.172  1.0002  0.2219  0.7085
  191MOL0     H25743  -0.438   8.327   8.985 -1.5159 -0.7471  1.2946
  191MOL0     H25744  -0.388   8.482   9.054 -1.5972  0.3708 -1.7647
  191MOL0     H25745  -0.577   8.506   8.947  0.5869  1.9581 -0.6138
  191MOL0     H25746  -0.686   8.649   8.833  0.6009  0.2540  2.5438
  191MOL0     H25747  -0.819   8.536   8.767  1.1011  0.2860 -0.7469
  191MOL0     H25748  -0.855   8.691   8.847  0.0712 -0.6497  3.3579
  191MOL0     H25749  -1.243   8.732   9.072 -0.2770 -2.1995  0.6377
  191MOL0     H25750  -1.459   8.851   8.995  0.4048 -0.2850  0.3889
  191MOL0     H25751  -1.655   8.668   8.716 -2.0578  0.1179 -2.6699
  191MOL0     H25752  -1.697   8.757   8.862  3.1110  0.9665 -0.0691
  191MOL0     H25753  -1.789   8.943   8.709 -1.2896 -0.5539  1.0137
  191MOL0     H25754  -1.753   8.840   8.575  0.0642 -0.2285  0.3126
  191MOL0     H25755  -1.961   8.790   8.782  1.4755  1.6572  0.0590
  191MOL0     H25756  -1.892   8.651   8.673  2.9957  0.7364 -4.5679
  191MOL0     H25757  -2.034   8.904   8.571 -0.7089 -0.6629  0.6783
  191MOL0     H25758  -1.989   8.753   8.484  1.5792 -1.4577  0.9289
  191MOL0     H25759  -2.232   8.797   8.550 -2.4819  0.2825  2.5882
  191MOL0     H25760  -2.185   8.806   8.714 -0.8073  1.0636 -0.8416
  191MOL0     H25761  -2.118   8.560   8.544  0.3350  2.0651 -1.5355
  191MOL0     H25762  -2.112   8.572   8.718  0.8573  0.5510 -1.8611
  191MOL0     H25763  -2.361   8.630   8.678  4.1753  1.7311  2.0485
  191MOL0     H25764  -2.320   8.459   8.681 -0.7165 -0.1768 -1.1308
  191MOL0     H25765  -2.306   8.446   8.424  1.1787  0.6615  0.5467
  191MOL0     H25766  -2.315   8.622   8.424  2.0164 -1.7799 -2.3908
  191MOL0     H25767  -1.408   8.691   8.608  1.4265 -0.2161 -1.4489
  191MOL0     H25768  -1.181   8.580   8.691  0.7775 -0.5385  1.8421
  191MOL0     H25769  -0.961   8.418   9.255 -0.1697  0.2707  1.6077
  191MOL0     H25770  -0.739   8.341   9.309 -0.2597 -0.6236  1.1489
  191MOL0     H25771   1.253   8.862   9.302 -2.9476  1.5108 -2.2249
  191MOL0     H25772   1.507   8.850   9.287 -0.6802 -1.5197 -1.8827
  191MOL0     H25773   1.927   9.002   8.840 -1.5571 -0.3292  0.3348
  191MOL0     H25774   2.154   8.924   8.857  1.5333  0.6652  1.1601
  191MOL0     H25775   2.275   8.651   8.897  0.0500 -0.5829  0.2869
  191MOL0     H25776   2.361   8.803   8.889 -0.6864  0.7060  0.4120
  191MOL0     H25777   2.515   8.726   9.071 -2.9900  4.5147  0.3556
  191MOL0     H25778   2.514   8.618   8.927 -1.3460 -0.5265  0.4150
  191MOL0     H25779   2.397   8.450   9.022  1.7909  1.2909 -1.6535
  191MOL0     H25780   2.364   8.562   9.169 -2.3377  1.7711 -1.7305
  191MOL0     H25781   2.636   8.496   9.078 -0.4685  0.8392 -0.5528
  191MOL0     H25782   2.537   8.353   9.125 -1.4179  0.5059  1.4958
  191MOL0     H25783   2.624   8.525   9.508 -2.2751 -1.2902  1.2754
  191MOL0     H25784   2.085   8.786   9.248  1.7808  1.1895 -0.3522
  191MOL0     H25785   1.858   8.878   9.246  1.1584 -0.1772  1.4952
  192MOL0     O25786   2.361   3.380   3.304  0.4462  0.2133  0.3772
  192MOL0     C25787   2.266   3.301   3.335 -0.4605  0.4976  0.6460
  192MOL0     O25788   2.222   3.203   3.253  0.0962  0.4211 -1.0279
  192MOL0     C25789   2.260   3.212   3.127 -0.3153  0.4316  0.0621
  192MOL0     C25790   2.387   3.166   3.075 -1.1455 -0.1717 -0.1157
  192MOL0     C25791   2.429   3.188   2.941 -0.4804  0.4220  0.1185
  192MOL0     C25792   2.345   3.257   2.852 -0.8909 -0.0181  1.2353
  192MOL0     O25793   2.376   3.284   2.725  0.0259 -0.6054 -0.3155
  192MOL0     C25794   2.468   3.197   2.666 -0.5531 -0.4909  1.5379
  192MOL0     C25795   2.476   3.241   2.515  0.5162 -0.8917 -0.1287
  192MOL0     C25796   2.546   3.379   2.491  0.1917 -0.0138  0.1521
  192MOL0     C25797   2.533   3.423   2.339 -0.4828  0.7253  0.2538
  192MOL0     C25798   2.622   3.554   2.326 -0.0278 -0.2899  0.0115
  192MOL0     C25799   2.614   3.611   2.189  0.3177 -0.1613  0.1124
  192MOL0     C25800   2.670   3.525   2.077  0.4528 -0.1612 -0.2304
  192MOL0     C25801   2.825   3.533   2.068  0.3142  0.5449 -0.5856
  192MOL0     N25802   2.894   3.478   2.185 -0.5389 -0.0321 -0.3698
  192MOL0     C25803   2.893   3.348   2.225 -0.8346  0.3687  0.2382
  192MOL0     C25804   3.006   3.331   2.304 -0.0938 -0.8485  0.5666
  192MOL0     C25805   3.048   3.213   2.379  0.4875  0.3469  0.0737
  192MOL0     C25806   3.076   3.234   2.526 -0.1578  0.3631 -0.1336
  192MOL0     C25807   2.949   3.291   2.582  0.5903  0.2754 -0.0800
  192MOL0     C25808   2.982   3.328   2.727  0.0211 -0.6314 -0.0715
  192MOL0     O25809   2.868   3.350   2.800 -0.1259  0.5950  0.7774
  192MOL0     C25810   2.895   3.392   2.930  0.6460  1.0048  0.7767
  192MOL0     C25811   2.773   3.378   3.005 -0.2499  1.2542  0.3348
  192MOL0     C25812   2.773   3.438   3.135  1.3693 -0.0006 -0.3109
  192MOL0     C25813   2.636   3.443   3.200  0.4265 -0.3463  0.4900
  192MOL0     C25814   2.883   3.498   3.199  0.9267 -0.3431 -0.1952
  192MOL0     C25815   2.883   3.556   3.329 -0.0036  0.2442  1.1052
  192MOL0     O25816   2.780   3.515   3.416  0.6511 -0.2447 -0.5275
  192MOL0     C25817   2.768   3.579   3.539  0.3983  0.5454 -0.1684
  192MOL0     C25818   2.872   3.604   3.629  0.0785  0.1615 -0.5112
  192MOL0     C25819   2.846   3.666   3.753  0.5354 -0.3309  0.2529
  192MOL0     C25820   2.717   3.683   3.801 -0.0349 -0.4198 -0.2082
  192MOL0     O25821   2.685   3.734   3.924  0.1378 -0.1783  0.3557
  192MOL0     C25822   2.767   3.841   3.970 -1.2461  0.3449 -0.6121
  192MOL0     C25823   2.691   3.894   4.098  0.5139 -0.1461  0.9322
  192MOL0     C25824   2.594   4.005   4.053 -0.6859  0.5360  0.4611
  192MOL0     C25825   2.518   4.078   4.164  0.7269  0.8669  0.2158
  192MOL0     C25826   2.427   4.190   4.111 -0.5783  1.0439 -0.6098
  192MOL0     C25827   2.363   4.261   4.239 -0.3113 -0.5001  0.0473
  192MOL0     C25828   2.260   4.371   4.208  0.6877 -0.5664 -0.5809
  192MOL0     C25829   2.177   4.416   4.331 -0.5164 -0.2504  0.9144
  192MOL0    Cl25830   2.036   4.515   4.269 -0.2216 -0.1622 -0.4089
  192MOL0     C25831   2.610   3.643   3.716 -0.1103  0.5314  1.3882
  192MOL0     C25832   2.638   3.603   3.582 -0.0061  0.5468 -0.1963
  192MOL0     O25833   2.968   3.636   3.370 -0.0870  0.3409  0.4309
  192MOL0     C25834   3.006   3.498   3.119  0.4750 -0.1923 -1.0595
  192MOL0     C25835   3.011   3.446   2.986 -0.0837  0.1237  0.1720
  192MOL0     N25836   3.067   3.448   2.307  1.0123 -0.5665  0.2268
  192MOL0     N25837   2.999   3.538   2.255  1.1116  0.9692  1.0095
  192MOL0     C25838   2.222   3.302   2.904  0.4685  0.2837  0.3528
  192MOL0     C25839   2.181   3.287   3.044 -0.2128  0.2600 -0.4697
  192MOL0     C25840   2.184   3.330   3.453  0.3491  0.1244  0.2045
  192MOL0     C25841   2.223   3.433   3.540 -0.2407  0.1884 -0.5353
  192MOL0     C25842   2.157   3.465   3.653  0.3109 -0.8066  0.6304
  192MOL0     C25843   2.042   3.391   3.696  0.4671  0.5285 -0.3877
  192MOL0     O25844   1.988   3.438   3.816  0.3183  0.2393 -0.4461
  192MOL0     C25845   1.870   3.367   3.878 -1.0199 -0.0193  0.3010
  192MOL0     C25846   1.839   3.438   4.009 -0.3110 -0.0443 -0.1970
  192MOL0     C25847   1.806   3.585   3.980  0.4718  0.2941 -0.0739
  192MOL0     C25848   1.779   3.656   4.106 -0.1272 -0.5693 -1.0496
  192MOL0     C25849   1.740   3.796   4.091  0.3513 -0.3414 -0.1001
  192MOL0     C25850   1.715   3.906   4.051  0.4328 -0.6555 -0.3036
  192MOL0     C25851   2.002   3.284   3.612  0.1422  0.5895 -0.1082
  192MOL0     C25852   2.068   3.259   3.489 -0.1896  0.7962  0.9157
  192MOL0     H25853   2.449   3.106   3.141  0.0057 -2.4939 -3.0452
  192MOL0     H25854   2.528   3.148   2.922 -1.0704 -1.4547  0.7216
  192MOL0     H25855   2.568   3.201   2.711 -0.4521  5.7825  1.5323
  192MOL0     H25856   2.420   3.099   2.669  0.2622 -1.0514 -1.0691
  192MOL0     H25857   2.516   3.165   2.447 -0.3810 -0.1765 -1.5184
  192MOL0     H25858   2.371   3.251   2.484 -0.0523 -2.0997  1.2668
  192MOL0     H25859   2.496   3.448   2.560  0.6459 -2.7159  3.4791
  192MOL0     H25860   2.653   3.368   2.513  0.1215 -2.6794 -0.4252
  192MOL0     H25861   2.571   3.344   2.274 -1.2243 -0.8899  1.6970
  192MOL0     H25862   2.431   3.440   2.304  0.4891 -0.1547 -3.3597
  192MOL0     H25863   2.578   3.629   2.391  1.2477  0.8310 -0.3674
  192MOL0     H25864   2.722   3.529   2.364 -1.2937 -2.2284  2.3299
  192MOL0     H25865   2.509   3.634   2.167  0.0415 -0.4119  1.1318
  192MOL0     H25866   2.663   3.709   2.194 -1.6154  0.7906  2.5822
  192MOL0     H25867   2.637   3.421   2.080  1.1744 -0.3921  0.0841
  192MOL0     H25868   2.627   3.568   1.986  0.3993 -0.9578 -0.5833
  192MOL0     H25869   2.857   3.636   2.050  1.1648  0.4597  0.3806
  192MOL0     H25870   2.860   3.470   1.986 -0.7326  1.7288 -1.9915
  192MOL0     H25871   2.817   3.272   2.206  2.9985 -3.6152 -0.6617
  192MOL0     H25872   2.962   3.147   2.366 -0.3777  1.3319  0.6452
  192MOL0     H25873   3.135   3.164   2.333 -0.9888 -2.0606 -0.2906
  192MOL0     H25874   3.157   3.301   2.552 -1.0571  1.2605  0.4207
  192MOL0     H25875   3.109   3.137   2.565 -4.1194 -0.2264  2.3383
  192MOL0     H25876   2.870   3.215   2.583 -1.2781  2.0943  1.1386
  192MOL0     H25877   2.897   3.370   2.526  1.0943  0.3622 -0.4262
  192MOL0     H25878   3.042   3.419   2.733  0.5635 -0.9336 -0.7894
  192MOL0     H25879   3.024   3.240   2.776  0.4926 -0.6940 -0.5874
  192MOL0     H25880   2.693   3.328   2.952  1.7347 -1.9096  0.0102
  192MOL0     H25881   2.643   3.374   3.285  2.4854  0.9417  1.4485
  192MOL0     H25882   2.609   3.544   3.231 -2.5052 -2.0768  4.2602
  192MOL0     H25883   2.561   3.411   3.128  1.5234  0.0250 -0.8700
  192MOL0     H25884   2.973   3.575   3.603 -0.0939 -1.5915  0.5876
  192MOL0     H25885   2.928   3.700   3.815 -0.8869  1.0815  1.4530
  192MOL0     H25886   2.863   3.803   4.006 -1.5655 -0.2515 -0.3799
  192MOL0     H25887   2.785   3.918   3.894  0.1209 -0.9995 -1.7388
  192MOL0     H25888   2.641   3.808   4.143 -1.6871  0.0035 -1.0436
  192MOL0     H25889   2.768   3.932   4.166  1.4473 -3.0610  1.6338
  192MOL0     H25890   2.529   3.958   3.978  3.4238 -1.0444 -2.5032
  192MOL0     H25891   2.657   4.080   4.004 -1.5160  2.0618  1.6677
  192MOL0     H25892   2.452   4.014   4.224  0.8636  1.3103  0.8448
  192MOL0     H25893   2.592   4.115   4.236  0.0906 -0.8855  1.8668
  192MOL0     H25894   2.346   4.146   4.052  0.0852 -0.0922 -0.6997
  192MOL0     H25895   2.488   4.258   4.050  1.4233 -1.3911 -1.4935
  192MOL0     H25896   2.317   4.179   4.295  0.1856 -3.1817 -3.0885
  192MOL0     H25897   2.443   4.309   4.296  0.0829  0.0558 -0.9410
  192MOL0     H25898   2.190   4.336   4.132  1.3857  0.9819 -2.0211
  192MOL0     H25899   2.319   4.458   4.178  1.6321 -1.1899 -0.6082
  192MOL0     H25900   2.235   4.478   4.400 -1.3188 -0.3713  1.7208
  192MOL0     H25901   2.147   4.321   4.376  1.1490 -1.5221 -0.5143
  192MOL0     H25902   2.507   3.640   3.751 -1.2088 -0.4144 -1.5767
  192MOL0     H25903   2.549   3.584   3.522  0.3050  1.1581 -0.8653
  192MOL0     H25904   3.092   3.548   3.161  1.8772 -0.4488 -3.4424
  192MOL0     H25905   3.101   3.461   2.928 -0.7964 -0.9520 -1.2810
  192MOL0     H25906   2.164   3.352   2.828  0.4247 -0.1798  0.0764
  192MOL0     H25907   2.088   3.330   3.078  0.8178  1.5310  0.8762
  192MOL0     H25908   2.314   3.490   3.523  0.0690 -0.7064 -2.0678
  192MOL0     H25909   2.184   3.552   3.712 -0.1007  0.4982 -1.0438
  192MOL0     H25910   1.782   3.390   3.816  0.7678  3.5299 -1.1657
  192MOL0     H25911   1.888   3.260   3.893 -1.7795 -0.1383  0.3934
  192MOL0     H25912   1.920   3.431   4.082  0.8793 -1.5134 -1.5967
  192MOL0     H25913   1.755   3.389   4.061  0.8396  0.4395  2.2766
  192MOL0     H25914   1.708   3.576   3.933  0.6476 -0.8883 -0.2365
  192MOL0     H25915   1.873   3.637   3.911 -1.0857  1.4110 -0.8007
  192MOL0     H25916   1.867   3.643   4.171 -1.1403 -0.1100  0.4752
  192MOL0     H25917   1.697   3.612   4.163  2.1215 -3.1949  0.3983
  192MOL0     H25918   1.687   4.001   4.009  0.6323  0.0987  1.2236
  192MOL0     H25919   1.924   3.216   3.643 -0.2176  1.3562  0.7069
  192MOL0     H25920   2.020   3.184   3.426  0.3278  1.7380 -0.6395
  193MOL0     O25921  10.169   4.219   5.250  0.3989 -0.0564 -0.3104
  193MOL0     C25922  10.132   4.209   5.370  0.6365 -0.3502 -0.7467
  193MOL0     O25923  10.012   4.176   5.419  0.2478 -0.1364 -0.1888
  193MOL0     C25924   9.912   4.175   5.330  0.3649 -0.5352  0.9785
  193MOL0     C25925   9.804   4.271   5.338 -1.3579  0.7845  0.3251
  193MOL0     C25926   9.713   4.277   5.239 -0.3380 -0.6081  0.5102
  193MOL0     C25927   9.701   4.178   5.146  0.0466 -0.3324 -0.2193
  193MOL0     O25928   9.602   4.183   5.047 -0.0908  0.5875  0.2326
  193MOL0     C25929   9.589   4.313   4.984  0.2304  0.3762 -0.5214
  193MOL0     C25930   9.487   4.303   4.867  0.0726 -0.7927 -0.1316
  193MOL0     C25931   9.346   4.287   4.932 -0.4249  0.5526  0.3517
  193MOL0     C25932   9.239   4.292   4.822  0.7750  0.7741 -0.4077
  193MOL0     C25933   9.105   4.240   4.872  0.1192  0.5672 -0.6160
  193MOL0     C25934   9.000   4.265   4.771  0.1964 -0.2954  0.1339
  193MOL0     C25935   8.854   4.250   4.821  0.4085  0.1181 -0.1158
  193MOL0     C25936   8.754   4.276   4.708  0.3662 -0.4866 -0.8304
  193MOL0     N25937   8.615   4.283   4.766 -0.5456 -0.1443  0.0225
  193MOL0     C25938   8.540   4.198   4.850 -0.0628  0.6058 -0.3596
  193MOL0     C25939   8.463   4.274   4.927  0.4168 -0.3412 -0.0327
  193MOL0     C25940   8.367   4.235   5.041  0.3620  0.1460  1.3476
  193MOL0     C25941   8.242   4.156   5.006 -0.3738  0.5112  0.4030
  193MOL0     C25942   8.162   4.243   4.900  0.4010 -0.5566 -0.4321
  193MOL0     C25943   8.038   4.162   4.861 -0.0083 -1.0866 -0.0546
  193MOL0     O25944   7.937   4.180   4.955 -0.8941  0.1574  1.0341
  193MOL0     C25945   7.809   4.140   4.933  0.1197  1.0093  0.1723
  193MOL0     C25946   7.778   4.044   4.839  0.6645  0.8265 -0.0809
  193MOL0     C25947   7.642   3.999   4.813 -0.9425  0.1359  0.4136
  193MOL0     C25948   7.627   3.876   4.736  0.6229  0.6195  0.3674
  193MOL0     C25949   7.533   4.064   4.884 -0.9999  0.0251 -0.3196
  193MOL0     C25950   7.394   4.040   4.853  0.5651 -0.2299 -0.7364
  193MOL0     O25951   7.310   4.126   4.922  0.6402 -0.6798  0.8117
  193MOL0     C25952   7.171   4.107   4.939  0.1729 -0.2787  0.1932
  193MOL0     C25953   7.116   4.218   5.012 -1.0404  0.5288  0.0969
  193MOL0     C25954   6.985   4.210   5.055  1.1908  0.6606  0.4274
  193MOL0     C25955   6.911   4.097   5.032  0.0094  0.2168 -0.1792
  193MOL0     O25956   6.790   4.077   5.097 -0.0627 -0.3475 -0.1004
  193MOL0     C25957   6.718   4.199   5.110 -0.3491  0.6556  1.2777
  193MOL0     C25958   6.572   4.146   5.158 -1.0107  0.5028 -0.0780
  193MOL0     C25959   6.476   4.234   5.241 -0.0617 -0.2940 -0.2726
  193MOL0     C25960   6.348   4.167   5.260  0.1235 -0.2050  0.4238
  193MOL0     C25961   6.247   4.243   5.353  0.2370 -0.3693 -0.3584
  193MOL0     C25962   6.114   4.164   5.366 -0.0124 -0.1700 -0.7289
  193MOL0     C25963   6.132   4.012   5.397  0.1917 -0.8752 -0.8473
  193MOL0     C25964   6.013   3.944   5.440  0.2602 -0.4971 -0.6693
  193MOL0    Cl25965   6.046   3.765   5.437  0.1358 -0.1592  0.8576
  193MOL0     C25966   6.965   3.990   4.962  0.1818  0.3329  0.5034
  193MOL0     C25967   7.090   3.999   4.902  0.1943  1.0133  0.1488
  193MOL0     O25968   7.358   3.959   4.770  0.3108 -0.1270 -0.6220
  193MOL0     C25969   7.566   4.166   4.979 -0.0103 -0.4732 -1.2197
  193MOL0     C25970   7.706   4.194   5.004  0.3104 -1.2417 -0.9411
  193MOL0     N25971   8.473   4.402   4.890 -0.0679 -0.0707 -0.4398
  193MOL0     N25972   8.560   4.404   4.798  0.1070  0.0886  0.0697
  193MOL0     C25973   9.790   4.070   5.149  0.4523  0.0459 -1.0146
  193MOL0     C25974   9.895   4.065   5.246  0.4584  0.2240  0.6216
  193MOL0     C25975  10.233   4.227   5.484  0.6398 -0.4316 -0.1407
  193MOL0     C25976  10.364   4.274   5.451  0.0764  0.2784  0.0329
  193MOL0     C25977  10.457   4.297   5.550  0.3193  1.5569 -0.4776
  193MOL0     C25978  10.419   4.280   5.685 -0.2379 -0.2392 -0.5711
  193MOL0     O25979  10.519   4.295   5.777  0.1374 -0.1016  0.0425
  193MOL0     C25980  10.486   4.308   5.915  0.3080  0.0524 -0.3306
  193MOL0     C25981  10.617   4.310   5.995 -0.3065 -0.4127 -0.0335
  193MOL0     C25982  10.716   4.416   5.964  0.5265  0.7722  0.3086
  193MOL0     C25983  10.724   4.535   6.050 -0.8146  0.4319 -0.5498
  193MOL0     C25984  10.823   4.632   6.005  0.1411  0.0176 -0.5270
  193MOL0     C25985  10.903   4.728   5.987 -0.2968 -0.3872  0.0751
  193MOL0     C25986  10.289   4.246   5.712  0.0533 -0.5750 -0.2696
  193MOL0     C25987  10.194   4.217   5.619 -0.8787 -0.2291  0.2587
  193MOL0     H25988   9.820   4.358   5.401  0.1988  0.8792 -0.1527
  193MOL0     H25989   9.647   4.364   5.243 -1.2537 -1.1794 -1.1324
  193MOL0     H25990   9.550   4.383   5.059 -1.7657 -0.7678 -0.4381
  193MOL0     H25991   9.685   4.357   4.954  0.6031 -0.4960 -0.6359
  193MOL0     H25992   9.492   4.399   4.814  0.6970 -0.3260  0.7372
  193MOL0     H25993   9.509   4.228   4.791  3.3640 -1.1615  1.0086
  193MOL0     H25994   9.341   4.189   4.979  0.5922 -0.5498 -1.6857
  193MOL0     H25995   9.331   4.372   4.999  2.4067  2.5286 -1.2892
  193MOL0     H25996   9.239   4.395   4.787  2.0120  0.7676 -0.4577
  193MOL0     H25997   9.266   4.232   4.735 -2.3567 -1.2130 -0.1758
  193MOL0     H25998   9.115   4.134   4.899  1.0737  1.2900  2.1831
  193MOL0     H25999   9.075   4.306   4.953  1.8904 -1.1517  1.5525
  193MOL0     H26000   9.008   4.369   4.739 -0.7664 -0.0023  0.7910
  193MOL0     H26001   9.022   4.192   4.692  0.9577 -1.6622  1.5506
  193MOL0     H26002   8.837   4.148   4.858 -1.1726  0.9328  1.5681
  193MOL0     H26003   8.838   4.319   4.904 -4.0178  1.1046 -1.5265
  193MOL0     H26004   8.767   4.198   4.632 -0.1802 -1.7137  0.2755
  193MOL0     H26005   8.768   4.376   4.668 -1.0268 -0.1003 -0.3985
  193MOL0     H26006   8.573   4.097   4.867  0.7747  0.9907  0.3642
  193MOL0     H26007   8.418   4.177   5.119  0.5716 -1.0451  0.3543
  193MOL0     H26008   8.330   4.328   5.084  1.8032  0.5269  1.8431
  193MOL0     H26009   8.188   4.147   5.101  2.2925 -2.1412  1.7896
  193MOL0     H26010   8.270   4.057   4.972 -2.2433  0.4863 -1.2622
  193MOL0     H26011   8.213   4.261   4.805 -1.4169  1.7691 -1.0700
  193MOL0     H26012   8.130   4.342   4.934  1.7659 -0.8868  2.0614
  193MOL0     H26013   8.063   4.056   4.852 -2.2471 -1.6823  0.1211
  193MOL0     H26014   8.007   4.200   4.763  1.5465 -3.4048 -1.5572
  193MOL0     H26015   7.859   4.000   4.781  1.8191  3.2574 -0.4321
  193MOL0     H26016   7.570   3.804   4.795  2.4030 -0.7423  0.5067
  193MOL0     H26017   7.584   3.893   4.637 -2.7795 -3.2023  0.9406
  193MOL0     H26018   7.716   3.821   4.706 -1.3896 -2.4366 -0.3861
  193MOL0     H26019   7.193   4.292   5.033  0.5229 -0.1370 -2.6987
  193MOL0     H26020   6.944   4.293   5.112 -3.1561 -0.2256 -1.0022
  193MOL0     H26021   6.766   4.259   5.188  1.0629 -0.8934  1.6327
  193MOL0     H26022   6.707   4.257   5.017 -0.2561 -0.1866  0.7317
  193MOL0     H26023   6.520   4.120   5.066  2.9236  1.3590 -2.7994
  193MOL0     H26024   6.594   4.062   5.224 -0.0856  1.5893  1.0387
  193MOL0     H26025   6.450   4.323   5.181  1.0553  0.2208 -0.0218
  193MOL0     H26026   6.511   4.262   5.340 -1.0368  2.4994 -0.6212
  193MOL0     H26027   6.301   4.148   5.163  0.9623  0.4624 -0.1281
  193MOL0     H26028   6.373   4.074   5.312  2.4038 -0.8366 -1.5864
  193MOL0     H26029   6.227   4.341   5.309  1.4535 -0.3159 -0.8308
  193MOL0     H26030   6.285   4.247   5.455 -2.3412 -0.1893  0.6716
  193MOL0     H26031   6.052   4.221   5.436  1.3024 -0.2548  0.5644
  193MOL0     H26032   6.057   4.170   5.273 -0.4497 -1.5347 -0.5745
  193MOL0     H26033   6.210   3.999   5.471 -0.2124 -0.6287 -0.3694
  193MOL0     H26034   6.179   3.971   5.307  4.0652 -1.4576  1.2655
  193MOL0     H26035   5.931   3.972   5.373  0.2589 -0.7765 -0.7843
  193MOL0     H26036   5.982   3.978   5.539  1.2226 -1.9725  0.1863
  193MOL0     H26037   6.907   3.902   4.939  1.4714 -0.4697  0.2314
  193MOL0     H26038   7.127   3.908   4.856 -0.3233  0.4740  0.7871
  193MOL0     H26039   7.487   4.212   5.038  0.4605 -0.0868 -0.8930
  193MOL0     H26040   7.728   4.264   5.084  2.1181  0.6646 -2.9684
  193MOL0     H26041   9.770   3.998   5.070 -0.2920 -0.2095 -0.5994
  193MOL0     H26042   9.967   3.985   5.261 -2.7016 -2.6332  2.0862
  193MOL0     H26043  10.380   4.277   5.343 -3.0955 -0.8617 -0.5799
  193MOL0     H26044  10.556   4.321   5.511  0.2854 -0.1113 -1.7105
  193MOL0     H26045  10.437   4.405   5.933  1.7565  0.6198  0.7660
  193MOL0     H26046  10.413   4.235   5.951 -0.3643  0.1022 -1.5779
  193MOL0     H26047  10.668   4.213   5.998  1.7308  0.5893 -0.5463
  193MOL0     H26048  10.588   4.333   6.098 -1.0278  3.2675 -0.9095
  193MOL0     H26049  10.709   4.458   5.864  2.4675  1.9649  0.6134
  193MOL0     H26050  10.812   4.362   5.969  0.2402  0.0949 -1.1030
  193MOL0     H26051  10.732   4.502   6.154 -3.9274  0.2142 -0.2825
  193MOL0     H26052  10.627   4.585   6.049  0.0856  2.3133  0.6285
  193MOL0     H26053  10.973   4.805   5.959  0.9428 -1.8045 -0.9206
  193MOL0     H26054  10.256   4.225   5.813  2.8421  0.6504  1.0074
  193MOL0     H26055  10.092   4.191   5.646 -0.5303 -0.8507  1.0434
  194MOL0     O26056   4.538   2.779   0.386 -0.0673  0.6318  0.5745
  194MOL0     C26057   4.575   2.666   0.403 -0.5493 -0.0749 -0.1978
  194MOL0     O26058   4.499   2.559   0.446  0.0722  0.1418 -0.3042
  194MOL0     C26059   4.382   2.587   0.511 -0.2186 -0.6161  0.3826
  194MOL0     C26060   4.277   2.494   0.501 -0.7598  0.5286  0.2827
  194MOL0     C26061   4.156   2.512   0.572  0.1681 -0.1892 -0.1528
  194MOL0     C26062   4.149   2.616   0.669  0.0532  0.4244  0.3122
  194MOL0     O26063   4.039   2.647   0.746 -0.8030 -0.1471  0.3959
  194MOL0     C26064   3.915   2.578   0.718  0.2391  0.6719  0.3974
  194MOL0     C26065   3.801   2.674   0.768 -0.5404 -0.2180  0.4253
  194MOL0     C26066   3.819   2.708   0.910 -0.4876  0.1924 -0.6322
  194MOL0     C26067   3.695   2.763   0.982  0.2771  0.2876  0.0574
  194MOL0     C26068   3.720   2.828   1.115  0.5407 -0.7193 -0.0053
  194MOL0     C26069   3.602   2.878   1.189  0.1972  0.2893 -0.3237
  194MOL0     C26070   3.635   2.937   1.328 -0.0981 -0.6541  0.1668
  194MOL0     C26071   3.741   3.053   1.314  0.2801  0.2305  0.5552
  194MOL0     N26072   3.713   3.148   1.203 -0.9398  0.0846 -0.0452
  194MOL0     C26073   3.614   3.233   1.189  0.4061  0.2253  0.7031
  194MOL0     C26074   3.656   3.319   1.090 -0.0682  0.2682  0.4020
  194MOL0     C26075   3.573   3.441   1.047  0.2492 -0.0622  0.1639
  194MOL0     C26076   3.569   3.557   1.141 -0.0357  0.9547  0.1868
  194MOL0     C26077   3.561   3.691   1.069 -0.2681  0.6591  0.8159
  194MOL0     C26078   3.429   3.700   0.993  0.3235 -0.3403  0.0704
  194MOL0     O26079   3.337   3.722   1.099 -0.9592 -0.6983 -0.3343
  194MOL0     C26080   3.208   3.700   1.056  0.3789 -0.6704 -0.6653
  194MOL0     C26081   3.154   3.571   1.093 -0.4076 -0.5541 -0.1750
  194MOL0     C26082   3.021   3.542   1.071 -0.1632 -0.6433 -0.6834
  194MOL0     C26083   2.976   3.409   1.136 -0.7363 -0.7939 -0.5631
  194MOL0     C26084   2.947   3.629   0.980 -0.2278  0.4728 -0.5465
  194MOL0     C26085   2.809   3.594   0.954  0.4506  0.6023  0.6019
  194MOL0     O26086   2.769   3.460   0.943  0.3019 -0.0819  0.5064
  194MOL0     C26087   2.641   3.439   0.912 -0.1548  0.0979 -0.3972
  194MOL0     C26088   2.615   3.415   0.781  0.4401  0.1251 -0.0125
  194MOL0     C26089   2.478   3.405   0.739 -0.7614 -0.7811  0.7382
  194MOL0     C26090   2.372   3.418   0.833  0.5713 -0.4493 -1.0631
  194MOL0     O26091   2.236   3.398   0.800  0.1325 -1.0046  0.5242
  194MOL0     C26092   2.209   3.289   0.713 -0.3577  0.2292  0.0127
  194MOL0     C26093   2.082   3.227   0.768  1.7717  0.5019 -0.2203
  194MOL0     C26094   1.969   3.339   0.770 -0.0224 -0.0772  0.0942
  194MOL0     C26095   1.938   3.394   0.906  0.0990 -0.1831 -0.3702
  194MOL0     C26096   1.870   3.529   0.889 -0.5202 -0.2963  0.2613
  194MOL0     C26097   1.850   3.594   1.016 -0.4618 -0.1782  0.4041
  194MOL0     C26098   1.778   3.725   1.011  0.1288 -0.0440 -0.3795
  194MOL0     C26099   1.770   3.777   1.149  0.0675 -0.1758 -0.2165
  194MOL0    Cl26100   1.649   3.683   1.246  0.1025  0.0742 -0.1460
  194MOL0     C26101   2.409   3.437   0.962 -0.0341 -0.4039  1.1226
  194MOL0     C26102   2.538   3.444   1.009  0.5724  0.6925  0.5789
  194MOL0     O26103   2.738   3.690   0.945 -0.0413  0.1368  0.0786
  194MOL0     C26104   3.011   3.748   0.931  0.0696 -0.0459 -0.4661
  194MOL0     C26105   3.133   3.784   0.966 -0.2237  0.6166 -0.3378
  194MOL0     N26106   3.782   3.275   1.045  0.8621  0.2087  0.2011
  194MOL0     N26107   3.818   3.176   1.117  0.2478  0.0504 -0.2291
  194MOL0     C26108   4.256   2.700   0.680  0.3191  0.8124 -0.6198
  194MOL0     C26109   4.374   2.692   0.607  0.6342 -0.1045  0.7647
  194MOL0     C26110   4.706   2.640   0.340 -0.1028  0.5953  0.3795
  194MOL0     C26111   4.811   2.738   0.355  0.7534 -0.5157  0.4394
  194MOL0     C26112   4.936   2.706   0.318 -0.2782  0.3141 -0.0642
  194MOL0     C26113   4.976   2.577   0.265  0.0839 -0.1940  0.0912
  194MOL0     O26114   5.113   2.556   0.236 -0.0639 -0.4175  0.3480
  194MOL0     C26115   5.181   2.450   0.299 -0.4642 -0.2503  1.3637
  194MOL0     C26116   5.331   2.454   0.269 -0.1159  0.8344 -0.6789
  194MOL0     C26117   5.393   2.597   0.275  0.5065 -0.1130 -0.0705
  194MOL0     C26118   5.545   2.581   0.279 -0.4794 -0.3249  0.8287
  194MOL0     C26119   5.602   2.689   0.358 -0.2523  0.2130 -0.0130
  194MOL0     C26120   5.647   2.787   0.414  0.0082  0.0069  0.3120
  194MOL0     C26121   4.872   2.483   0.253  0.2555  0.5579 -0.1612
  194MOL0     C26122   4.741   2.508   0.295  0.5615  0.1087  0.1310
  194MOL0     H26123   4.298   2.417   0.428  1.2625  0.3227  1.0040
  194MOL0     H26124   4.074   2.445   0.550 -2.1482  2.3196  0.2830
  194MOL0     H26125   3.904   2.559   0.611  1.2360 -0.2949  0.4458
  194MOL0     H26126   3.916   2.480   0.768  0.0550 -0.0768 -0.9975
  194MOL0     H26127   3.813   2.769   0.715  0.4264  0.2827  1.5028
  194MOL0     H26128   3.702   2.633   0.749 -0.1183  0.6368 -5.9303
  194MOL0     H26129   3.854   2.620   0.964  3.5315  3.7130  3.3864
  194MOL0     H26130   3.901   2.780   0.920 -0.7455  0.1745  2.9386
  194MOL0     H26131   3.661   2.838   0.910  0.1475  0.6089  0.4455
  194MOL0     H26132   3.616   2.689   0.997  0.4166 -0.2881 -1.8051
  194MOL0     H26133   3.778   2.764   1.182 -0.7426  1.8264  3.8483
  194MOL0     H26134   3.785   2.914   1.099  0.1475 -0.2494  0.8976
  194MOL0     H26135   3.541   2.950   1.133  0.3945 -0.1689 -1.1392
  194MOL0     H26136   3.542   2.787   1.197  0.1581  0.2607 -0.9355
  194MOL0     H26137   3.541   2.975   1.369  1.7965  3.9667  0.8482
  194MOL0     H26138   3.674   2.860   1.395  1.7457  1.2178  1.3612
  194MOL0     H26139   3.839   3.010   1.289  0.2714 -0.1319  1.1392
  194MOL0     H26140   3.752   3.097   1.413 -3.2073  0.8532  0.7841
  194MOL0     H26141   3.522   3.226   1.246  1.2107  1.8558  2.2980
  194MOL0     H26142   3.598   3.472   0.945 -1.3546  2.0465  0.3471
  194MOL0     H26143   3.470   3.408   1.032  1.1895 -2.4476 -1.7009
  194MOL0     H26144   3.658   3.557   1.205  1.1985  2.0293 -1.4496
  194MOL0     H26145   3.483   3.550   1.208  1.9507 -1.8618  2.6847
  194MOL0     H26146   3.649   3.693   1.005 -2.0331 -1.7213 -1.9510
  194MOL0     H26147   3.579   3.780   1.130 -1.7389  0.7612  1.1408
  194MOL0     H26148   3.405   3.610   0.936  0.9880  0.0059 -0.7960
  194MOL0     H26149   3.435   3.785   0.924  2.3381  0.2638  0.9105
  194MOL0     H26150   3.217   3.501   1.147 -2.3378 -1.4444  1.0010
  194MOL0     H26151   2.999   3.336   1.059  2.8980 -0.7481  0.3051
  194MOL0     H26152   3.038   3.392   1.225 -2.2525 -0.9571  0.5002
  194MOL0     H26153   2.873   3.402   1.173 -0.4326 -1.3368  0.2050
  194MOL0     H26154   2.691   3.404   0.705 -0.5935 -0.8519 -0.9522
  194MOL0     H26155   2.453   3.400   0.633  0.1897  2.9446  0.1931
  194MOL0     H26156   2.192   3.328   0.612 -0.4723 -1.4482 -0.6371
  194MOL0     H26157   2.292   3.218   0.707  0.6831  0.9560  3.4558
  194MOL0     H26158   2.033   3.149   0.709 -2.5000 -0.0045  3.4021
  194MOL0     H26159   2.087   3.180   0.867 -1.0358  3.2881  1.4189
  194MOL0     H26160   1.874   3.306   0.727 -0.9519  0.0912  1.9521
  194MOL0     H26161   2.005   3.418   0.702  1.2533 -0.1513  0.6469
  194MOL0     H26162   1.871   3.329   0.963  0.6001 -0.7338 -0.4027
  194MOL0     H26163   2.032   3.405   0.962  0.5352 -0.3684 -1.0571
  194MOL0     H26164   1.776   3.502   0.840 -0.8884  0.0192  0.7795
  194MOL0     H26165   1.935   3.589   0.825  0.2556 -3.3932 -2.0644
  194MOL0     H26166   1.794   3.521   1.075 -0.4913  0.4098  1.1180
  194MOL0     H26167   1.950   3.609   1.058  0.1652 -0.4445 -0.9603
  194MOL0     H26168   1.684   3.707   0.958 -0.2516 -3.0926  1.1055
  194MOL0     H26169   1.834   3.805   0.960 -2.2140  2.3362  0.5275
  194MOL0     H26170   1.738   3.882   1.146 -0.4442 -0.1705  2.4793
  194MOL0     H26171   1.862   3.780   1.208  0.8935 -1.3757 -1.3777
  194MOL0     H26172   2.333   3.430   1.038  1.2763 -1.1971  2.4185
  194MOL0     H26173   2.560   3.467   1.112  0.2408 -0.1981  0.8621
  194MOL0     H26174   2.957   3.809   0.859 -1.4820  0.0137  0.7072
  194MOL0     H26175   3.161   3.878   0.920 -0.1887  0.8174  0.0859
  194MOL0     H26176   4.249   2.772   0.761 -1.0514  0.6671 -0.5955
  194MOL0     H26177   4.456   2.763   0.616  1.3196  0.4268 -5.4999
  194MOL0     H26178   4.795   2.842   0.381 -2.2071 -0.5348 -0.9243
  194MOL0     H26179   5.015   2.778   0.333 -0.5751  0.5506  0.3814
  194MOL0     H26180   5.169   2.455   0.408  0.2978 -3.3628  1.6931
  194MOL0     H26181   5.145   2.350   0.269 -1.3077  0.0463  1.3500
  194MOL0     H26182   5.333   2.408   0.169 -1.2485  0.5553 -0.5917
  194MOL0     H26183   5.380   2.383   0.336 -2.1147 -0.3101 -0.3397
  194MOL0     H26184   5.359   2.654   0.362  0.6860  0.8333 -0.6046
  194MOL0     H26185   5.360   2.642   0.181  0.6028  0.3350  0.1086
  194MOL0     H26186   5.577   2.589   0.174 -0.1650 -1.4835  0.8269
  194MOL0     H26187   5.580   2.486   0.320  1.9740  0.3898  0.5952
  194MOL0     H26188   5.680   2.882   0.452  2.5238 -0.2519 -1.0070
  194MOL0     H26189   4.902   2.384   0.220  2.0788  0.8277  0.5746
  194MOL0     H26190   4.666   2.429   0.294  0.8677 -0.2074  0.9796
  195MOL0     O26191   7.310  11.100   5.506  0.2025 -0.4448  0.2928
  195MOL0     C26192   7.325  11.146   5.387  0.2718 -0.2011 -0.2576
  195MOL0     O26193   7.245  11.136   5.284  0.6610  0.2387  0.3659
  195MOL0     C26194   7.128  11.071   5.304 -0.3854  1.0306 -0.3702
  195MOL0     C26195   7.109  10.958   5.232 -0.0252  0.0801 -0.2698
  195MOL0     C26196   6.978  10.897   5.227 -1.1690  0.6090  0.7246
  195MOL0     C26197   6.877  10.946   5.303  1.2080 -0.1291  0.5597
  195MOL0     O26198   6.744  10.905   5.288  0.5528  0.0158  0.1044
  195MOL0     C26199   6.704  10.846   5.164 -0.2432 -0.1559 -0.5232
  195MOL0     C26200   6.552  10.885   5.150  0.2511  0.2735  0.3925
  195MOL0     C26201   6.527  11.035   5.158 -0.7916 -0.2706 -0.8235
  195MOL0     C26202   6.394  11.069   5.098  0.3485  0.2549 -0.6541
  195MOL0     C26203   6.367  11.208   5.160 -0.3493 -0.1708  0.0088
  195MOL0     C26204   6.257  11.289   5.082  0.2409 -1.0931  0.2537
  195MOL0     C26205   6.219  11.428   5.139 -0.3338 -0.3488 -0.6955
  195MOL0     C26206   6.301  11.546   5.087 -0.7387  0.1907  0.3320
  195MOL0     N26207   6.257  11.590   4.956 -0.2260  0.5504  0.1444
  195MOL0     C26208   6.176  11.704   4.944  0.0741 -0.3244  0.6809
  195MOL0     C26209   6.172  11.721   4.808 -0.8827 -0.1696  0.4610
  195MOL0     C26210   6.115  11.826   4.719  0.1626  0.7202  0.1473
  195MOL0     C26211   5.995  11.761   4.641  0.4382  0.1585  0.2699
  195MOL0     C26212   5.885  11.869   4.616 -0.4888  0.5411  0.9086
  195MOL0     C26213   5.766  11.813   4.533 -0.0820  0.7021  0.0479
  195MOL0     O26214   5.650  11.888   4.535  0.1458 -0.1870 -0.1868
  195MOL0     C26215   5.562  11.887   4.431  0.9751  0.0730 -0.3958
  195MOL0     C26216   5.565  11.811   4.316 -0.2648  0.6286 -0.2560
  195MOL0     C26217   5.452  11.788   4.229  0.6475  0.4215  0.9323
  195MOL0     C26218   5.469  11.680   4.125 -1.0144  0.4853 -0.0296
  195MOL0     C26219   5.330  11.857   4.252  0.4186 -0.0183 -0.1147
  195MOL0     C26220   5.206  11.849   4.174 -0.0024  0.3174 -0.7910
  195MOL0     O26221   5.110  11.937   4.197  0.1836 -0.5587  0.3299
  195MOL0     C26222   5.011  11.968   4.103 -0.1096  0.5406 -0.3207
  195MOL0     C26223   4.891  12.008   4.164 -0.4679  0.5310  0.3533
  195MOL0     C26224   4.783  12.056   4.093  0.3120  0.1399 -1.2926
  195MOL0     C26225   4.797  12.067   3.957 -0.1675  0.3666 -0.1435
  195MOL0     O26226   4.709  12.133   3.874 -0.5255 -0.5036 -0.3265
  195MOL0     C26227   4.575  12.157   3.923  0.3842 -0.5411  0.8022
  195MOL0     C26228   4.494  12.212   3.807 -0.6582 -0.2550  0.4872
  195MOL0     C26229   4.355  12.264   3.835 -0.3966 -0.2881 -0.6252
  195MOL0     C26230   4.284  12.317   3.715  0.3379  0.2778 -0.3000
  195MOL0     C26231   4.137  12.339   3.735 -0.1290  0.3272 -0.4914
  195MOL0     C26232   4.080  12.399   3.603  0.2428 -0.4186 -0.4641
  195MOL0     C26233   3.930  12.435   3.627  0.3429  0.2731 -0.0002
  195MOL0     C26234   3.871  12.489   3.497 -0.1980 -0.2381 -0.1703
  195MOL0    Cl26235   3.700  12.528   3.529  0.2714  0.5834 -0.2966
  195MOL0     C26236   4.915  12.019   3.896 -0.1590 -0.2950  0.1806
  195MOL0     C26237   5.022  11.968   3.967  0.5230 -0.7078 -0.5961
  195MOL0     O26238   5.202  11.762   4.084 -0.5335  0.4507 -0.6486
  195MOL0     C26239   5.325  11.934   4.365 -0.5079  0.3656  0.1516
  195MOL0     C26240   5.434  11.949   4.451 -0.6405  0.5270  0.3995
  195MOL0     N26241   6.244  11.616   4.748 -0.4912 -0.1295 -0.0892
  195MOL0     N26242   6.282  11.528   4.837  0.2071 -0.3587  0.0999
  195MOL0     C26243   6.897  11.051   5.389  0.2747 -0.3425  0.1501
  195MOL0     C26244   7.021  11.113   5.376  0.6079 -0.4738  0.2114
  195MOL0     C26245   7.446  11.233   5.367 -0.3825  0.3665  1.0549
  195MOL0     C26246   7.473  11.301   5.246  0.3808 -0.2336  0.5761
  195MOL0     C26247   7.594  11.370   5.232  0.8495 -0.3474  0.5821
  195MOL0     C26248   7.687  11.372   5.335  0.0195 -0.5075  0.1316
  195MOL0     O26249   7.804  11.436   5.299 -0.0507 -0.0352  0.1309
  195MOL0     C26250   7.921  11.379   5.360 -0.8693 -0.6676  0.5618
  195MOL0     C26251   8.046  11.433   5.290 -0.1464 -0.1929  0.0791
  195MOL0     C26252   8.165  11.449   5.376 -0.8976  0.4291 -0.0681
  195MOL0     C26253   8.243  11.304   5.374 -1.1476  0.2896 -0.9089
  195MOL0     C26254   8.370  11.314   5.447  0.0355 -0.0158 -0.1626
  195MOL0     C26255   8.479  11.327   5.499 -0.0504  0.2450 -0.3308
  195MOL0     C26256   7.666  11.305   5.452  0.2623  0.3058 -1.1041
  195MOL0     C26257   7.549  11.231   5.464 -0.4383  0.2860 -1.0543
  195MOL0     H26258   7.193  10.908   5.184 -0.7029 -0.3276 -1.0654
  195MOL0     H26259   6.971  10.809   5.164 -0.1909  0.7372  0.4274
  195MOL0     H26260   6.765  10.896   5.088 -3.9783  2.3951 -2.1181
  195MOL0     H26261   6.711  10.737   5.169  1.0271 -0.0287  1.4949
  195MOL0     H26262   6.507  10.836   5.064  1.5106  0.5158 -0.4185
  195MOL0     H26263   6.505  10.845   5.241  0.1532 -1.1092 -0.2520
  195MOL0     H26264   6.523  11.043   5.267 -0.2199 -1.6456 -0.6909
  195MOL0     H26265   6.620  11.079   5.121  0.9405 -3.5251 -0.7039
  195MOL0     H26266   6.400  11.070   4.988 -1.5598  2.4344 -0.7938
  195MOL0     H26267   6.310  11.002   5.118 -0.2195  0.8810 -0.9326
  195MOL0     H26268   6.329  11.186   5.260  1.8114  1.2124  1.2197
  195MOL0     H26269   6.452  11.276   5.174 -2.5163  2.3959  1.8722
  195MOL0     H26270   6.288  11.300   4.978 -0.9596  2.2241  0.1320
  195MOL0     H26271   6.164  11.232   5.075 -0.8284  0.1632  2.8876
  195MOL0     H26272   6.116  11.456   5.114  0.8968  2.8047 -2.7293
  195MOL0     H26273   6.217  11.410   5.247 -2.1558 -0.8764 -0.7776
  195MOL0     H26274   6.406  11.514   5.090 -1.7964 -4.5159 -2.2744
  195MOL0     H26275   6.292  11.627   5.160 -0.1254 -0.6893  1.4318
  195MOL0     H26276   6.127  11.760   5.023 -0.1198 -0.6540  0.7946
  195MOL0     H26277   6.071  11.904   4.783  1.7317  0.3314  1.7656
  195MOL0     H26278   6.196  11.866   4.658 -1.8711  0.6890 -2.8159
  195MOL0     H26279   5.961  11.667   4.687  2.2434 -2.0847 -2.6100
  195MOL0     H26280   6.033  11.732   4.543 -0.5070  0.6086 -0.2458
  195MOL0     H26281   5.939  11.945   4.559 -2.1181  0.5815 -0.6821
  195MOL0     H26282   5.837  11.912   4.705 -1.6783  0.8308  0.1538
  195MOL0     H26283   5.735  11.714   4.566 -2.8462  0.9164 -1.5695
  195MOL0     H26284   5.797  11.800   4.429 -0.4720 -0.5968  0.0738
  195MOL0     H26285   5.651  11.747   4.300 -1.4279 -1.2438  0.5710
  195MOL0     H26286   5.398  11.596   4.132 -0.0617 -0.2092  2.2830
  195MOL0     H26287   5.469  11.725   4.026 -1.9550  0.5971  0.0095
  195MOL0     H26288   5.571  11.640   4.128 -0.0854  2.7471  0.1589
  195MOL0     H26289   4.888  12.001   4.273  1.6477  0.9573  0.4940
  195MOL0     H26290   4.702  12.091   4.155  0.8809 -0.1761 -0.3478
  195MOL0     H26291   4.521  12.068   3.959 -0.6661  0.7221  2.5528
  195MOL0     H26292   4.583  12.229   4.005 -0.9163  1.2426 -0.5773
  195MOL0     H26293   4.528  12.296   3.746 -1.7238  0.0563  0.2965
  195MOL0     H26294   4.470  12.139   3.729  0.0599  2.4719 -2.4732
  195MOL0     H26295   4.367  12.347   3.905  1.4551 -1.4414  0.4944
  195MOL0     H26296   4.298  12.195   3.898  1.7498 -1.4500  0.1378
  195MOL0     H26297   4.329  12.414   3.691  1.1406  0.4372  1.6282
  195MOL0     H26298   4.295  12.246   3.632 -2.4838 -3.6545  2.3084
  195MOL0     H26299   4.127  12.412   3.816  0.0306 -0.7442  0.5213
  195MOL0     H26300   4.077  12.252   3.763  0.2475  0.5021  0.9225
  195MOL0     H26301   4.134  12.490   3.576 -0.2424 -0.5707 -2.0516
  195MOL0     H26302   4.099  12.316   3.535  0.3534 -1.9768  1.3762
  195MOL0     H26303   3.920  12.511   3.706  1.3177  0.0540  0.3430
  195MOL0     H26304   3.870  12.348   3.656  0.1207  1.3188  3.1205
  195MOL0     H26305   3.873  12.426   3.407 -1.0550  0.9296 -1.0337
  195MOL0     H26306   3.928  12.581   3.479 -1.2044  0.7574  1.4792
  195MOL0     H26307   4.918  12.028   3.788 -1.0218 -1.0013  0.0839
  195MOL0     H26308   5.118  11.932   3.931  1.5080  0.5341  0.6755
  195MOL0     H26309   5.235  11.989   4.391 -2.1738 -2.5128  0.8157
  195MOL0     H26310   5.420  12.019   4.533  0.5417 -0.6677  1.6647
  195MOL0     H26311   6.818  11.101   5.443 -2.8844 -1.2803 -3.2129
  195MOL0     H26312   7.041  11.204   5.432 -2.5399  0.2202  0.4386
  195MOL0     H26313   7.386  11.296   5.182  0.3042 -0.9421  0.7287
  195MOL0     H26314   7.619  11.416   5.137  1.0767  0.4103  0.9915
  195MOL0     H26315   7.934  11.398   5.466 -1.4712 -0.8608  0.6758
  195MOL0     H26316   7.915  11.271   5.340 -0.9764 -0.8655  1.6302
  195MOL0     H26317   8.024  11.529   5.243 -0.6933 -1.2932 -2.0228
  195MOL0     H26318   8.068  11.358   5.215  2.2398 -1.5017  1.9237
  195MOL0     H26319   8.146  11.490   5.476 -0.4230  2.6127 -0.8111
  195MOL0     H26320   8.235  11.516   5.325  0.0028 -0.1839  0.3306
  195MOL0     H26321   8.266  11.277   5.270  2.2699 -0.2965 -0.1325
  195MOL0     H26322   8.194  11.220   5.424  2.8611 -1.9702 -0.2906
  195MOL0     H26323   8.578  11.341   5.536  0.1698 -1.5820 -0.1153
  195MOL0     H26324   7.733  11.317   5.537 -0.1471  0.2924 -0.7775
  195MOL0     H26325   7.534  11.178   5.557  1.1019  1.4197 -0.1217
  196MOL0     O26326   1.229   0.413   1.691 -0.2429  0.6421 -0.2466
  196MOL0     C26327   1.256   0.345   1.590  0.0975  0.2693  0.4754
  196MOL0     O26328   1.166   0.269   1.517  0.5147 -0.1420  0.5725
  196MOL0     C26329   1.028   0.268   1.525 -0.1335 -0.1909  0.8667
  196MOL0     C26330   0.947   0.340   1.620  0.3414 -0.4671 -0.5871
  196MOL0     C26331   0.807   0.326   1.624 -0.3430  0.1629  0.3079
  196MOL0     C26332   0.741   0.237   1.535  0.4030  0.2196 -0.1071
  196MOL0     O26333   0.605   0.209   1.534 -0.2611 -0.1204  0.4025
  196MOL0     C26334   0.523   0.267   1.632 -0.4894  0.3423  0.5841
  196MOL0     C26335   0.386   0.198   1.613 -0.3225 -0.2673  0.0273
  196MOL0     C26336   0.316   0.247   1.484  0.3909 -0.2945 -0.5476
  196MOL0     C26337   0.160   0.226   1.486 -0.4920 -0.2501 -0.0540
  196MOL0     C26338   0.090   0.225   1.352 -0.4133 -1.0565 -0.1449
  196MOL0     C26339   0.064   0.374   1.303 -0.0512 -0.8676  0.1433
  196MOL0     C26340  -0.013   0.383   1.170  0.3870 -0.0875  0.7627
  196MOL0     C26341  -0.027   0.534   1.133  0.4996  0.9322  0.1409
  196MOL0     N26342  -0.137   0.597   1.210 -0.2981 -0.7139 -0.6885
  196MOL0     C26343  -0.264   0.550   1.228 -1.7695  0.8044 -0.4257
  196MOL0     C26344  -0.344   0.644   1.270  0.2333 -0.3610 -0.2076
  196MOL0     C26345  -0.501   0.641   1.269 -0.5908 -0.1121  0.2489
  196MOL0     C26346  -0.550   0.641   1.413 -0.0177  0.0216  0.1986
  196MOL0     C26347  -0.522   0.508   1.492  0.3545 -0.8111  0.0469
  196MOL0     C26348  -0.617   0.398   1.435  0.1494 -0.8588  0.0490
  196MOL0     O26349  -0.756   0.440   1.454  0.4241 -0.7915  0.3678
  196MOL0     C26350  -0.848   0.340   1.480  0.0432 -0.2199  0.0474
  196MOL0     C26351  -0.966   0.370   1.538 -0.1934 -0.4855  0.3194
  196MOL0     C26352  -1.058   0.274   1.593  0.2634  0.1340  1.0389
  196MOL0     C26353  -1.181   0.344   1.662 -0.1445 -0.0362  0.3020
  196MOL0     C26354  -1.042   0.140   1.557 -0.1439 -0.0795 -0.1905
  196MOL0     C26355  -1.137   0.028   1.575  0.1961 -0.7563  0.5454
  196MOL0     O26356  -1.077  -0.087   1.595  0.0561  0.5680 -0.5735
  196MOL0     C26357  -1.152  -0.200   1.646 -0.2404 -0.5992  0.7025
  196MOL0     C26358  -1.190  -0.294   1.540  0.2478 -0.7650 -0.1169
  196MOL0     C26359  -1.291  -0.384   1.571  0.0065  0.3128 -0.5628
  196MOL0     C26360  -1.338  -0.395   1.705  0.2531  0.9083 -0.5943
  196MOL0     O26361  -1.439  -0.486   1.723  0.3826  0.3005  0.1580
  196MOL0     C26362  -1.569  -0.428   1.764  0.5420 -0.5085  0.0683
  196MOL0     C26363  -1.674  -0.541   1.769  1.2521 -0.4677  0.0245
  196MOL0     C26364  -1.813  -0.520   1.825 -0.2442  0.4125  0.0792
  196MOL0     C26365  -1.894  -0.436   1.732 -0.2452 -0.0746 -0.2060
  196MOL0     C26366  -2.031  -0.409   1.797  0.4829 -0.0569 -0.4592
  196MOL0     C26367  -2.028  -0.302   1.911 -0.0407 -0.3712 -0.6357
  196MOL0     C26368  -2.178  -0.271   1.960 -0.3296 -0.4252 -0.0142
  196MOL0     C26369  -2.194  -0.192   2.089 -0.0242 -0.3205 -0.9556
  196MOL0    Cl26370  -2.376  -0.148   2.115  0.0920  0.1020  0.0661
  196MOL0     C26371  -1.294  -0.316   1.807  0.2564 -0.4621 -0.5644
  196MOL0     C26372  -1.194  -0.219   1.772 -0.1899  0.1662 -0.3142
  196MOL0     O26373  -1.254   0.045   1.580  0.1681 -0.6526 -0.1527
  196MOL0     C26374  -0.929   0.110   1.483 -0.5700  0.8313  0.7512
  196MOL0     C26375  -0.831   0.210   1.449 -0.0104  0.2742  0.5465
  196MOL0     N26376  -0.253   0.751   1.295  0.4636 -0.4075 -0.0918
  196MOL0     N26377  -0.138   0.727   1.253  0.1691 -0.2073  0.3057
  196MOL0     C26378   0.820   0.153   1.454  0.3475 -0.2337 -0.3711
  196MOL0     C26379   0.955   0.180   1.442 -0.0093  0.0038  0.2572
  196MOL0     C26380   1.396   0.338   1.549  0.1271  0.8610 -0.1906
  196MOL0     C26381   1.439   0.224   1.480 -0.9038 -0.1873  0.3677
  196MOL0     C26382   1.582   0.215   1.447  0.2835  0.0132 -0.3069
  196MOL0     C26383   1.672   0.329   1.476  0.7751 -0.2919 -0.1528
  196MOL0     O26384   1.806   0.311   1.442 -0.2084 -0.0974  0.5150
  196MOL0     C26385   1.889   0.427   1.438 -0.3344 -0.2888  0.3626
  196MOL0     C26386   2.009   0.397   1.343  0.1611  0.0117  0.0495
  196MOL0     C26387   1.967   0.386   1.193  0.3963  0.3856  0.3057
  196MOL0     C26388   2.069   0.336   1.091 -0.0681  0.5348 -0.8250
  196MOL0     C26389   2.113   0.198   1.125  0.1252 -0.4212 -0.2687
  196MOL0     C26390   2.152   0.088   1.153 -0.2258 -0.6659 -0.3166
  196MOL0     C26391   1.617   0.431   1.559 -0.6396 -0.2709 -0.1515
  196MOL0     C26392   1.480   0.435   1.589  0.2818 -0.7497 -0.0572
  196MOL0     H26393   0.989   0.408   1.692 -3.1043  1.4316 -0.1467
  196MOL0     H26394   0.756   0.397   1.688  0.4774  0.5262  0.5723
  196MOL0     H26395   0.556   0.247   1.735 -1.2790 -1.9063  0.4465
  196MOL0     H26396   0.522   0.376   1.621 -1.6364  0.1344 -1.9152
  196MOL0     H26397   0.402   0.090   1.610 -1.4482 -0.4294 -1.3082
  196MOL0     H26398   0.317   0.230   1.692 -1.5796 -2.0959 -0.2590
  196MOL0     H26399   0.344   0.349   1.456 -0.1329  0.1623  0.5618
  196MOL0     H26400   0.357   0.184   1.404  0.5274 -0.5870 -0.2475
  196MOL0     H26401   0.145   0.135   1.544  1.5314  0.4841  1.7798
  196MOL0     H26402   0.112   0.296   1.555 -0.6024 -0.5292  0.1549
  196MOL0     H26403   0.147   0.166   1.281  1.0064 -2.1161  1.7832
  196MOL0     H26404  -0.006   0.172   1.359 -0.4397 -0.8719  1.0921
  196MOL0     H26405   0.011   0.427   1.384 -2.4640 -2.2613 -0.4155
  196MOL0     H26406   0.162   0.422   1.297 -1.6537  2.6892 -0.2001
  196MOL0     H26407   0.046   0.329   1.096 -0.0259  1.2968 -0.6389
  196MOL0     H26408  -0.113   0.337   1.170 -0.7366  2.1862  1.6460
  196MOL0     H26409  -0.052   0.526   1.027  0.4851 -3.2974  0.2781
  196MOL0     H26410   0.069   0.587   1.140  0.4430  0.9426  0.8749
  196MOL0     H26411  -0.299   0.456   1.186  2.1102 -2.0461  1.9700
  196MOL0     H26412  -0.528   0.729   1.211  1.1818  0.5012  0.2835
  196MOL0     H26413  -0.545   0.557   1.215 -2.1714  0.3292  0.7930
  196MOL0     H26414  -0.658   0.655   1.421  0.0474 -0.4929  2.4212
  196MOL0     H26415  -0.496   0.722   1.462 -0.3806  0.6839 -0.4638
  196MOL0     H26416  -0.551   0.520   1.597 -0.9777  3.1801 -0.6033
  196MOL0     H26417  -0.417   0.478   1.482  1.0521  2.0216 -3.5577
  196MOL0     H26418  -0.588   0.310   1.493  1.1209  0.1273  1.0887
  196MOL0     H26419  -0.603   0.370   1.330  1.0849 -1.7509  0.3905
  196MOL0     H26420  -0.975   0.473   1.571  0.1840 -0.6358  0.9103
  196MOL0     H26421  -1.272   0.345   1.602 -1.3611  0.3825  2.0984
  196MOL0     H26422  -1.202   0.289   1.754  2.3238 -1.0763  0.3443
  196MOL0     H26423  -1.159   0.448   1.689  0.2399 -0.1169  0.3166
  196MOL0     H26424  -1.152  -0.280   1.439  1.2646  2.7949  0.6112
  196MOL0     H26425  -1.338  -0.445   1.494  0.8032  0.1509 -0.9269
  196MOL0     H26426  -1.566  -0.375   1.860 -1.2256 -1.0927  0.4876
  196MOL0     H26427  -1.588  -0.350   1.690  2.9375 -2.4188 -2.7536
  196MOL0     H26428  -1.684  -0.602   1.678 -0.5073  0.9038 -0.7517
  196MOL0     H26429  -1.623  -0.611   1.836  2.8484  0.0174 -0.6286
  196MOL0     H26430  -1.801  -0.480   1.926  0.5247 -0.2165  0.2422
  196MOL0     H26431  -1.854  -0.622   1.826 -0.1731  0.3107 -2.2036
  196MOL0     H26432  -1.858  -0.339   1.696 -0.6280 -0.3433 -1.3463
  196MOL0     H26433  -1.921  -0.499   1.647 -0.9822 -0.9592  0.6646
  196MOL0     H26434  -2.078  -0.499   1.838 -0.9592  1.0655  0.4671
  196MOL0     H26435  -2.104  -0.363   1.730 -1.3777  1.3326  2.3185
  196MOL0     H26436  -1.963  -0.342   1.988  0.6970 -0.4913 -1.3024
  196MOL0     H26437  -1.981  -0.209   1.877  0.9268  0.0599  1.7079
  196MOL0     H26438  -2.235  -0.363   1.973 -1.7010  0.0735 -1.9771
  196MOL0     H26439  -2.225  -0.203   1.888  0.8529 -1.1849 -1.5634
  196MOL0     H26440  -2.147  -0.093   2.084  0.9995 -0.6970  0.4155
  196MOL0     H26441  -2.154  -0.248   2.174 -0.1874  1.1719  0.1522
  196MOL0     H26442  -1.340  -0.345   1.902 -0.1014 -0.2353 -0.6646
  196MOL0     H26443  -1.158  -0.145   1.843 -3.5974  1.2129  0.4946
  196MOL0     H26444  -0.910   0.011   1.445  1.5005  0.3141  2.9062
  196MOL0     H26445  -0.746   0.180   1.389 -1.1583 -1.0556 -0.5049
  196MOL0     H26446   0.774   0.061   1.418  1.4181 -0.7101 -0.5750
  196MOL0     H26447   1.014   0.130   1.366 -0.8929  1.1113 -1.2107
  196MOL0     H26448   1.379   0.140   1.447  0.4636 -0.4695 -1.6472
  196MOL0     H26449   1.633   0.128   1.409  2.4617  0.2328  1.8714
  196MOL0     H26450   1.831   0.514   1.406 -0.6077 -1.1226 -1.5555
  196MOL0     H26451   1.930   0.445   1.538 -0.4746  0.5954  0.2646
  196MOL0     H26452   2.046   0.295   1.355 -0.5967 -0.4781 -1.4604
  196MOL0     H26453   2.084   0.476   1.347  2.5625 -2.0668 -0.9945
  196MOL0     H26454   1.932   0.480   1.150 -1.1293 -0.1499  0.3142
  196MOL0     H26455   1.881   0.319   1.193  1.3844 -0.9300 -0.0689
  196MOL0     H26456   2.146   0.411   1.072 -1.3911  1.2759 -3.8390
  196MOL0     H26457   2.008   0.328   1.001 -2.5963  0.8593  0.7879
  196MOL0     H26458   2.182  -0.011   1.181 -1.9789 -1.2125 -0.2433
  196MOL0     H26459   1.673   0.522   1.579 -1.4687 -0.0481  1.2606
  196MOL0     H26460   1.447   0.519   1.650 -2.3435 -2.3556  0.9175
  197MOL0     O26461   8.987   2.952   6.442 -0.4572 -0.1228 -0.3023
  197MOL0     C26462   9.048   2.959   6.548  0.1540 -0.6227 -0.3899
  197MOL0     O26463   8.995   3.013   6.663 -0.3291 -0.1701  0.6993
  197MOL0     C26464   8.889   3.096   6.657  0.1458 -0.5097 -0.5700
  197MOL0     C26465   8.897   3.216   6.593 -0.5207  0.4711  0.3414
  197MOL0     C26466   8.785   3.295   6.567  0.2084  0.0982 -0.3311
  197MOL0     C26467   8.660   3.273   6.630  0.5210 -0.1007  0.6334
  197MOL0     O26468   8.554   3.351   6.602 -0.6754 -0.6640  0.0181
  197MOL0     C26469   8.457   3.371   6.701 -0.1601 -0.0603 -0.0149
  197MOL0     C26470   8.357   3.487   6.659 -0.2107 -0.0915  0.0192
  197MOL0     C26471   8.272   3.447   6.544 -0.5551  0.0497  0.0905
  197MOL0     C26472   8.159   3.555   6.519  0.7939  1.1179 -0.3072
  197MOL0     C26473   8.035   3.487   6.461 -0.1586 -0.6820 -0.7475
  197MOL0     C26474   8.060   3.447   6.316  0.2727  0.7440 -0.2351
  197MOL0     C26475   8.087   3.555   6.204  0.5143 -0.2987 -0.3868
  197MOL0     C26476   8.071   3.500   6.063  1.0231  0.3327  0.2910
  197MOL0     N26477   8.069   3.602   5.961 -0.9779 -0.1342 -1.0475
  197MOL0     C26478   7.973   3.691   5.925 -0.0240  0.0178  0.0230
  197MOL0     C26479   8.026   3.760   5.829  0.3207  0.2442 -0.4454
  197MOL0     C26480   7.966   3.879   5.750  0.7386 -0.0998  0.0504
  197MOL0     C26481   7.826   3.862   5.698  0.4430 -0.7613 -0.4766
  197MOL0     C26482   7.821   3.756   5.583 -0.3041  0.2372 -0.6734
  197MOL0     C26483   7.815   3.612   5.643 -0.5368  0.3804 -0.7482
  197MOL0     O26484   7.728   3.601   5.751  0.0205  0.0290 -0.0443
  197MOL0     C26485   7.604   3.558   5.733  0.5862  0.1605  1.2581
  197MOL0     C26486   7.541   3.524   5.849 -0.0678  1.1133  0.3220
  197MOL0     C26487   7.405   3.480   5.851  0.5687 -0.1041  0.4346
  197MOL0     C26488   7.350   3.445   5.976 -0.4354  1.1224  0.8396
  197MOL0     C26489   7.325   3.479   5.729 -0.1370  0.7786  0.1556
  197MOL0     C26490   7.196   3.411   5.722  0.0451 -0.4152  1.1036
  197MOL0     O26491   7.171   3.364   5.596 -0.8137  0.3510  0.9149
  197MOL0     C26492   7.044   3.333   5.575  1.0517 -0.0267 -0.4899
  197MOL0     C26493   7.011   3.198   5.553 -0.8566 -0.0022  0.3325
  197MOL0     C26494   6.883   3.156   5.522  0.1992  0.5265  0.1243
  197MOL0     C26495   6.786   3.250   5.484 -0.4911 -0.1395  0.1350
  197MOL0     O26496   6.672   3.192   5.448  0.8484  0.0125  0.2671
  197MOL0     C26497   6.569   3.192   5.553 -0.1947  0.0816  0.3781
  197MOL0     C26498   6.449   3.115   5.515  0.3360  0.3726  0.5618
  197MOL0     C26499   6.358   3.114   5.640 -0.0813 -0.5202  0.0480
  197MOL0     C26500   6.232   3.032   5.614  0.7840 -0.5008  0.1394
  197MOL0     C26501   6.146   2.999   5.735  0.9630  0.0102  0.5325
  197MOL0     C26502   6.036   2.911   5.685 -0.9639  0.9613  0.1138
  197MOL0     C26503   5.934   2.886   5.804 -0.2537  0.1987  0.0554
  197MOL0     C26504   5.804   2.812   5.768 -0.1064 -1.1571 -0.5099
  197MOL0    Cl26505   5.728   2.764   5.927  0.0954 -0.0126  0.1159
  197MOL0     C26506   6.815   3.386   5.497  0.1469 -0.4222  0.8464
  197MOL0     C26507   6.939   3.422   5.544  0.1682 -0.4281  0.7096
  197MOL0     O26508   7.114   3.433   5.810 -0.2031  0.0050  1.3450
  197MOL0     C26509   7.399   3.515   5.611  0.5563  0.0450 -0.3209
  197MOL0     C26510   7.535   3.544   5.615 -0.7162 -0.3896  0.2755
  197MOL0     N26511   8.161   3.730   5.808 -0.1009 -0.1344 -0.0236
  197MOL0     N26512   8.185   3.636   5.889 -0.1608  0.6807 -0.2182
  197MOL0     C26513   8.652   3.153   6.710 -0.2422  0.5596 -0.6021
  197MOL0     C26514   8.767   3.069   6.721  0.3164  0.3978 -0.5998
  197MOL0     C26515   9.188   2.907   6.543  0.2495 -0.0212 -0.3178
  197MOL0     C26516   9.217   2.797   6.473  0.3130  0.9451  0.6313
  197MOL0     C26517   9.351   2.766   6.447  0.5939 -0.6586 -0.3097
  197MOL0     C26518   9.460   2.828   6.506 -0.4823  0.1489  0.4210
  197MOL0     O26519   9.593   2.779   6.488  0.5814  0.1633  0.0914
  197MOL0     C26520   9.638   2.776   6.352 -0.4161 -0.0035  0.2958
  197MOL0     C26521   9.655   2.919   6.292 -0.9193 -0.3096  0.3154
  197MOL0     C26522   9.779   2.984   6.363 -0.0916  0.6044  0.2744
  197MOL0     C26523   9.792   3.130   6.320 -0.6576  1.0035 -0.5508
  197MOL0     C26524   9.896   3.205   6.401  0.6675  0.5213  0.8796
  197MOL0     C26525   9.976   3.272   6.460  0.7626 -0.0552 -0.3090
  197MOL0     C26526   9.429   2.933   6.592  0.0822  0.5652 -0.1129
  197MOL0     C26527   9.294   2.981   6.607  0.0482  0.1999  0.4531
  197MOL0     H26528   8.980   3.249   6.532  0.6642 -0.7285  1.2366
  197MOL0     H26529   8.800   3.381   6.503  2.9613  1.2032  1.6271
  197MOL0     H26530   8.395   3.281   6.711 -1.5057  1.0319  2.6407
  197MOL0     H26531   8.510   3.395   6.794  0.2999  0.3898 -0.3850
  197MOL0     H26532   8.302   3.512   6.750  0.6937 -1.4270  0.9680
  197MOL0     H26533   8.415   3.573   6.624  0.7433  0.4344  2.7095
  197MOL0     H26534   8.336   3.450   6.455 -0.5397  0.3754  0.1112
  197MOL0     H26535   8.224   3.349   6.547 -0.9690  0.2466 -0.1045
  197MOL0     H26536   8.130   3.609   6.610 -0.4404  0.9971 -0.6140
  197MOL0     H26537   8.191   3.630   6.447  1.2168  0.6989 -0.5646
  197MOL0     H26538   7.995   3.404   6.519 -1.1451  0.0613 -0.3283
  197MOL0     H26539   7.954   3.560   6.464 -1.6384 -2.2530 -0.9325
  197MOL0     H26540   8.139   3.372   6.323  0.3488  0.9982  3.0596
  197MOL0     H26541   7.966   3.399   6.288  0.2281  1.5180 -1.5012
  197MOL0     H26542   8.011   3.632   6.216  0.9119  0.0892 -0.3382
  197MOL0     H26543   8.182   3.606   6.223 -0.0052  1.1507 -1.4507
  197MOL0     H26544   7.979   3.440   6.053  0.0044  1.8788  0.0796
  197MOL0     H26545   8.153   3.432   6.039 -0.7725 -2.2608  0.9983
  197MOL0     H26546   7.870   3.697   5.959 -1.0250  3.4420 -3.0256
  197MOL0     H26547   7.978   3.969   5.810 -0.3304 -1.5958  2.6972
  197MOL0     H26548   8.032   3.902   5.666  1.8741 -1.2762  0.5867
  197MOL0     H26549   7.799   3.960   5.658  0.1154 -1.2435 -1.4738
  197MOL0     H26550   7.754   3.840   5.777 -0.2138 -2.1955 -1.4342
  197MOL0     H26551   7.905   3.771   5.514 -1.6055 -1.6244 -2.7952
  197MOL0     H26552   7.732   3.767   5.521 -0.2106  1.4037 -0.6286
  197MOL0     H26553   7.908   3.577   5.690 -0.8591 -1.1998 -1.2000
  197MOL0     H26554   7.797   3.540   5.562 -1.4203 -0.2193 -0.0474
  197MOL0     H26555   7.591   3.519   5.945  0.0426 -2.5785  0.2115
  197MOL0     H26556   7.292   3.525   6.023 -2.9371  0.2764 -0.6248
  197MOL0     H26557   7.281   3.361   5.967  0.9302  0.0181  0.1920
  197MOL0     H26558   7.426   3.398   6.039  0.4195 -0.0209 -0.9610
  197MOL0     H26559   7.088   3.125   5.572 -1.0284 -0.7351 -1.5589
  197MOL0     H26560   6.858   3.051   5.509  1.2115  0.0815  1.5452
  197MOL0     H26561   6.604   3.155   5.649  0.3782  1.1545  0.5906
  197MOL0     H26562   6.540   3.296   5.567 -0.1077  0.2236 -0.4229
  197MOL0     H26563   6.397   3.165   5.433 -0.6821 -0.9695  0.3647
  197MOL0     H26564   6.467   3.013   5.481 -0.4950  0.0536  1.0638
  197MOL0     H26565   6.336   3.217   5.671  0.6991 -0.4627  0.4377
  197MOL0     H26566   6.409   3.077   5.729  0.6359  1.4442  0.5191
  197MOL0     H26567   6.166   3.083   5.544 -0.7229 -1.2154  0.9876
  197MOL0     H26568   6.259   2.937   5.568  0.5138 -1.3363  1.6342
  197MOL0     H26569   6.099   3.087   5.779 -2.7287 -1.6685  0.2959
  197MOL0     H26570   6.211   2.943   5.803  2.0547  0.8837  0.2370
  197MOL0     H26571   5.978   2.957   5.605  0.9073  1.6838 -0.8787
  197MOL0     H26572   6.085   2.815   5.664 -0.6394  1.1693 -0.0943
  197MOL0     H26573   5.917   2.988   5.840  1.2471 -0.0688  1.6737
  197MOL0     H26574   5.986   2.824   5.877  2.1520  2.1183  0.1178
  197MOL0     H26575   5.827   2.728   5.701  2.4556  0.6575 -2.1071
  197MOL0     H26576   5.734   2.880   5.720 -1.6023 -0.9395  1.8472
  197MOL0     H26577   6.742   3.459   5.464  1.3134  0.2695 -0.3325
  197MOL0     H26578   6.957   3.527   5.564  0.7378 -0.4658  0.4126
  197MOL0     H26579   7.349   3.509   5.515 -0.8874 -0.1781  0.4217
  197MOL0     H26580   7.587   3.591   5.532 -2.5804  0.9306 -0.2299
  197MOL0     H26581   8.561   3.137   6.767  0.5151  0.3186  0.5708
  197MOL0     H26582   8.758   2.985   6.789 -0.0929  1.3019  0.4972
  197MOL0     H26583   9.145   2.728   6.429  0.3199  0.1851  1.7730
  197MOL0     H26584   9.370   2.679   6.386  0.0755 -0.5406 -0.6502
  197MOL0     H26585   9.733   2.725   6.343  1.8283  3.6744  0.9249
  197MOL0     H26586   9.574   2.710   6.293  0.3132  0.0392 -0.5645
  197MOL0     H26587   9.569   2.985   6.306 -0.2824  0.8851 -1.1892
  197MOL0     H26588   9.668   2.910   6.184  0.5070 -3.2318  0.6249
  197MOL0     H26589   9.871   2.932   6.333  2.0215  4.2797 -0.1662
  197MOL0     H26590   9.768   2.976   6.471 -0.4458  2.1878  0.3727
  197MOL0     H26591   9.695   3.177   6.339 -0.2569  0.4108  4.2734
  197MOL0     H26592   9.829   3.141   6.217  1.0199 -0.1060 -0.0984
  197MOL0     H26593  10.060   3.332   6.487  0.6479  1.0478 -2.2090
  197MOL0     H26594   9.504   2.977   6.658  0.0509  0.1705  0.1901
  197MOL0     H26595   9.271   3.067   6.668 -1.9639 -0.7257  1.1130
  198MOL0     O26596   1.127   1.469   6.741  0.4614 -0.9809  0.6430
  198MOL0     C26597   1.170   1.360   6.762 -0.0475 -0.0227 -0.0081
  198MOL0     O26598   1.112   1.244   6.726  0.2242  0.0748  0.0301
  198MOL0     C26599   0.979   1.241   6.690  0.4291 -0.0944 -0.2170
  198MOL0     C26600   0.940   1.136   6.607  0.9376  0.5409 -0.3425
  198MOL0     C26601   0.803   1.103   6.580  0.6407  0.6471  0.2013
  198MOL0     C26602   0.706   1.185   6.636 -0.5829  1.2428  0.1881
  198MOL0     O26603   0.578   1.151   6.597 -0.3157  0.1028  0.4894
  198MOL0     C26604   0.521   1.243   6.508 -0.1890 -0.5738 -0.8686
  198MOL0     C26605   0.458   1.169   6.384 -0.5381  0.3278  0.0312
  198MOL0     C26606   0.483   1.259   6.259  0.6752  0.1757 -0.0365
  198MOL0     C26607   0.401   1.390   6.262 -0.1899  0.7374 -1.0492
  198MOL0     C26608   0.448   1.494   6.162 -0.8671  0.5506  0.4692
  198MOL0     C26609   0.367   1.622   6.140 -0.0267  0.1528  0.1854
  198MOL0     C26610   0.432   1.720   6.043  0.5825  0.1397 -0.4644
  198MOL0     C26611   0.326   1.806   5.975 -0.1968  0.4396 -0.2000
  198MOL0     N26612   0.270   1.904   6.072  0.1056 -0.2431 -0.7033
  198MOL0     C26613   0.134   1.923   6.099  0.4983 -0.2854  0.3643
  198MOL0     C26614   0.131   2.039   6.170 -0.4338 -0.0525 -0.0012
  198MOL0     C26615   0.009   2.104   6.237  0.2563  0.4855 -0.3777
  198MOL0     C26616  -0.047   2.013   6.349 -0.9645  0.8398 -0.0289
  198MOL0     C26617  -0.172   2.070   6.414 -0.3589 -0.3271 -0.3671
  198MOL0     C26618  -0.156   2.196   6.487 -0.6029  0.1333 -0.1668
  198MOL0     O26619  -0.226   2.206   6.617 -0.0662 -0.5071  0.2542
  198MOL0     C26620  -0.362   2.186   6.625 -0.0287 -0.3026  0.9949
  198MOL0     C26621  -0.419   2.127   6.734 -0.1394 -0.1298  0.3275
  198MOL0     C26622  -0.560   2.107   6.747 -0.4096  0.2540  1.4455
  198MOL0     C26623  -0.606   2.061   6.883 -0.2666 -0.1287 -0.9908
  198MOL0     C26624  -0.637   2.136   6.635  0.4536  0.1698 -1.2340
  198MOL0     C26625  -0.784   2.115   6.634  0.3309  1.0697 -0.2915
  198MOL0     O26626  -0.844   2.058   6.743  0.1562  0.3952  0.4921
  198MOL0     C26627  -0.981   2.048   6.758 -0.3749 -0.1864  0.6096
  198MOL0     C26628  -1.064   1.999   6.667 -0.2348  0.0818  0.3507
  198MOL0     C26629  -1.198   1.997   6.685  0.0553 -0.2059  0.5108
  198MOL0     C26630  -1.258   2.031   6.806 -0.4676  0.6607 -0.0693
  198MOL0     O26631  -1.398   2.023   6.829 -0.2491 -0.3395  0.3219
  198MOL0     C26632  -1.478   1.972   6.726 -0.4469  0.0728  0.5831
  198MOL0     C26633  -1.626   1.996   6.768  0.1334  1.2560  0.6888
  198MOL0     C26634  -1.715   1.960   6.638  1.5453 -0.1291 -0.3886
  198MOL0     C26635  -1.851   2.017   6.632  0.2151  0.5917 -0.2839
  198MOL0     C26636  -1.959   1.981   6.729 -0.1547  0.5897  0.1336
  198MOL0     C26637  -1.991   1.833   6.723  0.0341  0.0203 -0.3261
  198MOL0     C26638  -2.101   1.817   6.811  0.3989  0.3843  0.0023
  198MOL0     C26639  -2.154   1.665   6.802 -0.2549  0.0233  0.1377
  198MOL0    Cl26640  -2.256   1.623   6.940 -0.1419 -0.4109  0.2064
  198MOL0     C26641  -1.165   2.085   6.904  0.5912 -0.1415 -0.3746
  198MOL0     C26642  -1.032   2.099   6.877 -0.2385  0.8638 -0.8336
  198MOL0     O26643  -0.846   2.170   6.545 -0.5274 -0.0799  0.0112
  198MOL0     C26644  -0.578   2.191   6.516 -0.3737 -0.0984  0.5285
  198MOL0     C26645  -0.440   2.211   6.512  0.4142  0.5898  0.5933
  198MOL0     N26646   0.254   2.084   6.188 -0.3210 -0.5245 -0.2400
  198MOL0     N26647   0.339   2.006   6.126 -0.3783 -0.2116  0.2645
  198MOL0     C26648   0.741   1.292   6.715 -0.4118  0.3911 -0.3313
  198MOL0     C26649   0.878   1.326   6.742  0.0488 -0.4353 -0.7276
  198MOL0     C26650   1.308   1.355   6.817 -0.4786  0.5349  0.5164
  198MOL0     C26651   1.376   1.471   6.838 -0.7503  0.1826 -0.1504
  198MOL0     C26652   1.517   1.468   6.866  0.3218 -0.5266 -0.4528
  198MOL0     C26653   1.585   1.349   6.901  0.2496  0.3084 -0.4597
  198MOL0     O26654   1.713   1.345   6.950  0.1552 -1.0185  0.8303
  198MOL0     C26655   1.803   1.458   6.969  0.6920 -0.4642 -0.6541
  198MOL0     C26656   1.889   1.443   7.103 -0.1775  0.2005  0.1118
  198MOL0     C26657   2.006   1.348   7.091 -0.3818  0.3134  0.2617
  198MOL0     C26658   2.094   1.349   7.216 -0.8391 -0.6421 -0.4786
  198MOL0     C26659   2.196   1.243   7.198  0.0590 -0.6110 -0.5684
  198MOL0     C26660   2.270   1.144   7.191 -1.7032  0.1723  0.1723
  198MOL0     C26661   1.508   1.230   6.888  0.4921  0.1103 -0.4599
  198MOL0     C26662   1.376   1.234   6.846 -0.4285  0.5041 -0.0600
  198MOL0     H26663   1.009   1.067   6.560 -0.7973  0.0546 -2.3719
  198MOL0     H26664   0.767   1.025   6.514  1.5965  0.5135 -0.1871
  198MOL0     H26665   0.447   1.301   6.563  2.0691  1.6196  0.0822
  198MOL0     H26666   0.591   1.316   6.465 -1.2826  0.4281 -1.0163
  198MOL0     H26667   0.505   1.073   6.361  0.6935  1.3632 -2.0781
  198MOL0     H26668   0.352   1.152   6.405 -0.3961 -1.3082 -0.4356
  198MOL0     H26669   0.591   1.273   6.249  0.4776  0.5987 -2.0926
  198MOL0     H26670   0.454   1.208   6.167 -0.3268  2.8764 -1.3243
  198MOL0     H26671   0.298   1.366   6.234  0.0231 -1.1049 -0.3795
  198MOL0     H26672   0.392   1.433   6.362  1.9211 -1.4950  0.2259
  198MOL0     H26673   0.553   1.517   6.184 -0.7866  0.0900  0.5784
  198MOL0     H26674   0.447   1.440   6.067 -2.4293  1.7161 -0.2151
  198MOL0     H26675   0.266   1.593   6.111  0.1873 -0.8387  0.3969
  198MOL0     H26676   0.352   1.668   6.237  0.7782  1.1639 -0.1522
  198MOL0     H26677   0.512   1.773   6.095  1.6125 -1.5600 -0.2239
  198MOL0     H26678   0.477   1.660   5.963  2.0565  0.1093  0.3612
  198MOL0     H26679   0.244   1.749   5.930 -0.9178 -0.2983  1.8793
  198MOL0     H26680   0.380   1.854   5.893 -0.9797  0.2345 -0.8436
  198MOL0     H26681   0.056   1.849   6.084 -0.8245  1.0329  0.5276
  198MOL0     H26682   0.038   2.204   6.270  3.1266 -0.0575 -0.9740
  198MOL0     H26683  -0.065   2.106   6.157 -1.1968 -2.1158  0.7898
  198MOL0     H26684   0.040   1.998   6.413 -0.7281 -0.5406 -0.6403
  198MOL0     H26685  -0.063   1.912   6.310  0.6630  0.5515 -0.0123
  198MOL0     H26686  -0.192   1.992   6.488  0.5829  0.2889  0.5661
  198MOL0     H26687  -0.255   2.076   6.343 -0.8704  0.2107  0.2639
  198MOL0     H26688  -0.167   2.287   6.428  0.0909 -0.3240 -1.0271
  198MOL0     H26689  -0.053   2.196   6.525 -0.2944  0.6510 -1.0008
  198MOL0     H26690  -0.350   2.107   6.815 -1.2633 -1.0115  1.1098
  198MOL0     H26691  -0.648   2.147   6.935  0.0773 -0.2906 -0.4354
  198MOL0     H26692  -0.681   1.981   6.883  0.0790 -0.4555 -0.1489
  198MOL0     H26693  -0.521   2.025   6.942  0.3811 -0.6519 -2.2004
  198MOL0     H26694  -1.019   1.963   6.575  1.7118 -0.0964  1.3176
  198MOL0     H26695  -1.267   1.953   6.613 -1.3719  0.3504  1.4960
  198MOL0     H26696  -1.458   2.009   6.625 -0.9084 -3.3268 -0.9013
  198MOL0     H26697  -1.460   1.865   6.708  0.3372  0.7329 -3.5003
  198MOL0     H26698  -1.658   1.929   6.849  0.5367  0.6502  0.3566
  198MOL0     H26699  -1.632   2.095   6.812  1.9558  1.0831  1.4028
  198MOL0     H26700  -1.715   1.854   6.614  1.7641 -0.2776  0.2316
  198MOL0     H26701  -1.665   2.009   6.554  1.7327  1.2230  0.4693
  198MOL0     H26702  -1.856   2.125   6.610 -0.3583  0.9104  1.2825
  198MOL0     H26703  -1.886   1.979   6.536  2.8742  1.4910 -1.7012
  198MOL0     H26704  -2.041   2.050   6.707  0.9417  1.9719  0.2567
  198MOL0     H26705  -1.918   2.015   6.824 -0.1344  0.3557  0.2088
  198MOL0     H26706  -2.017   1.795   6.624 -1.2545  2.1622 -0.8688
  198MOL0     H26707  -1.908   1.770   6.756  0.2789  1.0991  1.2328
  198MOL0     H26708  -2.187   1.879   6.782 -1.1676 -1.8264 -0.3598
  198MOL0     H26709  -2.079   1.844   6.915 -2.3913 -0.3255  0.8572
  198MOL0     H26710  -2.069   1.596   6.804  0.3688  0.7196 -1.1605
  198MOL0     H26711  -2.205   1.647   6.707  0.4443  0.4490 -0.3250
  198MOL0     H26712  -1.205   2.132   6.994 -0.2601  0.8444 -1.2439
  198MOL0     H26713  -0.964   2.136   6.953  0.4334 -0.2601 -0.8776
  198MOL0     H26714  -0.631   2.218   6.425  0.6981 -1.1938 -0.4513
  198MOL0     H26715  -0.395   2.251   6.421 -1.2720  1.4362  0.1035
  198MOL0     H26716   0.660   1.347   6.763 -0.5368 -0.9707  1.0882
  198MOL0     H26717   0.903   1.407   6.811 -0.4099  1.9417 -3.1779
  198MOL0     H26718   1.331   1.568   6.818 -0.7630 -0.0653 -1.4019
  198MOL0     H26719   1.572   1.561   6.868 -1.0826  0.3220  0.1489
  198MOL0     H26720   1.867   1.472   6.882  3.7968  0.5865  1.5949
  198MOL0     H26721   1.741   1.548   6.971 -2.4758 -2.4595  0.3661
  198MOL0     H26722   1.820   1.425   7.186 -2.1065  1.0795 -1.2391
  198MOL0     H26723   1.926   1.540   7.138  1.0282 -0.1492 -0.1291
  198MOL0     H26724   2.069   1.370   7.004 -1.5012 -1.6933 -1.1584
  198MOL0     H26725   1.969   1.246   7.073 -2.3437  0.9460  0.4733
  198MOL0     H26726   2.040   1.323   7.307  2.6319 -1.8601  1.3939
  198MOL0     H26727   2.135   1.449   7.231 -1.9324 -0.3007  0.3769
  198MOL0     H26728   2.345   1.068   7.200  0.1739  1.6335 -1.8123
  198MOL0     H26729   1.547   1.133   6.917 -0.5978 -0.1891  0.0472
  198MOL0     H26730   1.332   1.136   6.860  3.0166 -0.7564  4.3069
  199MOL0     O26731   4.346   8.845   4.850 -0.1759  0.0236  0.2074
  199MOL0     C26732   4.345   8.752   4.763  0.6181  0.3617  0.5633
  199MOL0     O26733   4.235   8.723   4.691  0.1642  0.4621 -0.7063
  199MOL0     C26734   4.113   8.764   4.732  0.1236 -0.5719 -0.3371
  199MOL0     C26735   4.011   8.666   4.757  0.1158  0.2431  0.7736
  199MOL0     C26736   3.873   8.704   4.766 -0.4435 -0.2482  0.4008
  199MOL0     C26737   3.837   8.841   4.765  0.3447 -0.2951  0.4600
  199MOL0     O26738   3.709   8.885   4.763  0.2293 -0.1957  0.1234
  199MOL0     C26739   3.620   8.810   4.853 -0.1525  0.3692 -0.0297
  199MOL0     C26740   3.479   8.864   4.862  0.0363  1.1706 -0.6280
  199MOL0     C26741   3.489   8.998   4.933  0.0873 -0.3459  0.0593
  199MOL0     C26742   3.350   9.042   4.996  0.8832 -0.3709  0.6882
  199MOL0     C26743   3.358   9.179   5.069 -0.6329  1.1306  0.4974
  199MOL0     C26744   3.220   9.224   5.113  0.6636 -0.2357  0.7249
  199MOL0     C26745   3.234   9.329   5.220 -0.1280 -0.0599  0.3951
  199MOL0     C26746   3.104   9.403   5.226  0.5436  0.1702 -0.1984
  199MOL0     N26747   2.990   9.321   5.254  0.2700 -1.4330  0.4190
  199MOL0     C26748   2.868   9.324   5.201 -0.3268  0.9139 -0.0900
  199MOL0     C26749   2.807   9.226   5.276  0.0600  1.0816 -0.5039
  199MOL0     C26750   2.679   9.156   5.240  0.8965 -0.2458 -0.0815
  199MOL0     C26751   2.567   9.150   5.350  0.0249  0.6757 -0.5940
  199MOL0     C26752   2.466   9.271   5.349 -0.9508 -0.3120  0.1096
  199MOL0     C26753   2.386   9.271   5.478 -1.2041  0.1502  0.8364
  199MOL0     O26754   2.299   9.162   5.476  0.2190  0.0116 -0.1153
  199MOL0     C26755   2.197   9.132   5.567  0.2136  0.3308 -0.2876
  199MOL0     C26756   2.104   9.032   5.533 -0.5052  0.2013  0.1952
  199MOL0     C26757   1.994   9.006   5.611  0.6785 -0.2325 -0.3517
  199MOL0     C26758   1.903   8.902   5.554 -0.2774  0.4162 -0.5635
  199MOL0     C26759   1.961   9.085   5.728 -0.7175  0.5275  0.9561
  199MOL0     C26760   1.840   9.068   5.814  0.3823  0.0595  0.8827
  199MOL0     O26761   1.807   9.179   5.880 -0.4881 -0.6093 -0.2725
  199MOL0     C26762   1.692   9.195   5.946  0.8937  0.3191  0.3022
  199MOL0     C26763   1.569   9.148   5.892  0.5856 -0.4968 -0.4094
  199MOL0     C26764   1.459   9.162   5.967 -0.5371 -0.4666  0.4442
  199MOL0     C26765   1.457   9.216   6.094 -0.1321 -0.0853 -0.5353
  199MOL0     O26766   1.337   9.245   6.158  0.2855  0.0155 -0.5975
  199MOL0     C26767   1.321   9.387   6.187  0.5162  0.6032  1.0054
  199MOL0     C26768   1.193   9.423   6.263  0.0940 -0.2510  0.1888
  199MOL0     C26769   1.066   9.441   6.179  0.6836 -0.4069 -0.5130
  199MOL0     C26770   1.066   9.565   6.091 -0.4130 -0.2475 -0.1225
  199MOL0     C26771   0.929   9.632   6.087  0.0821 -0.0168  0.2728
  199MOL0     C26772   0.820   9.537   6.027 -0.0462  0.1130  0.2519
  199MOL0     C26773   0.676   9.564   6.070  0.0301  0.2619 -0.4244
  199MOL0     C26774   0.581   9.507   5.970  0.7475  0.0293 -0.1232
  199MOL0    Cl26775   0.562   9.331   5.992  0.3989 -0.2269 -0.0757
  199MOL0     C26776   1.578   9.275   6.146  0.3066  0.0922  0.0273
  199MOL0     C26777   1.697   9.258   6.071 -1.0965  0.2291 -0.3770
  199MOL0     O26778   1.771   8.965   5.810  0.1771  0.1793  0.3139
  199MOL0     C26779   2.055   9.182   5.765 -0.7593  0.8013  0.1932
  199MOL0     C26780   2.169   9.208   5.683  0.6465 -0.2750  0.2719
  199MOL0     N26781   2.883   9.187   5.388  0.0516  0.0566 -0.3742
  199MOL0     N26782   2.992   9.251   5.371 -0.3353  0.1908 -0.2202
  199MOL0     C26783   3.941   8.937   4.766 -0.3603  0.2812 -0.8754
  199MOL0     C26784   4.080   8.900   4.742  0.5911 -0.7783  0.4247
  199MOL0     C26785   4.463   8.663   4.746 -0.2244 -0.5636  1.2502
  199MOL0     C26786   4.563   8.643   4.839  0.9553  0.5329  0.0032
  199MOL0     C26787   4.670   8.554   4.808  0.0633 -0.7062  0.1468
  199MOL0     C26788   4.677   8.498   4.687 -0.5835 -0.6012  0.2165
  199MOL0     O26789   4.785   8.411   4.656  0.3387  0.2412 -0.0461
  199MOL0     C26790   4.847   8.332   4.752 -0.0445 -1.1142  0.3783
  199MOL0     C26791   4.955   8.252   4.676 -0.0877 -0.9981  0.1493
  199MOL0     C26792   5.009   8.161   4.779  0.0095 -0.1680 -0.5872
  199MOL0     C26793   5.100   8.041   4.734 -0.0455  0.0518 -0.1721
  199MOL0     C26794   5.123   7.945   4.840 -0.6153 -0.5854 -0.0959
  199MOL0     C26795   5.139   7.858   4.916  0.3371  0.1019 -0.5943
  199MOL0     C26796   4.585   8.520   4.585  0.4065  0.0336  0.3435
  199MOL0     C26797   4.480   8.607   4.618 -0.6704  0.0228  1.1759
  199MOL0     H26798   4.035   8.564   4.730  1.6006  1.5283 -3.5670
  199MOL0     H26799   3.801   8.623   4.766  1.2984 -1.8856 -0.2358
  199MOL0     H26800   3.618   8.708   4.816  0.5529  0.1099  0.6208
  199MOL0     H26801   3.663   8.798   4.953  2.2511  2.6578 -0.6516
  199MOL0     H26802   3.439   8.877   4.761 -2.1334 -0.7795 -0.1147
  199MOL0     H26803   3.417   8.793   4.918 -1.6950  1.6970 -1.8006
  199MOL0     H26804   3.565   8.994   5.011  0.5388 -0.9208 -0.3964
  199MOL0     H26805   3.525   9.077   4.867 -0.4142  1.3913  1.7574
  199MOL0     H26806   3.277   9.046   4.915 -0.9469  1.5852  2.2841
  199MOL0     H26807   3.320   8.968   5.071  0.4469 -2.3001 -1.3076
  199MOL0     H26808   3.421   9.152   5.154 -0.8454 -1.3833 -0.0510
  199MOL0     H26809   3.411   9.257   5.014  0.8351  1.1649  1.8977
  199MOL0     H26810   3.184   9.283   5.028 -1.4444  0.2718  1.9184
  199MOL0     H26811   3.152   9.142   5.138 -0.1556 -0.4064 -1.7725
  199MOL0     H26812   3.263   9.288   5.317  1.1702  0.3144  0.1892
  199MOL0     H26813   3.318   9.392   5.189 -1.0289  0.4958 -1.0263
  199MOL0     H26814   3.075   9.447   5.130 -1.3022  3.3450  1.6417
  199MOL0     H26815   3.113   9.491   5.290  1.2384 -0.8945  1.2243
  199MOL0     H26816   2.834   9.368   5.108  1.1455  0.7971 -0.6952
  199MOL0     H26817   2.638   9.209   5.152  3.2121 -1.3842 -1.9585
  199MOL0     H26818   2.707   9.057   5.204  0.1892 -0.6243  0.4002
  199MOL0     H26819   2.623   9.150   5.444 -0.7324 -1.2182 -0.1079
  199MOL0     H26820   2.513   9.057   5.333  0.4398  0.7353 -2.3594
  199MOL0     H26821   2.409   9.266   5.256  0.2657  2.0801 -0.8344
  199MOL0     H26822   2.537   9.353   5.345  0.5673 -1.4939  1.3897
  199MOL0     H26823   2.330   9.363   5.498  1.3500  2.0471 -0.1328
  199MOL0     H26824   2.461   9.241   5.552 -0.0392  0.2803 -0.2666
  199MOL0     H26825   2.116   8.981   5.438 -0.9544  1.2855 -0.4662
  199MOL0     H26826   1.810   8.950   5.520 -0.2256  1.8190  1.1387
  199MOL0     H26827   1.948   8.842   5.474 -2.0010 -2.7507  0.6555
  199MOL0     H26828   1.880   8.826   5.630  0.6414  0.2187 -0.4740
  199MOL0     H26829   1.564   9.105   5.792  1.7147  2.7120 -1.9690
  199MOL0     H26830   1.365   9.113   5.943 -1.0642  0.3044  0.8876
  199MOL0     H26831   1.403   9.426   6.250  0.1518  1.1386  1.1526
  199MOL0     H26832   1.337   9.444   6.096  1.2099 -2.6323 -1.0631
  199MOL0     H26833   1.162   9.349   6.338  0.6111 -0.0087  0.6545
  199MOL0     H26834   1.205   9.515   6.320 -0.1100 -0.5260  0.6838
  199MOL0     H26835   0.990   9.450   6.257 -1.1188 -1.5180 -2.0494
  199MOL0     H26836   1.047   9.357   6.111 -1.1157 -0.6500  0.2303
  199MOL0     H26837   1.141   9.640   6.118 -1.5189  0.6742  0.4888
  199MOL0     H26838   1.090   9.538   5.988 -0.7333 -1.7669  0.1772
  199MOL0     H26839   0.928   9.720   6.022 -4.3950  0.4041  0.6006
  199MOL0     H26840   0.903   9.664   6.188 -0.0121  1.6170 -0.2425
  199MOL0     H26841   0.830   9.554   5.920  0.0082 -0.0570  0.2304
  199MOL0     H26842   0.836   9.429   6.040  0.5382 -0.5353 -4.3001
  199MOL0     H26843   0.665   9.673   6.067 -2.7294  0.1100  1.0611
  199MOL0     H26844   0.666   9.537   6.176  1.3722  2.7471  0.4359
  199MOL0     H26845   0.618   9.527   5.869 -1.4060 -0.1182 -0.9915
  199MOL0     H26846   0.483   9.551   5.988  1.2436  0.4777  1.6511
  199MOL0     H26847   1.582   9.328   6.241  2.6855 -0.9971  0.6158
  199MOL0     H26848   1.790   9.298   6.110 -1.5174 -0.5237  1.5019
  199MOL0     H26849   2.035   9.241   5.853 -1.9883  1.8171 -0.7224
  199MOL0     H26850   2.234   9.281   5.729 -0.3287 -0.2394  1.6293
  199MOL0     H26851   3.914   9.040   4.788  0.1591 -0.1235  2.1656
  199MOL0     H26852   4.139   8.990   4.730 -3.1595  1.9299  0.6079
  199MOL0     H26853   4.545   8.695   4.932 -3.2732  2.8425 -1.7957
  199MOL0     H26854   4.754   8.533   4.874  0.3881  1.4953  0.5220
  199MOL0     H26855   4.901   8.398   4.820 -1.8895  0.1622  0.6924
  199MOL0     H26856   4.780   8.267   4.809  1.1170 -0.3538  2.7497
  199MOL0     H26857   5.037   8.315   4.639 -0.5794  0.3953  1.3233
  199MOL0     H26858   4.910   8.201   4.591 -3.7698  0.6035  0.9596
  199MOL0     H26859   4.924   8.110   4.825 -0.0270 -1.7818 -2.2989
  199MOL0     H26860   5.061   8.213   4.859  0.6693  0.5501 -1.4595
  199MOL0     H26861   5.195   8.072   4.689 -0.7731  2.3077 -0.2808
  199MOL0     H26862   5.045   7.980   4.661 -0.6543  1.9145 -1.3591
  199MOL0     H26863   5.160   7.791   4.998  1.4144  1.8483  0.6383
  199MOL0     H26864   4.598   8.489   4.481  1.3582 -0.5302  0.6196
  199MOL0     H26865   4.416   8.634   4.535 -1.0365 -0.2331  1.3773
  200MOL0     O26866  10.256  10.874   4.555 -0.3075  0.1504 -0.0494
  200MOL0     C26867  10.316  10.809   4.644 -0.5076  0.0005 -0.5948
  200MOL0     O26868  10.290  10.835   4.782  0.5031 -0.2937  0.4150
  200MOL0     C26869  10.207  10.949   4.802  0.0609  0.5711  0.3551
  200MOL0     C26870  10.074  10.922   4.820  0.0172 -0.0048 -0.2560
  200MOL0     C26871   9.989  11.029   4.841 -0.0876 -0.2321 -0.6190
  200MOL0     C26872  10.034  11.162   4.850 -0.3045  0.6199 -0.2635
  200MOL0     O26873   9.948  11.260   4.862  0.9454 -0.2643  0.4781
  200MOL0     C26874   9.878  11.290   4.740 -0.2958  0.7191  0.4268
  200MOL0     C26875   9.781  11.403   4.747  0.9052  0.4568 -0.6707
  200MOL0     C26876   9.632  11.361   4.759 -0.7167  0.3634  1.1486
  200MOL0     C26877   9.537  11.479   4.772 -0.8674 -0.4839  0.2061
  200MOL0     C26878   9.385  11.452   4.777 -0.2400  0.0344  0.0568
  200MOL0     C26879   9.303  11.579   4.802 -0.0287  0.8259 -0.7357
  200MOL0     C26880   9.163  11.561   4.774  0.1397  0.3146  0.1505
  200MOL0     C26881   9.075  11.681   4.819 -0.4623 -0.0739  0.2240
  200MOL0     N26882   8.946  11.671   4.754 -0.2605 -0.5467  0.6380
  200MOL0     C26883   8.905  11.715   4.632  0.4464 -0.0406  0.1819
  200MOL0     C26884   8.766  11.696   4.624 -1.2081  0.4901  0.2623
  200MOL0     C26885   8.673  11.753   4.520 -0.0502  0.4531 -0.0226
  200MOL0     C26886   8.710  11.716   4.377 -0.3488  0.1732 -1.2425
  200MOL0     C26887   8.605  11.755   4.272 -0.2713  0.1231 -0.0360
  200MOL0     C26888   8.473  11.670   4.263 -0.3601 -0.1366 -0.6739
  200MOL0     O26889   8.377  11.726   4.354 -0.4840  0.1399  0.5763
  200MOL0     C26890   8.246  11.703   4.339 -0.3733  0.3028 -0.3611
  200MOL0     C26891   8.166  11.723   4.447 -1.1603 -0.2961 -0.0179
  200MOL0     C26892   8.026  11.705   4.449  0.3652 -0.3568  0.3056
  200MOL0     C26893   7.947  11.723   4.583  0.0318 -0.2208 -0.3581
  200MOL0     C26894   7.961  11.668   4.329  0.6256  0.4848 -0.1434
  200MOL0     C26895   7.814  11.641   4.307  0.7522  0.6152  0.1375
  200MOL0     O26896   7.773  11.632   4.183 -0.4395  0.7339  0.0960
  200MOL0     C26897   7.642  11.635   4.159 -0.1250 -0.0877 -0.7298
  200MOL0     C26898   7.571  11.516   4.150 -0.3643 -0.5546 -0.0754
  200MOL0     C26899   7.430  11.509   4.143  0.0114 -0.4976  0.1091
  200MOL0     C26900   7.351  11.624   4.140 -0.4699  0.1997 -0.1458
  200MOL0     O26901   7.214  11.604   4.148 -0.1054 -0.7664 -0.9714
  200MOL0     C26902   7.149  11.680   4.045 -0.4104 -0.0697 -0.5182
  200MOL0     C26903   6.999  11.658   4.046  0.6929 -0.0321 -0.2487
  200MOL0     C26904   6.950  11.708   3.908  0.4833 -0.4721  0.1596
  200MOL0     C26905   6.807  11.652   3.870  0.2166  0.2217 -0.1664
  200MOL0     C26906   6.728  11.728   3.767 -0.7930  0.1161 -0.4834
  200MOL0     C26907   6.779  11.722   3.621 -0.0136  0.2715 -0.0197
  200MOL0     C26908   6.706  11.822   3.525 -0.0126 -1.2895 -0.9432
  200MOL0     C26909   6.571  11.773   3.478 -0.7648 -0.1481 -0.4449
  200MOL0    Cl26910   6.493  11.898   3.370 -0.5007 -0.0942 -0.2565
  200MOL0     C26911   7.423  11.744   4.128  0.3189 -0.4562 -0.3409
  200MOL0     C26912   7.564  11.750   4.142  0.3815 -0.8770  0.5259
  200MOL0     O26913   7.744  11.638   4.409 -0.0845  0.9812 -0.3646
  200MOL0     C26914   8.046  11.639   4.210 -0.7455 -0.7531 -0.0405
  200MOL0     C26915   8.185  11.665   4.215 -0.3315 -0.3362  0.2822
  200MOL0     N26916   8.727  11.643   4.748 -0.0955  0.6648  0.0700
  200MOL0     N26917   8.828  11.631   4.823 -0.8018 -0.0273  0.1375
  200MOL0     C26918  10.170  11.179   4.833  0.1728  0.3939  0.2820
  200MOL0     C26919  10.260  11.075   4.811 -0.1453  0.6925  0.4760
  200MOL0     C26920  10.415  10.708   4.597 -0.3148 -0.0117 -0.4097
  200MOL0     C26921  10.455  10.602   4.681  0.2984  0.3121 -0.6631
  200MOL0     C26922  10.547  10.508   4.639 -0.4928 -0.6130  0.3267
  200MOL0     C26923  10.600  10.512   4.511  0.3254 -0.1890 -0.3269
  200MOL0     O26924  10.692  10.420   4.463  0.4845 -0.1881 -0.0139
  200MOL0     C26925  10.803  10.396   4.545  0.2006 -0.2139 -0.7499
  200MOL0     C26926  10.911  10.337   4.449  0.1409  0.4653 -0.6601
  200MOL0     C26927  10.874  10.204   4.391 -0.1849  1.1337  0.6254
  200MOL0     C26928  10.881  10.093   4.503 -0.4246  0.2588 -0.3914
  200MOL0     C26929  11.008  10.022   4.502  0.0292  0.5859  1.3660
  200MOL0     C26930  11.116   9.961   4.491  0.0674 -0.0894  0.0956
  200MOL0     C26931  10.560  10.620   4.427  0.4996  0.3020  0.5528
  200MOL0     C26932  10.475  10.719   4.470  0.0966  0.1590  0.4077
  200MOL0     H26933  10.045  10.818   4.828 -0.5810  0.1629 -0.1163
  200MOL0     H26934   9.882  11.010   4.845 -0.4117  1.4534  3.4708
  200MOL0     H26935   9.951  11.311   4.661 -1.8692 -0.5736 -1.4955
  200MOL0     H26936   9.825  11.199   4.707  0.5176  1.1998 -2.5245
  200MOL0     H26937   9.809  11.481   4.818  0.5618  1.8332 -2.0067
  200MOL0     H26938   9.792  11.450   4.650  3.0809  2.5052  0.4656
  200MOL0     H26939   9.605  11.305   4.669  2.7934  1.1248 -0.5543
  200MOL0     H26940   9.625  11.306   4.853 -1.1789  1.7090  1.9359
  200MOL0     H26941   9.573  11.529   4.863 -0.9038  0.3040 -0.2032
  200MOL0     H26942   9.563  11.551   4.694 -0.2110  0.5510  1.3438
  200MOL0     H26943   9.356  11.407   4.681 -0.0413 -0.8386  0.3888
  200MOL0     H26944   9.361  11.378   4.854 -0.9848 -0.1196 -0.3129
  200MOL0     H26945   9.310  11.602   4.909 -2.0458  0.3632 -0.4516
  200MOL0     H26946   9.348  11.659   4.744  0.5341  0.4515 -0.8216
  200MOL0     H26947   9.142  11.538   4.669 -0.4968 -2.6305  0.8206
  200MOL0     H26948   9.138  11.472   4.833  0.4729 -0.5616 -0.9856
  200MOL0     H26949   9.121  11.776   4.789 -0.3305  0.0246  0.7331
  200MOL0     H26950   9.074  11.689   4.928 -0.6492  3.1816  0.0944
  200MOL0     H26951   8.972  11.759   4.559  3.0067 -1.9124  1.2208
  200MOL0     H26952   8.574  11.721   4.552  0.9774 -2.1312  0.8326
  200MOL0     H26953   8.674  11.862   4.509 -1.7148  0.6915  1.7544
  200MOL0     H26954   8.733  11.611   4.358  0.5234 -0.3480  2.1787
  200MOL0     H26955   8.792  11.785   4.357 -1.6747  1.6482 -1.7873
  200MOL0     H26956   8.655  11.734   4.177  0.3324  1.0167  0.0797
  200MOL0     H26957   8.588  11.863   4.276  0.5608  0.2257  1.4360
  200MOL0     H26958   8.487  11.565   4.292  2.0723  0.3183  0.0665
  200MOL0     H26959   8.441  11.668   4.159 -0.2149  0.1077 -0.7252
  200MOL0     H26960   8.202  11.756   4.543 -1.1962  1.5928 -0.6219
  200MOL0     H26961   7.909  11.825   4.593  0.8506 -0.0496  1.3746
  200MOL0     H26962   7.866  11.652   4.600  0.9214 -1.0329  0.6602
  200MOL0     H26963   8.017  11.712   4.666 -1.1814 -2.1757  0.4847
  200MOL0     H26964   7.637  11.431   4.163 -0.9798 -2.0466 -4.8530
  200MOL0     H26965   7.381  11.412   4.153 -1.9797  0.5760  1.5918
  200MOL0     H26966   7.169  11.787   4.060  1.2864 -0.4516  0.2600
  200MOL0     H26967   7.187  11.647   3.948  0.1220  1.4180 -0.8458
  200MOL0     H26968   6.977  11.551   4.045 -0.1783  0.1386 -0.2450
  200MOL0     H26969   6.956  11.710   4.132 -0.5402  1.8109 -1.8788
  200MOL0     H26970   7.013  11.688   3.820 -0.5633 -1.2205 -0.4377
  200MOL0     H26971   6.945  11.816   3.918  0.1705 -0.3901 -0.7897
  200MOL0     H26972   6.809  11.548   3.837  0.2100 -0.2622  1.2714
  200MOL0     H26973   6.751  11.660   3.964  2.0742  2.4933  0.8517
  200MOL0     H26974   6.737  11.830   3.805  0.0302 -0.1815  0.1401
  200MOL0     H26975   6.626  11.687   3.767  0.0631 -2.1848  0.4804
  200MOL0     H26976   6.886  11.742   3.620 -0.3269  2.2396  1.1689
  200MOL0     H26977   6.779  11.620   3.581 -0.6797 -0.1500  1.0078
  200MOL0     H26978   6.769  11.844   3.438  0.7111 -0.3585 -0.2075
  200MOL0     H26979   6.694  11.920   3.571  0.9369 -2.2188  1.3846
  200MOL0     H26980   6.499  11.751   3.557 -0.0920  1.4007  0.6394
  200MOL0     H26981   6.588  11.673   3.436  2.0635 -0.5701  1.4292
  200MOL0     H26982   7.370  11.839   4.125  0.4019 -0.3058  1.7284
  200MOL0     H26983   7.620  11.842   4.142 -0.4700 -0.2949 -1.5334
  200MOL0     H26984   8.013  11.599   4.115  0.8948 -0.8304 -0.6079
  200MOL0     H26985   8.250  11.643   4.131  0.0233 -1.2353  0.7796
  200MOL0     H26986  10.209  11.280   4.837 -1.0762  0.8804  0.6394
  200MOL0     H26987  10.368  11.088   4.809 -0.2684  1.6990 -1.4848
  200MOL0     H26988  10.412  10.588   4.779  0.6043 -2.5897 -0.8700
  200MOL0     H26989  10.589  10.438   4.711  1.2335  0.5514  0.5182
  200MOL0     H26990  10.839  10.493   4.582  0.7331 -0.5697 -0.3124
  200MOL0     H26991  10.799  10.326   4.629  2.2735  0.8422  0.3195
  200MOL0     H26992  11.008  10.325   4.498 -1.0791 -1.1492  1.5528
  200MOL0     H26993  10.920  10.406   4.365 -3.9144  3.1615  0.7599
  200MOL0     H26994  10.952  10.180   4.319 -1.3234 -0.8951 -0.0031
  200MOL0     H26995  10.772  10.199   4.351 -0.6343 -1.1379  1.8890
  200MOL0     H26996  10.795  10.029   4.484  0.2841 -0.3087 -1.7466
  200MOL0     H26997  10.873  10.137   4.603  1.0649  2.1782 -1.0575
  200MOL0     H26998  11.211   9.911   4.490 -0.0643 -0.3253 -1.1163
  200MOL0     H26999  10.609  10.625   4.330 -0.3093  1.1758  0.1741
  200MOL0     H27000  10.448  10.800   4.403  1.4611  0.9570  0.7736
  201MOL0     O27001   8.480   1.666  10.383 -0.2198 -0.2502 -0.6296
  201MOL0     C27002   8.532   1.782  10.379  0.6997  0.7392 -0.3684
  201MOL0     O27003   8.462   1.892  10.357 -0.2968  0.6456  0.6571
  201MOL0     C27004   8.323   1.899  10.352  0.4369  0.5127 -0.3529
  201MOL0     C27005   8.254   2.010  10.290  0.5532 -0.5288 -0.5646
  201MOL0     C27006   8.111   2.015  10.290  0.7200  0.6131  0.0714
  201MOL0     C27007   8.032   1.927  10.357  0.1271 -0.1370  1.0945
  201MOL0     O27008   7.897   1.944  10.366  0.5685 -0.3634 -0.7772
  201MOL0     C27009   7.819   1.985  10.251 -0.0792 -0.2696 -0.1094
  201MOL0     C27010   7.672   1.987  10.280  0.3301  0.4925  0.2392
  201MOL0     C27011   7.593   2.076  10.176 -0.0620 -0.4929 -0.6264
  201MOL0     C27012   7.444   2.055  10.203  0.5012  1.1369  0.0343
  201MOL0     C27013   7.349   2.158  10.133  0.3738  0.3654 -0.5232
  201MOL0     C27014   7.361   2.293  10.212  0.1210 -0.0717  0.8207
  201MOL0     C27015   7.265   2.399  10.154 -0.6779  0.3435  0.0063
  201MOL0     C27016   7.114   2.384  10.184 -0.3832  0.0693  0.7249
  201MOL0     N27017   7.082   2.388  10.323  0.9994 -0.0300  0.5955
  201MOL0     C27018   6.962   2.365  10.378 -0.9920  0.5943  0.4397
  201MOL0     C27019   6.966   2.410  10.505  0.7074  0.0366  0.0169
  201MOL0     C27020   6.850   2.443  10.595  0.2526  0.5081 -0.9082
  201MOL0     C27021   6.853   2.369  10.738 -0.0776  0.0196 -0.5589
  201MOL0     C27022   6.719   2.389  10.810 -0.1954 -0.1540 -1.1197
  201MOL0     C27023   6.730   2.352  10.955 -0.3647  0.2313 -0.3247
  201MOL0     O27024   6.610   2.363  11.032 -0.1712  0.0192  0.8352
  201MOL0     C27025   6.581   2.474  11.100  0.2307  0.4259  0.2605
  201MOL0     C27026   6.447   2.487  11.139  0.4838 -0.4002 -2.1585
  201MOL0     C27027   6.395   2.598  11.221  0.0673  1.0599  0.4721
  201MOL0     C27028   6.250   2.606  11.258 -0.5926 -0.1860 -0.3005
  201MOL0     C27029   6.486   2.699  11.259  0.6336  0.0878 -0.3160
  201MOL0     C27030   6.455   2.819  11.340  0.9434  0.3328 -0.0775
  201MOL0     O27031   6.552   2.868  11.423 -0.2571  0.4860 -0.6306
  201MOL0     C27032   6.520   2.989  11.484 -0.1560  0.0024  0.0613
  201MOL0     C27033   6.424   2.998  11.584  0.7978 -0.0494  0.5534
  201MOL0     C27034   6.388   3.124  11.642 -0.2346  0.1950 -0.3040
  201MOL0     C27035   6.458   3.239  11.610 -0.4420  0.1179 -0.2889
  201MOL0     O27036   6.439   3.359  11.670  0.1803 -0.6056 -0.1339
  201MOL0     C27037   6.297   3.378  11.696 -0.1681 -0.2223 -0.8907
  201MOL0     C27038   6.279   3.533  11.704  0.6358 -0.1080 -0.1677
  201MOL0     C27039   6.128   3.551  11.719  0.4381  0.2921  0.2951
  201MOL0     C27040   6.070   3.579  11.579 -0.3063 -0.1569 -0.2136
  201MOL0     C27041   5.916   3.568  11.575 -0.0629  0.2501 -0.2111
  201MOL0     C27042   5.852   3.686  11.643  0.6431  0.3567  0.8086
  201MOL0     C27043   5.722   3.735  11.570  0.0466  0.3339 -0.2785
  201MOL0     C27044   5.594   3.658  11.601  0.9460 -0.0878 -0.5275
  201MOL0    Cl27045   5.448   3.754  11.556  0.1165 -0.2702 -0.0818
  201MOL0     C27046   6.552   3.231  11.507 -0.9402  0.4186  0.6068
  201MOL0     C27047   6.581   3.102  11.444  0.0627 -0.3453 -0.0808
  201MOL0     O27048   6.346   2.869  11.321 -0.0803 -0.1479  0.2655
  201MOL0     C27049   6.622   2.691  11.216  0.7060  0.3103  0.5501
  201MOL0     C27050   6.671   2.581  11.140  0.5797 -0.7753  0.1672
  201MOL0     N27051   7.090   2.459  10.528 -0.7012  0.5467 -1.0035
  201MOL0     N27052   7.162   2.436  10.422 -0.1734  0.0097  0.3525
  201MOL0     C27053   8.094   1.827  10.429 -0.2685 -0.1751 -0.4260
  201MOL0     C27054   8.233   1.824  10.437 -0.0847 -0.3879 -1.0364
  201MOL0     C27055   8.680   1.813  10.395  0.4548  0.6468  0.3275
  201MOL0     C27056   8.762   1.716  10.450  0.7485 -0.6765  0.5719
  201MOL0     C27057   8.890   1.758  10.489 -1.1201 -0.2459 -0.3232
  201MOL0     C27058   8.937   1.884  10.464 -0.4647  0.1220 -0.0357
  201MOL0     O27059   9.058   1.927  10.487  0.1018  0.5500  0.1734
  201MOL0     C27060   9.148   1.854  10.569  0.5441  0.4118  0.6137
  201MOL0     C27061   9.263   1.935  10.621  0.6382  0.4933  1.0952
  201MOL0     C27062   9.329   2.027  10.522 -0.4164 -0.3756  0.4045
  201MOL0     C27063   9.363   1.971  10.380 -0.2364 -0.5079 -0.6608
  201MOL0     C27064   9.437   1.850  10.378  0.1596 -0.1449  0.3339
  201MOL0     C27065   9.494   1.748  10.411  0.1687 -0.7958  0.2024
  201MOL0     C27066   8.859   1.973  10.400 -0.0289  0.1468 -0.6932
  201MOL0     C27067   8.733   1.940  10.355 -0.3675 -0.4795 -0.4422
  201MOL0     H27068   8.308   2.090  10.240  3.1759  0.1479  2.9501
  201MOL0     H27069   8.063   2.098  10.239 -2.0758 -0.8757  0.1369
  201MOL0     H27070   7.846   2.083  10.209 -1.5420  0.5017  0.6759
  201MOL0     H27071   7.839   1.918  10.167  0.2073 -1.7159  1.0651
  201MOL0     H27072   7.628   1.887  10.273  1.2414  0.1557 -0.8495
  201MOL0     H27073   7.646   2.021  10.381 -1.0296  1.5669 -0.4349
  201MOL0     H27074   7.629   2.179  10.184  2.6994 -1.3529 -0.8276
  201MOL0     H27075   7.615   2.051  10.072  2.1878 -0.1337 -0.3043
  201MOL0     H27076   7.410   1.958  10.165 -1.5765  1.6464  0.5034
  201MOL0     H27077   7.430   2.064  10.311  1.6555 -1.3660  0.4897
  201MOL0     H27078   7.367   2.174  10.027  0.9021  3.6186 -0.0539
  201MOL0     H27079   7.246   2.121  10.137  0.6444 -0.6117 -2.1486
  201MOL0     H27080   7.330   2.275  10.315 -0.0718  0.9271  0.9393
  201MOL0     H27081   7.464   2.328  10.205  1.0481 -2.5995  0.7888
  201MOL0     H27082   7.299   2.500  10.177 -0.4818  1.3428 -3.9648
  201MOL0     H27083   7.271   2.392  10.045  0.6338 -1.4097  0.1492
  201MOL0     H27084   7.075   2.290  10.144 -0.4044  1.2083 -2.1864
  201MOL0     H27085   7.072   2.471  10.132 -0.3255 -2.3610 -3.9288
  201MOL0     H27086   6.874   2.318  10.335 -0.5781  0.8390 -0.7093
  201MOL0     H27087   6.838   2.552  10.595  0.1837  0.5375 -3.2660
  201MOL0     H27088   6.760   2.404  10.546 -0.3740  0.4412  0.2486
  201MOL0     H27089   6.937   2.418  10.790 -1.9904  2.4734  0.4429
  201MOL0     H27090   6.859   2.261  10.724 -1.8454 -0.3099  0.8786
  201MOL0     H27091   6.650   2.309  10.783 -1.5075  0.9944 -1.2902
  201MOL0     H27092   6.680   2.491  10.798 -0.2763  0.2976  2.0899
  201MOL0     H27093   6.821   2.397  10.998  0.6972 -2.4796  0.4635
  201MOL0     H27094   6.766   2.249  10.957 -2.5635 -0.5764 -0.5658
  201MOL0     H27095   6.375   2.413  11.108 -0.1429 -2.5456  3.1800
  201MOL0     H27096   6.243   2.603  11.367  3.2659  0.3766  0.1287
  201MOL0     H27097   6.201   2.691  11.211  0.1653 -1.1232 -2.9418
  201MOL0     H27098   6.200   2.519  11.215 -0.7698  0.3889 -1.2709
  201MOL0     H27099   6.362   2.910  11.601 -1.6899  1.8846  2.2156
  201MOL0     H27100   6.315   3.123  11.722 -0.8523 -3.9476 -0.7264
  201MOL0     H27101   6.236   3.344  11.612 -1.7052  2.6851 -1.0650
  201MOL0     H27102   6.271   3.322  11.786 -0.2825 -0.2035 -0.9127
  201MOL0     H27103   6.326   3.567  11.797 -0.7442  0.6525  0.2887
  201MOL0     H27104   6.321   3.578  11.614  1.6261 -2.1300 -0.7841
  201MOL0     H27105   6.103   3.632  11.788  0.3285  0.2602  0.2927
  201MOL0     H27106   6.086   3.466  11.774 -2.4566  0.4562 -1.4458
  201MOL0     H27107   6.092   3.678  11.537  0.7990 -0.4820 -0.4145
  201MOL0     H27108   6.114   3.508  11.510  1.0631  0.2158  0.2459
  201MOL0     H27109   5.887   3.482  11.637 -1.6235  1.6739  1.1549
  201MOL0     H27110   5.882   3.552  11.472  1.7740  1.2075 -0.9993
  201MOL0     H27111   5.826   3.660  11.746  2.2502 -1.8380  0.7423
  201MOL0     H27112   5.913   3.776  11.642  1.3195 -0.0804 -0.4682
  201MOL0     H27113   5.742   3.750  11.464 -1.5683  0.2061 -0.6268
  201MOL0     H27114   5.698   3.832  11.615  1.9334  0.1847  1.1770
  201MOL0     H27115   5.585   3.615  11.702 -0.2053 -1.6644 -1.2483
  201MOL0     H27116   5.596   3.570  11.535  1.7131  0.3636 -1.1143
  201MOL0     H27117   6.599   3.326  11.481  0.0820 -0.0521  0.6966
  201MOL0     H27118   6.659   3.095  11.368  0.3322  0.0350  0.1588
  201MOL0     H27119   6.697   2.764  11.244  2.1872 -0.5610 -0.9889
  201MOL0     H27120   6.776   2.587  11.115  0.5110 -1.4859 -0.3123
  201MOL0     H27121   8.036   1.756  10.486 -1.3030  0.5905 -0.4841
  201MOL0     H27122   8.291   1.752  10.493 -0.8796 -1.9235 -2.1036
  201MOL0     H27123   8.719   1.627  10.494 -0.5980  0.0053  0.6675
  201MOL0     H27124   8.948   1.698  10.559 -1.1243  1.5908  1.3611
  201MOL0     H27125   9.100   1.820  10.660  2.8159 -2.3143  0.9248
  201MOL0     H27126   9.190   1.767  10.517 -0.0340  1.2579 -1.4026
  201MOL0     H27127   9.336   1.866  10.664  1.1969 -1.1902 -2.2303
  201MOL0     H27128   9.212   2.000  10.694 -3.3401  0.8573 -1.7202
  201MOL0     H27129   9.418   2.068  10.571  0.8714 -2.2722 -0.2103
  201MOL0     H27130   9.255   2.105  10.504 -1.9440 -1.8195  0.1759
  201MOL0     H27131   9.426   2.046  10.331  0.7871  1.5711  3.3821
  201MOL0     H27132   9.276   1.948  10.318 -0.3375 -5.4071  0.8716
  201MOL0     H27133   9.540   1.654  10.436  0.4366 -0.8630 -0.5272
  201MOL0     H27134   8.890   2.070  10.362 -0.8786 -0.8253 -4.1912
  201MOL0     H27135   8.670   2.005  10.296  0.3471  0.7264  0.0938
  202MOL0     O27136   0.008   7.836   3.923 -0.0117  0.6955  0.2829
  202MOL0     C27137   0.055   7.730   3.888  0.1833  0.3931  0.2337
  202MOL0     O27138  -0.001   7.650   3.787 -0.6175 -0.6588 -0.1654
  202MOL0     C27139  -0.107   7.709   3.719 -0.4937 -0.3436  0.1330
  202MOL0     C27140  -0.074   7.798   3.619 -0.5388  0.5853  0.2930
  202MOL0     C27141  -0.174   7.864   3.546  1.0979  0.3326  0.6808
  202MOL0     C27142  -0.304   7.823   3.565  0.7017  0.2484 -0.3973
  202MOL0     O27143  -0.410   7.872   3.494  0.5913 -0.2275 -0.4412
  202MOL0     C27144  -0.390   7.944   3.373  0.0905 -0.1519 -0.3129
  202MOL0     C27145  -0.530   7.973   3.305 -0.7742  0.4245 -0.4491
  202MOL0     C27146  -0.609   8.080   3.373  0.1402 -0.4608  0.0649
  202MOL0     C27147  -0.756   8.078   3.325 -2.1029  0.8973 -0.1016
  202MOL0     C27148  -0.839   8.148   3.432 -0.4287  1.4066 -0.3812
  202MOL0     C27149  -0.989   8.151   3.395  0.1916  1.3435 -1.6607
  202MOL0     C27150  -1.074   8.203   3.520 -0.7631 -0.5123  0.9402
  202MOL0     C27151  -1.223   8.190   3.507  0.4027  0.3916  0.1818
  202MOL0     N27152  -1.280   8.274   3.615  0.0062 -0.4018  0.3400
  202MOL0     C27153  -1.243   8.274   3.747 -0.0783 -0.5491  0.2925
  202MOL0     C27154  -1.338   8.364   3.805 -0.6914  1.4737 -0.1209
  202MOL0     C27155  -1.341   8.417   3.938  0.0202  0.0423 -0.5074
  202MOL0     C27156  -1.211   8.482   3.977  0.6947 -0.0945 -0.9272
  202MOL0     C27157  -1.209   8.522   4.128  1.2954 -1.0773  0.4611
  202MOL0     C27158  -1.118   8.436   4.210 -1.3757  0.1310  0.5793
  202MOL0     O27159  -1.138   8.493   4.339 -0.1382  0.0864 -0.2561
  202MOL0     C27160  -1.033   8.497   4.420  0.1171 -0.3479  0.1994
  202MOL0     C27161  -1.023   8.612   4.508  0.6550  0.4512 -0.2591
  202MOL0     C27162  -0.912   8.618   4.599  0.1584 -0.0308 -0.7507
  202MOL0     C27163  -0.900   8.732   4.694 -0.8229 -0.4289  1.0017
  202MOL0     C27164  -0.811   8.516   4.591  0.9113  0.6769 -0.0705
  202MOL0     C27165  -0.689   8.509   4.678  0.3152  0.3008 -0.6795
  202MOL0     O27166  -0.641   8.392   4.712  0.7739  0.4393  0.2817
  202MOL0     C27167  -0.527   8.380   4.777 -1.3546 -0.2314  0.0818
  202MOL0     C27168  -0.405   8.375   4.708 -0.0636 -0.5267 -0.1798
  202MOL0     C27169  -0.282   8.366   4.776  0.4360 -0.2037 -0.4107
  202MOL0     C27170  -0.274   8.363   4.915 -0.7005 -1.1472 -0.8183
  202MOL0     O27171  -0.158   8.365   4.992  0.6722  0.3334 -0.9535
  202MOL0     C27172  -0.034   8.344   4.927  0.0334 -0.6616  0.5657
  202MOL0     C27173   0.072   8.305   5.033  0.2242  0.3029 -0.6037
  202MOL0     C27174   0.192   8.387   5.013 -1.1227  0.0490  0.8206
  202MOL0     C27175   0.294   8.361   5.121  0.4015  1.0838  0.1574
  202MOL0     C27176   0.422   8.436   5.123  0.9574  0.0702 -0.9992
  202MOL0     C27177   0.517   8.379   5.229  0.2806 -0.2034  0.3229
  202MOL0     C27178   0.619   8.485   5.268  0.5048  0.8778 -0.2171
  202MOL0     C27179   0.730   8.431   5.357  0.2976 -0.2294 -0.0488
  202MOL0    Cl27180   0.666   8.366   5.507 -0.1626  0.0963 -0.4495
  202MOL0     C27181  -0.393   8.372   4.986 -0.7001 -0.0233  0.5979
  202MOL0     C27182  -0.511   8.376   4.914 -0.7789  0.1285 -0.7020
  202MOL0     O27183  -0.638   8.618   4.704 -0.0199 -0.3304  0.4991
  202MOL0     C27184  -0.834   8.403   4.501 -0.1841  0.2454  0.1711
  202MOL0     C27185  -0.933   8.394   4.412 -0.1570 -0.8878  0.0140
  202MOL0     N27186  -1.432   8.394   3.709  0.4973  0.4313 -0.3658
  202MOL0     N27187  -1.395   8.341   3.601  0.1563  0.1763 -1.0603
  202MOL0     C27188  -0.336   7.725   3.657 -0.1190 -0.6735  0.3009
  202MOL0     C27189  -0.236   7.670   3.743  0.5281 -0.2146  0.5062
  202MOL0     C27190   0.170   7.684   3.961  0.2377  0.4764 -0.2180
  202MOL0     C27191   0.242   7.568   3.920  0.1445  0.1916  0.4033
  202MOL0     C27192   0.365   7.529   3.983  1.0991 -0.2009  0.2455
  202MOL0     C27193   0.404   7.606   4.095  0.6735 -0.2563 -0.2868
  202MOL0     O27194   0.509   7.578   4.172  0.8774 -0.7547 -0.2893
  202MOL0     C27195   0.597   7.475   4.123  0.2654  0.3206 -0.5061
  202MOL0     C27196   0.731   7.469   4.202 -0.0016 -0.8566  0.7051
  202MOL0     C27197   0.825   7.582   4.155 -0.2317 -0.5087  0.1757
  202MOL0     C27198   0.810   7.712   4.230  0.3087 -0.6529  0.5765
  202MOL0     C27199   0.901   7.809   4.166  0.1699  0.4181 -0.0300
  202MOL0     C27200   0.977   7.879   4.113 -0.6772  0.6788 -0.1425
  202MOL0     C27201   0.326   7.717   4.136  0.3920  0.8837  0.0145
  202MOL0     C27202   0.213   7.761   4.069 -0.2002 -0.1078  0.1848
  202MOL0     H27203   0.030   7.826   3.605 -1.7249  5.1042 -1.3500
  202MOL0     H27204  -0.150   7.932   3.465  0.6319 -1.3233 -0.9042
  202MOL0     H27205  -0.339   8.039   3.396  2.3096 -1.3936  0.2177
  202MOL0     H27206  -0.325   7.889   3.305  2.8431  2.3735  0.0386
  202MOL0     H27207  -0.513   8.004   3.201 -1.9042 -0.0938 -0.8069
  202MOL0     H27208  -0.578   7.875   3.304  1.3587 -0.8467  3.5694
  202MOL0     H27209  -0.601   8.062   3.481 -2.3976 -3.0279 -0.0691
  202MOL0     H27210  -0.571   8.181   3.355 -0.5928  0.0508  1.2656
  202MOL0     H27211  -0.767   8.133   3.231  2.6807  2.8129  0.1820
  202MOL0     H27212  -0.800   7.983   3.294  0.8096 -0.9147  0.8593
  202MOL0     H27213  -0.826   8.093   3.525 -0.1165 -2.9197 -2.7328
  202MOL0     H27214  -0.803   8.251   3.434  0.3250  1.1402  0.2595
  202MOL0     H27215  -1.007   8.210   3.305 -0.7860  3.9206  0.0776
  202MOL0     H27216  -1.031   8.055   3.365  0.0874  1.2342 -1.1776
  202MOL0     H27217  -1.040   8.152   3.610  2.5585  0.6639  0.4750
  202MOL0     H27218  -1.053   8.310   3.517 -2.2517 -0.1594  1.9844
  202MOL0     H27219  -1.248   8.085   3.524  0.8583 -0.3643 -3.1345
  202MOL0     H27220  -1.255   8.213   3.405 -1.5921  2.0702  1.1232
  202MOL0     H27221  -1.156   8.228   3.793 -0.9224 -1.2051  1.2607
  202MOL0     H27222  -1.428   8.482   3.953 -1.7065 -2.0562 -0.8156
  202MOL0     H27223  -1.354   8.329   4.003 -1.8833  2.5655  2.8447
  202MOL0     H27224  -1.189   8.572   3.919 -0.9977  0.4485 -0.7850
  202MOL0     H27225  -1.128   8.412   3.960  2.7949  1.8914  0.5595
  202MOL0     H27226  -1.309   8.515   4.171  1.3840  1.0534  1.1037
  202MOL0     H27227  -1.180   8.627   4.135  0.0560 -0.7321  0.6422
  202MOL0     H27228  -1.020   8.452   4.164 -1.9274 -3.5584 -2.3451
  202MOL0     H27229  -1.141   8.329   4.202 -0.2543 -0.0347 -0.8517
  202MOL0     H27230  -1.104   8.685   4.509  0.5179  0.3092  1.6287
  202MOL0     H27231  -0.994   8.788   4.689 -0.5024  0.1758  1.5899
  202MOL0     H27232  -0.875   8.714   4.799 -1.8165  1.6172  1.6559
  202MOL0     H27233  -0.825   8.794   4.644 -1.4567 -0.9733 -0.7090
  202MOL0     H27234  -0.398   8.378   4.600 -1.3179  1.1596 -0.2612
  202MOL0     H27235  -0.186   8.365   4.726 -0.2406 -1.0002 -1.7605
  202MOL0     H27236  -0.046   8.262   4.855 -2.6928 -2.0549  2.4319
  202MOL0     H27237  -0.004   8.433   4.871 -0.5413 -1.5576 -1.2576
  202MOL0     H27238   0.021   8.311   5.130 -0.3717 -2.8909 -0.5957
  202MOL0     H27239   0.092   8.198   5.020 -1.5045 -0.7424  3.4770
  202MOL0     H27240   0.174   8.495   5.020 -1.6237 -0.1476  3.3094
  202MOL0     H27241   0.229   8.366   4.912  1.6106  1.1421  1.5000
  202MOL0     H27242   0.242   8.374   5.216  1.0471  0.1019  0.6684
  202MOL0     H27243   0.312   8.255   5.104  0.0731  1.2024 -1.0540
  202MOL0     H27244   0.400   8.542   5.140 -0.2676 -0.2749 -0.3186
  202MOL0     H27245   0.478   8.423   5.030  2.0293  2.1723 -0.7109
  202MOL0     H27246   0.457   8.342   5.313  1.1597 -1.2263  0.5203
  202MOL0     H27247   0.570   8.295   5.182  1.5086  1.3263 -1.1226
  202MOL0     H27248   0.565   8.572   5.306  0.4036 -0.0190  1.8750
  202MOL0     H27249   0.665   8.527   5.179 -0.4715  2.9161  0.1747
  202MOL0     H27250   0.818   8.494   5.372  0.8160 -1.1336  0.8415
  202MOL0     H27251   0.769   8.350   5.295 -0.7948  0.1669 -1.2804
  202MOL0     H27252  -0.391   8.367   5.095 -0.0673 -0.1930  0.5778
  202MOL0     H27253  -0.602   8.364   4.972 -0.5871 -1.0447 -0.6093
  202MOL0     H27254  -0.754   8.331   4.509 -1.0495 -1.0392 -1.7832
  202MOL0     H27255  -0.938   8.300   4.358 -0.8181 -0.5100 -0.5917
  202MOL0     H27256  -0.443   7.709   3.663 -0.2235 -0.6030 -0.9999
  202MOL0     H27257  -0.268   7.604   3.823 -1.2115 -1.1081 -0.8784
  202MOL0     H27258   0.209   7.512   3.833  1.4764  1.9273 -1.3025
  202MOL0     H27259   0.404   7.434   3.947 -1.6991 -0.9949 -0.9723
  202MOL0     H27260   0.541   7.381   4.127  0.5417  0.2027  1.4814
  202MOL0     H27261   0.616   7.491   4.017 -1.9738 -0.2320 -1.0393
  202MOL0     H27262   0.777   7.373   4.180 -0.7279 -0.6783 -1.8605
  202MOL0     H27263   0.716   7.474   4.311 -0.2552 -0.2137  0.6504
  202MOL0     H27264   0.803   7.595   4.048  0.0537 -0.4696  0.1209
  202MOL0     H27265   0.924   7.537   4.168 -0.8137 -2.6719 -1.9579
  202MOL0     H27266   0.825   7.691   4.336 -0.7562 -1.0622  0.6594
  202MOL0     H27267   0.709   7.746   4.203  0.9383 -0.6269 -2.0351
  202MOL0     H27268   1.045   7.950   4.071  0.3792  0.4304  1.0866
  202MOL0     H27269   0.355   7.767   4.228  1.1878 -0.3934  0.4807
  202MOL0     H27270   0.155   7.843   4.111 -0.7435  0.8626 -2.2717
  203MOL0     O27271   3.011   0.783   9.770  0.1963 -0.2960 -0.0519
  203MOL0     C27272   3.036   0.895   9.725  0.5332 -0.3498  0.0491
  203MOL0     O27273   2.968   1.006   9.752  0.1604 -0.1219  0.0125
  203MOL0     C27274   2.848   0.996   9.819  0.4367  0.9011  0.5307
  203MOL0     C27275   2.728   1.038   9.757 -0.5595  0.8867 -0.4298
  203MOL0     C27276   2.605   1.011   9.818 -0.3121 -0.2156 -0.6478
  203MOL0     C27277   2.594   0.954   9.942  0.4150 -0.1251  0.5152
  203MOL0     O27278   2.462   0.949   9.978  0.2259  0.4030 -0.2274
  203MOL0     C27279   2.413   0.841  10.056 -0.2389 -0.1076 -0.6684
  203MOL0     C27280   2.387   0.716   9.978  0.2032  0.7957  0.3406
  203MOL0     C27281   2.254   0.710   9.913  1.6607  0.3804 -0.4421
  203MOL0     C27282   2.239   0.608   9.803  0.2641 -0.0033  0.3604
  203MOL0     C27283   2.096   0.596   9.734  0.0997 -0.1827 -0.0109
  203MOL0     C27284   1.986   0.550   9.824  0.0520  0.6006 -0.5914
  203MOL0     C27285   1.858   0.521   9.750 -0.5948  0.2762 -0.7034
  203MOL0     C27286   1.741   0.503   9.852  0.1872  0.5025 -0.7409
  203MOL0     N27287   1.608   0.465   9.790 -0.1528  0.4618  0.2841
  203MOL0     C27288   1.576   0.431   9.656  0.3774 -0.3012  0.0471
  203MOL0     C27289   1.442   0.402   9.660  0.0146  0.0107  0.1497
  203MOL0     C27290   1.366   0.374   9.538 -0.4804  0.6112  0.1434
  203MOL0     C27291   1.261   0.268   9.558 -0.5261 -0.2056  0.2262
  203MOL0     C27292   1.167   0.261   9.443  1.2049  0.5441  0.2479
  203MOL0     C27293   1.064   0.142   9.459  0.2739 -0.3193  1.2248
  203MOL0     O27294   0.998   0.138   9.586  0.7734  0.1507  1.1198
  203MOL0     C27295   0.907   0.030   9.594 -0.3469 -0.4104 -0.8243
  203MOL0     C27296   0.945  -0.093   9.651 -0.1973  0.0342  0.0232
  203MOL0     C27297   0.851  -0.200   9.657  1.1104  0.2729 -0.5321
  203MOL0     C27298   0.908  -0.312   9.740 -0.1602  0.6753  0.6042
  203MOL0     C27299   0.719  -0.187   9.609  0.1666  1.1782  0.2597
  203MOL0     C27300   0.614  -0.285   9.624 -0.0327  0.4382  0.3383
  203MOL0     O27301   0.496  -0.230   9.630 -0.0637 -0.8617 -0.3311
  203MOL0     C27302   0.383  -0.302   9.658 -0.2885  0.1246 -0.0969
  203MOL0     C27303   0.375  -0.397   9.762 -0.6057 -0.5589 -0.0447
  203MOL0     C27304   0.259  -0.478   9.772 -0.8330 -0.4345 -0.6222
  203MOL0     C27305   0.144  -0.456   9.689 -0.0998 -0.7290  0.4517
  203MOL0     O27306   0.020  -0.526   9.707  0.2467  0.3938  0.3265
  203MOL0     C27307  -0.014  -0.606   9.815  0.0102  0.4707 -0.1486
  203MOL0     C27308  -0.158  -0.670   9.805 -0.3362 -0.3391  0.1403
  203MOL0     C27309  -0.266  -0.557   9.785 -0.4536  0.2327 -1.0320
  203MOL0     C27310  -0.409  -0.610   9.784 -0.0502 -0.0863 -0.8709
  203MOL0     C27311  -0.510  -0.498   9.794 -0.4944 -0.4032 -0.9615
  203MOL0     C27312  -0.655  -0.551   9.819  0.3832  0.4580 -0.5605
  203MOL0     C27313  -0.721  -0.622   9.695  0.0102  0.0034  0.5047
  203MOL0     C27314  -0.871  -0.635   9.698 -0.2771  0.2492  0.2602
  203MOL0    Cl27315  -0.922  -0.749   9.836  0.3616  0.0767  0.0464
  203MOL0     C27316   0.145  -0.348   9.610 -0.6502 -0.0783 -0.1012
  203MOL0     C27317   0.268  -0.272   9.592  0.7946  0.1730  1.0431
  203MOL0     O27318   0.632  -0.404   9.602 -0.1844 -0.2324 -0.3045
  203MOL0     C27319   0.679  -0.057   9.569  0.0358 -0.3711  0.7293
  203MOL0     C27320   0.776   0.045   9.553 -0.3165  0.1122  0.1694
  203MOL0     N27321   1.402   0.414   9.798  0.3214 -0.1004  0.4270
  203MOL0     N27322   1.499   0.461   9.867 -0.0013  0.0628 -0.1274
  203MOL0     C27323   2.707   0.906  10.002 -0.0644  0.7287 -0.2919
  203MOL0     C27324   2.834   0.927   9.943 -0.1485  0.0254 -0.0779
  203MOL0     C27325   3.168   0.914   9.664 -0.2963  0.5209 -0.3856
  203MOL0     C27326   3.238   0.810   9.614  0.1330 -0.2538 -0.0655
  203MOL0     C27327   3.359   0.825   9.551  0.1013  0.5716 -0.6158
  203MOL0     C27328   3.419   0.947   9.542 -0.1553 -0.2803  0.6603
  203MOL0     O27329   3.540   0.945   9.484  0.3010 -0.2922  0.3121
  203MOL0     C27330   3.616   1.065   9.466  0.1932  0.1902 -0.7194
  203MOL0     C27331   3.754   1.026   9.451  0.7461 -0.9991  0.1247
  203MOL0     C27332   3.850   1.139   9.496 -0.0902 -0.4452  0.3891
  203MOL0     C27333   3.870   1.252   9.392  0.2276  0.2357 -0.4032
  203MOL0     C27334   3.931   1.364   9.460  1.0951  0.3754  0.1492
  203MOL0     C27335   3.979   1.458   9.530 -0.3114  0.0289  0.2020
  203MOL0     C27336   3.342   1.058   9.577  0.1143 -0.0055 -0.2342
  203MOL0     C27337   3.213   1.046   9.639 -0.4751  0.0093  0.7183
  203MOL0     H27338   2.734   1.092   9.663 -0.0575 -0.4348 -1.1847
  203MOL0     H27339   2.521   1.037   9.755 -0.6226 -1.7995 -0.9415
  203MOL0     H27340   2.497   0.808  10.118  0.3459  3.3353  0.5797
  203MOL0     H27341   2.331   0.876  10.119  0.2897 -0.0673  0.0146
  203MOL0     H27342   2.469   0.695   9.908  2.2355  3.1439  1.8425
  203MOL0     H27343   2.402   0.633  10.048  3.0175  1.3081  0.4927
  203MOL0     H27344   2.177   0.707   9.991  1.2736  2.2347 -0.7111
  203MOL0     H27345   2.228   0.803   9.862  1.7228  0.4411 -0.3661
  203MOL0     H27346   2.300   0.635   9.716 -2.3799 -1.1124 -2.0042
  203MOL0     H27347   2.274   0.508   9.828 -0.6170 -0.8633 -1.6411
  203MOL0     H27348   2.079   0.692   9.685 -0.6567  0.2570  1.0822
  203MOL0     H27349   2.106   0.524   9.652  2.2296 -0.2511  0.2574
  203MOL0     H27350   2.025   0.458   9.869 -1.4246  0.8818  1.3799
  203MOL0     H27351   1.978   0.619   9.909 -0.3456 -0.0971 -0.0475
  203MOL0     H27352   1.830   0.606   9.687 -1.4111  0.8848  0.4261
  203MOL0     H27353   1.877   0.430   9.693  1.3674  1.6262 -2.3455
  203MOL0     H27354   1.724   0.596   9.907 -0.8477  0.5989 -1.1965
  203MOL0     H27355   1.770   0.425   9.922  1.4393  1.9381  0.4000
  203MOL0     H27356   1.635   0.443   9.566  0.9959 -1.2940  0.2977
  203MOL0     H27357   1.314   0.466   9.510 -3.0618 -1.7018 -3.5615
  203MOL0     H27358   1.418   0.338   9.449 -1.4206  0.9953 -0.5874
  203MOL0     H27359   1.208   0.296   9.650 -2.0862  0.3893 -0.8278
  203MOL0     H27360   1.305   0.168   9.567  3.1664  0.6481 -4.5194
  203MOL0     H27361   1.213   0.257   9.344 -1.3940  3.6895 -1.3097
  203MOL0     H27362   1.112   0.355   9.433  2.2317  1.3988  2.0676
  203MOL0     H27363   1.120   0.049   9.449 -2.0710 -1.6918  0.1859
  203MOL0     H27364   0.988   0.149   9.381 -0.0991  5.1245  1.6548
  203MOL0     H27365   1.044  -0.102   9.695 -0.1945 -0.1951 -0.0296
  203MOL0     H27366   0.998  -0.359   9.698 -0.6510 -1.8764  2.1986
  203MOL0     H27367   0.930  -0.282   9.843 -1.2128 -0.1626  1.0904
  203MOL0     H27368   0.834  -0.391   9.751 -0.7227  1.2621  1.1017
  203MOL0     H27369   0.462  -0.423   9.821 -0.8984  3.1581  2.3125
  203MOL0     H27370   0.274  -0.562   9.839  0.7422 -0.9608 -1.5863
  203MOL0     H27371   0.058  -0.687   9.830  1.3919  1.4218 -1.4045
  203MOL0     H27372  -0.020  -0.545   9.906 -5.5921 -1.1683  0.9917
  203MOL0     H27373  -0.151  -0.738   9.719  0.4469 -0.6108  0.4082
  203MOL0     H27374  -0.175  -0.737   9.890 -1.1972  0.6466  0.7705
  203MOL0     H27375  -0.246  -0.512   9.687  0.4068  3.1682  0.3725
  203MOL0     H27376  -0.256  -0.481   9.863 -0.2679  1.2091 -1.9890
  203MOL0     H27377  -0.414  -0.665   9.689  1.7656 -0.4668 -0.7861
  203MOL0     H27378  -0.428  -0.686   9.860 -1.1572 -1.7766 -2.7325
  203MOL0     H27379  -0.509  -0.440   9.701  0.1693 -0.9102 -1.2801
  203MOL0     H27380  -0.486  -0.432   9.878 -0.9238 -3.9188  2.1510
  203MOL0     H27381  -0.651  -0.610   9.911 -1.9348 -0.1908 -0.8236
  203MOL0     H27382  -0.713  -0.463   9.849  1.2724  0.4628  1.3350
  203MOL0     H27383  -0.678  -0.722   9.686  0.9073  0.4896 -0.9840
  203MOL0     H27384  -0.684  -0.560   9.612 -0.6064 -0.0967  0.1496
  203MOL0     H27385  -0.918  -0.684   9.613 -0.4281  0.0895  0.4329
  203MOL0     H27386  -0.928  -0.541   9.698 -2.5054 -1.0103 -0.7230
  203MOL0     H27387   0.053  -0.303   9.574  1.1559  2.5912 -1.7480
  203MOL0     H27388   0.275  -0.188   9.524 -1.8328 -0.3372  0.0216
  203MOL0     H27389   0.577  -0.047   9.533 -0.5435 -3.7798  1.0546
  203MOL0     H27390   0.750   0.136   9.502 -0.8212 -0.3296 -0.3804
  203MOL0     H27391   2.717   0.858  10.099  1.4657  1.4102 -0.0795
  203MOL0     H27392   2.923   0.882   9.985 -1.2849 -0.8519  1.4747
  203MOL0     H27393   3.189   0.714   9.627 -2.2078  0.9963  1.0357
  203MOL0     H27394   3.397   0.732   9.509 -2.7614  0.0687 -2.3364
  203MOL0     H27395   3.579   1.127   9.384 -0.7928  1.4581  0.6061
  203MOL0     H27396   3.594   1.129   9.553  0.2097 -0.5448 -0.1667
  203MOL0     H27397   3.772   1.012   9.344 -2.7236  0.0866 -0.7363
  203MOL0     H27398   3.768   0.927   9.496 -1.5214 -1.8233 -0.8575
  203MOL0     H27399   3.953   1.101   9.503  1.5702  3.7360  1.3437
  203MOL0     H27400   3.826   1.181   9.594 -0.0690 -1.2317  0.7444
  203MOL0     H27401   3.781   1.289   9.341  1.0129 -1.5157 -3.2614
  203MOL0     H27402   3.947   1.210   9.327 -0.0511 -1.4134  0.2865
  203MOL0     H27403   4.013   1.538   9.592 -1.9059  1.0114 -0.1446
  203MOL0     H27404   3.381   1.158   9.556 -0.5671 -0.0895 -2.0542
  203MOL0     H27405   3.161   1.136   9.669 -1.1806  0.2984 -1.2101
  204MOL0     O27406   0.627   0.083   0.041 -0.1177 -0.5047  0.5272
  204MOL0     C27407   0.631   0.140  -0.066 -0.5409  0.2002 -0.0174
  204MOL0     O27408   0.538   0.198  -0.132  0.3664 -0.2375  0.4132
  204MOL0     C27409   0.412   0.221  -0.086 -0.6808  0.8412 -0.3046
  204MOL0     C27410   0.312   0.213  -0.182 -0.1553  0.4113 -0.0825
  204MOL0     C27411   0.175   0.238  -0.155  0.7279  0.8213  0.6471
  204MOL0     C27412   0.147   0.264  -0.027  0.2522  0.0321 -0.2779
  204MOL0     O27413   0.025   0.309   0.022  0.7462 -0.1059 -0.2323
  204MOL0     C27414  -0.083   0.215   0.020  0.1941  0.4594 -0.4437
  204MOL0     C27415  -0.168   0.249   0.140 -0.1478  0.6609 -0.2908
  204MOL0     C27416  -0.316   0.219   0.116  0.5150 -0.1015 -0.6026
  204MOL0     C27417  -0.346   0.070   0.111  0.0980  1.0935 -0.8449
  204MOL0     C27418  -0.493   0.036   0.079 -0.3595 -0.1216  1.1573
  204MOL0     C27419  -0.517  -0.108   0.104  0.5540  0.1679  0.0228
  204MOL0     C27420  -0.664  -0.150   0.068 -0.2811  0.2841 -0.2623
  204MOL0     C27421  -0.762  -0.103   0.160 -0.3245 -0.5891  0.3830
  204MOL0     N27422  -0.897  -0.164   0.154 -0.6393 -1.0060 -0.2170
  204MOL0     C27423  -0.982  -0.177   0.047 -0.2882  0.3039  0.1840
  204MOL0     C27424  -1.086  -0.252   0.080 -0.6584  0.5354  0.0806
  204MOL0     C27425  -1.207  -0.278  -0.006  1.0028 -0.0632 -0.2588
  204MOL0     C27426  -1.330  -0.273   0.094 -0.1209  0.6471 -1.0662
  204MOL0     C27427  -1.459  -0.319   0.031 -0.3608  0.8132 -0.0552
  204MOL0     C27428  -1.594  -0.299   0.089  0.0717 -0.3637 -0.4454
  204MOL0     O27429  -1.600  -0.377   0.210 -0.3044 -0.5401  0.4266
  204MOL0     C27430  -1.713  -0.375   0.291 -0.3164 -0.1754  0.2692
  204MOL0     C27431  -1.701  -0.398   0.424 -0.3014  0.0525 -0.2326
  204MOL0     C27432  -1.817  -0.415   0.510 -0.6410 -0.0329 -0.2891
  204MOL0     C27433  -1.795  -0.444   0.651 -0.5633  0.2257 -0.5806
  204MOL0     C27434  -1.948  -0.406   0.452  0.3027 -0.3312 -0.3812
  204MOL0     C27435  -2.080  -0.409   0.525  0.6143 -0.3565  1.0555
  204MOL0     O27436  -2.187  -0.348   0.466 -0.7692 -0.2265  0.2729
  204MOL0     C27437  -2.300  -0.379   0.536 -0.0268  0.0756  0.5558
  204MOL0     C27438  -2.371  -0.292   0.628 -0.3570  0.4266  0.4217
  204MOL0     C27439  -2.490  -0.327   0.699 -0.2080 -0.1765  0.8277
  204MOL0     C27440  -2.541  -0.450   0.675 -0.5778 -0.6691 -0.7990
  204MOL0     O27441  -2.644  -0.485   0.754  0.7165  0.2814 -0.3985
  204MOL0     C27442  -2.727  -0.599   0.716  0.0558  1.1059  0.0004
  204MOL0     C27443  -2.846  -0.631   0.815 -0.2883  0.2346  0.3950
  204MOL0     C27444  -2.972  -0.536   0.795  0.4994 -0.3510 -0.2983
  204MOL0     C27445  -3.080  -0.587   0.888  0.1755 -0.0994  0.2723
  204MOL0     C27446  -3.198  -0.496   0.895  0.5961 -0.4794 -0.2871
  204MOL0     C27447  -3.303  -0.553   0.985  0.6736 -0.2461  0.4604
  204MOL0     C27448  -3.354  -0.688   0.928 -0.4270  0.0390 -0.6702
  204MOL0     C27449  -3.500  -0.727   0.964 -0.5218 -0.0671  0.5861
  204MOL0    Cl27450  -3.524  -0.690   1.138  0.0164 -0.2384  0.1254
  204MOL0     C27451  -2.475  -0.539   0.591  0.0134 -0.4786 -0.4993
  204MOL0     C27452  -2.357  -0.504   0.528  0.9722  0.5244 -0.2725
  204MOL0     O27453  -2.081  -0.478   0.619 -0.2913  0.3766 -0.3810
  204MOL0     C27454  -1.959  -0.384   0.319 -0.4521  1.1104 -0.0225
  204MOL0     C27455  -1.843  -0.361   0.234 -0.6938  1.3877 -0.3721
  204MOL0     N27456  -1.062  -0.298   0.200  0.6395 -0.3130 -0.6857
  204MOL0     N27457  -0.951  -0.248   0.251  0.0756 -0.6754 -0.1749
  204MOL0     C27458   0.247   0.267   0.075  0.8076 -0.3852  0.6046
  204MOL0     C27459   0.382   0.254   0.045 -0.7913  0.4075  0.0690
  204MOL0     C27460   0.767   0.171  -0.118  0.7356  0.2578 -0.5553
  204MOL0     C27461   0.784   0.226  -0.243  0.4623  0.6731  0.1194
  204MOL0     C27462   0.912   0.240  -0.301  1.0604  0.2201 -0.4930
  204MOL0     C27463   1.029   0.211  -0.232 -0.6784  0.1141 -0.9589
  204MOL0     O27464   1.138   0.233  -0.306  0.0861  0.8683 -0.5496
  204MOL0     C27465   1.257   0.238  -0.224  0.3850  0.8721  0.5047
  204MOL0     C27466   1.388   0.253  -0.295  0.2369  0.5305  0.7975
  204MOL0     C27467   1.381   0.381  -0.384  0.8365 -0.5010 -0.7319
  204MOL0     C27468   1.517   0.406  -0.452 -0.0035  1.0788 -1.2097
  204MOL0     C27469   1.528   0.319  -0.571  0.9194  0.1669 -0.1571
  204MOL0     C27470   1.550   0.254  -0.667  0.7924  0.3853  0.1081
  204MOL0     C27471   1.016   0.178  -0.093 -0.0899  0.1869 -0.1563
  204MOL0     C27472   0.889   0.155  -0.041 -0.2712 -0.8991 -0.3858
  204MOL0     H27473   0.331   0.198  -0.288  3.2498  0.5739  0.3931
  204MOL0     H27474   0.108   0.226  -0.240  1.5544 -0.3261  0.1227
  204MOL0     H27475  -0.138   0.229  -0.074 -1.2769 -0.3341  0.2593
  204MOL0     H27476  -0.045   0.113   0.029 -3.3563 -0.9079  1.0462
  204MOL0     H27477  -0.135   0.202   0.233 -1.2465 -1.7566 -1.0549
  204MOL0     H27478  -0.168   0.358   0.154  3.1295  0.8604 -0.9765
  204MOL0     H27479  -0.386   0.271   0.183  0.1605  0.7102 -1.5772
  204MOL0     H27480  -0.342   0.265   0.020  0.7691  0.7377 -0.2774
  204MOL0     H27481  -0.278   0.022   0.041 -0.3059  0.3216 -0.7132
  204MOL0     H27482  -0.331   0.024   0.209 -0.6453  0.5796 -0.9682
  204MOL0     H27483  -0.565   0.098   0.133  1.4187  4.4264 -1.1554
  204MOL0     H27484  -0.521   0.049  -0.026 -0.9396  4.2490  1.6759
  204MOL0     H27485  -0.442  -0.158   0.043  0.7194  0.8463 -0.3297
  204MOL0     H27486  -0.496  -0.129   0.209  0.0104 -2.4619 -0.3114
  204MOL0     H27487  -0.674  -0.118  -0.036 -2.2285 -2.4450 -1.0051
  204MOL0     H27488  -0.667  -0.259   0.065 -0.3355  0.1054  2.8919
  204MOL0     H27489  -0.780   0.004   0.151  3.3215 -0.0125 -1.4603
  204MOL0     H27490  -0.706  -0.114   0.253  0.8619  3.1939  0.2637
  204MOL0     H27491  -0.978  -0.129  -0.051 -3.1483 -1.5794 -0.9895
  204MOL0     H27492  -1.221  -0.205  -0.086 -1.2573  1.1406  1.1128
  204MOL0     H27493  -1.198  -0.377  -0.051  1.7372 -0.4985  0.8064
  204MOL0     H27494  -1.342  -0.170   0.130 -0.1643  0.0465  0.7713
  204MOL0     H27495  -1.319  -0.341   0.179 -1.4064  0.2642 -1.1906
  204MOL0     H27496  -1.451  -0.426   0.010 -1.2208  0.5397  0.8884
  204MOL0     H27497  -1.473  -0.255  -0.056 -0.2968  2.6078  1.1838
  204MOL0     H27498  -1.663  -0.338   0.014  1.2246 -0.4572 -1.4948
  204MOL0     H27499  -1.613  -0.193   0.108 -0.6395 -0.8275  1.6243
  204MOL0     H27500  -1.603  -0.392   0.471  0.0273 -0.7376 -0.7950
  204MOL0     H27501  -1.809  -0.549   0.681 -0.1542  0.6688  1.2765
  204MOL0     H27502  -1.692  -0.425   0.683 -0.7400 -1.0415  0.9096
  204MOL0     H27503  -1.855  -0.382   0.718  2.2751  1.1958  1.2329
  204MOL0     H27504  -2.315  -0.201   0.649  2.0397 -0.5258 -1.4204
  204MOL0     H27505  -2.534  -0.271   0.781 -0.3257 -0.2432  0.8089
  204MOL0     H27506  -2.770  -0.592   0.616  0.4291 -0.3991 -0.2894
  204MOL0     H27507  -2.661  -0.685   0.703  1.8197  2.5168 -0.8929
  204MOL0     H27508  -2.870  -0.735   0.795  0.8239  0.3338 -1.7612
  204MOL0     H27509  -2.807  -0.630   0.918  0.5367 -3.5409  0.2562
  204MOL0     H27510  -3.007  -0.548   0.692  0.0026 -0.0841 -0.1621
  204MOL0     H27511  -2.947  -0.432   0.818 -0.7833 -0.0388 -0.2628
  204MOL0     H27512  -3.114  -0.683   0.848  3.7974 -1.0845 -0.7823
  204MOL0     H27513  -3.043  -0.592   0.991  0.8015 -2.8326  0.0000
  204MOL0     H27514  -3.242  -0.482   0.796  4.3379  3.1601 -1.7281
  204MOL0     H27515  -3.171  -0.396   0.931  2.2054 -1.8275  2.5720
  204MOL0     H27516  -3.276  -0.567   1.090  0.5925 -1.2344  0.3610
  204MOL0     H27517  -3.385  -0.480   0.979 -0.6450 -1.6932  0.0825
  204MOL0     H27518  -3.292  -0.770   0.964  1.5059  2.9697  3.4828
  204MOL0     H27519  -3.346  -0.680   0.819  2.7293  0.7241 -0.4791
  204MOL0     H27520  -3.513  -0.833   0.945  2.0049 -0.7377  2.0910
  204MOL0     H27521  -3.571  -0.669   0.904 -0.9429  0.4116  1.5197
  204MOL0     H27522  -2.526  -0.633   0.571 -1.0720 -0.2021  0.8240
  204MOL0     H27523  -2.300  -0.568   0.461  2.8300  2.4737 -0.6544
  204MOL0     H27524  -2.057  -0.371   0.274 -1.8771 -2.2119  1.8256
  204MOL0     H27525  -1.865  -0.341   0.130 -0.4276  4.0999  0.0257
  204MOL0     H27526   0.202   0.286   0.172 -2.5222 -1.9251 -0.4634
  204MOL0     H27527   0.454   0.282   0.121 -1.1842  1.8671 -0.0577
  204MOL0     H27528   0.702   0.257  -0.307  1.6161  0.6692 -1.4187
  204MOL0     H27529   0.917   0.285  -0.400 -0.9931 -1.8684 -1.6502
  204MOL0     H27530   1.249   0.328  -0.163 -1.2773  1.2895 -0.2594
  204MOL0     H27531   1.267   0.142  -0.172  2.0158  0.9287  0.3523
  204MOL0     H27532   1.394   0.165  -0.360  0.8881  0.1994  1.2933
  204MOL0     H27533   1.475   0.252  -0.228 -1.2205  4.1719  3.0637
  204MOL0     H27534   1.344   0.472  -0.336  1.6622  0.5916 -2.0950
  204MOL0     H27535   1.313   0.365  -0.468 -2.6202  0.5766  1.6783
  204MOL0     H27536   1.608   0.394  -0.393 -1.1781  0.1599  0.4915
  204MOL0     H27537   1.513   0.513  -0.474 -1.3508  2.1136  3.2105
  204MOL0     H27538   1.563   0.185  -0.748 -3.1820 -1.9362  1.1340
  204MOL0     H27539   1.098   0.164  -0.023 -0.2074  3.3722  0.7938
  204MOL0     H27540   0.880   0.136   0.066 -1.1345  1.2813 -0.0127
  205MOL0     O27541   3.478   1.195   3.774 -0.0870  0.0164 -0.3518
  205MOL0     C27542   3.526   1.085   3.800  1.0849 -0.3132 -0.2333
  205MOL0     O27543   3.478   0.964   3.760  0.3913 -0.2370  0.5430
  205MOL0     C27544   3.351   0.950   3.697  0.1275  0.0849  0.0667
  205MOL0     C27545   3.242   1.027   3.738 -0.8839  0.0422 -0.5966
  205MOL0     C27546   3.116   1.000   3.683  1.6623 -0.4211  0.2499
  205MOL0     C27547   3.090   0.905   3.586  0.0642 -0.2524 -0.2148
  205MOL0     O27548   2.961   0.887   3.538  0.3201  0.2931 -0.9354
  205MOL0     C27549   2.926   0.756   3.498  0.3249  0.1892  0.1581
  205MOL0     C27550   2.781   0.750   3.469  0.8632  0.2930  1.4896
  205MOL0     C27551   2.739   0.605   3.458 -0.3938  0.2812 -0.2169
  205MOL0     C27552   2.589   0.597   3.459  0.2527 -0.4618 -0.3197
  205MOL0     C27553   2.570   0.451   3.476 -0.7161 -0.1589  0.2353
  205MOL0     C27554   2.428   0.419   3.521 -0.1597 -0.6561  0.2189
  205MOL0     C27555   2.340   0.399   3.404  0.4299 -0.0300 -0.0711
  205MOL0     C27556   2.193   0.374   3.446  0.4392  0.3892 -0.0075
  205MOL0     N27557   2.166   0.254   3.535  0.0780 -0.1205  0.1300
  205MOL0     C27558   2.208   0.129   3.512  0.3559 -0.5516  0.2359
  205MOL0     C27559   2.139   0.050   3.599 -0.1459  0.1654 -0.0588
  205MOL0     C27560   2.132  -0.098   3.610 -0.0230 -0.5065 -0.2253
  205MOL0     C27561   1.993  -0.153   3.580  0.4247 -0.2524 -0.0297
  205MOL0     C27562   1.965  -0.288   3.647  0.3067  0.0532  0.3935
  205MOL0     C27563   1.814  -0.324   3.653  0.1730  0.0362 -0.0377
  205MOL0     O27564   1.737  -0.232   3.735  0.1334  0.0149  0.2826
  205MOL0     C27565   1.659  -0.130   3.688 -0.2433  0.1842  0.2864
  205MOL0     C27566   1.653  -0.100   3.553 -0.2583 -1.2834  0.5857
  205MOL0     C27567   1.578   0.011   3.507  1.0287  0.0884  0.4669
  205MOL0     C27568   1.598   0.043   3.355 -0.5413 -0.5127  1.1742
  205MOL0     C27569   1.486   0.076   3.590  0.1973 -0.2763  0.3789
  205MOL0     C27570   1.393   0.182   3.545  0.3548 -0.3448  0.0497
  205MOL0     O27571   1.338   0.248   3.651  0.6369  0.6122  0.7682
  205MOL0     C27572   1.268   0.366   3.624 -0.7567  0.0745 -0.4864
  205MOL0     C27573   1.137   0.365   3.585 -0.0309 -0.5725  0.4174
  205MOL0     C27574   1.067   0.484   3.559  0.5203  0.0180  0.8971
  205MOL0     C27575   1.127   0.603   3.587 -0.0708  0.3987  0.1184
  205MOL0     O27576   1.056   0.719   3.568  0.0919 -0.0987  0.2619
  205MOL0     C27577   1.102   0.841   3.625  0.1561 -0.1250  0.5147
  205MOL0     C27578   0.991   0.953   3.623 -0.0984 -0.0752 -0.0590
  205MOL0     C27579   0.934   1.008   3.488 -0.1279  0.1920  0.4507
  205MOL0     C27580   0.878   1.148   3.498  0.2882  0.2817  0.7875
  205MOL0     C27581   0.744   1.159   3.571  0.4249 -0.1500  0.4795
  205MOL0     C27582   0.632   1.138   3.475  0.0022 -0.1612  0.4199
  205MOL0     C27583   0.495   1.152   3.546  0.4804 -0.2486  0.2951
  205MOL0     C27584   0.372   1.124   3.461 -0.1086 -0.3915 -1.4268
  205MOL0    Cl27585   0.220   1.121   3.540  0.3799 -0.3192  0.1947
  205MOL0     C27586   1.261   0.602   3.628 -0.4208  0.2681 -0.4987
  205MOL0     C27587   1.328   0.486   3.654  0.1600  0.3808  0.7414
  205MOL0     O27588   1.382   0.210   3.427  0.1006  0.3652  0.4105
  205MOL0     C27589   1.496   0.041   3.724  0.1659 -0.2491 -0.2022
  205MOL0     C27590   1.579  -0.056   3.774 -0.1269 -0.7932 -0.2288
  205MOL0     N27591   2.046   0.126   3.668 -0.6738  0.0161  0.1507
  205MOL0     N27592   2.064   0.247   3.626 -0.8947  0.1064 -0.6300
  205MOL0     C27593   3.202   0.836   3.538  0.6849 -0.7257 -0.4128
  205MOL0     C27594   3.327   0.861   3.589 -0.1037  0.4170 -0.6806
  205MOL0     C27595   3.654   1.080   3.878  0.1511 -0.1094  0.4161
  205MOL0     C27596   3.701   1.193   3.947 -0.5751 -0.1343  0.8602
  205MOL0     C27597   3.819   1.182   4.017  0.7340 -0.2584 -0.5409
  205MOL0     C27598   3.892   1.070   4.024 -0.2251 -0.2704 -0.3984
  205MOL0     O27599   3.997   1.080   4.107  0.0518  0.3961 -0.3925
  205MOL0     C27600   4.064   0.951   4.137  0.0731 -0.4104 -0.2210
  205MOL0     C27601   4.158   0.973   4.253 -0.4229 -0.5022  0.4142
  205MOL0     C27602   4.286   1.018   4.204 -0.3242 -0.6938  0.6174
  205MOL0     C27603   4.371   1.081   4.323 -0.9703 -0.4276 -0.6940
  205MOL0     C27604   4.393   0.981   4.422 -0.0749 -0.4227  0.0574
  205MOL0     C27605   4.405   0.901   4.518 -0.0200 -0.3481 -0.7613
  205MOL0     C27606   3.847   0.957   3.960 -0.2259  0.5087  0.4668
  205MOL0     C27607   3.722   0.956   3.894 -0.0168  0.6287 -0.4705
  205MOL0     H27608   3.245   1.104   3.814  0.5856 -0.3449 -0.2253
  205MOL0     H27609   3.031   1.063   3.708 -0.2915 -2.9274  0.3996
  205MOL0     H27610   2.976   0.734   3.404 -2.8066  0.9821 -1.8646
  205MOL0     H27611   2.956   0.688   3.578 -1.2427  0.1049  0.7132
  205MOL0     H27612   2.728   0.791   3.555 -1.2522 -3.1915  2.0514
  205MOL0     H27613   2.749   0.813   3.385 -2.4511 -0.2443  2.2371
  205MOL0     H27614   2.780   0.566   3.364 -0.1823 -0.2368  0.0873
  205MOL0     H27615   2.779   0.548   3.542  0.3390  0.9561 -0.0980
  205MOL0     H27616   2.565   0.652   3.550  1.4521 -0.2855 -0.0953
  205MOL0     H27617   2.540   0.639   3.371  1.8723 -0.9836 -1.5259
  205MOL0     H27618   2.596   0.396   3.385  2.9685  2.0319 -0.2484
  205MOL0     H27619   2.636   0.410   3.553  1.1469  0.2692 -1.0785
  205MOL0     H27620   2.437   0.321   3.569 -3.7668 -0.7490  0.9454
  205MOL0     H27621   2.395   0.501   3.585  1.4315 -0.9620  1.5098
  205MOL0     H27622   2.350   0.487   3.339 -1.8485  1.2965  1.2252
  205MOL0     H27623   2.360   0.308   3.347 -2.7046  1.3076 -3.7784
  205MOL0     H27624   2.119   0.362   3.366 -0.4144  1.8168  0.5272
  205MOL0     H27625   2.161   0.459   3.507  0.2761  2.2314 -2.5319
  205MOL0     H27626   2.270   0.089   3.431  0.2493 -3.0372  1.2950
  205MOL0     H27627   2.199  -0.125   3.528 -1.1213 -2.3366 -0.5795
  205MOL0     H27628   2.175  -0.125   3.706  0.8204  0.9685 -0.1650
  205MOL0     H27629   1.984  -0.192   3.478  1.8691 -1.7822  0.3688
  205MOL0     H27630   1.918  -0.077   3.598  1.9989  1.4505 -0.3407
  205MOL0     H27631   2.006  -0.282   3.748  1.3728  0.7069 -0.0631
  205MOL0     H27632   2.026  -0.368   3.603  0.6361  1.5660 -2.1070
  205MOL0     H27633   1.804  -0.425   3.696  1.3361 -0.5129 -1.0114
  205MOL0     H27634   1.769  -0.334   3.554  0.0532 -1.9198  0.1600
  205MOL0     H27635   1.701  -0.161   3.477  2.4260  0.1717  1.0012
  205MOL0     H27636   1.677  -0.016   3.308 -1.7510 -0.0814 -1.6414
  205MOL0     H27637   1.517   0.019   3.286  1.4733  3.0786 -2.9921
  205MOL0     H27638   1.618   0.150   3.342  1.7057 -1.1299 -1.4869
  205MOL0     H27639   1.087   0.270   3.567  1.5637 -0.9889 -2.3150
  205MOL0     H27640   0.971   0.469   3.512  0.6352  0.9104  0.3606
  205MOL0     H27641   1.142   0.818   3.724  0.5808 -2.4273 -0.1525
  205MOL0     H27642   1.183   0.873   3.558  0.2430 -1.2173  0.0844
  205MOL0     H27643   0.903   0.905   3.665 -0.0784  0.1932  0.2964
  205MOL0     H27644   1.019   1.035   3.691 -1.5362  1.2189 -0.9756
  205MOL0     H27645   0.859   0.936   3.454  0.5219  0.1833 -1.0405
  205MOL0     H27646   1.009   1.008   3.409 -0.2407  2.8047  0.2698
  205MOL0     H27647   0.953   1.209   3.550  2.4088 -1.8458  0.4214
  205MOL0     H27648   0.881   1.186   3.395  1.8590  2.6919  1.6395
  205MOL0     H27649   0.734   1.256   3.621  0.0436 -0.3953  0.8899
  205MOL0     H27650   0.736   1.076   3.642  0.4524 -0.9043 -0.3839
  205MOL0     H27651   0.636   1.215   3.397  0.8565  1.1786  1.7181
  205MOL0     H27652   0.646   1.039   3.430  0.8489 -0.7387  1.9015
  205MOL0     H27653   0.488   1.256   3.577  0.4652 -0.0479 -0.3735
  205MOL0     H27654   0.502   1.079   3.627  0.8290  0.1097  0.5900
  205MOL0     H27655   0.386   1.023   3.420 -1.4302 -1.5906  0.8786
  205MOL0     H27656   0.377   1.200   3.382 -0.8183  0.9204 -0.2434
  205MOL0     H27657   1.318   0.693   3.646 -0.4183  0.2569 -0.4495
  205MOL0     H27658   1.433   0.478   3.678  0.6105 -0.6125 -1.3073
  205MOL0     H27659   1.439   0.095   3.798  1.2069 -0.9688  1.1663
  205MOL0     H27660   1.586  -0.068   3.881 -0.0658 -2.1240 -0.3691
  205MOL0     H27661   3.199   0.768   3.453 -2.5854  0.0731 -1.0749
  205MOL0     H27662   3.415   0.812   3.548 -0.4265 -1.5152  0.7922
  205MOL0     H27663   3.648   1.287   3.953 -1.5080 -0.6760  1.4112
  205MOL0     H27664   3.840   1.265   4.084 -1.5736  0.7565 -0.9671
  205MOL0     H27665   3.986   0.886   4.176 -0.4346  1.1100  1.4384
  205MOL0     H27666   4.128   0.910   4.059  1.2614 -3.1716  2.0148
  205MOL0     H27667   4.162   0.880   4.309 -2.2546 -1.3008 -0.6904
  205MOL0     H27668   4.115   1.050   4.317 -1.5531 -2.9559  2.8026
  205MOL0     H27669   4.266   1.085   4.120  1.6097 -2.5191 -1.4197
  205MOL0     H27670   4.337   0.933   4.158  0.5665 -0.4205  1.0956
  205MOL0     H27671   4.334   1.171   4.373  3.4907  1.1735  0.1261
  205MOL0     H27672   4.473   1.107   4.296  0.6098 -1.4405  3.4995
  205MOL0     H27673   4.422   0.820   4.586 -1.2619  0.7951  1.0076
  205MOL0     H27674   3.905   0.865   3.964 -1.0954 -0.0462  0.4922
  205MOL0     H27675   3.694   0.858   3.855  0.7337  0.2921 -0.1781
  206MOL0     O27676   1.505   5.382   4.758  0.5878  0.7342 -0.0688
  206MOL0     C27677   1.615   5.439   4.749  0.2051  1.2345  0.5754
  206MOL0     O27678   1.677   5.489   4.632 -0.0619 -0.7215 -0.4371
  206MOL0     C27679   1.597   5.505   4.517  0.4745  0.1917  0.4719
  206MOL0     C27680   1.646   5.454   4.402  0.4569 -0.6609  1.2159
  206MOL0     C27681   1.574   5.450   4.279  0.0110 -0.0670 -0.3001
  206MOL0     C27682   1.449   5.506   4.272  0.9049  0.4643 -0.3219
  206MOL0     O27683   1.395   5.512   4.146  0.3264 -0.4606  0.8937
  206MOL0     C27684   1.252   5.532   4.136 -0.7250 -0.6348  0.1567
  206MOL0     C27685   1.225   5.546   3.983  0.3009 -0.2212  0.9815
  206MOL0     C27686   1.076   5.539   3.945 -0.1939 -0.2037 -0.6554
  206MOL0     C27687   1.058   5.554   3.793 -0.0727 -0.0326  0.3116
  206MOL0     C27688   0.908   5.545   3.766 -0.1125 -0.5293 -0.4748
  206MOL0     C27689   0.841   5.405   3.762  0.1381 -0.5360 -0.6296
  206MOL0     C27690   0.690   5.407   3.760 -0.3505 -1.2954 -0.0304
  206MOL0     C27691   0.629   5.272   3.745  0.2564  0.1282  0.3279
  206MOL0     N27692   0.481   5.286   3.762  0.4597  0.0193 -0.2412
  206MOL0     C27693   0.417   5.256   3.883 -0.5700 -0.0421  0.3454
  206MOL0     C27694   0.287   5.280   3.867 -0.0638  0.0702 -0.2219
  206MOL0     C27695   0.186   5.279   3.979  0.6222  1.4100  0.0535
  206MOL0     C27696   0.159   5.133   4.021 -0.1515 -0.8390 -0.4601
  206MOL0     C27697   0.111   5.032   3.916  0.2995  0.7646 -0.3305
  206MOL0     C27698  -0.035   5.070   3.883 -0.9209 -0.2210 -1.0012
  206MOL0     O27699  -0.063   4.978   3.780 -0.0446  0.2133 -0.7278
  206MOL0     C27700  -0.193   4.934   3.767 -0.8205  0.2903 -0.6094
  206MOL0     C27701  -0.209   4.829   3.676  0.5481  0.1694  0.5483
  206MOL0     C27702  -0.335   4.769   3.646  0.5636 -0.1963 -0.0092
  206MOL0     C27703  -0.332   4.677   3.529  0.4284 -0.2235 -0.3736
  206MOL0     C27704  -0.451   4.823   3.709 -1.8064  0.4262  0.2580
  206MOL0     C27705  -0.588   4.781   3.678  1.1553 -0.3636 -0.2401
  206MOL0     O27706  -0.694   4.867   3.726 -0.2423 -0.0178 -0.8031
  206MOL0     C27707  -0.830   4.830   3.721 -0.3106 -0.2891 -0.2426
  206MOL0     C27708  -0.883   4.700   3.707 -0.4594  0.4075 -0.7701
  206MOL0     C27709  -1.017   4.683   3.720 -0.6563 -0.2504  0.0089
  206MOL0     C27710  -1.109   4.784   3.761  0.6265  0.4163  0.7029
  206MOL0     O27711  -1.248   4.762   3.758  0.5185  0.4039  0.4823
  206MOL0     C27712  -1.327   4.842   3.849  0.2571  0.9181 -0.0556
  206MOL0     C27713  -1.468   4.826   3.805 -0.1506  0.3999 -1.4967
  206MOL0     C27714  -1.569   4.920   3.863  0.8454 -0.3859 -0.4702
  206MOL0     C27715  -1.707   4.933   3.787 -0.1857 -0.0044 -0.6386
  206MOL0     C27716  -1.799   5.011   3.879 -0.1640 -0.7714  0.0918
  206MOL0     C27717  -1.943   5.044   3.818 -0.1662 -0.0146 -0.0915
  206MOL0     C27718  -2.018   4.919   3.795  0.5105  0.0851 -0.2250
  206MOL0     C27719  -2.174   4.939   3.796  0.2372  0.3943  0.3925
  206MOL0    Cl27720  -2.218   4.989   3.619  0.7682 -0.0078  0.1046
  206MOL0     C27721  -1.054   4.917   3.772  1.0084  0.4100  0.7744
  206MOL0     C27722  -0.917   4.931   3.756  0.8696 -0.3364 -0.4911
  206MOL0     O27723  -0.611   4.692   3.596 -0.6239  0.2048 -0.3393
  206MOL0     C27724  -0.434   4.935   3.794 -0.1883  0.3090 -0.1603
  206MOL0     C27725  -0.308   4.984   3.833 -0.4885  0.0384 -0.5669
  206MOL0     N27726   0.272   5.328   3.742  0.7013  0.2381 -0.0146
  206MOL0     N27727   0.389   5.342   3.679  0.4402 -0.7004 -0.4341
  206MOL0     C27728   1.399   5.563   4.392  0.0528 -0.2792 -0.0726
  206MOL0     C27729   1.470   5.561   4.514  0.4236  0.3146 -0.3245
  206MOL0     C27730   1.696   5.440   4.877  0.4209  0.0303  0.6255
  206MOL0     C27731   1.836   5.463   4.870  0.3923  0.6233 -0.3027
  206MOL0     C27732   1.920   5.445   4.976 -0.2035  0.0155  0.2241
  206MOL0     C27733   1.866   5.408   5.100  0.8865 -0.3410  0.7647
  206MOL0     O27734   1.940   5.380   5.208 -0.1488 -0.5798  0.2595
  206MOL0     C27735   2.078   5.358   5.187 -0.4188  0.6552  0.5189
  206MOL0     C27736   2.146   5.329   5.322  0.1412 -0.9562  0.2559
  206MOL0     C27737   2.156   5.454   5.409  0.0527 -0.6643 -0.0225
  206MOL0     C27738   2.297   5.491   5.444 -0.0793 -0.0494 -0.4764
  206MOL0     C27739   2.364   5.399   5.534  0.9011 -0.6416 -0.6274
  206MOL0     C27740   2.418   5.331   5.617 -0.3734  0.0291  0.2921
  206MOL0     C27741   1.726   5.393   5.115 -1.0254  0.0046 -0.3607
  206MOL0     C27742   1.644   5.404   5.005  0.1543 -0.3392 -0.0706
  206MOL0     H27743   1.747   5.414   4.398 -0.2171 -2.3810 -0.1403
  206MOL0     H27744   1.618   5.404   4.191  0.3084  0.7003 -0.5621
  206MOL0     H27745   1.201   5.442   4.171  1.5220 -2.1276 -0.2022
  206MOL0     H27746   1.216   5.620   4.190  0.4869  0.6527 -1.0389
  206MOL0     H27747   1.249   5.641   3.936  1.5262 -0.6419  0.7042
  206MOL0     H27748   1.280   5.465   3.934 -0.4551  0.6950 -1.5001
  206MOL0     H27749   1.035   5.444   3.981  1.0172  0.2252  2.0635
  206MOL0     H27750   1.033   5.621   4.002 -0.3244 -0.2052 -0.7510
  206MOL0     H27751   1.090   5.655   3.766  1.3700 -0.7287 -0.7933
  206MOL0     H27752   1.115   5.484   3.730 -0.7029 -0.9180  0.7070
  206MOL0     H27753   0.849   5.603   3.837 -3.7864 -2.2185 -1.8769
  206MOL0     H27754   0.894   5.588   3.667  2.3391  1.9048  0.1224
  206MOL0     H27755   0.881   5.355   3.673 -0.6270  0.9712 -1.8715
  206MOL0     H27756   0.868   5.343   3.848  0.9419  2.2389  1.2394
  206MOL0     H27757   0.663   5.454   3.855  1.3796 -1.3497  0.5249
  206MOL0     H27758   0.648   5.466   3.679  0.1571 -0.2557  0.4428
  206MOL0     H27759   0.675   5.196   3.810 -4.8262 -0.7084  3.5243
  206MOL0     H27760   0.646   5.236   3.643 -5.9410 -0.8491 -0.7796
  206MOL0     H27761   0.456   5.233   3.982 -3.0793  0.5176  1.5454
  206MOL0     H27762   0.228   5.329   4.067  1.9008 -1.3900  1.1924
  206MOL0     H27763   0.095   5.329   3.945 -0.5941 -0.1853  0.7873
  206MOL0     H27764   0.086   5.147   4.101  1.2630 -2.4250  1.2244
  206MOL0     H27765   0.254   5.100   4.065  0.6690  1.7980 -0.1027
  206MOL0     H27766   0.129   4.939   3.971 -1.8475  1.7623  2.3296
  206MOL0     H27767   0.177   5.035   3.829  0.6951  2.7483 -0.0148
  206MOL0     H27768  -0.045   5.167   3.833 -0.2053  0.7716  0.7072
  206MOL0     H27769  -0.094   5.062   3.975  0.9651  0.5167  0.3107
  206MOL0     H27770  -0.122   4.789   3.625 -0.3307  1.3167 -2.0733
  206MOL0     H27771  -0.391   4.587   3.545  1.8281 -1.0689  0.2667
  206MOL0     H27772  -0.371   4.722   3.438 -2.0316  0.3897  0.8845
  206MOL0     H27773  -0.230   4.639   3.514  1.7784  2.5658  0.9199
  206MOL0     H27774  -0.807   4.623   3.694  1.5059  2.0988  0.1464
  206MOL0     H27775  -1.045   4.581   3.697  1.8280 -0.7257 -1.1415
  206MOL0     H27776  -1.314   4.820   3.955 -4.0291 -2.2088  0.0793
  206MOL0     H27777  -1.319   4.950   3.835  2.2586  1.2825  3.0238
  206MOL0     H27778  -1.468   4.840   3.696 -1.1057  2.0648 -1.3289
  206MOL0     H27779  -1.496   4.724   3.831  2.3419  0.4625  2.2303
  206MOL0     H27780  -1.531   5.019   3.890 -0.3939  0.0852 -0.3674
  206MOL0     H27781  -1.588   4.874   3.960 -2.4161 -2.5651 -1.9487
  206MOL0     H27782  -1.691   4.969   3.685  2.0834  3.5202  0.7458
  206MOL0     H27783  -1.761   4.838   3.778 -0.1065  0.0165 -1.3640
  206MOL0     H27784  -1.754   5.111   3.885  1.7696 -1.7011  3.0561
  206MOL0     H27785  -1.819   4.983   3.982 -1.0792  0.6337  0.3292
  206MOL0     H27786  -1.988   5.097   3.903  0.1104  0.5091 -0.2726
  206MOL0     H27787  -1.932   5.090   3.720  0.1693  1.8622  0.7741
  206MOL0     H27788  -1.996   4.850   3.877  0.3159 -1.0259 -1.0719
  206MOL0     H27789  -1.988   4.875   3.700  2.9875 -1.2225  1.0741
  206MOL0     H27790  -2.210   5.010   3.871 -0.7154  1.1473 -0.7338
  206MOL0     H27791  -2.229   4.845   3.811 -1.6010  1.4833  0.8374
  206MOL0     H27792  -1.116   5.002   3.799  0.5498  0.2184  0.3330
  206MOL0     H27793  -0.876   5.029   3.775  0.4851 -0.4524  1.0748
  206MOL0     H27794  -0.512   4.987   3.849  1.6783  1.4808  1.5459
  206MOL0     H27795  -0.303   5.057   3.913 -1.9989 -0.3586 -0.0899
  206MOL0     H27796   1.306   5.619   4.391  0.6034  0.6805  0.6422
  206MOL0     H27797   1.445   5.605   4.610 -0.9950  1.9883 -1.3950
  206MOL0     H27798   1.891   5.486   4.779 -0.3595 -1.0864 -1.2500
  206MOL0     H27799   2.024   5.474   4.963 -0.0106 -0.9489 -0.4793
  206MOL0     H27800   2.103   5.286   5.109 -0.1625 -1.2395  2.2709
  206MOL0     H27801   2.121   5.449   5.144  0.8954 -0.4284 -0.5487
  206MOL0     H27802   2.242   5.286   5.290 -0.6199 -1.2201 -1.8168
  206MOL0     H27803   2.095   5.251   5.379 -0.5186  0.4692  1.6719
  206MOL0     H27804   2.099   5.443   5.502 -0.8316 -1.2542 -0.6182
  206MOL0     H27805   2.113   5.540   5.356  0.3221 -1.4648 -1.6103
  206MOL0     H27806   2.302   5.585   5.500  1.7024 -0.8081  0.7351
  206MOL0     H27807   2.355   5.510   5.354  2.1552 -0.9125  0.7129
  206MOL0     H27808   2.465   5.265   5.687 -1.5161 -0.1427  0.9162
  206MOL0     H27809   1.693   5.369   5.215 -1.0168  0.4433 -0.2484
  206MOL0     H27810   1.538   5.380   5.013  0.2019 -0.2665  0.7887
  207MOL0     O27811   6.957   8.499  10.180  0.2490  0.2570 -0.4053
  207MOL0     C27812   6.960   8.446  10.288 -0.2335  0.5249 -0.0563
  207MOL0     O27813   6.855   8.432  10.376 -0.0307 -0.3112  0.2609
  207MOL0     C27814   6.733   8.493  10.365 -0.4333 -0.5557 -0.1262
  207MOL0     C27815   6.645   8.476  10.255  0.6012  0.7340  0.1424
  207MOL0     C27816   6.542   8.569  10.238  0.0072 -0.0083 -0.9279
  207MOL0     C27817   6.520   8.680  10.320 -0.3333 -0.1482 -0.0048
  207MOL0     O27818   6.424   8.778  10.304  0.0576  0.3694  0.1813
  207MOL0     C27819   6.367   8.781  10.169 -0.4469  0.1299  0.0349
  207MOL0     C27820   6.271   8.903  10.147 -0.1060  0.9769 -0.1486
  207MOL0     C27821   6.346   9.035  10.163 -0.5367 -0.4224 -0.3180
  207MOL0     C27822   6.251   9.150  10.133 -0.0467  0.7389  0.3554
  207MOL0     C27823   6.313   9.292  10.147 -0.1925 -0.0909 -0.7309
  207MOL0     C27824   6.227   9.412  10.104 -0.8143 -0.4093  0.1996
  207MOL0     C27825   6.084   9.415  10.153 -0.6359 -0.0729 -0.6057
  207MOL0     C27826   6.031   9.558  10.140 -0.5449  0.1011  0.6915
  207MOL0     N27827   5.890   9.574  10.150 -0.0484 -0.2674  0.1610
  207MOL0     C27828   5.806   9.491  10.222 -1.1233 -0.7552  0.0410
  207MOL0     C27829   5.688   9.554  10.222  0.4922 -0.1370  0.0416
  207MOL0     C27830   5.575   9.508  10.316  0.4787 -0.2621  0.1776
  207MOL0     C27831   5.432   9.493  10.251 -0.6984  0.3212  0.3085
  207MOL0     C27832   5.379   9.630  10.232 -0.6060 -0.3039  0.0446
  207MOL0     C27833   5.240   9.637  10.152 -0.5209  0.2347 -0.3212
  207MOL0     O27834   5.145   9.551  10.214 -0.4341  0.3375  0.6521
  207MOL0     C27835   5.015   9.544  10.170  0.9939 -1.0115  0.3223
  207MOL0     C27836   4.938   9.445  10.236  0.0067  0.3784 -0.5524
  207MOL0     C27837   4.799   9.449  10.226  0.2825  0.9547  0.2758
  207MOL0     C27838   4.734   9.336  10.303 -0.0861  0.6130 -0.1021
  207MOL0     C27839   4.738   9.539  10.139 -0.0511  0.1593  0.6337
  207MOL0     C27840   4.591   9.554  10.121 -0.3201 -0.4921 -0.3978
  207MOL0     O27841   4.533   9.590  10.000  0.2948 -0.3006  0.5592
  207MOL0     C27842   4.401   9.624  10.008  0.0381 -0.0245  0.2383
  207MOL0     C27843   4.351   9.738  10.082  0.1186  0.1804  0.7956
  207MOL0     C27844   4.213   9.768  10.060  0.2870 -0.2570 -0.2707
  207MOL0     C27845   4.132   9.686   9.984  0.4807  0.0076 -0.1241
  207MOL0     O27846   3.995   9.726   9.975 -0.2165 -0.3695  0.4217
  207MOL0     C27847   3.912   9.694   9.856 -0.9591 -0.2177 -1.1009
  207MOL0     C27848   3.766   9.745   9.846  0.6916 -0.2002 -0.4127
  207MOL0     C27849   3.673   9.704   9.961 -0.3227  0.0437 -0.2075
  207MOL0     C27850   3.527   9.757   9.914  0.2480 -0.0389  0.2931
  207MOL0     C27851   3.425   9.736  10.021  0.5068 -0.2811 -0.0200
  207MOL0     C27852   3.290   9.804   9.993 -0.2260 -0.6119  0.3962
  207MOL0     C27853   3.206   9.811  10.118 -0.0623 -0.2616  0.0840
  207MOL0     C27854   3.074   9.744  10.091 -0.7341  0.0572  0.0734
  207MOL0    Cl27855   2.984   9.715  10.235  0.5035 -0.0134  0.3216
  207MOL0     C27856   4.184   9.580   9.910 -0.2946  1.0766  0.5335
  207MOL0     C27857   4.323   9.548   9.915  0.1779 -0.7967 -0.2424
  207MOL0     O27858   4.527   9.547  10.228 -0.4570  0.6700  0.4278
  207MOL0     C27859   4.818   9.629  10.068 -0.0928 -0.2287  0.1778
  207MOL0     C27860   4.954   9.634  10.081  0.0440 -0.2110  0.1918
  207MOL0     N27861   5.686   9.648  10.117  0.3933  0.6016  0.4860
  207MOL0     N27862   5.811   9.663  10.077 -0.1699  0.2091  0.2481
  207MOL0     C27863   6.609   8.697  10.427 -0.5879  0.1436  0.2313
  207MOL0     C27864   6.709   8.604  10.452  0.2387  0.0854  0.8324
  207MOL0     C27865   7.094   8.390  10.327 -0.2448  0.7592 -0.7711
  207MOL0     C27866   7.131   8.399  10.459 -0.5689 -0.7972 -0.6404
  207MOL0     C27867   7.263   8.354  10.485  0.8391 -0.0018 -0.6779
  207MOL0     C27868   7.355   8.310  10.393  0.1223 -0.0105  0.7141
  207MOL0     O27869   7.483   8.272  10.410  0.0548  0.1948 -0.0957
  207MOL0     C27870   7.555   8.332  10.518 -0.2986 -0.3795 -0.2074
  207MOL0     C27871   7.707   8.316  10.493  0.4017  0.9294  0.4303
  207MOL0     C27872   7.790   8.330  10.620 -0.4393  0.8385  0.6485
  207MOL0     C27873   7.937   8.339  10.589 -0.4908 -0.2182 -0.2427
  207MOL0     C27874   7.982   8.219  10.523  0.7478  0.8437  0.6296
  207MOL0     C27875   8.012   8.112  10.472 -0.1673  0.1202 -0.1274
  207MOL0     C27876   7.309   8.296  10.258 -0.2668  0.1316 -0.6609
  207MOL0     C27877   7.183   8.344  10.228 -0.0221  0.0595  0.8513
  207MOL0     H27878   6.660   8.399  10.181  0.1911  0.7939 -0.0108
  207MOL0     H27879   6.473   8.549  10.156 -1.7847 -2.3555  1.0277
  207MOL0     H27880   6.439   8.792  10.088  0.3513 -1.1216  0.5472
  207MOL0     H27881   6.297   8.699  10.147 -1.5937  1.0847  0.0206
  207MOL0     H27882   6.219   8.891  10.052 -0.5030 -1.0066  0.2587
  207MOL0     H27883   6.199   8.905  10.229  0.5097  0.3100  0.4270
  207MOL0     H27884   6.379   9.041  10.267 -0.7255 -0.6176 -0.2447
  207MOL0     H27885   6.426   9.034  10.089 -0.8757 -1.8486 -0.6904
  207MOL0     H27886   6.213   9.148  10.030  1.9440  2.7971 -0.5134
  207MOL0     H27887   6.163   9.141  10.198  1.9632 -1.1951  3.0245
  207MOL0     H27888   6.329   9.308  10.254 -1.8233 -1.1144 -0.3020
  207MOL0     H27889   6.413   9.301  10.104  1.4611 -0.2644  2.7237
  207MOL0     H27890   6.277   9.497  10.151 -0.7712 -0.7936  0.8615
  207MOL0     H27891   6.224   9.417   9.994 -1.9963 -0.6366  0.2094
  207MOL0     H27892   6.030   9.333  10.104  0.8547 -1.0502 -0.6900
  207MOL0     H27893   6.084   9.379  10.256  0.3076 -0.1507 -0.6240
  207MOL0     H27894   6.073   9.609  10.053 -0.9659  0.0957  0.4795
  207MOL0     H27895   6.067   9.624  10.219  0.5059 -0.4361  0.6777
  207MOL0     H27896   5.835   9.412  10.290 -2.3385  0.1211  1.6279
  207MOL0     H27897   5.601   9.411  10.359 -2.1792  0.2100  3.3044
  207MOL0     H27898   5.572   9.569  10.407 -0.9756  2.0590 -1.3095
  207MOL0     H27899   5.356   9.449  10.317 -0.9239  0.4133  0.1125
  207MOL0     H27900   5.430   9.434  10.159 -2.6376  0.0327  0.4835
  207MOL0     H27901   5.445   9.688  10.167 -2.0494  3.3303  1.5185
  207MOL0     H27902   5.375   9.691  10.323  2.6056  2.1510 -1.2987
  207MOL0     H27903   5.244   9.590  10.054 -0.1361 -3.4649  1.3231
  207MOL0     H27904   5.196   9.738  10.149 -0.7895  0.1040 -0.8076
  207MOL0     H27905   4.999   9.381  10.300 -1.5807  0.2471  0.8925
  207MOL0     H27906   4.685   9.277  10.224  0.4278 -0.0850  0.0978
  207MOL0     H27907   4.800   9.272  10.361 -0.5338  0.5251  0.3191
  207MOL0     H27908   4.661   9.383  10.370  2.5025  1.6718  2.1471
  207MOL0     H27909   4.413   9.804  10.142 -0.4413 -1.0336  2.7709
  207MOL0     H27910   4.173   9.849  10.120  0.5353  0.6861 -1.3508
  207MOL0     H27911   3.965   9.721   9.764  2.0603 -0.4285  0.4305
  207MOL0     H27912   3.901   9.585   9.854  1.5318 -0.5258 -1.0331
  207MOL0     H27913   3.762   9.855   9.847 -0.3471 -0.1202  3.4477
  207MOL0     H27914   3.724   9.715   9.749 -0.5759 -0.3610  0.1638
  207MOL0     H27915   3.698   9.742  10.060  1.8583 -3.6535  0.8153
  207MOL0     H27916   3.661   9.596   9.963 -3.4823  0.3003  0.2490
  207MOL0     H27917   3.525   9.865   9.897  0.7090 -0.3140 -1.8338
  207MOL0     H27918   3.495   9.712   9.819  0.3835 -2.1789  1.1961
  207MOL0     H27919   3.472   9.770  10.114  1.7538  0.7432 -0.9933
  207MOL0     H27920   3.403   9.629  10.023 -1.1014 -0.1014 -2.6378
  207MOL0     H27921   3.314   9.905   9.960  0.5652 -1.2114 -0.9751
  207MOL0     H27922   3.243   9.747   9.912 -1.3154 -0.2422  0.7550
  207MOL0     H27923   3.190   9.913  10.154  0.8876 -0.5311  1.3933
  207MOL0     H27924   3.258   9.750  10.193 -1.6724  0.1153  1.5555
  207MOL0     H27925   3.087   9.651  10.035 -1.2526  0.5246 -0.8581
  207MOL0     H27926   3.019   9.811  10.024  2.0021  0.0795 -2.3413
  207MOL0     H27927   4.118   9.515   9.855 -0.4944  0.2336  1.7422
  207MOL0     H27928   4.374   9.466   9.867  0.8527 -0.6415  0.2000
  207MOL0     H27929   4.774   9.699   9.999  1.8642 -0.1806 -1.1068
  207MOL0     H27930   5.014   9.700  10.020  0.3947 -0.6421  0.0640
  207MOL0     H27931   6.604   8.784  10.492  1.0436 -1.0133  2.0151
  207MOL0     H27932   6.775   8.630  10.534  0.1742 -1.5223  1.4161
  207MOL0     H27933   7.060   8.434  10.534  2.4121  1.7856  1.2400
  207MOL0     H27934   7.297   8.344  10.587  0.1803 -1.6049 -0.5882
  207MOL0     H27935   7.532   8.438  10.530  2.0633  0.3029 -0.9774
  207MOL0     H27936   7.522   8.287  10.613  2.7385  1.9738  2.1817
  207MOL0     H27937   7.739   8.400  10.430  2.5662  0.8858  1.3790
  207MOL0     H27938   7.740   8.225  10.441  0.5496  2.0592 -1.5534
  207MOL0     H27939   7.771   8.242  10.681 -0.0198  0.7501  0.6536
  207MOL0     H27940   7.759   8.421  10.672  2.2540  3.8354 -2.4753
  207MOL0     H27941   7.990   8.364  10.681 -1.2940  1.2538 -0.1471
  207MOL0     H27942   7.947   8.423  10.519  0.1806 -0.3173 -0.2716
  207MOL0     H27943   8.034   8.018  10.427 -1.6533 -0.2984 -0.0378
  207MOL0     H27944   7.376   8.256  10.182  0.5135  0.1780 -0.0023
  207MOL0     H27945   7.154   8.329  10.125  1.5005  1.2946  0.2106
  208MOL0     O27946   0.047   4.644   3.289  0.6087  0.2901  0.5620
  208MOL0     C27947   0.117   4.727   3.238  0.4053 -0.3743 -0.2409
  208MOL0     O27948   0.070   4.858   3.200  0.3027  0.8070 -0.4082
  208MOL0     C27949  -0.058   4.891   3.233 -0.2673 -1.2655 -0.2945
  208MOL0     C27950  -0.164   4.838   3.156 -0.5035 -1.2662 -1.1568
  208MOL0     C27951  -0.303   4.869   3.183  0.3033  0.1153 -0.0967
  208MOL0     C27952  -0.331   4.949   3.299  0.1482 -0.5092 -0.4026
  208MOL0     O27953  -0.464   4.963   3.334  0.3605  0.5096 -0.4956
  208MOL0     C27954  -0.491   5.056   3.443 -0.1878  0.1979  0.1865
  208MOL0     C27955  -0.644   5.073   3.443 -0.1443  0.4143 -0.7521
  208MOL0     C27956  -0.702   5.115   3.314  0.4076 -0.1722 -0.3274
  208MOL0     C27957  -0.853   5.140   3.315 -0.3392  0.0195 -0.7257
  208MOL0     C27958  -0.943   5.020   3.340 -0.4992 -0.4305 -0.5103
  208MOL0     C27959  -1.085   5.036   3.291  0.6761 -0.1367  0.0708
  208MOL0     C27960  -1.168   5.105   3.408  0.2686  1.3460  0.1238
  208MOL0     C27961  -1.311   5.130   3.361  0.6381 -0.3897 -0.2258
  208MOL0     N27962  -1.408   5.195   3.459  0.0102  0.1708  0.1463
  208MOL0     C27963  -1.412   5.325   3.493  0.4886 -0.1339 -0.5543
  208MOL0     C27964  -1.496   5.334   3.598 -0.2905 -0.6911 -0.1376
  208MOL0     C27965  -1.572   5.458   3.637  0.6644 -0.8910 -1.4591
  208MOL0     C27966  -1.709   5.423   3.566  0.9501  0.4612  0.7388
  208MOL0     C27967  -1.803   5.545   3.544  0.1406 -0.0764 -0.7502
  208MOL0     C27968  -1.849   5.610   3.667  0.7879  0.6216 -0.8211
  208MOL0     O27969  -1.948   5.716   3.637 -0.0375 -0.5196  0.2494
  208MOL0     C27970  -2.081   5.696   3.606 -0.1164  0.1367  0.2089
  208MOL0     C27971  -2.159   5.802   3.551 -0.0903 -0.8445  0.2880
  208MOL0     C27972  -2.289   5.781   3.510 -0.2487 -0.6112  0.8201
  208MOL0     C27973  -2.359   5.906   3.458  0.3053 -0.2954  0.6389
  208MOL0     C27974  -2.346   5.655   3.539 -0.6397  0.3165 -0.2525
  208MOL0     C27975  -2.484   5.622   3.509 -0.5487 -0.4688  0.1924
  208MOL0     O27976  -2.514   5.493   3.527  0.4038  0.4627 -0.4937
  208MOL0     C27977  -2.641   5.453   3.497  0.4879  0.3316  0.5213
  208MOL0     C27978  -2.660   5.363   3.391  0.2020 -0.3193 -0.0799
  208MOL0     C27979  -2.788   5.335   3.332 -0.7710 -0.7942  0.5446
  208MOL0     C27980  -2.899   5.385   3.398 -0.5815  1.3535 -0.1398
  208MOL0     O27981  -3.027   5.383   3.347  0.0878 -0.2837 -0.0614
  208MOL0     C27982  -3.044   5.301   3.225 -0.0820  0.4542  0.1682
  208MOL0     C27983  -3.190   5.308   3.174 -0.4086 -0.1354 -0.3452
  208MOL0     C27984  -3.284   5.232   3.262 -0.5758 -0.1499  0.0339
  208MOL0     C27985  -3.404   5.170   3.188 -0.7611 -1.7375  0.3024
  208MOL0     C27986  -3.503   5.115   3.291  0.7647  0.5221  0.5406
  208MOL0     C27987  -3.620   5.045   3.214 -0.0066  0.3390  0.4957
  208MOL0     C27988  -3.686   4.937   3.301 -0.9812  0.0417  0.5825
  208MOL0     C27989  -3.783   4.843   3.217 -0.2986 -0.0484 -0.2073
  208MOL0    Cl27990  -3.915   4.945   3.168  0.2179  0.2905 -0.1241
  208MOL0     C27991  -2.883   5.457   3.515 -0.7085 -0.0711 -0.4530
  208MOL0     C27992  -2.754   5.503   3.556 -1.0017 -0.9085 -0.5856
  208MOL0     O27993  -2.557   5.709   3.468 -0.1228 -0.0906 -0.2744
  208MOL0     C27994  -2.266   5.547   3.588  0.1426  0.2684  0.2015
  208MOL0     C27995  -2.138   5.572   3.628 -0.1744  0.3415 -0.2748
  208MOL0     N27996  -1.530   5.208   3.635  0.8342  0.4097  0.5801
  208MOL0     N27997  -1.470   5.122   3.560  0.1305 -0.1961 -0.2613
  208MOL0     C27998  -0.225   5.001   3.370 -0.2832 -0.6385  0.2740
  208MOL0     C27999  -0.089   4.977   3.339 -0.3865  0.5806 -0.6035
  208MOL0     C28000   0.251   4.694   3.213  0.1027  0.1136  0.0879
  208MOL0     C28001   0.301   4.560   3.235  0.4490  0.4270 -0.2422
  208MOL0     C28002   0.438   4.538   3.214  0.4233 -0.2530 -0.8008
  208MOL0     C28003   0.521   4.642   3.171 -0.4620 -0.2055 -0.0910
  208MOL0     O28004   0.655   4.627   3.161 -0.0369 -0.9239 -0.2225
  208MOL0     C28005   0.726   4.509   3.189  0.7464  0.1890 -0.0980
  208MOL0     C28006   0.853   4.515   3.124 -0.5979  0.3988  0.6283
  208MOL0     C28007   0.953   4.591   3.219  0.3402  0.3632  0.5745
  208MOL0     C28008   1.106   4.561   3.193 -0.0722  0.3669 -0.2893
  208MOL0     C28009   1.139   4.609   3.062  1.0146  0.1689 -0.1262
  208MOL0     C28010   1.173   4.652   2.956 -0.3098  0.6105  0.1095
  208MOL0     C28011   0.465   4.768   3.131 -0.8756 -0.0433  0.1098
  208MOL0     C28012   0.334   4.791   3.150 -0.0475  0.2197 -0.4157
  208MOL0     H28013  -0.142   4.769   3.075  0.6085 -1.4233 -0.7359
  208MOL0     H28014  -0.388   4.837   3.123 -0.6885  1.6743  0.4181
  208MOL0     H28015  -0.454   5.027   3.542 -2.2063  0.3685  1.0621
  208MOL0     H28016  -0.445   5.152   3.417  2.4560 -0.7863  0.9383
  208MOL0     H28017  -0.692   4.982   3.482 -1.0487  1.9782  2.0357
  208MOL0     H28018  -0.669   5.150   3.515 -0.0804  0.7229 -1.0570
  208MOL0     H28019  -0.651   5.207   3.283 -0.0848  0.9298  1.9071
  208MOL0     H28020  -0.678   5.044   3.234  1.8499 -1.3716  1.1198
  208MOL0     H28021  -0.863   5.215   3.393  2.8892  0.7498 -0.8363
  208MOL0     H28022  -0.870   5.190   3.219  2.6859 -1.9488 -2.4600
  208MOL0     H28023  -0.917   4.927   3.289  0.1299 -0.5717  0.0547
  208MOL0     H28024  -0.941   5.001   3.448  1.1307 -0.0257 -0.4439
  208MOL0     H28025  -1.095   5.104   3.207  3.9971  1.2683  0.6574
  208MOL0     H28026  -1.123   4.937   3.261 -1.4596  1.1002 -1.5691
  208MOL0     H28027  -1.176   5.033   3.490  1.1132 -0.3896 -1.2320
  208MOL0     H28028  -1.115   5.193   3.444  2.4723  0.2711 -0.3303
  208MOL0     H28029  -1.359   5.036   3.334 -0.3257 -0.1137  0.4882
  208MOL0     H28030  -1.308   5.187   3.268 -1.2638  0.0043 -0.0709
  208MOL0     H28031  -1.371   5.405   3.434 -1.9130  0.5767 -1.3653
  208MOL0     H28032  -1.590   5.473   3.744 -0.8579 -0.3902 -1.7652
  208MOL0     H28033  -1.531   5.549   3.593  0.7091  0.4400  1.1822
  208MOL0     H28034  -1.779   5.351   3.608 -0.8149 -0.5020 -3.3271
  208MOL0     H28035  -1.687   5.394   3.462  1.0696  2.1680  0.2498
  208MOL0     H28036  -1.887   5.503   3.487  0.4481 -2.5147  0.4781
  208MOL0     H28037  -1.755   5.623   3.484  3.4217 -1.3898  0.0106
  208MOL0     H28038  -1.761   5.647   3.720 -0.3360 -0.8537  2.3371
  208MOL0     H28039  -1.888   5.543   3.744  0.7496  2.2774  0.6538
  208MOL0     H28040  -2.109   5.897   3.534 -0.4676 -0.1948  2.3899
  208MOL0     H28041  -2.424   5.937   3.540 -3.7670 -3.0868 -1.2171
  208MOL0     H28042  -2.285   5.984   3.436  0.4174 -1.3181 -3.3226
  208MOL0     H28043  -2.417   5.896   3.365 -2.0723 -1.7264  2.1639
  208MOL0     H28044  -2.568   5.329   3.344 -0.4738 -2.5094  0.0676
  208MOL0     H28045  -2.794   5.265   3.250 -0.4455  0.7295 -0.8169
  208MOL0     H28046  -2.982   5.324   3.137  1.8940  0.8277  1.5924
  208MOL0     H28047  -3.036   5.195   3.253 -0.9857  0.2114 -0.4612
  208MOL0     H28048  -3.220   5.411   3.156  0.9442  0.6514  1.5635
  208MOL0     H28049  -3.188   5.248   3.082 -0.1700 -2.7062  1.2346
  208MOL0     H28050  -3.324   5.303   3.336 -1.5653  1.4842 -1.9596
  208MOL0     H28051  -3.240   5.148   3.316  1.2308  0.9369  0.3626
  208MOL0     H28052  -3.457   5.251   3.136 -0.0017 -1.2623  0.2468
  208MOL0     H28053  -3.377   5.090   3.119 -1.6849 -1.2967 -0.6019
  208MOL0     H28054  -3.544   5.181   3.367  0.6014 -1.2868  2.0963
  208MOL0     H28055  -3.443   5.037   3.338 -1.0351 -1.9580 -0.9800
  208MOL0     H28056  -3.700   5.111   3.180 -1.5644 -1.5859  0.2474
  208MOL0     H28057  -3.575   4.994   3.128 -0.9071 -3.2960  1.9990
  208MOL0     H28058  -3.735   4.977   3.391 -2.1811  0.6723 -0.3182
  208MOL0     H28059  -3.616   4.859   3.333 -2.0808 -0.7277  1.1831
  208MOL0     H28060  -3.825   4.757   3.270  0.6427  0.1521  0.9035
  208MOL0     H28061  -3.741   4.800   3.126 -0.2003 -1.0584  0.3003
  208MOL0     H28062  -2.967   5.488   3.576 -1.1295 -1.1246 -0.4727
  208MOL0     H28063  -2.736   5.574   3.635 -2.7455 -0.7220 -0.3228
  208MOL0     H28064  -2.298   5.444   3.585  2.3809 -0.4793 -0.4766
  208MOL0     H28065  -2.075   5.494   3.670  0.9071  1.5173  0.3699
  208MOL0     H28066  -0.238   5.063   3.458  0.3410  0.1601 -0.1803
  208MOL0     H28067  -0.002   5.014   3.392  1.3372 -0.4545 -2.5637
  208MOL0     H28068   0.232   4.485   3.272 -1.0536  2.0592  0.4060
  208MOL0     H28069   0.474   4.436   3.222 -1.2976 -0.7806  1.5656
  208MOL0     H28070   0.732   4.485   3.295  1.3719  0.1448 -0.1386
  208MOL0     H28071   0.680   4.425   3.135 -1.3302  1.6213 -0.6902
  208MOL0     H28072   0.859   4.561   3.025  3.7802  1.5752  1.2485
  208MOL0     H28073   0.900   4.417   3.116  0.6680  1.0307 -0.0042
  208MOL0     H28074   0.935   4.568   3.324  1.4440 -0.3430  0.6283
  208MOL0     H28075   0.933   4.697   3.202 -2.0572 -0.2807 -1.1479
  208MOL0     H28076   1.122   4.454   3.205  1.1741  0.6514  0.7963
  208MOL0     H28077   1.161   4.614   3.271 -1.5747 -1.0792  1.8543
  208MOL0     H28078   1.188   4.706   2.865 -3.7877 -0.0904 -1.0198
  208MOL0     H28079   0.532   4.839   3.083  2.1339 -1.6731  1.6346
  208MOL0     H28080   0.292   4.888   3.123 -0.3209  0.5017  0.9108
  209MOL0     O28081   1.484   4.370   9.755  0.2813 -0.0930 -0.3654
  209MOL0     C28082   1.534   4.258   9.760 -0.0081 -0.6634  0.6038
  209MOL0     O28083   1.472   4.138   9.788 -0.2430 -0.5097 -0.5147
  209MOL0     C28084   1.338   4.161   9.792  0.6281 -0.0614 -0.0113
  209MOL0     C28085   1.273   4.194   9.676  0.6591 -0.0326  0.0147
  209MOL0     C28086   1.129   4.191   9.679 -0.1732  0.0979 -0.0397
  209MOL0     C28087   1.058   4.153   9.794  0.8756  0.4748  0.1845
  209MOL0     O28088   0.922   4.170   9.781 -0.1021 -0.6020 -0.1034
  209MOL0     C28089   0.834   4.069   9.842  0.8867 -0.1039 -0.7316
  209MOL0     C28090   0.689   4.091   9.795  0.6514 -0.7115 -0.2539
  209MOL0     C28091   0.630   4.218   9.844 -0.4580 -0.8937 -0.4047
  209MOL0     C28092   0.509   4.207   9.932 -0.0985  0.4960  0.8399
  209MOL0     C28093   0.379   4.187   9.848  0.5698 -0.0454  1.1981
  209MOL0     C28094   0.274   4.296   9.875 -0.1110  0.0805 -0.5908
  209MOL0     C28095   0.143   4.271   9.816  0.4669 -0.2878  0.4832
  209MOL0     C28096   0.028   4.359   9.879  0.5104  0.4214  0.1488
  209MOL0     N28097  -0.108   4.337   9.827 -0.3361  0.2203 -0.1512
  209MOL0     C28098  -0.163   4.395   9.717  0.9262  0.1296 -0.0846
  209MOL0     C28099  -0.290   4.351   9.720  0.4213 -0.4243  0.3007
  209MOL0     C28100  -0.389   4.399   9.619 -0.7921 -1.3558  0.5500
  209MOL0     C28101  -0.511   4.310   9.592  0.1552  0.2224 -0.9107
  209MOL0     C28102  -0.625   4.375   9.522  0.3679  0.1226 -0.7612
  209MOL0     C28103  -0.714   4.462   9.617 -0.5959  0.7741  0.6743
  209MOL0     O28104  -0.832   4.514   9.547 -0.4478 -0.2592 -0.1905
  209MOL0     C28105  -0.952   4.452   9.564 -0.1486 -0.0707  0.2657
  209MOL0     C28106  -1.067   4.519   9.523  0.1795 -0.2414 -0.2644
  209MOL0     C28107  -1.192   4.467   9.542 -0.3832  0.1206 -0.0793
  209MOL0     C28108  -1.306   4.540   9.479  0.3099 -1.2088  0.2370
  209MOL0     C28109  -1.218   4.354   9.617 -0.7855  0.4892  0.1141
  209MOL0     C28110  -1.353   4.303   9.664 -0.0140  0.5060  0.0291
  209MOL0     O28111  -1.450   4.397   9.695 -0.6618  0.8277  0.5414
  209MOL0     C28112  -1.580   4.368   9.662  0.6719  0.2735  0.1603
  209MOL0     C28113  -1.616   4.274   9.573  0.7716 -1.1525 -0.5003
  209MOL0     C28114  -1.750   4.256   9.532  0.1831 -0.8413  1.1209
  209MOL0     C28115  -1.852   4.328   9.587 -0.7707  0.3158 -1.4485
  209MOL0     O28116  -1.980   4.298   9.554 -0.0459 -0.5731  0.4551
  209MOL0     C28117  -2.011   4.243   9.418 -0.1220 -1.0331  0.4514
  209MOL0     C28118  -2.151   4.253   9.383 -0.1603  0.2408  0.5261
  209MOL0     C28119  -2.250   4.168   9.479 -0.4499 -0.8952  0.6402
  209MOL0     C28120  -2.232   4.010   9.467 -0.0870 -0.1422 -0.2967
  209MOL0     C28121  -2.233   3.955   9.323  0.3522  0.3463 -0.0802
  209MOL0     C28122  -2.375   3.986   9.264 -0.4947  0.0754  0.5983
  209MOL0     C28123  -2.398   3.899   9.137  0.2759  0.4663  0.5509
  209MOL0     C28124  -2.555   3.898   9.096  0.1013  0.7144  0.7383
  209MOL0    Cl28125  -2.605   4.057   9.036 -0.6344 -0.0602 -0.1532
  209MOL0     C28126  -1.818   4.422   9.688 -0.3430 -0.2143  0.1785
  209MOL0     C28127  -1.681   4.444   9.721  0.8131  0.3276 -1.0596
  209MOL0     O28128  -1.366   4.185   9.682  0.2215 -0.4164 -0.1307
  209MOL0     C28129  -1.107   4.276   9.641  0.5617 -0.0518 -0.3272
  209MOL0     C28130  -0.983   4.329   9.625 -0.4835  0.2828  0.3028
  209MOL0     N28131  -0.308   4.252   9.817 -0.1815 -0.2500  0.0044
  209MOL0     N28132  -0.200   4.245   9.884 -0.5713 -0.2029  0.1326
  209MOL0     C28133   1.129   4.118   9.911  0.1908  0.0966  0.4168
  209MOL0     C28134   1.271   4.129   9.910  0.1731  0.5616  0.0619
  209MOL0     C28135   1.679   4.271   9.736 -0.1057  0.6212  0.5546
  209MOL0     C28136   1.761   4.382   9.743  0.0601  0.4219  0.6686
  209MOL0     C28137   1.893   4.383   9.715  0.4254 -0.3156 -0.0491
  209MOL0     C28138   1.966   4.278   9.672 -0.6673  0.5544 -0.2864
  209MOL0     O28139   2.105   4.275   9.655 -0.5944  0.3664  0.4385
  209MOL0     C28140   2.185   4.376   9.725  0.3959  0.3657  0.6366
  209MOL0     C28141   2.329   4.312   9.736 -0.4802 -0.4220 -0.2610
  209MOL0     C28142   2.422   4.415   9.798  0.2150 -0.0371 -0.8905
  209MOL0     C28143   2.538   4.456   9.708 -0.0920  0.3209  0.1554
  209MOL0     C28144   2.624   4.538   9.792  0.5803 -0.0401  0.1423
  209MOL0     C28145   2.700   4.601   9.857 -0.3945 -0.1492 -0.2793
  209MOL0     C28146   1.889   4.157   9.679 -0.7094  0.1466  0.3320
  209MOL0     C28147   1.751   4.154   9.705  0.7379  0.6795  0.4928
  209MOL0     H28148   1.332   4.224   9.590  2.4607 -3.5967 -0.1824
  209MOL0     H28149   1.072   4.240   9.601  0.6576  0.8236 -0.2081
  209MOL0     H28150   0.869   3.975   9.798 -2.7103 -1.7356 -0.4687
  209MOL0     H28151   0.842   4.071   9.951  0.5788 -2.0841 -0.6384
  209MOL0     H28152   0.687   4.099   9.686  1.3657 -0.9792 -0.2890
  209MOL0     H28153   0.621   4.014   9.831  0.0051 -0.0379  0.0024
  209MOL0     H28154   0.703   4.281   9.896 -1.1154  1.9189 -2.6309
  209MOL0     H28155   0.596   4.284   9.764 -3.8079  0.5924  2.0092
  209MOL0     H28156   0.533   4.120   9.994  0.9848  1.9214  2.4985
  209MOL0     H28157   0.502   4.297   9.993 -1.1609  1.3805 -0.5086
  209MOL0     H28158   0.411   4.183   9.743 -1.5296 -0.7808  0.5336
  209MOL0     H28159   0.336   4.091   9.878 -0.5551  0.8726  2.6551
  209MOL0     H28160   0.257   4.304   9.983  0.7180  0.0741 -0.4561
  209MOL0     H28161   0.315   4.392   9.840 -1.2975  0.7174 -0.3071
  209MOL0     H28162   0.148   4.285   9.708  0.2530  0.4674  0.5680
  209MOL0     H28163   0.111   4.167   9.825  1.7673 -0.7003  0.5919
  209MOL0     H28164   0.062   4.462   9.865  1.9862 -0.1865 -0.9916
  209MOL0     H28165   0.014   4.346   9.987 -0.6446 -0.2327 -0.0650
  209MOL0     H28166  -0.113   4.464   9.650  1.6302  3.7383  3.7463
  209MOL0     H28167  -0.423   4.500   9.641  1.8565 -0.2893  0.0935
  209MOL0     H28168  -0.321   4.407   9.533  1.1321 -3.5920  1.7527
  209MOL0     H28169  -0.547   4.265   9.685  1.5125 -2.0409 -1.3867
  209MOL0     H28170  -0.470   4.230   9.529  2.2230 -1.9996  2.8812
  209MOL0     H28171  -0.689   4.297   9.480  1.4726 -1.3392  0.1885
  209MOL0     H28172  -0.585   4.440   9.444  3.1150 -0.1340  0.3382
  209MOL0     H28173  -0.655   4.547   9.655  0.1391 -0.2609  1.9407
  209MOL0     H28174  -0.739   4.408   9.709  0.1518  0.4764  0.7165
  209MOL0     H28175  -1.053   4.613   9.470  0.1925  1.1759  2.1040
  209MOL0     H28176  -1.267   4.631   9.432 -0.3828 -1.4521 -0.8532
  209MOL0     H28177  -1.365   4.476   9.412  0.1555 -1.3140  0.4749
  209MOL0     H28178  -1.365   4.581   9.561  3.0941 -0.6556  2.1275
  209MOL0     H28179  -1.549   4.206   9.521  3.1372 -0.0686  1.0027
  209MOL0     H28180  -1.765   4.171   9.467 -0.0709 -0.7316  1.0359
  209MOL0     H28181  -1.959   4.300   9.340 -0.8128  0.0588  0.7628
  209MOL0     H28182  -1.974   4.141   9.422 -0.0834 -1.0185  0.4652
  209MOL0     H28183  -2.176   4.360   9.394  3.1511  1.4145 -1.9904
  209MOL0     H28184  -2.165   4.232   9.277 -3.9797 -1.4713  1.1797
  209MOL0     H28185  -2.355   4.200   9.472 -0.8937 -2.6074 -2.6922
  209MOL0     H28186  -2.215   4.197   9.579 -4.7641  5.1478  0.9909
  209MOL0     H28187  -2.140   3.971   9.510 -1.4335  0.0513  3.0324
  209MOL0     H28188  -2.315   3.970   9.527  1.1224 -2.1228  0.1377
  209MOL0     H28189  -2.226   3.846   9.328 -1.3748  0.2582  1.5268
  209MOL0     H28190  -2.156   4.001   9.261 -1.0874  0.4622 -1.8524
  209MOL0     H28191  -2.457   3.954   9.328 -1.5929 -0.7856 -1.1371
  209MOL0     H28192  -2.382   4.094   9.249 -2.5444  0.4753  3.6173
  209MOL0     H28193  -2.373   3.795   9.158 -0.1606  0.8277  3.1353
  209MOL0     H28194  -2.338   3.923   9.048  0.3910 -3.0727 -0.4682
  209MOL0     H28195  -2.618   3.865   9.179  0.8902 -3.1790 -0.0097
  209MOL0     H28196  -2.573   3.824   9.018 -2.8540  1.6750  0.3817
  209MOL0     H28197  -1.890   4.490   9.731 -2.8462 -0.1773 -3.6088
  209MOL0     H28198  -1.672   4.519   9.799 -1.8471  1.0732 -1.3829
  209MOL0     H28199  -1.121   4.180   9.688 -1.0237  0.0701 -0.4979
  209MOL0     H28200  -0.904   4.269   9.669 -2.2339 -1.1586  1.6213
  209MOL0     H28201   1.073   4.097  10.001  0.3444 -1.8789  0.0935
  209MOL0     H28202   1.328   4.094   9.995  0.5018 -0.5458 -0.6020
  209MOL0     H28203   1.706   4.474   9.762  0.5292  0.7701  0.3788
  209MOL0     H28204   1.944   4.477   9.731 -0.9021  0.3518  0.4549
  209MOL0     H28205   2.175   4.467   9.665 -1.3706 -0.2982 -0.1565
  209MOL0     H28206   2.135   4.386   9.821 -0.2481  0.8832  0.2543
  209MOL0     H28207   2.372   4.286   9.639 -4.1556  1.6845 -2.7110
  209MOL0     H28208   2.326   4.218   9.792  0.4136 -1.1749 -1.4328
  209MOL0     H28209   2.458   4.365   9.889  1.6814  2.4001 -0.0463
  209MOL0     H28210   2.369   4.507   9.822 -0.2144 -0.4380 -0.2612
  209MOL0     H28211   2.499   4.507   9.620  3.7796  1.4919 -1.1113
  209MOL0     H28212   2.600   4.372   9.672  0.3091  1.1972 -1.2847
  209MOL0     H28213   2.765   4.646   9.930 -1.9537 -1.3133  1.9720
  209MOL0     H28214   1.931   4.061   9.652 -1.6533  0.4438 -2.4823
  209MOL0     H28215   1.691   4.064   9.691 -1.8523  2.0500  2.0110
  210MOL0     O28216  11.172   0.568   3.251 -0.1013 -0.3412  0.4165
  210MOL0     C28217  11.271   0.499   3.227 -0.2322 -0.2039  1.0204
  210MOL0     O28218  11.279   0.398   3.138 -0.4449 -0.0825 -0.2799
  210MOL0     C28219  11.177   0.351   3.069  0.3169  0.3269 -0.6493
  210MOL0     C28220  11.040   0.378   3.087  0.2227  0.1027  0.5996
  210MOL0     C28221  10.947   0.329   2.997 -0.0407  0.0300  0.0538
  210MOL0     C28222  10.989   0.249   2.890  0.3121  0.3279 -0.5072
  210MOL0     O28223  10.908   0.215   2.778 -0.7774 -0.5338  0.3812
  210MOL0     C28224  10.802   0.305   2.749  0.8482  0.5605  0.4205
  210MOL0     C28225  10.731   0.244   2.622 -0.5511  0.2638 -0.4840
  210MOL0     C28226  10.601   0.320   2.590 -1.1786  0.2849  0.2984
  210MOL0     C28227  10.475   0.293   2.676 -0.7872 -0.9126 -0.0388
  210MOL0     C28228  10.350   0.347   2.611 -0.9987 -0.2796 -0.4397
  210MOL0     C28229  10.218   0.327   2.690 -0.4354  0.7076 -0.7458
  210MOL0     C28230  10.225   0.342   2.843  0.2080 -0.4172  0.6980
  210MOL0     C28231  10.087   0.376   2.900  0.4429 -0.2154 -0.3335
  210MOL0     N28232  10.001   0.256   2.909  0.1851 -0.4392  0.4424
  210MOL0     C28233   9.924   0.211   2.796 -0.1190  0.6064  0.1129
  210MOL0     C28234   9.863   0.102   2.851 -0.0377  0.3218 -0.3590
  210MOL0     C28235   9.799  -0.024   2.777 -0.7976 -0.6770 -0.6679
  210MOL0     C28236   9.652  -0.052   2.829 -0.9727  0.1910  0.1213
  210MOL0     C28237   9.616  -0.191   2.778 -0.5477 -0.0036  0.5532
  210MOL0     C28238   9.497  -0.245   2.862 -0.8548 -0.1545 -0.9327
  210MOL0     O28239   9.380  -0.194   2.797 -0.9021 -0.3848 -0.0505
  210MOL0     C28240   9.262  -0.240   2.839 -0.8785  0.0364 -0.3266
  210MOL0     C28241   9.145  -0.171   2.795  0.3766  0.5296 -0.3471
  210MOL0     C28242   9.021  -0.195   2.858 -0.0144 -0.7838 -0.2081
  210MOL0     C28243   8.911  -0.100   2.806  0.2838 -0.5137  0.1989
  210MOL0     C28244   9.008  -0.303   2.947 -0.7106  0.2372 -0.1707
  210MOL0     C28245   8.880  -0.351   3.009  0.1998  0.1528 -0.5403
  210MOL0     O28246   8.759  -0.324   2.951 -1.0538 -0.8799  0.3168
  210MOL0     C28247   8.644  -0.386   2.977 -1.2273  0.6342 -0.1428
  210MOL0     C28248   8.518  -0.336   2.958 -0.6412 -0.2851 -0.1878
  210MOL0     C28249   8.400  -0.396   3.000  0.1304  0.7961  0.2320
  210MOL0     C28250   8.402  -0.533   3.043  0.0941  0.5744 -0.2671
  210MOL0     O28251   8.298  -0.607   3.074  0.7524  0.6277 -0.1089
  210MOL0     C28252   8.172  -0.564   3.011  0.0325  0.2415 -0.4752
  210MOL0     C28253   8.068  -0.675   3.040  0.6064 -0.4395 -0.1887
  210MOL0     C28254   7.920  -0.641   3.011  0.1168  0.1384  0.0613
  210MOL0     C28255   7.893  -0.651   2.861 -0.1012  0.3657  0.0322
  210MOL0     C28256   7.746  -0.623   2.810 -0.6728  0.2851 -0.2292
  210MOL0     C28257   7.699  -0.704   2.686 -0.4187  0.0537  0.1931
  210MOL0     C28258   7.792  -0.664   2.571 -0.4871 -0.1732 -0.8841
  210MOL0     C28259   7.739  -0.697   2.432  0.3615 -0.0195  0.5522
  210MOL0    Cl28260   7.812  -0.857   2.381 -0.0726  0.2246  0.1426
  210MOL0     C28261   8.525  -0.591   3.060  0.6465  0.7386 -0.0969
  210MOL0     C28262   8.646  -0.524   3.022 -0.2884  0.3133 -0.1230
  210MOL0     O28263   8.894  -0.411   3.116  0.4394  0.1430  0.7254
  210MOL0     C28264   9.119  -0.378   2.979 -0.6279 -0.6982  1.2521
  210MOL0     C28265   9.242  -0.347   2.932  0.8075  0.7073  0.4999
  210MOL0     N28266   9.885   0.103   2.993 -0.2309  0.0793  0.6956
  210MOL0     N28267   9.964   0.200   3.021  0.2011  0.4530  0.4764
  210MOL0     C28268  11.122   0.213   2.882  0.7763 -0.0434  0.0020
  210MOL0     C28269  11.210   0.261   2.978  0.0968  0.2367  0.3269
  210MOL0     C28270  11.405   0.542   3.288  0.0525 -0.1473  0.0376
  210MOL0     C28271  11.427   0.657   3.377 -0.6266 -0.2400  0.7751
  210MOL0     C28272  11.555   0.678   3.434  0.4585  0.0741  0.4827
  210MOL0     C28273  11.660   0.594   3.405 -0.1312 -0.2795 -0.0920
  210MOL0     O28274  11.792   0.615   3.438 -0.3715  0.1480  0.2291
  210MOL0     C28275  11.826   0.734   3.511  0.3716 -0.1915 -1.1945
  210MOL0     C28276  11.963   0.715   3.577 -0.3936 -0.5573  0.1081
  210MOL0     C28277  11.999   0.597   3.667 -0.1306 -0.0788  0.4668
  210MOL0     C28278  11.894   0.565   3.776  0.0957 -0.1671 -0.1813
  210MOL0     C28279  11.868   0.676   3.861 -0.1966 -0.1956 -0.1671
  210MOL0     C28280  11.828   0.772   3.925  0.4440 -1.4948 -0.7713
  210MOL0     C28281  11.632   0.476   3.339 -0.1475  0.0215  0.4757
  210MOL0     C28282  11.512   0.448   3.273  0.2545  0.5393 -0.5782
  210MOL0     H28283  11.003   0.445   3.164  1.2080 -0.2482  1.4005
  210MOL0     H28284  10.844   0.359   3.018 -0.3263  0.6400 -1.9975
  210MOL0     H28285  10.727   0.311   2.828  1.1498  1.3735  0.6553
  210MOL0     H28286  10.829   0.408   2.725 -0.4613  1.2877  1.9028
  210MOL0     H28287  10.799   0.262   2.538 -1.3302  3.0990 -0.6368
  210MOL0     H28288  10.720   0.136   2.631  0.0900  0.3915  4.4053
  210MOL0     H28289  10.615   0.428   2.577  0.2746  0.1727  0.7795
  210MOL0     H28290  10.573   0.288   2.489  2.1685 -0.2997 -0.5865
  210MOL0     H28291  10.475   0.184   2.683 -1.3175 -0.9248 -0.1725
  210MOL0     H28292  10.477   0.337   2.776 -0.1407  0.0287 -0.4498
  210MOL0     H28293  10.360   0.455   2.603 -0.6276 -0.4378 -2.8533
  210MOL0     H28294  10.350   0.309   2.508 -0.6950  0.7571 -0.8317
  210MOL0     H28295  10.146   0.400   2.653 -0.5915  2.1181  2.0876
  210MOL0     H28296  10.186   0.226   2.665 -1.2069  0.6847  0.2704
  210MOL0     H28297  10.271   0.261   2.900  3.1019  1.2699  0.9567
  210MOL0     H28298  10.294   0.422   2.869  1.2596 -0.4514 -1.7082
  210MOL0     H28299  10.046   0.457   2.839 -0.3998  0.8120  1.5478
  210MOL0     H28300  10.102   0.420   2.999  0.1329  0.5200 -0.6043
  210MOL0     H28301   9.946   0.247   2.696  2.2844  2.1111  1.0911
  210MOL0     H28302   9.801  -0.014   2.668 -1.8904  1.8367 -0.5255
  210MOL0     H28303   9.866  -0.102   2.814 -0.9138  0.3135  1.8334
  210MOL0     H28304   9.579   0.011   2.777  0.3194  0.6856 -1.1449
  210MOL0     H28305   9.649  -0.059   2.938 -1.9683  0.3380  0.1166
  210MOL0     H28306   9.695  -0.267   2.788 -1.0771 -0.4564  1.4497
  210MOL0     H28307   9.579  -0.177   2.677  0.9983  0.4962  0.0235
  210MOL0     H28308   9.504  -0.211   2.966  1.0624  0.3598 -1.1914
  210MOL0     H28309   9.506  -0.353   2.848  1.8303  0.0003 -0.9829
  210MOL0     H28310   9.161  -0.085   2.730  1.0844 -1.0317 -2.3511
  210MOL0     H28311   8.844  -0.148   2.734 -3.0042  2.3303  1.1149
  210MOL0     H28312   8.835  -0.073   2.880  0.0082  1.9291 -0.9060
  210MOL0     H28313   8.949  -0.010   2.758 -1.0208  0.6202  1.2093
  210MOL0     H28314   8.522  -0.231   2.931  3.1213 -0.1616  0.4103
  210MOL0     H28315   8.319  -0.324   2.990 -0.5971 -0.2109 -1.7346
  210MOL0     H28316   8.132  -0.463   3.023 -0.8777 -0.1611 -0.0554
  210MOL0     H28317   8.182  -0.575   2.902 -2.9213 -1.9167 -0.6534
  210MOL0     H28318   8.102  -0.759   2.978  1.6303 -0.5197  0.4531
  210MOL0     H28319   8.077  -0.697   3.147  2.5450 -0.8413 -0.3912
  210MOL0     H28320   7.911  -0.542   3.057  1.4644  0.4469 -0.2952
  210MOL0     H28321   7.854  -0.711   3.063 -1.4415 -0.5644 -2.6753
  210MOL0     H28322   7.972  -0.608   2.799  0.2183  0.9324  0.8118
  210MOL0     H28323   7.908  -0.759   2.854 -0.7593 -0.1222  3.9035
  210MOL0     H28324   7.731  -0.519   2.783  1.3378  1.4209  2.5417
  210MOL0     H28325   7.679  -0.656   2.890 -0.5010 -2.1468 -0.9852
  210MOL0     H28326   7.701  -0.813   2.698 -0.1763  0.1692  1.3372
  210MOL0     H28327   7.596  -0.681   2.658 -0.2696  2.1870  1.2411
  210MOL0     H28328   7.892  -0.700   2.597 -0.2249  1.3319  0.3705
  210MOL0     H28329   7.805  -0.555   2.564  0.1448 -0.3105 -2.1189
  210MOL0     H28330   7.778  -0.624   2.361  3.8341  0.7195  2.9548
  210MOL0     H28331   7.629  -0.700   2.427  0.4134 -0.5424 -0.6883
  210MOL0     H28332   8.529  -0.692   3.099 -1.0120 -0.1646 -2.0771
  210MOL0     H28333   8.740  -0.578   3.019 -0.2852  0.3842 -1.5991
  210MOL0     H28334   9.118  -0.464   3.045  0.4499 -0.3474  1.7471
  210MOL0     H28335   9.323  -0.417   2.945 -0.2035 -0.5884 -0.0203
  210MOL0     H28336  11.166   0.155   2.802 -2.9210 -0.5420 -1.8733
  210MOL0     H28337  11.314   0.235   2.961  0.6637  1.5831  1.5686
  210MOL0     H28338  11.349   0.726   3.408  1.7861  2.7367  0.7289
  210MOL0     H28339  11.565   0.769   3.493 -1.7568  0.6670  0.0246
  210MOL0     H28340  11.831   0.825   3.450 -0.7253  1.1252  0.5726
  210MOL0     H28341  11.751   0.739   3.590 -0.2181 -3.5780 -1.3845
  210MOL0     H28342  11.962   0.807   3.636 -0.2495 -0.8119  0.5069
  210MOL0     H28343  12.034   0.720   3.494 -0.4570 -0.9075  0.0304
  210MOL0     H28344  12.093   0.618   3.718 -0.5059 -0.6620  1.4229
  210MOL0     H28345  12.016   0.511   3.603 -0.7658  0.9290 -1.1300
  210MOL0     H28346  11.922   0.490   3.851 -1.4039  0.1796  0.7825
  210MOL0     H28347  11.802   0.531   3.728 -0.6745  0.1212  1.0513
  210MOL0     H28348  11.806   0.862   3.979 -0.8862 -0.5505 -2.7615
  210MOL0     H28349  11.709   0.403   3.316 -0.8130 -0.5639  0.0750
  210MOL0     H28350  11.516   0.353   3.220  2.1093 -0.4095  1.0934
  211MOL0     O28351   6.454   9.669   0.499 -0.0736  0.0677 -0.5058
  211MOL0     C28352   6.483   9.740   0.592  0.9007 -0.0053 -0.2403
  211MOL0     O28353   6.399   9.776   0.687  0.5181 -0.6794 -0.1611
  211MOL0     C28354   6.266   9.729   0.696  0.3579 -0.8552  0.1158
  211MOL0     C28355   6.168   9.814   0.741  0.0107 -0.6564  0.3755
  211MOL0     C28356   6.028   9.789   0.751  0.2916  0.7906  0.6111
  211MOL0     C28357   5.982   9.667   0.696 -0.1482  0.3166 -0.2881
  211MOL0     O28358   5.854   9.621   0.704  0.1530 -0.3765  0.1180
  211MOL0     C28359   5.739   9.711   0.692 -0.5601 -0.2247 -0.3133
  211MOL0     C28360   5.615   9.630   0.717 -0.9261 -0.2803  0.1310
  211MOL0     C28361   5.488   9.711   0.696  0.2247 -0.7774 -0.1020
  211MOL0     C28362   5.362   9.622   0.721 -0.9412  0.7053 -0.3898
  211MOL0     C28363   5.252   9.665   0.634  0.0334 -0.0389 -0.8201
  211MOL0     C28364   5.132   9.575   0.654  0.2224  0.6257  0.2575
  211MOL0     C28365   5.006   9.635   0.581 -0.0624  0.3645 -0.3342
  211MOL0     C28366   4.902   9.525   0.564 -0.1822  0.0339  0.2936
  211MOL0     N28367   4.779   9.566   0.488 -0.0190 -0.3518 -0.1721
  211MOL0     C28368   4.782   9.661   0.390  0.6153  0.2093  0.2456
  211MOL0     C28369   4.661   9.646   0.332 -0.1653 -0.4814  0.4889
  211MOL0     C28370   4.635   9.718   0.200 -0.0301  0.0883  0.1542
  211MOL0     C28371   4.526   9.824   0.212 -0.1752  0.3901 -0.3355
  211MOL0     C28372   4.399   9.761   0.280  0.0490  0.5803  0.9848
  211MOL0     C28373   4.313   9.882   0.299 -0.1016  0.0852  0.2661
  211MOL0     O28374   4.272   9.935   0.173  0.2762 -0.0506  0.6319
  211MOL0     C28375   4.160  10.008   0.183  1.1050  0.0118  0.3006
  211MOL0     C28376   4.135  10.109   0.276  0.0007  0.2652  0.5709
  211MOL0     C28377   4.030  10.200   0.275 -0.4254  0.3251  0.2435
  211MOL0     C28378   4.008  10.283   0.394 -0.3621 -0.0699 -0.0707
  211MOL0     C28379   3.937  10.193   0.167 -0.6260  0.4565 -0.1849
  211MOL0     C28380   3.827  10.293   0.152  0.7184  0.7753  0.4343
  211MOL0     O28381   3.698  10.242   0.130 -0.3381  0.9156 -0.3743
  211MOL0     C28382   3.606  10.335   0.093  0.3452 -0.6245 -0.1707
  211MOL0     C28383   3.499  10.351   0.177 -0.0185 -0.2404  0.4617
  211MOL0     C28384   3.398  10.446   0.146 -0.3212  0.5665 -0.5713
  211MOL0     C28385   3.408  10.534   0.041 -0.1200 -0.9126  1.0242
  211MOL0     O28386   3.317  10.629   0.031  0.3628 -0.4494 -0.5465
  211MOL0     C28387   3.321  10.724  -0.077 -0.5179 -0.0224  0.2578
  211MOL0     C28388   3.302  10.666  -0.222 -0.3594 -0.6136 -0.4392
  211MOL0     C28389   3.384  10.740  -0.331  0.4849  0.7839  1.0031
  211MOL0     C28390   3.353  10.693  -0.475  0.7287  0.3090  0.4923
  211MOL0     C28391   3.456  10.747  -0.571 -0.3993  0.0424 -0.5026
  211MOL0     C28392   3.406  10.735  -0.717  0.3506  0.4073 -0.3857
  211MOL0     C28393   3.308  10.855  -0.756 -0.0264 -0.6585 -0.1871
  211MOL0     C28394   3.186  10.810  -0.830  0.6367  0.6990 -0.7420
  211MOL0    Cl28395   3.096  10.698  -0.726 -0.0235 -0.0126  0.4024
  211MOL0     C28396   3.514  10.508  -0.049 -0.1297 -0.4398  0.2069
  211MOL0     C28397   3.607  10.409  -0.021 -0.2544 -0.9519 -0.4162
  211MOL0     O28398   3.853  10.409   0.177 -1.0348 -0.2732  0.8471
  211MOL0     C28399   3.956  10.096   0.073 -0.5588  0.4970  0.2135
  211MOL0     C28400   4.061  10.007   0.081 -0.2758 -0.0102  0.9844
  211MOL0     N28401   4.596   9.544   0.385 -0.4640 -0.4583 -0.7734
  211MOL0     N28402   4.664   9.491   0.491  0.2704 -0.6527  0.6366
  211MOL0     C28403   6.077   9.573   0.650  0.1135 -0.0982  0.3725
  211MOL0     C28404   6.218   9.605   0.650  0.5532 -0.2344  0.5243
  211MOL0     C28405   6.626   9.769   0.611 -0.3805 -0.4279 -0.1677
  211MOL0     C28406   6.713   9.747   0.505  0.2480  1.0798 -0.1290
  211MOL0     C28407   6.847   9.788   0.520  0.4183 -0.9012  0.1979
  211MOL0     C28408   6.892   9.857   0.625  0.1409 -0.3834  0.0933
  211MOL0     O28409   7.026   9.901   0.617  0.8333  0.5499 -0.2538
  211MOL0     C28410   7.072   9.990   0.719  0.4357  0.3593  0.5042
  211MOL0     C28411   7.194  10.060   0.689 -0.1339  0.0031 -0.9036
  211MOL0     C28412   7.267  10.124   0.810 -0.0950  0.1651 -0.1587
  211MOL0     C28413   7.410  10.173   0.788 -0.0413 -0.5973 -0.4969
  211MOL0     C28414   7.495  10.064   0.739 -0.5904 -0.3081  0.4637
  211MOL0     C28415   7.572   9.975   0.709  0.2233 -0.1097 -0.8163
  211MOL0     C28416   6.814   9.875   0.737  0.1128 -0.2853 -0.9699
  211MOL0     C28417   6.678   9.823   0.730  0.0671  0.0500 -0.3475
  211MOL0     H28418   6.201   9.916   0.757 -3.8066  1.1522 -1.8361
  211MOL0     H28419   5.969   9.873   0.787 -0.6478 -0.1662  1.3578
  211MOL0     H28420   5.738   9.785   0.772 -1.3188  1.1094 -1.5265
  211MOL0     H28421   5.731   9.768   0.600  0.6090  2.5313  1.1740
  211MOL0     H28422   5.624   9.555   0.638  2.8866  1.1509 -1.0346
  211MOL0     H28423   5.616   9.590   0.819 -1.0903 -2.5251 -0.7129
  211MOL0     H28424   5.480   9.786   0.775  1.2175  0.1953 -0.8926
  211MOL0     H28425   5.497   9.774   0.608  2.5583  2.0940  1.9779
  211MOL0     H28426   5.384   9.515   0.709 -0.7450  0.6400  0.5341
  211MOL0     H28427   5.342   9.638   0.827  3.1338  0.8058  0.5270
  211MOL0     H28428   5.231   9.769   0.658 -1.0768 -0.4219 -0.0047
  211MOL0     H28429   5.293   9.664   0.533  1.2879  0.1213 -0.3336
  211MOL0     H28430   5.150   9.474   0.618  2.1972  0.7812  0.6910
  211MOL0     H28431   5.119   9.565   0.762  1.5539  0.7856  0.4550
  211MOL0     H28432   4.956   9.718   0.633  1.3022  1.1194 -0.1795
  211MOL0     H28433   5.033   9.674   0.482 -0.0382  0.2430 -0.3749
  211MOL0     H28434   4.876   9.500   0.667 -0.7076  1.6378  0.5858
  211MOL0     H28435   4.946   9.443   0.508  2.4669  0.8069  1.0925
  211MOL0     H28436   4.857   9.729   0.352 -0.1411  0.3462 -1.0918
  211MOL0     H28437   4.727   9.752   0.153  1.4785 -0.5295  2.4809
  211MOL0     H28438   4.603   9.646   0.124 -0.1866  2.0523 -1.7284
  211MOL0     H28439   4.498   9.849   0.109  0.8240  0.1428 -0.6756
  211MOL0     H28440   4.571   9.909   0.263  1.7338 -0.0047 -1.2852
  211MOL0     H28441   4.423   9.719   0.378  0.0931  1.8363  1.5450
  211MOL0     H28442   4.352   9.683   0.220  0.6780 -0.1704  1.4492
  211MOL0     H28443   4.368   9.957   0.357  1.0831 -0.0283 -0.6610
  211MOL0     H28444   4.224   9.851   0.355 -1.2843  1.6215 -0.6798
  211MOL0     H28445   4.211  10.123   0.352 -1.4821  2.3383  1.7872
  211MOL0     H28446   4.051  10.381   0.371 -1.4516  0.5804  0.5733
  211MOL0     H28447   3.901  10.302   0.409  0.2859  1.8376  3.1989
  211MOL0     H28448   4.059  10.250   0.485 -2.1103  2.7958  2.1531
  211MOL0     H28449   3.488  10.299   0.272 -1.2640 -0.8634  0.0077
  211MOL0     H28450   3.324  10.460   0.224  0.7905 -2.2659  1.1257
  211MOL0     H28451   3.240  10.795  -0.058  0.2213  0.9395 -0.0387
  211MOL0     H28452   3.409  10.789  -0.075 -0.7448  0.2736  1.8127
  211MOL0     H28453   3.328  10.560  -0.227 -0.8662 -0.9368  2.1241
  211MOL0     H28454   3.194  10.668  -0.240 -0.3655  1.0405 -0.4147
  211MOL0     H28455   3.490  10.720  -0.310  0.7074  1.0643  0.1718
  211MOL0     H28456   3.361  10.845  -0.314 -0.5489  0.6334  0.6092
  211MOL0     H28457   3.351  10.584  -0.482 -0.4539  0.4101 -1.6957
  211MOL0     H28458   3.255  10.726  -0.510  0.4722 -0.4185  0.5135
  211MOL0     H28459   3.539  10.676  -0.562 -2.1049 -2.4460 -2.8218
  211MOL0     H28460   3.493  10.848  -0.549  0.5525 -0.4741  0.3302
  211MOL0     H28461   3.486  10.745  -0.792  0.1014 -0.3734 -0.7598
  211MOL0     H28462   3.362  10.636  -0.722  1.3739 -0.0501 -0.7339
  211MOL0     H28463   3.372  10.915  -0.821 -1.5483  0.9308 -0.2790
  211MOL0     H28464   3.291  10.927  -0.676  0.6940 -2.8192  2.0262
  211MOL0     H28465   3.216  10.758  -0.921 -0.9250 -0.6177 -0.5645
  211MOL0     H28466   3.111  10.885  -0.859  1.4541  0.1840 -4.6223
  211MOL0     H28467   3.534  10.563  -0.141  1.7304  0.5048  1.1318
  211MOL0     H28468   3.692  10.392  -0.086  0.6385  0.0036  0.4646
  211MOL0     H28469   3.881  10.087  -0.005  0.2342  0.8574 -0.6015
  211MOL0     H28470   4.081   9.943  -0.004 -1.3084  2.3775 -1.1732
  211MOL0     H28471   6.045   9.473   0.622 -0.0350 -0.2127  0.9368
  211MOL0     H28472   6.292   9.532   0.618  3.4130  2.4171  0.6571
  211MOL0     H28473   6.689   9.705   0.408  2.3283  0.8208 -0.5762
  211MOL0     H28474   6.922   9.784   0.441  0.0367 -0.0189 -0.2206
  211MOL0     H28475   6.997  10.069   0.728 -1.0940 -0.9517 -0.0843
  211MOL0     H28476   7.091   9.926   0.806  0.9654 -2.8860 -1.8133
  211MOL0     H28477   7.173  10.142   0.619  5.3490  1.1570 -1.7122
  211MOL0     H28478   7.261   9.996   0.631  0.7867 -0.0058  0.1486
  211MOL0     H28479   7.279  10.054   0.894 -1.3570  0.4360  0.2692
  211MOL0     H28480   7.224  10.222   0.833  1.8271  0.5181  2.3541
  211MOL0     H28481   7.458  10.217   0.876  2.6207 -0.2140 -2.0260
  211MOL0     H28482   7.408  10.253   0.714  1.9070 -1.8289 -1.9858
  211MOL0     H28483   7.638   9.892   0.692 -1.5249 -2.0391  1.1293
  211MOL0     H28484   6.847   9.901   0.837 -3.3992  1.6003 -0.1485
  211MOL0     H28485   6.619   9.841   0.819 -1.2399  0.4071 -1.2619
  212MOL0     O28486   8.940   8.729   4.622  0.3552 -0.0569 -0.1284
  212MOL0     C28487   8.994   8.835   4.595 -0.0146  0.3097 -0.3309
  212MOL0     O28488   8.926   8.946   4.553  0.1801  0.2375  0.1038
  212MOL0     C28489   8.789   8.938   4.521 -0.1979 -0.0086 -0.6508
  212MOL0     C28490   8.742   9.056   4.466 -0.3926 -1.3701  0.4165
  212MOL0     C28491   8.614   9.069   4.413 -0.1634 -0.0811 -0.4748
  212MOL0     C28492   8.519   8.969   4.424 -0.1844 -0.2261  0.7930
  212MOL0     O28493   8.391   8.970   4.369  0.4700 -0.3863 -0.3195
  212MOL0     C28494   8.343   9.068   4.278  0.5752 -1.1395 -0.3677
  212MOL0     C28495   8.240   9.013   4.174  0.1796  0.1730 -0.1209
  212MOL0     C28496   8.104   8.987   4.250 -0.6250  0.3532  0.3093
  212MOL0     C28497   8.018   8.902   4.156  0.8004  0.5621  0.3348
  212MOL0     C28498   7.893   8.865   4.233  0.0797  0.3995 -0.5015
  212MOL0     C28499   7.781   8.810   4.140 -0.7026 -0.2809 -0.2826
  212MOL0     C28500   7.640   8.792   4.201 -0.6671  0.1609  0.5251
  212MOL0     C28501   7.542   8.762   4.087  0.3777  0.9391 -0.3329
  212MOL0     N28502   7.404   8.749   4.138 -0.5758 -0.6013 -0.4448
  212MOL0     C28503   7.318   8.854   4.156  1.2688  0.3556 -0.6716
  212MOL0     C28504   7.205   8.792   4.198 -0.3597  0.0452  0.3565
  212MOL0     C28505   7.085   8.875   4.247 -0.3442  0.0160  0.3842
  212MOL0     C28506   6.962   8.803   4.204  0.3433  0.3322 -0.2038
  212MOL0     C28507   6.838   8.854   4.280  0.7886 -0.7828 -0.1036
  212MOL0     C28508   6.716   8.755   4.271  0.4206 -0.2514 -0.5657
  212MOL0     O28509   6.604   8.820   4.339 -0.2825 -0.3449  0.6907
  212MOL0     C28510   6.470   8.803   4.298 -0.8410 -0.7014 -0.2362
  212MOL0     C28511   6.415   8.682   4.286 -0.2551  0.9376 -0.3729
  212MOL0     C28512   6.279   8.667   4.252  0.7055 -0.5144 -0.0808
  212MOL0     C28513   6.230   8.527   4.229 -0.5178  0.4651  0.8258
  212MOL0     C28514   6.191   8.778   4.240  0.1168 -0.3747  1.2061
  212MOL0     C28515   6.036   8.773   4.233 -0.3080  0.0383  0.6863
  212MOL0     O28516   5.977   8.648   4.242 -0.9373  0.1622  0.0262
  212MOL0     C28517   5.839   8.631   4.220 -0.5160  0.7384  0.3226
  212MOL0     C28518   5.792   8.522   4.139 -0.0669 -0.2010 -0.4683
  212MOL0     C28519   5.657   8.506   4.110  0.3650  0.5110  0.3310
  212MOL0     C28520   5.558   8.587   4.174 -0.3027  0.6465 -0.4784
  212MOL0     O28521   5.425   8.595   4.151 -0.5539 -0.0228  0.4159
  212MOL0     C28522   5.395   8.530   4.023  0.6878  0.8087 -0.3284
  212MOL0     C28523   5.271   8.599   3.987  0.9736 -0.3180  0.1964
  212MOL0     C28524   5.145   8.537   4.059  0.6873  0.4268  0.2184
  212MOL0     C28525   5.120   8.384   4.054 -0.5261  0.2107  0.4858
  212MOL0     C28526   4.975   8.347   4.080  0.0474 -0.3781  0.7520
  212MOL0     C28527   4.908   8.425   4.198  0.4998  0.6586  0.3827
  212MOL0     C28528   4.771   8.360   4.246 -0.7163  0.1771 -0.1260
  212MOL0     C28529   4.655   8.420   4.170 -0.1882 -0.5300  0.0171
  212MOL0    Cl28530   4.621   8.584   4.222 -0.1786 -0.1870 -0.3422
  212MOL0     C28531   5.605   8.688   4.262 -0.6088 -1.0126  0.6330
  212MOL0     C28532   5.741   8.702   4.292 -0.4873 -0.9904 -0.1118
  212MOL0     O28533   5.974   8.880   4.226 -0.3768  0.3165 -0.0160
  212MOL0     C28534   6.253   8.910   4.246 -0.7219  0.1338 -0.0901
  212MOL0     C28535   6.392   8.920   4.265 -0.1220 -0.6677  0.5903
  212MOL0     N28536   7.225   8.650   4.196 -0.5377 -0.4239  0.4030
  212MOL0     N28537   7.340   8.627   4.155 -0.5992  0.0748  0.5006
  212MOL0     C28538   8.561   8.855   4.486 -0.0204 -0.0542  0.6330
  212MOL0     C28539   8.690   8.840   4.542 -0.6508 -0.2882  0.1514
  212MOL0     C28540   9.131   8.850   4.630  0.3183  0.7681  0.5245
  212MOL0     C28541   9.178   8.974   4.686  0.7767  0.1976 -0.2550
  212MOL0     C28542   9.312   8.977   4.739  0.1845 -0.5971  0.0892
  212MOL0     C28543   9.399   8.872   4.719  0.0935 -0.1080 -0.8266
  212MOL0     O28544   9.531   8.886   4.763 -0.3687  0.3490 -0.2332
  212MOL0     C28545   9.631   8.826   4.685 -0.1109  0.1474 -0.3907
  212MOL0     C28546   9.751   8.908   4.667 -0.3841  0.3914 -0.3247
  212MOL0     C28547   9.717   9.052   4.610 -0.6844  0.1775 -0.0724
  212MOL0     C28548   9.837   9.133   4.591 -0.7790  0.1814  0.1694
  212MOL0     C28549   9.867   9.208   4.718 -0.2564 -0.2497 -0.5512
  212MOL0     C28550   9.893   9.279   4.815  0.3959 -0.6404 -0.8929
  212MOL0     C28551   9.355   8.751   4.661  0.6406 -0.4698  1.1982
  212MOL0     C28552   9.220   8.744   4.619  0.5120 -0.2233  0.0291
  212MOL0     H28553   8.802   9.145   4.448 -2.8798 -0.0381 -2.0607
  212MOL0     H28554   8.584   9.163   4.369  1.0628 -0.4892 -2.2818
  212MOL0     H28555   8.304   9.154   4.333  1.3399 -1.3831  0.5715
  212MOL0     H28556   8.426   9.104   4.217  0.4059 -1.4317 -0.7722
  212MOL0     H28557   8.208   9.093   4.106  1.7599 -0.8806 -2.2203
  212MOL0     H28558   8.267   8.924   4.116  3.0069  3.4374 -4.4588
  212MOL0     H28559   8.132   8.924   4.335  0.6347  1.7454  0.9720
  212MOL0     H28560   8.061   9.084   4.278 -1.3529  0.6655 -1.7142
  212MOL0     H28561   7.990   8.969   4.075  2.2534  1.1102  0.2500
  212MOL0     H28562   8.069   8.814   4.115  2.7300  0.1158  3.3140
  212MOL0     H28563   7.921   8.789   4.307  1.2942  0.3954 -0.9412
  212MOL0     H28564   7.859   8.959   4.277 -0.3735  1.0029 -2.0633
  212MOL0     H28565   7.765   8.876   4.054  3.7185 -1.1376 -2.0054
  212MOL0     H28566   7.814   8.709   4.114  1.4895  0.5438 -0.9052
  212MOL0     H28567   7.627   8.710   4.272 -0.4165 -1.9516 -1.7139
  212MOL0     H28568   7.616   8.890   4.243 -1.6348  0.7196 -1.2052
  212MOL0     H28569   7.558   8.662   4.047  1.4910  0.4036  1.3530
  212MOL0     H28570   7.561   8.841   4.013 -1.1425 -0.5463 -2.4210
  212MOL0     H28571   7.344   8.959   4.151 -2.2569  1.3667 -0.7024
  212MOL0     H28572   7.088   8.871   4.356 -1.9699 -0.3527  0.4412
  212MOL0     H28573   7.090   8.972   4.197 -0.6986 -0.0977  0.1233
  212MOL0     H28574   6.963   8.694   4.220  0.4957  0.2770 -0.5951
  212MOL0     H28575   6.948   8.824   4.098  3.5686  2.2658 -0.3591
  212MOL0     H28576   6.804   8.951   4.242 -1.7312  0.1320  3.8850
  212MOL0     H28577   6.857   8.882   4.384  0.8486 -2.9964  0.5139
  212MOL0     H28578   6.735   8.659   4.320 -0.5916  0.7633  1.9921
  212MOL0     H28579   6.687   8.738   4.167 -1.3009  3.5947 -0.8831
  212MOL0     H28580   6.473   8.591   4.298 -0.9143  0.7493  1.8952
  212MOL0     H28581   6.325   8.474   4.213  0.6003  2.2057  1.3521
  212MOL0     H28582   6.187   8.482   4.319  1.0018 -0.2037  1.2494
  212MOL0     H28583   6.167   8.498   4.144  1.0924 -3.2689  0.6923
  212MOL0     H28584   5.860   8.445   4.101  0.2239 -1.4327  2.2778
  212MOL0     H28585   5.628   8.436   4.032 -1.1288  0.2967  1.0516
  212MOL0     H28586   5.462   8.554   3.940  1.8121  1.1721  0.6559
  212MOL0     H28587   5.383   8.421   4.034  1.4135  0.9738  3.3169
  212MOL0     H28588   5.278   8.706   4.008 -1.6362  0.0311 -0.3914
  212MOL0     H28589   5.254   8.586   3.879  3.2162 -1.2975 -0.0916
  212MOL0     H28590   5.062   8.583   4.006 -0.0427 -2.6156 -1.5589
  212MOL0     H28591   5.155   8.563   4.165  0.1310  0.5868  0.2317
  212MOL0     H28592   5.155   8.341   3.960  1.8082 -1.3792  1.9688
  212MOL0     H28593   5.174   8.339   4.138  1.1543  0.8089 -0.2441
  212MOL0     H28594   4.968   8.242   4.110  1.2569  0.2085  3.4194
  212MOL0     H28595   4.912   8.369   3.994 -1.1998 -1.1571  1.4449
  212MOL0     H28596   4.970   8.432   4.287  1.5658  0.1425 -0.3003
  212MOL0     H28597   4.895   8.528   4.164  0.3352  0.3062 -0.6694
  212MOL0     H28598   4.763   8.391   4.351 -0.1910  0.4634 -0.1638
  212MOL0     H28599   4.783   8.254   4.222  0.5458  0.3071 -0.1721
  212MOL0     H28600   4.565   8.361   4.189 -3.0970  2.6846 -2.5180
  212MOL0     H28601   4.671   8.412   4.062 -0.9232  1.1974 -0.2583
  212MOL0     H28602   5.535   8.763   4.296 -0.1316  0.3214 -1.1360
  212MOL0     H28603   5.778   8.779   4.359  0.7686 -0.8475 -0.9262
  212MOL0     H28604   6.194   9.001   4.239 -2.2450 -0.9280 -2.1006
  212MOL0     H28605   6.443   9.015   4.268 -1.1372 -0.0636 -0.4665
  212MOL0     H28606   8.499   8.767   4.504 -1.4306  0.9769  1.0234
  212MOL0     H28607   8.708   8.749   4.598  1.5799  0.6391  1.0893
  212MOL0     H28608   9.120   9.065   4.695  0.7611  0.4576 -2.4911
  212MOL0     H28609   9.348   9.068   4.784  0.9049 -1.8534  2.1833
  212MOL0     H28610   9.658   8.730   4.730 -1.1193  0.7597  1.6062
  212MOL0     H28611   9.595   8.798   4.585  0.7145  1.3531 -1.0563
  212MOL0     H28612   9.823   8.855   4.604  0.2732 -1.9179  2.1632
  212MOL0     H28613   9.799   8.919   4.765  0.8387 -0.6270 -0.7804
  212MOL0     H28614   9.640   9.088   4.679 -1.4739 -2.7398  0.6977
  212MOL0     H28615   9.673   9.043   4.510  2.0280 -0.7037 -1.2706
  212MOL0     H28616   9.826   9.208   4.511 -0.0023  0.5401  0.3831
  212MOL0     H28617   9.920   9.067   4.566 -0.8532 -0.2325  0.9904
  212MOL0     H28618   9.937   9.315   4.906 -0.0454  0.7936 -1.2295
  212MOL0     H28619   9.422   8.666   4.655  0.3527 -0.5630 -2.5248
  212MOL0     H28620   9.188   8.645   4.587 -0.5129  0.0809  0.0735
  213MOL0     O28621   9.577   5.859  10.097 -0.6974 -0.2258 -0.2538
  213MOL0     C28622   9.633   5.823  10.202  0.7283  0.0213  0.1821
  213MOL0     O28623   9.560   5.775  10.313  0.0805 -0.0095  0.4045
  213MOL0     C28624   9.423   5.781  10.286 -0.5064 -1.3855  0.7948
  213MOL0     C28625   9.349   5.886  10.351 -0.3246  0.3571 -0.1997
  213MOL0     C28626   9.211   5.895  10.328  0.7858 -0.4545 -0.5610
  213MOL0     C28627   9.142   5.800  10.261  0.3344 -0.2638  0.4510
  213MOL0     O28628   9.007   5.824  10.247 -0.0289  0.3551 -0.1074
  213MOL0     C28629   8.943   5.774  10.130  0.7808  0.0494 -0.1036
  213MOL0     C28630   8.984   5.839   9.997  0.8135  0.6222  0.0253
  213MOL0     C28631   8.926   5.769   9.878  0.3315  0.2577 -0.4491
  213MOL0     C28632   9.028   5.754   9.770 -0.4642 -0.1933  0.6011
  213MOL0     C28633   8.984   5.667   9.647 -0.2455  0.3778  0.1528
  213MOL0     C28634   9.059   5.713   9.522  1.4214 -0.3029  0.5863
  213MOL0     C28635   9.057   5.587   9.423  0.3889 -0.3831 -0.4549
  213MOL0     C28636   9.099   5.649   9.287  0.3887  0.3171  0.0150
  213MOL0     N28637   9.102   5.545   9.189 -0.2164  0.0845  0.3000
  213MOL0     C28638   9.009   5.454   9.172  0.6654 -0.9778  0.2777
  213MOL0     C28639   9.053   5.383   9.062 -0.1205  0.3533  0.0595
  213MOL0     C28640   8.975   5.264   9.010  0.3535  0.0755  0.3671
  213MOL0     C28641   8.829   5.246   9.057  0.1773 -0.6986  0.5515
  213MOL0     C28642   8.774   5.112   8.996  0.0728 -0.5010 -0.8691
  213MOL0     C28643   8.626   5.117   8.973  0.6786 -0.0382  0.3677
  213MOL0     O28644   8.601   4.992   8.899 -0.0350 -0.0554  0.1349
  213MOL0     C28645   8.484   4.929   8.909  0.2693  0.0499  0.3050
  213MOL0     C28646   8.482   4.805   8.846  0.4994  0.0541  0.7077
  213MOL0     C28647   8.376   4.717   8.858 -0.0389 -0.4344 -0.3267
  213MOL0     C28648   8.384   4.583   8.806  0.3660  1.0398  0.0252
  213MOL0     C28649   8.257   4.756   8.940  0.3169  0.1901  0.6625
  213MOL0     C28650   8.133   4.678   8.962  0.3575  0.0299 -0.7384
  213MOL0     O28651   8.080   4.612   8.854 -0.1935  1.1520  0.4693
  213MOL0     C28652   7.955   4.556   8.832 -0.3722 -0.0750  0.5316
  213MOL0     C28653   7.928   4.515   8.702 -0.0589  0.3120  0.1228
  213MOL0     C28654   7.807   4.456   8.666  0.4508  0.1770 -0.7494
  213MOL0     C28655   7.704   4.446   8.768  0.3387  0.2954 -0.6340
  213MOL0     O28656   7.580   4.405   8.737 -0.2922 -0.2212  0.6947
  213MOL0     C28657   7.497   4.332   8.834 -0.5653 -0.6469  0.5427
  213MOL0     C28658   7.401   4.249   8.747  0.1009  0.2202  0.4997
  213MOL0     C28659   7.285   4.338   8.694 -0.6853 -0.5417  0.5407
  213MOL0     C28660   7.198   4.277   8.581  0.1277  0.1177 -0.1520
  213MOL0     C28661   7.268   4.232   8.454 -0.2022  0.0793  1.5235
  213MOL0     C28662   7.193   4.123   8.371  0.3549 -0.6440  0.1161
  213MOL0     C28663   7.058   4.170   8.320 -0.1739 -0.5565  0.6102
  213MOL0     C28664   6.932   4.117   8.375  0.6733  1.0020 -0.5246
  213MOL0    Cl28665   6.913   3.944   8.334  0.2003  0.0129 -0.2562
  213MOL0     C28666   7.724   4.495   8.899  0.0456  0.0859 -0.1561
  213MOL0     C28667   7.848   4.546   8.924 -0.5635 -0.8058 -0.4723
  213MOL0     O28668   8.086   4.676   9.079  0.6590 -0.3517 -0.6517
  213MOL0     C28669   8.259   4.890   8.998  0.9558  0.1388 -0.3133
  213MOL0     C28670   8.365   4.976   8.971 -0.1299 -0.8097 -0.0458
  213MOL0     N28671   9.172   5.438   9.020 -0.3176 -1.0051 -0.0074
  213MOL0     N28672   9.204   5.530   9.106 -0.5635  0.2344 -0.7314
  213MOL0     C28673   9.213   5.696  10.200 -0.0050  0.4513 -0.1734
  213MOL0     C28674   9.353   5.686  10.221  0.1868  0.8862  0.4313
  213MOL0     C28675   9.775   5.837  10.215 -0.7835  0.0571  0.0487
  213MOL0     C28676   9.855   5.873  10.110 -0.8840 -0.3051  1.1493
  213MOL0     C28677   9.991   5.874  10.122  0.9218 -0.4673 -0.7924
  213MOL0     C28678  10.061   5.832  10.241  0.1035 -0.2930 -0.1367
  213MOL0     O28679  10.194   5.857  10.254 -0.4345 -0.0532  0.9620
  213MOL0     C28680  10.241   5.896  10.386  0.4608 -0.3501  0.6422
  213MOL0     C28681  10.374   5.971  10.394 -0.2414  0.7649  0.0897
  213MOL0     C28682  10.494   5.890  10.342  0.3216 -0.1172  0.4572
  213MOL0     C28683  10.623   5.972  10.345 -0.1295  0.3389 -0.2306
  213MOL0     C28684  10.739   5.891  10.394  0.3040 -0.1069  0.6819
  213MOL0     C28685  10.850   5.855  10.413  0.8856  0.8855 -0.2894
  213MOL0     C28686   9.974   5.780  10.338 -0.5604 -0.1281 -0.3694
  213MOL0     C28687   9.835   5.788  10.331  0.0026 -0.0531  0.2597
  213MOL0     H28688   9.402   5.946  10.424 -0.4158  0.8833 -0.5644
  213MOL0     H28689   9.156   5.973  10.379  0.8349 -2.0744  2.1415
  213MOL0     H28690   8.953   5.665  10.133  1.6507  0.1428  1.6957
  213MOL0     H28691   8.835   5.793  10.134  0.3328 -1.5734 -2.4425
  213MOL0     H28692   8.953   5.944   9.998 -2.4235 -0.2225 -0.0886
  213MOL0     H28693   9.092   5.829   9.989  0.6149 -3.0881  0.4180
  213MOL0     H28694   8.893   5.671   9.910  0.4852  0.0891 -0.8005
  213MOL0     H28695   8.845   5.838   9.852  0.9032  1.2690  0.3387
  213MOL0     H28696   9.050   5.857   9.740 -0.6376  0.2427  1.9270
  213MOL0     H28697   9.122   5.716   9.810 -1.0859 -1.3077  1.0310
  213MOL0     H28698   8.999   5.560   9.667  0.6210  0.3214 -0.6765
  213MOL0     H28699   8.879   5.686   9.626  0.0690  0.7560 -1.2090
  213MOL0     H28700   9.015   5.794   9.463 -0.0159 -0.8233  0.8943
  213MOL0     H28701   9.162   5.740   9.548  1.1658  1.9839 -0.5028
  213MOL0     H28702   9.130   5.510   9.450  1.5665  1.1397  0.8643
  213MOL0     H28703   8.958   5.541   9.412 -0.0974  0.6238 -0.3537
  213MOL0     H28704   9.199   5.692   9.297 -0.2409  1.5415  1.3075
  213MOL0     H28705   9.037   5.732   9.253 -1.6721 -1.3242 -0.4071
  213MOL0     H28706   8.919   5.445   9.231 -0.9198  0.6734 -1.7196
  213MOL0     H28707   8.969   5.278   8.901 -0.2180  1.0525  0.5037
  213MOL0     H28708   9.030   5.172   9.028  2.4792  1.0846 -0.6258
  213MOL0     H28709   8.763   5.325   9.022 -0.4570 -0.7473  1.6134
  213MOL0     H28710   8.826   5.236   9.166  0.4855 -1.5006  0.4954
  213MOL0     H28711   8.798   5.025   9.057 -3.0970 -0.8291  0.0884
  213MOL0     H28712   8.816   5.086   8.898  0.7152 -0.6210 -0.5688
  213MOL0     H28713   8.603   5.205   8.913 -1.3722  1.7611  3.4790
  213MOL0     H28714   8.578   5.132   9.070  0.8176  1.5021  0.2192
  213MOL0     H28715   8.569   4.782   8.785 -0.8161  0.4269 -1.4006
  213MOL0     H28716   8.311   4.556   8.728  0.7418  0.7930 -0.2414
  213MOL0     H28717   8.476   4.563   8.751  0.8046  1.0747  0.7406
  213MOL0     H28718   8.392   4.517   8.893  1.5680  1.8203  0.5286
  213MOL0     H28719   7.999   4.538   8.624  0.2324 -0.6784  0.0885
  213MOL0     H28720   7.790   4.421   8.565 -0.3307 -1.7729  0.0140
  213MOL0     H28721   7.557   4.265   8.897 -0.3480 -2.4225 -1.4096
  213MOL0     H28722   7.443   4.400   8.899  0.4566 -0.8116  1.5895
  213MOL0     H28723   7.457   4.190   8.674  0.5157 -0.3928  1.3039
  213MOL0     H28724   7.367   4.175   8.820  1.8212  0.8299  1.9969
  213MOL0     H28725   7.326   4.431   8.653 -2.3088  0.0538  0.1984
  213MOL0     H28726   7.227   4.364   8.783  1.1106 -0.1703  1.6781
  213MOL0     H28727   7.167   4.180   8.621  0.3880  1.0087  2.3650
  213MOL0     H28728   7.111   4.343   8.571 -0.1643  0.0996  1.8552
  213MOL0     H28729   7.360   4.186   8.491 -0.6135 -0.3706  2.0006
  213MOL0     H28730   7.293   4.315   8.388  3.2009 -0.6658  1.6727
  213MOL0     H28731   7.250   4.094   8.282 -2.0229  0.2311 -1.8119
  213MOL0     H28732   7.169   4.043   8.442 -0.5730 -1.0810 -0.6622
  213MOL0     H28733   7.062   4.150   8.212  2.7448  0.5272  0.4113
  213MOL0     H28734   7.043   4.277   8.332  1.7901  0.1331 -1.9813
  213MOL0     H28735   6.845   4.172   8.339 -0.2652 -0.7672 -1.0728
  213MOL0     H28736   6.935   4.134   8.483  0.6108  0.5895 -0.4570
  213MOL0     H28737   7.655   4.492   8.982 -0.6200  0.4200 -0.6933
  213MOL0     H28738   7.875   4.568   9.027 -0.7891  0.8252 -0.7338
  213MOL0     H28739   8.178   4.934   9.056  1.6569  2.3360 -0.8810
  213MOL0     H28740   8.366   5.075   9.017  2.5905 -0.8951  0.2460
  213MOL0     H28741   9.163   5.611  10.154 -1.2074  0.3164  1.2908
  213MOL0     H28742   9.415   5.605  10.182 -0.0550  0.0931  1.6458
  213MOL0     H28743   9.804   5.906  10.020  0.2517 -0.7289  0.3246
  213MOL0     H28744  10.046   5.920  10.041  2.5286  0.3976  0.7130
  213MOL0     H28745  10.159   5.955  10.428 -0.9616 -0.4194 -1.8352
  213MOL0     H28746  10.240   5.810  10.453 -1.0866 -0.2685  0.7719
  213MOL0     H28747  10.383   5.987  10.502 -0.0436 -0.1590  0.2164
  213MOL0     H28748  10.372   6.069  10.345  0.5848  1.1191  0.7369
  213MOL0     H28749  10.472   5.859  10.240 -0.2535 -1.9998  1.1183
  213MOL0     H28750  10.503   5.803  10.408 -2.8173 -0.0267  1.1583
  213MOL0     H28751  10.604   6.059  10.407 -0.3155 -0.1717  0.4354
  213MOL0     H28752  10.645   6.010  10.245  0.3806  5.3365  1.5412
  213MOL0     H28753  10.942   5.810  10.445 -0.2888  0.7892  3.5466
  213MOL0     H28754  10.009   5.745  10.434 -3.4981  1.2285  1.3431
  213MOL0     H28755   9.780   5.741  10.412  1.2206  0.8492  1.6620
  214MOL0     O28756   6.042   2.389   5.853 -0.5796  0.2637  0.3568
  214MOL0     C28757   6.098   2.433   5.957  0.5916  0.4261  0.1582
  214MOL0     O28758   6.045   2.429   6.087  0.5521 -0.0993  0.1920
  214MOL0     C28759   5.920   2.371   6.103  0.1012  0.2197  0.2289
  214MOL0     C28760   5.928   2.281   6.208  0.1306  0.3737  0.7181
  214MOL0     C28761   5.804   2.221   6.245  0.2007  0.3523 -0.1066
  214MOL0     C28762   5.679   2.256   6.178 -0.4347 -0.0234  0.1719
  214MOL0     O28763   5.559   2.189   6.207  0.3863 -0.1946 -0.2626
  214MOL0     C28764   5.540   2.139   6.340  0.9056  0.8187 -0.2787
  214MOL0     C28765   5.394   2.102   6.351  0.2482 -0.0694 -0.7502
  214MOL0     C28766   5.300   2.227   6.358  0.5054 -0.5538  0.1849
  214MOL0     C28767   5.336   2.317   6.483  0.2275  0.4929 -0.5854
  214MOL0     C28768   5.240   2.430   6.496  0.4272 -0.7045 -0.9127
  214MOL0     C28769   5.259   2.537   6.385 -0.1843 -0.6244 -0.3525
  214MOL0     C28770   5.154   2.656   6.404 -0.1999  0.3754  0.2209
  214MOL0     C28771   5.212   2.791   6.387  0.3235  0.3422 -0.0186
  214MOL0     N28772   5.089   2.874   6.383  0.4763  0.1116 -0.7130
  214MOL0     C28773   4.992   2.865   6.283 -0.8408 -0.0714  0.0391
  214MOL0     C28774   4.885   2.934   6.330 -0.6373 -0.5471 -0.3091
  214MOL0     C28775   4.767   2.958   6.245 -0.1945 -0.2676 -0.3738
  214MOL0     C28776   4.647   2.891   6.301 -0.3748 -0.3975  0.0497
  214MOL0     C28777   4.518   2.933   6.218 -0.2376  0.4103  0.9220
  214MOL0     C28778   4.403   2.841   6.258 -0.2480  0.1409 -0.4773
  214MOL0     O28779   4.389   2.844   6.404 -0.2274 -0.0891  0.3671
  214MOL0     C28780   4.300   2.745   6.453 -0.7203  0.2631  0.0229
  214MOL0     C28781   4.220   2.655   6.373  0.6162  0.5680 -0.1052
  214MOL0     C28782   4.134   2.565   6.437 -0.3726  0.5381  0.0231
  214MOL0     C28783   4.039   2.494   6.343  0.0477  0.1145  0.0566
  214MOL0     C28784   4.138   2.554   6.579 -0.3768  0.4107  0.1621
  214MOL0     C28785   4.044   2.465   6.644  0.2548 -0.0555  0.2089
  214MOL0     O28786   3.916   2.499   6.626  0.0641 -0.1906 -0.2808
  214MOL0     C28787   3.825   2.404   6.659  0.7907  0.6195 -0.0267
  214MOL0     C28788   3.749   2.361   6.549 -0.7816  0.0994  0.0303
  214MOL0     C28789   3.636   2.280   6.566  0.0086 -0.8069 -0.1764
  214MOL0     C28790   3.594   2.241   6.696  0.3637  0.5081 -0.5446
  214MOL0     O28791   3.481   2.157   6.698 -0.3850  0.7138  0.3053
  214MOL0     C28792   3.429   2.130   6.824 -0.4032 -0.8773 -0.1573
  214MOL0     C28793   3.294   2.081   6.794  0.1307 -0.4691 -0.0965
  214MOL0     C28794   3.287   1.928   6.789 -0.3753  0.1321  0.2665
  214MOL0     C28795   3.359   1.858   6.659  0.1540  0.3074  0.0467
  214MOL0     C28796   3.371   1.705   6.675 -0.0846 -0.8885  0.1088
  214MOL0     C28797   3.244   1.626   6.730 -0.6509  0.1469  0.2059
  214MOL0     C28798   3.123   1.664   6.639  0.4740  0.6554  0.0996
  214MOL0     C28799   3.000   1.583   6.687  0.0462  0.0695  0.0678
  214MOL0    Cl28800   2.947   1.628   6.846  0.1517 -0.1716 -0.5173
  214MOL0     C28801   3.662   2.291   6.807 -0.0539  0.1621 -0.1002
  214MOL0     C28802   3.779   2.374   6.792  0.7716 -0.6992 -0.0367
  214MOL0     O28803   4.086   2.365   6.690 -0.4275 -0.3020 -0.2671
  214MOL0     C28804   4.221   2.636   6.657 -0.0797  0.6165  0.1771
  214MOL0     C28805   4.301   2.731   6.591 -0.0883 -0.6873 -0.2146
  214MOL0     N28806   4.919   2.985   6.458 -0.1074  0.2529  0.1820
  214MOL0     N28807   5.037   2.948   6.491 -0.3289  0.4385  0.8343
  214MOL0     C28808   5.688   2.334   6.062  0.2683  0.1509  0.1327
  214MOL0     C28809   5.805   2.397   6.025 -0.0986  0.2979  0.0622
  214MOL0     C28810   6.225   2.506   5.934 -0.2697 -0.7171 -0.6848
  214MOL0     C28811   6.312   2.536   6.043 -0.3153 -0.1065 -0.4720
  214MOL0     C28812   6.429   2.610   6.015 -0.4185 -0.0032 -0.2120
  214MOL0     C28813   6.473   2.647   5.888  0.1223 -0.1948  0.1405
  214MOL0     O28814   6.593   2.718   5.863 -0.1648  0.0566 -0.3004
  214MOL0     C28815   6.615   2.805   5.746  0.2623  0.9362  0.0249
  214MOL0     C28816   6.737   2.895   5.758 -0.1643 -0.2048  0.2012
  214MOL0     C28817   6.875   2.831   5.770  0.6766  0.1205  0.7112
  214MOL0     C28818   6.928   2.767   5.642 -0.3000 -0.3100  0.9017
  214MOL0     C28819   6.883   2.630   5.640 -0.9502  0.0540  0.0975
  214MOL0     C28820   6.856   2.512   5.652 -0.7602 -0.5959  0.6167
  214MOL0     C28821   6.386   2.602   5.780  0.0490 -0.2379 -1.2701
  214MOL0     C28822   6.258   2.544   5.806 -0.1308  0.7270 -0.5393
  214MOL0     H28823   6.024   2.256   6.250  0.7147  1.0323 -0.1945
  214MOL0     H28824   5.802   2.155   6.330 -1.1914  1.2203  0.5554
  214MOL0     H28825   5.589   2.041   6.343 -1.3003 -0.6856 -4.5455
  214MOL0     H28826   5.574   2.202   6.423  1.7819 -0.1612  0.1353
  214MOL0     H28827   5.363   2.031   6.274 -0.8362 -1.2998  0.7395
  214MOL0     H28828   5.380   2.064   6.453 -0.8909  1.6833 -0.2153
  214MOL0     H28829   5.328   2.280   6.267  1.5360 -0.3007  0.6360
  214MOL0     H28830   5.196   2.194   6.357 -0.0411  0.9943  1.7490
  214MOL0     H28831   5.328   2.250   6.569 -1.3393  3.8037  2.0505
  214MOL0     H28832   5.439   2.350   6.468  0.4893 -0.3950 -0.8529
  214MOL0     H28833   5.139   2.386   6.490  0.4466 -0.5800 -2.6318
  214MOL0     H28834   5.249   2.490   6.586 -2.8087  0.8082 -1.4305
  214MOL0     H28835   5.363   2.573   6.386 -1.3886  3.7604 -3.3352
  214MOL0     H28836   5.234   2.487   6.291 -0.3908 -1.6135  0.2195
  214MOL0     H28837   5.075   2.643   6.330 -1.4104 -2.7065  1.8487
  214MOL0     H28838   5.102   2.661   6.500 -0.8495  0.7266 -0.1448
  214MOL0     H28839   5.272   2.796   6.296 -0.0161 -0.2883 -0.2833
  214MOL0     H28840   5.279   2.809   6.472  1.1520 -2.3954  0.0040
  214MOL0     H28841   4.996   2.808   6.191  0.5261  0.0867 -0.0187
  214MOL0     H28842   4.758   3.067   6.246  0.5700 -0.1760 -1.7103
  214MOL0     H28843   4.788   2.920   6.145  0.8697 -0.9948  0.1125
  214MOL0     H28844   4.631   2.904   6.408 -2.2707 -1.3416 -0.0707
  214MOL0     H28845   4.667   2.785   6.286 -1.0701 -0.5724  0.2818
  214MOL0     H28846   4.540   2.918   6.112 -0.5312  0.5420  0.8396
  214MOL0     H28847   4.479   3.035   6.233 -5.7719 -0.9372 -1.5400
  214MOL0     H28848   4.431   2.738   6.233 -0.0609 -0.2817  1.3442
  214MOL0     H28849   4.310   2.868   6.207 -0.2294  0.0669 -0.5501
  214MOL0     H28850   4.212   2.672   6.266  1.3329 -0.5986 -0.3606
  214MOL0     H28851   4.045   2.386   6.362 -1.6478 -0.3178 -1.5620
  214MOL0     H28852   3.933   2.515   6.358 -0.0364  1.0391 -1.6301
  214MOL0     H28853   4.078   2.498   6.241 -4.3004 -0.0516 -1.8542
  214MOL0     H28854   3.791   2.375   6.450  0.1718 -2.5432 -0.0210
  214MOL0     H28855   3.585   2.245   6.477  1.3687 -0.8811 -0.9568
  214MOL0     H28856   3.493   2.065   6.884  0.2897 -1.0753 -1.0826
  214MOL0     H28857   3.423   2.220   6.885 -0.9061 -1.6882  1.0164
  214MOL0     H28858   3.238   2.118   6.881  2.1363  1.1670  0.5781
  214MOL0     H28859   3.249   2.118   6.702  1.0218 -0.7607 -0.6569
  214MOL0     H28860   3.184   1.892   6.787 -0.2456 -0.2484  0.1993
  214MOL0     H28861   3.334   1.891   6.881  0.3452  1.9043  0.6453
  214MOL0     H28862   3.303   1.887   6.570  0.2286  1.1920  0.2744
  214MOL0     H28863   3.453   1.907   6.631 -0.8198  1.3271 -1.5871
  214MOL0     H28864   3.449   1.681   6.748 -1.2742  0.4500  1.9042
  214MOL0     H28865   3.389   1.660   6.577 -2.2000 -2.4710  0.3680
  214MOL0     H28866   3.261   1.518   6.727 -0.9181  0.0380 -4.1576
  214MOL0     H28867   3.229   1.658   6.833 -0.9688  1.4902 -0.2389
  214MOL0     H28868   3.128   1.641   6.532  0.7884  2.6239 -0.3416
  214MOL0     H28869   3.103   1.770   6.654  0.8893  0.5156  1.9018
  214MOL0     H28870   3.023   1.476   6.680 -1.3652 -0.2697  0.1834
  214MOL0     H28871   2.916   1.597   6.619  0.3212  2.6981  0.1730
  214MOL0     H28872   3.629   2.265   6.907 -2.6176 -2.3486 -1.4561
  214MOL0     H28873   3.835   2.422   6.871 -0.8659  1.5512 -0.1583
  214MOL0     H28874   4.215   2.629   6.765 -0.3457 -0.4842  0.1041
  214MOL0     H28875   4.364   2.786   6.660 -0.3745 -1.7018  0.8898
  214MOL0     H28876   5.594   2.355   6.012 -0.1908 -1.0740  0.4644
  214MOL0     H28877   5.813   2.464   5.939  0.6624 -1.4056 -1.2566
  214MOL0     H28878   6.286   2.501   6.142 -1.6426  1.6223 -0.1792
  214MOL0     H28879   6.497   2.641   6.094  1.1946 -0.8926 -1.2053
  214MOL0     H28880   6.636   2.748   5.655  5.1284  1.9862  0.2194
  214MOL0     H28881   6.530   2.870   5.721  1.6572  3.4204  1.2919
  214MOL0     H28882   6.729   2.958   5.847  2.3588 -1.5128  1.4805
  214MOL0     H28883   6.740   2.963   5.672 -1.0032 -1.8131 -1.1617
  214MOL0     H28884   6.875   2.752   5.847  2.2512 -0.8323 -0.2025
  214MOL0     H28885   6.941   2.915   5.794 -0.8753  1.6073 -0.0623
  214MOL0     H28886   7.036   2.777   5.628 -0.2387 -0.6242  1.1506
  214MOL0     H28887   6.888   2.811   5.550  0.1408  0.9833  1.3109
  214MOL0     H28888   6.835   2.410   5.674  0.2613 -1.2625 -1.2256
  214MOL0     H28889   6.407   2.621   5.675  1.6405 -2.2715 -1.3861
  214MOL0     H28890   6.185   2.536   5.726 -1.5352  1.8824  0.5627
  215MOL0     O28891   5.246  10.334   7.006 -0.7078  0.5724 -0.2946
  215MOL0     C28892   5.283  10.386   7.117  0.2851  0.4400 -0.2512
  215MOL0     O28893   5.199  10.460   7.200  0.4540  0.3222  0.2861
  215MOL0     C28894   5.058  10.460   7.164 -0.6344 -0.4401 -0.0031
  215MOL0     C28895   4.976  10.361   7.124 -0.6093  0.1942  0.1353
  215MOL0     C28896   4.836  10.376   7.126  0.3239 -0.0497 -0.2386
  215MOL0     C28897   4.777  10.497   7.160  0.3121  0.1101 -0.5459
  215MOL0     O28898   4.640  10.515   7.156  0.0783 -0.4516 -0.4211
  215MOL0     C28899   4.566  10.584   7.255 -0.0159  0.1314 -0.1910
  215MOL0     C28900   4.416  10.579   7.235  0.2482  0.0987 -0.3767
  215MOL0     C28901   4.348  10.446   7.280 -0.1729 -0.4381  0.3111
  215MOL0     C28902   4.201  10.453   7.288  0.1049 -0.8350  0.0406
  215MOL0     C28903   4.144  10.334   7.362 -0.0674 -0.1736 -0.3194
  215MOL0     C28904   3.994  10.341   7.363 -0.7300 -0.1718 -0.6591
  215MOL0     C28905   3.939  10.285   7.223  0.5498 -0.3621  0.5935
  215MOL0     C28906   3.784  10.277   7.221 -1.0580 -0.3873 -0.6124
  215MOL0     N28907   3.722  10.165   7.289  0.2027 -0.8991 -0.2548
  215MOL0     C28908   3.773  10.039   7.300 -0.7779  0.1418  0.3671
  215MOL0     C28909   3.674   9.973   7.360 -0.3116 -0.2938 -0.5657
  215MOL0     C28910   3.689   9.822   7.392 -0.1594 -0.2302 -0.4421
  215MOL0     C28911   3.541   9.750   7.405  0.0577  0.1472 -0.7692
  215MOL0     C28912   3.471   9.788   7.545 -0.3264  0.0754  0.2477
  215MOL0     C28913   3.322   9.765   7.516 -0.1717  0.2178 -0.1073
  215MOL0     O28914   3.247   9.776   7.637 -0.3705 -0.2374 -0.2585
  215MOL0     C28915   3.114   9.817   7.626 -0.0298 -0.6256 -0.0642
  215MOL0     C28916   3.018   9.767   7.538 -0.8781 -0.2108 -0.0713
  215MOL0     C28917   2.892   9.826   7.526 -0.0819  0.3829  0.7737
  215MOL0     C28918   2.814   9.777   7.406 -0.6175 -0.7515 -0.0259
  215MOL0     C28919   2.847   9.916   7.631 -0.0933  0.1979  0.2154
  215MOL0     C28920   2.717   9.979   7.626 -0.2927 -0.3275  0.4971
  215MOL0     O28921   2.673  10.040   7.743 -0.3882 -0.0782  0.0359
  215MOL0     C28922   2.541  10.044   7.773 -0.2258 -1.2092 -0.2622
  215MOL0     C28923   2.453   9.940   7.739  0.2242 -0.0081  0.3563
  215MOL0     C28924   2.318   9.953   7.765  0.5645  0.0951  0.0221
  215MOL0     C28925   2.273  10.067   7.831  0.4256 -1.1033 -0.1755
  215MOL0     O28926   2.143  10.083   7.885 -0.2201 -0.2116 -0.3736
  215MOL0     C28927   2.058   9.965   7.874  0.3775 -0.2046 -0.5893
  215MOL0     C28928   1.914   9.989   7.930 -0.0265  0.3095 -0.6193
  215MOL0     C28929   1.931  10.023   8.080 -0.0409 -0.4776  1.0824
  215MOL0     C28930   1.834   9.945   8.169 -0.3672 -0.3389  0.1726
  215MOL0     C28931   1.810  10.006   8.310  0.2931  0.7838 -0.1044
  215MOL0     C28932   1.717   9.909   8.396  0.2994  0.1335  1.1932
  215MOL0     C28933   1.707   9.958   8.538 -0.5862  0.1910  0.9169
  215MOL0     C28934   1.606   9.887   8.619  0.2937  0.0047 -0.5549
  215MOL0    Cl28935   1.680   9.730   8.669 -0.1123 -0.0998  0.0054
  215MOL0     C28936   2.359  10.172   7.854  0.2941  0.1081  0.0060
  215MOL0     C28937   2.496  10.154   7.827 -0.7957  0.4736 -0.0667
  215MOL0     O28938   2.661   9.994   7.516 -0.4515  0.1307 -0.3180
  215MOL0     C28939   2.938   9.950   7.733  0.1049  0.2630 -0.4276
  215MOL0     C28940   3.067   9.900   7.730 -0.5433  1.3001 -0.2578
  215MOL0     N28941   3.559  10.052   7.386  0.2794  0.1403  0.1159
  215MOL0     N28942   3.594  10.170   7.337 -0.0060  0.3290 -0.3431
  215MOL0     C28943   4.864  10.607   7.194  0.2460  0.3663 -0.5511
  215MOL0     C28944   4.997  10.588   7.195 -0.2152 -0.1660  0.1078
  215MOL0     C28945   5.423  10.380   7.155  0.4339 -0.6355 -0.2350
  215MOL0     C28946   5.521  10.328   7.070  0.7010 -1.0631 -0.2349
  215MOL0     C28947   5.649  10.321   7.110  0.4638 -0.2967  0.0781
  215MOL0     C28948   5.697  10.376   7.226  0.1702 -0.3323 -0.6226
  215MOL0     O28949   5.824  10.404   7.264 -0.0897 -0.3239 -0.2219
  215MOL0     C28950   5.919  10.321   7.194  0.3711 -0.1928 -0.4837
  215MOL0     C28951   6.054  10.319   7.270  0.2393  0.0613  0.1402
  215MOL0     C28952   6.148  10.195   7.225  0.2458 -0.2536 -0.6409
  215MOL0     C28953   6.154  10.170   7.072 -0.5991 -0.3397 -0.3249
  215MOL0     C28954   6.220  10.278   7.009 -0.4536 -0.4072  0.6029
  215MOL0     C28955   6.278  10.369   6.953  0.6245  0.6586 -0.0117
  215MOL0     C28956   5.604  10.434   7.313  0.1217  0.1734 -0.9330
  215MOL0     C28957   5.473  10.440   7.277  1.1108  0.1858 -0.9816
  215MOL0     H28958   5.009  10.260   7.100 -0.8723 -0.4875  2.4096
  215MOL0     H28959   4.766  10.298   7.097 -2.0335  1.9619 -0.2686
  215MOL0     H28960   4.583  10.558   7.360 -0.4243  0.6194 -0.0033
  215MOL0     H28961   4.598  10.688   7.247  0.1526  0.0538 -0.5200
  215MOL0     H28962   4.380  10.659   7.300 -0.6656 -0.8938  0.3859
  215MOL0     H28963   4.387  10.595   7.130 -1.2053  1.8195  0.2458
  215MOL0     H28964   4.381  10.367   7.213  0.2505  1.1144 -1.3716
  215MOL0     H28965   4.388  10.411   7.376 -1.4372 -0.6788  0.7800
  215MOL0     H28966   4.160  10.542   7.337 -0.0611 -1.9037  1.9250
  215MOL0     H28967   4.166  10.465   7.185 -1.8720  2.2931  0.9379
  215MOL0     H28968   4.188  10.243   7.319 -0.8977 -2.2622  2.8652
  215MOL0     H28969   4.181  10.341   7.465  0.1598 -2.0170 -0.2335
  215MOL0     H28970   3.966  10.269   7.440 -1.1552  0.7010  0.0101
  215MOL0     H28971   3.961  10.444   7.380 -0.1030  0.4387 -2.7927
  215MOL0     H28972   3.955  10.351   7.137 -1.2782 -0.2762  0.2757
  215MOL0     H28973   3.983  10.188   7.201 -0.1189 -0.7035  0.7281
  215MOL0     H28974   3.740  10.269   7.122 -2.7186 -2.4273  0.2111
  215MOL0     H28975   3.739  10.374   7.246 -1.0825 -0.7165  0.6888
  215MOL0     H28976   3.870  10.020   7.256 -1.4139 -0.3487 -0.8654
  215MOL0     H28977   3.744   9.769   7.315  1.0765  0.1595  0.1438
  215MOL0     H28978   3.744   9.814   7.487  0.3449  2.9954 -0.3191
  215MOL0     H28979   3.561   9.642   7.407 -1.1262 -0.0826 -0.7885
  215MOL0     H28980   3.469   9.769   7.325  0.1767 -0.6833 -1.0792
  215MOL0     H28981   3.489   9.894   7.559  0.4277 -0.1350  0.9340
  215MOL0     H28982   3.510   9.731   7.630 -1.1894  1.9782  2.0158
  215MOL0     H28983   3.289   9.670   7.475  0.2420  0.2748 -0.5700
  215MOL0     H28984   3.300   9.845   7.444  1.5311  1.0815  0.2600
  215MOL0     H28985   3.053   9.684   7.476 -0.1666  0.3260 -0.3990
  215MOL0     H28986   2.711   9.756   7.436 -0.7266 -2.0584 -1.2446
  215MOL0     H28987   2.809   9.847   7.322 -2.8009 -1.5606 -0.6495
  215MOL0     H28988   2.856   9.679   7.382 -0.9455 -0.8679 -0.1262
  215MOL0     H28989   2.490   9.856   7.682  0.4376  0.1178  0.3096
  215MOL0     H28990   2.248   9.873   7.742 -1.3680  1.7827 -0.3060
  215MOL0     H28991   2.047   9.938   7.769 -4.6729 -0.4373 -0.2866
  215MOL0     H28992   2.103   9.882   7.928 -0.3145 -1.3691 -1.7452
  215MOL0     H28993   1.869  10.076   7.883 -0.3944  0.7357  0.4955
  215MOL0     H28994   1.845   9.904   7.922  0.1498 -0.0013  0.7612
  215MOL0     H28995   1.920  10.132   8.076  0.4800 -0.4048 -3.0831
  215MOL0     H28996   2.030  10.000   8.121  0.5508 -0.9557 -0.5554
  215MOL0     H28997   1.744   9.933   8.107  1.0292 -1.6260 -1.7464
  215MOL0     H28998   1.876   9.844   8.171 -1.5825 -0.8436  1.5726
  215MOL0     H28999   1.772  10.108   8.299  0.0809  0.8603  1.1441
  215MOL0     H29000   1.905  10.013   8.364 -0.6100  0.6781  1.5789
  215MOL0     H29001   1.617   9.900   8.353  1.3584 -3.7659 -0.9478
  215MOL0     H29002   1.769   9.813   8.388 -0.6964 -0.3816  0.7284
  215MOL0     H29003   1.676  10.063   8.542 -1.7679  0.1022 -2.4637
  215MOL0     H29004   1.804   9.943   8.586 -0.8457 -1.2727  1.0248
  215MOL0     H29005   1.506   9.871   8.577 -1.3090  2.0417  2.1416
  215MOL0     H29006   1.592   9.949   8.708  0.4326  0.5994 -0.9347
  215MOL0     H29007   2.313  10.254   7.908 -1.3418  1.0547 -2.6420
  215MOL0     H29008   2.566  10.224   7.871  1.0742 -0.3744 -1.5670
  215MOL0     H29009   2.906  10.024   7.805  3.7217 -0.0461  1.7248
  215MOL0     H29010   3.130   9.939   7.810  0.0136 -4.3675  2.5410
  215MOL0     H29011   4.829  10.700   7.239  1.9994  0.8496 -0.1110
  215MOL0     H29012   5.059  10.666   7.237  0.4943 -1.5578  1.7727
  215MOL0     H29013   5.486  10.284   6.977  0.8536  0.8600 -1.2426
  215MOL0     H29014   5.722  10.275   7.044 -0.9776  0.5614 -2.2352
  215MOL0     H29015   5.882  10.220   7.212  1.0643 -0.5024 -0.7748
  215MOL0     H29016   5.935  10.337   7.087  0.8960 -0.4761 -0.4502
  215MOL0     H29017   6.028  10.321   7.376  0.1050  0.6474  0.0989
  215MOL0     H29018   6.113  10.410   7.256  2.3224 -1.3359 -0.7057
  215MOL0     H29019   6.116  10.107   7.281 -1.0550  0.8870  0.4718
  215MOL0     H29020   6.250  10.196   7.266  0.1567  0.3175 -0.4197
  215MOL0     H29021   6.060  10.149   7.020  0.3221 -0.8373 -1.8212
  215MOL0     H29022   6.215  10.081   7.058 -0.5656 -0.2470 -0.7939
  215MOL0     H29023   6.316  10.452   6.897  0.8569  0.2095 -0.5306
  215MOL0     H29024   5.626  10.479   7.409  1.4403 -2.7477  0.2459
  215MOL0     H29025   5.406  10.492   7.344  0.3523 -1.1487 -0.6638
  216MOL0     O29026  10.851   5.371   3.534 -0.1052  1.0353  0.0734
  216MOL0     C29027  10.859   5.480   3.586 -0.7395 -0.1497  0.8820
  216MOL0     O29028  10.753   5.557   3.625  0.8166  0.2428  0.2320
  216MOL0     C29029  10.630   5.497   3.652  0.9995 -0.7019 -0.4175
  216MOL0     C29030  10.521   5.583   3.639 -1.0153 -0.3324  0.2475
  216MOL0     C29031  10.387   5.544   3.657 -0.4589  0.4531 -0.3488
  216MOL0     C29032  10.357   5.411   3.681  0.5847 -0.5077 -0.4854
  216MOL0     O29033  10.232   5.364   3.680  0.6017  0.3502  0.1553
  216MOL0     C29034  10.206   5.299   3.805 -0.0795 -0.1317 -0.2485
  216MOL0     C29035  10.052   5.286   3.812 -0.4572  0.9020 -0.3659
  216MOL0     C29036  10.022   5.252   3.963 -0.0457  0.1613 -0.0415
  216MOL0     C29037   9.870   5.269   4.002  0.2247 -0.7114  0.7671
  216MOL0     C29038   9.838   5.235   4.144  0.4021  0.5466 -0.3421
  216MOL0     C29039   9.727   5.299   4.212  0.2342 -0.5687 -0.1609
  216MOL0     C29040   9.597   5.258   4.142  0.6578  0.6311 -0.7316
  216MOL0     C29041   9.484   5.331   4.208  0.6326 -0.2576 -1.1999
  216MOL0     N29042   9.350   5.309   4.158 -0.2317 -0.7634  0.7622
  216MOL0     C29043   9.291   5.389   4.056  1.1541 -0.2870  0.4872
  216MOL0     C29044   9.180   5.316   4.028 -0.2808 -0.7140  0.3785
  216MOL0     C29045   9.074   5.377   3.931  0.0086 -0.0102  0.5919
  216MOL0     C29046   8.939   5.295   3.930  0.2454  0.0457  1.0671
  216MOL0     C29047   8.841   5.372   3.841 -0.2414 -0.7991  0.6200
  216MOL0     C29048   8.701   5.313   3.871  0.1682 -0.4747  0.4096
  216MOL0     O29049   8.703   5.172   3.861 -0.1781 -0.6432 -0.0161
  216MOL0     C29050   8.639   5.122   3.753  0.7941  0.3617  1.1047
  216MOL0     C29051   8.706   5.076   3.645 -0.4553 -0.0230  0.1915
  216MOL0     C29052   8.645   5.035   3.528  0.3087  0.2867 -0.0767
  216MOL0     C29053   8.739   4.981   3.422  0.3576 -0.6740  0.1943
  216MOL0     C29054   8.504   5.040   3.516 -0.1877 -0.2719 -0.0135
  216MOL0     C29055   8.437   4.991   3.396  0.3905 -0.0435 -0.2528
  216MOL0     O29056   8.301   4.993   3.413  0.0031  0.0137 -0.4407
  216MOL0     C29057   8.212   4.915   3.337 -0.1016 -0.0627  0.3829
  216MOL0     C29058   8.100   4.863   3.393 -0.3247  0.5320 -0.1595
  216MOL0     C29059   8.006   4.792   3.312 -0.2425  0.2237  0.5715
  216MOL0     C29060   8.021   4.790   3.173 -0.6034 -0.0485  0.6968
  216MOL0     O29061   7.932   4.714   3.089  0.0340  1.0571 -0.1189
  216MOL0     C29062   7.955   4.718   2.946  0.4734  0.1424 -0.6560
  216MOL0     C29063   7.860   4.628   2.861 -0.0371 -0.3602  0.4344
  216MOL0     C29064   7.706   4.671   2.858 -0.8603 -0.1353  0.1154
  216MOL0     C29065   7.630   4.546   2.799 -0.2442 -0.5239  0.2223
  216MOL0     C29066   7.481   4.562   2.835 -0.8434  0.1984  0.2730
  216MOL0     C29067   7.413   4.446   2.909 -0.9607 -0.3149  1.1525
  216MOL0     C29068   7.463   4.444   3.061 -0.1745  0.4064  0.4136
  216MOL0     C29069   7.377   4.516   3.164  0.0751 -0.2920  0.1430
  216MOL0    Cl29070   7.224   4.416   3.183 -0.0105 -0.1813  0.2053
  216MOL0     C29071   8.137   4.841   3.116  0.1329 -0.4285 -0.1246
  216MOL0     C29072   8.224   4.910   3.195 -0.0815  0.1515 -0.3051
  216MOL0     O29073   8.491   4.937   3.300  0.5848 -0.1227  0.0614
  216MOL0     C29074   8.431   5.093   3.625  0.1877  0.2989 -0.7834
  216MOL0     C29075   8.497   5.135   3.742  0.0675  0.6925  0.4833
  216MOL0     N29076   9.171   5.205   4.113  0.0516  0.3198  0.2027
  216MOL0     N29077   9.267   5.209   4.194  0.7052  0.7201 -0.5403
  216MOL0     C29078  10.461   5.321   3.688 -0.1840 -0.3564 -0.1123
  216MOL0     C29079  10.596   5.368   3.687 -0.3418  0.0082  0.3028
  216MOL0     C29080  10.991   5.541   3.584 -0.6643  0.4333 -0.2407
  216MOL0     C29081  11.109   5.454   3.585  0.2073 -0.8669  0.2189
  216MOL0     C29082  11.237   5.516   3.596  0.1862 -0.8137  0.7348
  216MOL0     C29083  11.255   5.657   3.614  1.0317  0.0060  0.4353
  216MOL0     O29084  11.373   5.728   3.630  0.2555  0.8991  0.5032
  216MOL0     C29085  11.495   5.654   3.606  0.2510 -0.2928  0.7604
  216MOL0     C29086  11.620   5.750   3.587  0.5446  0.0315  0.5073
  216MOL0     C29087  11.593   5.891   3.521  0.1623  0.3362  0.0895
  216MOL0     C29088  11.523   5.888   3.387  1.3439 -0.9385  0.4602
  216MOL0     C29089  11.560   5.785   3.297 -0.3916  0.6701  0.3937
  216MOL0     C29090  11.590   5.691   3.230 -0.3598  0.3907 -0.6208
  216MOL0     C29091  11.134   5.735   3.605  0.3407  0.0896 -0.5758
  216MOL0     C29092  11.008   5.677   3.590 -0.2302 -0.2982 -0.9966
  216MOL0     H29093  10.526   5.691   3.628  0.5073  0.1061  3.6985
  216MOL0     H29094  10.304   5.612   3.639 -0.6411  0.1320 -0.7567
  216MOL0     H29095  10.258   5.203   3.807  1.4140  0.6570  1.2802
  216MOL0     H29096  10.244   5.363   3.885  1.9196  1.3168 -2.2057
  216MOL0     H29097  10.007   5.382   3.788 -1.3666  0.4879 -0.3822
  216MOL0     H29098  10.029   5.205   3.742  0.8807  0.6580 -0.5566
  216MOL0     H29099  10.035   5.144   3.975 -0.3441  0.1237 -0.0324
  216MOL0     H29100  10.093   5.304   4.028  1.6948 -0.6928 -1.1912
  216MOL0     H29101   9.842   5.371   3.973  0.3499 -0.8766  0.0386
  216MOL0     H29102   9.815   5.201   3.936 -0.5171  2.3100 -1.9969
  216MOL0     H29103   9.820   5.127   4.150 -0.4553  0.5089 -2.5760
  216MOL0     H29104   9.924   5.263   4.206 -0.1476  0.2766  0.5577
  216MOL0     H29105   9.714   5.280   4.318  0.0910  0.1282 -0.0520
  216MOL0     H29106   9.743   5.407   4.203 -0.2121 -0.4687  0.2479
  216MOL0     H29107   9.598   5.302   4.042 -1.0498  0.8592 -0.6792
  216MOL0     H29108   9.583   5.149   4.135 -0.0418  0.6022  0.7508
  216MOL0     H29109   9.508   5.438   4.206 -1.1399  0.3393  2.0281
  216MOL0     H29110   9.485   5.309   4.316 -1.1978  1.0374 -0.8743
  216MOL0     H29111   9.324   5.483   4.013  1.2294  0.2965  1.7586
  216MOL0     H29112   9.064   5.484   3.950  1.5423  0.2730 -0.0624
  216MOL0     H29113   9.121   5.363   3.833  2.7483  0.6717  1.7399
  216MOL0     H29114   8.889   5.286   4.027 -2.2202 -3.1480 -0.3121
  216MOL0     H29115   8.957   5.192   3.900 -0.3096  0.0364  0.7548
  216MOL0     H29116   8.863   5.369   3.734  0.3750 -1.4997  0.7550
  216MOL0     H29117   8.843   5.474   3.881  0.6088 -0.9985  1.1173
  216MOL0     H29118   8.629   5.364   3.806  1.5704  1.4679  0.2748
  216MOL0     H29119   8.679   5.340   3.974  4.0542 -0.2757  1.3491
  216MOL0     H29120   8.814   5.079   3.660 -0.3441 -3.1522  0.6608
  216MOL0     H29121   8.719   4.874   3.407 -1.5351 -0.2960 -0.2205
  216MOL0     H29122   8.727   5.034   3.327 -0.7733  0.8095  1.1329
  216MOL0     H29123   8.844   4.992   3.451  0.6117  2.0634 -1.4009
  216MOL0     H29124   8.073   4.879   3.496 -1.5600  1.0939 -0.5534
  216MOL0     H29125   7.916   4.748   3.354 -2.0546  0.3846 -2.8370
  216MOL0     H29126   7.944   4.823   2.916  1.0336  0.5568  0.4994
  216MOL0     H29127   8.059   4.701   2.916 -0.5362 -2.8610 -2.9206
  216MOL0     H29128   7.905   4.628   2.761 -0.9467  1.0797 -0.0072
  216MOL0     H29129   7.891   4.526   2.885  1.9385  0.2631  0.6734
  216MOL0     H29130   7.699   4.768   2.807 -0.6327 -0.8147 -1.2546
  216MOL0     H29131   7.669   4.684   2.960  0.0021  0.4683  0.3646
  216MOL0     H29132   7.628   4.544   2.690 -1.4672 -1.8788  0.2437
  216MOL0     H29133   7.673   4.450   2.829  1.4962  0.3740  0.7632
  216MOL0     H29134   7.424   4.573   2.742 -0.1682  0.5477 -0.1028
  216MOL0     H29135   7.464   4.656   2.889  0.8654  0.2269  0.8185
  216MOL0     H29136   7.305   4.459   2.900 -0.9920 -0.7566  0.8689
  216MOL0     H29137   7.436   4.349   2.865 -2.8746  0.8358 -2.8648
  216MOL0     H29138   7.565   4.483   3.067  0.1588 -0.4676  0.6247
  216MOL0     H29139   7.471   4.339   3.090  2.7371  0.5869  0.5747
  216MOL0     H29140   7.357   4.617   3.126  1.7410  0.6609  1.6695
  216MOL0     H29141   7.426   4.547   3.257  0.9133  2.5565 -1.1075
  216MOL0     H29142   8.182   4.829   3.018  2.6181  0.0858  0.8687
  216MOL0     H29143   8.307   4.958   3.145  0.9458 -0.7384  0.4972
  216MOL0     H29144   8.323   5.099   3.614  0.2161 -1.0822 -2.2041
  216MOL0     H29145   8.437   5.165   3.828  2.3890  0.3791  2.2973
  216MOL0     H29146  10.445   5.214   3.682  1.2935 -0.5307 -3.6028
  216MOL0     H29147  10.682   5.303   3.695  0.4422  0.8497 -0.9647
  216MOL0     H29148  11.113   5.346   3.575  0.9739 -0.7476 -1.0238
  216MOL0     H29149  11.319   5.445   3.597 -0.9516 -2.3771 -2.2901
  216MOL0     H29150  11.515   5.588   3.692 -1.2750 -3.0293 -0.8250
  216MOL0     H29151  11.491   5.584   3.522  1.4290 -0.7243  1.0366
  216MOL0     H29152  11.700   5.709   3.525  0.4193  1.9035 -0.9944
  216MOL0     H29153  11.658   5.767   3.688  0.3673  2.0488  0.2865
  216MOL0     H29154  11.692   5.938   3.511  0.7986 -1.2034 -1.2617
  216MOL0     H29155  11.536   5.960   3.584 -0.0365  1.9833 -1.8111
  216MOL0     H29156  11.530   5.988   3.344  2.2650  0.3626  3.3513
  216MOL0     H29157  11.417   5.884   3.415  1.4188 -1.4764  0.6820
  216MOL0     H29158  11.626   5.604   3.179  0.4427 -1.5064  2.8193
  216MOL0     H29159  11.145   5.843   3.606  0.8174  0.0401  0.5557
  216MOL0     H29160  10.915   5.733   3.593 -0.7180 -1.1212 -0.1865
  217MOL0     O29161   1.472   1.621   7.136  0.5118  0.4597  0.5623
  217MOL0     C29162   1.462   1.715   7.206 -0.1114  0.0792 -0.0056
  217MOL0     O29163   1.342   1.784   7.240 -0.0424  0.5415  0.5154
  217MOL0     C29164   1.219   1.744   7.216  0.2095  0.2919  0.4073
  217MOL0     C29165   1.112   1.787   7.293 -0.0405 -0.2883  0.1966
  217MOL0     C29166   0.974   1.762   7.271 -0.1646  0.2685 -0.1537
  217MOL0     C29167   0.947   1.682   7.160 -0.0184 -0.1370  0.8239
  217MOL0     O29168   0.820   1.620   7.155  0.5692 -0.5107  0.0073
  217MOL0     C29169   0.752   1.583   7.034  0.0072 -0.4129  0.3944
  217MOL0     C29170   0.640   1.685   6.999 -0.6734 -0.3332 -0.0428
  217MOL0     C29171   0.583   1.678   6.851  0.2384  0.0550 -0.3596
  217MOL0     C29172   0.693   1.663   6.739  0.6224  0.0905  0.6614
  217MOL0     C29173   0.628   1.648   6.597  0.5123  0.4949 -0.2181
  217MOL0     C29174   0.720   1.645   6.467 -0.8801 -0.5522  0.2635
  217MOL0     C29175   0.829   1.535   6.463 -1.2354  0.4767 -0.0546
  217MOL0     C29176   0.927   1.554   6.348  0.3180 -0.0090  0.8918
  217MOL0     N29177   1.014   1.436   6.309  1.0488  0.4426 -0.3544
  217MOL0     C29178   1.084   1.351   6.392 -0.1605 -0.3162 -0.1700
  217MOL0     C29179   1.155   1.266   6.312  0.9414  1.1230 -0.5774
  217MOL0     C29180   1.258   1.162   6.364  0.1463  0.7458 -0.5241
  217MOL0     C29181   1.390   1.222   6.405  0.2825  1.0014 -0.3143
  217MOL0     C29182   1.484   1.106   6.425 -0.3139 -0.4102  0.0791
  217MOL0     C29183   1.593   1.142   6.533 -0.3862 -0.2541 -0.0878
  217MOL0     O29184   1.657   1.265   6.488 -0.8783  0.1843  0.4371
  217MOL0     C29185   1.781   1.299   6.537 -0.2995 -0.1171  0.0455
  217MOL0     C29186   1.871   1.379   6.461 -0.4395 -0.7715 -0.0295
  217MOL0     C29187   2.007   1.404   6.505  0.6333 -0.0488  0.2465
  217MOL0     C29188   2.083   1.500   6.416 -0.0079 -0.6800 -0.5943
  217MOL0     C29189   2.054   1.335   6.611 -0.2975  0.4630 -0.2160
  217MOL0     C29190   2.189   1.336   6.661 -0.3505  0.4591  0.2976
  217MOL0     O29191   2.220   1.334   6.790 -0.0345  0.0748 -0.1906
  217MOL0     C29192   2.351   1.350   6.824  0.2151  1.3453  0.7374
  217MOL0     C29193   2.440   1.448   6.787  1.0990  0.2589 -0.6191
  217MOL0     C29194   2.571   1.438   6.830  0.7508 -1.0310  0.6380
  217MOL0     C29195   2.618   1.334   6.905 -0.1914 -0.1596 -1.0527
  217MOL0     O29196   2.755   1.333   6.938 -0.7117 -0.3834  0.3552
  217MOL0     C29197   2.812   1.243   7.034  0.5883 -1.0440  0.3093
  217MOL0     C29198   2.956   1.286   7.053 -0.0953 -0.5452  0.3012
  217MOL0     C29199   3.057   1.189   6.984  0.1188  0.5102 -0.4521
  217MOL0     C29200   3.112   1.242   6.846  0.3543  0.1825 -0.1374
  217MOL0     C29201   3.208   1.140   6.788 -0.7988  0.9510  0.5031
  217MOL0     C29202   3.145   1.007   6.737 -0.0996 -0.1386 -0.1996
  217MOL0     C29203   3.249   0.937   6.653 -0.2157  0.2498  0.6252
  217MOL0     C29204   3.211   0.794   6.628  0.5481 -0.6781 -0.4105
  217MOL0    Cl29205   3.334   0.728   6.520  0.4738  0.0462  0.1684
  217MOL0     C29206   2.521   1.238   6.947 -0.6185 -0.4759  0.7196
  217MOL0     C29207   2.393   1.249   6.899  0.4661  0.3269  0.0985
  217MOL0     O29208   2.273   1.324   6.570 -0.3554  0.1778 -0.2873
  217MOL0     C29209   1.955   1.266   6.692  0.8788 -0.9889 -0.8869
  217MOL0     C29210   1.823   1.248   6.657 -0.8313 -0.1073  0.1179
  217MOL0     N29211   1.116   1.299   6.180 -0.7159 -0.2874  0.2649
  217MOL0     N29212   1.029   1.394   6.184 -0.0639  0.4091 -0.8462
  217MOL0     C29213   1.054   1.635   7.079  0.2202  0.0016  0.4312
  217MOL0     C29214   1.185   1.673   7.102 -0.3397 -0.6654 -0.8870
  217MOL0     C29215   1.582   1.765   7.275 -0.9885 -0.4567  0.6434
  217MOL0     C29216   1.560   1.820   7.402  0.9823 -0.3225 -0.3904
  217MOL0     C29217   1.661   1.893   7.473  0.3485  0.3503 -1.2042
  217MOL0     C29218   1.777   1.927   7.408 -0.7719 -0.5002  0.2400
  217MOL0     O29219   1.858   2.022   7.468 -0.1494 -0.0385 -0.4370
  217MOL0     C29220   1.992   2.024   7.426 -0.7120 -0.7349 -0.2091
  217MOL0     C29221   2.084   1.905   7.462  0.8974  0.0317 -0.2502
  217MOL0     C29222   2.230   1.928   7.426 -0.3930  0.6009  0.7221
  217MOL0     C29223   2.316   1.817   7.476 -0.4763  0.5907 -0.1075
  217MOL0     C29224   2.453   1.853   7.491  1.4754 -0.5907  0.2996
  217MOL0     C29225   2.567   1.904   7.490  0.2717  0.0062 -1.0345
  217MOL0     C29226   1.800   1.872   7.279  0.6891  0.2809  0.6344
  217MOL0     C29227   1.706   1.796   7.214 -0.3711 -0.4589  0.3740
  217MOL0     H29228   1.146   1.837   7.384  1.7490 -2.6869  0.9373
  217MOL0     H29229   0.896   1.799   7.336 -0.2980  0.7396 -0.5778
  217MOL0     H29230   0.827   1.582   6.954  1.4150  1.3665  1.6081
  217MOL0     H29231   0.701   1.487   7.052  0.2029 -0.7513 -0.7529
  217MOL0     H29232   0.550   1.678   7.061 -2.1755  0.4950 -1.9936
  217MOL0     H29233   0.683   1.786   7.006 -1.5493  0.0127  0.5761
  217MOL0     H29234   0.525   1.586   6.842 -0.1864  0.1234  1.4622
  217MOL0     H29235   0.511   1.758   6.830 -2.0339 -2.0979 -1.2288
  217MOL0     H29236   0.756   1.751   6.753  0.0846  0.4637  0.7770
  217MOL0     H29237   0.761   1.580   6.756  0.0607 -0.6703 -0.6350
  217MOL0     H29238   0.570   1.556   6.595  1.4681 -0.1289 -1.6504
  217MOL0     H29239   0.565   1.736   6.581  0.0515 -0.4410 -4.8939
  217MOL0     H29240   0.655   1.629   6.381 -3.0405  1.8452  1.3300
  217MOL0     H29241   0.767   1.743   6.459  0.8239 -1.3828 -0.4745
  217MOL0     H29242   0.889   1.538   6.554  0.0008  1.3094 -0.8635
  217MOL0     H29243   0.783   1.437   6.447  2.7310 -1.3299 -1.7633
  217MOL0     H29244   0.988   1.641   6.376  0.5265 -0.0320  0.5053
  217MOL0     H29245   0.878   1.589   6.256 -0.8113  1.4004  1.9659
  217MOL0     H29246   1.099   1.353   6.499  0.2681  0.6237 -0.2430
  217MOL0     H29247   1.215   1.118   6.455  1.6176 -1.2246 -0.7192
  217MOL0     H29248   1.275   1.084   6.290  0.2485 -0.3622  0.6311
  217MOL0     H29249   1.383   1.287   6.493  0.7895  0.7101 -0.0524
  217MOL0     H29250   1.420   1.297   6.332 -2.8982  1.3355 -1.4156
  217MOL0     H29251   1.526   1.078   6.329 -2.5415 -0.6731 -0.8762
  217MOL0     H29252   1.430   1.023   6.472 -0.4598 -0.6960 -0.5922
  217MOL0     H29253   1.661   1.056   6.539  0.2247  0.1649 -0.7555
  217MOL0     H29254   1.549   1.156   6.632  1.5485 -0.5618  0.8742
  217MOL0     H29255   1.830   1.416   6.368  1.0760  3.6762  0.8455
  217MOL0     H29256   2.174   1.536   6.465 -0.5097 -3.3357  2.7335
  217MOL0     H29257   2.113   1.454   6.322 -0.0498 -1.1506 -0.3799
  217MOL0     H29258   2.029   1.594   6.403  1.8781  0.2684 -2.0205
  217MOL0     H29259   2.400   1.531   6.729 -0.1041  0.2711  0.2030
  217MOL0     H29260   2.643   1.511   6.794 -1.7141 -0.4330 -3.7729
  217MOL0     H29261   2.753   1.239   7.127  0.8733 -1.6221  0.4684
  217MOL0     H29262   2.805   1.140   6.998  1.6208 -0.6983 -0.9415
  217MOL0     H29263   2.970   1.386   7.012  0.0824  0.2360  2.1622
  217MOL0     H29264   2.968   1.293   7.162 -2.3889 -0.0488  0.5731
  217MOL0     H29265   3.012   1.090   6.976  1.9147 -0.4398  0.6860
  217MOL0     H29266   3.145   1.172   7.047  0.5681  1.8893 -0.6542
  217MOL0     H29267   3.024   1.264   6.784 -0.2288 -2.1031 -0.2108
  217MOL0     H29268   3.173   1.333   6.849  1.0348 -0.1297 -2.2967
  217MOL0     H29269   3.284   1.126   6.865 -0.7446  1.2242  0.4982
  217MOL0     H29270   3.258   1.182   6.700  1.3504 -0.2859  1.0546
  217MOL0     H29271   3.120   0.947   6.825  3.0318 -0.5717  0.5287
  217MOL0     H29272   3.056   1.030   6.677  0.0513 -0.6785 -0.6314
  217MOL0     H29273   3.351   0.948   6.691  0.5684 -0.9455 -1.0109
  217MOL0     H29274   3.237   0.984   6.555  0.0640  2.0108  1.4123
  217MOL0     H29275   3.114   0.792   6.579  1.5655 -2.4081 -2.4907
  217MOL0     H29276   3.202   0.740   6.723 -1.7938 -0.0177 -0.1861
  217MOL0     H29277   2.542   1.140   6.989  0.1692 -1.8300 -2.5371
  217MOL0     H29278   2.331   1.160   6.911  1.4851 -0.5116 -0.5723
  217MOL0     H29279   1.987   1.214   6.782 -1.8873 -0.8033  0.2909
  217MOL0     H29280   1.762   1.183   6.719  1.7158  0.7817  3.9516
  217MOL0     H29281   1.044   1.546   7.018 -1.5732 -0.7874  1.8013
  217MOL0     H29282   1.266   1.647   7.035  1.8152  0.7286  1.0099
  217MOL0     H29283   1.462   1.811   7.447  2.2494  0.8631  2.9496
  217MOL0     H29284   1.635   1.926   7.573 -1.4760 -2.3601 -0.6941
  217MOL0     H29285   1.994   2.047   7.319  0.8699 -0.5335 -0.1589
  217MOL0     H29286   2.046   2.107   7.472  0.4245  0.2490 -3.0791
  217MOL0     H29287   2.047   1.821   7.402 -1.1146  1.9060 -1.8237
  217MOL0     H29288   2.069   1.878   7.567  2.4854  2.2692  0.6421
  217MOL0     H29289   2.262   2.018   7.479 -1.5203  0.7608  1.1644
  217MOL0     H29290   2.240   1.946   7.318 -0.0591  0.9981  0.8167
  217MOL0     H29291   2.312   1.731   7.408  0.1326 -0.4624  1.1325
  217MOL0     H29292   2.281   1.790   7.576 -1.1897 -3.0329 -1.1662
  217MOL0     H29293   2.667   1.940   7.486  0.4190 -0.4723 -1.9289
  217MOL0     H29294   1.895   1.889   7.230  0.0562  0.7999 -0.4545
  217MOL0     H29295   1.716   1.748   7.117 -1.5194 -1.3707  0.6841
  218MOL0     O29296   3.859   6.792  11.227 -0.2028  0.1404  1.1091
  218MOL0     C29297   3.882   6.912  11.202 -0.0350 -0.0929 -0.2543
  218MOL0     O29298   3.802   7.014  11.240  0.8343  0.4740 -1.0156
  218MOL0     C29299   3.689   6.979  11.319  0.1049  0.3084  0.1634
  218MOL0     C29300   3.691   6.921  11.447 -0.6153 -0.6556 -0.5972
  218MOL0     C29301   3.581   6.913  11.534  0.9019  0.4005  0.3862
  218MOL0     C29302   3.461   6.962  11.484 -0.7499 -0.5321 -0.1116
  218MOL0     O29303   3.345   6.962  11.555 -0.2251  0.1531 -0.4618
  218MOL0     C29304   3.321   6.834  11.628  0.1612  0.6273 -0.5791
  218MOL0     C29305   3.192   6.850  11.718  1.1606  0.2932  0.3580
  218MOL0     C29306   3.072   6.873  11.623 -0.2948 -0.3917 -0.4704
  218MOL0     C29307   2.953   6.813  11.670  0.4902  0.0363 -0.3929
  218MOL0     C29308   2.837   6.801  11.567 -0.8972 -0.3477  0.2768
  218MOL0     C29309   2.713   6.730  11.637  0.2675  0.4312 -0.5634
  218MOL0     C29310   2.587   6.751  11.544 -0.2820 -0.0841 -0.0706
  218MOL0     C29311   2.498   6.629  11.548  0.2890  0.1541 -0.9112
  218MOL0     N29312   2.389   6.619  11.445 -0.8546  0.3504 -0.7346
  218MOL0     C29313   2.288   6.706  11.418 -0.0172 -0.4508  0.8950
  218MOL0     C29314   2.220   6.670  11.304 -0.1719  0.1631  0.0836
  218MOL0     C29315   2.111   6.748  11.233  0.1084 -0.9637 -0.0065
  218MOL0     C29316   2.162   6.819  11.106 -0.7220 -0.0756 -0.6855
  218MOL0     C29317   2.046   6.871  11.022  0.2465  0.2386  0.6490
  218MOL0     C29318   2.096   6.962  10.917 -0.2667  0.7271  0.4602
  218MOL0     O29319   2.123   7.087  10.969  0.6457 -0.0910  0.8561
  218MOL0     C29320   2.020   7.187  10.980 -0.5321 -0.8058  0.3464
  218MOL0     C29321   1.879   7.157  10.981 -1.0579  0.3093  0.0020
  218MOL0     C29322   1.789   7.262  11.009  0.1852  0.5789 -0.0240
  218MOL0     C29323   1.641   7.234  11.020 -0.8754 -0.0409  0.1642
  218MOL0     C29324   1.842   7.388  11.046 -0.3063  0.5164  0.4476
  218MOL0     C29325   1.745   7.507  11.085  0.2116 -0.6135  0.3363
  218MOL0     O29326   1.787   7.592  11.188  0.1931 -0.1622 -0.2599
  218MOL0     C29327   1.706   7.690  11.229 -0.1514  0.1389 -0.2375
  218MOL0     C29328   1.767   7.812  11.257 -0.2231  0.2505  0.5076
  218MOL0     C29329   1.698   7.922  11.311  0.6111  0.0047  0.7874
  218MOL0     C29330   1.571   7.903  11.358  0.6137  0.1665 -0.2307
  218MOL0     O29331   1.508   8.013  11.421  0.4124 -0.1397 -0.6796
  218MOL0     C29332   1.363   8.011  11.455 -0.5945 -0.1323  0.1249
  218MOL0     C29333   1.262   8.015  11.337 -0.1003  0.7317  0.2293
  218MOL0     C29334   1.118   8.042  11.388 -0.4629 -0.7206 -0.0521
  218MOL0     C29335   1.014   8.043  11.278 -0.0234 -0.3546 -0.6256
  218MOL0     C29336   0.873   8.052  11.337  0.2269 -0.2685  0.8288
  218MOL0     C29337   0.766   8.066  11.222 -0.1618  0.3868 -0.4659
  218MOL0     C29338   0.632   8.104  11.274  0.1410  0.1267 -0.3477
  218MOL0     C29339   0.529   8.107  11.163  0.0386  0.3929 -0.6804
  218MOL0    Cl29340   0.383   8.188  11.226 -0.1736  0.1861 -0.1766
  218MOL0     C29341   1.507   7.782  11.328  0.2523  0.2685  0.8477
  218MOL0     C29342   1.571   7.675  11.270 -1.0374 -0.3583 -0.9267
  218MOL0     O29343   1.653   7.527  11.015  0.5475  0.0802 -0.2473
  218MOL0     C29344   1.973   7.409  11.056 -0.2357 -0.6282  0.3575
  218MOL0     C29345   2.067   7.307  11.022  0.8675  0.4951 -0.1930
  218MOL0     N29346   2.286   6.564  11.254  0.5739  0.5698  0.7617
  218MOL0     N29347   2.384   6.533  11.333 -0.3336 -0.4219  0.1567
  218MOL0     C29348   3.454   7.007  11.352  0.2419  0.8955  0.7281
  218MOL0     C29349   3.565   7.017  11.265  0.0741  0.9085  0.1915
  218MOL0     C29350   4.005   6.945  11.133  0.3995 -0.6598 -0.9175
  218MOL0     C29351   4.061   7.079  11.134  0.3614 -0.5849  0.4033
  218MOL0     C29352   4.176   7.106  11.061  0.0312 -0.0632 -0.5349
  218MOL0     C29353   4.254   7.013  11.000 -0.6007 -0.0860  0.2808
  218MOL0     O29354   4.365   7.061  10.931  0.1738 -0.4197 -0.2591
  218MOL0     C29355   4.432   6.960  10.859 -0.6308 -0.6047 -0.9024
  218MOL0     C29356   4.538   7.023  10.776  0.1438 -0.2723  0.0332
  218MOL0     C29357   4.650   7.095  10.851 -0.5392 -0.2204  0.7173
  218MOL0     C29358   4.737   7.183  10.758 -0.8231 -0.1204  0.0733
  218MOL0     C29359   4.798   7.094  10.655  0.3735  0.5680  0.4791
  218MOL0     C29360   4.846   7.022  10.571  0.6158  0.1830  0.0534
  218MOL0     C29361   4.201   6.881  11.003 -0.3094  0.2235  0.1110
  218MOL0     C29362   4.083   6.847  11.071  0.8866  0.8766 -0.6315
  218MOL0     H29363   3.786   6.885  11.485 -1.6899 -1.2543  1.7560
  218MOL0     H29364   3.600   6.901  11.640  0.3893  1.8989  0.6723
  218MOL0     H29365   3.310   6.758  11.551  0.5140 -2.1991  1.9815
  218MOL0     H29366   3.400   6.794  11.692  0.1661  0.3208 -0.7762
  218MOL0     H29367   3.176   6.759  11.777 -1.9345  0.3387 -0.2397
  218MOL0     H29368   3.210   6.932  11.787  0.4720  0.0645  0.8194
  218MOL0     H29369   3.056   6.982  11.624 -1.7773 -0.5036 -3.3073
  218MOL0     H29370   3.090   6.853  11.518 -2.4178 -1.5246 -0.6667
  218MOL0     H29371   2.964   6.706  11.690 -1.9168 -0.3798 -0.9176
  218MOL0     H29372   2.912   6.857  11.762 -2.9528 -1.4147 -1.0605
  218MOL0     H29373   2.809   6.904  11.543 -3.1622 -0.8098  0.7011
  218MOL0     H29374   2.873   6.749  11.477  1.2346  0.0872  0.8395
  218MOL0     H29375   2.728   6.622  11.649 -2.9246 -0.0035  0.3081
  218MOL0     H29376   2.698   6.770  11.737  1.5326 -1.3545  0.3857
  218MOL0     H29377   2.534   6.840  11.579  2.9612  1.6654  0.7590
  218MOL0     H29378   2.608   6.770  11.438  0.1249  2.7832  0.4245
  218MOL0     H29379   2.462   6.630  11.651  2.7160  0.0208  0.0223
  218MOL0     H29380   2.560   6.539  11.536 -0.8102 -0.8156  0.3786
  218MOL0     H29381   2.252   6.789  11.479 -0.8077 -0.5796  0.6171
  218MOL0     H29382   2.034   6.680  11.197 -0.7197 -0.1511  0.2037
  218MOL0     H29383   2.080   6.830  11.298  0.9746  0.2033 -1.0168
  218MOL0     H29384   2.225   6.750  11.049  1.1344  1.8022 -1.0230
  218MOL0     H29385   2.220   6.906  11.136 -0.4674 -0.1006 -1.1090
  218MOL0     H29386   1.969   6.914  11.087  1.2098 -0.7247  2.5341
  218MOL0     H29387   2.001   6.785  10.972  2.6498  0.1208 -1.5062
  218MOL0     H29388   2.027   6.984  10.835  0.6465  2.8877  0.2185
  218MOL0     H29389   2.181   6.924  10.858  0.3425 -1.0988  2.3734
  218MOL0     H29390   1.845   7.060  10.945  0.6258 -0.1406 -0.4755
  218MOL0     H29391   1.588   7.258  10.927 -2.2742  1.1537  1.2200
  218MOL0     H29392   1.635   7.127  11.043  1.0263 -0.3529 -0.5760
  218MOL0     H29393   1.598   7.288  11.105 -0.0247  1.0453 -0.0735
  218MOL0     H29394   1.875   7.813  11.247  0.1706  2.7462  3.6592
  218MOL0     H29395   1.728   8.022  11.341 -0.9992  0.2873  1.5711
  218MOL0     H29396   1.345   7.929  11.524  0.9792 -1.8390 -1.3775
  218MOL0     H29397   1.334   8.096  11.518 -2.7260 -1.5850  1.2292
  218MOL0     H29398   1.293   8.100  11.276  2.4063  0.0936  0.5074
  218MOL0     H29399   1.273   7.920  11.283 -0.8841 -0.2835  1.7914
  218MOL0     H29400   1.118   8.140  11.437 -0.5040 -0.3418 -0.7983
  218MOL0     H29401   1.086   7.972  11.466 -0.7333 -0.6351 -0.0839
  218MOL0     H29402   1.035   8.133  11.218  0.2225  0.5665  0.8034
  218MOL0     H29403   1.020   7.953  11.216  2.4335 -0.6582 -0.0313
  218MOL0     H29404   0.865   8.144  11.395 -0.4626  0.0252  0.2819
  218MOL0     H29405   0.856   7.962  11.398 -0.7256 -0.6936 -0.0367
  218MOL0     H29406   0.797   8.146  11.155 -1.1967  0.2881 -1.0854
  218MOL0     H29407   0.768   7.970  11.168  1.2807 -2.0776  3.5385
  218MOL0     H29408   0.637   8.195  11.334 -1.5280 -0.3285  0.5584
  218MOL0     H29409   0.587   8.030  11.341 -0.2774 -0.3545 -1.1319
  218MOL0     H29410   0.505   8.009  11.119 -1.1012  0.0692  0.6159
  218MOL0     H29411   0.579   8.163  11.083  2.3187 -2.5051 -1.5051
  218MOL0     H29412   1.402   7.770  11.351 -0.1935 -0.5046 -1.3743
  218MOL0     H29413   1.529   7.576  11.257  1.9799 -2.3581  2.6052
  218MOL0     H29414   2.015   7.501  11.096 -2.5032  0.6947 -0.1296
  218MOL0     H29415   2.174   7.317  11.035  0.7013 -0.5773  3.0591
  218MOL0     H29416   3.359   7.056  11.331  0.6702  2.4081  2.1404
  218MOL0     H29417   3.550   7.071  11.172  2.3236  1.1949 -0.0552
  218MOL0     H29418   3.998   7.156  11.178 -2.4798 -0.8927 -2.7274
  218MOL0     H29419   4.218   7.205  11.078  1.3899 -0.3799 -1.8551
  218MOL0     H29420   4.481   6.890  10.926 -1.9816 -0.6038  0.1364
  218MOL0     H29421   4.376   6.904  10.783  2.6010 -1.3356 -2.9526
  218MOL0     H29422   4.489   7.083  10.699  0.8376  0.3599  0.0664
  218MOL0     H29423   4.593   6.940  10.731 -0.1641 -0.1908 -0.4894
  218MOL0     H29424   4.713   7.024  10.907  0.4282  2.0237  2.6619
  218MOL0     H29425   4.608   7.166  10.923 -0.2910 -1.8572  2.5546
  218MOL0     H29426   4.825   7.219  10.812  0.3396 -0.9930 -1.1685
  218MOL0     H29427   4.698   7.273  10.709  0.2403  1.0123  1.2496
  218MOL0     H29428   4.880   6.960  10.490 -2.1999 -0.5591 -0.6712
  218MOL0     H29429   4.268   6.820  10.944  0.7885 -0.4096  1.9344
  218MOL0     H29430   4.037   6.750  11.056  1.0192  0.7330 -0.1434
  219MOL0     O29431   7.087  10.353   9.563  0.2227  0.0886  0.2320
  219MOL0     C29432   7.140  10.455   9.603 -0.0711  0.0162  0.3863
  219MOL0     O29433   7.091  10.528   9.705  0.4901  0.3000 -0.2235
  219MOL0     C29434   6.955  10.539   9.737  0.1285 -0.6896 -0.4551
  219MOL0     C29435   6.841  10.481   9.679 -0.7330  0.8931  0.2506
  219MOL0     C29436   6.707  10.512   9.709  0.1951 -0.1489 -0.9154
  219MOL0     C29437   6.682  10.607   9.813 -0.5408  0.5386  0.9031
  219MOL0     O29438   6.565  10.657   9.861 -0.3575 -0.2895  0.7572
  219MOL0     C29439   6.448  10.628   9.778 -0.7261  0.3636 -0.1216
  219MOL0     C29440   6.322  10.692   9.825  0.1173 -0.8030 -0.0413
  219MOL0     C29441   6.189  10.647   9.758 -0.1964 -0.0045  0.3910
  219MOL0     C29442   6.072  10.748   9.802 -0.2419  0.2286  0.0782
  219MOL0     C29443   5.930  10.701   9.763  0.6195  0.0450 -0.0885
  219MOL0     C29444   5.843  10.824   9.795 -0.4673 -1.1526  0.3724
  219MOL0     C29445   5.799  10.836   9.935  2.0032 -0.2552 -0.6114
  219MOL0     C29446   5.742  10.980   9.965  0.3229  0.6659  0.7654
  219MOL0     N29447   5.618  10.995   9.895 -0.2491  0.1716  0.4441
  219MOL0     C29448   5.497  10.957   9.947 -0.4060  0.0129 -0.7173
  219MOL0     C29449   5.416  10.969   9.843 -0.8879  0.3859 -0.4897
  219MOL0     C29450   5.280  10.899   9.833  0.3170 -0.5878  0.0772
  219MOL0     C29451   5.282  10.770   9.745  0.5070 -0.2368  0.0361
  219MOL0     C29452   5.145  10.734   9.694 -0.0261 -0.3788 -0.4672
  219MOL0     C29453   5.148  10.628   9.591  0.1764 -0.5514  1.0832
  219MOL0     O29454   5.015  10.582   9.557 -0.8025 -0.2001  0.4607
  219MOL0     C29455   4.930  10.665   9.489 -0.4003  0.5665  0.6052
  219MOL0     C29456   4.962  10.760   9.388 -0.0223 -0.0869  0.0681
  219MOL0     C29457   4.865  10.850   9.331 -0.2987  0.8624 -0.1965
  219MOL0     C29458   4.902  10.947   9.223  0.0275 -0.1726  0.8492
  219MOL0     C29459   4.731  10.822   9.364 -0.4592 -0.4562  0.6287
  219MOL0     C29460   4.609  10.880   9.298 -0.4168  0.2475 -0.7779
  219MOL0     O29461   4.495  10.882   9.362 -0.0833  0.1772  0.2932
  219MOL0     C29462   4.386  10.946   9.302  0.7224 -0.4969 -0.3577
  219MOL0     C29463   4.337  10.923   9.173  0.0217  0.0670  0.9759
  219MOL0     C29464   4.224  10.993   9.129  0.4910  0.4144  0.1124
  219MOL0     C29465   4.152  11.090   9.214  0.2421  0.1568  0.4296
  219MOL0     O29466   4.052  11.172   9.167 -0.2342  0.6405 -0.0731
  219MOL0     C29467   3.951  11.115   9.089 -0.2977  0.5724  0.2443
  219MOL0     C29468   3.888  11.004   9.165 -0.1142 -0.4145 -0.1312
  219MOL0     C29469   3.764  10.950   9.093 -0.7069 -0.2724  0.4508
  219MOL0     C29470   3.642  11.034   9.106  0.0694 -0.1103 -0.2348
  219MOL0     C29471   3.530  11.000   9.011  0.4783 -0.1720  0.1564
  219MOL0     C29472   3.406  11.094   9.033 -0.2061 -0.4004 -0.6450
  219MOL0     C29473   3.292  11.063   8.924 -0.3299 -0.6320  0.2749
  219MOL0     C29474   3.167  11.147   8.945 -1.1247  0.2800  0.2572
  219MOL0    Cl29475   3.060  11.123   8.805  0.4470 -0.4945 -0.0562
  219MOL0     C29476   4.211  11.121   9.339  0.4853  0.3496 -0.3285
  219MOL0     C29477   4.322  11.046   9.383 -0.1598 -0.7514 -0.7430
  219MOL0     O29478   4.626  10.909   9.181  0.2130 -0.3689 -0.3547
  219MOL0     C29479   4.705  10.713   9.453  0.3628 -0.4278 -0.1285
  219MOL0     C29480   4.801  10.639   9.521  0.1242  1.1541  0.2707
  219MOL0     N29481   5.477  11.032   9.737  0.1100  0.0301 -0.2180
  219MOL0     N29482   5.597  11.057   9.771 -0.3890  0.1625 -0.1385
  219MOL0     C29483   6.793  10.671   9.872  0.1197 -0.0171  0.5864
  219MOL0     C29484   6.926  10.641   9.833 -0.4426 -0.5390 -0.6372
  219MOL0     C29485   7.261  10.517   9.531 -0.3127  0.7628  0.5393
  219MOL0     C29486   7.289  10.472   9.401 -0.3314  1.1431  0.0388
  219MOL0     C29487   7.398  10.522   9.335  0.1891  0.2292 -0.0473
  219MOL0     C29488   7.472  10.625   9.389 -0.0412  0.0716 -0.1499
  219MOL0     O29489   7.575  10.686   9.319 -0.7815 -0.7733 -0.6298
  219MOL0     C29490   7.649  10.598   9.228  0.7893  0.2965 -0.5835
  219MOL0     C29491   7.799  10.614   9.231 -1.0443 -0.5780  0.0873
  219MOL0     C29492   7.859  10.599   9.089  0.0822  0.0634  0.4146
  219MOL0     C29493   8.015  10.581   9.097 -0.4952 -0.1900  0.5114
  219MOL0     C29494   8.048  10.444   9.122 -0.4770 -0.6319 -0.1492
  219MOL0     C29495   8.090  10.340   9.172 -0.0028  1.0478 -0.1969
  219MOL0     C29496   7.456  10.659   9.520  1.0138 -0.3874  0.4195
  219MOL0     C29497   7.344  10.615   9.588 -0.8201  0.4096 -1.7904
  219MOL0     H29498   6.856  10.406   9.602  2.3994 -0.1994  1.7925
  219MOL0     H29499   6.620  10.483   9.652 -1.2076  0.5710  0.7717
  219MOL0     H29500   6.473  10.661   9.677  2.1115 -1.7120 -0.2257
  219MOL0     H29501   6.427  10.520   9.773  0.3328  0.1570 -0.3215
  219MOL0     H29502   6.323  10.658   9.929  2.0397 -0.2169  0.1846
  219MOL0     H29503   6.343  10.799   9.821  1.1430 -0.9693  0.3777
  219MOL0     H29504   6.186  10.655   9.649 -0.8186  2.0290  0.5169
  219MOL0     H29505   6.168  10.543   9.784 -4.4063  1.3132  3.5613
  219MOL0     H29506   6.096  10.744   9.909 -0.1788 -4.1741  0.0872
  219MOL0     H29507   6.098  10.842   9.753 -1.7687  1.6012  1.7629
  219MOL0     H29508   5.928  10.681   9.656  1.9381  0.5517 -0.2318
  219MOL0     H29509   5.897  10.608   9.812 -0.0447  0.2197 -0.2023
  219MOL0     H29510   5.893  10.915   9.760 -1.7066 -1.2095 -1.7636
  219MOL0     H29511   5.753  10.809   9.734 -0.4545  1.0833 -0.2925
  219MOL0     H29512   5.724  10.760   9.959  3.1265 -0.5227  2.5914
  219MOL0     H29513   5.875  10.807  10.009  1.2626 -0.0200  0.2546
  219MOL0     H29514   5.813  11.057   9.935  1.0518  0.5337  2.0780
  219MOL0     H29515   5.723  10.986  10.073 -0.3531  0.2925  0.6749
  219MOL0     H29516   5.496  10.896  10.037 -0.0793 -2.6632 -2.3985
  219MOL0     H29517   5.232  10.884   9.930  0.5019  0.1736  0.2878
  219MOL0     H29518   5.216  10.967   9.776  3.1272  0.9234 -1.4431
  219MOL0     H29519   5.336  10.690   9.797  2.3804  1.4159  0.7793
  219MOL0     H29520   5.336  10.798   9.654 -0.8261  1.6042 -0.2623
  219MOL0     H29521   5.098  10.820   9.644 -0.0852  0.0225  0.2688
  219MOL0     H29522   5.072  10.706   9.770 -0.7705  0.1091 -0.9751
  219MOL0     H29523   5.200  10.542   9.636 -1.6153 -0.5882  3.2441
  219MOL0     H29524   5.204  10.661   9.503 -2.2793 -1.9467 -1.1412
  219MOL0     H29525   5.068  10.777   9.372  0.2928  0.7721  2.6250
  219MOL0     H29526   4.839  11.036   9.229  0.5036  0.4656 -2.0151
  219MOL0     H29527   5.007  10.979   9.227  0.0666 -0.2695  0.6102
  219MOL0     H29528   4.886  10.903   9.124  0.6802  0.2164  0.5635
  219MOL0     H29529   4.387  10.850   9.110 -0.9749 -0.2846  0.5666
  219MOL0     H29530   4.190  10.996   9.025 -1.0727  0.4676  0.5946
  219MOL0     H29531   3.884  11.200   9.078 -0.1151  0.5878 -0.8687
  219MOL0     H29532   3.990  11.082   8.993 -1.4099 -0.7394  0.2200
  219MOL0     H29533   3.965  10.928   9.182  2.0800  0.5244 -4.4058
  219MOL0     H29534   3.863  11.052   9.260  1.4051 -2.2604  1.2678
  219MOL0     H29535   3.747  10.854   9.142  0.6643 -1.1532 -0.7400
  219MOL0     H29536   3.789  10.943   8.987  1.1231 -1.0608  0.9071
  219MOL0     H29537   3.623  11.019   9.212  3.7007 -2.8836  0.2554
  219MOL0     H29538   3.670  11.139   9.100 -3.1563  0.7630 -2.2450
  219MOL0     H29539   3.505  10.894   9.019  0.6338 -0.3992 -1.8250
  219MOL0     H29540   3.563  11.022   8.909  0.5777  0.8277  0.3879
  219MOL0     H29541   3.360  11.087   9.131  0.2421  3.7651  0.0155
  219MOL0     H29542   3.428  11.199   9.014 -0.0650 -0.4744 -0.9026
  219MOL0     H29543   3.273  10.956   8.912  0.7931 -0.6226 -2.1592
  219MOL0     H29544   3.329  11.096   8.827 -0.9410 -0.8455 -0.0360
  219MOL0     H29545   3.184  11.255   8.943 -1.4049  0.3211  0.0735
  219MOL0     H29546   3.111  11.112   9.033 -2.3949  0.6805 -0.3744
  219MOL0     H29547   4.181  11.202   9.405  4.0109  0.0091  1.9711
  219MOL0     H29548   4.363  11.068   9.482 -3.2683 -0.8486  0.6802
  219MOL0     H29549   4.609  10.667   9.474  0.3504 -1.3993 -2.0389
  219MOL0     H29550   4.777  10.559   9.589  0.1140  1.6111  0.8084
  219MOL0     H29551   6.773  10.752   9.941 -0.7387  1.4178 -1.2760
  219MOL0     H29552   7.011  10.696   9.871 -1.2646  1.2359 -1.2420
  219MOL0     H29553   7.221  10.397   9.362  0.1563  0.2256  0.9081
  219MOL0     H29554   7.399  10.495   9.230  0.6213  2.1761 -0.5812
  219MOL0     H29555   7.624  10.496   9.258 -3.3584  1.8974  2.5273
  219MOL0     H29556   7.611  10.615   9.127 -2.2551  2.8042  0.8234
  219MOL0     H29557   7.835  10.542   9.305 -3.1303  1.1107  2.9885
  219MOL0     H29558   7.820  10.716   9.265 -1.0585 -1.1219  1.8716
  219MOL0     H29559   7.832  10.684   9.026  0.4453 -1.0958 -1.3501
  219MOL0     H29560   7.811  10.516   9.038 -1.5579  2.5544 -2.4060
  219MOL0     H29561   8.053  10.643   9.179  2.0390  1.4533 -1.7357
  219MOL0     H29562   8.074  10.611   9.010  0.0706  0.2582  1.0444
  219MOL0     H29563   8.138  10.255   9.217 -1.3180 -0.8461 -2.1702
  219MOL0     H29564   7.525  10.724   9.573  0.5659 -3.2924  5.0399
  219MOL0     H29565   7.332  10.643   9.692  1.0366 -1.0380 -1.1353
  220MOL0     O29566   5.655   3.601   8.177  0.1479 -0.1530  0.2813
  220MOL0     C29567   5.734   3.682   8.219  0.0745 -0.1498 -0.2257
  220MOL0     O29568   5.690   3.810   8.253 -0.7566  0.3018  0.4626
  220MOL0     C29569   5.562   3.845   8.230  0.4105 -0.3175  0.1152
  220MOL0     C29570   5.449   3.819   8.311 -0.1392 -0.0783 -0.9208
  220MOL0     C29571   5.322   3.860   8.274  0.2582  0.1250  0.3237
  220MOL0     C29572   5.294   3.928   8.155  0.2810 -0.1067 -0.7227
  220MOL0     O29573   5.160   3.958   8.130  0.0316 -0.3198 -0.1399
  220MOL0     C29574   5.104   3.936   8.001  0.6019 -0.4298  0.2925
  220MOL0     C29575   4.955   3.976   8.002 -1.1539 -0.0486  0.2723
  220MOL0     C29576   4.922   4.133   7.996 -0.5336 -0.3853 -0.9046
  220MOL0     C29577   5.002   4.229   8.083 -0.4313  0.7005  0.2668
  220MOL0     C29578   4.976   4.376   8.043  0.1921  0.9077 -0.5544
  220MOL0     C29579   4.826   4.407   8.059 -0.3506 -0.1914  0.1780
  220MOL0     C29580   4.792   4.552   8.058 -0.0523  0.0340  0.0391
  220MOL0     C29581   4.639   4.587   8.081 -0.1832 -0.2034  0.3246
  220MOL0     N29582   4.606   4.595   8.222  0.4861 -0.4716 -0.2802
  220MOL0     C29583   4.524   4.507   8.286  0.7352  0.3554  0.6541
  220MOL0     C29584   4.526   4.543   8.411 -0.2027 -0.3641 -0.6064
  220MOL0     C29585   4.438   4.490   8.514 -0.4388  0.1358 -0.3475
  220MOL0     C29586   4.516   4.414   8.627  0.0679 -0.5189  0.9314
  220MOL0     C29587   4.423   4.302   8.692 -0.4820  0.0772 -1.2474
  220MOL0     C29588   4.296   4.365   8.750 -0.1639  0.3023  0.7000
  220MOL0     O29589   4.194   4.380   8.651 -0.3032 -0.2502 -0.3097
  220MOL0     C29590   4.054   4.373   8.680 -0.5251  0.6548 -0.4368
  220MOL0     C29591   3.972   4.313   8.585  0.5908 -0.3397  0.1913
  220MOL0     C29592   3.833   4.300   8.605 -0.8541 -0.2586  0.4781
  220MOL0     C29593   3.753   4.254   8.486  0.0248 -0.4660 -0.7073
  220MOL0     C29594   3.777   4.337   8.730  0.8352 -0.1729 -0.0379
  220MOL0     C29595   3.628   4.315   8.764 -0.2481  0.3360  0.4069
  220MOL0     O29596   3.568   4.225   8.690  0.3477  0.7189  0.2007
  220MOL0     C29597   3.438   4.198   8.717 -0.6974  0.3369 -0.3171
  220MOL0     C29598   3.389   4.132   8.828 -0.1697 -0.4578 -0.6773
  220MOL0     C29599   3.258   4.097   8.846 -0.1494 -0.8873 -0.0349
  220MOL0     C29600   3.171   4.125   8.740 -0.9046  0.1331 -0.6129
  220MOL0     O29601   3.041   4.078   8.721  1.0775 -0.2536 -0.5742
  220MOL0     C29602   3.001   3.964   8.805  0.3472  0.0700  0.6810
  220MOL0     C29603   2.858   3.927   8.756 -0.5984  0.4719  0.2851
  220MOL0     C29604   2.760   4.031   8.809  0.0644 -0.0058 -0.7128
  220MOL0     C29605   2.637   4.054   8.725 -0.5283  0.0524  0.1660
  220MOL0     C29606   2.540   4.150   8.795  0.4111  0.4119  0.4754
  220MOL0     C29607   2.398   4.148   8.734  0.2882 -0.4360 -0.5079
  220MOL0     C29608   2.314   4.280   8.766  0.7018  0.0137  0.5426
  220MOL0     C29609   2.173   4.276   8.706  0.2682  0.4369  0.1965
  220MOL0    Cl29610   2.076   4.135   8.764 -0.4054  0.0449  0.1388
  220MOL0     C29611   3.218   4.205   8.630  0.3386  0.1212  0.1135
  220MOL0     C29612   3.355   4.233   8.617  0.3381 -0.7095  0.4028
  220MOL0     O29613   3.578   4.381   8.851  0.0020 -0.3563  0.0167
  220MOL0     C29614   3.860   4.399   8.824 -0.3365 -0.3105  0.6325
  220MOL0     C29615   3.997   4.415   8.798  0.0316  0.4278 -1.2247
  220MOL0     N29616   4.604   4.660   8.431  0.5057  0.5855  0.7858
  220MOL0     N29617   4.660   4.683   8.315  0.2290  0.4146  0.1356
  220MOL0     C29618   5.402   3.947   8.067  1.1586 -0.7600  0.0595
  220MOL0     C29619   5.536   3.910   8.109 -0.8376  0.4921 -0.0690
  220MOL0     C29620   5.877   3.639   8.231  0.1540  0.2872  0.1142
  220MOL0     C29621   5.964   3.730   8.289 -0.1952 -0.5478  0.1484
  220MOL0     C29622   6.100   3.681   8.304 -0.8404  0.4979  0.5091
  220MOL0     C29623   6.147   3.563   8.246 -0.2231  0.0648 -0.0192
  220MOL0     O29624   6.278   3.528   8.262  0.4864 -0.0304 -0.2945
  220MOL0     C29625   6.348   3.427   8.190  0.4208 -0.3624 -0.3308
  220MOL0     C29626   6.315   3.284   8.246 -0.2939  0.6382  0.0906
  220MOL0     C29627   6.323   3.271   8.399 -0.0131  0.0145 -0.1100
  220MOL0     C29628   6.452   3.329   8.461  0.1030 -0.0528  0.8306
  220MOL0     C29629   6.578   3.279   8.395  1.3902  0.8981 -1.0054
  220MOL0     C29630   6.665   3.242   8.324  0.0276  0.0096 -1.4228
  220MOL0     C29631   6.054   3.487   8.175  0.2603  0.3989 -0.1310
  220MOL0     C29632   5.921   3.518   8.172  0.2678  0.0453  0.4905
  220MOL0     H29633   5.477   3.789   8.412  0.0759  4.1956  0.5029
  220MOL0     H29634   5.249   3.852   8.354 -0.1793  2.8521  0.2781
  220MOL0     H29635   5.162   3.999   7.933  1.9835  0.9225  2.5683
  220MOL0     H29636   5.113   3.831   7.974  1.6962 -0.0017 -1.1281
  220MOL0     H29637   4.903   3.929   7.918 -0.3802 -0.8097  0.2017
  220MOL0     H29638   4.913   3.944   8.098 -1.6777 -3.3079 -0.9010
  220MOL0     H29639   4.931   4.170   7.893  2.8114  1.1398 -0.1983
  220MOL0     H29640   4.819   4.140   8.032  0.3067  2.2260  1.3545
  220MOL0     H29641   4.983   4.211   8.189 -1.2924  1.6315  0.2803
  220MOL0     H29642   5.108   4.210   8.065  0.1375  1.4471  2.5209
  220MOL0     H29643   5.040   4.436   8.107  1.5785 -0.9057 -0.1494
  220MOL0     H29644   5.004   4.409   7.942 -1.0437 -0.3925 -1.3662
  220MOL0     H29645   4.781   4.352   7.976 -0.2632 -1.2472  0.8135
  220MOL0     H29646   4.792   4.363   8.153  0.1425 -4.4680 -1.4209
  220MOL0     H29647   4.846   4.605   8.137  0.9370 -2.2391  0.9581
  220MOL0     H29648   4.818   4.600   7.963  0.5177 -1.2824 -0.4891
  220MOL0     H29649   4.571   4.516   8.032  0.7453 -1.5086  0.8727
  220MOL0     H29650   4.632   4.685   8.034  1.7144 -1.3748 -2.7423
  220MOL0     H29651   4.447   4.444   8.244 -2.3191  3.9804  0.2298
  220MOL0     H29652   4.366   4.567   8.545 -1.5269  0.1522 -2.7048
  220MOL0     H29653   4.368   4.423   8.464  0.5053 -1.8589  0.9012
  220MOL0     H29654   4.559   4.485   8.698  0.4494  1.6816 -1.3786
  220MOL0     H29655   4.599   4.359   8.581  0.4814  2.0259 -1.6182
  220MOL0     H29656   4.483   4.243   8.762 -1.4217  1.5460  0.8932
  220MOL0     H29657   4.400   4.227   8.616  1.7982 -2.2113  0.1399
  220MOL0     H29658   4.320   4.463   8.793 -0.7288  0.2954  1.0399
  220MOL0     H29659   4.258   4.301   8.830 -1.3006  0.8058  0.5860
  220MOL0     H29660   4.015   4.271   8.495 -0.7543 -1.6480  0.1170
  220MOL0     H29661   3.721   4.150   8.498  0.4477 -0.4908  0.2760
  220MOL0     H29662   3.660   4.311   8.483 -0.3450 -0.7173  2.5354
  220MOL0     H29663   3.809   4.275   8.394 -0.6396  0.6600 -0.8672
  220MOL0     H29664   3.452   4.094   8.908  1.0509  1.5840 -0.5938
  220MOL0     H29665   3.230   4.040   8.934  1.4236  2.0548  2.5581
  220MOL0     H29666   3.068   3.880   8.786 -1.3348 -1.9704  3.1553
  220MOL0     H29667   2.993   3.996   8.909 -1.2745 -1.9637  1.2497
  220MOL0     H29668   2.850   3.935   8.647 -3.1329 -0.6033  0.3258
  220MOL0     H29669   2.829   3.822   8.770 -5.2116  1.6793  1.8037
  220MOL0     H29670   2.803   4.132   8.817 -0.8372  0.3298  0.1366
  220MOL0     H29671   2.727   4.002   8.909 -1.4840  3.2813 -0.1199
  220MOL0     H29672   2.664   4.092   8.626  1.1172 -0.8210  0.2300
  220MOL0     H29673   2.586   3.958   8.712 -0.7118  0.0419  0.8997
  220MOL0     H29674   2.575   4.253   8.800 -0.2258  0.5962  1.3848
  220MOL0     H29675   2.522   4.120   8.899 -3.1081 -0.5442 -0.2863
  220MOL0     H29676   2.411   4.139   8.626 -0.7911 -2.2899 -0.5298
  220MOL0     H29677   2.338   4.062   8.768 -1.8681  0.1353 -2.5783
  220MOL0     H29678   2.364   4.363   8.714  0.6694 -0.3128 -0.0204
  220MOL0     H29679   2.312   4.305   8.872  0.0508  1.0554  0.3001
  220MOL0     H29680   2.187   4.254   8.600 -0.2666  1.2419 -0.0562
  220MOL0     H29681   2.123   4.373   8.718  1.8837  0.9496  5.4802
  220MOL0     H29682   3.149   4.232   8.550 -1.6367 -1.9138  1.0186
  220MOL0     H29683   3.396   4.289   8.533  0.6890 -2.1618 -0.4466
  220MOL0     H29684   3.818   4.432   8.918  0.9076 -0.9222  1.4266
  220MOL0     H29685   4.061   4.456   8.876  1.1002  0.5759 -2.1456
  220MOL0     H29686   5.379   4.001   7.976  2.0667  2.4989  1.6221
  220MOL0     H29687   5.624   3.926   8.047  1.0954 -0.9647  2.1334
  220MOL0     H29688   5.936   3.821   8.340  1.4395 -1.8610  3.7129
  220MOL0     H29689   6.178   3.733   8.359  1.0756 -2.1408  0.4893
  220MOL0     H29690   6.332   3.427   8.081  1.4231  1.9119 -0.5237
  220MOL0     H29691   6.457   3.439   8.197  0.3807 -0.4167  0.4326
  220MOL0     H29692   6.379   3.208   8.201  0.8695  1.4616  0.3071
  220MOL0     H29693   6.214   3.249   8.222 -1.0129  1.5379  1.6340
  220MOL0     H29694   6.303   3.172   8.440  3.3871 -0.1329  1.5051
  220MOL0     H29695   6.239   3.329   8.440 -0.7047 -2.5141  2.3361
  220MOL0     H29696   6.456   3.295   8.565 -1.7557 -0.0197  0.9336
  220MOL0     H29697   6.452   3.438   8.456  0.3931 -0.0948 -2.4938
  220MOL0     H29698   6.742   3.206   8.258 -0.2782  0.1978 -1.8871
  220MOL0     H29699   6.073   3.391   8.128 -3.3588  0.1522 -1.4622
  220MOL0     H29700   5.853   3.441   8.139 -1.6702  1.8601  0.0370
  221MOL0     O29701   9.903   1.483   9.828  0.6714 -0.1304  0.1176
  221MOL0     C29702   9.918   1.525   9.714  0.0063 -0.6270  0.7570
  221MOL0     O29703   9.845   1.496   9.605 -0.4771 -0.5770 -0.5798
  221MOL0     C29704   9.726   1.425   9.606 -0.8804  0.1260 -0.3054
  221MOL0     C29705   9.696   1.320   9.693  0.4593 -0.2138 -0.6931
  221MOL0     C29706   9.579   1.240   9.669  0.0540 -0.1800 -0.4547
  221MOL0     C29707   9.496   1.273   9.560 -0.0667  0.1447  0.3095
  221MOL0     O29708   9.374   1.202   9.554  0.0705  0.0976 -0.1004
  221MOL0     C29709   9.254   1.255   9.500  0.4063  0.4437 -0.3999
  221MOL0     C29710   9.177   1.136   9.441 -0.1024  0.1755  0.8409
  221MOL0     C29711   9.043   1.188   9.408 -0.2764 -0.7159  0.1795
  221MOL0     C29712   8.965   1.079   9.346  0.5216  0.0985 -0.4970
  221MOL0     C29713   8.829   1.140   9.294 -0.0864  0.2000 -0.6435
  221MOL0     C29714   8.732   1.195   9.410  0.2258  0.1441 -0.3385
  221MOL0     C29715   8.582   1.190   9.374  0.8185  0.4684  0.1306
  221MOL0     C29716   8.545   1.280   9.264  0.7263 -1.1411 -0.5891
  221MOL0     N29717   8.402   1.306   9.232 -0.3702  0.1838  0.5168
  221MOL0     C29718   8.293   1.338   9.311 -0.4320 -0.2719 -0.0621
  221MOL0     C29719   8.197   1.372   9.224  0.6532  0.3215  0.3810
  221MOL0     C29720   8.069   1.436   9.253  0.9851 -0.0772  0.1111
  221MOL0     C29721   7.975   1.328   9.318  0.0612 -0.2186 -0.8088
  221MOL0     C29722   7.901   1.265   9.196  0.0658 -0.0081  1.0489
  221MOL0     C29723   7.792   1.357   9.135 -0.3439 -0.0728 -0.6500
  221MOL0     O29724   7.710   1.269   9.057  0.7432  0.0923 -0.3383
  221MOL0     C29725   7.577   1.323   9.033 -0.7305  0.1018 -0.0055
  221MOL0     C29726   7.478   1.224   9.013  1.0248  0.1024  0.8606
  221MOL0     C29727   7.350   1.259   8.977  0.5485  0.0476 -0.1346
  221MOL0     C29728   7.249   1.145   8.955 -0.2297 -0.0027  1.1053
  221MOL0     C29729   7.316   1.397   8.973 -0.1056  0.9950 -0.4160
  221MOL0     C29730   7.180   1.449   8.951 -0.1012  0.7165  0.1750
  221MOL0     O29731   7.101   1.382   8.862  0.4271 -0.0183  0.2976
  221MOL0     C29732   6.965   1.393   8.859  0.3683  0.1203 -0.0788
  221MOL0     C29733   6.881   1.459   8.958 -0.0946  0.1258  0.7580
  221MOL0     C29734   6.750   1.473   8.945  0.5919 -0.0634  0.3541
  221MOL0     C29735   6.683   1.419   8.837 -0.8234 -0.0184 -0.4189
  221MOL0     O29736   6.547   1.435   8.840  0.2731 -0.0941 -0.0507
  221MOL0     C29737   6.467   1.365   8.739 -0.7810  0.2829  0.4704
  221MOL0     C29738   6.322   1.401   8.744 -0.3028 -0.1332 -0.4770
  221MOL0     C29739   6.249   1.309   8.660 -0.2699  0.1129 -0.5816
  221MOL0     C29740   6.095   1.333   8.675 -0.5885 -0.3266  0.3366
  221MOL0     C29741   6.025   1.207   8.628  1.3296  0.0210 -0.1822
  221MOL0     C29742   5.883   1.232   8.586  0.0071 -0.6361  0.2840
  221MOL0     C29743   5.808   1.104   8.560  0.3308 -0.1232  0.1560
  221MOL0     C29744   5.683   1.115   8.488  0.1491 -0.1485 -0.3902
  221MOL0    Cl29745   5.702   1.149   8.307  0.0747 -0.0245 -0.6495
  221MOL0     C29746   6.760   1.335   8.750 -0.4072 -0.3654 -0.2647
  221MOL0     C29747   6.892   1.323   8.759 -0.0931  0.0088  0.6544
  221MOL0     O29748   7.145   1.548   9.013  0.1432 -0.0516  0.3271
  221MOL0     C29749   7.417   1.496   8.987 -0.0256 -0.1032 -0.2309
  221MOL0     C29750   7.542   1.458   9.023  0.4377 -0.6616 -0.8261
  221MOL0     N29751   8.250   1.368   9.095  0.5348 -0.8689  0.4253
  221MOL0     N29752   8.367   1.328   9.105 -0.5226 -0.6571 -0.0612
  221MOL0     C29753   9.536   1.369   9.468 -0.4333  0.7602  0.4425
  221MOL0     C29754   9.653   1.440   9.489 -0.2968 -0.4580  0.3645
  221MOL0     C29755  10.038   1.610   9.687  0.1883 -0.0300  0.3701
  221MOL0     C29756  10.117   1.648   9.793 -0.8404  0.9627 -0.5666
  221MOL0     C29757  10.246   1.702   9.764  0.3906  0.1137  0.5251
  221MOL0     C29758  10.292   1.730   9.638  0.8990 -0.0128 -0.1250
  221MOL0     O29759  10.409   1.786   9.605  0.1470  0.3280  0.5854
  221MOL0     C29760  10.523   1.771   9.693 -0.0896 -0.4019 -0.3562
  221MOL0     C29761  10.568   1.620   9.684 -0.2880 -0.5265 -0.6045
  221MOL0     C29762  10.692   1.600   9.775 -0.2544  0.4579  0.4202
  221MOL0     C29763  10.816   1.676   9.740  0.0891 -0.0692 -0.3298
  221MOL0     C29764  10.862   1.657   9.607  0.8615 -0.0299  0.5017
  221MOL0     C29765  10.901   1.650   9.493 -0.0335 -0.8943 -0.2019
  221MOL0     C29766  10.199   1.707   9.527  0.6473  0.7687 -0.3434
  221MOL0     C29767  10.072   1.652   9.557 -0.7043 -0.1996  0.1132
  221MOL0     H29768   9.758   1.300   9.780 -0.3245 -0.5013 -0.1931
  221MOL0     H29769   9.549   1.167   9.744  0.1516  0.6098  0.3800
  221MOL0     H29770   9.198   1.301   9.582  1.6859  1.3132  0.0182
  221MOL0     H29771   9.279   1.330   9.424  0.1548  0.1053 -0.8181
  221MOL0     H29772   9.228   1.096   9.352  0.1590  1.1578  0.5395
  221MOL0     H29773   9.153   1.052   9.507 -1.6504 -2.0587 -2.3076
  221MOL0     H29774   8.985   1.228   9.492 -0.5431  0.9835 -0.7631
  221MOL0     H29775   9.051   1.270   9.336 -0.1189 -1.8975 -1.2005
  221MOL0     H29776   9.024   1.036   9.265  1.3434  1.0179 -0.4065
  221MOL0     H29777   8.944   1.003   9.422  2.1419  1.0518  0.9876
  221MOL0     H29778   8.854   1.215   9.219  2.9991 -0.4055 -0.3620
  221MOL0     H29779   8.777   1.053   9.253  0.9848 -0.8075  0.0982
  221MOL0     H29780   8.745   1.134   9.499 -3.9741 -0.3367  0.1513
  221MOL0     H29781   8.752   1.300   9.431  4.4267 -0.7590  1.1874
  221MOL0     H29782   8.552   1.090   9.344 -1.6303  1.2883 -0.4028
  221MOL0     H29783   8.523   1.219   9.462  0.0927 -0.6822  0.0352
  221MOL0     H29784   8.597   1.244   9.174 -2.0692 -0.0432 -2.8056
  221MOL0     H29785   8.579   1.380   9.291 -4.2505  0.4017  1.0243
  221MOL0     H29786   8.282   1.346   9.419  0.7617  1.3823 -0.0177
  221MOL0     H29787   8.086   1.519   9.322 -0.2512 -0.2484  0.6634
  221MOL0     H29788   8.025   1.475   9.161  2.1323 -0.5063 -0.6362
  221MOL0     H29789   7.904   1.373   9.388  1.9861 -0.6017  1.5600
  221MOL0     H29790   8.029   1.250   9.371 -0.9562  0.4518  1.3324
  221MOL0     H29791   7.852   1.171   9.222 -0.7302 -0.1934 -0.9840
  221MOL0     H29792   7.970   1.241   9.115 -0.7811 -0.5901  0.4873
  221MOL0     H29793   7.844   1.429   9.070 -0.1255  2.5703  2.2325
  221MOL0     H29794   7.729   1.409   9.207 -2.8877  2.2567 -4.1903
  221MOL0     H29795   7.505   1.124   9.044 -1.0167  0.2057  3.3234
  221MOL0     H29796   7.171   1.157   9.030 -2.9289 -0.2909 -1.4502
  221MOL0     H29797   7.200   1.164   8.859 -0.4364 -1.8846  0.7924
  221MOL0     H29798   7.290   1.043   8.960  1.0262  0.3728 -0.6097
  221MOL0     H29799   6.924   1.506   9.046  0.3710  0.0766  0.5637
  221MOL0     H29800   6.693   1.523   9.023  0.0531  3.0953 -1.8364
  221MOL0     H29801   6.508   1.398   8.643  1.2257 -1.5762  0.5848
  221MOL0     H29802   6.475   1.257   8.759  0.4676  0.2736  0.0482
  221MOL0     H29803   6.296   1.403   8.851  1.3822  1.1181 -0.0531
  221MOL0     H29804   6.306   1.499   8.700 -4.9165  0.8052  2.5525
  221MOL0     H29805   6.282   1.211   8.695 -0.0253  0.0010 -1.1193
  221MOL0     H29806   6.269   1.321   8.554  1.4783 -0.9097 -0.3993
  221MOL0     H29807   6.065   1.351   8.779 -0.1935  0.2246  0.3609
  221MOL0     H29808   6.067   1.420   8.615 -1.5189  0.0472  1.2647
  221MOL0     H29809   6.026   1.147   8.719 -3.1207  1.9015  1.3728
  221MOL0     H29810   6.081   1.170   8.541 -0.1755 -0.7234 -0.8830
  221MOL0     H29811   5.843   1.295   8.666  1.9556  1.2078 -0.1100
  221MOL0     H29812   5.878   1.287   8.491 -1.2116 -1.2983 -0.0593
  221MOL0     H29813   5.792   1.050   8.654  1.1850  0.7727  0.8287
  221MOL0     H29814   5.868   1.035   8.501  1.2214  0.4152  0.4103
  221MOL0     H29815   5.630   1.196   8.540  2.0945  0.0985  1.3338
  221MOL0     H29816   5.621   1.026   8.504 -1.0874  0.3572 -2.0383
  221MOL0     H29817   6.708   1.292   8.665  0.3852 -1.9429  0.0144
  221MOL0     H29818   6.942   1.253   8.693  0.0328  0.3255  0.4144
  221MOL0     H29819   7.392   1.601   8.971 -1.0175 -0.6555 -3.0560
  221MOL0     H29820   7.617   1.536   9.037  0.6547  0.0717 -4.9517
  221MOL0     H29821   9.478   1.389   9.378 -0.5145 -1.0398  0.0548
  221MOL0     H29822   9.691   1.512   9.417  5.0554 -1.8821  1.3267
  221MOL0     H29823  10.094   1.625   9.897  0.4330 -1.0399 -0.6723
  221MOL0     H29824  10.314   1.725   9.845 -2.1573  2.8782  2.0362
  221MOL0     H29825  10.598   1.842   9.659 -0.3779  0.6278  1.0766
  221MOL0     H29826  10.490   1.789   9.796  1.1429 -1.3009  0.2159
  221MOL0     H29827  10.597   1.604   9.580 -0.6753 -1.9317 -0.5072
  221MOL0     H29828  10.487   1.551   9.710 -0.8637 -0.0791 -1.1946
  221MOL0     H29829  10.707   1.492   9.773 -2.9854  0.0081  1.2375
  221MOL0     H29830  10.661   1.637   9.873  2.2944  2.3607  0.6193
  221MOL0     H29831  10.894   1.631   9.803 -0.9550 -2.0698 -0.4082
  221MOL0     H29832  10.788   1.777   9.771 -1.6260 -0.5418 -0.2430
  221MOL0     H29833  10.955   1.634   9.402  0.2449  1.4414 -0.5064
  221MOL0     H29834  10.237   1.722   9.426  0.1897  0.8865 -0.5020
  221MOL0     H29835  10.007   1.629   9.473  0.8362  0.0179 -1.1690
  222MOL0     O29836   9.979   3.177   0.293  0.0910  0.7319  0.3367
  222MOL0     C29837  10.003   3.073   0.222 -0.1443  0.2292 -0.2756
  222MOL0     O29838   9.935   3.032   0.122 -0.6812  0.5474 -0.3579
  222MOL0     C29839   9.826   3.105   0.089 -0.0959 -0.9952 -0.5115
  222MOL0     C29840   9.708   3.033   0.064 -0.1511 -0.7593 -0.8705
  222MOL0     C29841   9.587   3.090   0.022 -0.3313 -0.5234  0.3006
  222MOL0     C29842   9.578   3.229   0.002  0.8093 -0.5156  0.5964
  222MOL0     O29843   9.464   3.295  -0.046 -0.8339 -0.5302 -0.4763
  222MOL0     C29844   9.412   3.375   0.060 -1.1631  0.5385 -0.7732
  222MOL0     C29845   9.261   3.410   0.033 -0.2937  0.3766 -0.7189
  222MOL0     C29846   9.174   3.285   0.004  0.5898 -0.2321  0.2272
  222MOL0     C29847   9.033   3.287   0.066 -0.5676  0.1818  0.2761
  222MOL0     C29848   8.931   3.386   0.012 -0.0952  0.2781 -0.3338
  222MOL0     C29849   8.906   3.374  -0.134  0.5279  0.0042  0.3041
  222MOL0     C29850   8.988   3.475  -0.227  0.6668 -0.0702 -0.4279
  222MOL0     C29851   8.992   3.457  -0.377 -0.2796 -0.1431  0.2738
  222MOL0     N29852   8.868   3.481  -0.443  0.2882 -0.1230  0.4504
  222MOL0     C29853   8.814   3.600  -0.458 -0.2325  0.3362 -0.0657
  222MOL0     C29854   8.694   3.584  -0.505  0.9171  0.7397 -0.4355
  222MOL0     C29855   8.584   3.683  -0.547 -0.1799 -0.1434  0.2220
  222MOL0     C29856   8.571   3.806  -0.449 -0.9048  0.0083  0.0869
  222MOL0     C29857   8.469   3.912  -0.486 -0.6831 -0.5400 -0.2807
  222MOL0     C29858   8.330   3.838  -0.503 -0.3076 -0.1467  0.3777
  222MOL0     O29859   8.229   3.933  -0.502 -0.0116  0.0637  0.0902
  222MOL0     C29860   8.103   3.903  -0.550  0.7112 -0.8414  0.0640
  222MOL0     C29861   8.073   3.799  -0.643  0.3008 -0.5004  0.5748
  222MOL0     C29862   7.949   3.792  -0.700  0.4677 -0.3854 -0.5268
  222MOL0     C29863   7.928   3.682  -0.801 -0.5335 -0.1495 -0.9542
  222MOL0     C29864   7.847   3.881  -0.657 -0.5021  0.7180 -0.4713
  222MOL0     C29865   7.712   3.887  -0.719  0.8502  0.0457 -0.3320
  222MOL0     O29866   7.615   3.961  -0.651  0.0327 -0.3512 -0.5710
  222MOL0     C29867   7.485   3.970  -0.687 -0.5631 -0.4091 -0.7099
  222MOL0     C29868   7.412   3.867  -0.735  0.3453  0.2278  0.7236
  222MOL0     C29869   7.285   3.890  -0.790  0.1215  0.4061  0.0027
  222MOL0     C29870   7.224   4.007  -0.768 -0.0838  0.2583 -0.5426
  222MOL0     O29871   7.097   4.029  -0.804  0.5590 -0.3862  0.4449
  222MOL0     C29872   7.043   3.945  -0.914  0.0599  0.2006 -0.2350
  222MOL0     C29873   6.929   4.023  -0.984 -0.8673 -0.3777  0.3286
  222MOL0     C29874   6.792   4.026  -0.917 -0.6824  0.3516  0.4852
  222MOL0     C29875   6.707   4.134  -0.990  0.3908  0.0324 -0.1129
  222MOL0     C29876   6.548   4.126  -0.976 -0.3222 -0.0616  0.0123
  222MOL0     C29877   6.472   4.007  -1.039  0.2568  0.4339 -0.5324
  222MOL0     C29878   6.321   4.006  -1.014  0.0954 -0.5718  0.5861
  222MOL0     C29879   6.244   3.885  -1.058 -0.3139  0.7438 -0.2244
  222MOL0    Cl29880   6.273   3.825  -1.223 -0.2691 -0.2754 -0.3277
  222MOL0     C29881   7.293   4.112  -0.716  0.3988 -0.6304 -0.1675
  222MOL0     C29882   7.424   4.096  -0.671  1.0808 -0.5164 -0.3211
  222MOL0     O29883   7.695   3.834  -0.824  0.5597 -0.3397  0.1434
  222MOL0     C29884   7.875   3.983  -0.560 -0.1880  0.6006 -0.4016
  222MOL0     C29885   8.004   3.995  -0.504  0.2185  0.6290  0.3402
  222MOL0     N29886   8.657   3.449  -0.508 -0.2624  0.0941  0.4008
  222MOL0     N29887   8.769   3.388  -0.468  0.5973  0.4674 -0.4906
  222MOL0     C29888   9.696   3.297   0.018 -0.0474  0.5916  0.3204
  222MOL0     C29889   9.820   3.244   0.061 -0.9168 -0.2786  0.3089
  222MOL0     C29890  10.125   3.000   0.256  0.4107 -0.6004 -0.5593
  222MOL0     C29891  10.136   2.860   0.272  0.0333  0.2544 -0.1913
  222MOL0     C29892  10.259   2.798   0.298  0.2766 -0.5618 -0.2219
  222MOL0     C29893  10.378   2.881   0.324 -0.0139 -0.6388 -0.5709
  222MOL0     O29894  10.484   2.815   0.379  0.2063  0.2657  0.2913
  222MOL0     C29895  10.590   2.902   0.414  0.3815  0.0324  0.5148
  222MOL0     C29896  10.688   2.806   0.494 -0.3400  0.5832 -0.0661
  222MOL0     C29897  10.831   2.859   0.502  0.2041  0.3886  0.1748
  222MOL0     C29898  10.843   3.000   0.556  0.1403  0.2161 -0.0035
  222MOL0     C29899  10.796   3.034   0.691 -0.5649 -0.2687  0.2711
  222MOL0     C29900  10.776   3.065   0.806  0.1461  0.7827 -0.1954
  222MOL0     C29901  10.363   3.021   0.310  0.6070  0.5955  0.4367
  222MOL0     C29902  10.243   3.081   0.267  0.6453  0.5158  0.2378
  222MOL0     H29903   9.716   2.925   0.067  0.9269 -0.6835  1.4212
  222MOL0     H29904   9.501   3.027   0.005  0.2491 -1.9448  2.2242
  222MOL0     H29905   9.423   3.330   0.159 -1.4543 -0.8805 -1.3573
  222MOL0     H29906   9.472   3.466   0.064 -0.4806  0.1102 -1.1152
  222MOL0     H29907   9.223   3.472   0.115 -0.2159  1.2013 -1.2887
  222MOL0     H29908   9.272   3.475  -0.055  1.9297  0.4382 -0.4465
  222MOL0     H29909   9.167   3.266  -0.103  0.9093  0.0026  0.1614
  222MOL0     H29910   9.222   3.192   0.038 -0.1230 -0.7739 -0.2188
  222MOL0     H29911   8.997   3.185   0.053 -1.6579  0.8417 -2.6246
  222MOL0     H29912   9.045   3.304   0.173  2.7379  0.5730 -0.0414
  222MOL0     H29913   8.834   3.376   0.060  0.0301 -1.1326 -0.3185
  222MOL0     H29914   8.968   3.485   0.041  0.6944 -0.6449  2.0857
  222MOL0     H29915   8.929   3.270  -0.159  1.9594  0.2262  0.6296
  222MOL0     H29916   8.803   3.406  -0.152  0.0267 -2.1482 -0.9137
  222MOL0     H29917   8.954   3.575  -0.199 -0.2838 -0.8096  1.2225
  222MOL0     H29918   9.091   3.463  -0.192 -0.0311 -3.2769  0.9018
  222MOL0     H29919   9.020   3.354  -0.399 -3.1519 -0.7365 -1.1651
  222MOL0     H29920   9.074   3.519  -0.414  0.7741 -1.0719  1.0001
  222MOL0     H29921   8.861   3.697  -0.442 -0.2947  0.5673 -1.2230
  222MOL0     H29922   8.595   3.719  -0.649 -0.2003 -1.6110 -0.3198
  222MOL0     H29923   8.489   3.629  -0.549 -0.3289 -0.2018  3.3316
  222MOL0     H29924   8.666   3.860  -0.442 -1.5753  1.3969 -0.9704
  222MOL0     H29925   8.543   3.765  -0.351  0.5203  0.0225  0.5178
  222MOL0     H29926   8.503   3.955  -0.580 -0.5581  0.7573  0.3322
  222MOL0     H29927   8.453   3.983  -0.404 -0.6969 -0.5994 -0.2311
  222MOL0     H29928   8.319   3.764  -0.424 -1.7421 -0.1332  0.2079
  222MOL0     H29929   8.336   3.785  -0.599  0.3599 -0.6129  0.6694
  222MOL0     H29930   8.141   3.722  -0.678 -0.6858 -1.7501  1.3182
  222MOL0     H29931   7.949   3.725  -0.900  1.6165 -0.7021 -0.7881
  222MOL0     H29932   7.991   3.593  -0.791 -0.7054 -0.1898 -0.1731
  222MOL0     H29933   7.824   3.648  -0.795 -0.3947 -0.3085  1.8030
  222MOL0     H29934   7.452   3.767  -0.725 -2.5288 -0.9232  2.0934
  222MOL0     H29935   7.230   3.801  -0.820  1.6705 -1.2720  1.8900
  222MOL0     H29936   7.122   3.915  -0.984  1.4521  0.3991  1.1816
  222MOL0     H29937   7.014   3.847  -0.874  3.4907 -1.8163 -2.1771
  222MOL0     H29938   6.957   4.128  -0.999 -2.6470  0.0366 -0.3387
  222MOL0     H29939   6.925   3.977  -1.083  2.3495  1.4955 -0.8293
  222MOL0     H29940   6.814   4.060  -0.815  1.1469  3.0556 -0.6757
  222MOL0     H29941   6.757   3.924  -0.937  0.6027 -0.0140 -0.0452
  222MOL0     H29942   6.727   4.235  -0.952 -0.0370 -0.2860  1.0109
  222MOL0     H29943   6.739   4.141  -1.094 -1.3887 -0.8605 -0.7587
  222MOL0     H29944   6.497   4.217  -1.009 -4.2184 -2.2406 -0.5657
  222MOL0     H29945   6.521   4.121  -0.870  1.4302 -1.5890  0.4253
  222MOL0     H29946   6.489   4.012  -1.147  1.4023 -0.5775 -0.4107
  222MOL0     H29947   6.512   3.912  -1.003 -1.1274  0.4369  1.1450
  222MOL0     H29948   6.276   4.097  -1.056  0.5365  0.3231  1.9822
  222MOL0     H29949   6.297   4.008  -0.908 -3.5920 -3.8669  0.0512
  222MOL0     H29950   6.139   3.904  -1.037 -0.7286 -1.8224  0.4140
  222MOL0     H29951   6.274   3.807  -0.988  2.9382  2.9619  1.1025
  222MOL0     H29952   7.241   4.208  -0.713  1.0599 -0.2313 -1.0914
  222MOL0     H29953   7.482   4.178  -0.630 -1.1766 -0.0009  2.0854
  222MOL0     H29954   7.798   4.057  -0.538 -0.3323  0.2375  0.3648
  222MOL0     H29955   8.020   4.078  -0.435  1.3261 -0.2111  1.1243
  222MOL0     H29956   9.692   3.404  -0.003  0.3203  0.5836  0.2058
  222MOL0     H29957   9.905   3.311   0.054 -2.2282  1.3356 -1.4489
  222MOL0     H29958  10.055   2.789   0.258 -1.2531  1.4366  0.9503
  222MOL0     H29959  10.261   2.689   0.295  2.2731 -0.5860  0.2360
  222MOL0     H29960  10.624   2.947   0.321 -1.6316 -1.5373 -1.0980
  222MOL0     H29961  10.551   2.977   0.484  0.0161  2.4964 -2.1617
  222MOL0     H29962  10.686   2.711   0.442 -0.5139 -0.2721  1.4346
  222MOL0     H29963  10.649   2.786   0.594  1.2981  0.0353  0.4902
  222MOL0     H29964  10.877   2.846   0.403 -0.5920  0.2299 -0.1779
  222MOL0     H29965  10.885   2.783   0.559 -0.0363 -0.5231 -0.7734
  222MOL0     H29966  10.786   3.056   0.480  0.3120  0.0360 -0.2679
  222MOL0     H29967  10.950   3.025   0.556  0.3529 -0.5895  1.9647
  222MOL0     H29968  10.769   3.098   0.908 -2.6529  2.1033 -0.7229
  222MOL0     H29969  10.446   3.087   0.335  1.2865  1.1826 -2.8943
  222MOL0     H29970  10.231   3.187   0.247 -0.1768  0.7455  1.7517
  223MOL0     O29971  10.770   8.477   8.718 -0.3399 -0.0135  0.4466
  223MOL0     C29972  10.803   8.365   8.694  0.3736  0.1502  0.1689
  223MOL0     O29973  10.719   8.251   8.687 -0.2168 -0.4308  0.5385
  223MOL0     C29974  10.584   8.273   8.696  0.6879 -0.3831  0.9009
  223MOL0     C29975  10.518   8.268   8.815 -0.5840  0.2937 -0.4713
  223MOL0     C29976  10.376   8.275   8.811 -0.4912 -0.1461  0.3959
  223MOL0     C29977  10.300   8.272   8.690 -0.8705 -0.8448  0.1854
  223MOL0     O29978  10.168   8.297   8.700 -0.4417  0.0031  0.1442
  223MOL0     C29979  10.089   8.310   8.578  1.2348  0.2608 -0.2432
  223MOL0     C29980   9.946   8.265   8.623 -0.0079  0.2797  0.1052
  223MOL0     C29981   9.849   8.266   8.509 -0.9904  0.3959  0.2346
  223MOL0     C29982   9.704   8.205   8.551 -0.4044 -0.4200  1.0705
  223MOL0     C29983   9.596   8.223   8.434  0.0851  0.0632 -0.1953
  223MOL0     C29984   9.653   8.238   8.294 -0.4003  0.6129  0.1393
  223MOL0     C29985   9.553   8.198   8.186  0.8201  0.0675  0.1334
  223MOL0     C29986   9.593   8.261   8.052 -0.2033  0.2836 -0.2442
  223MOL0     N29987   9.494   8.244   7.941  0.1627 -0.0013 -0.1244
  223MOL0     C29988   9.498   8.163   7.833  0.6728 -0.5719  0.3007
  223MOL0     C29989   9.371   8.176   7.782  0.0652  0.3477  0.2708
  223MOL0     C29990   9.329   8.107   7.657  0.0148 -0.8911 -0.4003
  223MOL0     C29991   9.231   7.990   7.672  0.4697 -0.5251 -0.3925
  223MOL0     C29992   9.087   8.041   7.691  0.8391  0.9274  0.3643
  223MOL0     C29993   8.982   7.935   7.661  0.2675  0.3277 -1.0449
  223MOL0     O29994   8.985   7.885   7.525  0.0389  0.1585  0.3395
  223MOL0     C29995   8.876   7.833   7.469 -0.7083  0.3107 -0.6973
  223MOL0     C29996   8.867   7.848   7.333  0.3474 -0.9582 -0.8711
  223MOL0     C29997   8.755   7.795   7.252  0.3709 -0.8612  0.2122
  223MOL0     C29998   8.759   7.828   7.100 -0.2163  0.1623 -0.7922
  223MOL0     C29999   8.652   7.730   7.325  0.6401 -1.2740  0.5374
  223MOL0     C30000   8.536   7.667   7.259  0.8753  0.4629  0.0042
  223MOL0     O30001   8.445   7.608   7.346  0.3099  0.5500 -0.0431
  223MOL0     C30002   8.328   7.547   7.298  0.0089 -0.4319  0.2884
  223MOL0     C30003   8.206   7.615   7.323 -0.4751 -0.3810 -0.6182
  223MOL0     C30004   8.084   7.556   7.272 -0.2873 -0.1509 -0.2676
  223MOL0     C30005   8.088   7.441   7.191 -0.5089  0.1806  0.4768
  223MOL0     O30006   7.969   7.394   7.152 -0.0340  0.2988  0.1836
  223MOL0     C30007   7.964   7.287   7.057 -0.4564 -0.0498 -0.2314
  223MOL0     C30008   7.840   7.303   6.962 -0.7138  0.1340  0.7435
  223MOL0     C30009   7.705   7.340   7.031  0.5425 -0.1593 -0.3463
  223MOL0     C30010   7.583   7.276   6.960 -0.3350 -0.3542  0.3461
  223MOL0     C30011   7.452   7.289   7.037 -0.0780 -0.8701 -0.1812
  223MOL0     C30012   7.325   7.267   6.962 -0.0532 -0.1698  0.6487
  223MOL0     C30013   7.299   7.129   6.911 -0.6454 -0.0773 -0.4214
  223MOL0     C30014   7.305   7.017   7.014 -0.6157 -0.9083 -0.2631
  223MOL0    Cl30015   7.216   7.078   7.161  0.2810 -0.6520  0.1290
  223MOL0     C30016   8.212   7.388   7.147 -0.2266  0.3836 -0.1698
  223MOL0     C30017   8.329   7.436   7.208 -1.1468 -0.0685  0.1589
  223MOL0     O30018   8.510   7.685   7.139  0.0920  0.0793  0.1484
  223MOL0     C30019   8.658   7.718   7.460 -0.0446  0.0548  0.7164
  223MOL0     C30020   8.771   7.763   7.529 -0.2449 -1.1025  0.0619
  223MOL0     N30021   9.296   8.261   7.850  0.0228  0.0314  0.3261
  223MOL0     N30022   9.368   8.298   7.952  0.7698  0.8447  0.5174
  223MOL0     C30023  10.376   8.270   8.571  0.7570  0.6482 -0.6429
  223MOL0     C30024  10.510   8.267   8.572  0.1527 -0.2316 -0.1872
  223MOL0     C30025  10.954   8.350   8.683  0.1778  0.5395  0.1748
  223MOL0     C30026  11.038   8.460   8.659 -0.4976  0.2638  1.2421
  223MOL0     C30027  11.173   8.447   8.630  0.1920  0.5674  0.7207
  223MOL0     C30028  11.229   8.317   8.626  0.0261 -0.5828 -0.2504
  223MOL0     O30029  11.368   8.313   8.617 -0.4449  0.0066 -0.4136
  223MOL0     C30030  11.442   8.192   8.647  0.1016  0.7736  0.2405
  223MOL0     C30031  11.595   8.219   8.647 -0.0061 -0.2455 -1.1720
  223MOL0     C30032  11.641   8.275   8.507  0.6370  0.9517  0.3807
  223MOL0     C30033  11.790   8.311   8.497 -0.4472 -1.1786  0.2174
  223MOL0     C30034  11.819   8.371   8.373  0.2002 -0.1398  0.4279
  223MOL0     C30035  11.824   8.444   8.282 -0.2220 -0.3159 -0.0254
  223MOL0     C30036  11.147   8.206   8.653 -0.2600  0.2750 -0.1516
  223MOL0     C30037  11.010   8.225   8.675 -0.5797  0.5221  0.0354
  223MOL0     H30038  10.575   8.249   8.905 -2.2164 -4.5209 -0.1954
  223MOL0     H30039  10.329   8.290   8.908 -0.7996  0.6977  0.1224
  223MOL0     H30040  10.093   8.415   8.549  1.3119  0.2514 -0.2645
  223MOL0     H30041  10.127   8.243   8.500  1.1538 -2.2727  1.7699
  223MOL0     H30042   9.954   8.162   8.662 -0.4721 -0.5292 -1.8365
  223MOL0     H30043   9.902   8.331   8.699  2.2019  0.4924  1.2811
  223MOL0     H30044   9.836   8.363   8.460 -1.0656  0.3880  0.2390
  223MOL0     H30045   9.888   8.204   8.429 -3.7902  0.2182 -1.1378
  223MOL0     H30046   9.723   8.100   8.574  1.6120 -0.8769 -1.9986
  223MOL0     H30047   9.670   8.265   8.636  0.3781  2.7903 -0.7037
  223MOL0     H30048   9.533   8.134   8.438 -0.0524  0.1854  0.4461
  223MOL0     H30049   9.527   8.303   8.464  1.4090  0.6998  1.2516
  223MOL0     H30050   9.689   8.340   8.274  0.3481 -0.0838 -2.3574
  223MOL0     H30051   9.736   8.169   8.279 -1.2667 -0.5437  0.5514
  223MOL0     H30052   9.552   8.089   8.180 -3.1556 -0.1848  2.3523
  223MOL0     H30053   9.452   8.229   8.214  0.0604  2.0363 -3.9670
  223MOL0     H30054   9.695   8.233   8.026 -0.5875 -2.9443  1.2709
  223MOL0     H30055   9.594   8.369   8.069 -3.4533  0.4330 -0.4115
  223MOL0     H30056   9.580   8.102   7.798  4.6308  3.4863  1.6193
  223MOL0     H30057   9.293   8.180   7.584 -0.4955  1.0096  1.6272
  223MOL0     H30058   9.420   8.063   7.615  0.8916 -0.2347  0.7378
  223MOL0     H30059   9.258   7.932   7.761  0.0295  1.1700  0.8894
  223MOL0     H30060   9.229   7.922   7.587  0.8642  0.0797 -0.8935
  223MOL0     H30061   9.074   8.118   7.614  1.6732 -0.6788 -1.4614
  223MOL0     H30062   9.079   8.095   7.787  0.0437  1.0598  0.2331
  223MOL0     H30063   8.887   7.984   7.680  1.3576  1.0328  4.1251
  223MOL0     H30064   8.987   7.848   7.728  1.6777 -0.6097 -2.2947
  223MOL0     H30065   8.940   7.915   7.288  1.0563 -0.2594  1.1778
  223MOL0     H30066   8.672   7.890   7.078 -0.2365  0.9494  1.2113
  223MOL0     H30067   8.850   7.879   7.068 -0.5861  0.5671 -1.1987
  223MOL0     H30068   8.763   7.736   7.042  1.0333 -0.5258  0.3099
  223MOL0     H30069   8.221   7.699   7.389  1.3300 -1.5513  0.5810
  223MOL0     H30070   7.985   7.596   7.293  0.1694  0.0966  1.5801
  223MOL0     H30071   8.054   7.273   6.996 -1.0636  0.6505 -1.3231
  223MOL0     H30072   7.948   7.195   7.114 -0.5332 -1.2469 -2.0897
  223MOL0     H30073   7.858   7.377   6.883  0.2167  1.7073  2.3590
  223MOL0     H30074   7.831   7.210   6.905 -2.6437  0.3708  0.5897
  223MOL0     H30075   7.686   7.445   7.054  1.6522 -0.4925  2.5155
  223MOL0     H30076   7.699   7.285   7.126  2.8016 -2.7402 -1.5396
  223MOL0     H30077   7.580   7.330   6.866  0.6163  0.0266  0.5298
  223MOL0     H30078   7.613   7.173   6.940  2.1965  0.5272 -0.7717
  223MOL0     H30079   7.440   7.388   7.081 -0.8990 -1.9796  2.2461
  223MOL0     H30080   7.446   7.218   7.120  2.3264 -2.4354 -1.2119
  223MOL0     H30081   7.248   7.300   7.032 -1.1249  0.7826 -0.9019
  223MOL0     H30082   7.320   7.338   6.879 -3.3728 -0.4780  0.4696
  223MOL0     H30083   7.373   7.103   6.835  3.1298 -3.8019  3.9015
  223MOL0     H30084   7.198   7.137   6.871  0.2585  0.4143 -2.7716
  223MOL0     H30085   7.407   6.994   7.043 -0.5611  0.4119  0.7216
  223MOL0     H30086   7.249   6.930   6.977 -1.6222  0.1652 -1.3738
  223MOL0     H30087   8.222   7.296   7.090 -0.3223 -0.4466  1.1216
  223MOL0     H30088   8.423   7.390   7.179 -2.6507 -3.4510  0.1558
  223MOL0     H30089   8.583   7.663   7.516 -2.8976  2.3713 -0.5930
  223MOL0     H30090   8.777   7.745   7.636  0.5941  2.0247  0.6509
  223MOL0     H30091  10.333   8.280   8.473 -0.1548  1.4671 -0.1730
  223MOL0     H30092  10.567   8.279   8.481 -0.8796 -0.2483 -0.8538
  223MOL0     H30093  10.994   8.557   8.637 -1.6101 -0.8901 -2.2229
  223MOL0     H30094  11.232   8.536   8.612 -0.5904  0.6424 -1.8950
  223MOL0     H30095  11.411   8.160   8.747 -0.1199  2.0783  0.6122
  223MOL0     H30096  11.411   8.112   8.579 -2.3848 -1.5841  3.7877
  223MOL0     H30097  11.649   8.125   8.660  1.6659  0.7173 -0.8735
  223MOL0     H30098  11.622   8.291   8.725 -0.5771  0.2048 -1.3773
  223MOL0     H30099  11.581   8.361   8.476 -0.8002 -0.3477 -0.5960
  223MOL0     H30100  11.621   8.197   8.433  1.1700  1.7059 -0.5798
  223MOL0     H30101  11.853   8.224   8.519  1.5929  0.3967  0.9353
  223MOL0     H30102  11.807   8.385   8.576  1.1978 -1.2475 -0.0462
  223MOL0     H30103  11.840   8.515   8.203 -0.7338  0.9237  0.9407
  223MOL0     H30104  11.186   8.105   8.653 -1.3038 -0.1452  1.1403
  223MOL0     H30105  10.944   8.139   8.681 -3.9684  2.9536  0.9396
  224MOL0     O30106   9.055   5.678   6.959 -0.4719  0.5027  0.5606
  224MOL0     C30107   9.138   5.625   6.891  0.0274 -0.3171  0.3040
  224MOL0     O30108   9.161   5.492   6.882 -0.1288  0.3984  0.0832
  224MOL0     C30109   9.063   5.399   6.915  0.2398 -0.4285  0.2472
  224MOL0     C30110   8.946   5.384   6.833 -0.5580 -0.2409 -0.6297
  224MOL0     C30111   8.849   5.291   6.859  0.1337 -0.5677 -0.8157
  224MOL0     C30112   8.856   5.207   6.980  0.0531 -0.1175  0.0749
  224MOL0     O30113   8.755   5.138   7.032  0.0757  0.6632  0.1972
  224MOL0     C30114   8.648   5.232   7.062  0.5505  0.3254 -0.5326
  224MOL0     C30115   8.541   5.154   7.143 -0.2962  0.8359  0.3145
  224MOL0     C30116   8.411   5.232   7.170 -0.2259 -0.1475 -0.7962
  224MOL0     C30117   8.310   5.125   7.212 -0.2646 -0.4474  0.1876
  224MOL0     C30118   8.164   5.173   7.249  0.1208  0.2167  0.8367
  224MOL0     C30119   8.082   5.256   7.140  0.0945 -0.3757 -0.2143
  224MOL0     C30120   7.936   5.263   7.175  0.4651  0.0501 -0.5027
  224MOL0     C30121   7.860   5.336   7.065  0.5673 -0.2115 -0.5744
  224MOL0     N30122   7.711   5.322   7.066 -0.0025 -0.9382 -0.1296
  224MOL0     C30123   7.633   5.209   7.071  0.5059  0.3362  0.4376
  224MOL0     C30124   7.508   5.250   7.075  0.0730  0.8170  0.5286
  224MOL0     C30125   7.391   5.152   7.073  0.3955 -0.0415 -0.1163
  224MOL0     C30126   7.263   5.219   7.014 -0.4958 -0.0816 -1.3996
  224MOL0     C30127   7.171   5.103   6.973 -0.0940 -0.3074 -0.5930
  224MOL0     C30128   7.020   5.132   6.999 -0.4679 -0.1936  0.1510
  224MOL0     O30129   6.951   5.013   6.966  0.1170  0.8349 -0.0111
  224MOL0     C30130   6.813   4.997   6.988 -1.4526 -0.6548 -0.1420
  224MOL0     C30131   6.756   4.872   6.980 -0.2799 -0.0234  0.6188
  224MOL0     C30132   6.621   4.855   7.006  0.1182 -0.2525 -0.5555
  224MOL0     C30133   6.571   4.710   6.993  0.0628  0.5648 -0.1064
  224MOL0     C30134   6.537   4.966   7.027 -0.2026  1.0370  0.0213
  224MOL0     C30135   6.405   4.942   7.067  0.1113  0.3378 -0.2228
  224MOL0     O30136   6.388   4.851   7.175 -0.2558 -0.6795  0.5908
  224MOL0     C30137   6.264   4.848   7.228  0.5462  0.6458 -0.2994
  224MOL0     C30138   6.176   4.759   7.173 -0.4241  1.0985  0.5188
  224MOL0     C30139   6.047   4.743   7.219 -0.0271  0.7648 -0.3404
  224MOL0     C30140   5.997   4.829   7.321  0.4573 -0.0556  0.1448
  224MOL0     O30141   5.874   4.806   7.368  0.0131  0.0931  0.2904
  224MOL0     C30142   5.851   4.805   7.512 -0.9036 -0.1580  0.3451
  224MOL0     C30143   5.707   4.763   7.540 -0.4179 -0.2120  0.3170
  224MOL0     C30144   5.608   4.849   7.456  1.0373 -0.4411 -0.2360
  224MOL0     C30145   5.467   4.783   7.486  0.2938  0.0881  0.0757
  224MOL0     C30146   5.372   4.872   7.403 -0.0867  0.6238  0.3920
  224MOL0     C30147   5.227   4.834   7.449 -1.0405  0.2763  0.3500
  224MOL0     C30148   5.126   4.882   7.345 -0.3757  0.1345 -0.0199
  224MOL0     C30149   4.981   4.877   7.398  0.1153 -0.4893  0.2459
  224MOL0    Cl30150   4.871   4.971   7.291 -0.5194  0.2607  0.5474
  224MOL0     C30151   6.084   4.930   7.368 -0.0019  0.7153 -0.2176
  224MOL0     C30152   6.217   4.931   7.327  0.3685 -0.3910 -0.0266
  224MOL0     O30153   6.319   5.011   7.014 -0.3156 -0.3571  0.6989
  224MOL0     C30154   6.591   5.091   7.036 -0.3456 -0.3794 -0.1449
  224MOL0     C30155   6.730   5.106   7.020 -0.1124 -0.2823 -0.2457
  224MOL0     N30156   7.505   5.385   7.076 -0.7745  0.1385  0.0376
  224MOL0     N30157   7.626   5.425   7.064  0.3920  0.0969 -0.0018
  224MOL0     C30158   8.954   5.245   7.077 -1.0535  0.4752  1.2114
  224MOL0     C30159   9.055   5.332   7.036  0.1177  0.1971 -0.0398
  224MOL0     C30160   9.241   5.714   6.829 -0.2450  0.1714 -0.1199
  224MOL0     C30161   9.366   5.667   6.796  0.3177  0.6162 -0.5963
  224MOL0     C30162   9.446   5.751   6.713  0.0751 -0.7566 -0.5572
  224MOL0     C30163   9.413   5.877   6.663  0.5606 -0.2334  0.0417
  224MOL0     O30164   9.492   5.944   6.567  0.1234 -0.0675  0.0666
  224MOL0     C30165   9.447   6.048   6.481 -0.3404 -0.6381 -0.1003
  224MOL0     C30166   9.354   5.994   6.377 -0.3436  0.4180  0.6383
  224MOL0     C30167   9.408   5.871   6.312 -0.1911  0.0635 -0.2151
  224MOL0     C30168   9.316   5.835   6.194 -0.2975  0.3756  0.8768
  224MOL0     C30169   9.400   5.795   6.080  0.1478  0.6186  0.2723
  224MOL0     C30170   9.477   5.769   5.985 -0.1148 -0.6354  0.2691
  224MOL0     C30171   9.293   5.923   6.712  0.4818  0.3677  0.7446
  224MOL0     C30172   9.205   5.849   6.790 -0.0403  0.0978 -0.8356
  224MOL0     H30173   8.941   5.450   6.746  3.2020  0.4098 -0.5327
  224MOL0     H30174   8.761   5.283   6.797 -0.8717 -0.1089  0.4961
  224MOL0     H30175   8.698   5.297   7.135  3.6816 -2.7091  0.2927
  224MOL0     H30176   8.604   5.289   6.979 -0.4816  1.6012  0.8350
  224MOL0     H30177   8.520   5.062   7.088  0.2356  0.9441 -0.0768
  224MOL0     H30178   8.593   5.111   7.229  0.8304 -0.9705 -1.1928
  224MOL0     H30179   8.423   5.307   7.249  2.7097 -0.9578 -0.3632
  224MOL0     H30180   8.386   5.276   7.074  2.5674  2.3346 -0.5085
  224MOL0     H30181   8.297   5.050   7.133  0.5078  0.6076 -0.9753
  224MOL0     H30182   8.363   5.079   7.296  1.0655  2.1776  0.9050
  224MOL0     H30183   8.105   5.082   7.259 -2.5725  1.6080 -1.2504
  224MOL0     H30184   8.164   5.227   7.344 -1.8129  2.1437 -0.1710
  224MOL0     H30185   8.127   5.355   7.139  1.3289 -0.9110  0.2349
  224MOL0     H30186   8.086   5.195   7.049 -5.0978 -2.1141  0.4044
  224MOL0     H30187   7.896   5.161   7.179  1.0288 -0.1787  3.6238
  224MOL0     H30188   7.918   5.317   7.269 -3.4781  0.1603 -1.1926
  224MOL0     H30189   7.897   5.300   6.968  2.2920 -1.8697  0.6264
  224MOL0     H30190   7.883   5.443   7.060 -0.2641 -0.0686 -1.9880
  224MOL0     H30191   7.672   5.109   7.086  1.0599  0.4060 -0.4863
  224MOL0     H30192   7.424   5.063   7.018 -0.1280 -1.3431  1.5958
  224MOL0     H30193   7.370   5.126   7.177  2.9482  2.8961  1.3105
  224MOL0     H30194   7.290   5.287   6.932  1.3321  0.9145 -0.0556
  224MOL0     H30195   7.209   5.273   7.092 -0.5858  0.3449 -1.7480
  224MOL0     H30196   7.208   5.021   7.035  3.0447  0.6947 -0.9909
  224MOL0     H30197   7.201   5.071   6.873 -0.0614 -2.6485  0.0923
  224MOL0     H30198   6.995   5.219   6.936  2.5962 -0.2381 -1.3074
  224MOL0     H30199   7.011   5.160   7.104  2.2968  1.7020 -0.0067
  224MOL0     H30200   6.813   4.790   6.937  0.4644  0.7105  0.1828
  224MOL0     H30201   6.466   4.702   6.962  0.0559 -2.3302  0.4020
  224MOL0     H30202   6.636   4.654   6.925  0.0539 -0.0054  0.3462
  224MOL0     H30203   6.585   4.662   7.090  2.7968  0.4537 -0.4696
  224MOL0     H30204   6.202   4.705   7.082  0.9774 -2.9745  3.0578
  224MOL0     H30205   5.971   4.681   7.172  1.3371 -1.4854  0.2659
  224MOL0     H30206   5.910   4.726   7.560 -0.6280 -0.1313  0.0602
  224MOL0     H30207   5.872   4.905   7.551 -0.1511 -0.4229  0.6567
  224MOL0     H30208   5.699   4.660   7.504  0.8448 -0.0522 -0.5139
  224MOL0     H30209   5.677   4.754   7.645 -1.6807 -5.6757 -0.2218
  224MOL0     H30210   5.627   4.827   7.350 -1.6784 -1.1684 -0.6666
  224MOL0     H30211   5.614   4.955   7.479 -2.4767 -0.3244  0.6996
  224MOL0     H30212   5.475   4.679   7.452  0.5851  0.3446 -0.6598
  224MOL0     H30213   5.441   4.788   7.592  2.0098 -0.3891  0.5374
  224MOL0     H30214   5.386   4.876   7.295  2.2549  1.6648  0.6744
  224MOL0     H30215   5.377   4.975   7.439 -0.8934  1.0938 -0.8050
  224MOL0     H30216   5.222   4.726   7.462  2.6176 -0.1781 -0.9490
  224MOL0     H30217   5.209   4.891   7.541 -0.2981 -0.7906  1.1912
  224MOL0     H30218   5.134   4.819   7.255 -0.4961  1.0650 -0.6998
  224MOL0     H30219   5.153   4.985   7.320 -2.6471  1.0036  0.8838
  224MOL0     H30220   4.981   4.916   7.500  1.0395 -0.4350  0.2362
  224MOL0     H30221   4.948   4.773   7.397 -1.9329  0.1258 -1.4920
  224MOL0     H30222   6.045   4.997   7.444 -0.2129  0.7270 -0.3371
  224MOL0     H30223   6.277   5.008   7.375  2.6076 -1.5116 -0.8779
  224MOL0     H30224   6.529   5.180   7.045  0.7396  0.5662 -1.5760
  224MOL0     H30225   6.761   5.210   7.020 -1.7067  0.2177  0.0252
  224MOL0     H30226   8.950   5.210   7.179 -1.5682  1.9330  1.7122
  224MOL0     H30227   9.142   5.346   7.099  0.7169 -1.5836 -0.4038
  224MOL0     H30228   9.391   5.563   6.816 -2.0492 -0.1948 -1.4675
  224MOL0     H30229   9.544   5.713   6.684  0.7755  1.5942 -1.5593
  224MOL0     H30230   9.402   6.121   6.549 -0.7696 -0.6361 -0.3907
  224MOL0     H30231   9.538   6.086   6.433 -0.9256  1.8565  0.6364
  224MOL0     H30232   9.317   6.062   6.300 -1.7241 -2.8994 -1.8649
  224MOL0     H30233   9.259   5.972   6.427  0.9328 -2.4845  2.0148
  224MOL0     H30234   9.417   5.781   6.374  1.3240  1.5806  1.9329
  224MOL0     H30235   9.508   5.894   6.274 -0.6075  2.6755  0.1162
  224MOL0     H30236   9.245   5.913   6.165 -3.0298 -2.3640 -0.3862
  224MOL0     H30237   9.253   5.751   6.225 -0.0399 -0.3928 -0.5916
  224MOL0     H30238   9.536   5.747   5.898  1.9154 -1.9539  1.8984
  224MOL0     H30239   9.261   6.024   6.688  1.7902  0.8609  0.9574
  224MOL0     H30240   9.111   5.895   6.820  0.8995  2.1328 -0.8716
  225MOL0     O30241   7.345   6.683   0.349 -0.5723 -0.4178 -0.4299
  225MOL0     C30242   7.401   6.593   0.411  0.5214  0.2198 -1.0028
  225MOL0     O30243   7.345   6.480   0.454 -0.1773  1.0728 -0.1691
  225MOL0     C30244   7.207   6.465   0.446  0.1410  0.5046 -0.0728
  225MOL0     C30245   7.152   6.388   0.352  0.0394  0.9515  0.4540
  225MOL0     C30246   7.013   6.386   0.332 -0.2710  0.5825 -0.3054
  225MOL0     C30247   6.936   6.448   0.432 -0.4715  0.8869 -0.2269
  225MOL0     O30248   6.799   6.437   0.426  0.1479 -0.4002 -0.9260
  225MOL0     C30249   6.722   6.565   0.425 -0.0310  0.1382 -0.1714
  225MOL0     C30250   6.582   6.524   0.403  0.2143 -1.1452 -0.3309
  225MOL0     C30251   6.482   6.632   0.364  0.5089 -0.3265  0.2919
  225MOL0     C30252   6.338   6.582   0.365 -0.8320 -0.3693  0.6409
  225MOL0     C30253   6.232   6.669   0.286 -0.3365  0.4765  0.5907
  225MOL0     C30254   6.096   6.599   0.295 -0.0256 -0.2150 -0.7327
  225MOL0     C30255   6.017   6.656   0.414  0.2452  0.3899 -0.0800
  225MOL0     C30256   5.881   6.592   0.437  0.1012 -0.6591  0.3558
  225MOL0     N30257   5.802   6.616   0.311 -0.1153 -0.4486  0.2644
  225MOL0     C30258   5.724   6.732   0.305 -0.1037 -0.5848 -0.3016
  225MOL0     C30259   5.658   6.723   0.191  0.3305 -0.5555 -0.3747
  225MOL0     C30260   5.553   6.820   0.139 -0.5328  0.0483 -0.1803
  225MOL0     C30261   5.435   6.808   0.240  0.6201 -0.6709  0.2159
  225MOL0     C30262   5.327   6.896   0.184 -0.0837 -0.8309 -0.0682
  225MOL0     C30263   5.286   6.999   0.285  0.3863 -0.2663  0.3070
  225MOL0     O30264   5.199   7.095   0.226  0.4795 -0.1407 -0.0433
  225MOL0     C30265   5.128   7.174   0.317 -0.7414 -0.8244  0.6223
  225MOL0     C30266   5.036   7.254   0.258 -0.7448  0.5989  0.1395
  225MOL0     C30267   4.943   7.326   0.329  0.1255 -0.7480  0.5190
  225MOL0     C30268   4.844   7.423   0.253  0.3115  0.1976 -1.1099
  225MOL0     C30269   4.942   7.333   0.466  0.4830  0.1148 -0.6730
  225MOL0     C30270   4.852   7.411   0.555 -0.4940  0.5162  0.7541
  225MOL0     O30271   4.817   7.342   0.659 -0.0201  0.8252  0.1272
  225MOL0     C30272   4.705   7.377   0.726 -0.0416 -0.8006  0.4813
  225MOL0     C30273   4.582   7.390   0.660  0.1510 -0.4970  0.0175
  225MOL0     C30274   4.472   7.427   0.737 -0.3732  0.4369 -0.4413
  225MOL0     C30275   4.483   7.470   0.872  0.1381  0.8060 -0.1502
  225MOL0     O30276   4.386   7.520   0.951 -0.1257  0.1314  0.2672
  225MOL0     C30277   4.257   7.562   0.905  0.5411  0.3133 -0.1251
  225MOL0     C30278   4.164   7.590   1.019 -0.5831 -0.2546 -0.5423
  225MOL0     C30279   4.033   7.646   0.968 -1.2475  0.0021  0.9058
  225MOL0     C30280   3.924   7.648   1.070  0.6136  0.6369 -0.1568
  225MOL0     C30281   3.789   7.645   0.998  0.3334  0.0259 -0.4886
  225MOL0     C30282   3.675   7.651   1.095 -0.4484  0.3315 -0.7485
  225MOL0     C30283   3.548   7.677   1.017 -0.0026 -0.4952 -0.0866
  225MOL0     C30284   3.423   7.674   1.106 -0.1431  0.9941 -0.6063
  225MOL0    Cl30285   3.376   7.503   1.128  0.0292  0.0477  0.1744
  225MOL0     C30286   4.607   7.457   0.938  0.9848 -0.6819  0.5090
  225MOL0     C30287   4.715   7.411   0.859 -0.8492 -0.3070  0.6352
  225MOL0     O30288   4.813   7.524   0.531  0.5750  0.7907 -0.2794
  225MOL0     C30289   5.038   7.252   0.535 -0.2838 -0.0953  0.1320
  225MOL0     C30290   5.126   7.172   0.457 -0.2005 -0.1956 -0.3954
  225MOL0     N30291   5.704   6.606   0.131  0.9261  0.1262  0.3497
  225MOL0     N30292   5.793   6.537   0.199  0.5209  0.4366 -1.0487
  225MOL0     C30293   6.995   6.529   0.536 -0.0458 -0.2049  0.3192
  225MOL0     C30294   7.128   6.531   0.542 -0.4507 -0.0123 -0.6197
  225MOL0     C30295   7.543   6.609   0.439  0.5906 -0.7688 -0.7206
  225MOL0     C30296   7.602   6.566   0.562 -0.5275  0.0758 -0.0236
  225MOL0     C30297   7.742   6.583   0.585 -0.0386  0.7046 -0.1837
  225MOL0     C30298   7.821   6.633   0.483 -0.1716 -0.4574  0.4707
  225MOL0     O30299   7.965   6.635   0.501  0.7364  0.1287  0.7418
  225MOL0     C30300   8.033   6.716   0.408  0.2656  0.8094 -1.2547
  225MOL0     C30301   8.181   6.730   0.444 -0.6760  0.2399 -0.8123
  225MOL0     C30302   8.259   6.592   0.455  1.9178 -0.1789 -0.1940
  225MOL0     C30303   8.408   6.610   0.421  0.7763 -0.0603  0.5616
  225MOL0     C30304   8.480   6.649   0.543 -0.1555  0.0056 -0.1490
  225MOL0     C30305   8.547   6.682   0.635 -0.5427  0.2507  0.3102
  225MOL0     C30306   7.761   6.675   0.362 -0.1813 -0.2797 -0.0422
  225MOL0     C30307   7.624   6.664   0.339 -0.0531  0.1489  1.2237
  225MOL0     H30308   7.217   6.343   0.277 -2.9640 -1.1284 -1.1366
  225MOL0     H30309   6.975   6.329   0.248  2.5103  1.4633 -2.3224
  225MOL0     H30310   6.740   6.616   0.520 -0.8339 -0.2718  0.2170
  225MOL0     H30311   6.759   6.637   0.352  0.1833  0.6053  0.3907
  225MOL0     H30312   6.588   6.445   0.327  1.8745 -2.4250  1.0491
  225MOL0     H30313   6.557   6.478   0.499  1.2784 -0.9587  0.0510
  225MOL0     H30314   6.483   6.720   0.429 -3.0624 -0.7213  1.0996
  225MOL0     H30315   6.487   6.669   0.261 -2.0911  2.1986  0.9296
  225MOL0     H30316   6.338   6.481   0.322 -3.1073 -1.2968  2.6107
  225MOL0     H30317   6.307   6.579   0.470  3.6157 -0.3536  2.1438
  225MOL0     H30318   6.225   6.775   0.313  0.4216  0.6531  0.1563
  225MOL0     H30319   6.263   6.666   0.181  1.5750 -2.0324  1.1417
  225MOL0     H30320   6.049   6.625   0.200 -3.0857 -0.5155  0.5836
  225MOL0     H30321   6.106   6.491   0.307 -0.9311 -0.1262  1.1372
  225MOL0     H30322   6.080   6.641   0.503  1.4733  2.3365 -0.5639
  225MOL0     H30323   6.002   6.763   0.403  1.8723  0.8511  1.6369
  225MOL0     H30324   5.840   6.658   0.514  1.9922  4.0689 -2.2327
  225MOL0     H30325   5.878   6.490   0.475  1.2042 -0.7886  0.1380
  225MOL0     H30326   5.712   6.813   0.376  0.1675 -1.2137  0.4775
  225MOL0     H30327   5.580   6.926   0.149  0.1459 -0.0631 -0.7900
  225MOL0     H30328   5.533   6.801   0.034 -2.8645 -1.5109  0.4593
  225MOL0     H30329   5.466   6.834   0.342 -1.4803 -4.4811  2.0173
  225MOL0     H30330   5.394   6.707   0.243 -0.1430 -0.3375  1.9950
  225MOL0     H30331   5.239   6.846   0.144  0.1004 -1.5750  0.4349
  225MOL0     H30332   5.365   6.952   0.098 -1.0389 -1.0084 -0.6129
  225MOL0     H30333   5.370   7.054   0.330  1.1253  0.3248 -1.6876
  225MOL0     H30334   5.229   6.944   0.360 -1.3041  0.3860 -0.4389
  225MOL0     H30335   5.044   7.260   0.150 -1.3095 -1.7205 -0.0670
  225MOL0     H30336   4.838   7.416   0.144 -0.8954 -2.6581 -0.9632
  225MOL0     H30337   4.745   7.420   0.300  1.1699  0.9027  0.8655
  225MOL0     H30338   4.883   7.523   0.273  0.1201  0.1023 -0.2137
  225MOL0     H30339   4.575   7.351   0.559 -1.5402  0.1012 -0.1268
  225MOL0     H30340   4.375   7.424   0.688 -1.6885  0.0791  2.0141
  225MOL0     H30341   4.264   7.654   0.845  0.0685  1.0420  0.9038
  225MOL0     H30342   4.205   7.482   0.852 -0.4057 -0.3532  1.7453
  225MOL0     H30343   4.137   7.495   1.066 -0.3581 -1.4340 -2.6577
  225MOL0     H30344   4.212   7.653   1.093  1.5851 -1.3171 -0.9713
  225MOL0     H30345   3.997   7.582   0.887 -2.3749  1.3850  0.2741
  225MOL0     H30346   4.047   7.741   0.916 -2.7210 -1.3196 -2.1395
  225MOL0     H30347   3.935   7.559   1.132  0.5174  2.1376  2.1300
  225MOL0     H30348   3.937   7.736   1.134  1.0555 -1.0238  2.1737
  225MOL0     H30349   3.796   7.554   0.938  0.6405 -0.7297  0.6536
  225MOL0     H30350   3.790   7.735   0.935  0.0938  2.0550  2.2107
  225MOL0     H30351   3.668   7.554   1.145  0.6815  0.3685 -0.4908
  225MOL0     H30352   3.695   7.730   1.168 -0.4664 -0.2819 -0.0665
  225MOL0     H30353   3.537   7.615   0.928 -2.4902  1.3839 -1.2422
  225MOL0     H30354   3.552   7.782   0.985 -0.8256  0.1789  1.8761
  225MOL0     H30355   3.346   7.732   1.054 -2.6113 -0.1993  1.4746
  225MOL0     H30356   3.429   7.719   1.205 -0.1539 -2.0630  0.8881
  225MOL0     H30357   4.617   7.480   1.044  1.5558 -1.8198  0.7201
  225MOL0     H30358   4.812   7.406   0.908 -1.1093  0.5576  1.2661
  225MOL0     H30359   5.046   7.253   0.643  2.7607  1.1732 -0.0132
  225MOL0     H30360   5.186   7.093   0.502 -1.4674 -1.5366 -0.9652
  225MOL0     H30361   6.938   6.583   0.612 -1.6697  0.6134 -1.3946
  225MOL0     H30362   7.175   6.595   0.616  0.7605  1.4944 -2.5737
  225MOL0     H30363   7.540   6.522   0.640 -0.3797 -0.9082 -0.4531
  225MOL0     H30364   7.784   6.545   0.678 -0.0309 -0.2663 -0.5754
  225MOL0     H30365   8.033   6.681   0.305  0.6511  1.3999 -1.4533
  225MOL0     H30366   8.004   6.821   0.416 -1.4336  0.2730  1.0274
  225MOL0     H30367   8.180   6.767   0.547 -3.0715  1.5551 -1.2438
  225MOL0     H30368   8.237   6.802   0.384  0.2540 -1.3772 -1.9550
  225MOL0     H30369   8.209   6.519   0.390 -1.8132 -0.2197  2.3755
  225MOL0     H30370   8.244   6.553   0.556 -2.5486  0.3089 -0.4505
  225MOL0     H30371   8.411   6.689   0.345  0.4092 -0.4009  0.1867
  225MOL0     H30372   8.448   6.520   0.374  3.5952  0.4290  1.8497
  225MOL0     H30373   8.593   6.711   0.727  0.1925 -0.7230  0.2642
  225MOL0     H30374   7.813   6.713   0.275 -3.5468  2.9234 -0.9609
  225MOL0     H30375   7.572   6.697   0.249 -0.8157 -5.2614 -0.7353
  226MOL0     O30376   7.346   0.117   8.771  0.6148  0.4092  0.3135
  226MOL0     C30377   7.318   0.150   8.656 -1.0738  0.2660  0.9934
  226MOL0     O30378   7.194   0.158   8.600  0.1550  0.1427  0.0360
  226MOL0     C30379   7.076   0.141   8.674  0.0609 -0.9568  0.0267
  226MOL0     C30380   6.964   0.219   8.645  0.2201 -0.5129  0.4070
  226MOL0     C30381   6.843   0.200   8.714 -0.3720 -0.2940 -1.4911
  226MOL0     C30382   6.830   0.108   8.818 -0.0461 -0.5180  0.4515
  226MOL0     O30383   6.715   0.084   8.891 -0.6997 -0.7860  0.0494
  226MOL0     C30384   6.593   0.089   8.810 -0.1636  0.7179 -0.1827
  226MOL0     C30385   6.491  -0.005   8.883  0.5833 -0.4418  0.1494
  226MOL0     C30386   6.388  -0.052   8.773 -0.2681 -0.3929 -0.2233
  226MOL0     C30387   6.251  -0.040   8.832  0.6857  0.3981 -0.5544
  226MOL0     C30388   6.132  -0.109   8.754  0.2258  0.0074 -0.8832
  226MOL0     C30389   6.003  -0.098   8.840 -0.2444  0.3715 -0.2813
  226MOL0     C30390   5.879  -0.178   8.785  0.4489 -0.5117 -1.4194
  226MOL0     C30391   5.775  -0.215   8.888  0.2227  0.5297  0.6964
  226MOL0     N30392   5.654  -0.271   8.819  0.2061 -0.7152  0.4364
  226MOL0     C30393   5.648  -0.381   8.738  0.6189 -0.2513  0.4339
  226MOL0     C30394   5.517  -0.407   8.725 -0.2835  0.2605 -0.1268
  226MOL0     C30395   5.461  -0.511   8.634 -0.5271 -0.6074  0.0552
  226MOL0     C30396   5.326  -0.463   8.580 -0.0067  0.1221  0.0008
  226MOL0     C30397   5.336  -0.350   8.481 -0.4006 -0.7916  0.1444
  226MOL0     C30398   5.196  -0.287   8.467 -0.0268  0.1614  0.1083
  226MOL0     O30399   5.110  -0.397   8.428 -0.2256  0.0726 -0.3551
  226MOL0     C30400   4.972  -0.379   8.429 -0.7089  0.2336  0.7078
  226MOL0     C30401   4.899  -0.493   8.419 -0.9970  0.2615  0.0220
  226MOL0     C30402   4.764  -0.507   8.388  0.4731 -0.2965  0.0050
  226MOL0     C30403   4.694  -0.645   8.375 -0.3979 -0.0226 -0.1148
  226MOL0     C30404   4.686  -0.390   8.380  0.6435  0.6613  0.0232
  226MOL0     C30405   4.538  -0.383   8.343  0.5820 -0.5670  0.5015
  226MOL0     O30406   4.485  -0.466   8.246  0.2745  0.1219 -0.1354
  226MOL0     C30407   4.379  -0.418   8.169 -0.0910  0.0735 -0.5907
  226MOL0     C30408   4.264  -0.369   8.223  0.3257 -0.7341  0.0605
  226MOL0     C30409   4.177  -0.285   8.147 -0.1662  0.3041 -0.5056
  226MOL0     C30410   4.187  -0.278   8.010 -0.2989 -0.0408 -0.7003
  226MOL0     O30411   4.102  -0.188   7.958 -0.3702  0.0303 -0.5857
  226MOL0     C30412   4.139  -0.119   7.833  0.2242  0.6350 -0.0902
  226MOL0     C30413   4.072   0.013   7.821 -0.4296 -0.2870 -0.1309
  226MOL0     C30414   3.936  -0.010   7.769 -0.2077  1.1162  0.2590
  226MOL0     C30415   3.847   0.115   7.810  0.5363  0.1048  1.3717
  226MOL0     C30416   3.698   0.095   7.798  0.2241 -0.0132 -0.6034
  226MOL0     C30417   3.608   0.174   7.888  0.1011  0.6691  0.0937
  226MOL0     C30418   3.628   0.165   8.044  0.0698  0.2357  0.2105
  226MOL0     C30419   3.622   0.021   8.112 -0.4357 -0.6231  0.4593
  226MOL0    Cl30420   3.456  -0.042   8.059  0.0847  0.3138 -0.1645
  226MOL0     C30421   4.299  -0.345   7.949 -0.0707  0.0796  0.1389
  226MOL0     C30422   4.395  -0.415   8.031 -0.7278  0.4138 -0.4221
  226MOL0     O30423   4.480  -0.276   8.377  0.0259 -0.0096  0.2202
  226MOL0     C30424   4.755  -0.269   8.391 -0.2036 -0.1306 -0.9008
  226MOL0     C30425   4.893  -0.262   8.420 -0.0022  0.6536  0.2746
  226MOL0     N30426   5.447  -0.313   8.792  0.1459  0.1154  0.1831
  226MOL0     N30427   5.529  -0.237   8.861  0.8974  0.1494  0.9897
  226MOL0     C30428   6.946   0.029   8.843 -0.0722  1.2058  0.1428
  226MOL0     C30429   7.062   0.042   8.766  0.2126 -0.4704 -0.3393
  226MOL0     C30430   7.432   0.197   8.564  0.0037 -0.0026 -0.0204
  226MOL0     C30431   7.393   0.243   8.433 -0.2299  0.5079 -0.5177
  226MOL0     C30432   7.494   0.286   8.346 -0.0216 -0.7388 -0.2970
  226MOL0     C30433   7.625   0.278   8.378  0.2050  0.0547  0.4062
  226MOL0     O30434   7.706   0.322   8.275 -0.2498  0.4711 -0.4797
  226MOL0     C30435   7.845   0.320   8.311 -0.2084  0.1011 -0.3738
  226MOL0     C30436   7.925   0.352   8.187  0.5930 -1.1201 -0.8965
  226MOL0     C30437   8.071   0.382   8.210  0.3769 -0.0635 -1.1067
  226MOL0     C30438   8.138   0.273   8.292 -0.1401 -0.0305  0.1691
  226MOL0     C30439   8.281   0.296   8.269  0.5108 -0.1075  0.0125
  226MOL0     C30440   8.389   0.332   8.234  0.4560  0.0748 -0.3757
  226MOL0     C30441   7.669   0.227   8.504 -0.5558  0.5025 -0.6863
  226MOL0     C30442   7.569   0.187   8.595 -0.1972 -1.2925  1.1926
  226MOL0     H30443   6.976   0.292   8.565  2.0558 -0.4015  0.7337
  226MOL0     H30444   6.761   0.265   8.686 -0.5102  0.2141 -0.0216
  226MOL0     H30445   6.550   0.188   8.796  0.0425  1.0629  1.4526
  226MOL0     H30446   6.611   0.057   8.706 -3.0598  1.2681 -0.9545
  226MOL0     H30447   6.525  -0.093   8.938 -3.0898 -2.4207 -0.4261
  226MOL0     H30448   6.444   0.060   8.957  1.4472  0.3955 -0.0218
  226MOL0     H30449   6.398   0.011   8.684 -0.8216  0.0972  0.0570
  226MOL0     H30450   6.414  -0.152   8.736  2.1216 -0.1315  0.5542
  226MOL0     H30451   6.252  -0.084   8.932  0.6870  0.8886 -0.3344
  226MOL0     H30452   6.217   0.064   8.838 -0.2336  0.1018 -0.6315
  226MOL0     H30453   6.124  -0.056   8.659  0.3624  1.0001 -0.3579
  226MOL0     H30454   6.155  -0.215   8.740  0.3711  0.0974 -1.3465
  226MOL0     H30455   6.019  -0.120   8.945  0.8006 -0.2768 -0.5620
  226MOL0     H30456   5.970   0.007   8.846 -2.2242 -0.2923  2.6897
  226MOL0     H30457   5.829  -0.111   8.715 -0.8601 -1.7687 -1.7236
  226MOL0     H30458   5.912  -0.268   8.731  1.6906 -0.1686 -1.2677
  226MOL0     H30459   5.753  -0.128   8.951 -1.2345  1.1931 -0.6260
  226MOL0     H30460   5.819  -0.301   8.938  3.1542 -0.4075 -3.0443
  226MOL0     H30461   5.723  -0.452   8.706 -0.8094 -3.6594  3.8390
  226MOL0     H30462   5.524  -0.532   8.547 -3.1644 -1.4917 -1.7550
  226MOL0     H30463   5.445  -0.609   8.680 -1.6168 -0.7704 -0.6454
  226MOL0     H30464   5.259  -0.439   8.664 -2.6847 -2.8720 -1.1152
  226MOL0     H30465   5.287  -0.555   8.538  1.3535 -0.5083  0.0691
  226MOL0     H30466   5.389  -0.378   8.389 -0.9848 -1.4392  0.0011
  226MOL0     H30467   5.395  -0.267   8.522 -0.4716 -0.3074 -0.6958
  226MOL0     H30468   5.180  -0.212   8.388 -1.0416  0.4965  0.6205
  226MOL0     H30469   5.158  -0.253   8.563 -0.9124 -1.8413  0.5185
  226MOL0     H30470   4.943  -0.592   8.427 -0.7068  0.3737 -0.1792
  226MOL0     H30471   4.614  -0.663   8.448  0.4172 -0.5050  0.6933
  226MOL0     H30472   4.649  -0.657   8.277 -1.2218 -1.4461  0.4044
  226MOL0     H30473   4.772  -0.720   8.393  2.0083  2.6063  1.2534
  226MOL0     H30474   4.255  -0.391   8.329  0.5153 -1.2238 -0.0211
  226MOL0     H30475   4.102  -0.239   8.210  0.8829 -0.6384  1.5573
  226MOL0     H30476   4.247  -0.102   7.832  0.2344  0.5584 -0.5212
  226MOL0     H30477   4.105  -0.178   7.747  1.0897  2.8848 -2.1055
  226MOL0     H30478   4.076   0.070   7.914 -0.5190 -1.4517  0.6149
  226MOL0     H30479   4.129   0.059   7.739  0.9580  0.6529  1.3094
  226MOL0     H30480   3.904  -0.105   7.814  2.8579  1.1196  2.7872
  226MOL0     H30481   3.945  -0.036   7.663 -2.0673  0.7973  0.1423
  226MOL0     H30482   3.864   0.148   7.913 -0.4312  3.1127  0.6535
  226MOL0     H30483   3.874   0.203   7.752 -0.5265 -2.1122 -2.9201
  226MOL0     H30484   3.676  -0.009   7.823 -1.2878  0.4590  0.1601
  226MOL0     H30485   3.669   0.116   7.694  0.6099  0.4934 -0.6107
  226MOL0     H30486   3.612   0.277   7.853 -3.9329 -0.5035 -5.0577
  226MOL0     H30487   3.505   0.145   7.866  0.6702 -0.2763 -1.5398
  226MOL0     H30488   3.559   0.235   8.093  1.3958  1.7814 -0.0478
  226MOL0     H30489   3.725   0.214   8.054  0.2074  0.2450 -1.0247
  226MOL0     H30490   3.623   0.021   8.222  2.5282 -0.2054  0.5007
  226MOL0     H30491   3.700  -0.039   8.065 -0.0985  0.9028 -1.0453
  226MOL0     H30492   4.320  -0.334   7.843 -0.5933 -0.1722  0.0069
  226MOL0     H30493   4.487  -0.454   7.990  0.1104  0.8342  0.9996
  226MOL0     H30494   4.696  -0.178   8.385 -2.3983 -1.1211  2.7316
  226MOL0     H30495   4.941  -0.165   8.423  1.6060 -0.1224  0.4741
  226MOL0     H30496   6.941  -0.063   8.899  0.8190  1.3769  0.5220
  226MOL0     H30497   7.143  -0.021   8.801  0.7271  1.0022  1.2889
  226MOL0     H30498   7.289   0.243   8.404 -1.1930 -1.7224  2.4700
  226MOL0     H30499   7.454   0.322   8.252 -2.2396  0.8286  1.1646
  226MOL0     H30500   7.858   0.383   8.399 -1.1392  2.7120 -1.9923
  226MOL0     H30501   7.876   0.218   8.335  1.0104 -0.1422 -2.7208
  226MOL0     H30502   7.891   0.449   8.148  0.7555 -1.4882 -1.9561
  226MOL0     H30503   7.905   0.289   8.101 -2.0196  1.7689 -2.6397
  226MOL0     H30504   8.078   0.475   8.268 -0.5354 -0.1841 -0.7969
  226MOL0     H30505   8.123   0.408   8.117  1.3374 -1.5232 -1.0165
  226MOL0     H30506   8.111   0.177   8.247  1.7869 -1.1554  1.2508
  226MOL0     H30507   8.111   0.282   8.398  0.8149 -0.5724  0.4767
  226MOL0     H30508   8.484   0.369   8.202 -0.0858 -0.1393 -2.3412
  226MOL0     H30509   7.775   0.210   8.517 -0.5766  0.0353 -1.0750
  226MOL0     H30510   7.592   0.162   8.698 -0.0201 -1.9386  1.0057
  227MOL0     O30511   6.404   0.290   8.109 -0.4211  0.0130 -0.3825
  227MOL0     C30512   6.386   0.328   7.992 -0.4651 -0.1729  0.1965
  227MOL0     O30513   6.259   0.347   7.939 -0.8511 -0.5265 -0.3813
  227MOL0     C30514   6.147   0.304   7.998 -0.5490 -0.6159  0.4417
  227MOL0     C30515   6.111   0.341   8.130 -0.6587  1.4174 -0.2861
  227MOL0     C30516   5.986   0.296   8.183  0.8392  1.0922 -0.0763
  227MOL0     C30517   5.902   0.212   8.106 -0.2635 -0.1809  0.8313
  227MOL0     O30518   5.785   0.172   8.158 -0.3684 -0.4977  0.3109
  227MOL0     C30519   5.670   0.146   8.071  0.3759  0.1840 -0.9366
  227MOL0     C30520   5.545   0.192   8.146  0.7360 -0.6263  0.2758
  227MOL0     C30521   5.431   0.228   8.048 -0.2554 -0.4850 -0.9023
  227MOL0     C30522   5.457   0.359   7.967  0.5863  1.2531 -0.5762
  227MOL0     C30523   5.445   0.476   8.065  0.0172  0.9139  0.0590
  227MOL0     C30524   5.427   0.614   8.000 -0.1088  0.0188 -0.0499
  227MOL0     C30525   5.284   0.634   7.960 -0.8638 -0.2773 -0.5085
  227MOL0     C30526   5.240   0.776   7.972  0.8574  0.9926  0.3195
  227MOL0     N30527   5.219   0.812   8.107  0.4608  0.0323 -0.3252
  227MOL0     C30528   5.116   0.775   8.193 -0.3292 -0.5737 -0.1510
  227MOL0     C30529   5.129   0.863   8.293  0.8562 -0.8089  0.4777
  227MOL0     C30530   5.052   0.852   8.428  0.4446 -0.2585 -0.0945
  227MOL0     C30531   4.908   0.925   8.448  0.3015  0.0270 -0.0056
  227MOL0     C30532   4.828   0.870   8.570 -0.0722 -0.5119 -0.0466
  227MOL0     C30533   4.691   0.942   8.586 -0.8982  0.6952  0.1480
  227MOL0     O30534   4.715   1.056   8.672  0.3867 -0.2141  0.1630
  227MOL0     C30535   4.609   1.132   8.717 -1.3168 -0.3497  0.6762
  227MOL0     C30536   4.639   1.234   8.813 -1.0372  0.1030  0.2355
  227MOL0     C30537   4.533   1.311   8.856 -0.2588  0.0160 -0.0833
  227MOL0     C30538   4.569   1.422   8.959 -0.8749 -1.0733 -0.1631
  227MOL0     C30539   4.402   1.297   8.823 -0.0168  0.7465 -0.0107
  227MOL0     C30540   4.291   1.376   8.877 -0.3174  0.2093  0.1884
  227MOL0     O30541   4.167   1.314   8.864 -0.2335 -0.0525 -0.1897
  227MOL0     C30542   4.056   1.397   8.879 -0.5062 -0.5008  0.0574
  227MOL0     C30543   4.020   1.523   8.815  0.4025  0.7185 -0.5239
  227MOL0     C30544   3.903   1.591   8.858  0.6742 -0.2220 -0.5649
  227MOL0     C30545   3.825   1.545   8.965  0.1252 -0.5051 -0.9057
  227MOL0     O30546   3.718   1.603   9.028 -0.0860 -0.0771 -0.4511
  227MOL0     C30547   3.694   1.741   9.006 -0.6198  1.0022 -0.2049
  227MOL0     C30548   3.620   1.804   9.116  0.7822 -0.1275  0.1060
  227MOL0     C30549   3.694   1.793   9.246  0.4723  0.3240 -0.0124
  227MOL0     C30550   3.671   1.907   9.344  0.7960  0.0044 -0.4505
  227MOL0     C30551   3.720   1.864   9.484 -1.0031  0.8613 -0.2766
  227MOL0     C30552   3.720   1.991   9.573  0.2839  0.1352  0.2117
  227MOL0     C30553   3.772   1.945   9.714 -0.2454 -0.7619 -0.2353
  227MOL0     C30554   3.750   2.067   9.812  0.3613 -0.3440 -0.6556
  227MOL0    Cl30555   3.583   2.113   9.819 -0.1476  0.3142  0.5246
  227MOL0     C30556   3.872   1.423   9.023 -0.0225 -1.1242 -0.0684
  227MOL0     C30557   3.977   1.354   8.977  0.1877  0.1464 -0.0090
  227MOL0     O30558   4.303   1.487   8.926  0.6099 -1.0053  0.2011
  227MOL0     C30559   4.373   1.193   8.731  0.3989 -0.0824  0.8576
  227MOL0     C30560   4.475   1.117   8.676 -0.9099  0.4377  0.6377
  227MOL0     N30561   5.233   0.948   8.276 -0.3248 -0.5186  0.2800
  227MOL0     N30562   5.286   0.909   8.164  0.1386 -0.0312  0.8239
  227MOL0     C30563   5.935   0.197   7.971 -0.3550 -0.3500 -0.7613
  227MOL0     C30564   6.054   0.239   7.916 -0.6845  0.1683 -0.5429
  227MOL0     C30565   6.500   0.356   7.908  0.1203  0.5731 -0.6476
  227MOL0     C30566   6.629   0.329   7.952 -0.0228 -0.4342 -0.4414
  227MOL0     C30567   6.740   0.351   7.866  0.1761 -0.1748 -1.0083
  227MOL0     C30568   6.727   0.401   7.734 -0.3794  0.8743 -0.6290
  227MOL0     O30569   6.827   0.422   7.640  0.4192 -0.3369 -0.3631
  227MOL0     C30570   6.963   0.406   7.673  1.2486 -0.2870  0.1676
  227MOL0     C30571   7.048   0.483   7.571  0.3005  0.2543 -0.6847
  227MOL0     C30572   7.193   0.469   7.617  0.3785 -0.7076 -0.1770
  227MOL0     C30573   7.296   0.566   7.562 -0.0229 -0.1736  0.3539
  227MOL0     C30574   7.428   0.536   7.606 -0.5274 -0.8888  0.7150
  227MOL0     C30575   7.546   0.533   7.644  0.3291 -0.6680 -0.7271
  227MOL0     C30576   6.597   0.432   7.695  0.0675  0.0159  0.7700
  227MOL0     C30577   6.489   0.405   7.778 -0.2106 -0.2854 -0.1731
  227MOL0     H30578   6.174   0.412   8.182  0.6387  1.5407 -1.9312
  227MOL0     H30579   5.959   0.328   8.283 -1.2743  0.7716 -0.4839
  227MOL0     H30580   5.678   0.203   7.978 -1.7985  3.2430  0.5678
  227MOL0     H30581   5.669   0.041   8.043  2.0357 -0.5287  1.3600
  227MOL0     H30582   5.495   0.116   8.207 -1.0659 -0.7138 -1.2279
  227MOL0     H30583   5.573   0.281   8.205  0.0932 -1.2303  1.5387
  227MOL0     H30584   5.423   0.137   7.987  0.5921 -2.2850  1.5326
  227MOL0     H30585   5.341   0.224   8.110  0.4243 -1.8837  0.0243
  227MOL0     H30586   5.556   0.362   7.920  0.1013  0.3648 -1.6736
  227MOL0     H30587   5.374   0.363   7.897 -0.9590  1.3360  1.1854
  227MOL0     H30588   5.361   0.447   8.129  0.3487  0.7445  0.4230
  227MOL0     H30589   5.534   0.474   8.129  1.1929 -2.6737 -1.4144
  227MOL0     H30590   5.462   0.692   8.068  1.1020 -0.2994 -0.2902
  227MOL0     H30591   5.482   0.617   7.905  2.6628  2.2261  1.4842
  227MOL0     H30592   5.280   0.591   7.860 -2.0862 -0.0598 -0.5730
  227MOL0     H30593   5.206   0.583   8.017 -1.5352 -0.6714 -1.7384
  227MOL0     H30594   5.143   0.795   7.925  0.8898  2.1830  0.7074
  227MOL0     H30595   5.309   0.842   7.919  0.6140 -0.0519 -1.3806
  227MOL0     H30596   5.044   0.694   8.184 -1.7159  0.6030 -0.1200
  227MOL0     H30597   5.035   0.745   8.437  2.1268 -0.4452  1.5395
  227MOL0     H30598   5.103   0.885   8.520 -2.2542  0.9940  1.0661
  227MOL0     H30599   4.852   0.917   8.354 -0.0730  0.0850  0.2145
  227MOL0     H30600   4.931   1.032   8.449  2.0300 -0.2231 -2.6360
  227MOL0     H30601   4.883   0.887   8.663  1.2395  1.4461 -1.0997
  227MOL0     H30602   4.799   0.767   8.550  0.2809 -0.7568  0.6785
  227MOL0     H30603   4.618   0.869   8.624 -0.0630 -0.1308  0.1896
  227MOL0     H30604   4.660   0.973   8.486  1.3896  0.4439 -0.6838
  227MOL0     H30605   4.743   1.243   8.842 -1.6637  0.2039  2.6674
  227MOL0     H30606   4.566   1.524   8.921  3.6513 -0.8704 -0.4409
  227MOL0     H30607   4.521   1.418   9.057 -0.3866  1.2681  0.2207
  227MOL0     H30608   4.675   1.407   8.981 -0.1622  3.0749 -0.0319
  227MOL0     H30609   4.092   1.561   8.744  1.9627 -1.0388  0.0244
  227MOL0     H30610   3.858   1.678   8.810 -0.5102 -0.0649  0.7462
  227MOL0     H30611   3.784   1.803   8.997  0.5852 -0.8939 -2.5276
  227MOL0     H30612   3.637   1.753   8.913 -0.7451  2.6925  0.0732
  227MOL0     H30613   3.609   1.909   9.090 -2.8381 -0.9918 -2.7180
  227MOL0     H30614   3.522   1.759   9.134  0.0010  1.8253  0.9201
  227MOL0     H30615   3.800   1.775   9.229  1.1839  1.2307  2.8908
  227MOL0     H30616   3.652   1.701   9.289 -1.4913  0.7743 -0.8666
  227MOL0     H30617   3.717   2.001   9.310  0.0767  0.6514  0.3108
  227MOL0     H30618   3.563   1.924   9.349  0.6871 -1.0491  1.6234
  227MOL0     H30619   3.823   1.831   9.465 -1.1945 -0.7115  1.1243
  227MOL0     H30620   3.654   1.782   9.513 -0.8633  1.0529  0.6208
  227MOL0     H30621   3.787   2.062   9.525 -1.2568 -0.6430 -3.4822
  227MOL0     H30622   3.621   2.037   9.572  0.0345 -0.3558  1.0914
  227MOL0     H30623   3.873   1.905   9.703  0.2139  0.6445 -1.5475
  227MOL0     H30624   3.702   1.865   9.738 -1.4889 -0.2768 -2.0185
  227MOL0     H30625   3.819   2.147   9.786  3.7860 -2.4483  1.2561
  227MOL0     H30626   3.774   2.053   9.917 -2.3482 -1.1058 -0.0473
  227MOL0     H30627   3.814   1.384   9.106 -1.4537  1.2304  0.1276
  227MOL0     H30628   4.017   1.267   9.027 -0.9993 -0.0618  0.6187
  227MOL0     H30629   4.273   1.172   8.693  1.3028 -2.3344 -0.4607
  227MOL0     H30630   4.433   1.044   8.609 -3.3530  1.3673  1.0175
  227MOL0     H30631   5.878   0.135   7.903  0.7898 -1.4453 -0.7671
  227MOL0     H30632   6.072   0.232   7.810  0.4197  5.3399 -0.9598
  227MOL0     H30633   6.646   0.301   8.055 -2.0524  4.1274  1.4002
  227MOL0     H30634   6.837   0.318   7.899  0.4411  1.6889  0.2102
  227MOL0     H30635   6.980   0.432   7.777 -0.8206 -2.4874  1.1749
  227MOL0     H30636   6.978   0.299   7.655 -1.2688 -0.4107 -1.9627
  227MOL0     H30637   7.018   0.588   7.575  0.4937  0.5123 -3.7657
  227MOL0     H30638   7.037   0.448   7.468  0.3673  0.1658 -0.6620
  227MOL0     H30639   7.220   0.369   7.581 -0.9461 -0.0045 -3.4789
  227MOL0     H30640   7.179   0.481   7.725 -0.7477  0.3416 -0.4161
  227MOL0     H30641   7.263   0.659   7.608  1.8048 -0.2786  2.0360
  227MOL0     H30642   7.300   0.576   7.453  0.8571  1.9616  0.5438
  227MOL0     H30643   7.650   0.527   7.670  0.2684 -0.0884 -0.3162
  227MOL0     H30644   6.572   0.469   7.596 -2.9842 -1.1834  0.9785
  227MOL0     H30645   6.389   0.426   7.741 -0.4416  0.4536  0.8245
  228MOL0     O30646   1.822   3.140   4.910 -0.5251 -0.6071 -0.9331
  228MOL0     C30647   1.751   3.221   4.968  0.5499 -0.1806 -0.7539
  228MOL0     O30648   1.790   3.305   5.070  0.4932  0.2204 -0.2202
  228MOL0     C30649   1.884   3.271   5.165  0.6436 -0.3994  0.1543
  228MOL0     C30650   1.906   3.142   5.197 -0.1199  0.1146 -0.6300
  228MOL0     C30651   1.997   3.101   5.296 -0.0751 -0.4771 -0.3887
  228MOL0     C30652   2.071   3.203   5.359 -0.2516 -2.5001 -0.0580
  228MOL0     O30653   2.161   3.179   5.451 -0.2693  0.3819 -0.6548
  228MOL0     C30654   2.110   3.124   5.573  0.0768 -0.1737 -0.4155
  228MOL0     C30655   2.232   3.095   5.671 -0.0844 -0.4164  0.8714
  228MOL0     C30656   2.334   2.999   5.601 -0.3160 -0.0919  0.0292
  228MOL0     C30657   2.442   2.957   5.692 -0.8219 -0.5958 -0.6864
  228MOL0     C30658   2.567   2.888   5.627 -0.2282  0.3861 -0.1222
  228MOL0     C30659   2.546   2.774   5.537  0.7293  0.4325  0.9068
  228MOL0     C30660   2.448   2.664   5.594  0.7129 -0.2458 -0.5080
  228MOL0     C30661   2.384   2.579   5.480 -0.2376 -0.9284  0.3339
  228MOL0     N30662   2.300   2.650   5.384  0.2495 -0.3701  0.6943
  228MOL0     C30663   2.317   2.649   5.243  0.4352  0.2752 -0.4186
  228MOL0     C30664   2.220   2.730   5.198  0.0984  0.8186 -0.0585
  228MOL0     C30665   2.186   2.767   5.051  0.3193 -0.7714  0.8936
  228MOL0     C30666   2.276   2.894   5.008  0.3108 -0.4302 -0.4876
  228MOL0     C30667   2.234   3.027   5.078  0.0816 -0.0722 -0.2993
  228MOL0     C30668   2.349   3.134   5.055 -0.2079  0.4372 -0.1755
  228MOL0     O30669   2.358   3.159   4.916 -0.4074 -0.4347  0.4985
  228MOL0     C30670   2.299   3.267   4.854 -0.3618  0.3338  0.3713
  228MOL0     C30671   2.366   3.344   4.748 -0.0871 -0.3150 -0.3473
  228MOL0     C30672   2.297   3.441   4.674 -0.2510  0.0188 -0.5355
  228MOL0     C30673   2.378   3.511   4.566  0.4656  0.0100 -0.8334
  228MOL0     C30674   2.170   3.477   4.716  0.3729  0.3040 -0.6659
  228MOL0     C30675   2.093   3.586   4.647  0.4816 -0.0583 -0.8177
  228MOL0     O30676   1.961   3.589   4.682 -0.0899  0.1580 -0.8358
  228MOL0     C30677   1.861   3.661   4.624  0.0102  0.5367  0.2538
  228MOL0     C30678   1.872   3.723   4.498 -0.9756 -0.2331  1.1208
  228MOL0     C30679   1.760   3.788   4.450 -0.3728 -0.4890  0.0607
  228MOL0     C30680   1.631   3.786   4.512 -0.3067 -1.1023  0.5611
  228MOL0     O30681   1.525   3.869   4.474  0.7426  0.0064  0.5219
  228MOL0     C30682   1.538   3.926   4.342 -0.0387 -0.2195  0.3083
  228MOL0     C30683   1.409   4.009   4.303 -0.8983 -0.5379  0.0427
  228MOL0     C30684   1.371   4.106   4.411  0.9632 -0.7125  0.5393
  228MOL0     C30685   1.255   4.204   4.389  0.6646  0.4628 -0.0085
  228MOL0     C30686   1.118   4.145   4.400  0.0531 -0.3307 -0.0302
  228MOL0     C30687   1.024   4.255   4.341 -0.5929 -0.6535  0.4801
  228MOL0     C30688   0.884   4.210   4.369  0.1425 -0.1704  0.5395
  228MOL0     C30689   0.778   4.313   4.349  0.6264 -0.3341 -0.2916
  228MOL0    Cl30690   0.791   4.414   4.501 -0.4344 -0.0944  0.3813
  228MOL0     C30691   1.619   3.720   4.630 -0.1628  0.3654  0.2428
  228MOL0     C30692   1.734   3.659   4.683  0.0034  0.6785  0.0938
  228MOL0     O30693   2.147   3.663   4.574 -0.5480  0.1915 -0.4415
  228MOL0     C30694   2.115   3.413   4.829  0.2710 -0.5046 -0.2407
  228MOL0     C30695   2.174   3.308   4.898  0.0569 -0.1725 -0.1339
  228MOL0     N30696   2.161   2.790   5.305 -0.1930 -0.3165  0.4146
  228MOL0     N30697   2.204   2.740   5.413  0.7450 -0.3669  0.4104
  228MOL0     C30698   2.065   3.335   5.317 -0.6947  0.1300 -0.3779
  228MOL0     C30699   1.966   3.372   5.222 -0.6067 -1.1041 -0.0862
  228MOL0     C30700   1.618   3.254   4.908 -0.5485 -0.7783  0.2183
  228MOL0     C30701   1.568   3.387   4.913 -0.3594  0.9211  0.1096
  228MOL0     C30702   1.455   3.425   4.847 -0.1897  0.0408 -0.5053
  228MOL0     C30703   1.395   3.341   4.748 -0.2646  0.1425 -0.6016
  228MOL0     O30704   1.296   3.380   4.670 -0.0413  0.0511 -0.1563
  228MOL0     C30705   1.205   3.475   4.728  0.0970  0.3574 -0.1115
  228MOL0     C30706   1.079   3.516   4.642 -0.1460 -0.5037 -0.2087
  228MOL0     C30707   1.062   3.670   4.630  0.9270 -0.4127  0.4348
  228MOL0     C30708   1.024   3.722   4.768 -0.4508 -0.2801  0.3323
  228MOL0     C30709   1.131   3.755   4.854 -0.5307  0.5952 -0.6223
  228MOL0     C30710   1.228   3.777   4.924  0.7507 -0.0998 -0.3210
  228MOL0     C30711   1.428   3.208   4.756 -0.7651 -0.1664  0.1543
  228MOL0     C30712   1.540   3.161   4.833  0.1888 -0.0749 -0.3133
  228MOL0     H30713   1.833   3.073   5.157 -0.7149 -0.0816  0.7409
  228MOL0     H30714   2.025   2.999   5.318 -0.0059 -0.4936 -0.5546
  228MOL0     H30715   2.047   3.195   5.627  2.5761  1.8704  0.0207
  228MOL0     H30716   2.055   3.032   5.553 -0.8510  0.1299  0.6332
  228MOL0     H30717   2.272   3.196   5.682 -0.8695 -0.0132  0.1435
  228MOL0     H30718   2.195   3.063   5.769  0.0062 -0.5140  0.8737
  228MOL0     H30719   2.277   2.909   5.574  0.6526 -1.3361  1.9393
  228MOL0     H30720   2.375   3.043   5.510 -0.4336 -1.4740 -0.7141
  228MOL0     H30721   2.481   3.053   5.726  1.3407 -1.7810  0.3998
  228MOL0     H30722   2.422   2.901   5.784  0.8841 -0.5044 -0.2159
  228MOL0     H30723   2.638   2.940   5.561  0.6069 -1.7007 -0.9766
  228MOL0     H30724   2.630   2.853   5.709 -0.7388 -3.5248 -1.1806
  228MOL0     H30725   2.506   2.810   5.442  2.3932  1.7951  0.6801
  228MOL0     H30726   2.643   2.725   5.525 -0.0566 -0.7738 -1.0652
  228MOL0     H30727   2.511   2.588   5.641  0.3009  0.0885  0.6011
  228MOL0     H30728   2.366   2.710   5.649 -0.4464 -0.3631 -2.0752
  228MOL0     H30729   2.316   2.503   5.520 -3.3134  1.8033  0.7190
  228MOL0     H30730   2.471   2.535   5.431 -0.3527  1.4606 -2.2271
  228MOL0     H30731   2.390   2.596   5.184 -0.1233  0.5965 -1.4126
  228MOL0     H30732   2.216   2.689   4.981 -1.2727  0.5863 -1.4444
  228MOL0     H30733   2.079   2.787   5.036  0.3853  0.1276  1.5128
  228MOL0     H30734   2.266   2.897   4.899 -3.0747 -0.0730 -0.2721
  228MOL0     H30735   2.381   2.874   5.028  0.5656 -0.1085 -1.4552
  228MOL0     H30736   2.222   3.013   5.186 -2.9723 -1.4959 -0.7222
  228MOL0     H30737   2.137   3.049   5.033 -1.2380 -3.3543  0.6822
  228MOL0     H30738   2.437   3.087   5.100  0.5907  3.1492  1.2753
  228MOL0     H30739   2.328   3.226   5.108 -2.1877 -0.7808  1.3074
  228MOL0     H30740   2.465   3.318   4.713 -0.3917 -1.6655 -0.2712
  228MOL0     H30741   2.463   3.447   4.544  1.5611  2.0689 -3.1298
  228MOL0     H30742   2.322   3.507   4.472 -4.1655  2.6363  1.4202
  228MOL0     H30743   2.406   3.613   4.594  1.2633 -0.6521  0.9076
  228MOL0     H30744   1.958   3.715   4.433  0.0440 -0.0058  2.4067
  228MOL0     H30745   1.776   3.848   4.361  2.0516  0.8174  1.2991
  228MOL0     H30746   1.623   3.995   4.342 -1.1128  1.1486  0.3943
  228MOL0     H30747   1.569   3.847   4.273  0.2588 -2.0618  2.4271
  228MOL0     H30748   1.432   4.058   4.208 -1.0907 -0.6757 -0.0762
  228MOL0     H30749   1.329   3.936   4.285 -2.2136 -0.0648  3.3207
  228MOL0     H30750   1.460   4.168   4.429  2.5087 -3.1503  1.7910
  228MOL0     H30751   1.357   4.060   4.509  0.0441 -0.6701  0.4383
  228MOL0     H30752   1.266   4.283   4.465 -1.4642  1.6691 -0.8769
  228MOL0     H30753   1.271   4.261   4.297  0.0522 -2.0914 -1.7739
  228MOL0     H30754   1.106   4.116   4.505  1.8802  0.5414  0.4636
  228MOL0     H30755   1.106   4.062   4.330  1.4933  0.5501 -1.3754
  228MOL0     H30756   1.040   4.347   4.398  1.6118 -0.8240  0.2512
  228MOL0     H30757   1.032   4.276   4.234  2.5025 -0.5747  0.6154
  228MOL0     H30758   0.862   4.170   4.468  0.1127  2.7100  1.8013
  228MOL0     H30759   0.868   4.128   4.299  3.7441  0.5253 -1.3446
  228MOL0     H30760   0.682   4.261   4.348  0.6977 -0.5885  1.6810
  228MOL0     H30761   0.807   4.372   4.262  0.9890 -1.3715 -0.8874
  228MOL0     H30762   1.520   3.703   4.673 -2.0504 -1.1478 -4.0995
  228MOL0     H30763   1.724   3.588   4.764  2.4835 -0.2614 -0.3228
  228MOL0     H30764   2.014   3.441   4.859  0.4700 -1.8205  1.8898
  228MOL0     H30765   2.119   3.242   4.964  0.4353 -0.8740 -0.5087
  228MOL0     H30766   2.130   3.401   5.372 -3.2890  1.9499  0.7250
  228MOL0     H30767   1.944   3.473   5.189 -1.7137 -1.1104  0.5649
  228MOL0     H30768   1.619   3.469   4.964  1.1172  0.9560 -1.3405
  228MOL0     H30769   1.423   3.529   4.856 -2.4914 -0.5060 -1.7161
  228MOL0     H30770   1.160   3.439   4.821 -1.8415 -0.8893 -1.4565
  228MOL0     H30771   1.261   3.564   4.759  2.3501 -1.2019  0.5453
  228MOL0     H30772   0.985   3.472   4.677 -1.1710  2.2933  0.7942
  228MOL0     H30773   1.101   3.475   4.543  3.2799 -0.1661  0.2639
  228MOL0     H30774   0.982   3.690   4.558  0.4042 -0.8561  0.8849
  228MOL0     H30775   1.152   3.708   4.581  1.2614  0.0872  1.4220
  228MOL0     H30776   0.959   3.658   4.829 -0.5206  0.0246  0.5802
  228MOL0     H30777   0.970   3.816   4.763  0.9993  0.5376 -0.7264
  228MOL0     H30778   1.323   3.795   4.972 -1.2465  1.6158  3.4272
  228MOL0     H30779   1.383   3.136   4.690  0.8513 -3.0362  1.9394
  228MOL0     H30780   1.569   3.057   4.840  0.3388  0.0674  2.1473
  229MOL0     O30781   1.204   2.076   3.161  0.2378  0.2741  0.5909
  229MOL0     C30782   1.289   2.171   3.167  0.5460 -0.3866  0.0099
  229MOL0     O30783   1.268   2.304   3.187 -0.2716  0.4153 -0.9780
  229MOL0     C30784   1.144   2.359   3.168  0.9471 -0.5980 -0.3033
  229MOL0     C30785   1.019   2.303   3.210 -0.8794 -0.5811  0.4622
  229MOL0     C30786   0.901   2.360   3.177 -0.4091 -0.5047  0.9547
  229MOL0     C30787   0.898   2.476   3.108 -0.2471  0.9089  0.6860
  229MOL0     O30788   0.770   2.519   3.063  0.1827  0.3184 -0.4990
  229MOL0     C30789   0.738   2.657   3.072  0.0138  0.0064 -0.3879
  229MOL0     C30790   0.618   2.665   3.172 -0.3314 -0.2711 -0.9346
  229MOL0     C30791   0.490   2.604   3.109  0.2989 -0.4435 -0.4860
  229MOL0     C30792   0.383   2.617   3.212 -0.1886 -0.2005 -0.0835
  229MOL0     C30793   0.254   2.546   3.171 -0.0470  0.0564 -0.0651
  229MOL0     C30794   0.262   2.403   3.122 -0.3485 -0.6231 -0.1924
  229MOL0     C30795   0.342   2.317   3.225 -0.1330  0.7281 -0.1932
  229MOL0     C30796   0.351   2.168   3.182  0.1431  0.4410  0.2036
  229MOL0     N30797   0.406   2.142   3.044 -1.1157  0.2574 -1.1903
  229MOL0     C30798   0.530   2.167   3.005 -0.2911  0.4203  0.5059
  229MOL0     C30799   0.546   2.119   2.884  0.5505  0.2875  0.7644
  229MOL0     C30800   0.671   2.143   2.798 -0.1237 -0.2472 -0.0098
  229MOL0     C30801   0.809   2.123   2.861  1.2359  0.3068  0.7995
  229MOL0     C30802   0.821   1.997   2.938 -0.0213  0.6204 -0.8685
  229MOL0     C30803   0.964   1.957   2.956 -0.1851  0.6758  0.0110
  229MOL0     O30804   1.017   1.891   2.837 -0.0374 -0.3617  0.1294
  229MOL0     C30805   1.147   1.844   2.845 -0.0458 -0.7801 -0.0345
  229MOL0     C30806   1.178   1.707   2.821 -0.3888  0.2682 -0.1678
  229MOL0     C30807   1.307   1.656   2.800 -0.4032 -0.7735  0.4211
  229MOL0     C30808   1.319   1.519   2.748  0.0995  1.3039 -0.5917
  229MOL0     C30809   1.420   1.749   2.796  0.4051  0.4271  0.1838
  229MOL0     C30810   1.566   1.713   2.769  0.7978  0.3493 -0.0728
  229MOL0     O30811   1.656   1.799   2.812 -0.0284  0.3928 -0.5187
  229MOL0     C30812   1.792   1.768   2.817  0.8090  0.6397  0.3493
  229MOL0     C30813   1.879   1.875   2.810 -0.2628 -0.6632 -0.5741
  229MOL0     C30814   2.019   1.859   2.807 -1.0489  0.3573 -0.2320
  229MOL0     C30815   2.080   1.732   2.825  0.0990  0.1247  0.4243
  229MOL0     O30816   2.221   1.726   2.837  0.7399  0.3965 -0.6033
  229MOL0     C30817   2.277   1.594   2.805  0.4689  0.3952  0.0040
  229MOL0     C30818   2.424   1.597   2.840 -0.1259 -0.9438 -0.8209
  229MOL0     C30819   2.511   1.471   2.813  0.3463 -0.4003 -0.1036
  229MOL0     C30820   2.658   1.527   2.833  0.5400  0.3137  0.0059
  229MOL0     C30821   2.753   1.411   2.802  0.5698 -0.6795  0.0908
  229MOL0     C30822   2.901   1.432   2.816  0.9076  0.4741  0.2612
  229MOL0     C30823   2.950   1.483   2.950  0.0384  0.3029  0.4732
  229MOL0     C30824   3.098   1.446   2.959 -0.8691  0.7734 -0.0677
  229MOL0    Cl30825   3.194   1.503   3.099 -0.2345  0.2278  0.6434
  229MOL0     C30826   1.992   1.621   2.832  0.3043  0.5131 -0.6164
  229MOL0     C30827   1.853   1.644   2.832 -0.2666  0.5019 -0.2083
  229MOL0     O30828   1.594   1.602   2.728  0.7483 -0.0106  0.6640
  229MOL0     C30829   1.384   1.886   2.829  0.2722  0.0928  0.2939
  229MOL0     C30830   1.253   1.928   2.850 -0.5493  0.8487 -0.1916
  229MOL0     N30831   0.430   2.069   2.833 -0.0620  0.6236  0.2210
  229MOL0     N30832   0.344   2.077   2.936  0.2152 -0.5606 -0.2589
  229MOL0     C30833   1.018   2.541   3.071 -0.4343 -0.1561  0.5982
  229MOL0     C30834   1.141   2.478   3.107  0.3091  0.1191  1.3138
  229MOL0     C30835   1.426   2.125   3.176 -0.2504 -0.1884  0.2492
  229MOL0     C30836   1.532   2.206   3.193 -0.0876 -0.2138 -0.7036
  229MOL0     C30837   1.669   2.162   3.197  0.5565 -0.2958 -0.8150
  229MOL0     C30838   1.700   2.027   3.180  0.3863  0.2210  0.4052
  229MOL0     O30839   1.831   1.998   3.200 -0.4608 -0.4574  0.8541
  229MOL0     C30840   1.858   1.860   3.200 -0.7078  0.0192 -0.4862
  229MOL0     C30841   2.014   1.856   3.221  0.2533 -1.1301 -0.1740
  229MOL0     C30842   2.068   1.708   3.236 -0.2501  0.3145  0.1881
  229MOL0     C30843   2.215   1.710   3.217 -0.5688 -0.7059  0.7431
  229MOL0     C30844   2.290   1.592   3.260  0.0847 -0.9975  0.7661
  229MOL0     C30845   2.335   1.490   3.313  0.0612 -1.1622 -0.3454
  229MOL0     C30846   1.589   1.943   3.159 -0.0542 -0.0138 -0.0316
  229MOL0     C30847   1.452   1.989   3.149  1.1388 -0.2923 -0.5972
  229MOL0     H30848   1.016   2.212   3.270 -4.2101 -0.6876  0.3162
  229MOL0     H30849   0.809   2.308   3.203 -1.5278  0.9094 -0.0380
  229MOL0     H30850   0.819   2.720   3.107 -0.2848 -0.2137  0.7196
  229MOL0     H30851   0.694   2.699   2.980  0.1031 -0.3259 -0.5816
  229MOL0     H30852   0.638   2.611   3.265 -0.8193 -0.8688 -1.1674
  229MOL0     H30853   0.613   2.769   3.205 -0.8567 -0.3354 -0.8016
  229MOL0     H30854   0.451   2.666   3.027  0.0871  2.3700  1.5950
  229MOL0     H30855   0.497   2.503   3.067  2.0207 -0.1701 -0.9434
  229MOL0     H30856   0.435   2.574   3.298 -1.8437 -0.7769  0.6509
  229MOL0     H30857   0.362   2.723   3.229  0.5259  0.3099 -2.1363
  229MOL0     H30858   0.171   2.537   3.242 -1.9830 -0.1777 -2.2485
  229MOL0     H30859   0.222   2.613   3.091  1.0337 -0.2894 -0.8102
  229MOL0     H30860   0.161   2.365   3.105 -0.6870  0.6687 -1.2175
  229MOL0     H30861   0.313   2.403   3.026  1.8990  2.2812  0.8400
  229MOL0     H30862   0.445   2.351   3.233 -0.2636  0.8397  1.3675
  229MOL0     H30863   0.294   2.305   3.323 -1.0827 -2.6295 -0.9378
  229MOL0     H30864   0.250   2.126   3.186 -1.2121  3.2351 -1.6928
  229MOL0     H30865   0.421   2.122   3.254 -0.8192 -0.1389  0.7968
  229MOL0     H30866   0.606   2.218   3.063 -0.4985  0.9795  0.2908
  229MOL0     H30867   0.658   2.078   2.711  0.1089 -0.1061 -0.1500
  229MOL0     H30868   0.674   2.249   2.771  1.9538 -0.3422 -0.2869
  229MOL0     H30869   0.824   2.214   2.920 -1.7674  1.3754  0.0760
  229MOL0     H30870   0.887   2.122   2.784  1.3792 -1.4271  0.9306
  229MOL0     H30871   0.765   1.923   2.881  1.3567 -1.9776  0.9668
  229MOL0     H30872   0.766   2.017   3.031  0.3527  2.2157 -0.9561
  229MOL0     H30873   0.988   1.912   3.052 -1.0490  1.1326  0.4506
  229MOL0     H30874   1.021   2.050   2.968  0.3468  0.4167 -0.4371
  229MOL0     H30875   1.086   1.653   2.800 -0.9000  1.8055 -2.2455
  229MOL0     H30876   1.357   1.506   2.646  2.2675 -0.0710  0.3103
  229MOL0     H30877   1.394   1.474   2.814 -0.7237  2.5353  1.2768
  229MOL0     H30878   1.224   1.466   2.749  0.8866 -0.2205 -1.7161
  229MOL0     H30879   1.843   1.976   2.818 -0.0974 -0.5389 -1.3164
  229MOL0     H30880   2.087   1.941   2.786  0.3348 -1.2403 -2.5454
  229MOL0     H30881   2.227   1.518   2.865  1.8422 -1.5147 -1.1293
  229MOL0     H30882   2.264   1.585   2.696 -1.8437  2.8959 -0.0106
  229MOL0     H30883   2.454   1.675   2.770  0.5007 -1.9163 -1.6577
  229MOL0     H30884   2.442   1.626   2.944 -1.4125 -0.8662 -0.6028
  229MOL0     H30885   2.496   1.431   2.712 -3.6231  1.2486 -0.3673
  229MOL0     H30886   2.485   1.394   2.887  2.6895  1.0540  2.3982
  229MOL0     H30887   2.680   1.598   2.753 -3.1037  1.6197 -0.0476
  229MOL0     H30888   2.685   1.572   2.929  0.2389 -1.1473  0.8047
  229MOL0     H30889   2.736   1.375   2.700 -0.1507  1.4460 -0.5802
  229MOL0     H30890   2.726   1.325   2.865 -2.6122 -1.2456 -1.8269
  229MOL0     H30891   2.949   1.336   2.797 -0.1486  0.3234 -1.9858
  229MOL0     H30892   2.924   1.503   2.735  1.3864  3.7198  3.0117
  229MOL0     H30893   2.900   1.425   3.028  1.4602  0.8657  1.8566
  229MOL0     H30894   2.926   1.589   2.968 -2.0809 -0.2149  0.9467
  229MOL0     H30895   3.151   1.488   2.872 -2.3839  0.5171 -1.1631
  229MOL0     H30896   3.111   1.338   2.947  5.1318  1.1867 -0.3235
  229MOL0     H30897   2.033   1.521   2.823  2.0750  1.2646 -1.3866
  229MOL0     H30898   1.798   1.551   2.822  0.2402  0.2712 -0.9131
  229MOL0     H30899   1.463   1.960   2.825  1.7806 -1.4785 -3.2747
  229MOL0     H30900   1.244   2.031   2.884  0.7822  1.1331 -0.6034
  229MOL0     H30901   1.025   2.629   3.008 -0.2709 -0.3473  0.3493
  229MOL0     H30902   1.232   2.515   3.060 -0.4479 -0.8447 -1.0497
  229MOL0     H30903   1.499   2.307   3.173 -3.4586 -1.0896 -0.2053
  229MOL0     H30904   1.747   2.238   3.200  1.6168 -1.3662  0.7609
  229MOL0     H30905   1.803   1.804   3.277 -2.7231  2.1221 -0.2777
  229MOL0     H30906   1.828   1.813   3.106  0.8605 -2.4590  0.1439
  229MOL0     H30907   2.042   1.915   3.308  0.3899 -0.5897 -0.5837
  229MOL0     H30908   2.049   1.905   3.130 -0.9183  0.9500  0.4401
  229MOL0     H30909   2.026   1.651   3.153 -3.4858  0.1658  1.7824
  229MOL0     H30910   2.035   1.668   3.332  2.6528 -0.0117  1.1605
  229MOL0     H30911   2.268   1.791   3.267  1.2102 -2.1039  1.2470
  229MOL0     H30912   2.241   1.728   3.112 -0.9015  2.0774  1.0686
  229MOL0     H30913   2.368   1.408   3.374 -0.7373 -0.2148  1.4469
  229MOL0     H30914   1.605   1.836   3.156  1.8350  0.2571 -0.9214
  229MOL0     H30915   1.370   1.922   3.125 -1.1914  1.8482  0.9357
  230MOL0     O30916   2.440   0.964   1.503 -0.4245 -0.0766  0.2396
  230MOL0     C30917   2.513   0.908   1.589 -1.2560 -0.2445  0.6872
  230MOL0     O30918   2.493   0.913   1.725  0.4811  1.1195 -0.5833
  230MOL0     C30919   2.385   0.987   1.771 -0.1253 -0.1211 -0.1406
  230MOL0     C30920   2.256   0.974   1.726 -0.2661 -0.9807  0.0781
  230MOL0     C30921   2.155   1.061   1.774  0.0143  1.0175  0.0640
  230MOL0     C30922   2.182   1.138   1.889  0.7647  0.0676 -0.4993
  230MOL0     O30923   2.067   1.189   1.947 -0.2803 -1.1459  0.8098
  230MOL0     C30924   2.077   1.270   2.069  0.2699 -0.0495 -0.2888
  230MOL0     C30925   1.941   1.292   2.129 -0.1059 -0.2790  0.4920
  230MOL0     C30926   1.854   1.166   2.131  0.3865 -0.5157  0.2683
  230MOL0     C30927   1.724   1.202   2.211 -0.1707  1.0678  0.3445
  230MOL0     C30928   1.643   1.067   2.240 -0.5534  0.0987 -0.6710
  230MOL0     C30929   1.532   1.087   2.344 -0.2345 -0.2448 -0.0028
  230MOL0     C30930   1.505   0.955   2.415  0.1089 -0.7049 -0.1576
  230MOL0     C30931   1.393   0.966   2.514  0.2398  0.0183  0.3567
  230MOL0     N30932   1.421   1.035   2.645 -0.0337 -0.6330  0.4678
  230MOL0     C30933   1.528   1.021   2.726 -0.2023 -0.0210 -0.3717
  230MOL0     C30934   1.507   1.101   2.833  0.0636 -0.9974  0.4251
  230MOL0     C30935   1.584   1.131   2.963 -0.2741  0.1462  0.5730
  230MOL0     C30936   1.647   1.267   2.958 -0.1781 -0.1852 -0.3303
  230MOL0     C30937   1.625   1.343   3.098 -0.5602  0.4227 -0.1814
  230MOL0     C30938   1.701   1.475   3.097  0.2348 -0.1519  0.0632
  230MOL0     O30939   1.683   1.537   3.228  0.2920  0.4280 -0.3704
  230MOL0     C30940   1.563   1.592   3.268 -0.3782  0.0264 -0.6212
  230MOL0     C30941   1.447   1.582   3.193  0.1565 -0.1782  0.4132
  230MOL0     C30942   1.323   1.639   3.231  0.0162 -0.0260 -0.1056
  230MOL0     C30943   1.224   1.642   3.137  0.4603 -0.3417  1.1279
  230MOL0     C30944   1.309   1.688   3.364  0.1629 -0.2757 -0.6763
  230MOL0     C30945   1.189   1.749   3.422  0.4192 -0.2119 -0.5633
  230MOL0     O30946   1.109   1.811   3.332  0.5862  0.7999 -0.1865
  230MOL0     C30947   1.012   1.899   3.383  0.8380 -0.4543  0.0094
  230MOL0     C30948   1.033   1.992   3.484 -0.1120 -0.9262  0.4577
  230MOL0     C30949   0.928   2.078   3.519 -0.9543  0.8711 -0.3891
  230MOL0     C30950   0.803   2.076   3.455 -0.4741  0.1940 -0.6748
  230MOL0     O30951   0.697   2.156   3.484 -0.1588  0.2786  0.0453
  230MOL0     C30952   0.726   2.264   3.572 -0.1928 -0.3534  0.3580
  230MOL0     C30953   0.604   2.356   3.604 -0.7381 -0.2122  0.2743
  230MOL0     C30954   0.509   2.288   3.694  0.9489 -0.7892 -0.7412
  230MOL0     C30955   0.361   2.328   3.671  0.1930  0.1434 -0.3951
  230MOL0     C30956   0.338   2.485   3.664  0.0877  0.0520 -0.3245
  230MOL0     C30957   0.195   2.508   3.616 -0.5061 -0.2058 -0.2191
  230MOL0     C30958   0.158   2.653   3.613  0.6035 -0.7232  0.5503
  230MOL0     C30959   0.184   2.725   3.750 -0.5519 -0.4444  0.0320
  230MOL0    Cl30960   0.064   2.859   3.768 -0.1491  0.5891 -0.3855
  230MOL0     C30961   0.795   2.007   3.340 -0.3074  0.2349  0.0721
  230MOL0     C30962   0.890   1.910   3.307 -0.1617 -0.1959 -0.4857
  230MOL0     O30963   1.175   1.753   3.541  0.6222  0.3035  0.0646
  230MOL0     C30964   1.424   1.689   3.446  0.4599 -0.2324 -0.5586
  230MOL0     C30965   1.548   1.637   3.403  0.1166 -0.0630  0.2560
  230MOL0     N30966   1.377   1.162   2.813 -0.4814 -0.2568  0.0369
  230MOL0     N30967   1.332   1.133   2.690  0.1222  0.4707 -0.3775
  230MOL0     C30968   2.309   1.141   1.946  0.0242 -0.6632 -0.3012
  230MOL0     C30969   2.407   1.070   1.882  0.2010  0.7207  0.2817
  230MOL0     C30970   2.644   0.849   1.544 -0.6737  0.7677  0.3790
  230MOL0     C30971   2.726   0.788   1.636  0.8517  0.3742  0.6472
  230MOL0     C30972   2.845   0.736   1.604 -0.1513 -0.5026  0.6999
  230MOL0     C30973   2.894   0.753   1.470 -0.2034 -0.6997 -0.3964
  230MOL0     O30974   3.025   0.714   1.444 -0.2450  0.3761 -0.1870
  230MOL0     C30975   3.065   0.705   1.307 -0.0057  0.0332 -0.7330
  230MOL0     C30976   3.204   0.667   1.298 -0.4162 -0.6551  0.1784
  230MOL0     C30977   3.266   0.707   1.167  0.2950 -0.3596 -0.2011
  230MOL0     C30978   3.413   0.665   1.157  0.2541  0.3589  0.8152
  230MOL0     C30979   3.472   0.747   1.054  0.5700  0.2582 -0.7462
  230MOL0     C30980   3.537   0.831   0.994 -0.1178  0.2231 -0.6108
  230MOL0     C30981   2.805   0.814   1.375 -0.0174 -0.1971  0.1114
  230MOL0     C30982   2.681   0.860   1.410  0.4387  0.4249 -0.4476
  230MOL0     H30983   2.228   0.906   1.647 -2.3995 -1.1512  0.9075
  230MOL0     H30984   2.058   1.055   1.726  0.9198 -1.2714 -1.6695
  230MOL0     H30985   2.132   1.212   2.143 -0.9420  0.3933  0.9930
  230MOL0     H30986   2.131   1.362   2.046  1.5035 -1.1056 -1.9117
  230MOL0     H30987   1.939   1.335   2.229  2.9660 -1.4414  1.1478
  230MOL0     H30988   1.893   1.364   2.062 -0.6646 -0.5518  0.5927
  230MOL0     H30989   1.826   1.138   2.029  0.7746 -0.9003  0.2596
  230MOL0     H30990   1.903   1.078   2.174 -0.3928 -1.7138 -1.1574
  230MOL0     H30991   1.755   1.246   2.306  0.2186  0.4225  0.5177
  230MOL0     H30992   1.661   1.281   2.168  0.9192  2.3344  0.9845
  230MOL0     H30993   1.592   1.032   2.150 -0.0569 -0.6145 -0.6848
  230MOL0     H30994   1.708   0.984   2.270 -2.6405 -0.9609  1.2028
  230MOL0     H30995   1.562   1.150   2.428 -0.8068  1.5840 -1.1170
  230MOL0     H30996   1.442   1.139   2.308 -0.7288 -0.7474  0.4801
  230MOL0     H30997   1.487   0.876   2.342 -0.3917  0.1057 -0.9441
  230MOL0     H30998   1.597   0.927   2.467  2.0627  0.6418 -2.6194
  230MOL0     H30999   1.373   0.861   2.538  2.4061 -0.7719 -1.0407
  230MOL0     H31000   1.302   1.010   2.472  0.5247  0.0237 -0.2650
  230MOL0     H31001   1.601   0.942   2.712 -2.4424 -2.0283 -1.2543
  230MOL0     H31002   1.520   1.138   3.051  0.7538  1.3342  1.2728
  230MOL0     H31003   1.662   1.055   2.976  0.8962  0.0859 -4.6594
  230MOL0     H31004   1.607   1.331   2.880 -0.8316 -0.8402 -0.5382
  230MOL0     H31005   1.756   1.252   2.955  0.0264 -0.7757  3.6782
  230MOL0     H31006   1.666   1.272   3.171 -0.5732  0.4160 -0.1807
  230MOL0     H31007   1.517   1.347   3.112 -0.7211 -1.9328 -0.3117
  230MOL0     H31008   1.669   1.543   3.017  0.3256 -0.3788 -0.1647
  230MOL0     H31009   1.804   1.452   3.072  0.1148  0.3572 -0.9499
  230MOL0     H31010   1.456   1.546   3.091 -1.9633  0.8296 -0.1977
  230MOL0     H31011   1.232   1.555   3.070  0.0949  0.8855 -0.5759
  230MOL0     H31012   1.130   1.623   3.190 -1.2684  0.5014 -1.4283
  230MOL0     H31013   1.218   1.735   3.080  1.9209  0.0678  1.6044
  230MOL0     H31014   1.130   2.000   3.533  0.5980 -0.8348 -0.9173
  230MOL0     H31015   0.957   2.143   3.601  0.6488 -0.3770  0.0837
  230MOL0     H31016   0.762   2.222   3.666 -0.3824 -1.4570 -0.0474
  230MOL0     H31017   0.809   2.321   3.531  1.9186 -4.0517 -0.9642
  230MOL0     H31018   0.639   2.450   3.649  0.5160  0.2232 -1.5242
  230MOL0     H31019   0.565   2.397   3.510 -0.4409 -1.4685 -0.4131
  230MOL0     H31020   0.536   2.307   3.798 -1.6295  1.7010 -0.4134
  230MOL0     H31021   0.515   2.179   3.685  0.6503 -0.7124 -2.2151
  230MOL0     H31022   0.327   2.282   3.578  3.4121 -1.5732 -0.8323
  230MOL0     H31023   0.301   2.287   3.753  0.2681 -2.3500 -1.5212
  230MOL0     H31024   0.407   2.538   3.598 -1.7220  2.5109 -0.3880
  230MOL0     H31025   0.362   2.523   3.763  0.8845 -1.7452  0.2141
  230MOL0     H31026   0.192   2.475   3.512  3.8825 -1.1807 -0.2340
  230MOL0     H31027   0.126   2.441   3.667 -0.7013 -0.4581 -0.7997
  230MOL0     H31028   0.057   2.669   3.576  1.7432  3.3939 -1.3639
  230MOL0     H31029   0.220   2.695   3.533 -0.2814 -2.3415 -1.0649
  230MOL0     H31030   0.285   2.766   3.752 -0.8694  0.6895 -2.5959
  230MOL0     H31031   0.171   2.652   3.831  0.1460 -0.3709  0.2141
  230MOL0     H31032   0.705   2.026   3.282 -0.6205  0.3848  0.5984
  230MOL0     H31033   0.891   1.842   3.222  2.9612  0.6048 -1.2327
  230MOL0     H31034   1.420   1.729   3.547  1.0235  0.6926 -0.8884
  230MOL0     H31035   1.635   1.641   3.468  2.1084  0.4210 -2.3027
  230MOL0     H31036   2.336   1.172   2.047  1.0018 -4.3720  0.7445
  230MOL0     H31037   2.506   1.075   1.926  0.2098  2.6732  0.1324
  230MOL0     H31038   2.688   0.772   1.736 -0.6168 -2.9134 -0.3074
  230MOL0     H31039   2.901   0.689   1.684 -0.3013  0.1539  1.2008
  230MOL0     H31040   2.993   0.641   1.254 -1.0897  0.7345 -0.1512
  230MOL0     H31041   3.054   0.799   1.252 -0.3997  1.1557  1.1990
  230MOL0     H31042   3.213   0.558   1.310  0.3383 -0.5976  0.1645
  230MOL0     H31043   3.254   0.728   1.373 -1.2010  1.6181 -1.0450
  230MOL0     H31044   3.262   0.816   1.163  1.9840 -0.2147  0.6567
  230MOL0     H31045   3.204   0.671   1.085 -1.9719  0.3945  1.0811
  230MOL0     H31046   3.419   0.557   1.139 -3.2374  0.6356 -3.9503
  230MOL0     H31047   3.475   0.678   1.246  2.0260  1.1235 -0.4643
  230MOL0     H31048   3.602   0.912   0.967  2.4233 -1.9089 -1.3078
  230MOL0     H31049   2.829   0.821   1.270  0.7178 -2.1335  0.1144
  230MOL0     H31050   2.619   0.893   1.327  2.9427 -2.0885 -3.6169
  231MOL0     O31051   3.905   0.886   4.429 -0.7502  0.2630 -0.6845
  231MOL0     C31052   3.860   0.810   4.521  0.3400  0.1717 -0.6917
  231MOL0     O31053   3.754   0.716   4.501  0.3409 -0.0562 -0.1582
  231MOL0     C31054   3.670   0.715   4.385  0.0117 -0.3639 -0.8663
  231MOL0     C31055   3.545   0.658   4.408  0.3755 -0.4497 -0.8166
  231MOL0     C31056   3.445   0.665   4.315 -0.0643 -0.2812 -0.3825
  231MOL0     C31057   3.478   0.703   4.188 -1.1365 -0.4513  0.0244
  231MOL0     O31058   3.380   0.707   4.103  0.7425 -0.1805  0.0049
  231MOL0     C31059   3.381   0.743   3.961 -0.8343 -0.1988  0.0128
  231MOL0     C31060   3.264   0.683   3.898 -0.3856 -0.8010  0.3752
  231MOL0     C31061   3.135   0.743   3.952  0.2511 -0.0058  0.1786
  231MOL0     C31062   3.026   0.643   3.901  0.2955  0.1638 -0.1797
  231MOL0     C31063   2.879   0.683   3.928 -0.9109 -0.3942  0.6732
  231MOL0     C31064   2.781   0.582   3.872  0.2056 -0.3559  0.0837
  231MOL0     C31065   2.640   0.599   3.917 -0.3167  0.5457  0.1495
  231MOL0     C31066   2.562   0.472   3.885 -0.2491  0.0653  0.2358
  231MOL0     N31067   2.422   0.497   3.907 -0.4489 -0.5871  0.8982
  231MOL0     C31068   2.329   0.424   3.979 -0.4550 -0.2481  0.0915
  231MOL0     C31069   2.211   0.478   3.955  0.2323  0.2488  0.0397
  231MOL0     C31070   2.081   0.434   4.020 -0.0186  0.7037  0.5916
  231MOL0     C31071   2.014   0.331   3.937  0.3980 -0.1065  0.9257
  231MOL0     C31072   1.876   0.303   4.006  0.2961  0.9631 -0.2277
  231MOL0     C31073   1.787   0.218   3.905  0.8386 -0.5336  0.1524
  231MOL0     O31074   1.658   0.206   3.955 -0.3930  0.6483  0.2020
  231MOL0     C31075   1.569   0.315   3.953  0.5972 -0.3968  0.7492
  231MOL0     C31076   1.589   0.439   3.897 -0.1274 -0.2693 -0.1828
  231MOL0     C31077   1.511   0.553   3.912  0.3107 -0.6351  0.2818
  231MOL0     C31078   1.564   0.681   3.840  0.8628 -0.2038 -0.1429
  231MOL0     C31079   1.383   0.538   3.976 -0.4349 -0.1131 -0.2803
  231MOL0     C31080   1.281   0.642   3.990 -0.1066 -0.1190  0.1717
  231MOL0     O31081   1.179   0.606   4.070 -0.0570  0.2030  0.4374
  231MOL0     C31082   1.076   0.694   4.079 -0.0221 -0.7437 -0.3539
  231MOL0     C31083   1.038   0.740   4.206 -1.0585  0.5973  0.8864
  231MOL0     C31084   0.920   0.823   4.221 -0.0576  0.0844  0.1345
  231MOL0     C31085   0.847   0.863   4.112  0.1576  0.8199  0.1687
  231MOL0     O31086   0.753   0.959   4.117  0.0482  0.4612 -0.1230
  231MOL0     C31087   0.739   1.047   4.231 -0.4890 -0.2485 -0.7850
  231MOL0     C31088   0.643   1.169   4.207  0.2153 -0.5702  0.3098
  231MOL0     C31089   0.568   1.156   4.068 -0.4073  0.0708 -0.4786
  231MOL0     C31090   0.500   1.286   4.027 -0.9836  0.0383 -0.8536
  231MOL0     C31091   0.396   1.253   3.913 -0.9414 -0.1875  0.2142
  231MOL0     C31092   0.278   1.169   3.952 -0.7600  0.0321 -0.1648
  231MOL0     C31093   0.168   1.238   4.037 -0.9343  0.6210 -0.6019
  231MOL0     C31094   0.048   1.149   4.039  0.1032  0.1372 -0.8121
  231MOL0    Cl31095  -0.068   1.209   4.173 -0.4582  0.3187 -0.0134
  231MOL0     C31096   0.886   0.811   3.990  0.1328  0.3678 -0.5653
  231MOL0     C31097   0.994   0.729   3.971  0.3705 -0.1659  0.2651
  231MOL0     O31098   1.289   0.744   3.922  0.0848  0.1560 -0.1922
  231MOL0     C31099   1.356   0.409   4.037  0.5525 -0.7166  0.1818
  231MOL0     C31100   1.447   0.303   4.024  0.1856  0.0057  0.2548
  231MOL0     N31101   2.226   0.568   3.851 -0.6707 -0.3002 -0.4835
  231MOL0     N31102   2.353   0.570   3.821 -0.3230 -0.0727 -0.7662
  231MOL0     C31103   3.612   0.740   4.156 -0.0874 -0.1747 -0.1374
  231MOL0     C31104   3.706   0.747   4.256  0.1044  0.2087  0.2019
  231MOL0     C31105   3.912   0.833   4.663 -0.2672  0.4375 -0.9331
  231MOL0     C31106   3.844   0.781   4.783  0.2193  0.0620 -0.1848
  231MOL0     C31107   3.896   0.807   4.912 -0.4902 -0.5715  0.1014
  231MOL0     C31108   4.033   0.861   4.920  0.6110  0.1330  0.1148
  231MOL0     O31109   4.103   0.874   5.036 -0.3838  0.4442 -0.4128
  231MOL0     C31110   4.038   0.859   5.163  0.1964  0.4424  0.9805
  231MOL0     C31111   4.146   0.869   5.268 -0.3354  0.0060  0.1255
  231MOL0     C31112   4.206   1.015   5.288 -0.9408 -0.1368  0.3688
  231MOL0     C31113   4.298   1.056   5.172 -0.2674  0.4577  0.2498
  231MOL0     C31114   4.367   1.170   5.227  0.5079  0.3205  0.3553
  231MOL0     C31115   4.418   1.273   5.261  0.5972 -0.7033  1.1057
  231MOL0     C31116   4.102   0.899   4.809 -0.2822  0.0062 -0.5390
  231MOL0     C31117   4.041   0.894   4.686  0.2637  0.9217 -0.0405
  231MOL0     H31118   3.517   0.612   4.502 -1.5264 -2.8284 -2.4323
  231MOL0     H31119   3.344   0.627   4.327 -0.2758  0.1774 -0.6661
  231MOL0     H31120   3.404   0.850   3.949  2.9917 -0.7828  0.8179
  231MOL0     H31121   3.469   0.691   3.924 -0.7667 -0.3213  0.3374
  231MOL0     H31122   3.274   0.697   3.790 -0.0293 -3.0940  0.0606
  231MOL0     H31123   3.268   0.574   3.905 -1.4225 -1.1604 -2.8075
  231MOL0     H31124   3.132   0.747   4.062  0.0561  4.3314  0.1704
  231MOL0     H31125   3.115   0.845   3.918 -1.0793 -0.3790 -0.2297
  231MOL0     H31126   3.043   0.631   3.794 -0.0471 -0.8589 -0.1380
  231MOL0     H31127   3.052   0.544   3.942  0.2847  0.0815 -0.3690
  231MOL0     H31128   2.871   0.680   4.037  3.6597  1.0798  1.2847
  231MOL0     H31129   2.856   0.784   3.893 -1.6337 -0.1977  1.6768
  231MOL0     H31130   2.788   0.599   3.764 -0.4141  0.7816  0.2136
  231MOL0     H31131   2.803   0.478   3.901 -1.7328 -0.6972  0.4745
  231MOL0     H31132   2.635   0.617   4.025 -0.8477 -0.2740  0.2653
  231MOL0     H31133   2.608   0.687   3.861 -2.5181  0.0856  0.6194
  231MOL0     H31134   2.600   0.401   3.958  0.4369  1.0298  0.8453
  231MOL0     H31135   2.574   0.447   3.779 -1.2896 -1.6608  0.4807
  231MOL0     H31136   2.348   0.335   4.039  1.6958 -1.5075 -2.2594
  231MOL0     H31137   2.095   0.388   4.119  0.9961 -0.4686 -0.0667
  231MOL0     H31138   2.026   0.528   4.024  0.9166  1.4600 -2.2672
  231MOL0     H31139   2.080   0.244   3.926 -0.8648 -1.0573  0.6503
  231MOL0     H31140   1.987   0.369   3.838  3.8861 -0.6083 -0.3709
  231MOL0     H31141   1.827   0.395   4.039  2.1738  1.4480  1.4238
  231MOL0     H31142   1.899   0.245   4.096 -2.4802 -2.7901 -1.6833
  231MOL0     H31143   1.842   0.125   3.886  1.3015 -0.0457 -1.0462
  231MOL0     H31144   1.779   0.264   3.806  1.6745  0.4375  0.5304
  231MOL0     H31145   1.682   0.452   3.841 -0.1873 -1.1420 -0.5008
  231MOL0     H31146   1.504   0.710   3.753  0.9860 -0.9193 -0.4788
  231MOL0     H31147   1.577   0.764   3.910 -2.2464 -1.0896  1.6650
  231MOL0     H31148   1.659   0.660   3.789  0.4937 -1.8124 -0.2111
  231MOL0     H31149   1.091   0.705   4.295  0.3409  1.1604  0.3005
  231MOL0     H31150   0.898   0.844   4.325 -1.8390  0.5717 -0.3086
  231MOL0     H31151   0.699   0.980   4.307  0.6696 -2.0136 -1.6489
  231MOL0     H31152   0.839   1.078   4.261 -0.7052  0.2785 -0.6153
  231MOL0     H31153   0.574   1.165   4.291  1.2631 -0.4750  1.1926
  231MOL0     H31154   0.699   1.263   4.215 -0.5023 -0.1584  0.6429
  231MOL0     H31155   0.511   1.062   4.071 -0.2118 -0.0268  0.3041
  231MOL0     H31156   0.642   1.138   3.989  0.9667 -0.3285  0.8549
  231MOL0     H31157   0.448   1.338   4.108 -1.9170  1.7221 -2.4514
  231MOL0     H31158   0.581   1.350   3.992 -0.4845 -1.1511 -1.9624
  231MOL0     H31159   0.446   1.204   3.829  1.2799  4.0227 -1.2353
  231MOL0     H31160   0.344   1.342   3.877  1.3540  0.7634 -0.9561
  231MOL0     H31161   0.229   1.125   3.865  0.4062  0.8106 -1.2357
  231MOL0     H31162   0.313   1.088   4.017  0.6991 -0.3269 -1.3579
  231MOL0     H31163   0.145   1.335   3.992  0.4392  2.4487  2.3584
  231MOL0     H31164   0.203   1.249   4.140  2.8611 -1.0816 -1.5460
  231MOL0     H31165   0.083   1.047   4.056  1.1425  0.7008  0.6205
  231MOL0     H31166   0.002   1.156   3.940 -1.3543 -2.3784 -0.3802
  231MOL0     H31167   0.823   0.835   3.905 -1.0615  2.4128  0.7997
  231MOL0     H31168   1.022   0.694   3.872  0.4527  1.2373 -0.2340
  231MOL0     H31169   1.267   0.385   4.094  0.4048  0.9718  0.7034
  231MOL0     H31170   1.421   0.202   4.054 -1.8920 -0.6279 -3.1250
  231MOL0     H31171   3.645   0.764   4.056  3.3611 -2.9058  0.1394
  231MOL0     H31172   3.806   0.784   4.236 -0.1764  1.4320  0.9254
  231MOL0     H31173   3.747   0.735   4.768 -0.0543  0.2478  0.9480
  231MOL0     H31174   3.853   0.776   5.007 -1.5863 -1.9427 -0.7901
  231MOL0     H31175   3.959   0.933   5.178  0.3593  0.6575  0.8051
  231MOL0     H31176   3.995   0.759   5.171 -0.1062  0.5738  1.0041
  231MOL0     H31177   4.232   0.805   5.248 -0.7961 -0.9280  1.0460
  231MOL0     H31178   4.113   0.826   5.363 -1.6502 -1.5200 -0.9420
  231MOL0     H31179   4.260   1.010   5.383  3.0288 -2.9058 -1.7402
  231MOL0     H31180   4.139   1.100   5.304 -2.0143 -1.2548  2.2961
  231MOL0     H31181   4.243   1.092   5.085  2.6303  2.8341 -0.7733
  231MOL0     H31182   4.362   0.977   5.132 -0.1565  0.8104 -0.2809
  231MOL0     H31183   4.452   1.362   5.309 -0.9497  0.2087  0.5809
  231MOL0     H31184   4.202   0.937   4.828 -0.3765 -0.9939  2.4533
  231MOL0     H31185   4.086   0.932   4.595 -1.5647  1.3542 -0.8105
  232MOL0     O31186   8.806   2.592   6.637  0.3093 -0.1372  0.4845
  232MOL0     C31187   8.754   2.629   6.738  0.2095  0.3784 -0.4446
  232MOL0     O31188   8.806   2.649   6.864 -0.3661  0.3807 -0.1528
  232MOL0     C31189   8.941   2.644   6.876  0.1155  0.3157  0.5470
  232MOL0     C31190   9.045   2.696   6.795 -0.7474 -0.2194  0.5219
  232MOL0     C31191   9.181   2.698   6.830  0.1513  0.3648 -0.1774
  232MOL0     C31192   9.224   2.627   6.949  1.0821  1.0754  1.1831
  232MOL0     O31193   9.357   2.610   6.979  0.3558  0.2398 -0.1526
  232MOL0     C31194   9.396   2.706   7.075 -0.5320 -0.3867 -0.4802
  232MOL0     C31195   9.545   2.678   7.110 -0.1398  0.2123 -0.6267
  232MOL0     C31196   9.597   2.779   7.214  0.7394  0.8328  0.4585
  232MOL0     C31197   9.737   2.743   7.277 -0.1393  0.0100 -0.0741
  232MOL0     C31198   9.844   2.775   7.177 -0.2419  0.5229 -0.1507
  232MOL0     C31199   9.975   2.767   7.249 -0.1284  0.2340  0.7143
  232MOL0     C31200  10.089   2.828   7.166  0.7252 -0.0480 -0.1465
  232MOL0     C31201  10.190   2.881   7.264 -1.3943  0.4328 -0.2801
  232MOL0     N31202  10.246   2.769   7.336 -0.0664 -0.1479 -0.1181
  232MOL0     C31203  10.194   2.721   7.448  0.0817 -0.9438 -0.1500
  232MOL0     C31204  10.251   2.600   7.460  0.2262 -0.3914  0.4753
  232MOL0     C31205  10.205   2.502   7.569 -0.3458  0.0837  0.1829
  232MOL0     C31206  10.068   2.444   7.537 -0.2668  0.9294  0.7557
  232MOL0     C31207  10.079   2.332   7.419 -0.8567 -0.1073  0.2449
  232MOL0     C31208   9.942   2.308   7.355 -0.7200  0.0443  0.3973
  232MOL0     O31209   9.899   2.414   7.270  0.7911 -0.1573  0.2089
  232MOL0     C31210   9.928   2.407   7.135  0.1574  0.2285 -0.7072
  232MOL0     C31211   9.820   2.397   7.053 -0.1683 -0.1994  0.1072
  232MOL0     C31212   9.822   2.412   6.916 -0.1316 -1.1494 -1.3862
  232MOL0     C31213   9.692   2.451   6.858 -0.4539  0.6094  0.1794
  232MOL0     C31214   9.944   2.429   6.857 -0.7181 -0.4546  0.5312
  232MOL0     C31215   9.958   2.427   6.707  0.5792  0.1773 -0.1623
  232MOL0     O31216  10.082   2.463   6.655 -0.3244  0.1092 -0.3450
  232MOL0     C31217  10.112   2.472   6.521  0.0586 -0.7803  0.2852
  232MOL0     C31218  10.242   2.449   6.472 -0.1570 -0.1321  0.3975
  232MOL0     C31219  10.282   2.486   6.340  0.8252  0.1669 -0.9382
  232MOL0     C31220  10.182   2.523   6.245 -0.4537 -0.3202  0.0493
  232MOL0     O31221  10.206   2.546   6.116  0.6709  0.2597 -0.2642
  232MOL0     C31222  10.340   2.529   6.061  0.2692  0.1653 -0.9424
  232MOL0     C31223  10.343   2.552   5.913 -0.6364 -0.0658 -1.1250
  232MOL0     C31224  10.285   2.435   5.833  1.4507  0.0642  0.0524
  232MOL0     C31225  10.251   2.487   5.692  0.6326  0.5965  1.0295
  232MOL0     C31226  10.379   2.499   5.614 -0.3141 -0.0041  0.2337
  232MOL0     C31227  10.377   2.445   5.476  0.0776  0.1560 -0.8841
  232MOL0     C31228  10.295   2.543   5.386 -1.1594  0.1261  0.6096
  232MOL0     C31229  10.291   2.510   5.232 -0.1082  0.2588 -0.6747
  232MOL0    Cl31230  10.447   2.452   5.174 -0.1694  0.3720  0.0103
  232MOL0     C31231  10.054   2.551   6.293  0.0969  0.2255 -0.4605
  232MOL0     C31232  10.025   2.526   6.424  0.1973 -0.2087  0.2326
  232MOL0     O31233   9.854   2.391   6.642  0.4993  0.5821 -0.8918
  232MOL0     C31234  10.060   2.442   6.930 -0.8107  0.0641  0.7005
  232MOL0     C31235  10.044   2.438   7.068 -0.4786 -0.1203  0.2615
  232MOL0     N31236  10.331   2.573   7.354 -0.0136 -0.2459 -0.5268
  232MOL0     N31237  10.329   2.684   7.282  0.2777  0.2290  0.2406
  232MOL0     C31238   9.124   2.578   7.033  0.1163 -0.7373 -0.2333
  232MOL0     C31239   8.986   2.592   6.999  0.5821  0.1807  0.1136
  232MOL0     C31240   8.609   2.651   6.721  0.1824  0.7676  0.0346
  232MOL0     C31241   8.527   2.623   6.606 -0.2188  0.1435 -0.1018
  232MOL0     C31242   8.388   2.620   6.611 -0.4436 -0.3388 -0.2325
  232MOL0     C31243   8.324   2.660   6.732 -0.3032  0.6554  0.5952
  232MOL0     O31244   8.184   2.665   6.718 -0.0156  0.3488 -0.1031
  232MOL0     C31245   8.107   2.670   6.842 -0.1564  0.1817  0.3086
  232MOL0     C31246   7.947   2.658   6.815 -0.4726 -0.9209 -0.1320
  232MOL0     C31247   7.929   2.527   6.738 -0.0824  0.0493 -0.0940
  232MOL0     C31248   7.777   2.512   6.720  0.1418  0.3732  0.5088
  232MOL0     C31249   7.688   2.481   6.835 -0.0338 -0.1201  0.8123
  232MOL0     C31250   7.614   2.453   6.928 -0.1957  0.5858  0.4530
  232MOL0     C31251   8.405   2.703   6.846  0.3330  0.0533 -0.4295
  232MOL0     C31252   8.538   2.694   6.837 -0.3728  0.6711  0.3766
  232MOL0     H31253   9.009   2.744   6.704  0.9097  1.9860  0.9302
  232MOL0     H31254   9.256   2.752   6.773 -0.7963  0.7405 -1.1244
  232MOL0     H31255   9.386   2.811   7.048  0.4525 -0.9297 -3.3741
  232MOL0     H31256   9.324   2.712   7.156 -2.6300  3.6678 -2.3558
  232MOL0     H31257   9.577   2.577   7.137  0.0568  0.2729 -0.6280
  232MOL0     H31258   9.604   2.699   7.020 -1.7208 -1.8239 -2.2097
  232MOL0     H31259   9.602   2.877   7.165  1.0123  2.0240  2.7625
  232MOL0     H31260   9.523   2.788   7.294 -0.8142 -3.8465 -0.1625
  232MOL0     H31261   9.749   2.802   7.369 -0.7196 -2.1330  1.4514
  232MOL0     H31262   9.740   2.639   7.311 -2.6236 -0.4573 -1.0911
  232MOL0     H31263   9.846   2.706   7.092  0.7711 -0.1060  0.3744
  232MOL0     H31264   9.819   2.876   7.145 -2.5614 -0.3018 -1.1952
  232MOL0     H31265   9.960   2.833   7.334  0.2382 -0.2247  1.1404
  232MOL0     H31266   9.994   2.665   7.282 -2.1164  0.3165  2.2908
  232MOL0     H31267  10.128   2.754   7.095  1.4934  1.8772 -1.8382
  232MOL0     H31268  10.056   2.916   7.110 -3.5502 -0.3706  1.4986
  232MOL0     H31269  10.148   2.970   7.311 -0.9557  0.1330  0.7007
  232MOL0     H31270  10.274   2.922   7.207 -0.4129 -0.6719  0.3231
  232MOL0     H31271  10.112   2.763   7.505 -0.2632  0.9282 -1.9025
  232MOL0     H31272  10.271   2.414   7.572  0.3245  0.4882 -1.5182
  232MOL0     H31273  10.210   2.547   7.668 -2.5797 -2.4598  1.5718
  232MOL0     H31274  10.001   2.522   7.501 -0.1318  1.5200  1.7446
  232MOL0     H31275  10.019   2.396   7.622 -3.5684 -0.1850 -1.5628
  232MOL0     H31276  10.116   2.239   7.463 -1.2833 -1.7943 -2.6792
  232MOL0     H31277  10.155   2.371   7.351 -2.1369  2.4336  0.1689
  232MOL0     H31278   9.868   2.289   7.434 -0.8749 -1.2637 -0.0376
  232MOL0     H31279   9.953   2.214   7.299  2.6004  1.8685 -2.3779
  232MOL0     H31280   9.726   2.388   7.105  0.6792 -2.1903  1.4292
  232MOL0     H31281   9.704   2.533   6.787 -0.0659 -0.8904 -1.5694
  232MOL0     H31282   9.668   2.359   6.803 -1.6144  0.6073  0.6661
  232MOL0     H31283   9.613   2.466   6.932  0.8732  0.9210  1.5771
  232MOL0     H31284  10.315   2.416   6.546  0.7592 -1.5714 -1.0830
  232MOL0     H31285  10.382   2.461   6.309  0.5039  0.7665 -2.5607
  232MOL0     H31286  10.402   2.597   6.120 -1.2048 -0.4108  1.4208
  232MOL0     H31287  10.377   2.427   6.081 -0.4671  0.1512  0.4873
  232MOL0     H31288  10.292   2.647   5.897 -1.5248 -0.0294  1.4420
  232MOL0     H31289  10.442   2.576   5.872 -1.0078  2.4766 -0.7001
  232MOL0     H31290  10.196   2.391   5.879  1.8005 -0.6387  0.0667
  232MOL0     H31291  10.345   2.344   5.830 -1.6056 -2.1224  0.1279
  232MOL0     H31292  10.192   2.408   5.645  0.1920 -0.3064  3.0155
  232MOL0     H31293  10.194   2.580   5.704  0.4113  0.6140 -0.0392
  232MOL0     H31294  10.453   2.440   5.668 -0.6448 -2.6057 -1.9444
  232MOL0     H31295  10.407   2.604   5.623 -1.5425  0.3539  0.0336
  232MOL0     H31296  10.481   2.436   5.443  0.2450  1.8335 -0.9140
  232MOL0     H31297  10.326   2.348   5.472  1.4227 -0.6815  0.8317
  232MOL0     H31298  10.348   2.637   5.404  0.5521 -0.9376  1.4007
  232MOL0     H31299  10.192   2.545   5.425 -1.3338  1.9772  0.1497
  232MOL0     H31300  10.250   2.591   5.170 -0.3313  0.7528  0.1049
  232MOL0     H31301  10.224   2.431   5.200  0.4370 -0.1064 -0.9329
  232MOL0     H31302   9.982   2.596   6.225  0.3774  0.8047 -0.3805
  232MOL0     H31303   9.924   2.556   6.452  1.0537  1.0986  2.1669
  232MOL0     H31304  10.162   2.450   6.893 -0.8447 -4.3769 -1.0220
  232MOL0     H31305  10.134   2.442   7.129  0.2478 -3.9929 -0.2366
  232MOL0     H31306   9.153   2.539   7.130 -1.1114 -1.7604 -0.2444
  232MOL0     H31307   8.921   2.554   7.077  1.9378 -2.6701 -0.0223
  232MOL0     H31308   8.563   2.578   6.514 -0.6434 -1.2196  0.3822
  232MOL0     H31309   8.325   2.580   6.532 -1.5610 -0.6107  0.7750
  232MOL0     H31310   8.127   2.582   6.904  0.2617 -2.2209 -3.0161
  232MOL0     H31311   8.118   2.762   6.900 -5.4992  2.9050 -2.2030
  232MOL0     H31312   7.911   2.737   6.749  1.4955 -0.9718 -1.3310
  232MOL0     H31313   7.903   2.670   6.914  0.8913 -2.2407  0.6822
  232MOL0     H31314   7.963   2.445   6.802 -1.0572  1.3568  2.1940
  232MOL0     H31315   7.977   2.528   6.640  0.9834 -4.0138  0.1851
  232MOL0     H31316   7.760   2.427   6.653  1.1421  0.3985  0.2107
  232MOL0     H31317   7.738   2.598   6.666  0.8217  0.7423  0.5999
  232MOL0     H31318   7.551   2.421   7.008  0.4320  1.3002  1.2500
  232MOL0     H31319   8.361   2.730   6.941 -1.8174 -2.0724 -0.6954
  232MOL0     H31320   8.596   2.732   6.920  1.0798 -1.0163  0.1753
  233MOL0     O31321   9.572   7.802   2.183 -0.5430 -0.4507  0.5202
  233MOL0     C31322   9.565   7.888   2.093 -0.2739 -0.5911 -1.8616
  233MOL0     O31323   9.468   7.981   2.082 -0.2558  0.2323  0.3329
  233MOL0     C31324   9.358   7.989   2.164 -0.4274  0.2589  0.5100
  233MOL0     C31325   9.268   8.080   2.116  0.3567  0.0563  0.5966
  233MOL0     C31326   9.151   8.122   2.177  0.9082 -0.0637  0.2451
  233MOL0     C31327   9.120   8.055   2.291  0.3946 -0.1823  0.1581
  233MOL0     O31328   9.008   8.078   2.361 -0.4050  0.6249 -0.2070
  233MOL0     C31329   9.008   8.214   2.402  0.5611 -0.0678  1.1940
  233MOL0     C31330   8.897   8.230   2.517 -0.0741 -0.0964 -0.3049
  233MOL0     C31331   8.761   8.179   2.483  0.8177 -0.5386 -0.3430
  233MOL0     C31332   8.660   8.289   2.521  0.1259 -0.7014 -0.2277
  233MOL0     C31333   8.516   8.241   2.511  0.0540 -0.1339 -0.5372
  233MOL0     C31334   8.422   8.345   2.575 -0.4114  1.0430 -0.1608
  233MOL0     C31335   8.297   8.275   2.631  0.7646  1.0468 -0.4904
  233MOL0     C31336   8.306   8.228   2.780 -0.2630 -0.4395  0.4673
  233MOL0     N31337   8.174   8.211   2.842  0.8455 -0.0955  0.1573
  233MOL0     C31338   8.140   8.257   2.966  1.0550 -0.5144  0.6141
  233MOL0     C31339   8.022   8.193   2.994 -0.5606 -0.0171 -0.1625
  233MOL0     C31340   7.953   8.214   3.123  0.1915 -0.5711 -0.2601
  233MOL0     C31341   7.850   8.328   3.118 -0.0731 -0.1337  0.1643
  233MOL0     C31342   7.722   8.284   3.058  0.5100 -0.8561  0.7663
  233MOL0     C31343   7.654   8.171   3.129  0.0495  0.2955  1.1551
  233MOL0     O31344   7.630   8.196   3.268 -0.1295  0.7242  0.2173
  233MOL0     C31345   7.533   8.124   3.334 -0.5029  0.6572  0.4373
  233MOL0     C31346   7.493   8.164   3.458 -0.3427  0.3000 -0.0137
  233MOL0     C31347   7.394   8.094   3.529  0.3159  0.4621 -0.1644
  233MOL0     C31348   7.356   8.163   3.662  1.2211 -0.0388 -1.2693
  233MOL0     C31349   7.327   7.977   3.471  0.0004  0.3828 -0.0456
  233MOL0     C31350   7.208   7.911   3.534 -0.5918  0.1060 -0.3288
  233MOL0     O31351   7.175   7.780   3.498 -0.3979  0.1761  0.2631
  233MOL0     C31352   7.088   7.714   3.576  0.8283  0.2700 -0.3414
  233MOL0     C31353   7.138   7.628   3.679  0.0855 -0.0709  1.6965
  233MOL0     C31354   7.050   7.554   3.763  0.5187 -0.2453  0.9689
  233MOL0     C31355   6.913   7.581   3.762  0.4202  0.3135 -0.1217
  233MOL0     O31356   6.838   7.507   3.855 -0.7930 -0.3790 -0.2859
  233MOL0     C31357   6.725   7.575   3.908 -1.0355  0.3180 -0.4184
  233MOL0     C31358   6.604   7.491   3.866 -0.1342 -0.2569  1.2880
  233MOL0     C31359   6.488   7.535   3.952 -0.2358 -0.3562  1.0258
  233MOL0     C31360   6.360   7.455   3.924 -0.2379 -0.3519  0.6035
  233MOL0     C31361   6.298   7.469   3.784  0.0304 -0.3805 -0.9250
  233MOL0     C31362   6.165   7.400   3.769  1.3061 -0.3357 -0.4591
  233MOL0     C31363   6.085   7.438   3.632 -0.7963  0.1399 -0.1819
  233MOL0     C31364   5.973   7.339   3.600  0.6675  0.2523  0.4736
  233MOL0    Cl31365   5.822   7.366   3.711 -0.3348 -0.4338 -0.0321
  233MOL0     C31366   6.870   7.673   3.666  0.4261  0.0234 -0.0579
  233MOL0     C31367   6.955   7.730   3.576  0.4299 -0.5370  0.5477
  233MOL0     O31368   7.140   7.976   3.608  0.2544  0.3410 -0.0095
  233MOL0     C31369   7.376   7.932   3.346  0.6240  0.4425  0.2831
  233MOL0     C31370   7.482   8.005   3.286 -0.3058  0.2638  0.1346
  233MOL0     N31371   7.981   8.120   2.881  0.3191 -0.2332  0.4006
  233MOL0     N31372   8.074   8.132   2.793  0.1099  0.8173 -0.2403
  233MOL0     C31373   9.219   7.967   2.349  0.8018  0.1738  0.2870
  233MOL0     C31374   9.337   7.937   2.292 -0.9620  0.4461 -0.0979
  233MOL0     C31375   9.687   7.895   2.005  0.6239  0.4329 -0.7063
  233MOL0     C31376   9.698   7.999   1.916 -0.3025  0.4403 -0.3475
  233MOL0     C31377   9.805   8.005   1.825  0.3360 -0.5659  0.0685
  233MOL0     C31378   9.891   7.887   1.816 -0.0922 -0.5180  0.3762
  233MOL0     O31379   9.984   7.868   1.722  0.3271 -0.6993 -0.6114
  233MOL0     C31380  10.037   7.985   1.655 -0.3585  1.3706  0.3285
  233MOL0     C31381  10.151   7.937   1.577 -0.1155  0.2568 -0.8477
  233MOL0     C31382  10.284   7.920   1.657  1.3673 -0.4090 -0.0897
  233MOL0     C31383  10.286   7.819   1.768  0.5910 -0.2452  0.0741
  233MOL0     C31384  10.422   7.793   1.819 -0.2902 -0.7416  0.0455
  233MOL0     C31385  10.539   7.775   1.853  0.0007 -0.4301 -0.1686
  233MOL0     C31386   9.888   7.787   1.918 -0.1318 -0.1591 -0.3288
  233MOL0     C31387   9.783   7.794   2.008  0.2678 -0.1245 -0.6021
  233MOL0     H31388   9.294   8.124   2.021  2.7522 -0.3876  0.9953
  233MOL0     H31389   9.081   8.188   2.126  0.1607  0.5614  1.9990
  233MOL0     H31390   9.103   8.253   2.437  0.1237  1.3807  0.8194
  233MOL0     H31391   8.977   8.276   2.318 -0.3368 -1.4001  0.4956
  233MOL0     H31392   8.942   8.178   2.602 -0.4563 -1.3786 -0.8625
  233MOL0     H31393   8.897   8.336   2.545  2.4802  0.3665 -1.7423
  233MOL0     H31394   8.755   8.166   2.374  0.0657 -2.7200 -0.0915
  233MOL0     H31395   8.735   8.087   2.535  1.0139 -0.8646 -0.8110
  233MOL0     H31396   8.679   8.312   2.626  0.1729 -0.7819 -0.2184
  233MOL0     H31397   8.681   8.376   2.458 -1.5183 -1.5644 -2.0673
  233MOL0     H31398   8.490   8.237   2.405  2.7004  1.4462 -1.3404
  233MOL0     H31399   8.498   8.146   2.563 -1.3315  0.2615 -0.2462
  233MOL0     H31400   8.463   8.409   2.655 -1.3808  1.6073 -0.1026
  233MOL0     H31401   8.370   8.414   2.508 -0.9899  0.6795 -0.0926
  233MOL0     H31402   8.207   8.336   2.638  1.2364  1.5904  1.8167
  233MOL0     H31403   8.277   8.188   2.568  3.5599 -1.0614  1.3032
  233MOL0     H31404   8.363   8.302   2.836  1.1984 -1.9215  1.0227
  233MOL0     H31405   8.361   8.133   2.782 -0.3031 -0.4735  0.0963
  233MOL0     H31406   8.192   8.332   3.025  1.9051 -0.1475 -0.5571
  233MOL0     H31407   7.915   8.117   3.156 -0.9963 -0.8347 -2.2669
  233MOL0     H31408   8.033   8.239   3.194  0.7427  0.7134 -1.2882
  233MOL0     H31409   7.896   8.399   3.049  0.9769 -2.4080 -1.5992
  233MOL0     H31410   7.838   8.371   3.218  0.7596  2.3031 -0.6928
  233MOL0     H31411   7.732   8.253   2.954  0.7076  0.7639  0.2817
  233MOL0     H31412   7.651   8.367   3.054  1.8167  0.2937  0.4431
  233MOL0     H31413   7.718   8.082   3.128 -0.0893  0.1937  1.3039
  233MOL0     H31414   7.565   8.147   3.070  1.2099  1.2902 -1.1304
  233MOL0     H31415   7.542   8.249   3.504  1.3814  0.4607 -1.9778
  233MOL0     H31416   7.275   8.236   3.650 -2.3015 -3.1153  1.3886
  233MOL0     H31417   7.320   8.089   3.734  0.7885  3.1079  2.0374
  233MOL0     H31418   7.439   8.219   3.707  0.9910 -0.6277 -0.0758
  233MOL0     H31419   7.245   7.611   3.693  0.4205  1.4255  1.0783
  233MOL0     H31420   7.097   7.488   3.835  2.0472 -0.8417 -0.5095
  233MOL0     H31421   6.729   7.574   4.017  0.8857  1.4782 -0.4433
  233MOL0     H31422   6.703   7.678   3.877  0.2805  0.2689 -1.6128
  233MOL0     H31423   6.583   7.502   3.759  3.7274 -1.7723  0.2243
  233MOL0     H31424   6.625   7.384   3.874 -0.3251 -0.7759 -2.8897
  233MOL0     H31425   6.466   7.641   3.940 -1.4536 -0.6958  0.1009
  233MOL0     H31426   6.511   7.514   4.057 -3.0930  0.0970  1.8241
  233MOL0     H31427   6.379   7.349   3.941  1.5708  0.1789  2.1686
  233MOL0     H31428   6.282   7.474   3.998 -3.3367 -3.6286 -1.4764
  233MOL0     H31429   6.368   7.430   3.710  0.3430  1.8882 -1.9242
  233MOL0     H31430   6.285   7.577   3.767  0.7847 -0.2254 -0.5244
  233MOL0     H31431   6.184   7.293   3.772  3.6792 -0.0086 -1.8012
  233MOL0     H31432   6.091   7.424   3.846 -1.3181  1.6331 -3.3172
  233MOL0     H31433   6.146   7.456   3.543 -0.8114  2.8774  0.2959
  233MOL0     H31434   6.041   7.536   3.649  0.7309  0.8343 -0.1294
  233MOL0     H31435   6.008   7.236   3.604 -1.2221 -0.4728 -0.4564
  233MOL0     H31436   5.933   7.353   3.499 -1.1363 -0.0353  1.1083
  233MOL0     H31437   6.764   7.686   3.649  0.5639  2.9211  0.6498
  233MOL0     H31438   6.907   7.802   3.510 -0.5424 -0.1291  1.6673
  233MOL0     H31439   7.328   7.846   3.301 -0.5333  0.7968  0.7827
  233MOL0     H31440   7.520   7.973   3.189  0.3797  1.2008  0.0742
  233MOL0     H31441   9.189   7.925   2.445  3.2515  0.3710  1.2006
  233MOL0     H31442   9.403   7.869   2.345 -4.3486 -3.4213 -0.2829
  233MOL0     H31443   9.625   8.079   1.908 -0.6780  0.6040  3.3048
  233MOL0     H31444   9.815   8.084   1.750 -0.3179 -0.2484  0.3115
  233MOL0     H31445   9.961   8.030   1.590 -1.0503 -1.0683 -0.6597
  233MOL0     H31446  10.061   8.061   1.730 -1.0361  0.6258  1.3369
  233MOL0     H31447  10.166   8.000   1.489  2.8485 -1.7264 -1.9027
  233MOL0     H31448  10.117   7.839   1.540 -2.7553 -0.0058  1.8777
  233MOL0     H31449  10.314   8.014   1.704 -1.7060 -0.8291  3.1239
  233MOL0     H31450  10.354   7.888   1.578 -1.2748 -0.7487 -2.4405
  233MOL0     H31451  10.249   7.728   1.720  0.3388  0.6271 -1.4389
  233MOL0     H31452  10.222   7.853   1.850  0.7759  2.2740 -0.7425
  233MOL0     H31453  10.643   7.771   1.876 -0.4206  0.1935  2.0884
  233MOL0     H31454   9.974   7.722   1.905 -0.0137  0.0409 -0.5538
  233MOL0     H31455   9.770   7.715   2.081 -3.6089  2.6659  2.1327
  234MOL0     O31456   7.357   6.643   6.298 -0.1498 -0.2511 -0.0072
  234MOL0     C31457   7.379   6.715   6.200 -0.0422  0.6143  0.2694
  234MOL0     O31458   7.290   6.774   6.113 -0.0868  0.5775  0.2659
  234MOL0     C31459   7.153   6.767   6.138 -0.5823 -0.4511 -0.3706
  234MOL0     C31460   7.079   6.783   6.026  0.6928 -0.1522 -0.6758
  234MOL0     C31461   6.939   6.780   6.029 -0.0610 -0.1929 -0.2127
  234MOL0     C31462   6.874   6.764   6.143  0.9038  0.9795  0.2076
  234MOL0     O31463   6.737   6.747   6.145 -0.4556  0.5918  0.0512
  234MOL0     C31464   6.656   6.775   6.250  0.1375 -0.1090 -1.2597
  234MOL0     C31465   6.508   6.759   6.218 -0.2751 -0.7223  1.1418
  234MOL0     C31466   6.473   6.621   6.174  0.4979  0.3673  0.3129
  234MOL0     C31467   6.324   6.619   6.168 -0.1726  0.2118 -1.1275
  234MOL0     C31468   6.271   6.484   6.108  0.2962  1.0268  0.2936
  234MOL0     C31469   6.115   6.480   6.126  0.4372  0.0474 -0.7350
  234MOL0     C31470   6.062   6.334   6.120  0.2918 -0.2554  0.7195
  234MOL0     C31471   6.089   6.258   5.983 -0.0435 -0.1548 -0.1353
  234MOL0     N31472   6.210   6.171   5.998  0.8766  0.0237  0.3567
  234MOL0     C31473   6.322   6.177   5.922  0.7333  0.4008 -0.7390
  234MOL0     C31474   6.414   6.103   5.982 -0.1261  0.1464  0.0667
  234MOL0     C31475   6.561   6.091   5.968  0.0455 -0.5826 -0.2880
  234MOL0     C31476   6.644   6.192   6.051  0.2895 -0.3395  0.8693
  234MOL0     C31477   6.618   6.190   6.204 -0.0773  0.0546  0.3524
  234MOL0     C31478   6.710   6.278   6.296  0.6360 -0.7570  0.9952
  234MOL0     O31479   6.851   6.250   6.273 -0.2785  0.2106 -0.4394
  234MOL0     C31480   6.946   6.326   6.338  0.6672 -0.0455 -0.4609
  234MOL0     C31481   7.081   6.288   6.313  0.3046  0.2219 -0.0940
  234MOL0     C31482   7.192   6.351   6.375 -0.3261 -0.2081  0.1282
  234MOL0     C31483   7.326   6.286   6.366 -0.0747  0.4809  0.6766
  234MOL0     C31484   7.171   6.455   6.468  0.9916 -0.5555  0.4327
  234MOL0     C31485   7.273   6.524   6.546  0.1428 -0.9095 -0.1123
  234MOL0     O31486   7.239   6.631   6.625  0.2509 -0.1662  0.4063
  234MOL0     C31487   7.353   6.688   6.692  0.9786 -0.6040  0.0767
  234MOL0     C31488   7.454   6.763   6.625  0.0843 -0.1194  0.1548
  234MOL0     C31489   7.557   6.814   6.700 -0.7164  0.0204 -0.2662
  234MOL0     C31490   7.559   6.799   6.841  0.5579  0.0689 -0.2633
  234MOL0     O31491   7.662   6.851   6.918 -0.0073  0.9675  0.4642
  234MOL0     C31492   7.790   6.889   6.865 -0.8808 -0.0311  0.2584
  234MOL0     C31493   7.908   6.882   6.960 -0.3671  0.0265  0.6950
  234MOL0     C31494   8.023   6.944   6.905  0.0286  0.4552  0.2896
  234MOL0     C31495   8.144   6.947   6.998  0.2562 -0.3341  0.2446
  234MOL0     C31496   8.278   6.982   6.930  0.2209 -0.8346 -0.6390
  234MOL0     C31497   8.312   6.892   6.808  0.0764 -0.5858 -0.3100
  234MOL0     C31498   8.450   6.904   6.763 -0.4888  0.7028  0.5448
  234MOL0     C31499   8.465   6.814   6.638  0.2201  0.6991  0.3815
  234MOL0    Cl31500   8.616   6.858   6.560  0.1546  0.1391  0.0830
  234MOL0     C31501   7.455   6.726   6.900  0.0657 -0.6031 -0.0464
  234MOL0     C31502   7.357   6.667   6.830 -0.1772 -0.1507  0.5199
  234MOL0     O31503   7.378   6.458   6.563 -0.6899 -0.1038  1.0460
  234MOL0     C31504   7.036   6.494   6.493  0.6398  0.6738  0.3457
  234MOL0     C31505   6.926   6.433   6.420  0.1983  0.4596  0.0752
  234MOL0     N31506   6.345   6.029   6.079 -0.2520 -0.0341  0.1821
  234MOL0     N31507   6.222   6.064   6.084 -0.1856 -0.4212 -0.3911
  234MOL0     C31508   6.950   6.747   6.261 -0.5206  0.0587 -0.3275
  234MOL0     C31509   7.094   6.763   6.259  0.6056  0.7544 -0.0624
  234MOL0     C31510   7.522   6.740   6.192 -0.9310 -0.5865  0.9142
  234MOL0     C31511   7.572   6.836   6.102  0.9608 -0.5872  0.1345
  234MOL0     C31512   7.705   6.833   6.067 -0.2749 -1.0759  0.5753
  234MOL0     C31513   7.791   6.737   6.112 -0.7689  0.3486 -0.6596
  234MOL0     O31514   7.911   6.744   6.044 -0.3818  0.2498  0.1650
  234MOL0     C31515   8.036   6.684   6.100  0.0235  0.5708 -0.2986
  234MOL0     C31516   8.144   6.739   6.023  0.4228 -0.5564 -0.0832
  234MOL0     C31517   8.285   6.676   6.062 -0.3606 -1.6192  0.1913
  234MOL0     C31518   8.393   6.723   5.957  0.1999  0.4334  0.0494
  234MOL0     C31519   8.525   6.663   5.992 -0.6148  0.6216  0.6849
  234MOL0     C31520   8.632   6.616   6.027  0.1608 -0.7725 -0.2959
  234MOL0     C31521   7.752   6.648   6.213  0.2210  0.2808  0.0513
  234MOL0     C31522   7.616   6.647   6.252 -0.4444 -0.5952  0.5682
  234MOL0     H31523   7.126   6.812   5.933 -0.3190  0.0715 -1.1293
  234MOL0     H31524   6.876   6.793   5.941  0.7872  1.0847 -0.6577
  234MOL0     H31525   6.677   6.715   6.340 -1.4859  1.4355  0.2400
  234MOL0     H31526   6.675   6.877   6.283  0.5725 -0.6650  0.3234
  234MOL0     H31527   6.472   6.784   6.318 -0.0924 -0.7606  1.2180
  234MOL0     H31528   6.464   6.833   6.151 -0.8685  0.2664  2.5726
  234MOL0     H31529   6.524   6.602   6.079 -0.3145 -0.3883  0.0159
  234MOL0     H31530   6.516   6.548   6.243  3.9085  1.4527 -0.4714
  234MOL0     H31531   6.272   6.628   6.264 -0.8831 -0.6294 -1.4203
  234MOL0     H31532   6.292   6.697   6.099 -0.3850 -0.0268 -1.2995
  234MOL0     H31533   6.300   6.465   6.005  1.3965 -1.0080  0.9176
  234MOL0     H31534   6.315   6.403   6.168  0.0888  0.2984 -0.5141
  234MOL0     H31535   6.091   6.528   6.221  2.0212  0.0382 -0.3017
  234MOL0     H31536   6.072   6.540   6.045  1.0547 -1.0086 -1.8956
  234MOL0     H31537   6.099   6.274   6.203 -0.4872 -2.2141 -0.2782
  234MOL0     H31538   5.953   6.338   6.121  0.1481 -0.3518 -2.5924
  234MOL0     H31539   6.106   6.319   5.894 -0.7417  1.4646  0.7873
  234MOL0     H31540   6.004   6.191   5.966 -0.4009  0.6513 -1.7236
  234MOL0     H31541   6.334   6.255   5.848 -1.3578 -0.0955 -1.6921
  234MOL0     H31542   6.587   5.987   5.987  0.7109 -0.4553 -0.4693
  234MOL0     H31543   6.592   6.115   5.866 -0.5438  0.2736 -0.2754
  234MOL0     H31544   6.615   6.290   6.013  0.5422 -0.9748 -1.0764
  234MOL0     H31545   6.748   6.166   6.028  1.0771  3.3266 -0.3840
  234MOL0     H31546   6.629   6.086   6.234  0.7460 -0.1028 -0.4347
  234MOL0     H31547   6.515   6.221   6.223 -0.0741  0.3007 -0.0151
  234MOL0     H31548   6.683   6.250   6.399 -0.7204 -0.2186  0.8110
  234MOL0     H31549   6.693   6.385   6.280  0.8218 -0.7449  0.8771
  234MOL0     H31550   7.093   6.204   6.246  3.0342 -0.9349  1.6353
  234MOL0     H31551   7.329   6.219   6.279  1.1224  2.3265 -0.7627
  234MOL0     H31552   7.404   6.362   6.355 -0.0922  0.4994  0.6796
  234MOL0     H31553   7.334   6.229   6.459 -2.4931  1.6091  1.6648
  234MOL0     H31554   7.456   6.754   6.517 -0.3564  0.3699  0.1022
  234MOL0     H31555   7.630   6.864   6.638  1.1469  0.7483  2.3532
  234MOL0     H31556   7.820   6.840   6.771 -0.6930  0.7481 -0.1027
  234MOL0     H31557   7.794   6.997   6.848  2.3361  0.0966  1.1451
  234MOL0     H31558   7.878   6.933   7.053 -1.9044  0.4440 -0.0025
  234MOL0     H31559   7.931   6.779   6.988 -0.0001  0.3909  1.7952
  234MOL0     H31560   7.993   7.047   6.882 -1.0262  0.1217  0.0777
  234MOL0     H31561   8.042   6.889   6.812 -2.5923 -0.8230  0.4068
  234MOL0     H31562   8.128   7.022   7.076  0.1208  0.2405 -0.3375
  234MOL0     H31563   8.143   6.851   7.052 -0.8541  1.1155  2.9755
  234MOL0     H31564   8.355   6.961   7.005  0.6925 -0.0212 -0.8793
  234MOL0     H31565   8.285   7.088   6.903  1.7902 -0.9978 -0.9493
  234MOL0     H31566   8.287   6.788   6.833  0.5448 -0.9897 -1.4904
  234MOL0     H31567   8.245   6.914   6.724 -0.4667 -0.3717  0.1692
  234MOL0     H31568   8.523   6.883   6.842 -1.4799  1.4940  1.6965
  234MOL0     H31569   8.467   7.007   6.731  0.5058  0.1199 -0.9615
  234MOL0     H31570   8.380   6.842   6.575  1.4564  2.3043 -0.6555
  234MOL0     H31571   8.461   6.709   6.667 -1.1252  0.7073  0.3188
  234MOL0     H31572   7.452   6.724   7.009 -1.3600 -3.3014 -0.0364
  234MOL0     H31573   7.282   6.602   6.874 -1.5513  0.0100 -1.4658
  234MOL0     H31574   7.017   6.571   6.567  3.5031  0.0881  1.8295
  234MOL0     H31575   6.828   6.478   6.428 -0.4600 -0.3632 -2.4123
  234MOL0     H31576   6.902   6.718   6.354 -2.4201 -1.2355 -1.6385
  234MOL0     H31577   7.155   6.766   6.349 -0.9689  0.7988  1.0587
  234MOL0     H31578   7.507   6.908   6.052  2.9548  0.7913 -0.5885
  234MOL0     H31579   7.738   6.908   5.997 -1.1113 -0.1587  1.1299
  234MOL0     H31580   8.046   6.722   6.202 -1.0159  0.0818 -0.0067
  234MOL0     H31581   8.045   6.575   6.096  0.6538  0.4648  2.1759
  234MOL0     H31582   8.150   6.848   6.030  0.5731 -0.4762 -1.3178
  234MOL0     H31583   8.120   6.720   5.918 -0.0990  1.6337 -0.4118
  234MOL0     H31584   8.286   6.567   6.067  3.0415 -1.6475  0.8230
  234MOL0     H31585   8.309   6.716   6.160  2.5610 -3.0845  0.1646
  234MOL0     H31586   8.404   6.832   5.950  1.6974  0.2402 -1.0503
  234MOL0     H31587   8.355   6.689   5.860  0.4476 -2.3307  0.8554
  234MOL0     H31588   8.728   6.600   6.071  0.9812  4.2042  0.2070
  234MOL0     H31589   7.814   6.565   6.246 -1.3094 -0.2584  1.7497
  234MOL0     H31590   7.585   6.572   6.324 -1.5805  0.6854  1.4661
  235MOL0     O31591   0.326   8.784   6.414 -0.3559 -0.0895 -0.1150
  235MOL0     C31592   0.422   8.802   6.339 -0.1269 -0.5000 -0.5043
  235MOL0     O31593   0.441   8.732   6.230  0.1983 -0.0520 -0.7251
  235MOL0     C31594   0.343   8.643   6.189 -0.4696 -0.5223  0.1983
  235MOL0     C31595   0.280   8.548   6.259  0.1747 -0.0796 -0.8066
  235MOL0     C31596   0.189   8.466   6.200  0.1310  0.0012 -0.3737
  235MOL0     C31597   0.148   8.484   6.068  0.0937 -0.4153 -0.9467
  235MOL0     O31598   0.055   8.396   6.023  0.5375 -0.1123 -0.7414
  235MOL0     C31599  -0.021   8.446   5.915 -0.3359 -0.7067  1.2120
  235MOL0     C31600  -0.159   8.368   5.916  0.4470 -0.0590  0.2299
  235MOL0     C31601  -0.207   8.348   5.770  0.6122 -0.8290  0.1674
  235MOL0     C31602  -0.340   8.276   5.749 -0.9101 -0.4444 -0.7654
  235MOL0     C31603  -0.455   8.362   5.795  0.5835  0.9252  0.3908
  235MOL0     C31604  -0.595   8.285   5.771 -0.3457  0.0920 -0.4259
  235MOL0     C31605  -0.704   8.375   5.825 -0.8554 -0.0466 -0.1393
  235MOL0     C31606  -0.705   8.383   5.980 -0.7010 -0.1035 -0.5714
  235MOL0     N31607  -0.833   8.417   6.034 -0.2906  0.0519 -0.5087
  235MOL0     C31608  -0.936   8.326   6.054 -0.1111  0.0197  1.1054
  235MOL0     C31609  -1.048   8.398   6.043  0.1925  0.2065  0.0911
  235MOL0     C31610  -1.187   8.340   6.035  1.0268  0.0451 -0.2987
  235MOL0     C31611  -1.233   8.290   6.164  0.5214  0.5920 -0.1859
  235MOL0     C31612  -1.384   8.305   6.181  0.4954 -0.2174 -0.4478
  235MOL0     C31613  -1.429   8.458   6.197 -0.5969  0.0075 -0.6214
  235MOL0     O31614  -1.573   8.461   6.192 -0.8150  0.0254  0.5476
  235MOL0     C31615  -1.643   8.511   6.298 -0.2853 -0.1317 -0.2342
  235MOL0     C31616  -1.591   8.570   6.421 -0.2596 -0.2402 -0.1687
  235MOL0     C31617  -1.677   8.621   6.517 -0.2446 -0.1968  0.2806
  235MOL0     C31618  -1.615   8.663   6.635  0.0149  0.0782 -0.0145
  235MOL0     C31619  -1.819   8.626   6.486  0.5003  0.3664  0.0327
  235MOL0     C31620  -1.923   8.698   6.567 -0.9487  0.5318 -0.0780
  235MOL0     O31621  -2.056   8.667   6.550  0.7611  0.4201 -0.4208
  235MOL0     C31622  -2.154   8.726   6.634 -0.9293 -0.0064 -0.6731
  235MOL0     C31623  -2.151   8.863   6.655  0.0659 -0.3252 -0.7585
  235MOL0     C31624  -2.253   8.923   6.721  0.4967 -0.4761 -0.9306
  235MOL0     C31625  -2.359   8.854   6.769  0.3656  0.3962  0.5938
  235MOL0     O31626  -2.452   8.926   6.845  0.4547 -0.2948  0.3217
  235MOL0     C31627  -2.585   8.877   6.848  0.8838 -0.5321  0.2682
  235MOL0     C31628  -2.683   8.992   6.881  0.0483  0.1145  0.6172
  235MOL0     C31629  -2.834   8.962   6.878 -0.2692  0.0343 -0.7411
  235MOL0     C31630  -2.911   9.097   6.885  0.7794  0.2590  0.3694
  235MOL0     C31631  -3.064   9.081   6.884  0.3607 -1.1043 -0.0437
  235MOL0     C31632  -3.122   9.015   6.754  0.0769  0.5074  0.4058
  235MOL0     C31633  -3.268   9.033   6.731 -0.4985 -0.3369  0.1549
  235MOL0     C31634  -3.321   8.996   6.595 -0.0011  1.1919  0.3966
  235MOL0    Cl31635  -3.329   8.816   6.570 -0.0447  0.2055 -0.4358
  235MOL0     C31636  -2.366   8.713   6.750  0.4209  0.7470  0.5221
  235MOL0     C31637  -2.260   8.651   6.677  0.2180 -0.3438  0.7068
  235MOL0     O31638  -1.881   8.779   6.650 -0.0646 -0.2311  0.5533
  235MOL0     C31639  -1.860   8.559   6.367  0.9881  0.6638 -0.1476
  235MOL0     C31640  -1.778   8.501   6.276  0.0034  0.3984  1.0438
  235MOL0     N31641  -1.017   8.529   6.000 -0.0424 -0.1207 -0.4437
  235MOL0     N31642  -0.885   8.540   6.000  0.1686 -0.2148 -0.1112
  235MOL0     C31643   0.214   8.584   6.001  0.0115  0.0778 -0.3262
  235MOL0     C31644   0.313   8.672   6.051  0.3815  0.0686 -0.1503
  235MOL0     C31645   0.523   8.907   6.364 -0.1676  0.4678 -0.5818
  235MOL0     C31646   0.587   8.983   6.267  0.0561 -0.2537 -0.2669
  235MOL0     C31647   0.676   9.080   6.303  0.0883 -0.5282 -0.7963
  235MOL0     C31648   0.707   9.110   6.435 -0.3072 -0.4851  0.4391
  235MOL0     O31649   0.795   9.217   6.442 -0.1389  0.8278  0.3293
  235MOL0     C31650   0.834   9.255   6.580  0.2014  0.0864  0.3495
  235MOL0     C31651   0.951   9.355   6.557 -0.1813  0.0274 -0.5220
  235MOL0     C31652   0.985   9.411   6.696  0.0675 -0.2385 -0.2315
  235MOL0     C31653   1.116   9.487   6.690 -0.8891 -0.0217  0.0615
  235MOL0     C31654   1.113   9.609   6.613  0.3270 -0.2589  0.6085
  235MOL0     C31655   1.120   9.704   6.533 -0.0208  0.3160 -0.5227
  235MOL0     C31656   0.666   9.020   6.532  0.7131 -0.7242  0.0211
  235MOL0     C31657   0.568   8.917   6.496  0.2718  0.2099  0.4506
  235MOL0     H31658   0.309   8.536   6.364  0.3928  1.1720 -0.7032
  235MOL0     H31659   0.122   8.401   6.257  0.7178  1.3869  2.0339
  235MOL0     H31660  -0.030   8.555   5.902  1.4712 -0.5850  0.6210
  235MOL0     H31661   0.026   8.412   5.823 -0.9941  0.5916  0.3647
  235MOL0     H31662  -0.155   8.269   5.962 -0.6930  0.3794  1.3438
  235MOL0     H31663  -0.220   8.429   5.984  0.8114 -0.3918  0.8680
  235MOL0     H31664  -0.211   8.444   5.719  0.6190 -0.4097  0.9370
  235MOL0     H31665  -0.130   8.291   5.716 -1.6657 -1.0969 -3.0357
  235MOL0     H31666  -0.351   8.248   5.644  0.9925 -0.9573 -0.8634
  235MOL0     H31667  -0.339   8.189   5.815  0.7289 -0.2342 -0.4723
  235MOL0     H31668  -0.438   8.390   5.900  0.1219  1.4441  0.3321
  235MOL0     H31669  -0.465   8.449   5.730 -2.2274  1.8237  1.8398
  235MOL0     H31670  -0.603   8.264   5.664  1.8668 -2.9965 -0.1387
  235MOL0     H31671  -0.598   8.194   5.831  1.5919  0.6023  0.5439
  235MOL0     H31672  -0.707   8.470   5.770  1.9329  0.0381 -0.3124
  235MOL0     H31673  -0.797   8.329   5.792 -2.3777  1.2766  2.0689
  235MOL0     H31674  -0.641   8.466   6.013  2.0941 -0.8410 -3.6306
  235MOL0     H31675  -0.658   8.293   6.020  1.9507  0.5976 -1.8534
  235MOL0     H31676  -0.934   8.218   6.069 -1.4303 -0.4293 -1.3500
  235MOL0     H31677  -1.251   8.422   6.001  1.7650  1.6884  2.0043
  235MOL0     H31678  -1.184   8.256   5.964  0.2701  1.2491 -1.8031
  235MOL0     H31679  -1.187   8.332   6.254 -2.1654  0.6889  1.2506
  235MOL0     H31680  -1.202   8.186   6.164  1.0169  0.7322 -0.9637
  235MOL0     H31681  -1.421   8.251   6.268  0.1721 -2.2733 -1.8047
  235MOL0     H31682  -1.434   8.266   6.092  0.2617 -2.4739  0.5945
  235MOL0     H31683  -1.387   8.532   6.128 -1.4738  1.6836  0.5851
  235MOL0     H31684  -1.383   8.492   6.290 -1.5637  3.0012 -1.1253
  235MOL0     H31685  -1.488   8.553   6.450 -0.4561 -0.2359  0.5370
  235MOL0     H31686  -1.644   8.601   6.721 -1.4778  1.5357  0.5933
  235MOL0     H31687  -1.507   8.647   6.627  0.6065  3.2540  0.5443
  235MOL0     H31688  -1.640   8.769   6.647 -2.2645 -0.1178 -2.2186
  235MOL0     H31689  -2.065   8.925   6.628  0.5719 -1.4857 -1.9577
  235MOL0     H31690  -2.248   9.031   6.728  0.0665 -0.3833 -1.9327
  235MOL0     H31691  -2.612   8.819   6.760  1.2279  0.8156 -0.7724
  235MOL0     H31692  -2.603   8.802   6.926 -0.0425  0.0483  0.6331
  235MOL0     H31693  -2.651   9.020   6.982  0.0344 -0.1375  0.6946
  235MOL0     H31694  -2.660   9.079   6.820 -1.9033  0.2305 -0.0237
  235MOL0     H31695  -2.860   8.900   6.964 -1.4017  0.9696 -0.3749
  235MOL0     H31696  -2.862   8.905   6.789 -0.6241 -0.6886 -0.1757
  235MOL0     H31697  -2.889   9.151   6.978 -0.4809  0.9937  0.2661
  235MOL0     H31698  -2.881   9.165   6.805  1.7952 -0.3854  0.1850
  235MOL0     H31699  -3.109   9.181   6.892 -1.8865 -2.0646  0.0253
  235MOL0     H31700  -3.091   9.022   6.972 -0.7083  0.6794  0.8823
  235MOL0     H31701  -3.080   9.062   6.664  1.5806  1.2436  1.4508
  235MOL0     H31702  -3.108   8.907   6.744 -0.4612  0.5118 -0.6497
  235MOL0     H31703  -3.277   9.141   6.741 -2.4265 -0.5296  0.8435
  235MOL0     H31704  -3.330   9.000   6.815  2.3210 -0.2036  2.4748
  235MOL0     H31705  -3.255   9.041   6.519  3.0278 -1.2612  1.3448
  235MOL0     H31706  -3.421   9.039   6.589  0.4066  2.1049 -4.6716
  235MOL0     H31707  -2.441   8.640   6.779  1.7325 -1.5036 -1.4204
  235MOL0     H31708  -2.276   8.544   6.665  1.4424 -0.3419 -1.4601
  235MOL0     H31709  -1.965   8.543   6.345  1.7195 -1.7587 -2.4526
  235MOL0     H31710  -1.823   8.467   6.183  2.5651  1.0585 -0.5586
  235MOL0     H31711   0.181   8.596   5.898 -3.0439  1.5010  0.6920
  235MOL0     H31712   0.357   8.752   5.991 -2.2638  0.5521 -1.6091
  235MOL0     H31713   0.556   8.981   6.163 -1.3559 -1.5009  0.1513
  235MOL0     H31714   0.705   9.150   6.225 -1.2621 -0.9918 -1.7622
  235MOL0     H31715   0.746   9.290   6.634 -0.8715 -3.0307  0.8502
  235MOL0     H31716   0.876   9.176   6.642  1.8892  2.1666  1.9717
  235MOL0     H31717   0.918   9.440   6.496 -1.1310 -0.6179 -0.9145
  235MOL0     H31718   1.038   9.310   6.508  0.7442  0.7327  0.4291
  235MOL0     H31719   0.983   9.323   6.762  2.3318  1.1482  1.8540
  235MOL0     H31720   0.907   9.476   6.738 -0.4162 -1.3740  0.6843
  235MOL0     H31721   1.186   9.420   6.641 -1.6392 -0.1825 -0.8094
  235MOL0     H31722   1.147   9.519   6.790  0.0799  2.2245 -0.8751
  235MOL0     H31723   1.136   9.792   6.474  0.1880  0.4118 -0.3224
  235MOL0     H31724   0.704   9.020   6.633 -1.2880  0.0368  0.8325
  235MOL0     H31725   0.527   8.861   6.579  1.6165  0.8684  1.5894
  236MOL0     O31726   4.129   6.223   8.085  0.2590 -0.0348 -0.1317
  236MOL0     C31727   4.125   6.097   8.091 -0.5795  0.1088  0.0737
  236MOL0     O31728   4.011   6.015   8.123 -0.6134 -0.5226  0.1020
  236MOL0     C31729   3.906   6.085   8.174 -0.3129  0.3504 -0.2764
  236MOL0     C31730   3.781   6.048   8.129  0.2717 -0.3952 -0.5878
  236MOL0     C31731   3.663   6.104   8.188 -0.2598 -0.1282  0.8082
  236MOL0     C31732   3.675   6.200   8.291  0.6625 -0.9005 -0.1050
  236MOL0     O31733   3.556   6.252   8.336 -0.3063 -0.0263  0.6577
  236MOL0     C31734   3.561   6.371   8.412 -0.3857 -0.1911  0.4217
  236MOL0     C31735   3.417   6.418   8.396 -0.6700 -0.2542 -0.5365
  236MOL0     C31736   3.419   6.571   8.441 -0.1331 -0.6074  0.3719
  236MOL0     C31737   3.297   6.639   8.387  0.1905  0.0315 -0.1360
  236MOL0     C31738   3.274   6.770   8.474 -0.2833  0.5307 -0.6333
  236MOL0     C31739   3.149   6.840   8.437 -0.2329  0.4973  0.3774
  236MOL0     C31740   3.134   6.970   8.521  0.7224 -0.9909 -0.0487
  236MOL0     C31741   2.996   7.029   8.500 -0.6898 -0.2117  0.7250
  236MOL0     N31742   2.946   7.099   8.623  0.3176 -0.3210  0.5732
  236MOL0     C31743   2.865   7.042   8.720  0.1031  0.6932  0.0818
  236MOL0     C31744   2.803   7.147   8.775  0.1349  0.2578 -0.8275
  236MOL0     C31745   2.686   7.132   8.874 -0.5851 -0.1225 -0.0714
  236MOL0     C31746   2.560   7.172   8.800  0.2694  0.1746  0.8673
  236MOL0     C31747   2.429   7.172   8.886 -0.8485  0.6328  0.3363
  236MOL0     C31748   2.308   7.176   8.796 -0.1922 -0.0130 -0.7584
  236MOL0     O31749   2.324   7.276   8.695 -0.1657 -0.1014  0.2096
  236MOL0     C31750   2.228   7.370   8.659  0.3224 -0.3328 -0.5389
  236MOL0     C31751   2.101   7.389   8.718  0.5010 -0.3512 -0.0650
  236MOL0     C31752   2.013   7.493   8.675 -0.1417 -0.8069 -0.0803
  236MOL0     C31753   1.883   7.515   8.744 -0.2986  0.5101  0.1947
  236MOL0     C31754   2.056   7.590   8.572  0.6788  0.9836  0.3609
  236MOL0     C31755   1.986   7.715   8.529  0.5773  0.1157 -0.7278
  236MOL0     O31756   2.037   7.790   8.423  0.4968  0.0401  0.1519
  236MOL0     C31757   1.960   7.896   8.389 -0.1733 -0.3711  0.9134
  236MOL0     C31758   1.897   7.902   8.263 -0.1173  0.6585  0.2555
  236MOL0     C31759   1.824   8.014   8.220 -0.2084  0.2057 -0.4961
  236MOL0     C31760   1.809   8.132   8.309 -0.1228  0.1522  0.5487
  236MOL0     O31761   1.750   8.244   8.265 -0.2009 -0.1014 -0.3090
  236MOL0     C31762   1.662   8.310   8.361  0.0127 -0.2956  0.1824
  236MOL0     C31763   1.528   8.329   8.295 -0.2706 -1.1672 -0.0359
  236MOL0     C31764   1.422   8.392   8.395 -0.2354  0.0894 -0.1996
  236MOL0     C31765   1.289   8.416   8.320 -0.5748  0.1506 -1.1004
  236MOL0     C31766   1.179   8.462   8.407  0.1572  0.4386  0.7636
  236MOL0     C31767   1.044   8.487   8.341  0.2411 -0.3119 -0.2183
  236MOL0     C31768   0.936   8.558   8.422 -0.5558  0.5608 -0.4383
  236MOL0     C31769   0.826   8.477   8.485 -0.2923 -0.6088 -0.0558
  236MOL0    Cl31770   0.715   8.598   8.556  0.3228  0.0719 -0.1996
  236MOL0     C31771   1.877   8.114   8.432  0.3160  0.8861 -0.1564
  236MOL0     C31772   1.950   8.011   8.467 -0.0220  0.3024 -1.3128
  236MOL0     O31773   1.887   7.749   8.596  0.0518 -0.6148  0.1551
  236MOL0     C31774   2.181   7.565   8.513  0.8270  0.1229 -0.2709
  236MOL0     C31775   2.269   7.463   8.561 -0.7632 -0.4057  0.2783
  236MOL0     N31776   2.844   7.268   8.712 -0.3432 -0.0023 -0.6074
  236MOL0     N31777   2.935   7.235   8.631 -0.4515 -0.2085 -0.6190
  236MOL0     C31778   3.808   6.239   8.336  1.1637 -0.6545  0.1188
  236MOL0     C31779   3.917   6.180   8.276  0.7210 -0.0692  0.4881
  236MOL0     C31780   4.250   6.027   8.075  0.2492 -0.1026 -0.3947
  236MOL0     C31781   4.251   5.897   8.119  0.2610  0.5593 -0.0348
  236MOL0     C31782   4.369   5.829   8.112 -0.5442 -0.2561  0.5019
  236MOL0     C31783   4.488   5.894   8.072 -0.1603  0.4130 -1.0182
  236MOL0     O31784   4.593   5.810   8.091  0.4991 -0.0890  0.9208
  236MOL0     C31785   4.721   5.865   8.036 -0.4719  0.6180 -0.2587
  236MOL0     C31786   4.829   5.752   8.048  0.9644  0.1180  0.4882
  236MOL0     C31787   4.946   5.768   7.950  0.0347 -0.5242 -0.1235
  236MOL0     C31788   4.992   5.626   7.896 -0.1182  0.0289 -0.1134
  236MOL0     C31789   5.141   5.614   7.886  0.3316  0.3695 -0.5866
  236MOL0     C31790   5.258   5.619   7.889 -0.0688 -0.0523 -0.5662
  236MOL0     C31791   4.486   6.024   8.018 -0.3612 -0.1941 -0.3760
  236MOL0     C31792   4.364   6.095   8.026 -0.3281 -0.1578 -0.2098
  236MOL0     H31793   3.774   5.979   8.046 -1.0069  0.1910 -0.9970
  236MOL0     H31794   3.567   6.075   8.147 -0.5053  0.9171  0.6042
  236MOL0     H31795   3.578   6.337   8.515 -0.5035 -1.0898  0.1533
  236MOL0     H31796   3.637   6.440   8.374  0.1711 -0.4576  1.0355
  236MOL0     H31797   3.369   6.411   8.298 -2.0608  2.8584 -0.2057
  236MOL0     H31798   3.364   6.357   8.470 -0.9981 -2.4181 -2.4167
  236MOL0     H31799   3.416   6.563   8.550 -0.4179 -1.6491  0.3004
  236MOL0     H31800   3.513   6.611   8.403  0.2177 -3.1496 -1.8309
  236MOL0     H31801   3.309   6.668   8.283  0.7776 -0.3882 -0.1882
  236MOL0     H31802   3.214   6.567   8.392 -0.8763  1.2362 -0.1736
  236MOL0     H31803   3.270   6.737   8.578 -0.7926  0.2837 -0.7315
  236MOL0     H31804   3.363   6.834   8.468  0.6578 -0.7249 -0.3792
  236MOL0     H31805   3.157   6.872   8.333  3.6285  1.9658  0.9660
  236MOL0     H31806   3.065   6.772   8.455  0.2552  0.2326  1.7197
  236MOL0     H31807   3.149   6.944   8.626  2.4711  1.7521  0.4924
  236MOL0     H31808   3.213   7.033   8.478  0.5224 -0.8388 -0.1903
  236MOL0     H31809   2.921   6.952   8.482 -2.6296  1.6308  0.6243
  236MOL0     H31810   3.007   7.089   8.409 -0.5878  1.4164  1.7769
  236MOL0     H31811   2.843   6.938   8.741  3.3630 -0.2176 -0.4871
  236MOL0     H31812   2.690   7.031   8.916  0.0860  0.9052  2.5281
  236MOL0     H31813   2.697   7.206   8.953 -3.8526  1.1948 -0.6757
  236MOL0     H31814   2.552   7.112   8.709  1.2702  0.6396  0.4558
  236MOL0     H31815   2.575   7.274   8.766  2.2424 -0.3053  0.1415
  236MOL0     H31816   2.434   7.265   8.944 -1.7077  2.1034 -1.8096
  236MOL0     H31817   2.424   7.084   8.950 -0.7995  2.2373  2.6560
  236MOL0     H31818   2.217   7.190   8.855 -0.7396 -1.9800 -1.0472
  236MOL0     H31819   2.292   7.077   8.752 -0.4226 -0.2966 -0.0537
  236MOL0     H31820   2.065   7.323   8.796  2.2027 -2.3810 -0.9046
  236MOL0     H31821   1.896   7.606   8.803 -1.7323 -0.3808  2.0056
  236MOL0     H31822   1.796   7.526   8.679 -1.0108  1.8882  1.3108
  236MOL0     H31823   1.863   7.428   8.808  1.4594  0.3363  0.5566
  236MOL0     H31824   1.905   7.812   8.202 -2.9188  0.4427  0.1050
  236MOL0     H31825   1.792   8.024   8.117  0.5959 -3.3292 -1.1916
  236MOL0     H31826   1.648   8.256   8.455  0.1123  0.3064  0.5459
  236MOL0     H31827   1.703   8.406   8.393 -0.4421  0.1758 -0.6196
  236MOL0     H31828   1.534   8.395   8.208 -2.7803 -0.6334  0.1098
  236MOL0     H31829   1.505   8.228   8.261  0.1250 -0.8149 -1.4146
  236MOL0     H31830   1.462   8.484   8.436  1.3704 -1.2956  1.4688
  236MOL0     H31831   1.389   8.329   8.478 -0.8598  1.6872  0.8089
  236MOL0     H31832   1.314   8.488   8.242  3.4512 -0.9337 -1.0418
  236MOL0     H31833   1.258   8.326   8.267 -0.0094 -0.5269 -0.3152
  236MOL0     H31834   1.204   8.554   8.462  0.9933  0.6455  0.0667
  236MOL0     H31835   1.153   8.378   8.472 -1.2541 -1.2715 -1.8175
  236MOL0     H31836   1.071   8.552   8.257  1.6167  0.6232  0.8930
  236MOL0     H31837   0.998   8.395   8.303 -1.6497  0.6323 -0.2805
  236MOL0     H31838   0.881   8.621   8.352  2.0936 -0.7321 -4.0109
  236MOL0     H31839   0.983   8.614   8.503 -1.9332 -0.8434  1.4221
  236MOL0     H31840   0.855   8.397   8.554 -1.0761 -3.4119 -2.7883
  236MOL0     H31841   0.787   8.416   8.403  0.6115  0.1429 -1.0680
  236MOL0     H31842   1.866   8.186   8.512  0.4167  3.1391 -2.0415
  236MOL0     H31843   1.998   8.004   8.564 -0.5050  3.1523 -0.7897
  236MOL0     H31844   2.202   7.628   8.428  0.3385  1.1593  0.3573
  236MOL0     H31845   2.367   7.447   8.516 -1.5205 -1.7614 -1.0124
  236MOL0     H31846   3.824   6.292   8.429 -1.7141 -0.7687  0.7776
  236MOL0     H31847   4.015   6.189   8.322  1.1067 -1.8244  0.0904
  236MOL0     H31848   4.162   5.856   8.166  0.2693  0.0878 -0.4283
  236MOL0     H31849   4.370   5.727   8.149 -1.6190 -0.0386  1.1761
  236MOL0     H31850   4.702   5.893   7.932 -0.8963 -1.7931 -0.8991
  236MOL0     H31851   4.753   5.946   8.102 -0.2812 -1.4578  2.3651
  236MOL0     H31852   4.791   5.652   8.023  3.8272 -0.8141 -0.5458
  236MOL0     H31853   4.879   5.744   8.145  1.6133  1.4556  0.2828
  236MOL0     H31854   5.031   5.812   8.003 -2.0358  1.6832  1.6243
  236MOL0     H31855   4.917   5.823   7.860 -1.7641  0.9446  1.2936
  236MOL0     H31856   4.940   5.606   7.802 -1.2393 -1.1913  0.7094
  236MOL0     H31857   4.963   5.542   7.960 -3.8696  1.9327  0.9620
  236MOL0     H31858   5.365   5.615   7.881  0.1992 -0.1082  2.2116
  236MOL0     H31859   4.570   6.069   7.965  1.3138 -0.5428  1.8208
  236MOL0     H31860   4.349   6.191   7.977 -2.1447  0.0028  0.5591
  237MOL0     O31861   8.414   8.524   6.385  0.8441 -0.3544  0.0082
  237MOL0     C31862   8.467   8.412   6.393  0.0455  0.0472  0.1053
  237MOL0     O31863   8.414   8.291   6.407 -0.1079  0.3714 -0.6479
  237MOL0     C31864   8.278   8.291   6.441 -0.0008 -0.3452 -0.0714
  237MOL0     C31865   8.236   8.336   6.563  0.6957  0.9042  0.2199
  237MOL0     C31866   8.105   8.363   6.592 -0.1290 -0.2966  0.4072
  237MOL0     C31867   8.008   8.325   6.502 -0.4872 -0.0915  0.6742
  237MOL0     O31868   7.880   8.337   6.559  0.0022 -0.8767 -0.5019
  237MOL0     C31869   7.763   8.326   6.483 -0.0346 -0.1486 -0.6212
  237MOL0     C31870   7.660   8.413   6.547  0.5276  0.3743  0.7374
  237MOL0     C31871   7.517   8.374   6.507 -0.5169  0.3282  0.2152
  237MOL0     C31872   7.410   8.480   6.537 -0.3694 -0.4559  0.6301
  237MOL0     C31873   7.266   8.429   6.514  0.0552 -0.5418  0.3117
  237MOL0     C31874   7.189   8.548   6.591  0.8929  0.3428 -0.2627
  237MOL0     C31875   7.035   8.527   6.587  0.3834 -0.7704 -0.6979
  237MOL0     C31876   6.961   8.624   6.671 -1.1301 -0.1539 -0.3482
  237MOL0     N31877   6.815   8.606   6.650  0.2813 -0.1905 -0.8164
  237MOL0     C31878   6.739   8.510   6.698  0.5077 -0.5223 -0.9268
  237MOL0     C31879   6.626   8.521   6.632 -0.6955  0.1425 -0.2384
  237MOL0     C31880   6.511   8.422   6.650 -0.7032  0.2848 -0.3599
  237MOL0     C31881   6.391   8.503   6.687  0.5787 -0.1138 -0.6697
  237MOL0     C31882   6.311   8.532   6.559 -0.3000  0.0475 -0.1375
  237MOL0     C31883   6.169   8.574   6.592 -0.3728 -0.2863  0.5694
  237MOL0     O31884   6.167   8.689   6.681 -0.8057 -0.3503  0.1723
  237MOL0     C31885   6.044   8.738   6.727  0.1378  0.7636  0.2640
  237MOL0     C31886   6.048   8.851   6.804 -0.0863  0.2085 -0.0130
  237MOL0     C31887   5.933   8.905   6.859 -0.3572 -0.2647 -0.1036
  237MOL0     C31888   5.957   9.015   6.966 -0.3162  0.1246  0.1893
  237MOL0     C31889   5.804   8.852   6.817  0.9477  0.1154 -0.3963
  237MOL0     C31890   5.674   8.920   6.852 -0.4111 -0.2255 -0.0372
  237MOL0     O31891   5.652   8.982   6.976 -0.2783 -0.3688 -0.5507
  237MOL0     C31892   5.538   9.057   6.980 -0.4366 -0.0560  0.1105
  237MOL0     C31893   5.410   8.995   6.989  0.2038  0.3765  0.3569
  237MOL0     C31894   5.291   9.073   6.986 -0.8024  0.2142 -0.2037
  237MOL0     C31895   5.293   9.204   6.956  1.0806 -0.0474  0.3928
  237MOL0     O31896   5.178   9.277   6.958 -0.0863 -0.7142 -0.3154
  237MOL0     C31897   5.157   9.374   6.855 -0.0108  0.0825  0.0586
  237MOL0     C31898   5.010   9.420   6.852 -0.3276  0.7464  0.8073
  237MOL0     C31899   4.955   9.442   7.000 -1.0104 -0.2915 -0.0609
  237MOL0     C31900   4.817   9.508   6.999 -0.1902 -0.0011 -0.0180
  237MOL0     C31901   4.710   9.395   6.984  0.0976 -0.0534 -0.1923
  237MOL0     C31902   4.565   9.452   6.963 -0.0917 -0.3675 -0.1690
  237MOL0     C31903   4.501   9.516   7.083 -0.3540 -0.3346  0.0131
  237MOL0     C31904   4.356   9.551   7.072 -0.6309  0.4793 -0.4011
  237MOL0    Cl31905   4.260   9.406   7.086  0.2529  0.4478 -0.5073
  237MOL0     C31906   5.417   9.261   6.936  0.1942  0.9113 -0.3139
  237MOL0     C31907   5.537   9.186   6.946 -0.3964  0.4160  0.0096
  237MOL0     O31908   5.583   8.902   6.766  0.4726 -0.3433  0.2066
  237MOL0     C31909   5.795   8.744   6.728  0.1622 -0.3049  0.2036
  237MOL0     C31910   5.918   8.689   6.687 -0.5667 -0.1798  0.5150
  237MOL0     N31911   6.640   8.620   6.540  0.1479 -0.0355  0.2893
  237MOL0     N31912   6.759   8.674   6.549 -0.2405  0.6597  0.6001
  237MOL0     C31913   8.046   8.273   6.376  0.5082 -0.6934  0.4830
  237MOL0     C31914   8.181   8.258   6.343  0.2430  0.3522 -0.4021
  237MOL0     C31915   8.614   8.411   6.380 -0.7494 -0.0378  0.6989
  237MOL0     C31916   8.685   8.295   6.416  0.2161 -0.6749  0.0500
  237MOL0     C31917   8.823   8.284   6.399 -0.2436  0.4898  0.1813
  237MOL0     C31918   8.899   8.404   6.367 -0.1208  0.6039 -0.0656
  237MOL0     O31919   9.039   8.418   6.371 -0.2191  0.2507 -0.9017
  237MOL0     C31920   9.108   8.294   6.396 -0.5865  0.2807  0.1954
  237MOL0     C31921   9.135   8.313   6.544  0.4201  0.0110 -0.7087
  237MOL0     C31922   9.168   8.186   6.620 -0.5635  0.1210  0.3415
  237MOL0     C31923   9.294   8.111   6.564  0.1228  0.1169  0.4281
  237MOL0     C31924   9.414   8.197   6.572 -0.3047 -0.5121 -0.6421
  237MOL0     C31925   9.518   8.259   6.552 -0.5179  0.4720  0.3655
  237MOL0     C31926   8.829   8.518   6.330  0.6576  0.6253  0.3465
  237MOL0     C31927   8.694   8.524   6.340  0.3630 -0.4052  0.4799
  237MOL0     H31928   8.312   8.350   6.640 -0.0231 -1.4156  1.4581
  237MOL0     H31929   8.078   8.413   6.685 -0.1902  2.5741 -1.0239
  237MOL0     H31930   7.784   8.371   6.385 -0.3801  2.9014  0.5884
  237MOL0     H31931   7.727   8.223   6.482  1.2987 -0.6444 -1.9703
  237MOL0     H31932   7.673   8.424   6.655 -0.2560  0.6268  0.8130
  237MOL0     H31933   7.682   8.515   6.515 -0.6202  0.5623  0.5170
  237MOL0     H31934   7.519   8.348   6.401  1.4908 -1.8913  0.7057
  237MOL0     H31935   7.485   8.285   6.562 -0.5126 -0.2056 -0.6269
  237MOL0     H31936   7.432   8.538   6.627  0.6775  0.3202 -0.1004
  237MOL0     H31937   7.420   8.552   6.455  2.0804 -1.7027 -0.2739
  237MOL0     H31938   7.238   8.420   6.409 -1.9235  0.8044  0.6826
  237MOL0     H31939   7.257   8.332   6.566  1.6375 -1.3468 -0.8201
  237MOL0     H31940   7.218   8.542   6.696  3.3759  0.7840 -0.8665
  237MOL0     H31941   7.212   8.646   6.547 -0.2473 -0.2290 -2.2649
  237MOL0     H31942   7.008   8.546   6.482 -0.5796 -2.1281 -0.7300
  237MOL0     H31943   7.002   8.424   6.606 -0.9148 -0.1094  0.8644
  237MOL0     H31944   6.996   8.726   6.653 -3.5520  1.1956  1.8958
  237MOL0     H31945   6.982   8.584   6.771  1.6522  2.6528  0.3475
  237MOL0     H31946   6.766   8.454   6.787  5.4682  2.0907 -0.4415
  237MOL0     H31947   6.483   8.368   6.559 -1.3579 -2.5222  1.3839
  237MOL0     H31948   6.548   8.360   6.732  0.3668  0.2842 -0.8192
  237MOL0     H31949   6.416   8.599   6.733 -0.6027 -0.8816  1.7451
  237MOL0     H31950   6.331   8.463   6.769  1.9482 -1.5817 -0.3367
  237MOL0     H31951   6.302   8.437   6.506  0.6054  0.5411 -1.2456
  237MOL0     H31952   6.360   8.613   6.503  0.3074 -0.5612 -0.4987
  237MOL0     H31953   6.114   8.501   6.653 -1.7828  0.6522  0.4598
  237MOL0     H31954   6.115   8.593   6.499 -1.1375  0.6158  1.1678
  237MOL0     H31955   6.147   8.893   6.823 -0.3628  0.5009  0.8106
  237MOL0     H31956   5.907   9.108   6.935  1.8955  1.2298 -0.2114
  237MOL0     H31957   5.915   8.980   7.061 -1.2469 -0.1894 -0.3235
  237MOL0     H31958   6.059   9.049   6.982  0.7737 -3.5899  2.2230
  237MOL0     H31959   5.410   8.887   6.996 -0.0499  0.3656  0.2304
  237MOL0     H31960   5.197   9.021   7.002 -2.0697  2.1884 -0.8380
  237MOL0     H31961   5.221   9.460   6.875  1.6762 -1.1215  0.0305
  237MOL0     H31962   5.174   9.329   6.757 -4.2700  0.9744 -1.2844
  237MOL0     H31963   5.009   9.509   6.787  0.5149  0.6191  0.6146
  237MOL0     H31964   4.958   9.336   6.805  2.0839 -1.3867  1.7550
  237MOL0     H31965   5.033   9.504   7.044  1.4217 -3.4721  0.4506
  237MOL0     H31966   4.949   9.351   7.060 -1.1469 -0.6667 -0.6293
  237MOL0     H31967   4.798   9.570   7.087 -3.9672 -0.0421 -0.6587
  237MOL0     H31968   4.816   9.566   6.905  1.2219  0.3589  0.1608
  237MOL0     H31969   4.705   9.323   7.067  0.5399 -0.4953 -0.5375
  237MOL0     H31970   4.723   9.320   6.905  1.3284 -2.5284  2.2081
  237MOL0     H31971   4.581   9.519   6.878  0.8970  0.8244  0.9106
  237MOL0     H31972   4.506   9.366   6.929 -2.4821  2.0090 -2.5959
  237MOL0     H31973   4.551   9.613   7.093 -1.5723  0.4534 -1.1867
  237MOL0     H31974   4.525   9.455   7.170 -1.2399  1.7304  1.7800
  237MOL0     H31975   4.332   9.602   6.978  0.4442  1.4222 -0.1761
  237MOL0     H31976   4.331   9.605   7.164 -0.6798  0.5920 -0.4812
  237MOL0     H31977   5.423   9.368   6.916 -0.5179  0.9955 -0.1047
  237MOL0     H31978   5.631   9.231   6.916  0.5251 -1.9720 -0.9638
  237MOL0     H31979   5.705   8.698   6.689  1.3340 -3.5719  1.0306
  237MOL0     H31980   5.901   8.608   6.616 -2.8216  0.3842  0.3550
  237MOL0     H31981   7.973   8.238   6.304  0.4468 -1.3853  0.8772
  237MOL0     H31982   8.211   8.236   6.241  0.5303 -1.4850  0.0462
  237MOL0     H31983   8.632   8.202   6.433  0.1522 -1.2434 -2.7323
  237MOL0     H31984   8.858   8.187   6.435 -0.9424  0.0377 -0.3352
  237MOL0     H31985   9.061   8.204   6.354  2.0127 -1.4594  0.7595
  237MOL0     H31986   9.200   8.295   6.337 -0.0545 -0.8272  0.9704
  237MOL0     H31987   9.043   8.349   6.592  0.1873 -0.0308 -1.1220
  237MOL0     H31988   9.221   8.377   6.564  0.4829 -1.0037  3.3071
  237MOL0     H31989   9.082   8.119   6.612 -0.9922  0.3538  2.4076
  237MOL0     H31990   9.189   8.209   6.725  2.1337 -1.5809  0.2829
  237MOL0     H31991   9.272   8.088   6.459  2.5656 -0.6709  0.0289
  237MOL0     H31992   9.300   8.012   6.610 -1.1086  0.3495  1.1352
  237MOL0     H31993   9.602   8.324   6.544 -0.1884  0.3745  2.3176
  237MOL0     H31994   8.885   8.608   6.306 -0.9468  1.3100 -1.0595
  237MOL0     H31995   8.647   8.619   6.316 -0.5604 -0.7412  0.9024
  238MOL0     O31996   9.890   9.127   1.147 -0.6934  0.1741  0.2484
  238MOL0     C31997   9.918   9.017   1.106  0.4173 -0.4535 -0.8115
  238MOL0     O31998   9.833   8.930   1.037  0.1230 -0.5388 -0.4371
  238MOL0     C31999   9.703   8.951   1.009  0.4419  0.0810 -0.1208
  238MOL0     C32000   9.621   9.056   1.056  0.0417  0.3466  0.2034
  238MOL0     C32001   9.487   9.059   1.007  0.0342  0.8108  0.0038
  238MOL0     C32002   9.435   8.961   0.920 -0.4215  0.0956  0.3497
  238MOL0     O32003   9.306   8.990   0.876 -0.4737 -0.2258  0.2229
  238MOL0     C32004   9.253   8.909   0.763 -0.8561  0.0970  0.5375
  238MOL0     C32005   9.103   8.947   0.744 -0.0947  0.0521 -0.2753
  238MOL0     C32006   9.013   8.919   0.872 -0.5128  0.3146 -0.1307
  238MOL0     C32007   8.917   9.031   0.885 -0.1055 -0.0576 -0.8152
  238MOL0     C32008   8.829   9.021   1.007 -0.4157 -0.0522 -0.3657
  238MOL0     C32009   8.736   8.896   1.007 -0.3872 -0.1012 -0.4944
  238MOL0     C32010   8.626   8.913   1.112  0.2981  1.1395  0.3788
  238MOL0     C32011   8.497   8.971   1.050 -0.1560  0.6702 -0.1450
  238MOL0     N32012   8.442   8.876   0.953  0.0811 -0.3247 -0.5654
  238MOL0     C32013   8.423   8.904   0.814 -0.7125  0.0279  0.0793
  238MOL0     C32014   8.359   8.789   0.775  0.0279 -0.6591 -0.1346
  238MOL0     C32015   8.306   8.763   0.632 -0.2023  0.0093 -0.0841
  238MOL0     C32016   8.171   8.839   0.594  0.2642  0.2986 -0.0586
  238MOL0     C32017   8.062   8.853   0.695  0.3853  0.4826 -0.2609
  238MOL0     C32018   8.014   8.711   0.753  0.1011 -0.2301  0.1814
  238MOL0     O32019   7.895   8.736   0.830  0.1593 -0.7967 -0.2379
  238MOL0     C32020   7.830   8.628   0.877  0.4046 -0.6337 -0.3972
  238MOL0     C32021   7.903   8.535   0.951  0.2200 -0.2150  0.5723
  238MOL0     C32022   7.848   8.410   0.983  0.2308  0.3277 -0.8550
  238MOL0     C32023   7.941   8.324   1.052 -0.3735 -0.4989 -0.3697
  238MOL0     C32024   7.711   8.392   0.968  0.0878 -0.1383 -1.1467
  238MOL0     C32025   7.634   8.278   1.022  0.3472 -0.3070  0.4692
  238MOL0     O32026   7.494   8.297   1.012  0.8685  0.7999 -0.1668
  238MOL0     C32027   7.409   8.185   1.033 -0.2117 -0.1080  0.1871
  238MOL0     C32028   7.367   8.151   1.171 -0.2673  0.3158  0.3492
  238MOL0     C32029   7.269   8.056   1.196  0.0830  0.0308 -0.1204
  238MOL0     C32030   7.224   7.973   1.089  0.1432  0.8238 -0.3309
  238MOL0     O32031   7.140   7.868   1.121 -0.2503 -0.2877  0.5231
  238MOL0     C32032   7.076   7.790   1.020 -0.6861 -0.2268 -0.0675
  238MOL0     C32033   6.968   7.858   0.939  0.5513 -0.8700 -0.5711
  238MOL0     C32034   6.869   7.757   0.882 -0.4384 -0.1929 -0.7677
  238MOL0     C32035   6.752   7.829   0.818  0.1172 -0.0807 -0.3620
  238MOL0     C32036   6.652   7.718   0.775  0.1847  0.0393  0.2571
  238MOL0     C32037   6.533   7.777   0.693 -0.5498  0.2615 -0.0569
  238MOL0     C32038   6.436   7.844   0.798 -0.6861  0.4557 -0.3553
  238MOL0     C32039   6.303   7.845   0.740  0.2092 -0.2337  0.3583
  238MOL0    Cl32040   6.311   7.973   0.605 -0.0168 -0.1075  0.1621
  238MOL0     C32041   7.263   8.003   0.953 -0.1542  0.6434  0.3228
  238MOL0     C32042   7.354   8.111   0.931  0.8603 -0.4535  0.2075
  238MOL0     O32043   7.687   8.170   1.040 -0.5641  0.0717  0.3497
  238MOL0     C32044   7.633   8.491   0.903  0.1982 -0.3777  0.7593
  238MOL0     C32045   7.699   8.610   0.859  1.1486  0.6114  0.9937
  238MOL0     N32046   8.339   8.708   0.881  0.1431  0.1111 -0.7032
  238MOL0     N32047   8.390   8.753   0.991 -0.6951  0.5498 -0.6519
  238MOL0     C32048   9.521   8.866   0.875  0.3097 -0.3236  0.2187
  238MOL0     C32049   9.655   8.863   0.913  0.7357 -0.3433 -0.4669
  238MOL0     C32050  10.049   8.964   1.150  0.5415  0.8930 -0.4874
  238MOL0     C32051  10.071   8.824   1.140  0.5920  0.4246  0.0794
  238MOL0     C32052  10.195   8.777   1.181 -0.1193  0.4037  0.3525
  238MOL0     C32053  10.299   8.862   1.220  0.3751  0.5000  0.6449
  238MOL0     O32054  10.426   8.809   1.232  0.1278  0.4462  0.0137
  238MOL0     C32055  10.535   8.870   1.169  0.4646 -0.2230 -0.9211
  238MOL0     C32056  10.642   8.765   1.121  0.1418  0.3835  0.2057
  238MOL0     C32057  10.781   8.811   1.167 -0.9087 -0.1977 -0.3084
  238MOL0     C32058  10.891   8.707   1.140  0.9015  0.4364  0.1745
  238MOL0     C32059  10.871   8.598   1.242  0.2118  0.1403 -0.6513
  238MOL0     C32060  10.860   8.505   1.317  1.0778 -0.0996  0.4769
  238MOL0     C32061  10.273   8.998   1.239  0.5735 -0.2883  0.7022
  238MOL0     C32062  10.147   9.052   1.200  0.3560  0.1246 -0.4081
  238MOL0     H32063   9.662   9.138   1.114  1.8581 -1.1081  1.0815
  238MOL0     H32064   9.419   9.141   1.028  2.5318  3.7189 -2.3001
  238MOL0     H32065   9.313   8.932   0.675 -0.7551 -0.8920  0.3458
  238MOL0     H32066   9.257   8.804   0.793 -0.9988  0.6955  2.8953
  238MOL0     H32067   9.084   9.051   0.715 -3.4639 -1.1688 -3.1162
  238MOL0     H32068   9.068   8.886   0.661 -1.4171  0.8912 -0.3630
  238MOL0     H32069   8.959   8.825   0.859  0.0969 -0.7894  3.9777
  238MOL0     H32070   9.061   8.900   0.968 -1.5015 -5.0229 -0.4289
  238MOL0     H32071   8.974   9.123   0.900 -2.1300  1.0757  0.4249
  238MOL0     H32072   8.860   9.042   0.792  0.9390  0.4671 -1.4109
  238MOL0     H32073   8.891   9.012   1.097  1.4082  3.0772 -1.1561
  238MOL0     H32074   8.769   9.113   1.014  0.2351  0.5899 -2.4352
  238MOL0     H32075   8.699   8.891   0.904  1.4831  0.6941 -1.2478
  238MOL0     H32076   8.800   8.809   1.026  0.0634  0.1688 -0.7611
  238MOL0     H32077   8.614   8.810   1.146  1.2707 -0.4792 -3.6305
  238MOL0     H32078   8.666   8.961   1.202  1.8707 -2.2499  1.6870
  238MOL0     H32079   8.506   9.072   1.009 -2.9737  0.6784 -0.9031
  238MOL0     H32080   8.429   8.986   1.134  0.7263 -0.6251  0.8516
  238MOL0     H32081   8.449   8.992   0.756  2.8182 -0.9712 -0.1040
  238MOL0     H32082   8.381   8.799   0.561  1.3703 -0.2955  1.3736
  238MOL0     H32083   8.291   8.655   0.625  0.5287 -0.0775 -0.4183
  238MOL0     H32084   8.129   8.807   0.498 -0.0114 -1.0629  0.4930
  238MOL0     H32085   8.195   8.945   0.583 -1.8849  0.6424 -2.1248
  238MOL0     H32086   7.971   8.899   0.656 -1.5867 -2.3039  0.7032
  238MOL0     H32087   8.098   8.908   0.783  0.6918 -3.8131  2.5697
  238MOL0     H32088   8.099   8.668   0.807  0.2008 -1.6156 -1.0143
  238MOL0     H32089   8.001   8.644   0.667  1.8138 -0.1054 -0.2138
  238MOL0     H32090   8.010   8.552   0.962  0.2244 -1.0317  2.0797
  238MOL0     H32091   7.968   8.244   0.982 -1.7806 -0.6382 -0.7844
  238MOL0     H32092   8.028   8.381   1.084  0.4174 -2.2049  0.6763
  238MOL0     H32093   7.912   8.270   1.143  1.7053 -0.5269  0.3242
  238MOL0     H32094   7.404   8.205   1.258  0.8816 -1.1940  0.8526
  238MOL0     H32095   7.227   8.032   1.294 -1.6950 -0.2537 -0.9232
  238MOL0     H32096   7.148   7.743   0.953 -1.0216  1.4698 -1.7041
  238MOL0     H32097   7.024   7.708   1.070 -1.7205  1.2873  1.4605
  238MOL0     H32098   6.911   7.933   0.996  1.7409 -1.7314  1.8660
  238MOL0     H32099   7.016   7.917   0.861  0.2794  0.5108  0.2558
  238MOL0     H32100   6.840   7.694   0.967 -0.6799  0.7506 -0.1328
  238MOL0     H32101   6.928   7.695   0.814  0.0084 -1.5704  0.8116
  238MOL0     H32102   6.705   7.894   0.893 -3.4906 -1.6316 -1.0519
  238MOL0     H32103   6.785   7.889   0.734 -2.0916  4.7970  1.8677
  238MOL0     H32104   6.617   7.671   0.867 -0.0239  0.0189  0.1670
  238MOL0     H32105   6.700   7.639   0.718 -1.4428 -0.6316 -0.2442
  238MOL0     H32106   6.580   7.849   0.625  1.4658  1.4446  2.3885
  238MOL0     H32107   6.482   7.691   0.650 -0.7925  0.7650 -0.7884
  238MOL0     H32108   6.463   7.947   0.826  0.7369 -0.1884  0.7293
  238MOL0     H32109   6.439   7.787   0.891  0.3478 -1.0311 -1.2568
  238MOL0     H32110   6.218   7.879   0.800 -2.7897  0.3315 -3.7305
  238MOL0     H32111   6.282   7.748   0.694  1.9748 -1.1944  1.4739
  238MOL0     H32112   7.238   7.950   0.861  2.8192  1.2432 -0.9636
  238MOL0     H32113   7.386   8.128   0.829 -0.0641  0.1582  0.0155
  238MOL0     H32114   7.530   8.483   0.872  0.8218 -1.4537 -1.2368
  238MOL0     H32115   7.630   8.687   0.824 -1.3817 -1.3399  1.3602
  238MOL0     H32116   9.493   8.810   0.786 -1.8622  0.4743  0.3498
  238MOL0     H32117   9.727   8.800   0.863  1.5788 -0.5218  0.9031
  238MOL0     H32118   9.996   8.752   1.109  0.5306 -1.8345  4.5293
  238MOL0     H32119  10.222   8.672   1.174  2.3343  0.9873  0.2511
  238MOL0     H32120  10.506   8.939   1.089  1.4792  1.1393 -0.1503
  238MOL0     H32121  10.577   8.935   1.245  0.0761 -1.6111  0.5269
  238MOL0     H32122  10.637   8.754   1.012 -0.6031  0.7330  0.1926
  238MOL0     H32123  10.629   8.668   1.170 -2.5294  0.9194  0.7395
  238MOL0     H32124  10.782   8.839   1.273 -1.2318  1.1002 -0.6284
  238MOL0     H32125  10.813   8.900   1.111 -0.1201 -0.5688 -0.4659
  238MOL0     H32126  10.996   8.739   1.140  0.3730  2.4021  1.4537
  238MOL0     H32127  10.877   8.674   1.037  0.2836 -0.6104  0.5863
  238MOL0     H32128  10.843   8.418   1.377 -2.4217 -0.4840 -0.8641
  238MOL0     H32129  10.353   9.058   1.281 -0.1697  0.9769  0.3573
  238MOL0     H32130  10.126   9.158   1.215 -0.2876 -0.4030  3.3167
  239MOL0     O32131   9.012   4.553   2.729 -0.6068 -0.4117 -0.3299
  239MOL0     C32132   9.065   4.457   2.681 -1.1082 -0.5818  0.5335
  239MOL0     O32133   9.039   4.416   2.549 -0.1265  0.3071  0.0475
  239MOL0     C32134   8.929   4.463   2.469 -0.6481  0.2608  0.5796
  239MOL0     C32135   8.890   4.369   2.373  0.2033  0.0586  0.6456
  239MOL0     C32136   8.790   4.394   2.283 -0.3947 -0.0642 -0.9110
  239MOL0     C32137   8.740   4.525   2.272  0.9810 -0.4505 -0.1483
  239MOL0     O32138   8.650   4.579   2.187 -0.1846 -0.4013 -0.6362
  239MOL0     C32139   8.639   4.510   2.064  0.0433  0.0051  0.1804
  239MOL0     C32140   8.533   4.580   1.982 -0.7933 -0.4462  0.2012
  239MOL0     C32141   8.380   4.562   2.000  0.0334 -0.2020 -0.4161
  239MOL0     C32142   8.354   4.412   1.963 -0.7207  0.1181 -0.2067
  239MOL0     C32143   8.200   4.404   1.961  0.2108  0.0118  0.9917
  239MOL0     C32144   8.149   4.286   1.891  0.2613  0.5627  0.2766
  239MOL0     C32145   7.999   4.283   1.862  0.0147 -0.8975  0.1949
  239MOL0     C32146   7.941   4.138   1.867  0.1916 -0.0658 -0.2115
  239MOL0     N32147   7.803   4.135   1.814  0.1065  0.3172 -0.8555
  239MOL0     C32148   7.704   4.207   1.880 -0.4133 -0.0629  0.3061
  239MOL0     C32149   7.601   4.196   1.798  0.1492  0.2884 -0.0495
  239MOL0     C32150   7.474   4.264   1.809  0.4530  0.2235 -0.1706
  239MOL0     C32151   7.413   4.289   1.950 -0.3311 -0.2343  0.2616
  239MOL0     C32152   7.275   4.361   1.949  0.1164 -0.4879  0.2720
  239MOL0     C32153   7.195   4.382   2.081  0.0189  0.9665 -0.2210
  239MOL0     O32154   7.086   4.478   2.079 -0.3274  0.2621  0.2166
  239MOL0     C32155   6.962   4.451   2.018  0.5676 -0.1704 -0.2837
  239MOL0     C32156   6.876   4.558   1.986 -0.4909  0.4478 -0.1328
  239MOL0     C32157   6.752   4.550   1.928 -0.4652 -0.0293 -0.2601
  239MOL0     C32158   6.674   4.677   1.900 -0.2239 -0.3387  0.6087
  239MOL0     C32159   6.705   4.415   1.898 -0.5038  0.8828 -0.6593
  239MOL0     C32160   6.576   4.374   1.841 -0.1800  0.0115  0.6674
  239MOL0     O32161   6.586   4.254   1.767  0.8498  0.1360 -0.6076
  239MOL0     C32162   6.464   4.209   1.708 -0.7226 -0.0902  0.1875
  239MOL0     C32163   6.394   4.103   1.761  0.7955 -0.4119  0.5761
  239MOL0     C32164   6.259   4.085   1.728 -0.4691 -0.4014  0.4844
  239MOL0     C32165   6.197   4.162   1.629 -0.8008  0.2448 -0.1727
  239MOL0     O32166   6.071   4.118   1.605  0.1924 -0.3063 -0.2493
  239MOL0     C32167   5.976   4.219   1.559  0.3839 -0.5979 -0.4873
  239MOL0     C32168   5.834   4.151   1.562 -0.1282  0.0645  0.0512
  239MOL0     C32169   5.711   4.230   1.536  0.3330  0.5064 -0.2952
  239MOL0     C32170   5.577   4.156   1.543 -0.0787  0.3665 -0.1022
  239MOL0     C32171   5.470   4.247   1.590 -0.0119  0.4019  0.3554
  239MOL0     C32172   5.336   4.178   1.595  0.1722  0.3040 -0.3784
  239MOL0     C32173   5.209   4.256   1.621  1.2496  1.0157 -0.3625
  239MOL0     C32174   5.090   4.162   1.644  0.1613  0.7657 -0.0896
  239MOL0    Cl32175   4.959   4.270   1.699  0.1884 -0.1477 -0.4144
  239MOL0     C32176   6.274   4.248   1.557 -0.4353  0.2765 -0.6999
  239MOL0     C32177   6.402   4.286   1.596 -0.9409  0.1796  0.1624
  239MOL0     O32178   6.474   4.448   1.848  0.1620  0.0880  0.2211
  239MOL0     C32179   6.790   4.303   1.945  0.9209  0.4733  0.3104
  239MOL0     C32180   6.917   4.325   1.998 -1.1920 -0.2154  0.1114
  239MOL0     N32181   7.636   4.112   1.697  0.7581  0.4988 -0.0275
  239MOL0     N32182   7.757   4.080   1.701 -0.2150 -0.4681  0.0037
  239MOL0     C32183   8.775   4.620   2.380  0.1831  0.1380  0.2694
  239MOL0     C32184   8.864   4.587   2.479 -0.1631  0.1534  0.2443
  239MOL0     C32185   9.170   4.390   2.754 -0.0280  0.6859 -0.3344
  239MOL0     C32186   9.165   4.386   2.896  0.8045  0.0327  0.9409
  239MOL0     C32187   9.264   4.321   2.966 -0.2254  0.2417  0.6448
  239MOL0     C32188   9.375   4.273   2.895 -0.0785  0.1636 -0.0295
  239MOL0     O32189   9.479   4.207   2.965 -0.0917  0.0109 -0.2097
  239MOL0     C32190   9.453   4.111   3.068 -0.1536  0.5226  0.3496
  239MOL0     C32191   9.515   4.177   3.197  0.2499  1.4179  0.5048
  239MOL0     C32192   9.513   4.070   3.310  0.1306 -0.3497  0.1955
  239MOL0     C32193   9.609   4.122   3.425 -0.5131  0.3538  0.3293
  239MOL0     C32194   9.749   4.157   3.389 -1.2046  0.0772  0.4891
  239MOL0     C32195   9.865   4.185   3.355  0.5869 -1.2634 -0.8799
  239MOL0     C32196   9.379   4.280   2.757  0.1991  0.0084 -0.0980
  239MOL0     C32197   9.279   4.341   2.687 -0.9968 -0.2258  0.2879
  239MOL0     H32198   8.937   4.271   2.370 -2.0884 -1.0960 -0.5620
  239MOL0     H32199   8.765   4.312   2.216 -0.7411 -0.7554  0.0341
  239MOL0     H32200   8.740   4.510   2.021  0.7519  1.3538  1.7066
  239MOL0     H32201   8.614   4.406   2.085  2.1036 -0.3843  1.0255
  239MOL0     H32202   8.546   4.686   2.008  0.0854 -0.6748  0.6988
  239MOL0     H32203   8.561   4.573   1.876  2.7046 -0.2744  1.0257
  239MOL0     H32204   8.353   4.591   2.102  1.9456  3.3625 -0.7660
  239MOL0     H32205   8.326   4.632   1.937 -0.3142 -0.8405 -0.8324
  239MOL0     H32206   8.403   4.389   1.868  2.6250 -2.0006  1.8248
  239MOL0     H32207   8.393   4.336   2.032  2.1000  1.7934  0.2092
  239MOL0     H32208   8.165   4.415   2.065  1.1818 -1.0932  1.4560
  239MOL0     H32209   8.175   4.485   1.891  0.6093 -1.5872 -1.0875
  239MOL0     H32210   8.205   4.275   1.798 -0.3205  2.2375 -0.3196
  239MOL0     H32211   8.169   4.194   1.947 -0.2161  0.3671  0.1307
  239MOL0     H32212   7.932   4.334   1.932  1.8135 -1.5313  2.4935
  239MOL0     H32213   7.977   4.335   1.768 -2.6347  2.0608  2.2375
  239MOL0     H32214   7.953   4.091   1.966  2.4623 -0.1083 -0.4456
  239MOL0     H32215   7.993   4.075   1.794  0.5440  0.1340 -0.1350
  239MOL0     H32216   7.704   4.268   1.969  2.0920  1.3175 -0.5521
  239MOL0     H32217   7.490   4.362   1.764 -1.0458 -0.0277 -1.3214
  239MOL0     H32218   7.391   4.223   1.751 -1.2362  1.1402  1.4774
  239MOL0     H32219   7.477   4.347   2.016 -1.7783  1.2663  0.4205
  239MOL0     H32220   7.409   4.193   2.004 -0.7621 -2.5836 -3.5591
  239MOL0     H32221   7.210   4.305   1.880  0.7259  0.9171 -1.5012
  239MOL0     H32222   7.292   4.458   1.901  3.0761 -0.1616  1.7964
  239MOL0     H32223   7.268   4.417   2.155  0.1039 -4.4194  2.7038
  239MOL0     H32224   7.165   4.290   2.130  1.5642  1.4642  1.8035
  239MOL0     H32225   6.920   4.651   2.019  0.6909  0.6532 -2.0939
  239MOL0     H32226   6.578   4.684   1.952 -0.4482 -1.2590  0.3393
  239MOL0     H32227   6.737   4.765   1.908  0.9786 -1.1831  0.6754
  239MOL0     H32228   6.652   4.678   1.793 -1.4734  0.0155  0.8566
  239MOL0     H32229   6.425   4.042   1.846  3.7120  1.3780  0.9584
  239MOL0     H32230   6.197   4.016   1.784 -0.5310 -0.1929  0.6706
  239MOL0     H32231   5.973   4.303   1.629 -1.8875 -0.0975 -1.0999
  239MOL0     H32232   5.990   4.248   1.454 -0.3395 -1.6396 -0.8809
  239MOL0     H32233   5.834   4.069   1.490 -0.3580  0.2329 -0.1452
  239MOL0     H32234   5.822   4.110   1.662  2.8151 -0.0411  0.4381
  239MOL0     H32235   5.718   4.287   1.442 -2.3690 -0.7347 -1.3637
  239MOL0     H32236   5.704   4.303   1.617 -2.4228 -1.6845  1.6353
  239MOL0     H32237   5.555   4.123   1.441  2.1981  0.6222 -0.7349
  239MOL0     H32238   5.590   4.074   1.614  3.1574  0.6449 -0.2221
  239MOL0     H32239   5.464   4.338   1.529  4.0428  2.0920  2.1089
  239MOL0     H32240   5.504   4.287   1.686  1.2007 -0.5185  0.3280
  239MOL0     H32241   5.335   4.125   1.499  0.7875  2.9534 -1.9275
  239MOL0     H32242   5.340   4.098   1.670  1.5909  1.0472  0.3996
  239MOL0     H32243   5.187   4.323   1.537 -0.4986  1.5946  0.5138
  239MOL0     H32244   5.219   4.320   1.709  0.1178  2.0151 -0.9376
  239MOL0     H32245   5.114   4.096   1.728  1.3331 -1.4856 -2.0782
  239MOL0     H32246   5.070   4.100   1.556  1.0814 -1.3324  1.1094
  239MOL0     H32247   6.230   4.294   1.468  2.5070  1.5089 -1.6533
  239MOL0     H32248   6.457   4.367   1.551 -1.4321 -0.4884 -1.7119
  239MOL0     H32249   6.766   4.198   1.928  3.1955 -0.1768  0.8088
  239MOL0     H32250   6.985   4.241   2.012 -1.7939 -0.4828  1.7043
  239MOL0     H32251   8.738   4.721   2.368 -3.7413 -0.6347  3.6297
  239MOL0     H32252   8.883   4.667   2.550 -1.8279  0.9081 -0.1152
  239MOL0     H32253   9.089   4.445   2.946 -0.6775 -1.6589  0.7844
  239MOL0     H32254   9.236   4.323   3.071  0.9679  1.8242  0.9822
  239MOL0     H32255   9.345   4.089   3.062 -0.5392  2.3655 -0.1271
  239MOL0     H32256   9.499   4.021   3.027 -2.8881  0.5000 -3.1718
  239MOL0     H32257   9.461   4.265   3.233 -0.7840  1.2316 -0.5420
  239MOL0     H32258   9.621   4.193   3.176  0.6781 -1.2926  0.2756
  239MOL0     H32259   9.559   3.978   3.273  0.8443  0.6503 -1.5231
  239MOL0     H32260   9.411   4.052   3.345 -0.0630  0.0689 -0.1447
  239MOL0     H32261   9.618   4.047   3.504  2.1946  2.3362  2.0960
  239MOL0     H32262   9.567   4.212   3.470  2.3321  2.2609 -0.5522
  239MOL0     H32263   9.963   4.218   3.325  0.5387 -0.3069 -0.0407
  239MOL0     H32264   9.474   4.246   2.719  1.4102  0.2036  2.5403
  239MOL0     H32265   9.287   4.348   2.578  1.1826  0.1360  0.4165
  240MOL0     O32266   7.375   3.385   9.083  0.1539  0.9109 -0.3621
  240MOL0     C32267   7.391   3.497   9.121  1.4814  0.1034 -0.0601
  240MOL0     O32268   7.290   3.591   9.125 -0.0947  0.0619 -0.0872
  240MOL0     C32269   7.165   3.584   9.069  0.3149  0.6065  0.3146
  240MOL0     C32270   7.050   3.626   9.136  0.9253  0.2655 -0.1624
  240MOL0     C32271   6.914   3.630   9.078 -0.3814  0.6890 -0.8976
  240MOL0     C32272   6.898   3.594   8.942 -0.5081 -0.2556  0.8948
  240MOL0     O32273   6.769   3.591   8.885 -0.4253 -0.2893  0.1027
  240MOL0     C32274   6.751   3.583   8.742  0.0665  0.0091  0.9355
  240MOL0     C32275   6.595   3.590   8.694 -0.6371 -0.1365 -0.5875
  240MOL0     C32276   6.501   3.685   8.779 -0.2880  0.6099  0.5186
  240MOL0     C32277   6.359   3.679   8.742 -0.1719  0.9545  0.5419
  240MOL0     C32278   6.270   3.763   8.845 -0.5064 -0.0338  0.1582
  240MOL0     C32279   6.123   3.784   8.796  0.3981 -0.3677 -0.2782
  240MOL0     C32280   6.054   3.671   8.722  0.3179  0.2456  0.3385
  240MOL0     C32281   5.916   3.709   8.665  0.6061 -0.3274 -0.4595
  240MOL0     N32282   5.806   3.702   8.761  0.4850  0.0002 -0.8471
  240MOL0     C32283   5.758   3.588   8.814  0.6451 -0.8137  0.2958
  240MOL0     C32284   5.655   3.628   8.886 -0.4042 -0.4351  0.8935
  240MOL0     C32285   5.560   3.532   8.949 -0.6434 -0.2202 -0.8805
  240MOL0     C32286   5.424   3.594   8.981  0.2249 -0.3454  0.1893
  240MOL0     C32287   5.320   3.499   9.053  0.0109  0.6129  0.2660
  240MOL0     C32288   5.188   3.563   9.046  0.4625  0.3805 -0.0776
  240MOL0     O32289   5.197   3.696   9.099  0.5869 -0.5445 -0.6419
  240MOL0     C32290   5.089   3.778   9.120 -0.3745 -0.7726  0.1483
  240MOL0     C32291   5.100   3.922   9.120  0.1021  0.5624  0.2754
  240MOL0     C32292   5.013   4.018   9.171  0.2137  1.0171 -0.1218
  240MOL0     C32293   5.051   4.166   9.168  0.2306 -0.2696 -0.4681
  240MOL0     C32294   4.891   3.963   9.211 -0.6959  0.2265  0.0757
  240MOL0     C32295   4.775   4.048   9.261  0.7270  0.2340 -0.3031
  240MOL0     O32296   4.659   3.974   9.278 -0.1926 -0.9205  0.3070
  240MOL0     C32297   4.563   4.006   9.373 -0.8060 -0.2778 -0.0851
  240MOL0     C32298   4.445   3.941   9.350 -0.3597 -0.1237 -0.2591
  240MOL0     C32299   4.329   3.964   9.429 -0.7530  1.1409  0.2820
  240MOL0     C32300   4.340   4.047   9.539  0.5387 -0.1353  0.9737
  240MOL0     O32301   4.249   4.073   9.640 -0.1483  0.5412 -0.3280
  240MOL0     C32302   4.113   4.031   9.614  0.5818  0.1374 -0.2565
  240MOL0     C32303   4.029   4.075   9.737  0.1173 -0.2165 -0.0131
  240MOL0     C32304   3.878   4.060   9.690 -0.4811  0.3536  0.0097
  240MOL0     C32305   3.795   4.143   9.785 -0.2295  0.5623 -0.1332
  240MOL0     C32306   3.644   4.130   9.778  0.0390  0.0811  0.2523
  240MOL0     C32307   3.582   3.997   9.802  1.0161  0.1485  0.0306
  240MOL0     C32308   3.430   3.991   9.797  0.0309 -0.7753 -0.9907
  240MOL0     C32309   3.376   3.881   9.892 -0.1085 -0.9357 -0.2873
  240MOL0    Cl32310   3.191   3.856   9.876  0.2125  0.1217 -0.2058
  240MOL0     C32311   4.461   4.099   9.579 -0.4686 -0.3452 -0.8210
  240MOL0     C32312   4.573   4.086   9.491  0.3084 -0.1669  0.0965
  240MOL0     O32313   4.787   4.168   9.281  0.1785  0.6811 -0.2157
  240MOL0     C32314   4.869   3.822   9.198  0.1749  0.6365  0.4704
  240MOL0     C32315   4.962   3.730   9.150  0.2746 -0.2842 -0.8789
  240MOL0     N32316   5.640   3.764   8.886 -0.2150 -0.5623  0.3057
  240MOL0     N32317   5.745   3.811   8.813  0.3043 -0.6159  0.0523
  240MOL0     C32318   7.018   3.559   8.864  0.3083 -0.4172 -0.4083
  240MOL0     C32319   7.143   3.547   8.928 -0.2904 -0.1890 -0.9332
  240MOL0     C32320   7.529   3.535   9.154  0.2413  0.4286 -0.0954
  240MOL0     C32321   7.637   3.479   9.077  0.3010 -0.6574  0.3308
  240MOL0     C32322   7.769   3.508   9.103 -0.2587  1.0559 -0.1062
  240MOL0     C32323   7.801   3.590   9.214  0.8199 -0.8212 -0.2371
  240MOL0     O32324   7.925   3.651   9.236 -0.2219 -0.0327  0.0269
  240MOL0     C32325   8.042   3.611   9.160 -0.6438  0.9348 -0.0230
  240MOL0     C32326   8.167   3.684   9.213  0.3968 -0.8327  0.3936
  240MOL0     C32327   8.295   3.621   9.147 -0.9392 -0.3458 -0.3527
  240MOL0     C32328   8.424   3.683   9.194 -0.9218  0.5038  0.0134
  240MOL0     C32329   8.458   3.686   9.341  0.7334  0.1401  0.7756
  240MOL0     C32330   8.497   3.683   9.453 -0.0193  0.1048  0.7174
  240MOL0     C32331   7.692   3.659   9.276  0.0054  0.7113 -0.8713
  240MOL0     C32332   7.559   3.626   9.258  0.5697 -0.2084 -0.0063
  240MOL0     H32333   7.076   3.664   9.234  0.9190 -3.0710  1.2928
  240MOL0     H32334   6.828   3.657   9.139 -2.5973 -0.1981 -3.4190
  240MOL0     H32335   6.808   3.668   8.705  0.8698 -0.7097  0.4796
  240MOL0     H32336   6.790   3.493   8.692 -2.0108  0.3174 -1.4561
  240MOL0     H32337   6.592   3.624   8.590  0.6746 -1.1025 -0.9550
  240MOL0     H32338   6.561   3.487   8.707 -3.7216  0.3249 -3.5380
  240MOL0     H32339   6.517   3.671   8.886 -0.1142 -1.0434  0.2940
  240MOL0     H32340   6.521   3.789   8.750 -2.4573  1.2757  1.2506
  240MOL0     H32341   6.344   3.722   8.642 -0.7588 -0.8640 -0.2036
  240MOL0     H32342   6.334   3.573   8.742 -0.1005  0.9155  2.5676
  240MOL0     H32343   6.271   3.702   8.936 -1.8378 -0.0519  0.1811
  240MOL0     H32344   6.316   3.861   8.860  1.2530 -0.5785 -1.3580
  240MOL0     H32345   6.057   3.810   8.878 -0.1386  1.4951 -1.2415
  240MOL0     H32346   6.113   3.874   8.735 -0.5503 -0.8943 -0.9298
  240MOL0     H32347   6.130   3.638   8.651  1.3953  1.8227  0.7129
  240MOL0     H32348   6.031   3.581   8.780  3.0130  1.1534  3.0050
  240MOL0     H32349   5.881   3.646   8.583 -2.8864  2.1361 -1.0771
  240MOL0     H32350   5.919   3.814   8.633 -0.8984  0.8061  2.7362
  240MOL0     H32351   5.793   3.485   8.806  0.5401 -0.6915 -2.3503
  240MOL0     H32352   5.547   3.449   8.879  0.1259 -0.1392 -1.1341
  240MOL0     H32353   5.604   3.493   9.042  1.0452  2.0029 -0.6594
  240MOL0     H32354   5.388   3.623   8.882  2.9160  1.1298 -0.4594
  240MOL0     H32355   5.441   3.685   9.040 -1.7263 -0.0227  0.3265
  240MOL0     H32356   5.345   3.473   9.156 -0.5717 -0.4828  0.1471
  240MOL0     H32357   5.317   3.401   9.004  2.8202  1.0632 -1.0606
  240MOL0     H32358   5.124   3.503   9.112  1.7336  0.1840  1.0106
  240MOL0     H32359   5.148   3.571   8.945 -0.0667  1.8857  0.2275
  240MOL0     H32360   5.200   3.956   9.096  0.2336 -0.4008 -0.5671
  240MOL0     H32361   4.972   4.232   9.132  1.5417 -0.1747 -3.4643
  240MOL0     H32362   5.091   4.199   9.264  2.2147  0.7133 -1.5807
  240MOL0     H32363   5.129   4.182   9.093  0.2123  0.3996 -0.3491
  240MOL0     H32364   4.433   3.883   9.258 -5.2747  3.0849 -2.0793
  240MOL0     H32365   4.238   3.907   9.414 -2.4108  3.0830  2.2018
  240MOL0     H32366   4.080   4.066   9.516 -1.6659  2.7099  1.2848
  240MOL0     H32367   4.115   3.922   9.603 -3.1098  0.0516 -1.3987
  240MOL0     H32368   4.062   4.025   9.828  0.9722  1.1562  0.4643
  240MOL0     H32369   4.060   4.179   9.752  0.2950 -0.5173  1.9690
  240MOL0     H32370   3.852   3.953   9.697  0.7916  0.0953  1.1216
  240MOL0     H32371   3.855   4.072   9.584 -1.4351 -1.0382  0.0245
  240MOL0     H32372   3.820   4.104   9.884 -2.9940 -0.8194  0.1171
  240MOL0     H32373   3.817   4.250   9.782  0.4007  0.4271 -1.0262
  240MOL0     H32374   3.598   4.158   9.683 -0.6907 -2.9980 -0.4153
  240MOL0     H32375   3.608   4.192   9.861 -1.0730 -2.6442  1.9582
  240MOL0     H32376   3.620   3.929   9.725 -0.0183 -1.2116  0.6799
  240MOL0     H32377   3.604   3.966   9.904  0.9593  1.4483  0.4573
  240MOL0     H32378   3.404   3.964   9.694  1.0408 -2.8755 -0.7400
  240MOL0     H32379   3.387   4.086   9.828  3.4455  0.9752 -1.1712
  240MOL0     H32380   3.393   3.923   9.992 -1.4301  1.3113 -0.9210
  240MOL0     H32381   3.428   3.785   9.884  1.0193 -0.6701  2.7099
  240MOL0     H32382   4.466   4.153   9.673 -2.3343 -1.1859 -0.1894
  240MOL0     H32383   4.661   4.142   9.521  0.7396 -0.4150 -0.6654
  240MOL0     H32384   4.784   3.774   9.245  1.0354  1.5059  3.0804
  240MOL0     H32385   4.940   3.624   9.161 -2.2771  0.4361  2.5801
  240MOL0     H32386   7.000   3.533   8.761 -1.4488 -0.8552 -0.0283
  240MOL0     H32387   7.227   3.514   8.867  1.6948 -2.9426  2.8825
  240MOL0     H32388   7.609   3.431   8.984  3.1634  0.0413 -0.9861
  240MOL0     H32389   7.845   3.459   9.043 -0.6254  0.3737 -0.0243
  240MOL0     H32390   8.054   3.504   9.144 -0.2782  0.7553  1.3490
  240MOL0     H32391   8.033   3.648   9.057  1.9083 -0.2562 -0.7589
  240MOL0     H32392   8.174   3.669   9.321  2.6355  1.3037  0.6281
  240MOL0     H32393   8.173   3.790   9.190  1.6295 -1.5844 -3.6974
  240MOL0     H32394   8.285   3.627   9.038  1.7334  1.4408 -0.6066
  240MOL0     H32395   8.300   3.517   9.180  1.2527  0.5143  2.3939
  240MOL0     H32396   8.429   3.787   9.160 -3.8942  1.2118  1.4260
  240MOL0     H32397   8.507   3.637   9.139  0.4365  2.0130  0.7181
  240MOL0     H32398   8.552   3.684   9.545  0.4666  0.6924  0.4283
  240MOL0     H32399   7.712   3.746   9.338 -1.0236  1.2432 -1.2514
  240MOL0     H32400   7.479   3.674   9.313  1.2128 -1.0572  1.7550
  241MOL0     O32401   6.254   0.006   4.373  0.0558  0.0584  0.6671
  241MOL0     C32402   6.253   0.131   4.375 -0.4117  0.0202 -0.1641
  241MOL0     O32403   6.140   0.204   4.345  0.1166  0.8365  0.7238
  241MOL0     C32404   6.017   0.150   4.369  1.0416  0.2283  0.0649
  241MOL0     C32405   5.924   0.120   4.267 -0.0766 -0.2042  0.3538
  241MOL0     C32406   5.796   0.078   4.292  0.3903  0.5679  0.5293
  241MOL0     C32407   5.743   0.077   4.422 -0.2267  0.6805 -0.1177
  241MOL0     O32408   5.618   0.042   4.441 -0.0622 -0.0304 -0.3239
  241MOL0     C32409   5.534   0.151   4.483 -0.5795  0.1089  0.7079
  241MOL0     C32410   5.389   0.117   4.449 -0.2442 -0.7510  0.7057
  241MOL0     C32411   5.293   0.238   4.451 -0.2068  0.0033  0.7128
  241MOL0     C32412   5.149   0.183   4.443 -0.2627 -0.3621  0.4496
  241MOL0     C32413   5.066   0.285   4.375  0.5052 -0.6310  0.1151
  241MOL0     C32414   4.914   0.266   4.401  0.4775 -0.0458 -0.1376
  241MOL0     C32415   4.822   0.373   4.331  0.2941  0.0207 -0.3796
  241MOL0     C32416   4.685   0.354   4.404 -0.6605 -0.2553  0.6861
  241MOL0     N32417   4.589   0.459   4.359  0.2444  0.1974 -0.4031
  241MOL0     C32418   4.514   0.449   4.245 -0.4014  0.2252 -0.1996
  241MOL0     C32419   4.435   0.556   4.250 -0.1479  0.2133  0.4499
  241MOL0     C32420   4.336   0.608   4.145  0.1823 -0.7749 -0.5307
  241MOL0     C32421   4.194   0.591   4.187  0.7697  0.9411 -0.3683
  241MOL0     C32422   4.131   0.448   4.152  0.6723 -0.1620  0.5552
  241MOL0     C32423   3.980   0.451   4.191 -0.1410 -0.1708  1.0559
  241MOL0     O32424   3.909   0.416   4.070  0.4905 -0.2965  0.9053
  241MOL0     C32425   3.778   0.398   4.078 -0.2764 -0.8860 -0.2146
  241MOL0     C32426   3.714   0.392   3.954 -0.1157 -0.4631 -0.3554
  241MOL0     C32427   3.582   0.356   3.944 -0.0961 -0.9522 -0.2846
  241MOL0     C32428   3.529   0.345   3.803  0.5075 -0.7006 -0.0366
  241MOL0     C32429   3.504   0.341   4.061  0.2728 -0.2909  0.1862
  241MOL0     C32430   3.363   0.307   4.063 -0.7448 -0.2642  0.4379
  241MOL0     O32431   3.308   0.263   4.182 -0.0029  0.3562  0.0845
  241MOL0     C32432   3.173   0.275   4.194  0.0229 -0.4741 -0.2413
  241MOL0     C32433   3.083   0.168   4.171  0.3382  0.8610 -0.4036
  241MOL0     C32434   2.948   0.175   4.186  0.1165 -0.2552  0.8144
  241MOL0     C32435   2.894   0.305   4.214  0.1214  0.6802 -0.5422
  241MOL0     O32436   2.762   0.331   4.225 -0.1826 -0.4636 -0.4884
  241MOL0     C32437   2.660   0.232   4.217  0.0676 -0.1304  0.6214
  241MOL0     C32438   2.524   0.278   4.273 -0.3505 -0.1119 -0.2592
  241MOL0     C32439   2.415   0.176   4.258 -0.3171  0.1198 -0.3075
  241MOL0     C32440   2.279   0.231   4.310  0.6049 -0.0538  0.2180
  241MOL0     C32441   2.171   0.132   4.266  0.3942 -0.4412  1.2299
  241MOL0     C32442   2.178   0.003   4.355 -0.1124 -0.2912  0.3705
  241MOL0     C32443   2.052  -0.065   4.420  0.7618 -0.0192  0.5453
  241MOL0     C32444   2.093  -0.194   4.488  0.1458  0.6225  0.7238
  241MOL0    Cl32445   1.943  -0.249   4.573 -0.2908 -0.0537  0.0817
  241MOL0     C32446   2.974   0.421   4.219  0.1417 -0.2188 -0.8752
  241MOL0     C32447   3.108   0.402   4.211 -0.5664  0.0868  0.3329
  241MOL0     O32448   3.302   0.312   3.954  0.2194 -0.2710 -0.2555
  241MOL0     C32449   3.563   0.362   4.186  0.8808  0.4122 -0.3867
  241MOL0     C32450   3.698   0.387   4.197  0.0759 -0.1808 -0.2441
  241MOL0     N32451   4.463   0.628   4.364 -0.1193 -0.4841 -0.4124
  241MOL0     N32452   4.554   0.576   4.423  0.6822  0.9876  0.0639
  241MOL0     C32453   5.833   0.107   4.527  1.8278 -0.1808 -0.8081
  241MOL0     C32454   5.971   0.134   4.501 -0.0607 -0.6705 -0.1617
  241MOL0     C32455   6.373   0.197   4.426  0.3384 -0.3891  0.9191
  241MOL0     C32456   6.496   0.132   4.438 -0.2850 -0.0381  0.1544
  241MOL0     C32457   6.607   0.194   4.485 -0.5492  0.2157  0.2358
  241MOL0     C32458   6.598   0.324   4.533 -0.2385  0.5198 -0.4418
  241MOL0     O32459   6.705   0.384   4.583 -0.5162 -0.3674  0.1430
  241MOL0     C32460   6.691   0.456   4.707 -0.1232  0.5869  0.0654
  241MOL0     C32461   6.643   0.367   4.822 -0.2217  0.5616 -0.0853
  241MOL0     C32462   6.740   0.253   4.855  0.0082  0.5375 -0.1234
  241MOL0     C32463   6.663   0.129   4.914 -0.5227 -0.6831  0.5717
  241MOL0     C32464   6.749   0.003   4.918  1.1158  0.0456 -0.5322
  241MOL0     C32465   6.826  -0.091   4.935  0.0647  0.7780  0.6362
  241MOL0     C32466   6.476   0.386   4.529  0.7786 -0.0588  0.4028
  241MOL0     C32467   6.367   0.328   4.466 -0.0926 -0.3730  0.3663
  241MOL0     H32468   5.957   0.155   4.170 -1.1894  0.8755  0.3338
  241MOL0     H32469   5.739   0.056   4.203  2.1972  0.6607 -0.7121
  241MOL0     H32470   5.550   0.152   4.592 -1.0035 -1.7518  0.8264
  241MOL0     H32471   5.554   0.244   4.429 -2.1381  0.1600  0.1778
  241MOL0     H32472   5.384   0.074   4.348 -2.9827  0.5135  0.1993
  241MOL0     H32473   5.362   0.047   4.528 -0.6377 -1.2218  0.1682
  241MOL0     H32474   5.304   0.298   4.542  0.6826 -2.1498  2.0870
  241MOL0     H32475   5.304   0.305   4.365  1.6050 -1.5954 -0.3714
  241MOL0     H32476   5.136   0.091   4.387  2.0886 -0.9471  0.7459
  241MOL0     H32477   5.105   0.173   4.543  4.1039  1.0675  2.8147
  241MOL0     H32478   5.092   0.388   4.399 -1.0283  0.7232 -3.2913
  241MOL0     H32479   5.101   0.293   4.272  1.5984  1.2676  0.5874
  241MOL0     H32480   4.883   0.171   4.354 -0.5367  0.3113 -0.2245
  241MOL0     H32481   4.891   0.255   4.507  0.2575  0.3708 -0.1421
  241MOL0     H32482   4.863   0.470   4.363 -1.4262  0.0817  1.8423
  241MOL0     H32483   4.807   0.362   4.223 -1.1506  1.7877 -0.4099
  241MOL0     H32484   4.687   0.369   4.512 -1.9045 -1.3827  0.8959
  241MOL0     H32485   4.644   0.254   4.384 -1.1330  0.1108 -0.2151
  241MOL0     H32486   4.520   0.372   4.169 -0.0489  1.0673 -1.0395
  241MOL0     H32487   4.362   0.714   4.142 -0.7288 -0.4055  2.1269
  241MOL0     H32488   4.360   0.557   4.051  0.0467 -0.6571 -0.6307
  241MOL0     H32489   4.142   0.679   4.148 -0.7007  0.9895  1.5609
  241MOL0     H32490   4.182   0.609   4.294 -1.0277  0.0147 -0.3761
  241MOL0     H32491   4.193   0.374   4.201  0.1969  0.9824  3.0288
  241MOL0     H32492   4.139   0.433   4.044  2.3719  1.0938  0.4734
  241MOL0     H32493   3.947   0.550   4.224 -1.4337  0.0774 -0.8474
  241MOL0     H32494   3.965   0.377   4.270 -0.1261  0.2771  1.4842
  241MOL0     H32495   3.779   0.421   3.872  1.5715 -3.0251 -0.0062
  241MOL0     H32496   3.455   0.423   3.783  3.4007  1.9981 -1.1009
  241MOL0     H32497   3.601   0.349   3.721 -0.0604  0.5367 -0.4998
  241MOL0     H32498   3.479   0.248   3.798  1.4606 -1.1937 -0.2011
  241MOL0     H32499   3.139   0.077   4.155  1.8861  1.9543 -1.5389
  241MOL0     H32500   2.878   0.095   4.165 -1.8812  1.2334  1.4616
  241MOL0     H32501   2.650   0.212   4.110  1.1135  2.5342 -0.0532
  241MOL0     H32502   2.691   0.142   4.270 -0.2971 -0.1752  0.7644
  241MOL0     H32503   2.529   0.306   4.379 -3.1022 -0.8569  0.1688
  241MOL0     H32504   2.498   0.375   4.230  1.2754  0.8123  0.7423
  241MOL0     H32505   2.443   0.092   4.322 -3.5645  1.1620  2.7626
  241MOL0     H32506   2.401   0.134   4.157  0.3504  1.4039 -0.9540
  241MOL0     H32507   2.282   0.237   4.419 -1.1824  0.2323  0.2828
  241MOL0     H32508   2.256   0.331   4.272 -1.0121  0.6152  2.7193
  241MOL0     H32509   2.171   0.104   4.160 -3.6326 -0.2539  1.0014
  241MOL0     H32510   2.070   0.175   4.277 -0.2104 -1.3639 -0.4178
  241MOL0     H32511   2.247  -0.071   4.313  1.0136 -1.4919  4.0087
  241MOL0     H32512   2.242   0.036   4.437  2.2819 -3.7150  0.1158
  241MOL0     H32513   1.976  -0.091   4.345  0.8151  4.1830 -1.2407
  241MOL0     H32514   2.014   0.008   4.492  3.8677  0.3538  2.0011
  241MOL0     H32515   2.173  -0.188   4.563  2.5348 -2.5812 -1.3079
  241MOL0     H32516   2.122  -0.278   4.423 -1.9706  0.8619 -0.6114
  241MOL0     H32517   2.938   0.523   4.230 -0.1293 -0.2540 -1.3815
  241MOL0     H32518   3.180   0.483   4.212 -0.6541  0.1655  0.2906
  241MOL0     H32519   3.501   0.357   4.275  1.6752 -1.4230  0.1037
  241MOL0     H32520   3.737   0.405   4.296  0.4160  1.4607 -0.6534
  241MOL0     H32521   5.821   0.102   4.635  2.5899  1.7936 -0.6013
  241MOL0     H32522   6.039   0.164   4.580 -3.0090  1.9610  1.5812
  241MOL0     H32523   6.518   0.029   4.410 -2.2779 -0.4965  0.1016
  241MOL0     H32524   6.701   0.143   4.502 -2.2179 -2.8130  1.2058
  241MOL0     H32525   6.783   0.508   4.738 -0.3604  2.4383 -1.9916
  241MOL0     H32526   6.614   0.534   4.704 -2.3777 -1.4626  1.2705
  241MOL0     H32527   6.545   0.327   4.794 -0.5608  2.1129 -1.2980
  241MOL0     H32528   6.632   0.430   4.911 -0.2938 -1.0148  1.0526
  241MOL0     H32529   6.802   0.294   4.934 -0.7399  1.7381 -0.1383
  241MOL0     H32530   6.792   0.233   4.760 -1.6098  0.3751 -1.0226
  241MOL0     H32531   6.581   0.084   4.857  0.9396 -3.5276  0.5469
  241MOL0     H32532   6.630   0.151   5.016 -0.7533  0.5556  0.2486
  241MOL0     H32533   6.888  -0.177   4.946 -1.5577 -0.6609 -0.8043
  241MOL0     H32534   6.452   0.480   4.577  3.6180 -0.5301  3.0735
  241MOL0     H32535   6.274   0.381   4.452  0.1438 -0.3676 -1.4729
  242MOL0     O32536   6.661  10.074   1.931 -0.3206  0.3083  0.0006
  242MOL0     C32537   6.707  10.143   2.021 -0.6155  0.6653 -0.1446
  242MOL0     O32538   6.637  10.202   2.119  0.0330 -0.9681  0.4902
  242MOL0     C32539   6.503  10.213   2.096  0.2811  1.2820 -0.3275
  242MOL0     C32540   6.418  10.103   2.117  0.1451 -0.0563 -1.0458
  242MOL0     C32541   6.288  10.102   2.074 -0.6818 -0.1277 -0.8158
  242MOL0     C32542   6.235  10.224   2.035 -0.8407 -0.0453  0.1277
  242MOL0     O32543   6.099  10.229   2.027  0.0147  0.2754  0.1784
  242MOL0     C32544   6.030  10.346   2.036  0.1601 -0.3119 -1.1437
  242MOL0     C32545   5.882  10.343   2.026  0.4074  0.9052  0.2763
  242MOL0     C32546   5.830  10.306   1.891 -0.0448  0.2694  0.3203
  242MOL0     C32547   5.675  10.289   1.884 -0.3942  0.4586 -0.9881
  242MOL0     C32548   5.624  10.206   1.772  0.4856  0.2237  0.4802
  242MOL0     C32549   5.473  10.154   1.792 -0.0546  0.1560 -0.2109
  242MOL0     C32550   5.400  10.126   1.658 -1.0351 -0.7727  0.6316
  242MOL0     C32551   5.304  10.013   1.671  0.2892 -0.8527 -0.9537
  242MOL0     N32552   5.184  10.048   1.757 -1.1009  1.4442  0.1161
  242MOL0     C32553   5.092  10.138   1.712  0.0904 -0.2274  0.2181
  242MOL0     C32554   4.978  10.092   1.775  0.9035 -0.4191 -0.4844
  242MOL0     C32555   4.840  10.168   1.769 -0.1962  0.1677 -0.1192
  242MOL0     C32556   4.732  10.076   1.709 -0.1192 -0.4384 -0.0142
  242MOL0     C32557   4.618  10.169   1.652 -0.0657  0.7183  0.3868
  242MOL0     C32558   4.548  10.251   1.763  0.3009 -0.3283 -0.0785
  242MOL0     O32559   4.491  10.156   1.849  0.1847 -0.1081 -0.2047
  242MOL0     C32560   4.419  10.213   1.955  0.7048  0.2671  1.2483
  242MOL0     C32561   4.486  10.289   2.050  0.0558  0.2378 -0.0454
  242MOL0     C32562   4.412  10.366   2.144 -0.3937  1.0632 -0.6493
  242MOL0     C32563   4.503  10.447   2.237  1.0650  0.2862  0.1463
  242MOL0     C32564   4.270  10.368   2.139  1.0658 -0.6726  0.0361
  242MOL0     C32565   4.188  10.448   2.229 -0.7185 -0.9333 -0.1431
  242MOL0     O32566   4.071  10.391   2.261 -0.3429 -0.0810  0.5512
  242MOL0     C32567   3.964  10.456   2.306  0.6129  0.1539 -0.4165
  242MOL0     C32568   3.848  10.452   2.230  0.2786  0.1473  0.1757
  242MOL0     C32569   3.731  10.520   2.265  0.1259  0.3352 -0.4811
  242MOL0     C32570   3.731  10.585   2.386  0.0883  0.5804 -0.5145
  242MOL0     O32571   3.615  10.644   2.442 -0.5985 -0.5590  0.6439
  242MOL0     C32572   3.513  10.666   2.346 -0.3427  0.7521  0.8341
  242MOL0     C32573   3.410  10.744   2.424 -0.9572 -0.0395  0.1556
  242MOL0     C32574   3.276  10.757   2.354  0.2403 -0.9461  0.3177
  242MOL0     C32575   3.165  10.840   2.432  0.2189 -0.0043 -0.4646
  242MOL0     C32576   3.050  10.869   2.342  0.4625  1.2009  0.7599
  242MOL0     C32577   2.932  10.941   2.407  0.0566  1.0107 -0.1660
  242MOL0     C32578   2.873  10.860   2.512 -0.1201  0.9660 -0.2272
  242MOL0     C32579   2.742  10.931   2.561 -0.4892  1.1804  0.5934
  242MOL0    Cl32580   2.626  10.933   2.430 -0.4434 -0.2598  0.3221
  242MOL0     C32581   3.841  10.598   2.466  0.0207 -0.1481  0.1138
  242MOL0     C32582   3.960  10.537   2.422  0.4678  0.0631 -0.2140
  242MOL0     O32583   4.228  10.564   2.265 -0.1895  0.1614  0.3783
  242MOL0     C32584   4.200  10.286   2.041  0.4440  0.5915 -0.3161
  242MOL0     C32585   4.276  10.210   1.948  0.6090 -0.6066  0.7975
  242MOL0     N32586   5.012   9.997   1.866  0.3677  0.0272 -0.1788
  242MOL0     N32587   5.135   9.964   1.849  0.1105 -0.2170 -0.0857
  242MOL0     C32588   6.311  10.341   2.027 -0.7568  0.2917  0.1853
  242MOL0     C32589   6.444  10.329   2.058  0.2099  0.0644  0.4029
  242MOL0     C32590   6.854  10.173   2.020  0.3744  0.7192  0.3780
  242MOL0     C32591   6.938  10.115   1.931 -0.5787 -0.5396 -0.1849
  242MOL0     C32592   7.073  10.145   1.922  0.3453 -0.5373 -0.2736
  242MOL0     C32593   7.130  10.231   2.019 -1.0058 -0.5255 -0.5462
  242MOL0     O32594   7.263  10.272   2.023  0.5518 -0.2372 -0.1403
  242MOL0     C32595   7.353  10.244   1.916 -0.2481 -0.1983  0.4189
  242MOL0     C32596   7.482  10.327   1.923 -0.2447  0.6242 -0.1436
  242MOL0     C32597   7.594  10.282   1.838 -0.2424 -0.6070 -0.5433
  242MOL0     C32598   7.681  10.177   1.902 -0.3951 -0.1120 -0.0967
  242MOL0     C32599   7.816  10.181   1.843 -0.4053  0.4521  0.3490
  242MOL0     C32600   7.925  10.205   1.791  0.1097 -0.0518 -0.2882
  242MOL0     C32601   7.047  10.291   2.110 -0.2685  0.6482  0.3896
  242MOL0     C32602   6.905  10.267   2.111  0.1120 -0.0356  1.0751
  242MOL0     H32603   6.455  10.009   2.157 -0.3294  0.3358  0.3641
  242MOL0     H32604   6.216  10.022   2.091 -2.7145  1.7310 -0.2555
  242MOL0     H32605   6.056  10.403   2.125 -1.5280 -0.5878 -0.4499
  242MOL0     H32606   6.055  10.399   1.943 -1.3504  2.8684  0.1400
  242MOL0     H32607   5.837  10.283   2.106  0.0180 -0.2469 -0.7676
  242MOL0     H32608   5.861  10.446   2.055  1.3115  1.0228  0.5416
  242MOL0     H32609   5.841  10.385   1.816 -0.7771 -0.7925 -0.9479
  242MOL0     H32610   5.876  10.210   1.863 -1.5317 -0.6799  1.0213
  242MOL0     H32611   5.633  10.241   1.973  0.7765  0.5587 -0.3649
  242MOL0     H32612   5.634  10.390   1.875 -0.7174  0.5723  1.2411
  242MOL0     H32613   5.623  10.259   1.677  1.1758 -0.0812  0.2944
  242MOL0     H32614   5.695  10.123   1.763  2.2419  1.7269  0.0601
  242MOL0     H32615   5.481  10.060   1.847  2.5824  0.8446  0.7143
  242MOL0     H32616   5.419  10.231   1.847  0.4364  0.3458  0.0037
  242MOL0     H32617   5.355  10.219   1.624  0.7233  0.8582  2.5046
  242MOL0     H32618   5.469  10.093   1.580 -1.5504  1.7115 -0.9830
  242MOL0     H32619   5.347   9.922   1.714  0.5073 -0.7410 -0.9359
  242MOL0     H32620   5.269   9.998   1.568 -0.6302 -2.5080 -0.4297
  242MOL0     H32621   5.116  10.221   1.647  1.9925 -2.3874 -2.0475
  242MOL0     H32622   4.813  10.196   1.871 -1.4464 -2.3898  0.3528
  242MOL0     H32623   4.843  10.263   1.715 -1.5056  0.3024  0.0172
  242MOL0     H32624   4.690  10.004   1.779  3.0569 -0.9920  1.4785
  242MOL0     H32625   4.774  10.009   1.633  0.2086 -1.3877  0.9883
  242MOL0     H32626   4.537  10.115   1.604  3.7666 -4.4193 -1.1832
  242MOL0     H32627   4.658  10.232   1.572 -1.0746  2.6711  1.3527
  242MOL0     H32628   4.472  10.317   1.719  0.3909  0.8114  1.3721
  242MOL0     H32629   4.611  10.322   1.817 -2.0293  1.6070  0.2836
  242MOL0     H32630   4.594  10.280   2.050 -0.0289 -1.0215  0.8411
  242MOL0     H32631   4.446  10.452   2.330 -0.8615  2.5679 -1.0396
  242MOL0     H32632   4.605  10.411   2.249  1.4235  1.3560  0.3686
  242MOL0     H32633   4.502  10.555   2.220 -2.2011  0.6496  1.6968
  242MOL0     H32634   3.854  10.404   2.133 -0.6826  2.3215 -1.0262
  242MOL0     H32635   3.644  10.502   2.204 -1.5474 -1.5272  2.2167
  242MOL0     H32636   3.545  10.712   2.252  3.3471  1.2677  2.1900
  242MOL0     H32637   3.465  10.572   2.315 -0.3290  0.4105  1.8065
  242MOL0     H32638   3.385  10.701   2.522 -2.2566 -1.5990 -0.8005
  242MOL0     H32639   3.452  10.842   2.447 -1.6962  0.3115  0.0467
  242MOL0     H32640   3.240  10.655   2.336 -0.9453 -0.4551 -0.1819
  242MOL0     H32641   3.305  10.812   2.264 -1.7801  0.1362  0.2643
  242MOL0     H32642   3.123  10.787   2.518  0.4840  2.3106  1.1493
  242MOL0     H32643   3.199  10.936   2.470 -1.9745  0.6631 -0.0087
  242MOL0     H32644   3.011  10.781   2.290  1.5393  1.1123  0.0806
  242MOL0     H32645   3.082  10.946   2.271  1.8943  1.1464  1.3248
  242MOL0     H32646   2.966  11.035   2.450 -0.6408  0.6961  1.1239
  242MOL0     H32647   2.860  10.955   2.325 -0.4558  1.6706  0.3871
  242MOL0     H32648   2.935  10.858   2.602  1.3334 -2.7370 -1.1176
  242MOL0     H32649   2.861  10.757   2.478  2.4856  0.2759  0.7120
  242MOL0     H32650   2.756  11.030   2.607 -1.9150  0.4242  2.8390
  242MOL0     H32651   2.699  10.874   2.644  0.4035 -0.9922 -0.3563
  242MOL0     H32652   3.828  10.658   2.555 -1.8586  0.8735 -0.7886
  242MOL0     H32653   4.056  10.557   2.467  0.4730  4.5710 -1.6584
  242MOL0     H32654   4.095  10.264   2.055  0.3855  1.2850  0.3528
  242MOL0     H32655   4.222  10.138   1.888  0.1461  0.7793 -0.5168
  242MOL0     H32656   6.278  10.431   1.977  1.6822 -0.0944 -2.3732
  242MOL0     H32657   6.496  10.422   2.037 -2.2082  0.7276 -3.4995
  242MOL0     H32658   6.883  10.061   1.854 -1.8385 -0.0032  0.3066
  242MOL0     H32659   7.139  10.112   1.843  0.1174 -1.3799 -0.1277
  242MOL0     H32660   7.372  10.136   1.911 -2.0664 -0.4943 -3.7129
  242MOL0     H32661   7.305  10.273   1.822 -0.1581  1.3650  0.8219
  242MOL0     H32662   7.525  10.324   2.024  1.5062  1.0003 -0.8412
  242MOL0     H32663   7.449  10.429   1.898 -1.1757 -0.3079 -3.0301
  242MOL0     H32664   7.650  10.369   1.804 -0.9773 -0.1895 -0.7115
  242MOL0     H32665   7.561  10.237   1.744  1.2519 -0.4240 -1.1690
  242MOL0     H32666   7.644  10.074   1.898  2.0882 -1.0225 -2.0668
  242MOL0     H32667   7.685  10.204   2.008 -1.1583  1.2384 -0.3900
  242MOL0     H32668   8.025  10.220   1.754 -0.1613 -0.8794 -1.4305
  242MOL0     H32669   7.086  10.365   2.180 -0.9525 -0.8784  2.4558
  242MOL0     H32670   6.847  10.315   2.189 -0.5741  1.2611 -0.1756
  243MOL0     O32671   4.209   2.286   1.667 -0.7721 -0.3482 -0.1933
  243MOL0     C32672   4.153   2.395   1.635  0.3098 -0.7141 -0.0249
  243MOL0     O32673   4.217   2.492   1.561 -1.3544 -0.6276  0.1531
  243MOL0     C32674   4.349   2.481   1.515 -0.3233  0.4426 -0.3468
  243MOL0     C32675   4.430   2.596   1.517  0.7340  0.3716  0.4900
  243MOL0     C32676   4.567   2.593   1.491 -0.4341  0.1176  0.2361
  243MOL0     C32677   4.621   2.466   1.453  1.0230 -0.2033  0.6075
  243MOL0     O32678   4.755   2.449   1.421 -0.3444  0.3472  0.6250
  243MOL0     C32679   4.846   2.473   1.518 -0.1412 -0.2290  0.2981
  243MOL0     C32680   4.987   2.410   1.487  0.3736  0.4193 -0.2463
  243MOL0     C32681   4.975   2.271   1.416 -0.2677 -0.1073  0.9882
  243MOL0     C32682   5.111   2.199   1.397 -0.7606 -0.4146  0.1168
  243MOL0     C32683   5.202   2.287   1.310  0.1443  0.1637 -0.4212
  243MOL0     C32684   5.329   2.231   1.275 -0.5817 -0.5505  0.2375
  243MOL0     C32685   5.415   2.340   1.205 -0.4616 -0.4995 -0.1933
  243MOL0     C32686   5.527   2.268   1.121  0.2355  0.2358 -0.5018
  243MOL0     N32687   5.632   2.365   1.103  0.1685  0.0023  0.4388
  243MOL0     C32688   5.761   2.354   1.140  0.6100  0.2965 -0.5762
  243MOL0     C32689   5.825   2.458   1.086 -0.7965 -0.0223  0.5560
  243MOL0     C32690   5.974   2.481   1.072 -0.0253  0.0660  0.3983
  243MOL0     C32691   6.017   2.503   1.220  0.1089 -0.1173 -0.1181
  243MOL0     C32692   5.951   2.610   1.311  0.3614 -0.6173  0.3613
  243MOL0     C32693   5.961   2.754   1.247 -0.4935 -0.2535 -0.1855
  243MOL0     O32694   5.911   2.846   1.353 -0.0620  0.2405 -0.0116
  243MOL0     C32695   5.776   2.874   1.362  0.0284  0.0954 -0.3485
  243MOL0     C32696   5.680   2.815   1.279  0.1773  0.3677 -0.3018
  243MOL0     C32697   5.538   2.854   1.287 -0.0435 -0.1776  0.6842
  243MOL0     C32698   5.439   2.799   1.196 -0.0882 -0.1201  0.5278
  243MOL0     C32699   5.502   2.941   1.397  0.0926  0.0758  0.2896
  243MOL0     C32700   5.364   2.990   1.415 -0.7223  0.3417  0.0807
  243MOL0     O32701   5.338   3.012   1.549 -0.1855  0.2927  0.3031
  243MOL0     C32702   5.207   3.014   1.595 -0.6250  0.0986 -0.2288
  243MOL0     C32703   5.097   2.938   1.552 -0.6392  0.3585  1.0396
  243MOL0     C32704   4.973   2.934   1.620 -0.1735 -0.9938  0.3017
  243MOL0     C32705   4.961   3.004   1.743  0.0832 -0.1749 -0.4151
  243MOL0     O32706   4.841   2.989   1.815  0.2355  0.3343  0.2693
  243MOL0     C32707   4.744   2.881   1.790  0.9650  0.0986 -0.3184
  243MOL0     C32708   4.640   2.873   1.906  0.1050 -0.7541  0.1347
  243MOL0     C32709   4.523   2.786   1.870  0.4006 -0.5525 -0.2668
  243MOL0     C32710   4.422   2.763   1.978  0.6090  0.2438  0.6005
  243MOL0     C32711   4.288   2.714   1.923 -0.0129  0.4605  0.2464
  243MOL0     C32712   4.190   2.709   2.042 -0.3548  0.9669  0.0952
  243MOL0     C32713   4.054   2.684   1.978 -0.2586 -0.9657  0.1173
  243MOL0     C32714   3.938   2.681   2.080 -0.3098  0.4591 -0.1122
  243MOL0    Cl32715   3.940   2.542   2.188  0.0082  0.3991  0.1810
  243MOL0     C32716   5.065   3.077   1.790  0.1819  0.1362  0.6005
  243MOL0     C32717   5.189   3.078   1.723 -0.0347  0.5948  0.3953
  243MOL0     O32718   5.281   3.011   1.325 -0.7466  1.0283  0.0503
  243MOL0     C32719   5.596   2.969   1.491 -0.0052  0.3717 -0.4839
  243MOL0     C32720   5.726   2.938   1.474 -0.3153  0.5561  0.1914
  243MOL0     N32721   5.729   2.541   1.023  0.0886  0.1114 -0.9898
  243MOL0     N32722   5.620   2.477   1.030  0.7038  0.6845  0.0167
  243MOL0     C32723   4.546   2.349   1.434  1.2584  0.0203 -1.2616
  243MOL0     C32724   4.405   2.362   1.476  0.3583 -0.0784 -0.0524
  243MOL0     C32725   4.016   2.418   1.690  0.7530  0.4439  1.2104
  243MOL0     C32726   3.975   2.328   1.797  0.5024 -0.5529  0.8163
  243MOL0     C32727   3.850   2.359   1.853 -0.4152  0.5254 -0.6587
  243MOL0     C32728   3.768   2.459   1.807 -0.0947  0.5258  0.0344
  243MOL0     O32729   3.647   2.493   1.857  0.9416  0.4060 -0.7254
  243MOL0     C32730   3.610   2.444   1.993 -0.0267 -0.3586  0.0983
  243MOL0     C32731   3.498   2.530   2.048  0.4560 -0.2549  0.1607
  243MOL0     C32732   3.359   2.513   1.972  0.6130  0.1334 -0.1568
  243MOL0     C32733   3.299   2.371   1.990  0.1454  0.2354  0.4548
  243MOL0     C32734   3.153   2.387   1.991  0.0810  0.1760 -0.3102
  243MOL0     C32735   3.035   2.395   2.016  0.1026  1.0094 -0.4405
  243MOL0     C32736   3.806   2.537   1.703 -0.1011  0.0754  0.4023
  243MOL0     C32737   3.933   2.522   1.644  0.3833  0.1989  0.0175
  243MOL0     H32738   4.384   2.694   1.529 -0.2218  0.4024 -2.5941
  243MOL0     H32739   4.613   2.689   1.469  0.6022 -0.9058 -2.5512
  243MOL0     H32740   4.856   2.581   1.532 -3.6884  0.2509  0.1290
  243MOL0     H32741   4.802   2.427   1.607 -0.8355 -0.2408 -0.0401
  243MOL0     H32742   5.037   2.478   1.417 -0.8018  1.0806 -0.4768
  243MOL0     H32743   5.052   2.405   1.575  1.9882  0.8126 -1.3737
  243MOL0     H32744   4.895   2.216   1.467 -0.2420  0.9127  2.1735
  243MOL0     H32745   4.939   2.289   1.314 -1.7612 -1.8533  1.1580
  243MOL0     H32746   5.165   2.184   1.491  1.2151 -0.6319 -0.9863
  243MOL0     H32747   5.096   2.104   1.344  2.7254 -1.3677  0.6227
  243MOL0     H32748   5.152   2.310   1.215 -0.6683 -3.1225 -0.8929
  243MOL0     H32749   5.219   2.375   1.373  1.3640  1.2495 -2.1927
  243MOL0     H32750   5.379   2.209   1.370 -0.6390  0.4986  0.5220
  243MOL0     H32751   5.308   2.140   1.219 -0.1382 -0.7846  0.4471
  243MOL0     H32752   5.359   2.413   1.146  1.9089  0.6019 -1.2021
  243MOL0     H32753   5.457   2.395   1.289 -0.5805 -1.4756  0.5239
  243MOL0     H32754   5.482   2.220   1.034  0.6130 -4.1535  1.4789
  243MOL0     H32755   5.570   2.189   1.184 -0.7551  0.7466  0.8811
  243MOL0     H32756   5.797   2.271   1.200  0.9235  1.1267  0.4089
  243MOL0     H32757   6.017   2.402   1.009  1.4778  0.3289  1.0551
  243MOL0     H32758   5.981   2.568   1.005 -0.0845 -0.3232 -0.1224
  243MOL0     H32759   6.124   2.529   1.222  0.0126  0.3085  2.0321
  243MOL0     H32760   6.017   2.407   1.273  2.7513 -0.1907 -0.1211
  243MOL0     H32761   5.989   2.616   1.413  2.8534 -2.0839 -0.3836
  243MOL0     H32762   5.846   2.583   1.320  0.2694 -0.1405  0.7631
  243MOL0     H32763   5.912   2.776   1.152 -3.4776  1.5143  1.6083
  243MOL0     H32764   6.069   2.774   1.239 -0.3860 -0.1488  1.3601
  243MOL0     H32765   5.712   2.747   1.200 -2.0664 -3.1508  1.5667
  243MOL0     H32766   5.480   2.733   1.119 -0.9072  0.9557 -0.8805
  243MOL0     H32767   5.355   2.752   1.249 -1.9964 -0.7208 -2.7686
  243MOL0     H32768   5.394   2.887   1.149 -2.6561 -0.6861  1.7826
  243MOL0     H32769   5.107   2.891   1.454  1.0546 -1.1197  1.8541
  243MOL0     H32770   4.889   2.892   1.566  0.0998  2.1534 -2.9568
  243MOL0     H32771   4.697   2.904   1.694 -0.2632 -1.8090 -0.2198
  243MOL0     H32772   4.796   2.785   1.785 -0.2496 -0.7400  1.7730
  243MOL0     H32773   4.695   2.827   1.989  3.0834  0.2226 -1.1306
  243MOL0     H32774   4.603   2.973   1.932 -1.4456 -0.7990 -1.7205
  243MOL0     H32775   4.575   2.693   1.848  1.3426 -0.6090  2.0221
  243MOL0     H32776   4.472   2.825   1.781  0.2970 -1.3533 -0.5661
  243MOL0     H32777   4.454   2.688   2.051  0.8802  1.2751  1.5747
  243MOL0     H32778   4.399   2.854   2.034 -2.2169  0.2241 -0.3951
  243MOL0     H32779   4.295   2.617   1.872 -1.4116  0.1524  0.5947
  243MOL0     H32780   4.256   2.795   1.857 -0.1199  1.9931  2.1058
  243MOL0     H32781   4.223   2.627   2.106 -1.6347 -1.0268 -1.6555
  243MOL0     H32782   4.185   2.803   2.098  0.1869  2.6196 -2.4704
  243MOL0     H32783   4.065   2.593   1.918  0.8489  0.2117 -1.5855
  243MOL0     H32784   4.036   2.772   1.915  0.1361 -1.3055 -0.4802
  243MOL0     H32785   3.845   2.677   2.023 -0.6460 -2.3658  0.4903
  243MOL0     H32786   3.938   2.772   2.142  1.3332  1.1028 -1.0030
  243MOL0     H32787   5.049   3.121   1.888 -1.3499  2.4312 -0.5943
  243MOL0     H32788   5.272   3.133   1.765  1.9786 -2.5853  1.0004
  243MOL0     H32789   5.568   3.024   1.580  1.8425  0.1171  0.2910
  243MOL0     H32790   5.799   2.952   1.553  1.6904 -1.9757 -1.0550
  243MOL0     H32791   4.588   2.258   1.394  3.3412  1.2504 -2.0618
  243MOL0     H32792   4.345   2.273   1.463  0.5030 -0.2081  0.1595
  243MOL0     H32793   4.042   2.253   1.838  0.2056 -1.4645 -0.2921
  243MOL0     H32794   3.819   2.296   1.936 -1.4939  1.7599 -0.0920
  243MOL0     H32795   3.584   2.338   1.987 -1.5898  0.0217 -0.5504
  243MOL0     H32796   3.695   2.457   2.060 -1.2149  0.3002  1.5414
  243MOL0     H32797   3.543   2.629   2.052  0.4597 -0.2802  0.9704
  243MOL0     H32798   3.473   2.516   2.154 -1.0498  4.0401  0.5323
  243MOL0     H32799   3.377   2.544   1.869  0.7198  1.8649  0.3424
  243MOL0     H32800   3.297   2.597   2.004 -0.4636 -0.4340 -0.7000
  243MOL0     H32801   3.330   2.323   2.083  0.5158 -1.8578 -0.6855
  243MOL0     H32802   3.334   2.305   1.909 -0.2097  1.2955 -0.5924
  243MOL0     H32803   2.928   2.403   2.024  0.1134  1.1055 -0.3872
  243MOL0     H32804   3.744   2.621   1.677  0.3134  1.1440  2.6186
  243MOL0     H32805   3.962   2.594   1.568 -0.9381  1.0381  0.2832
  244MOL0     O32806   7.232   8.458  10.785 -0.4050 -0.1786  0.0613
  244MOL0     C32807   7.320   8.543  10.803  0.3089 -0.8118 -0.9369
  244MOL0     O32808   7.310   8.676  10.767  0.2709 -0.1895 -0.3125
  244MOL0     C32809   7.181   8.735  10.764 -0.0580  0.9932 -0.0266
  244MOL0     C32810   7.080   8.701  10.850  0.7418 -0.6061 -0.9132
  244MOL0     C32811   6.957   8.763  10.850 -0.7528  0.3811  1.0580
  244MOL0     C32812   6.926   8.857  10.749 -0.0730 -0.4196 -0.0406
  244MOL0     O32813   6.801   8.911  10.749 -0.2318 -0.1279 -0.5901
  244MOL0     C32814   6.768   9.014  10.651  0.3075  0.6229  0.0416
  244MOL0     C32815   6.620   9.055  10.676 -0.0659 -0.0314 -0.1534
  244MOL0     C32816   6.579   9.160  10.575  0.3520 -0.8443  0.5013
  244MOL0     C32817   6.448   9.229  10.612 -0.1266  0.2644  0.2127
  244MOL0     C32818   6.342   9.136  10.675 -0.8946 -1.1470 -0.1799
  244MOL0     C32819   6.290   9.029  10.574  0.8280 -0.5134  0.4510
  244MOL0     C32820   6.193   8.930  10.645 -0.3031 -0.4343  0.2973
  244MOL0     C32821   6.062   9.004  10.698 -0.1277  0.2792  0.2508
  244MOL0     N32822   5.991   9.063  10.585 -0.4839 -0.1757  0.0546
  244MOL0     C32823   5.927   8.984  10.491 -0.1802 -0.9062  0.1877
  244MOL0     C32824   5.892   9.072  10.394  0.1709  0.1162  0.2120
  244MOL0     C32825   5.812   9.033  10.273  0.0996 -0.1990  0.2767
  244MOL0     C32826   5.667   8.999  10.305  0.6917  0.8501  0.0195
  244MOL0     C32827   5.579   9.116  10.323 -0.0880 -0.5943 -0.0401
  244MOL0     C32828   5.443   9.076  10.376 -0.6188  0.0469 -0.6175
  244MOL0     O32829   5.363   9.194  10.400 -0.2774  0.7772 -0.4564
  244MOL0     C32830   5.240   9.161  10.465 -0.2846  0.0701 -0.6817
  244MOL0     C32831   5.190   9.030  10.474  0.1604  0.2188  0.1231
  244MOL0     C32832   5.059   9.011  10.516  0.0584  0.0001  0.8723
  244MOL0     C32833   5.004   8.877  10.546  0.2657  0.7161 -0.0618
  244MOL0     C32834   4.983   9.119  10.558 -0.4907 -0.1561  0.4825
  244MOL0     C32835   4.841   9.113  10.589  0.1388  0.3384  0.9139
  244MOL0     O32836   4.796   9.166  10.711 -0.4121  0.1811  0.0908
  244MOL0     C32837   4.663   9.176  10.732  0.8670 -0.8708 -0.5881
  244MOL0     C32838   4.588   9.117  10.839  0.5504  0.6176 -0.4607
  244MOL0     C32839   4.460   9.154  10.864 -0.5024  0.9320  0.4549
  244MOL0     C32840   4.395   9.244  10.785 -0.7216 -0.4472 -0.5652
  244MOL0     O32841   4.271   9.271  10.824  0.7820  0.2208  0.3611
  244MOL0     C32842   4.188   9.316  10.717 -0.1896  0.0702 -0.3963
  244MOL0     C32843   4.047   9.313  10.768  0.7198  0.6575  0.7060
  244MOL0     C32844   3.951   9.320  10.648  0.4682  0.1614 -0.9387
  244MOL0     C32845   3.806   9.350  10.696  0.8457 -0.1507 -0.6096
  244MOL0     C32846   3.710   9.382  10.580 -0.7493  0.7077 -0.8037
  244MOL0     C32847   3.565   9.389  10.608  0.2576  0.2215  0.5647
  244MOL0     C32848   3.488   9.406  10.477  0.7804 -0.3417  0.4232
  244MOL0     C32849   3.351   9.433  10.498  0.4215 -0.5617 -0.4674
  244MOL0    Cl32850   3.295   9.477  10.335  0.0916 -0.2422  0.0245
  244MOL0     C32851   4.465   9.316  10.684 -0.4110 -0.4298 -0.3642
  244MOL0     C32852   4.596   9.279  10.659 -0.4115  0.0864 -0.4759
  244MOL0     O32853   4.764   9.067  10.503  0.1998 -0.2450  0.0970
  244MOL0     C32854   5.029   9.250  10.545 -0.1024  0.5959  0.4184
  244MOL0     C32855   5.160   9.269  10.501  0.0245  0.7383  0.4899
  244MOL0     N32856   5.947   9.200  10.420 -0.7458  0.0711  0.5391
  244MOL0     N32857   5.994   9.189  10.542  0.2003 -0.2804  0.3078
  244MOL0     C32858   7.022   8.893  10.657  0.3412 -0.3511  0.5623
  244MOL0     C32859   7.155   8.837  10.671  0.1567  0.0783 -0.6151
  244MOL0     C32860   7.456   8.492  10.848  0.0996  0.1651 -0.2002
  244MOL0     C32861   7.566   8.572  10.862 -0.0493 -0.2031 -0.4618
  244MOL0     C32862   7.689   8.517  10.917 -0.1231 -0.9917  0.6915
  244MOL0     C32863   7.710   8.380  10.942 -0.4133  0.3040  0.0359
  244MOL0     O32864   7.839   8.339  10.977  0.8206 -0.1163 -0.0773
  244MOL0     C32865   7.858   8.207  11.041 -1.1921  0.4085 -0.7191
  244MOL0     C32866   7.955   8.126  10.946 -0.0457 -0.8695 -0.3654
  244MOL0     C32867   7.986   7.990  11.011 -0.2890  0.0719 -0.3298
  244MOL0     C32868   8.057   7.915  10.906 -0.4410  0.2851  0.7949
  244MOL0     C32869   7.959   7.865  10.813  0.2777 -0.1653 -0.3722
  244MOL0     C32870   7.871   7.818  10.751 -0.6515  0.6166 -0.3751
  244MOL0     C32871   7.595   8.300  10.931  0.6652  0.8608  0.4977
  244MOL0     C32872   7.469   8.358  10.885 -0.8289 -0.0219 -0.1778
  244MOL0     H32873   7.083   8.620  10.921 -2.2049  1.5165  1.8921
  244MOL0     H32874   6.877   8.721  10.909 -1.8251 -1.4373 -1.4709
  244MOL0     H32875   6.823   9.108  10.664 -1.8724  2.4035 -2.4682
  244MOL0     H32876   6.771   8.967  10.552 -3.2942  1.9392 -0.8654
  244MOL0     H32877   6.549   8.971  10.669 -1.1678  0.9308 -0.9963
  244MOL0     H32878   6.613   9.095  10.778  0.4573 -2.1428  0.7659
  244MOL0     H32879   6.652   9.242  10.573  0.5918 -1.0614 -1.0702
  244MOL0     H32880   6.581   9.121  10.472  2.9266 -3.0507  1.2651
  244MOL0     H32881   6.481   9.302  10.686  0.0699  0.6335 -0.2304
  244MOL0     H32882   6.394   9.274  10.527  1.5801 -0.3833 -1.2813
  244MOL0     H32883   6.391   9.086  10.759 -1.1247  0.7676  1.1669
  244MOL0     H32884   6.269   9.204  10.720  1.9241 -1.5880  6.1229
  244MOL0     H32885   6.242   9.080  10.491 -0.8851 -2.5880  0.0867
  244MOL0     H32886   6.369   8.963  10.538  0.7679  0.0021 -0.6714
  244MOL0     H32887   6.183   8.847  10.575  0.3751 -1.4537  1.3713
  244MOL0     H32888   6.237   8.883  10.733  0.6331 -2.4234 -1.1553
  244MOL0     H32889   6.089   9.076  10.776 -0.3371 -0.3621  0.9259
  244MOL0     H32890   5.998   8.931  10.748  0.6874 -0.7589 -0.1839
  244MOL0     H32891   5.920   8.879  10.514 -0.3341 -0.5432  1.9645
  244MOL0     H32892   5.815   9.112  10.197  1.4867 -0.5839 -0.1097
  244MOL0     H32893   5.855   8.943  10.228  1.1123 -0.0906  0.9776
  244MOL0     H32894   5.675   8.939  10.396  1.6201  0.3283 -0.3915
  244MOL0     H32895   5.616   8.936  10.231  1.5611 -0.6666  0.6517
  244MOL0     H32896   5.576   9.173  10.230  0.0737 -1.5224 -0.6256
  244MOL0     H32897   5.628   9.184  10.393 -1.2091 -0.3684  0.5455
  244MOL0     H32898   5.460   9.020  10.469 -0.6701  0.6706 -0.2266
  244MOL0     H32899   5.400   9.011  10.299  1.2299 -1.2679 -0.6083
  244MOL0     H32900   5.244   8.942  10.439  0.1726  0.4191 -0.3713
  244MOL0     H32901   4.936   8.882  10.631  1.3137  0.6578  0.7888
  244MOL0     H32902   4.956   8.842  10.454  0.2898 -1.3094  0.6599
  244MOL0     H32903   5.082   8.801  10.558 -0.3832  0.4157  3.0094
  244MOL0     H32904   4.637   9.053  10.912 -1.8956 -0.1673  0.5952
  244MOL0     H32905   4.406   9.106  10.944  0.1622  0.0416  0.3934
  244MOL0     H32906   4.208   9.422  10.699  0.7641 -0.1377 -0.6303
  244MOL0     H32907   4.207   9.255  10.628 -1.6469 -0.7389 -0.1758
  244MOL0     H32908   4.016   9.227  10.828 -2.0131  0.6792 -0.5167
  244MOL0     H32909   4.032   9.401  10.830 -1.2362  1.7449 -1.1937
  244MOL0     H32910   3.944   9.226  10.592 -3.3474 -0.1075 -0.3041
  244MOL0     H32911   3.974   9.404  10.582 -1.6231 -0.0543 -2.0382
  244MOL0     H32912   3.765   9.268  10.755  1.0485  0.1045 -0.1166
  244MOL0     H32913   3.803   9.437  10.763  0.3016  0.0206 -0.8447
  244MOL0     H32914   3.722   9.305  10.503  0.9398 -1.2046  1.2489
  244MOL0     H32915   3.756   9.471  10.535  2.2624 -0.7830 -0.9827
  244MOL0     H32916   3.539   9.299  10.665  0.1219  1.7169  3.0314
  244MOL0     H32917   3.546   9.474  10.675 -1.1735 -1.0073  1.7918
  244MOL0     H32918   3.485   9.315  10.417 -1.0328 -0.6759  0.9606
  244MOL0     H32919   3.534   9.483  10.414 -1.1660  0.0195 -0.6458
  244MOL0     H32920   3.346   9.517  10.568  0.2178 -3.2325  2.9631
  244MOL0     H32921   3.299   9.352  10.549 -0.7456  1.0095  0.9337
  244MOL0     H32922   4.418   9.398  10.630  1.0706  0.3445 -0.5377
  244MOL0     H32923   4.653   9.348  10.598  0.5653  0.9319  1.3080
  244MOL0     H32924   4.962   9.333  10.561 -2.0497 -1.0106  1.0157
  244MOL0     H32925   5.196   9.369  10.481 -1.8139  1.3081 -0.1041
  244MOL0     H32926   7.006   8.969  10.581 -1.5000  1.2521  2.4035
  244MOL0     H32927   7.242   8.878  10.622  0.1704  1.2438  0.3273
  244MOL0     H32928   7.562   8.675  10.829  0.8959 -0.1278 -0.3514
  244MOL0     H32929   7.767   8.590  10.932 -0.1910 -0.4934 -1.0721
  244MOL0     H32930   7.892   8.216  11.145  0.0006  1.4864 -1.1862
  244MOL0     H32931   7.772   8.141  11.055 -0.4696 -0.5986 -0.8604
  244MOL0     H32932   8.048   8.185  10.948 -0.2029 -0.5997 -0.7424
  244MOL0     H32933   7.913   8.117  10.845  0.8867 -1.8168 -0.6873
  244MOL0     H32934   7.891   7.942  11.033 -0.4775  0.2370 -0.7801
  244MOL0     H32935   8.056   8.000  11.095  1.3272 -0.3245 -1.5771
  244MOL0     H32936   8.114   7.831  10.945 -1.3720 -0.7429  0.0046
  244MOL0     H32937   8.123   7.979  10.848  1.9422 -0.9342  1.9998
  244MOL0     H32938   7.783   7.779  10.704  0.0042 -2.4954  0.7475
  244MOL0     H32939   7.588   8.194  10.952  0.0047  0.8377  0.1941
  244MOL0     H32940   7.382   8.293  10.885 -0.3250 -0.7043  0.5275
  245MOL0     O32941   7.820   5.311   4.818  0.5990 -0.2044  0.8117
  245MOL0     C32942   7.812   5.352   4.700 -0.0041  0.0065  0.5872
  245MOL0     O32943   7.703   5.366   4.625  0.4004  0.1163 -0.0040
  245MOL0     C32944   7.571   5.352   4.677  0.5744 -0.1647 -0.6602
  245MOL0     C32945   7.476   5.416   4.606 -0.2897  0.1475 -0.1611
  245MOL0     C32946   7.341   5.404   4.645  0.0895  0.0627  0.1230
  245MOL0     C32947   7.299   5.328   4.752 -0.1029  0.0953 -0.1858
  245MOL0     O32948   7.169   5.309   4.794 -0.3596 -0.3841 -0.3933
  245MOL0     C32949   7.065   5.385   4.724  0.7322  0.1297 -0.3295
  245MOL0     C32950   6.941   5.347   4.815 -0.2638  0.3477 -0.2465
  245MOL0     C32951   6.810   5.388   4.753 -0.6432 -0.2222 -0.0185
  245MOL0     C32952   6.685   5.370   4.852  0.5506 -0.0649  0.0673
  245MOL0     C32953   6.558   5.374   4.771  0.1558  0.0905  0.1064
  245MOL0     C32954   6.442   5.410   4.867  0.8886  0.7948 -0.4877
  245MOL0     C32955   6.426   5.300   4.978 -0.2020 -0.5260 -0.2624
  245MOL0     C32956   6.280   5.279   5.020  0.1302 -1.0503 -0.0798
  245MOL0     N32957   6.185   5.248   4.913 -0.5460 -0.2094 -0.6226
  245MOL0     C32958   6.192   5.154   4.816  0.4793  0.5854  0.6103
  245MOL0     C32959   6.077   5.166   4.752  0.5699  0.2206 -0.5149
  245MOL0     C32960   6.039   5.087   4.634  0.3260  0.2234 -0.4365
  245MOL0     C32961   5.894   5.118   4.585  0.7797  0.3762 -0.5376
  245MOL0     C32962   5.791   5.043   4.670  0.6168 -0.2548  0.1363
  245MOL0     C32963   5.660   5.054   4.602  0.5146  1.1815  0.1605
  245MOL0     O32964   5.566   4.996   4.689  0.0748 -0.1818  0.1225
  245MOL0     C32965   5.428   5.013   4.671  0.0736  0.3152 -0.8953
  245MOL0     C32966   5.368   5.024   4.551  0.1561  0.1643 -0.6002
  245MOL0     C32967   5.234   5.022   4.534  0.9786 -0.3170 -0.2880
  245MOL0     C32968   5.189   5.031   4.386 -0.2042  0.8286  0.2549
  245MOL0     C32969   5.151   5.008   4.647  0.0353 -0.4105  0.4502
  245MOL0     C32970   5.004   5.020   4.631 -0.0188  0.1734  0.2985
  245MOL0     O32971   4.951   5.087   4.728 -0.0894  0.3675  0.0603
  245MOL0     C32972   4.823   5.062   4.779 -0.0730  0.7184 -0.5573
  245MOL0     C32973   4.782   5.143   4.887  0.5661 -0.4454  0.0352
  245MOL0     C32974   4.657   5.129   4.949 -0.6750 -0.0944  0.3729
  245MOL0     C32975   4.555   5.077   4.871 -0.6717  0.3866 -0.8629
  245MOL0     O32976   4.425   5.086   4.898  0.5410  0.0998 -0.3336
  245MOL0     C32977   4.375   5.165   5.002 -0.6468 -0.1794 -0.3625
  245MOL0     C32978   4.229   5.136   5.016  0.3139 -0.4712  0.2141
  245MOL0     C32979   4.204   5.011   5.101  0.5871 -0.0452 -0.1182
  245MOL0     C32980   4.056   4.968   5.105 -1.4777 -0.3442  0.2375
  245MOL0     C32981   4.027   4.860   5.207  0.9659  0.6032  0.9618
  245MOL0     C32982   4.033   4.905   5.348 -0.2627 -0.5538  0.6792
  245MOL0     C32983   4.008   4.799   5.454  0.5428  0.2122 -0.0058
  245MOL0     C32984   4.023   4.862   5.598  0.6790  0.7434 -0.8619
  245MOL0    Cl32985   4.173   4.960   5.626  0.2642  0.2120 -0.2151
  245MOL0     C32986   4.585   5.001   4.752 -0.8431  0.1101  0.7361
  245MOL0     C32987   4.722   4.990   4.713 -0.5160  0.1940  0.0920
  245MOL0     O32988   4.954   4.971   4.531  0.7956 -0.0306 -0.1716
  245MOL0     C32989   5.208   5.013   4.778  0.5809  0.1932  0.5221
  245MOL0     C32990   5.346   5.009   4.780  0.5362  0.0061 -0.2291
  245MOL0     N32991   5.997   5.260   4.810 -0.3066  0.5657  0.4767
  245MOL0     N32992   6.067   5.314   4.903 -0.3798  0.1463 -0.2089
  245MOL0     C32993   7.401   5.270   4.830  0.0607  0.3224 -0.0519
  245MOL0     C32994   7.535   5.276   4.784 -0.6553 -0.6897 -0.2555
  245MOL0     C32995   7.937   5.382   4.630 -0.5392  0.5619  0.1016
  245MOL0     C32996   7.944   5.402   4.494  0.3957 -0.0251 -0.5825
  245MOL0     C32997   8.056   5.423   4.428  0.6114  0.5364  0.3977
  245MOL0     C32998   8.182   5.414   4.490  0.2230 -0.4132  0.2076
  245MOL0     O32999   8.300   5.420   4.421 -0.2314 -0.3276  0.2020
  245MOL0     C33000   8.427   5.419   4.489 -0.1765  0.7878 -0.5417
  245MOL0     C33001   8.530   5.427   4.375  0.6217  0.9114 -0.1111
  245MOL0     C33002   8.547   5.560   4.310  0.4905  0.2116 -0.2547
  245MOL0     C33003   8.656   5.560   4.204 -1.0206 -0.7644  0.1299
  245MOL0     C33004   8.792   5.513   4.241 -0.0759 -0.1567  0.2243
  245MOL0     C33005   8.899   5.470   4.269 -0.6181  0.7554  0.4253
  245MOL0     C33006   8.183   5.395   4.633 -0.0301  0.6424  0.2555
  245MOL0     C33007   8.060   5.372   4.698  0.2373 -0.1066 -0.1234
  245MOL0     H33008   7.507   5.481   4.525  1.9714 -0.4336  0.1799
  245MOL0     H33009   7.272   5.468   4.590 -0.8653  0.3441  1.5906
  245MOL0     H33010   7.082   5.492   4.738  1.6604 -0.0418 -0.0764
  245MOL0     H33011   7.044   5.362   4.619 -1.0410  1.5729 -0.3297
  245MOL0     H33012   6.948   5.240   4.839  2.2401  0.6408  0.7019
  245MOL0     H33013   6.951   5.385   4.917 -2.6066  0.3843  0.0272
  245MOL0     H33014   6.823   5.489   4.713 -0.4964 -0.3713 -0.3490
  245MOL0     H33015   6.805   5.314   4.672  2.6850  2.7140 -3.2357
  245MOL0     H33016   6.694   5.280   4.914  0.4741 -0.0581  0.0889
  245MOL0     H33017   6.684   5.451   4.926 -1.3918 -1.2261  1.4113
  245MOL0     H33018   6.566   5.463   4.708 -0.5204  1.3432  1.6936
  245MOL0     H33019   6.536   5.278   4.724  2.7465 -0.4820 -0.1243
  245MOL0     H33020   6.458   5.509   4.909  0.1943  0.6984  0.0192
  245MOL0     H33021   6.356   5.404   4.799  1.5406 -3.2688 -1.1859
  245MOL0     H33022   6.465   5.208   4.933  2.7742  1.0066 -1.0763
  245MOL0     H33023   6.487   5.316   5.067 -0.6743  2.5950 -0.3732
  245MOL0     H33024   6.251   5.382   5.044  1.5639  0.3338 -3.5429
  245MOL0     H33025   6.270   5.214   5.107  1.9924 -2.5870 -0.9196
  245MOL0     H33026   6.266   5.075   4.806  2.1005  2.0780  0.3876
  245MOL0     H33027   6.106   5.113   4.552  2.6169 -2.9398  0.2206
  245MOL0     H33028   6.041   4.979   4.650 -2.3068 -0.2232 -2.4501
  245MOL0     H33029   5.885   5.083   4.482  2.1822  0.0793 -0.5784
  245MOL0     H33030   5.872   5.226   4.590 -0.4078  0.1213  0.1413
  245MOL0     H33031   5.785   5.094   4.767  1.1344 -0.1793  0.1303
  245MOL0     H33032   5.828   4.941   4.680 -2.2308 -1.4605 -0.5084
  245MOL0     H33033   5.668   4.985   4.518 -1.2761 -0.8015  1.5074
  245MOL0     H33034   5.628   5.148   4.557 -0.6821  0.1334 -1.2749
  245MOL0     H33035   5.422   5.040   4.459 -2.6620  2.8666 -1.9617
  245MOL0     H33036   5.152   5.127   4.347  0.5992  0.5082 -1.3910
  245MOL0     H33037   5.275   5.011   4.322 -2.0195 -1.2231 -1.7276
  245MOL0     H33038   5.116   4.953   4.362 -1.4950  3.0797 -4.4979
  245MOL0     H33039   4.865   5.199   4.930  0.6166 -0.3400 -0.2022
  245MOL0     H33040   4.635   5.182   5.041  0.1312 -2.3651  1.9754
  245MOL0     H33041   4.427   5.145   5.096  0.2626 -0.0891 -0.8356
  245MOL0     H33042   4.391   5.272   4.985 -0.1630 -0.3409 -0.9781
  245MOL0     H33043   4.172   5.216   5.063  0.6003 -0.0697 -0.1170
  245MOL0     H33044   4.182   5.118   4.919 -1.7157  1.2951  0.8059
  245MOL0     H33045   4.243   5.021   5.203 -1.3752 -2.6913  1.0087
  245MOL0     H33046   4.257   4.927   5.056  0.4026  2.0262 -4.8462
  245MOL0     H33047   3.997   5.059   5.124  1.2260  1.0388  2.7934
  245MOL0     H33048   4.038   4.928   5.005 -1.0418  1.3456 -0.5596
  245MOL0     H33049   4.102   4.784   5.188  0.2191  0.2803 -0.9813
  245MOL0     H33050   3.931   4.813   5.182  1.5893  0.9482 -2.6016
  245MOL0     H33051   4.129   4.953   5.370 -1.7093  1.1346  3.9746
  245MOL0     H33052   3.962   4.988   5.350 -1.2332 -1.3733  1.7971
  245MOL0     H33053   4.087   4.724   5.445  2.2181  1.6303  1.9294
  245MOL0     H33054   3.907   4.757   5.447  0.6141 -0.2364  1.3158
  245MOL0     H33055   4.021   4.778   5.668 -0.2199 -0.7438 -2.5825
  245MOL0     H33056   3.930   4.914   5.624  1.3358  0.9459  1.3001
  245MOL0     H33057   4.498   4.960   4.701 -1.1454  3.0456 -1.3059
  245MOL0     H33058   4.748   4.925   4.630  3.9268  0.6216  0.9205
  245MOL0     H33059   5.147   5.011   4.868  1.6769 -1.4279  1.2682
  245MOL0     H33060   5.407   5.004   4.870  1.2949  1.1716 -0.6644
  245MOL0     H33061   7.370   5.215   4.918 -0.8443 -0.0412 -0.5742
  245MOL0     H33062   7.615   5.220   4.830  1.5300  4.0014  2.3230
  245MOL0     H33063   7.854   5.400   4.434 -0.2675 -1.9252  0.4069
  245MOL0     H33064   8.051   5.442   4.321  1.6720  0.3166  0.2990
  245MOL0     H33065   8.428   5.503   4.558 -2.0140  0.5509 -0.1647
  245MOL0     H33066   8.440   5.325   4.543 -0.1053  0.0159 -1.8472
  245MOL0     H33067   8.507   5.354   4.296 -2.0585  1.6771 -0.1145
  245MOL0     H33068   8.623   5.383   4.414  0.6756  1.1093 -0.0156
  245MOL0     H33069   8.564   5.637   4.386  2.5010  0.6129 -1.0587
  245MOL0     H33070   8.452   5.589   4.262  0.2431 -0.9186 -0.4756
  245MOL0     H33071   8.664   5.664   4.170 -2.2339  0.3132  2.8024
  245MOL0     H33072   8.617   5.510   4.115 -2.6178  0.7279 -0.0518
  245MOL0     H33073   8.992   5.434   4.308 -0.6410  0.5882  0.3293
  245MOL0     H33074   8.270   5.395   4.696 -0.2023  1.8515  0.5155
  245MOL0     H33075   8.069   5.356   4.805  1.4041  0.2498 -0.1491
  246MOL0     O33076   7.217   4.907   7.529 -0.1070  0.1750 -0.0186
  246MOL0     C33077   7.238   4.848   7.422  0.2890  0.5703  0.5904
  246MOL0     O33078   7.142   4.793   7.338 -0.6157 -0.0593 -0.2746
  246MOL0     C33079   7.013   4.776   7.390 -1.1971 -0.5627 -0.1295
  246MOL0     C33080   6.903   4.827   7.318 -0.7767 -0.1771 -0.1563
  246MOL0     C33081   6.771   4.786   7.351  0.7583  0.5259 -0.6653
  246MOL0     C33082   6.756   4.702   7.469 -0.0621  0.3316 -0.6012
  246MOL0     O33083   6.633   4.647   7.508 -0.1972  0.1240 -0.0001
  246MOL0     C33084   6.512   4.691   7.447 -1.1091 -0.0151 -0.0717
  246MOL0     C33085   6.386   4.626   7.507  0.5591  0.5351  0.1066
  246MOL0     C33086   6.334   4.706   7.625  0.2210  0.1894 -0.6554
  246MOL0     C33087   6.184   4.693   7.646  0.3506  0.1663  0.2006
  246MOL0     C33088   6.128   4.789   7.758 -0.3631 -0.0280  0.3461
  246MOL0     C33089   6.148   4.939   7.740  0.1409  0.7255 -0.4708
  246MOL0     C33090   6.100   5.009   7.868  0.5109  0.2566 -0.3739
  246MOL0     C33091   6.076   5.159   7.863 -0.2715 -0.5538  0.2126
  246MOL0     N33092   6.207   5.229   7.872  0.3392 -0.4406 -0.1072
  246MOL0     C33093   6.211   5.363   7.852  0.3599 -0.7196 -0.2876
  246MOL0     C33094   6.342   5.396   7.860 -0.8117 -0.0139 -0.2086
  246MOL0     C33095   6.397   5.532   7.856 -0.1363  0.4343  0.5792
  246MOL0     C33096   6.511   5.531   7.751 -0.3109  0.3735  0.2313
  246MOL0     C33097   6.609   5.648   7.780 -0.2817 -0.1200  0.2906
  246MOL0     C33098   6.757   5.605   7.768 -1.0179 -0.3448 -0.7251
  246MOL0     O33099   6.783   5.521   7.876 -0.2907 -0.0007  0.0819
  246MOL0     C33100   6.903   5.532   7.941  0.9225 -0.0436  0.9180
  246MOL0     C33101   7.017   5.518   7.870  0.0286  0.3947 -0.4766
  246MOL0     C33102   7.137   5.513   7.939  0.3599  0.1892  0.0017
  246MOL0     C33103   7.256   5.503   7.847 -0.4448  0.1863 -0.0672
  246MOL0     C33104   7.150   5.522   8.079  0.2736  0.2043 -0.3610
  246MOL0     C33105   7.282   5.546   8.151  0.4265 -0.0727  0.3294
  246MOL0     O33106   7.264   5.592   8.275  0.6195 -0.4501  0.0713
  246MOL0     C33107   7.381   5.638   8.341 -0.0158  0.1445  0.7900
  246MOL0     C33108   7.379   5.610   8.479 -0.0881  0.3968  0.1520
  246MOL0     C33109   7.477   5.651   8.559  0.0500 -0.3003  0.0106
  246MOL0     C33110   7.592   5.705   8.503 -0.1088 -0.6449 -0.0479
  246MOL0     O33111   7.699   5.749   8.573 -0.0550  0.2503  0.5799
  246MOL0     C33112   7.706   5.719   8.715  0.0162  0.2360 -0.9216
  246MOL0     C33113   7.851   5.736   8.770 -0.3028 -0.5591 -0.4868
  246MOL0     C33114   7.905   5.882   8.768 -0.2630 -1.4211 -0.0277
  246MOL0     C33115   7.858   5.968   8.893  0.4192  0.7114  0.3819
  246MOL0     C33116   7.836   6.123   8.866 -0.1040  0.9281 -0.2077
  246MOL0     C33117   7.946   6.189   8.775 -0.2811 -0.3646 -0.3672
  246MOL0     C33118   7.921   6.343   8.767  0.3449 -0.1525 -0.7303
  246MOL0     C33119   8.034   6.398   8.675 -0.1605  0.2133 -0.4572
  246MOL0    Cl33120   7.991   6.563   8.618  0.4538  0.1935 -0.2716
  246MOL0     C33121   7.600   5.747   8.369 -0.2929  0.7424 -0.9671
  246MOL0     C33122   7.495   5.705   8.285 -0.1624 -0.3847 -0.0148
  246MOL0     O33123   7.383   5.495   8.107 -0.0306  0.2186  0.6053
  246MOL0     C33124   7.028   5.528   8.147 -0.3592  0.1962 -0.1799
  246MOL0     C33125   6.902   5.529   8.079  0.5795 -0.7640 -0.5826
  246MOL0     N33126   6.411   5.277   7.896 -0.2060  0.2276  0.1721
  246MOL0     N33127   6.329   5.173   7.892 -0.0923  0.4567 -0.2342
  246MOL0     C33128   6.868   4.669   7.551 -0.1431  0.4464  0.3924
  246MOL0     C33129   6.996   4.694   7.506 -0.5062 -1.0805  0.0058
  246MOL0     C33130   7.367   4.858   7.356  0.1552  0.4213 -0.7645
  246MOL0     C33131   7.472   4.935   7.407 -0.8337  0.1106 -0.6849
  246MOL0     C33132   7.591   4.941   7.347  0.4380  0.9343 -0.8595
  246MOL0     C33133   7.611   4.871   7.235  0.5081 -0.1774  0.9973
  246MOL0     O33134   7.733   4.892   7.174 -0.0303 -0.2205  0.6954
  246MOL0     C33135   7.831   4.801   7.217  0.9918  0.6797 -0.0091
  246MOL0     C33136   7.936   4.813   7.120 -0.7873 -0.0760  0.0926
  246MOL0     C33137   8.064   4.740   7.173 -0.2848  0.1464 -0.0931
  246MOL0     C33138   8.176   4.713   7.068  0.0332  0.0050 -0.2936
  246MOL0     C33139   8.133   4.641   6.944  0.0513 -0.3556  0.4541
  246MOL0     C33140   8.107   4.576   6.851 -0.0845  0.8333  0.2600
  246MOL0     C33141   7.509   4.806   7.165  0.3797 -0.0851 -0.1843
  246MOL0     C33142   7.383   4.804   7.225  0.2962  0.4851 -0.4099
  246MOL0     H33143   6.917   4.893   7.233 -1.5968 -0.0735 -0.2139
  246MOL0     H33144   6.691   4.831   7.293 -2.0329  0.3163  2.6712
  246MOL0     H33145   6.502   4.799   7.449  1.2864  0.2542  0.0883
  246MOL0     H33146   6.511   4.669   7.340  2.1754  0.0276 -0.2003
  246MOL0     H33147   6.310   4.615   7.429  1.7752 -1.1559 -0.9201
  246MOL0     H33148   6.419   4.525   7.532  1.1301  0.7183  0.1078
  246MOL0     H33149   6.389   4.666   7.711 -1.3854 -1.2758 -0.2423
  246MOL0     H33150   6.358   4.812   7.611 -0.1353  0.3793  0.1595
  246MOL0     H33151   6.146   4.733   7.552  1.9267  1.8365  0.2240
  246MOL0     H33152   6.151   4.589   7.649 -1.0031  0.5570 -0.4724
  246MOL0     H33153   6.021   4.767   7.764 -0.3528  0.1443  1.4923
  246MOL0     H33154   6.164   4.765   7.858 -1.2354 -0.1117  0.6494
  246MOL0     H33155   6.250   4.966   7.710  0.8244 -0.9406  0.1984
  246MOL0     H33156   6.095   4.967   7.648 -0.4340 -0.1289 -0.4075
  246MOL0     H33157   5.999   4.970   7.879 -0.1201  2.0548  0.6504
  246MOL0     H33158   6.162   4.986   7.956 -0.4713  1.5448  0.7141
  246MOL0     H33159   6.007   5.189   7.942 -0.6693 -0.6105 -0.1086
  246MOL0     H33160   6.035   5.183   7.764 -0.0533  0.3639  0.3281
  246MOL0     H33161   6.131   5.432   7.825  0.5012 -2.1951 -5.5619
  246MOL0     H33162   6.323   5.600   7.813  0.0516 -0.5210 -1.3656
  246MOL0     H33163   6.437   5.556   7.955 -0.3779 -0.5892  0.9313
  246MOL0     H33164   6.476   5.547   7.649  0.6014 -0.1735 -0.1845
  246MOL0     H33165   6.562   5.433   7.750  1.3122  1.1849 -0.2878
  246MOL0     H33166   6.600   5.701   7.875 -2.0963  2.2444 -1.0822
  246MOL0     H33167   6.580   5.723   7.706  1.0091 -0.5178 -0.6550
  246MOL0     H33168   6.824   5.691   7.775  0.7002 -1.5799 -1.3186
  246MOL0     H33169   6.775   5.554   7.673 -1.0355  1.4635 -1.7544
  246MOL0     H33170   7.010   5.511   7.762 -0.5762 -0.6084 -0.3913
  246MOL0     H33171   7.223   5.482   7.745  1.6336  1.8793 -1.1480
  246MOL0     H33172   7.309   5.598   7.843  0.8729 -0.5328 -0.1409
  246MOL0     H33173   7.325   5.421   7.868 -1.2305 -0.4265  0.1997
  246MOL0     H33174   7.289   5.573   8.528 -0.9355  0.5912 -1.2146
  246MOL0     H33175   7.461   5.629   8.664 -2.3738 -0.8153 -0.4120
  246MOL0     H33176   7.624   5.762   8.773 -2.9403 -1.2182 -3.7276
  246MOL0     H33177   7.682   5.612   8.715  1.9319 -0.2561 -0.1227
  246MOL0     H33178   7.862   5.692   8.869 -2.6278 -1.9419 -0.7684
  246MOL0     H33179   7.911   5.679   8.699  0.7899 -1.3470  1.0265
  246MOL0     H33180   7.846   5.940   8.697  0.6942 -1.5163 -0.9363
  246MOL0     H33181   8.012   5.897   8.748  0.1569 -0.9259  2.3228
  246MOL0     H33182   7.768   5.925   8.938  0.9177 -0.5446  0.2298
  246MOL0     H33183   7.931   5.960   8.973  1.1229  1.6042 -0.1546
  246MOL0     H33184   7.831   6.169   8.965 -2.7416  1.3936 -0.4763
  246MOL0     H33185   7.734   6.137   8.830  0.1837 -0.4490 -1.6638
  246MOL0     H33186   8.044   6.172   8.821 -0.3349 -0.8241 -0.4220
  246MOL0     H33187   7.955   6.143   8.677  0.6380  0.9846 -0.9541
  246MOL0     H33188   7.930   6.385   8.868 -0.5327 -0.0921 -0.6701
  246MOL0     H33189   7.821   6.361   8.726 -0.4232 -1.1126  0.6507
  246MOL0     H33190   8.062   6.327   8.597  2.7561  3.3623 -2.5352
  246MOL0     H33191   8.125   6.409   8.734  0.0031  0.4257 -0.7483
  246MOL0     H33192   7.687   5.797   8.327  1.5363 -2.4779 -1.3215
  246MOL0     H33193   7.495   5.737   8.181  1.5452 -1.0217 -0.2398
  246MOL0     H33194   7.035   5.529   8.255 -0.7081  0.4478 -0.1572
  246MOL0     H33195   6.806   5.527   8.131  0.2277 -4.2010 -1.1426
  246MOL0     H33196   6.853   4.595   7.629 -1.3160 -1.7416 -1.7437
  246MOL0     H33197   7.082   4.657   7.562 -0.0435 -0.4239 -0.2467
  246MOL0     H33198   7.451   4.988   7.499 -0.7683 -1.5648  0.3513
  246MOL0     H33199   7.678   4.988   7.391  1.0104 -0.3884 -0.5001
  246MOL0     H33200   7.855   4.807   7.324  1.6936 -1.8859  0.0484
  246MOL0     H33201   7.790   4.700   7.204 -1.4752  1.5174  0.8297
  246MOL0     H33202   7.961   4.918   7.104  1.2475 -0.7948 -1.8601
  246MOL0     H33203   7.915   4.761   7.027  4.4310  0.3113 -1.6239
  246MOL0     H33204   8.027   4.649   7.222 -3.3339  0.5759 -1.3171
  246MOL0     H33205   8.111   4.805   7.247  0.4454 -0.9912  0.4555
  246MOL0     H33206   8.258   4.657   7.115  0.7469  0.0216 -1.4845
  246MOL0     H33207   8.226   4.807   7.043  3.0260 -1.5884 -0.8015
  246MOL0     H33208   8.084   4.519   6.763  0.9489 -0.0456  0.5375
  246MOL0     H33209   7.520   4.779   7.061 -4.7552  1.0486 -1.2816
  246MOL0     H33210   7.305   4.748   7.174  3.1584 -1.6875 -2.6750
  247MOL0     O33211   1.548   5.475   3.286  0.0076  0.2520  0.4003
  247MOL0     C33212   1.636   5.405   3.230 -0.2501 -0.4363 -0.8074
  247MOL0     O33213   1.620   5.322   3.126 -0.4676  0.4984  0.0331
  247MOL0     C33214   1.501   5.324   3.062 -0.3698  0.6558 -1.1490
  247MOL0     C33215   1.430   5.211   3.024  0.2674  0.9469  0.6634
  247MOL0     C33216   1.312   5.218   2.944  0.7292 -0.0842 -0.2266
  247MOL0     C33217   1.260   5.344   2.916  0.5235  0.7145 -0.8979
  247MOL0     O33218   1.140   5.344   2.846 -0.1374 -0.4319  0.2905
  247MOL0     C33219   1.067   5.465   2.828 -0.9780 -0.3881 -0.6295
  247MOL0     C33220   0.931   5.434   2.762  0.0021  0.0197  0.4732
  247MOL0     C33221   0.852   5.549   2.704  0.2516  0.2972  0.7654
  247MOL0     C33222   0.849   5.670   2.790  0.3212  0.1467 -0.1156
  247MOL0     C33223   0.858   5.795   2.697 -0.0043  0.1676 -0.4983
  247MOL0     C33224   0.795   5.802   2.555 -0.8862 -0.6686 -0.3040
  247MOL0     C33225   0.657   5.741   2.548 -1.0695  1.0325 -0.4558
  247MOL0     C33226   0.580   5.775   2.421  0.6277 -1.0915 -0.0375
  247MOL0     N33227   0.537   5.914   2.432  0.0943 -0.3141  0.1781
  247MOL0     C33228   0.452   5.970   2.523 -0.5722  0.6773 -0.3667
  247MOL0     C33229   0.440   6.100   2.492  0.2229 -1.0682 -0.0296
  247MOL0     C33230   0.362   6.204   2.560  0.7805 -0.1534 -1.0571
  247MOL0     C33231   0.248   6.243   2.475  0.0537  0.5830 -0.6855
  247MOL0     C33232   0.171   6.364   2.539 -0.2269 -0.4704  0.4366
  247MOL0     C33233   0.030   6.373   2.489 -0.3758  0.6431  0.2985
  247MOL0     O33234  -0.024   6.493   2.545 -0.4433 -0.6691 -0.6652
  247MOL0     C33235  -0.156   6.521   2.529 -0.1320 -0.1005 -0.2077
  247MOL0     C33236  -0.248   6.441   2.456 -0.0964  0.4946  0.2729
  247MOL0     C33237  -0.385   6.471   2.442  0.2044  0.6617  0.2855
  247MOL0     C33238  -0.473   6.395   2.350 -0.2700  0.4876 -0.5159
  247MOL0     C33239  -0.428   6.589   2.498 -0.4332 -0.6142 -0.5643
  247MOL0     C33240  -0.575   6.623   2.496 -0.3366  0.8663  1.0623
  247MOL0     O33241  -0.646   6.584   2.609 -0.6165  0.0126  0.0652
  247MOL0     C33242  -0.776   6.569   2.599  0.7115 -0.3032 -0.1598
  247MOL0     C33243  -0.848   6.686   2.595  0.5384 -0.8387  0.3473
  247MOL0     C33244  -0.988   6.676   2.564 -0.0053  0.2294  0.0673
  247MOL0     C33245  -1.056   6.554   2.552  0.2951  0.1988 -1.0351
  247MOL0     O33246  -1.186   6.546   2.512  0.2953  0.0786  0.4048
  247MOL0     C33247  -1.252   6.655   2.447  0.1961 -0.0250  0.4819
  247MOL0     C33248  -1.390   6.603   2.419  0.7724  1.1159 -0.5804
  247MOL0     C33249  -1.480   6.703   2.346 -0.2856  0.9034 -0.1736
  247MOL0     C33250  -1.608   6.629   2.301  0.0868  0.5780  0.5875
  247MOL0     C33251  -1.715   6.721   2.239  0.1842 -0.3768  0.5118
  247MOL0     C33252  -1.842   6.653   2.187  0.8176 -0.4574  0.4247
  247MOL0     C33253  -1.933   6.750   2.105  1.2453  0.3792 -0.3163
  247MOL0     C33254  -1.879   6.790   1.972 -0.1424  0.5568  0.2636
  247MOL0    Cl33255  -1.938   6.685   1.837  0.2752  0.0339 -0.0480
  247MOL0     C33256  -0.984   6.440   2.586  0.3124  0.5193 -0.2268
  247MOL0     C33257  -0.847   6.444   2.615 -0.7871 -1.0284  0.9120
  247MOL0     O33258  -0.622   6.668   2.394 -0.0403 -0.6188 -0.4928
  247MOL0     C33259  -0.341   6.671   2.568 -0.3834 -0.4085 -1.4941
  247MOL0     C33260  -0.207   6.648   2.580 -0.7161  0.4278  0.5385
  247MOL0     N33261   0.511   6.125   2.374 -0.1812  0.1711  0.2868
  247MOL0     N33262   0.572   6.011   2.344 -0.2018  0.3520  0.1844
  247MOL0     C33263   1.335   5.462   2.942  0.2939  0.0697  0.2790
  247MOL0     C33264   1.447   5.445   3.014 -0.4379 -0.7329 -1.0238
  247MOL0     C33265   1.776   5.405   3.295  0.5852 -0.1176  0.6206
  247MOL0     C33266   1.888   5.345   3.230 -0.3979  0.4472 -0.2029
  247MOL0     C33267   2.025   5.351   3.286  0.4296  0.5462  0.4763
  247MOL0     C33268   2.043   5.408   3.412 -0.9243 -0.6051  0.3263
  247MOL0     O33269   2.171   5.407   3.464  0.2222 -0.4427 -0.0837
  247MOL0     C33270   2.197   5.485   3.587 -0.0921  0.6406 -0.7311
  247MOL0     C33271   2.200   5.634   3.562  0.5224  0.2327  0.1860
  247MOL0     C33272   2.277   5.664   3.431  0.0485 -0.0420 -0.2779
  247MOL0     C33273   2.324   5.807   3.428  0.4137  0.9133  0.2364
  247MOL0     C33274   2.211   5.897   3.396 -0.5802  0.3732  0.1494
  247MOL0     C33275   2.132   5.987   3.382 -0.3857  0.0382 -0.8573
  247MOL0     C33276   1.930   5.464   3.468 -0.2021  0.1707 -0.0724
  247MOL0     C33277   1.807   5.461   3.411 -0.1648  0.4849 -0.8673
  247MOL0     H33278   1.478   5.114   3.026 -1.5450  0.0103  2.0764
  247MOL0     H33279   1.269   5.128   2.901 -1.2746  0.3124  0.7826
  247MOL0     H33280   1.050   5.503   2.930 -1.0427 -3.8720  0.7722
  247MOL0     H33281   1.123   5.531   2.761 -0.0013  0.5312  0.9984
  247MOL0     H33282   0.947   5.362   2.681  0.3569 -1.2886  1.6555
  247MOL0     H33283   0.868   5.371   2.826  0.9910 -0.8363  0.6321
  247MOL0     H33284   0.885   5.562   2.600 -2.8160  1.1105 -0.2250
  247MOL0     H33285   0.752   5.508   2.683  1.3202 -1.5638 -0.9873
  247MOL0     H33286   0.757   5.677   2.849  0.2362  2.6380 -0.4185
  247MOL0     H33287   0.924   5.670   2.869  1.2735  0.5438 -0.9962
  247MOL0     H33288   0.825   5.881   2.755  0.3354  0.5240 -0.8232
  247MOL0     H33289   0.964   5.817   2.680  0.2350 -1.3006 -1.1163
  247MOL0     H33290   0.793   5.909   2.535  2.6369 -0.4701 -0.3280
  247MOL0     H33291   0.859   5.749   2.483 -1.0939 -2.2585  0.6475
  247MOL0     H33292   0.669   5.632   2.547  0.5706  1.1049  2.3100
  247MOL0     H33293   0.607   5.768   2.642  2.1790  2.6609  0.9581
  247MOL0     H33294   0.489   5.714   2.422 -1.5478  1.9284  0.3563
  247MOL0     H33295   0.642   5.763   2.332 -1.6885  0.5183 -1.9999
  247MOL0     H33296   0.410   5.918   2.609  1.2627 -0.6935 -0.2385
  247MOL0     H33297   0.331   6.170   2.659 -0.9263 -2.2471 -2.2064
  247MOL0     H33298   0.420   6.293   2.584  0.0755 -0.0247  0.2566
  247MOL0     H33299   0.183   6.155   2.470 -0.6721  0.8412  2.2361
  247MOL0     H33300   0.279   6.261   2.372  2.4035  0.9771  0.0320
  247MOL0     H33301   0.208   6.464   2.513 -0.4773 -0.5514 -0.2726
  247MOL0     H33302   0.161   6.350   2.647 -3.9798  0.7414  0.4067
  247MOL0     H33303  -0.007   6.280   2.535  3.5075 -0.1710  2.1675
  247MOL0     H33304   0.011   6.358   2.382  0.8670 -2.8005  0.4379
  247MOL0     H33305  -0.218   6.348   2.408  1.2499 -0.8615  3.4612
  247MOL0     H33306  -0.483   6.461   2.263 -1.0308  2.3748  0.9355
  247MOL0     H33307  -0.436   6.295   2.323  1.8859  1.6101 -2.0392
  247MOL0     H33308  -0.570   6.380   2.397 -1.0097 -0.7687 -2.3135
  247MOL0     H33309  -0.799   6.783   2.597  1.1013 -0.9962 -2.1858
  247MOL0     H33310  -1.037   6.768   2.534 -1.7056 -1.8489 -4.4139
  247MOL0     H33311  -1.280   6.743   2.506 -1.3453  1.0275 -1.6746
  247MOL0     H33312  -1.201   6.673   2.352  0.1470  0.6191  0.5711
  247MOL0     H33313  -1.386   6.516   2.353 -0.3079  1.0785 -0.6147
  247MOL0     H33314  -1.432   6.563   2.512  0.1018 -1.8322 -2.0315
  247MOL0     H33315  -1.425   6.748   2.263  2.6106  0.2700  1.2578
  247MOL0     H33316  -1.502   6.792   2.405  1.2765  2.3444 -1.6403
  247MOL0     H33317  -1.583   6.555   2.225 -1.6632  0.1585  0.3902
  247MOL0     H33318  -1.646   6.570   2.385  1.2664 -1.3402 -0.1650
  247MOL0     H33319  -1.679   6.756   2.142 -0.0974  0.7357  0.7996
  247MOL0     H33320  -1.742   6.807   2.302 -0.3070  0.1243 -0.3673
  247MOL0     H33321  -1.817   6.569   2.121 -0.4507 -1.0514  0.6636
  247MOL0     H33322  -1.899   6.618   2.274 -2.8966  0.0358 -1.5739
  247MOL0     H33323  -1.945   6.842   2.163  4.3890  2.4992 -2.6784
  247MOL0     H33324  -2.036   6.715   2.090  1.1132 -0.1353  1.5804
  247MOL0     H33325  -1.770   6.798   1.967 -0.1354 -0.1503 -3.1187
  247MOL0     H33326  -1.918   6.889   1.945 -0.5326  0.2966 -0.1505
  247MOL0     H33327  -1.035   6.345   2.574 -1.0481  1.3854 -1.6431
  247MOL0     H33328  -0.793   6.350   2.628  1.7979  0.7583  5.6367
  247MOL0     H33329  -0.378   6.761   2.616  1.9496  0.0316 -0.3317
  247MOL0     H33330  -0.135   6.714   2.627  0.0524  1.7059 -2.2236
  247MOL0     H33331   1.288   5.559   2.928 -0.7098 -0.3346  0.7526
  247MOL0     H33332   1.494   5.540   3.037 -3.3090  0.7942 -1.0830
  247MOL0     H33333   1.874   5.305   3.130  3.0014  2.1214 -1.5113
  247MOL0     H33334   2.107   5.319   3.222  0.1465  2.3597 -0.8877
  247MOL0     H33335   2.130   5.451   3.667  2.0176 -2.8164 -0.2285
  247MOL0     H33336   2.296   5.455   3.624  0.1527  0.2063 -1.6970
  247MOL0     H33337   2.250   5.681   3.648 -1.2838  1.7557  0.4745
  247MOL0     H33338   2.097   5.671   3.554  0.0528 -1.1937 -0.7446
  247MOL0     H33339   2.216   5.648   3.342 -0.1942 -1.1296  0.0741
  247MOL0     H33340   2.366   5.600   3.431  0.5027  0.5527 -1.3435
  247MOL0     H33341   2.388   5.811   3.340 -0.9014  1.3458 -0.7395
  247MOL0     H33342   2.369   5.836   3.523 -1.3086 -0.9951  1.7428
  247MOL0     H33343   2.064   6.069   3.385 -1.0695 -0.5396  1.2543
  247MOL0     H33344   1.938   5.518   3.561  0.3364 -0.5229  0.2909
  247MOL0     H33345   1.721   5.496   3.467 -0.9484  1.4742 -2.6026
  248MOL0     O33346   8.191   7.221   9.537  0.5103 -0.5499  0.6246
  248MOL0     C33347   8.256   7.115   9.538 -0.3132  0.3889  0.4823
  248MOL0     O33348   8.207   6.992   9.528  0.3700 -1.1072 -0.0384
  248MOL0     C33349   8.068   6.984   9.506 -1.0111 -0.3026 -0.7226
  248MOL0     C33350   7.996   6.934   9.619 -0.1714  0.0635 -0.5046
  248MOL0     C33351   7.858   6.923   9.607 -0.7717  0.2862 -0.6558
  248MOL0     C33352   7.792   6.931   9.481  0.0959 -0.2902 -0.2191
  248MOL0     O33353   7.654   6.915   9.459 -0.2024  0.2101 -0.2608
  248MOL0     C33354   7.570   6.885   9.572 -0.3227 -0.4480 -0.1230
  248MOL0     C33355   7.424   6.861   9.522 -0.7670 -0.1838 -0.2756
  248MOL0     C33356   7.415   6.728   9.446  0.5907 -0.2355 -0.1150
  248MOL0     C33357   7.409   6.606   9.536  0.1085  0.3751 -0.1972
  248MOL0     C33358   7.410   6.481   9.443 -0.8125 -0.0448 -0.0217
  248MOL0     C33359   7.357   6.366   9.520  0.0370  0.9256 -0.3904
  248MOL0     C33360   7.410   6.233   9.476 -0.0853 -0.1994 -0.2695
  248MOL0     C33361   7.385   6.123   9.582  0.1308 -0.3023 -0.3640
  248MOL0     N33362   7.450   5.995   9.558  0.1952  0.2268 -0.2444
  248MOL0     C33363   7.393   5.882   9.605  0.2603 -0.0501 -0.0730
  248MOL0     C33364   7.478   5.784   9.563 -0.3295 -0.4937  0.7059
  248MOL0     C33365   7.475   5.632   9.581 -0.5835 -1.1718  0.4127
  248MOL0     C33366   7.337   5.590   9.625  0.1579  0.0108  0.1879
  248MOL0     C33367   7.315   5.442   9.643 -0.2154  0.5652 -0.2596
  248MOL0     C33368   7.312   5.372   9.507  0.9065 -0.3741  0.1119
  248MOL0     O33369   7.211   5.426   9.417  0.4238  0.3117 -0.0464
  248MOL0     C33370   7.088   5.365   9.396  0.0816  0.5445  0.2320
  248MOL0     C33371   7.036   5.256   9.469 -0.5427 -0.4331 -0.1486
  248MOL0     C33372   6.919   5.189   9.426 -0.3509  0.0067 -0.1088
  248MOL0     C33373   6.877   5.070   9.507  0.7253 -0.6449  0.4157
  248MOL0     C33374   6.844   5.240   9.318  0.3645  0.3233 -0.2125
  248MOL0     C33375   6.705   5.185   9.283 -0.8173  0.2463  0.4771
  248MOL0     O33376   6.679   5.196   9.150 -0.8346  0.0559 -1.6660
  248MOL0     C33377   6.568   5.146   9.096  1.6272  0.9144 -0.9025
  248MOL0     C33378   6.443   5.155   9.159  0.2122  0.9357 -0.6423
  248MOL0     C33379   6.329   5.108   9.091  0.2257 -0.1696  0.4747
  248MOL0     C33380   6.335   5.043   8.965 -0.4325 -0.2820 -0.7835
  248MOL0     O33381   6.232   4.992   8.888  0.8200  0.6937  0.5299
  248MOL0     C33382   6.102   5.001   8.955  0.0900  0.1485 -0.1510
  248MOL0     C33383   5.986   4.939   8.867  0.5273 -0.8878  0.7489
  248MOL0     C33384   5.860   4.935   8.960 -0.1448 -0.1684  0.8152
  248MOL0     C33385   5.805   5.078   8.982 -0.4850 -0.1672  0.1992
  248MOL0     C33386   5.668   5.052   9.033 -0.0766  0.2884 -0.1150
  248MOL0     C33387   5.587   5.187   9.051  0.7653 -0.2342 -0.4238
  248MOL0     C33388   5.436   5.168   9.046 -0.0105 -0.0155  0.3635
  248MOL0     C33389   5.384   5.100   9.181 -0.5048  0.2403  0.9337
  248MOL0    Cl33390   5.377   5.232   9.308 -0.3546 -0.8481  0.1187
  248MOL0     C33391   6.464   5.032   8.907 -0.0097 -0.3068  0.2430
  248MOL0     C33392   6.571   5.087   8.969 -0.1027  0.6230  0.3121
  248MOL0     O33393   6.636   5.131   9.368 -0.2985 -0.0964 -0.0293
  248MOL0     C33394   6.899   5.344   9.245 -0.6997 -0.1733 -0.1381
  248MOL0     C33395   7.015   5.416   9.283  0.5936  0.4704 -0.8076
  248MOL0     N33396   7.595   5.843   9.511  0.1079 -0.7995 -0.1343
  248MOL0     N33397   7.572   5.972   9.500  0.3744 -0.2383 -0.4148
  248MOL0     C33398   7.872   6.952   9.364  0.0215 -0.4550 -0.0995
  248MOL0     C33399   8.009   6.993   9.384  0.9708  1.4808  0.3251
  248MOL0     C33400   8.400   7.120   9.569  0.1500 -0.2567 -0.2932
  248MOL0     C33401   8.468   7.236   9.541  0.1679 -0.1936  0.1036
  248MOL0     C33402   8.603   7.242   9.564 -0.5889 -0.3213  0.0829
  248MOL0     C33403   8.678   7.131   9.600  0.2222  0.2673  0.0651
  248MOL0     O33404   8.811   7.147   9.615  0.4077 -0.1388  0.4052
  248MOL0     C33405   8.879   7.042   9.674  0.2424  0.3332  0.3003
  248MOL0     C33406   9.021   7.087   9.690 -0.4974 -0.9617  0.1089
  248MOL0     C33407   9.118   6.975   9.729 -1.5974  0.2648 -0.0099
  248MOL0     C33408   9.267   7.027   9.744 -0.5657  0.2766 -0.4159
  248MOL0     C33409   9.362   6.916   9.762 -0.0634  0.3791  0.1950
  248MOL0     C33410   9.435   6.823   9.775  0.5032  0.1303 -0.1302
  248MOL0     C33411   8.608   7.016   9.627  0.4197 -0.2546  0.3186
  248MOL0     C33412   8.471   7.004   9.618  0.3339  0.5666  1.1264
  248MOL0     H33413   8.045   6.926   9.715  0.1155 -0.6934 -0.7041
  248MOL0     H33414   7.805   6.896   9.698 -0.0322  0.4785 -0.1627
  248MOL0     H33415   7.608   6.792   9.615 -0.3983  0.4837  2.0801
  248MOL0     H33416   7.582   6.969   9.641 -1.5040 -2.3087  2.5424
  248MOL0     H33417   7.357   6.859   9.608  0.4866  1.1002  0.7747
  248MOL0     H33418   7.403   6.945   9.454  2.2134  1.4513  0.6400
  248MOL0     H33419   7.329   6.733   9.379 -0.4397 -0.6081  1.1267
  248MOL0     H33420   7.495   6.720   9.372 -0.5364  3.8634 -2.0791
  248MOL0     H33421   7.487   6.597   9.612  1.8301 -1.9824 -2.0937
  248MOL0     H33422   7.317   6.596   9.593 -0.8331 -1.6106 -1.9154
  248MOL0     H33423   7.347   6.488   9.353 -0.7071  0.2560 -0.0714
  248MOL0     H33424   7.507   6.462   9.398 -1.8255 -3.4492 -1.0904
  248MOL0     H33425   7.383   6.377   9.626 -0.4543 -1.9606  0.1213
  248MOL0     H33426   7.248   6.375   9.517  0.1792  4.5121  1.0198
  248MOL0     H33427   7.361   6.216   9.380  0.9430  1.4237 -1.1283
  248MOL0     H33428   7.519   6.227   9.466 -0.2413 -1.6519 -1.5325
  248MOL0     H33429   7.278   6.102   9.592  0.1703  0.3781  2.1569
  248MOL0     H33430   7.421   6.165   9.676  0.7553  0.5998 -0.9950
  248MOL0     H33431   7.303   5.868   9.664  0.6499  0.1338  0.5869
  248MOL0     H33432   7.499   5.587   9.484 -1.5516 -0.7942 -0.0127
  248MOL0     H33433   7.553   5.604   9.652  0.1508  0.6034  0.3422
  248MOL0     H33434   7.261   5.630   9.558 -2.5997 -1.8952  1.9875
  248MOL0     H33435   7.318   5.636   9.722  1.7978 -2.2189  1.6682
  248MOL0     H33436   7.219   5.423   9.691 -0.5622 -0.5033 -1.3272
  248MOL0     H33437   7.389   5.401   9.712  0.1957  4.8745  2.2197
  248MOL0     H33438   7.293   5.265   9.514 -0.9448 -0.1945 -1.2734
  248MOL0     H33439   7.405   5.386   9.451 -0.7606 -3.0419 -3.7909
  248MOL0     H33440   7.080   5.212   9.558 -1.1451  0.5286  0.6428
  248MOL0     H33441   6.807   5.109   9.583 -1.9966 -1.4573 -1.5245
  248MOL0     H33442   6.834   4.992   9.444 -0.2086 -0.3895  0.7052
  248MOL0     H33443   6.968   5.039   9.558  0.1839  0.2328  2.0156
  248MOL0     H33444   6.427   5.203   9.255 -3.4168 -0.1746 -0.5393
  248MOL0     H33445   6.235   5.122   9.144 -1.0957 -0.0053 -1.8043
  248MOL0     H33446   6.104   4.945   9.049  0.3465  1.3940  0.6119
  248MOL0     H33447   6.083   5.106   8.979 -2.2959  0.1355 -1.6822
  248MOL0     H33448   5.978   5.014   8.788 -2.5625 -0.7202  1.1123
  248MOL0     H33449   6.005   4.845   8.815 -2.3784 -0.7953 -0.6688
  248MOL0     H33450   5.887   4.892   9.057  2.4432 -0.7836 -0.0743
  248MOL0     H33451   5.786   4.871   8.912 -0.8292  0.9649  0.3117
  248MOL0     H33452   5.861   5.127   9.063 -2.9124 -0.6767  2.2995
  248MOL0     H33453   5.808   5.126   8.884 -0.8001  0.1975  0.3655
  248MOL0     H33454   5.665   4.997   9.127 -3.6964 -1.2218 -0.9455
  248MOL0     H33455   5.618   4.982   8.966  0.4103 -0.8023  0.6345
  248MOL0     H33456   5.617   5.249   9.136 -2.0393  3.1893 -1.6990
  248MOL0     H33457   5.616   5.248   8.965 -2.7738  0.7320 -1.0718
  248MOL0     H33458   5.424   5.091   8.970  3.4516  1.0606 -1.4905
  248MOL0     H33459   5.388   5.262   9.019 -0.1862  0.0448  0.8742
  248MOL0     H33460   5.460   5.028   9.213 -0.3648  0.7590  1.7749
  248MOL0     H33461   5.286   5.056   9.161  0.2652 -1.9018  1.4815
  248MOL0     H33462   6.450   4.985   8.810 -3.9931  0.5559  0.2500
  248MOL0     H33463   6.662   5.066   8.913 -0.8109  0.0556 -0.6453
  248MOL0     H33464   6.850   5.375   9.153 -1.2475 -2.0604 -0.5141
  248MOL0     H33465   7.055   5.499   9.227  1.7579  1.6307  1.5718
  248MOL0     H33466   7.832   6.968   9.264  1.1353  0.9872 -0.3455
  248MOL0     H33467   8.061   7.016   9.291 -0.3864 -1.2832 -1.2428
  248MOL0     H33468   8.409   7.325   9.525  2.2398  1.4912  1.3445
  248MOL0     H33469   8.655   7.337   9.564 -1.4161  0.1464 -0.7291
  248MOL0     H33470   8.841   6.997   9.766  2.2698 -1.9251  0.1131
  248MOL0     H33471   8.873   6.949   9.617 -1.5326  0.9498 -0.5939
  248MOL0     H33472   9.025   7.156   9.775 -0.1302  1.5257 -1.8096
  248MOL0     H33473   9.053   7.143   9.603  0.4332  0.1084  1.1086
  248MOL0     H33474   9.118   6.895   9.655 -1.6010 -2.0850  2.3876
  248MOL0     H33475   9.085   6.929   9.823 -0.3259  1.6383  1.1609
  248MOL0     H33476   9.292   7.088   9.831  1.3144 -1.1418  0.1228
  248MOL0     H33477   9.308   7.078   9.656  3.2664  1.4930  1.7984
  248MOL0     H33478   9.496   6.736   9.782 -1.1715 -1.1551 -0.9950
  248MOL0     H33479   8.656   6.923   9.657  1.8568  1.0433  2.2299
  248MOL0     H33480   8.439   6.903   9.639  1.6733 -0.4363 -1.2875
  249MOL0     O33481   5.601   1.029   1.840 -0.1678 -0.6896 -0.0600
  249MOL0     C33482   5.624   1.122   1.914 -0.6335 -0.2434 -0.3520
  249MOL0     O33483   5.539   1.220   1.949  0.3175  0.7018 -0.0172
  249MOL0     C33484   5.417   1.239   1.888 -0.1441 -1.2088  0.0231
  249MOL0     C33485   5.327   1.315   1.963  0.2059 -0.3478 -0.1091
  249MOL0     C33486   5.201   1.354   1.908 -0.5674  0.2538 -0.3002
  249MOL0     C33487   5.159   1.309   1.783 -0.2580  0.0866 -0.7269
  249MOL0     O33488   5.036   1.362   1.742  0.1832 -0.2291 -0.1848
  249MOL0     C33489   4.989   1.340   1.606 -0.9410 -0.2274 -0.1867
  249MOL0     C33490   4.869   1.426   1.574  0.3745  0.4121 -0.5095
  249MOL0     C33491   4.748   1.386   1.661 -0.8500 -0.0471  1.1718
  249MOL0     C33492   4.615   1.434   1.609  0.5218 -0.0082 -0.0923
  249MOL0     C33493   4.506   1.435   1.721  0.3626  0.3945  0.1640
  249MOL0     C33494   4.372   1.408   1.660  0.1697  0.4781 -0.0733
  249MOL0     C33495   4.263   1.452   1.753  0.0719  0.7582 -0.4595
  249MOL0     C33496   4.122   1.437   1.687  0.0338  0.2207  0.7414
  249MOL0     N33497   4.019   1.474   1.786 -0.0697 -0.2564  0.2604
  249MOL0     C33498   3.996   1.604   1.835 -0.0277 -0.3020 -0.6851
  249MOL0     C33499   3.892   1.592   1.928  0.6330 -0.9696  0.5018
  249MOL0     C33500   3.843   1.688   2.026 -0.1531  0.4030  0.2475
  249MOL0     C33501   3.693   1.699   2.026 -0.0168  0.3415  0.4306
  249MOL0     C33502   3.631   1.782   2.144 -0.0928 -0.4369 -0.3150
  249MOL0     C33503   3.472   1.789   2.134  0.2314  0.8254 -0.3425
  249MOL0     O33504   3.430   1.864   2.238 -0.2248 -0.5904 -0.6100
  249MOL0     C33505   3.302   1.916   2.219  0.3073  0.0437 -0.4876
  249MOL0     C33506   3.266   2.033   2.275 -0.0894  1.1589 -0.1205
  249MOL0     C33507   3.137   2.095   2.273  0.6134  0.0952  0.3648
  249MOL0     C33508   3.125   2.225   2.358 -0.4108 -0.6744  0.0376
  249MOL0     C33509   3.035   2.022   2.213  0.7244 -0.0156 -0.2348
  249MOL0     C33510   2.900   2.077   2.195  0.0041 -0.3818  0.6485
  249MOL0     O33511   2.834   2.039   2.087 -0.4476  0.1682  0.4159
  249MOL0     C33512   2.705   2.080   2.070  0.1576 -0.3700  0.2996
  249MOL0     C33513   2.613   1.983   2.064 -0.1568 -0.3563 -0.7419
  249MOL0     C33514   2.471   2.004   2.058 -0.3551 -0.7497 -0.6236
  249MOL0     C33515   2.426   2.139   2.041 -0.3936  0.7663 -0.7132
  249MOL0     O33516   2.301   2.185   2.026 -0.2622 -0.6031  0.1116
  249MOL0     C33517   2.203   2.085   1.988  0.0601  0.1637  0.6500
  249MOL0     C33518   2.066   2.140   1.976 -0.7621  0.3720 -0.0150
  249MOL0     C33519   2.010   2.161   2.119 -0.3389  0.4323  0.2024
  249MOL0     C33520   1.865   2.131   2.146 -0.4861 -1.1033 -0.1410
  249MOL0     C33521   1.811   2.170   2.284  0.0483 -0.2259  0.3818
  249MOL0     C33522   1.664   2.157   2.305  0.2240 -0.0884 -0.3441
  249MOL0     C33523   1.620   2.186   2.454  0.3995  0.0129  0.0339
  249MOL0     C33524   1.647   2.071   2.553  0.6195 -0.5921  0.0966
  249MOL0    Cl33525   1.550   1.932   2.491  0.0786 -0.0135  0.1371
  249MOL0     C33526   2.529   2.236   2.022  0.7001  1.2629 -0.2054
  249MOL0     C33527   2.666   2.210   2.045  0.6679 -0.4354 -0.5367
  249MOL0     O33528   2.850   2.132   2.284  0.3643 -0.1553 -0.9997
  249MOL0     C33529   3.062   1.897   2.155 -1.3083  0.0219  1.4777
  249MOL0     C33530   3.198   1.843   2.149  1.2595 -0.3027  0.0649
  249MOL0     N33531   3.864   1.457   1.936 -0.0556 -0.1844 -0.1289
  249MOL0     N33532   3.931   1.390   1.849  0.1165  0.2596  0.2722
  249MOL0     C33533   5.251   1.236   1.703 -0.7470  0.3839 -0.1381
  249MOL0     C33534   5.382   1.210   1.754  0.0592 -0.1293  0.5925
  249MOL0     C33535   5.743   1.112   1.989 -0.7179  0.0745 -1.5733
  249MOL0     C33536   5.792   1.225   2.064 -0.2941 -0.1711  0.6575
  249MOL0     C33537   5.921   1.222   2.128  0.4101  0.4034  0.2127
  249MOL0     C33538   5.991   1.105   2.132 -0.6309 -0.6314  0.5412
  249MOL0     O33539   6.109   1.108   2.200  0.1475  0.3886  0.0181
  249MOL0     C33540   6.186   0.986   2.216 -0.2473  0.3193 -0.0650
  249MOL0     C33541   6.286   1.011   2.326  0.6423  0.3774 -0.2850
  249MOL0     C33542   6.378   0.886   2.323  0.4369  0.4930  0.6945
  249MOL0     C33543   6.490   0.908   2.423  0.4812 -0.1523  0.5279
  249MOL0     C33544   6.576   0.785   2.415 -0.6019  0.1141 -0.1583
  249MOL0     C33545   6.637   0.682   2.407 -0.2484  0.8012  0.1102
  249MOL0     C33546   5.951   1.002   2.059 -0.3447  1.0030  0.1304
  249MOL0     C33547   5.832   1.000   1.981  1.2521  0.5793 -0.2884
  249MOL0     H33548   5.342   1.351   2.065 -3.9110 -1.5971  1.1179
  249MOL0     H33549   5.134   1.423   1.958 -0.3266 -0.5905  1.2567
  249MOL0     H33550   5.066   1.371   1.535 -0.7232 -2.6855 -1.1180
  249MOL0     H33551   4.969   1.233   1.594 -1.2169 -0.2154  0.1600
  249MOL0     H33552   4.900   1.528   1.598 -2.4615  0.3913  4.7220
  249MOL0     H33553   4.842   1.417   1.468  1.6152  1.8899 -0.9881
  249MOL0     H33554   4.744   1.278   1.645  0.9433 -0.0081  0.1890
  249MOL0     H33555   4.766   1.416   1.765 -1.2064  1.0324  0.9267
  249MOL0     H33556   4.634   1.538   1.583 -1.6180  0.2957 -0.6052
  249MOL0     H33557   4.579   1.378   1.523 -0.0804  0.2949 -0.0398
  249MOL0     H33558   4.520   1.362   1.801 -1.0573 -1.3367 -1.1028
  249MOL0     H33559   4.506   1.535   1.765  0.1264  0.7912 -0.7068
  249MOL0     H33560   4.375   1.471   1.570 -1.0697 -0.7254 -1.0127
  249MOL0     H33561   4.358   1.303   1.632  1.6411  0.2723 -0.0955
  249MOL0     H33562   4.269   1.373   1.829 -0.8998 -0.7966 -1.9224
  249MOL0     H33563   4.263   1.555   1.789 -0.8966  0.6204 -0.0192
  249MOL0     H33564   4.108   1.330   1.669  1.3470 -0.2182  2.2036
  249MOL0     H33565   4.127   1.487   1.589  2.7881 -1.8292 -0.3019
  249MOL0     H33566   4.063   1.686   1.812 -1.1171  0.7442 -0.2503
  249MOL0     H33567   3.885   1.652   2.120 -1.4215 -1.6643  0.0912
  249MOL0     H33568   3.876   1.785   1.986 -0.2988 -0.4831 -2.1922
  249MOL0     H33569   3.639   1.605   2.039 -3.3527  1.6640 -2.1968
  249MOL0     H33570   3.658   1.729   1.927 -3.9132 -0.3965  1.4227
  249MOL0     H33571   3.673   1.883   2.137 -3.6707  1.0680 -2.4181
  249MOL0     H33572   3.652   1.738   2.242  1.5912 -1.1228 -0.9507
  249MOL0     H33573   3.433   1.686   2.135  1.0351  0.5150 -0.4006
  249MOL0     H33574   3.442   1.844   2.044 -1.5282 -1.4166 -1.2430
  249MOL0     H33575   3.340   2.086   2.334 -0.8688 -1.5541  3.7636
  249MOL0     H33576   3.197   2.221   2.441 -0.0738  0.1078 -0.2067
  249MOL0     H33577   3.143   2.308   2.290  1.4777 -2.0533 -1.2265
  249MOL0     H33578   3.032   2.243   2.414  0.7439 -0.4966  2.0012
  249MOL0     H33579   2.656   1.883   2.061  7.6637  2.2782 -1.1612
  249MOL0     H33580   2.404   1.920   2.072 -0.0692 -0.7148  1.1293
  249MOL0     H33581   2.212   2.051   1.885 -0.4055  0.9584  0.3355
  249MOL0     H33582   2.215   2.009   2.066 -0.3975  1.3656  1.9428
  249MOL0     H33583   2.069   2.236   1.925 -0.0990  0.3002 -0.1205
  249MOL0     H33584   2.002   2.077   1.913  0.9592  0.2420 -1.7308
  249MOL0     H33585   2.020   2.266   2.148 -0.5246 -0.5848  4.6670
  249MOL0     H33586   2.082   2.114   2.187  3.0030  0.4965 -2.9783
  249MOL0     H33587   1.800   2.183   2.075  0.1110 -0.7704 -0.4473
  249MOL0     H33588   1.850   2.024   2.125 -0.5103 -1.5787  2.0398
  249MOL0     H33589   1.835   2.274   2.308  1.2886 -0.2084 -0.8429
  249MOL0     H33590   1.867   2.110   2.355 -0.0925  0.8965  1.4727
  249MOL0     H33591   1.613   2.234   2.246 -0.8639  0.3052  1.0498
  249MOL0     H33592   1.623   2.060   2.275 -0.8102  0.9329 -2.5292
  249MOL0     H33593   1.511   2.197   2.443  0.4281  0.2739 -0.0021
  249MOL0     H33594   1.654   2.284   2.489 -0.5193 -0.5896  2.9471
  249MOL0     H33595   1.619   2.100   2.654 -0.1229  0.9813 -0.5358
  249MOL0     H33596   1.754   2.049   2.547  0.5271 -0.8257 -0.8855
  249MOL0     H33597   2.494   2.335   1.995 -0.1398  0.5220 -2.0493
  249MOL0     H33598   2.737   2.292   2.047 -1.4936  1.5411 -1.1554
  249MOL0     H33599   2.989   1.844   2.095 -0.9063  1.6423 -0.5673
  249MOL0     H33600   3.209   1.745   2.105 -2.4472 -0.9081  0.1775
  249MOL0     H33601   5.238   1.217   1.597 -0.0061  1.0297 -0.3600
  249MOL0     H33602   5.449   1.158   1.686 -0.8657 -0.7962  0.1716
  249MOL0     H33603   5.743   1.319   2.084 -1.6037 -0.5173 -0.7302
  249MOL0     H33604   5.943   1.304   2.196  1.2380 -1.5609  2.4524
  249MOL0     H33605   6.125   0.899   2.244 -0.8525  1.5525  2.9084
  249MOL0     H33606   6.241   0.959   2.126 -3.7187 -3.8189 -1.3060
  249MOL0     H33607   6.239   1.030   2.423  2.0042 -1.8583  0.8980
  249MOL0     H33608   6.350   1.098   2.308  0.1907  1.3409  2.3435
  249MOL0     H33609   6.423   0.879   2.224  1.1043 -1.2406  1.0776
  249MOL0     H33610   6.323   0.792   2.335 -0.8404  0.9799 -1.1218
  249MOL0     H33611   6.448   0.907   2.524 -0.9370  0.1435 -0.0342
  249MOL0     H33612   6.545   0.999   2.397  1.8273 -1.7890 -3.0067
  249MOL0     H33613   6.687   0.587   2.405 -4.3402 -1.6808  1.5891
  249MOL0     H33614   6.008   0.910   2.052 -2.6601 -0.4759 -0.4271
  249MOL0     H33615   5.795   0.919   1.919 -2.0105  1.5911  0.1559
  250MOL0     O33616   2.602  10.330  11.295  0.0008 -0.1590 -0.5027
  250MOL0     C33617   2.719  10.316  11.333  0.3460  0.2531  0.4416
  250MOL0     O33618   2.761  10.258  11.442  0.3856 -0.0622  0.7603
  250MOL0     C33619   2.664  10.223  11.532  0.8279 -0.6798 -0.7518
  250MOL0     C33620   2.653  10.285  11.663  0.2990 -0.1368 -0.6572
  250MOL0     C33621   2.539  10.259  11.743  0.3411 -0.5883 -0.2743
  250MOL0     C33622   2.441  10.173  11.692  0.1726  0.3173 -0.0135
  250MOL0     O33623   2.337  10.159  11.781  0.3889  0.1917  0.8453
  250MOL0     C33624   2.218  10.140  11.714  0.4565 -0.3797  0.6500
  250MOL0     C33625   2.095  10.170  11.794  1.0727 -0.5117 -0.4753
  250MOL0     C33626   1.966  10.194  11.712 -0.6101  0.5518 -0.1660
  250MOL0     C33627   1.898  10.068  11.643 -0.0640 -0.3968  0.4684
  250MOL0     C33628   1.751  10.097  11.631  0.2836  0.0799 -0.3433
  250MOL0     C33629   1.666  10.023  11.529 -0.0639 -0.2465 -0.0431
  250MOL0     C33630   1.512  10.044  11.543 -0.2518 -0.5715 -0.4336
  250MOL0     C33631   1.473  10.193  11.534  0.5130 -0.1409  0.5547
  250MOL0     N33632   1.324  10.211  11.532  0.1577  0.0334 -0.5558
  250MOL0     C33633   1.235  10.166  11.430  0.3639  0.3128 -0.1029
  250MOL0     C33634   1.122  10.228  11.464 -0.8288 -0.1779 -0.0910
  250MOL0     C33635   0.994  10.198  11.402 -0.1277 -0.8513 -0.1890
  250MOL0     C33636   0.987  10.260  11.254 -0.5836  0.0022  0.4431
  250MOL0     C33637   0.847  10.243  11.190 -0.5251  0.1123 -0.6470
  250MOL0     C33638   0.734  10.294  11.268 -0.2460  0.3383  0.3358
  250MOL0     O33639   0.618  10.311  11.185 -0.2712 -1.1536  0.4958
  250MOL0     C33640   0.497  10.321  11.254  0.0574  0.0271 -0.0270
  250MOL0     C33641   0.469  10.281  11.386 -0.0966 -0.0613  0.1463
  250MOL0     C33642   0.337  10.287  11.440 -0.6934  0.6269  0.4882
  250MOL0     C33643   0.325  10.253  11.584 -0.0645  0.3695  0.5704
  250MOL0     C33644   0.232  10.322  11.358 -0.4185  0.2818  0.0416
  250MOL0     C33645   0.093  10.293  11.397 -0.9841 -0.0061  0.3181
  250MOL0     O33646   0.019  10.274  11.283  0.3139  0.1966 -0.7920
  250MOL0     C33647  -0.121  10.283  11.278 -0.6943  0.4075  0.1902
  250MOL0     C33648  -0.176  10.327  11.157 -0.1111 -0.2815 -0.0917
  250MOL0     C33649  -0.303  10.369  11.138 -0.7427  0.1108  0.6625
  250MOL0     C33650  -0.398  10.365  11.241  0.3558  0.3078 -0.2405
  250MOL0     O33651  -0.525  10.412  11.231 -0.5416 -0.7016 -0.3032
  250MOL0     C33652  -0.594  10.444  11.111  0.0915  0.5319  0.7203
  250MOL0     C33653  -0.709  10.339  11.094 -0.3855 -0.4260  0.3096
  250MOL0     C33654  -0.814  10.328  11.212  0.5106 -0.8271  0.0051
  250MOL0     C33655  -0.914  10.226  11.176  0.1350 -0.4560  0.3029
  250MOL0     C33656  -1.044  10.230  11.266 -0.2708  0.5382 -0.4670
  250MOL0     C33657  -1.128  10.103  11.253 -0.0959 -0.4141 -0.9781
  250MOL0     C33658  -1.261  10.113  11.334  0.1632 -1.0292  0.0644
  250MOL0     C33659  -1.295   9.975  11.374 -0.4618  0.4195  0.3810
  250MOL0    Cl33660  -1.346   9.874  11.240  0.3081  0.3389 -0.4309
  250MOL0     C33661  -0.348  10.309  11.361  0.3332  0.4683  0.0887
  250MOL0     C33662  -0.215  10.263  11.376 -0.5070  0.1293  0.9901
  250MOL0     O33663   0.051  10.318  11.513 -0.5950 -0.1449  0.3660
  250MOL0     C33664   0.258  10.363  11.227  0.2581  0.0321  1.0944
  250MOL0     C33665   0.388  10.359  11.180  0.0229 -0.2860  0.5079
  250MOL0     N33666   1.138  10.303  11.579  0.0855  0.4182 -0.4495
  250MOL0     N33667   1.258  10.285  11.619 -0.1144 -0.2871 -0.4431
  250MOL0     C33668   2.458  10.106  11.570  0.0584  0.1422  0.2767
  250MOL0     C33669   2.559  10.137  11.490  0.3092 -0.8419 -0.4607
  250MOL0     C33670   2.827  10.362  11.240 -0.1245  0.0211  0.3007
  250MOL0     C33671   2.798  10.383  11.102 -1.1241 -0.8874 -0.7946
  250MOL0     C33672   2.891  10.406  11.011  0.3361  0.1954  0.3182
  250MOL0     C33673   3.023  10.410  11.043 -0.4555  0.6441  0.8275
  250MOL0     O33674   3.128  10.433  10.956  0.5464  0.8135 -0.2690
  250MOL0     C33675   3.130  10.382  10.823 -0.3666 -0.1647  0.4293
  250MOL0     C33676   3.192  10.243  10.826  0.7216 -0.3065  0.1344
  250MOL0     C33677   3.343  10.244  10.864 -0.1150  0.3441 -0.4823
  250MOL0     C33678   3.389  10.100  10.888  0.4254  0.5827  0.0832
  250MOL0     C33679   3.519  10.108  10.955 -0.1387 -0.1351 -0.2254
  250MOL0     C33680   3.605  10.117  11.046 -0.0732  0.2736 -0.9503
  250MOL0     C33681   3.059  10.392  11.177  0.3465  0.0833 -0.5635
  250MOL0     C33682   2.965  10.362  11.277 -0.3567  0.2081  0.4474
  250MOL0     H33683   2.733  10.348  11.703  0.4725 -1.4750  1.2299
  250MOL0     H33684   2.523  10.316  11.833  2.7175  2.6350 -1.6949
  250MOL0     H33685   2.205  10.217  11.636  0.1232  2.0704  2.9800
  250MOL0     H33686   2.209  10.042  11.667  0.9021  0.4587 -1.3137
  250MOL0     H33687   2.079  10.089  11.866  2.9987 -2.0779 -1.6883
  250MOL0     H33688   2.100  10.269  11.839 -2.5781 -1.5816  2.8904
  250MOL0     H33689   1.892  10.224  11.786  1.0201 -1.2275  2.3394
  250MOL0     H33690   1.979  10.272  11.637 -2.2910 -1.8553 -3.2179
  250MOL0     H33691   1.937  10.068  11.540 -3.2112  0.1829 -0.8357
  250MOL0     H33692   1.911   9.977  11.702 -3.0094 -1.3946 -0.2911
  250MOL0     H33693   1.701  10.083  11.728  0.2215  0.4970 -0.3136
  250MOL0     H33694   1.746  10.200  11.595 -0.0916 -0.0040 -0.5411
  250MOL0     H33695   1.702  10.057  11.431  4.1340  0.3302  1.4646
  250MOL0     H33696   1.684   9.916  11.542  1.2128 -0.2948 -1.7880
  250MOL0     H33697   1.459   9.989  11.465  1.6274  1.2573 -3.1657
  250MOL0     H33698   1.483  10.001  11.639  0.7800  1.1195  0.7044
  250MOL0     H33699   1.521  10.236  11.446 -0.2188  3.3688  1.7028
  250MOL0     H33700   1.520  10.260  11.607  0.9594  0.9933 -0.7195
  250MOL0     H33701   1.259  10.111  11.340 -1.2236  0.7001 -0.8023
  250MOL0     H33702   0.982  10.089  11.396  0.9379 -1.1379  1.9505
  250MOL0     H33703   0.914  10.237  11.464  1.7973  0.4223  1.6030
  250MOL0     H33704   1.060  10.206  11.192 -0.3448 -2.8095  2.9274
  250MOL0     H33705   1.012  10.366  11.261 -1.7002  0.3117 -0.0312
  250MOL0     H33706   0.828  10.137  11.168 -0.5178  0.1272 -0.7217
  250MOL0     H33707   0.841  10.295  11.095 -3.5722  2.1584  0.5127
  250MOL0     H33708   0.754  10.388  11.322 -0.2224  0.7813 -0.4218
  250MOL0     H33709   0.711  10.226  11.350 -1.2909  2.3782  1.8346
  250MOL0     H33710   0.550  10.249  11.451 -0.9543 -0.5028  1.0266
  250MOL0     H33711   0.261  10.165  11.592 -1.7287  1.6370  1.5215
  250MOL0     H33712   0.422  10.222  11.625  0.3087  0.1212 -0.4565
  250MOL0     H33713   0.280  10.323  11.654  0.7335 -0.3328  1.8194
  250MOL0     H33714  -0.108  10.351  11.076  0.4060 -1.1092  0.0939
  250MOL0     H33715  -0.313  10.424  11.045  0.0902 -1.0609 -0.1506
  250MOL0     H33716  -0.641  10.543  11.118 -2.1034 -0.5256  1.9989
  250MOL0     H33717  -0.530  10.433  11.023 -1.0781 -1.4572  0.0603
  250MOL0     H33718  -0.767  10.376  11.009 -2.0338 -0.0140  1.5730
  250MOL0     H33719  -0.670  10.241  11.065  2.5407  0.7250 -0.0205
  250MOL0     H33720  -0.865  10.424  11.220 -0.7924 -1.1085 -3.3376
  250MOL0     H33721  -0.766  10.310  11.309 -0.5587 -1.2858  0.4663
  250MOL0     H33722  -0.942  10.239  11.071 -1.1480  1.4463  0.8192
  250MOL0     H33723  -0.865  10.131  11.197  0.4128 -0.4113 -0.1277
  250MOL0     H33724  -1.107  10.317  11.245 -0.7543 -0.2438 -2.4702
  250MOL0     H33725  -1.013  10.239  11.370  0.7753  0.5740 -0.7647
  250MOL0     H33726  -1.154  10.096  11.147  0.5529  0.4883 -1.2064
  250MOL0     H33727  -1.074  10.012  11.281  0.3785  0.2795  0.4461
  250MOL0     H33728  -1.345  10.145  11.271 -1.1337 -1.7374  1.3479
  250MOL0     H33729  -1.260  10.178  11.422 -1.4009 -2.0428  0.8933
  250MOL0     H33730  -1.369   9.987  11.454  0.4210 -0.2592  1.3192
  250MOL0     H33731  -1.208   9.932  11.425  0.9635  1.6990 -0.8778
  250MOL0     H33732  -0.415  10.297  11.446  1.6229 -0.1806  1.0597
  250MOL0     H33733  -0.177  10.226  11.470  3.4422  1.0756 -0.0535
  250MOL0     H33734   0.185  10.380  11.149  2.1022 -0.2811 -0.7821
  250MOL0     H33735   0.403  10.375  11.074 -4.1079  2.6803  0.1100
  250MOL0     H33736   2.381  10.034  11.544 -0.3503  1.6484 -3.2382
  250MOL0     H33737   2.569  10.089  11.394  0.9583  0.5304 -1.1140
  250MOL0     H33738   2.696  10.379  11.063 -1.3882 -0.2940 -0.2012
  250MOL0     H33739   2.867  10.426  10.907 -0.3949 -0.9357  0.2423
  250MOL0     H33740   3.027  10.368  10.788 -0.1101 -1.3823  0.1165
  250MOL0     H33741   3.187  10.453  10.763  1.3874 -1.0432  0.9863
  250MOL0     H33742   3.195  10.214  10.721  0.5047  1.0172 -0.2601
  250MOL0     H33743   3.130  10.170  10.878  1.1021 -1.0028 -0.3804
  250MOL0     H33744   3.362  10.305  10.953 -0.3269 -1.7349  1.0747
  250MOL0     H33745   3.411  10.283  10.788  1.2990  0.9582  1.0138
  250MOL0     H33746   3.390  10.048  10.792  1.1108  0.4876  0.1418
  250MOL0     H33747   3.326  10.043  10.957  0.0974  0.3989 -0.3656
  250MOL0     H33748   3.677  10.124  11.125 -1.8406 -1.2585  0.8810
  250MOL0     H33749   3.161  10.397  11.212 -0.4240 -0.6553  2.0228
  250MOL0     H33750   2.987  10.333  11.379  2.9974  0.7759  0.0028
  251MOL0     O33751   3.332  10.726   8.610  0.2195 -0.1338 -0.1179
  251MOL0     C33752   3.381  10.831   8.566 -0.0436 -0.7532 -0.3345
  251MOL0     O33753   3.511  10.879   8.580  0.0301  0.6012  0.4887
  251MOL0     C33754   3.601  10.805   8.662  0.5375 -0.0830  0.0123
  251MOL0     C33755   3.729  10.785   8.621 -0.1155  0.2787  0.5016
  251MOL0     C33756   3.831  10.734   8.711  0.8376 -1.0399 -0.1914
  251MOL0     C33757   3.797  10.694   8.837  0.2917 -0.3059 -0.8748
  251MOL0     O33758   3.889  10.656   8.936 -0.2330  0.6998 -0.6001
  251MOL0     C33759   4.027  10.648   8.902 -0.0736  0.4771 -0.5103
  251MOL0     C33760   4.105  10.597   9.025  0.3039  0.5605  0.0184
  251MOL0     C33761   4.259  10.572   8.998 -0.5668  0.1651  0.0787
  251MOL0     C33762   4.317  10.524   9.132 -0.7211 -0.3709 -0.0230
  251MOL0     C33763   4.482  10.530   9.127 -0.1347 -0.0130  0.4131
  251MOL0     C33764   4.544  10.406   9.051 -0.0692 -0.3521 -0.2572
  251MOL0     C33765   4.699  10.414   9.058  0.5431  0.7568 -0.1918
  251MOL0     C33766   4.752  10.360   9.185  0.0110 -0.4390 -0.0114
  251MOL0     N33767   4.901  10.353   9.169 -1.2106  0.8797  0.5598
  251MOL0     C33768   4.989  10.463   9.164  0.1892  0.4368 -0.2081
  251MOL0     C33769   5.115  10.408   9.162  1.6900  0.1070  0.1174
  251MOL0     C33770   5.249  10.479   9.157 -0.1040  0.2627  0.1274
  251MOL0     C33771   5.318  10.492   9.013  0.6725 -0.1242 -0.7677
  251MOL0     C33772   5.218  10.547   8.916  0.2017 -0.2254  0.0942
  251MOL0     C33773   5.165  10.697   8.935 -0.2159 -0.6537 -0.1012
  251MOL0     O33774   5.041  10.718   8.861  0.1101  0.7377 -1.0036
  251MOL0     C33775   4.999  10.843   8.860  0.6210 -0.1539 -0.0599
  251MOL0     C33776   5.071  10.964   8.885  0.7651  0.4975 -0.7009
  251MOL0     C33777   5.010  11.087   8.888 -0.4393  1.2765  0.1350
  251MOL0     C33778   5.098  11.209   8.903 -0.0735 -0.7550 -0.1934
  251MOL0     C33779   4.870  11.093   8.878 -0.2277 -0.3693  0.6880
  251MOL0     C33780   4.790  11.213   8.901 -0.4910 -0.2294  0.0909
  251MOL0     O33781   4.667  11.207   8.966 -0.1656  0.1085 -0.2039
  251MOL0     C33782   4.570  11.308   8.977  0.8526 -0.0026 -0.2013
  251MOL0     C33783   4.553  11.417   8.896 -0.1888 -0.5998  0.3189
  251MOL0     C33784   4.446  11.505   8.924 -1.1914 -0.4268 -0.0186
  251MOL0     C33785   4.360  11.483   9.033  0.0530  0.4685 -0.3181
  251MOL0     O33786   4.263  11.578   9.057  0.2596  0.5222  0.7734
  251MOL0     C33787   4.135  11.526   9.098 -0.1658 -0.1219 -0.0215
  251MOL0     C33788   4.041  11.630   9.099  0.0981 -0.6051 -0.0334
  251MOL0     C33789   3.891  11.593   9.108  0.5956 -1.0074 -0.2786
  251MOL0     C33790   3.800  11.702   9.164 -0.7034 -0.2472 -0.7202
  251MOL0     C33791   3.658  11.652   9.193  0.2771 -0.1854 -0.2258
  251MOL0     C33792   3.582  11.617   9.059  0.1517 -0.1842  0.2314
  251MOL0     C33793   3.538  11.757   8.992  0.7220 -0.3453 -0.7781
  251MOL0     C33794   3.406  11.724   8.910 -0.3545 -0.0589 -0.3402
  251MOL0    Cl33795   3.404  11.849   8.784 -0.4551 -0.0737  0.0444
  251MOL0     C33796   4.376  11.363   9.101  0.0896 -0.8017 -0.4982
  251MOL0     C33797   4.475  11.270   9.077  0.6899 -0.0293 -0.1490
  251MOL0     O33798   4.839  11.314   8.852  0.3893  0.0019  0.0917
  251MOL0     C33799   4.796  10.980   8.846 -0.6764  0.2175 -0.4118
  251MOL0     C33800   4.864  10.856   8.842  0.2506 -0.3316 -0.5080
  251MOL0     N33801   5.102  10.271   9.156 -0.5246 -0.0583  0.0508
  251MOL0     N33802   4.979  10.237   9.171 -0.0633 -0.7229  0.4504
  251MOL0     C33803   3.660  10.705   8.880  0.5191  0.5767  0.6738
  251MOL0     C33804   3.564  10.759   8.793  0.2106 -0.7678  0.5918
  251MOL0     C33805   3.294  10.928   8.489 -0.8578  0.0211 -0.8893
  251MOL0     C33806   3.153  10.920   8.498 -0.0547 -0.1283 -0.2686
  251MOL0     C33807   3.066  11.002   8.421  0.0515 -0.2709 -0.6913
  251MOL0     C33808   3.122  11.101   8.339  0.0038 -0.0607  0.1355
  251MOL0     O33809   3.043  11.168   8.245 -0.3189 -0.6794 -0.6804
  251MOL0     C33810   3.013  11.310   8.277  0.7043 -0.2396 -0.8137
  251MOL0     C33811   2.892  11.362   8.195  0.6947  0.2508 -0.2940
  251MOL0     C33812   2.763  11.284   8.219  0.5292 -0.5441  0.4443
  251MOL0     C33813   2.729  11.294   8.372  0.1869  0.1298 -0.1037
  251MOL0     C33814   2.691  11.434   8.404 -0.3567  0.0898 -0.7403
  251MOL0     C33815   2.675  11.559   8.423  0.3570 -0.9135 -0.1118
  251MOL0     C33816   3.256  11.116   8.337 -0.5697 -0.5883 -0.2974
  251MOL0     C33817   3.344  11.036   8.412 -0.3620 -0.2783 -0.2472
  251MOL0     H33818   3.766  10.822   8.527  0.4404  0.1717  0.6764
  251MOL0     H33819   3.932  10.739   8.671  0.4112  1.7901 -1.1134
  251MOL0     H33820   4.042  10.577   8.819  1.5311  1.4148 -1.0582
  251MOL0     H33821   4.063  10.745   8.866 -0.4220  0.1519 -1.8065
  251MOL0     H33822   4.097  10.671   9.105  0.0738 -1.0861  1.5946
  251MOL0     H33823   4.052  10.507   9.056  0.6256  1.2661  2.9170
  251MOL0     H33824   4.276  10.492   8.926 -2.7883 -1.0197  0.7642
  251MOL0     H33825   4.301  10.661   8.950 -2.2396  1.6835  1.2732
  251MOL0     H33826   4.288  10.599   9.207  0.0241  1.8448 -1.8284
  251MOL0     H33827   4.280  10.423   9.151 -2.0776 -0.4937 -2.7881
  251MOL0     H33828   4.504  10.618   9.066  2.7279  0.5611  2.0580
  251MOL0     H33829   4.524  10.540   9.227  2.5645 -1.4198 -0.4712
  251MOL0     H33830   4.495  10.313   9.079 -1.7201  0.7477  0.6477
  251MOL0     H33831   4.521  10.407   8.944  1.3381 -2.4782 -0.6455
  251MOL0     H33832   4.740  10.363   8.970 -2.2383  3.7691 -3.5314
  251MOL0     H33833   4.737  10.516   9.056 -1.0563  1.3812 -1.9888
  251MOL0     H33834   4.706  10.264   9.210  2.2742 -1.2623  1.2625
  251MOL0     H33835   4.735  10.432   9.265 -1.0223 -1.1130  0.3925
  251MOL0     H33836   4.944  10.561   9.161 -0.1048  0.4094  1.7779
  251MOL0     H33837   5.238  10.576   9.204 -0.6561 -0.4287  1.4763
  251MOL0     H33838   5.314  10.419   9.220 -0.2325 -0.8943 -0.7853
  251MOL0     H33839   5.368  10.397   8.993 -1.0237 -2.0989  3.1576
  251MOL0     H33840   5.398  10.566   9.022 -0.7393  1.2376  1.8875
  251MOL0     H33841   5.130  10.484   8.903  0.3953 -0.4991  0.1016
  251MOL0     H33842   5.268  10.550   8.819  1.0955  0.5864  0.5632
  251MOL0     H33843   5.239  10.768   8.897 -2.2655  2.1283  0.7415
  251MOL0     H33844   5.153  10.720   9.041  0.7825 -0.3463 -0.0427
  251MOL0     H33845   5.179  10.970   8.896  0.4476  5.0286  2.4959
  251MOL0     H33846   5.084  11.270   8.813 -0.8178 -2.5689 -1.3611
  251MOL0     H33847   5.077  11.267   8.993 -0.7530 -0.5768 -0.4667
  251MOL0     H33848   5.205  11.184   8.897  0.6531  2.2308 -2.3725
  251MOL0     H33849   4.625  11.439   8.817 -0.8876  0.7906  0.0369
  251MOL0     H33850   4.444  11.593   8.861 -2.9060  0.7430  1.5555
  251MOL0     H33851   4.105  11.449   9.026 -2.4702 -0.1710  0.8870
  251MOL0     H33852   4.135  11.477   9.196 -0.3546 -0.3980 -0.1575
  251MOL0     H33853   4.074  11.711   9.164 -3.3345 -0.9845  2.4489
  251MOL0     H33854   4.048  11.679   9.002  1.5831  0.9488  0.7890
  251MOL0     H33855   3.871  11.496   9.155 -0.3471  0.2625  2.1481
  251MOL0     H33856   3.862  11.580   9.004  1.4233 -1.8273 -0.4241
  251MOL0     H33857   3.846  11.735   9.258 -3.5722  1.1617  0.3196
  251MOL0     H33858   3.810  11.791   9.101  1.0389  0.7043  0.7861
  251MOL0     H33859   3.595  11.725   9.245  0.2352 -1.0813  1.0205
  251MOL0     H33860   3.668  11.571   9.265 -2.4111  0.8813  1.5007
  251MOL0     H33861   3.635  11.545   8.996 -1.9332 -1.6265  0.0651
  251MOL0     H33862   3.498  11.555   9.088  0.9890 -2.1391 -1.2990
  251MOL0     H33863   3.608  11.787   8.914 -1.4167 -3.0315 -4.0049
  251MOL0     H33864   3.534  11.840   9.063  2.6805  0.2970 -1.3601
  251MOL0     H33865   3.316  11.727   8.972 -1.8116 -2.7275 -2.1185
  251MOL0     H33866   3.412  11.628   8.859 -2.0419  1.0547 -2.8640
  251MOL0     H33867   4.314  11.340   9.187 -0.5529 -0.5946 -0.8919
  251MOL0     H33868   4.483  11.179   9.135 -0.2956 -1.0283 -1.5035
  251MOL0     H33869   4.688  10.992   8.841 -0.5419  1.7169 -0.2243
  251MOL0     H33870   4.795  10.773   8.832 -1.2308  0.5466  1.6865
  251MOL0     H33871   3.639  10.675   8.982 -0.7316  4.3184  1.7145
  251MOL0     H33872   3.457  10.765   8.807 -0.0828  1.3605 -1.8044
  251MOL0     H33873   3.118  10.838   8.561  1.8209 -0.6305  0.1810
  251MOL0     H33874   2.960  10.985   8.409 -0.5880  2.9255 -0.6325
  251MOL0     H33875   2.994  11.329   8.383 -2.3800  0.4769 -1.3899
  251MOL0     H33876   3.101  11.372   8.259  0.7903  0.0488  0.5458
  251MOL0     H33877   2.915  11.342   8.090 -0.1878  0.5548 -0.5498
  251MOL0     H33878   2.892  11.470   8.210 -0.1635  0.0177  1.6221
  251MOL0     H33879   2.771  11.184   8.177 -1.7316 -1.8398  2.8101
  251MOL0     H33880   2.685  11.340   8.167  1.4174  1.5583  1.2679
  251MOL0     H33881   2.809  11.264   8.440  1.0501  2.0484 -0.2012
  251MOL0     H33882   2.647  11.227   8.399 -0.1106  0.1990 -0.8347
  251MOL0     H33883   2.651  11.662   8.438 -1.7450 -1.5744  1.4683
  251MOL0     H33884   3.297  11.182   8.261 -2.5310  1.1620  0.0699
  251MOL0     H33885   3.452  11.043   8.406 -0.4830  2.3899 -0.5578
  252MOL0     O33886   2.669  10.954   3.081  0.1161  0.8308  0.5767
  252MOL0     C33887   2.763  10.873   3.064  0.0020 -0.1995  0.3795
  252MOL0     O33888   2.756  10.754   2.995  0.5051 -0.1255  0.7727
  252MOL0     C33889   2.639  10.716   2.926  0.2436  0.3548 -0.4406
  252MOL0     C33890   2.662  10.681   2.803  0.0558 -0.1920 -0.1935
  252MOL0     C33891   2.553  10.655   2.713 -0.8421  0.0007 -0.4892
  252MOL0     C33892   2.425  10.651   2.763  0.3457  0.0128 -0.6098
  252MOL0     O33893   2.320  10.610   2.688  0.1217 -0.1150  0.6741
  252MOL0     C33894   2.187  10.608   2.743  0.0050 -0.1594  0.4779
  252MOL0     C33895   2.105  10.582   2.617 -0.1475  0.2765 -0.0493
  252MOL0     C33896   1.955  10.572   2.630  0.2347  0.1350 -0.2420
  252MOL0     C33897   1.884  10.554   2.492 -1.4501  0.0140 -0.2030
  252MOL0     C33898   1.733  10.568   2.501 -0.2314  0.2818 -0.0202
  252MOL0     C33899   1.650  10.549   2.369  0.2109  1.0882 -0.2067
  252MOL0     C33900   1.499  10.566   2.398 -0.2503  0.7549 -0.1314
  252MOL0     C33901   1.440  10.438   2.462 -0.2062  0.4711 -0.7383
  252MOL0     N33902   1.295  10.454   2.485  0.4117  0.4008  0.0716
  252MOL0     C33903   1.189  10.484   2.393 -0.3299 -0.4213  0.1067
  252MOL0     C33904   1.081  10.505   2.465 -0.0702 -0.4179  0.3652
  252MOL0     C33905   0.953  10.566   2.420  0.4514  0.6541  0.6530
  252MOL0     C33906   0.911  10.683   2.512  0.7431 -0.5419 -0.3477
  252MOL0     C33907   0.785  10.767   2.475 -0.3855  0.8080  0.7296
  252MOL0     C33908   0.775  10.908   2.534 -0.2523 -0.5406  0.6476
  252MOL0     O33909   0.748  10.896   2.676 -0.2049 -0.4447 -0.0876
  252MOL0     C33910   0.628  10.889   2.735 -0.4462 -0.4161 -0.2445
  252MOL0     C33911   0.628  10.847   2.871  0.5734 -0.3842  0.3150
  252MOL0     C33912   0.509  10.839   2.947 -1.1281 -0.8009 -0.3356
  252MOL0     C33913   0.529  10.788   3.089  0.0629 -0.0075 -0.4310
  252MOL0     C33914   0.386  10.884   2.889  0.3884  0.0728 -0.8024
  252MOL0     C33915   0.258  10.896   2.967 -0.6409  0.0004  1.1710
  252MOL0     O33916   0.140  10.896   2.902 -0.1138 -0.9595  0.1971
  252MOL0     C33917   0.031  10.955   2.959 -0.2595 -0.7063  0.4950
  252MOL0     C33918  -0.077  10.880   3.005 -0.3059  0.3804  0.5276
  252MOL0     C33919  -0.193  10.939   3.063  1.0524 -0.0256 -0.2319
  252MOL0     C33920  -0.208  11.073   3.058 -0.4128 -0.9782 -0.0233
  252MOL0     O33921  -0.328  11.123   3.095 -1.1163  0.3824 -0.4308
  252MOL0     C33922  -0.354  11.257   3.054  1.1768  0.2109 -1.1301
  252MOL0     C33923  -0.480  11.306   3.124 -0.2832  0.2447  0.7580
  252MOL0     C33924  -0.594  11.262   3.026  0.6227 -0.4830  1.3579
  252MOL0     C33925  -0.733  11.289   3.098 -0.5446  0.0992 -0.1881
  252MOL0     C33926  -0.835  11.197   3.022 -0.1289  0.1146 -0.3250
  252MOL0     C33927  -0.989  11.227   3.054 -0.4286  0.3464 -0.6054
  252MOL0     C33928  -1.092  11.136   3.002 -0.3372  0.5299  0.5766
  252MOL0     C33929  -1.098  11.149   2.849 -0.3741  0.2126 -0.0063
  252MOL0    Cl33930  -1.138  11.309   2.795  0.5941 -0.2531 -0.4001
  252MOL0     C33931  -0.101  11.159   3.007 -0.5017 -0.2195 -0.2051
  252MOL0     C33932   0.026  11.097   2.974  0.4123 -0.1284 -0.4588
  252MOL0     O33933   0.266  10.921   3.087  0.4164 -0.3354  0.0170
  252MOL0     C33934   0.392  10.926   2.756 -0.3395  0.7469  0.1403
  252MOL0     C33935   0.506  10.932   2.677  0.3329  0.4523 -0.2855
  252MOL0     N33936   1.107  10.456   2.593 -0.5305  0.0323  0.5505
  252MOL0     N33937   1.232  10.428   2.603  1.0393  0.0602  0.2089
  252MOL0     C33938   2.399  10.684   2.900  0.5626  0.0680  0.7448
  252MOL0     C33939   2.509  10.715   2.985 -1.0098  0.0567 -0.0117
  252MOL0     C33940   2.900  10.914   3.097  0.6405 -0.3902 -0.1846
  252MOL0     C33941   3.015  10.843   3.049 -0.1780  0.5350  0.0147
  252MOL0     C33942   3.148  10.880   3.079 -0.5491  0.3146 -0.4961
  252MOL0     C33943   3.168  10.994   3.158  0.7931  0.5331  0.2908
  252MOL0     O33944   3.291  11.051   3.202 -0.2074  0.3579  1.0840
  252MOL0     C33945   3.407  10.973   3.160 -0.3813 -0.1229 -0.4930
  252MOL0     C33946   3.523  11.019   3.250 -0.8097  0.3705  0.5093
  252MOL0     C33947   3.632  10.909   3.238 -0.3048  0.6573  0.1918
  252MOL0     C33948   3.768  10.941   3.301  0.3393  0.3352 -0.1760
  252MOL0     C33949   3.775  10.933   3.447  0.2555 -0.3025 -0.0710
  252MOL0     C33950   3.770  10.915   3.569  0.0416 -0.4285 -0.3173
  252MOL0     C33951   3.049  11.053   3.216 -0.4316 -0.0292  0.2008
  252MOL0     C33952   2.916  11.011   3.191 -0.1666 -0.7906 -0.2299
  252MOL0     H33953   2.756  10.710   2.757 -1.2172  3.6084 -0.7235
  252MOL0     H33954   2.565  10.636   2.607  2.2957  2.3953 -0.7298
  252MOL0     H33955   2.171  10.521   2.808  0.4796 -0.7702 -0.2028
  252MOL0     H33956   2.163  10.704   2.788 -1.1461 -0.3699  0.3523
  252MOL0     H33957   2.128  10.672   2.559  1.7806  0.4941  0.9734
  252MOL0     H33958   2.148  10.499   2.560  1.5271  0.9775  0.1388
  252MOL0     H33959   1.920  10.495   2.699  0.1093 -1.3180 -1.8615
  252MOL0     H33960   1.920  10.666   2.674 -0.7794 -0.1647 -0.3905
  252MOL0     H33961   1.917  10.639   2.431  0.0600 -2.2127 -2.7073
  252MOL0     H33962   1.915  10.462   2.440 -1.2611 -0.7665  1.2438
  252MOL0     H33963   1.690  10.504   2.578 -1.1679  0.7464 -0.1307
  252MOL0     H33964   1.718  10.672   2.533  0.3830  1.0028 -1.9143
  252MOL0     H33965   1.667  10.637   2.306  1.0661  0.2776 -1.1358
  252MOL0     H33966   1.667  10.452   2.322 -0.1120  1.1337 -0.4215
  252MOL0     H33967   1.482  10.655   2.458  0.2922 -0.2360  1.5569
  252MOL0     H33968   1.450  10.581   2.301  0.2773  1.8224 -0.2534
  252MOL0     H33969   1.494  10.418   2.555 -0.1945 -0.4109 -0.9284
  252MOL0     H33970   1.463  10.353   2.397  1.0518 -0.6582  1.0968
  252MOL0     H33971   1.208  10.522   2.293 -0.9426 -0.2119  0.0629
  252MOL0     H33972   0.955  10.594   2.314 -1.5291 -1.4055 -0.0065
  252MOL0     H33973   0.880  10.485   2.429  0.8708 -0.2934 -3.0172
  252MOL0     H33974   0.996  10.750   2.525  0.5740 -0.5639  1.0217
  252MOL0     H33975   0.900  10.643   2.613 -0.3817  1.2947  0.3047
  252MOL0     H33976   0.700  10.704   2.504  0.4574 -0.4286  0.6093
  252MOL0     H33977   0.774  10.774   2.366 -1.9753  0.5441  0.8612
  252MOL0     H33978   0.687  10.954   2.489  0.7087  1.5429  0.8075
  252MOL0     H33979   0.862  10.971   2.515 -0.3277 -0.7288 -0.3471
  252MOL0     H33980   0.718  10.824   2.925 -1.0835  0.3829  3.6352
  252MOL0     H33981   0.471  10.696   3.102  0.6635 -0.1182  1.7381
  252MOL0     H33982   0.631  10.754   3.107  0.0681 -1.6848 -3.0188
  252MOL0     H33983   0.491  10.863   3.159 -2.0481 -1.2708 -0.1176
  252MOL0     H33984  -0.068  10.772   2.993 -1.2095  0.2130  1.2871
  252MOL0     H33985  -0.273  10.879   3.105  0.1435  1.4626  0.2341
  252MOL0     H33986  -0.284  11.327   3.102  0.4846 -1.3703  2.5208
  252MOL0     H33987  -0.366  11.275   2.947 -2.3852  2.2615 -0.5409
  252MOL0     H33988  -0.497  11.261   3.222  0.4596  1.4536  1.4664
  252MOL0     H33989  -0.476  11.415   3.132 -0.4531  0.3344 -0.2538
  252MOL0     H33990  -0.579  11.155   3.006  1.5239 -0.0424 -0.5071
  252MOL0     H33991  -0.578  11.307   2.928  0.6587 -3.2469 -0.0059
  252MOL0     H33992  -0.735  11.268   3.205 -0.3726  0.7071 -0.0650
  252MOL0     H33993  -0.775  11.388   3.081  0.6364  0.9211  1.4942
  252MOL0     H33994  -0.804  11.095   3.048  1.8094  0.4763 -1.0263
  252MOL0     H33995  -0.826  11.211   2.914 -4.2418 -1.2755 -1.0370
  252MOL0     H33996  -0.992  11.236   3.163  1.1083 -0.1464 -0.4921
  252MOL0     H33997  -1.019  11.325   3.015 -6.8739 -1.1979 -0.5082
  252MOL0     H33998  -1.184  11.172   3.048 -1.6471 -2.0653  0.1887
  252MOL0     H33999  -1.073  11.035   3.041  0.1503 -0.8162 -2.7642
  252MOL0     H34000  -1.185  11.090   2.819 -0.2590 -0.9008  1.7126
  252MOL0     H34001  -1.005  11.111   2.805 -0.7764 -0.6682 -0.1275
  252MOL0     H34002  -0.094  11.267   3.010 -1.1670 -0.1891  1.3921
  252MOL0     H34003   0.112  11.163   2.966  1.2724 -1.1719 -0.0528
  252MOL0     H34004   0.298  10.952   2.707 -0.8048 -1.8128 -0.4635
  252MOL0     H34005   0.503  10.956   2.572 -0.3256  1.0398 -0.1395
  252MOL0     H34006   2.297  10.694   2.937  0.1303  0.5769 -0.5243
  252MOL0     H34007   2.504  10.739   3.091 -0.1080 -2.8450  0.7833
  252MOL0     H34008   3.004  10.761   2.979 -4.3874 -0.2420  1.3233
  252MOL0     H34009   3.233  10.829   3.036 -0.2435  0.4057 -0.0124
  252MOL0     H34010   3.394  10.866   3.179 -0.0645  0.0508  0.8549
  252MOL0     H34011   3.436  11.002   3.059  2.9439  3.9720  1.3696
  252MOL0     H34012   3.488  11.015   3.353 -3.0722 -1.6242 -0.2434
  252MOL0     H34013   3.553  11.118   3.215  0.1620  0.0002  0.2453
  252MOL0     H34014   3.649  10.895   3.131  0.1361  2.7756 -0.0585
  252MOL0     H34015   3.601  10.812   3.278 -1.3492  1.6084  1.7553
  252MOL0     H34016   3.796  11.040   3.263 -1.7322  0.6940 -0.8816
  252MOL0     H34017   3.837  10.866   3.261 -0.4895 -1.0264  0.8697
  252MOL0     H34018   3.770  10.923   3.676 -2.8805  1.2684 -0.3385
  252MOL0     H34019   3.074  11.135   3.283  1.1011 -1.4338  1.4576
  252MOL0     H34020   2.827  11.053   3.238 -1.4472 -2.1843 -1.2916
  253MOL0     O34021   2.480   0.727   5.159  0.7271  0.0465  0.3496
  253MOL0     C34022   2.540   0.811   5.087  0.1072  0.8987 -0.1927
  253MOL0     O34023   2.498   0.867   4.969  0.4821  0.0852  0.6540
  253MOL0     C34024   2.362   0.875   4.942  1.0546  1.0166 -0.3798
  253MOL0     C34025   2.263   0.769   4.957  0.1923 -0.4839  0.1103
  253MOL0     C34026   2.137   0.784   4.906 -0.3760  0.2268 -0.4049
  253MOL0     C34027   2.092   0.905   4.851 -0.2242  0.5549  0.2418
  253MOL0     O34028   1.962   0.928   4.806 -1.4162  0.2410 -0.7203
  253MOL0     C34029   1.861   0.825   4.830 -0.6900 -0.4298 -0.8107
  253MOL0     C34030   1.741   0.846   4.741 -1.3542 -0.2408  0.1193
  253MOL0     C34031   1.645   0.953   4.788  0.0099 -0.6341 -0.2243
  253MOL0     C34032   1.555   0.991   4.669 -0.2506 -0.3139 -0.1660
  253MOL0     C34033   1.420   1.051   4.712  0.0547 -0.5170  0.7194
  253MOL0     C34034   1.321   1.049   4.593  0.2192  0.5581 -0.7990
  253MOL0     C34035   1.189   1.096   4.637  0.0908  0.0104 -0.1469
  253MOL0     C34036   1.082   1.063   4.538 -0.0648 -0.9657  0.3343
  253MOL0     N34037   0.950   1.116   4.586 -0.1166  0.3041  0.4480
  253MOL0     C34038   0.884   1.063   4.689 -0.2638  1.4375 -0.5654
  253MOL0     C34039   0.765   1.128   4.698 -0.4589  0.0431 -0.0755
  253MOL0     C34040   0.658   1.113   4.806 -0.7678 -0.5135  0.0003
  253MOL0     C34041   0.518   1.142   4.756  0.7680 -0.3069 -0.5183
  253MOL0     C34042   0.423   1.108   4.865 -0.0770  0.3862 -0.5951
  253MOL0     C34043   0.278   1.156   4.855 -0.7277  0.3284  0.0282
  253MOL0     O34044   0.222   1.138   4.724  0.0736 -0.4675  0.0834
  253MOL0     C34045   0.098   1.193   4.697 -1.1228  0.4233  0.1507
  253MOL0     C34046   0.011   1.239   4.793  0.4577 -0.2532 -0.3877
  253MOL0     C34047  -0.120   1.276   4.763 -0.1514  0.1383 -0.4701
  253MOL0     C34048  -0.209   1.326   4.868 -0.4500 -0.2723 -0.3250
  253MOL0     C34049  -0.163   1.273   4.625  0.2139  0.4157  0.2653
  253MOL0     C34050  -0.296   1.311   4.576  0.0973  0.0388  0.0690
  253MOL0     O34051  -0.310   1.304   4.444  0.8499  0.2188 -0.5460
  253MOL0     C34052  -0.434   1.335   4.392 -0.2755  1.1704  0.2164
  253MOL0     C34053  -0.447   1.462   4.335 -0.1868  0.3550 -1.2668
  253MOL0     C34054  -0.570   1.505   4.283 -0.0875 -0.3236  0.6972
  253MOL0     C34055  -0.680   1.413   4.284  0.9632 -0.6099  0.4418
  253MOL0     O34056  -0.809   1.455   4.245 -0.0036 -0.7831  0.2128
  253MOL0     C34057  -0.818   1.545   4.124  0.3531  0.5801  0.5358
  253MOL0     C34058  -0.950   1.501   4.054 -0.4666  0.0238  0.3235
  253MOL0     C34059  -0.956   1.555   3.904  0.0025 -0.7368  0.5003
  253MOL0     C34060  -0.964   1.705   3.901  0.2387 -0.8024  0.9834
  253MOL0     C34061  -0.994   1.756   3.760  0.0196  0.2762  0.2951
  253MOL0     C34062  -0.880   1.725   3.666  0.4347  0.6733 -0.1304
  253MOL0     C34063  -0.744   1.788   3.709 -0.0718 -0.8579  0.0334
  253MOL0     C34064  -0.643   1.769   3.602  0.0198 -0.5751 -0.7154
  253MOL0    Cl34065  -0.475   1.780   3.674  0.3774  0.1691 -0.1298
  253MOL0     C34066  -0.666   1.287   4.333 -0.4362  0.3843 -1.2019
  253MOL0     C34067  -0.536   1.243   4.381  0.0590  0.0083  0.2214
  253MOL0     O34068  -0.385   1.342   4.658  0.7364  0.3960  0.1208
  253MOL0     C34069  -0.070   1.235   4.533  0.2604 -0.3829 -0.1301
  253MOL0     C34070   0.062   1.195   4.572  0.4421 -0.9235 -0.3130
  253MOL0     N34071   0.764   1.215   4.595 -0.2245  0.4958 -1.0637
  253MOL0     N34072   0.873   1.211   4.532 -0.2549  0.4557  1.1233
  253MOL0     C34073   2.185   1.005   4.834  0.4086 -0.1804 -0.3117
  253MOL0     C34074   2.317   0.987   4.871 -0.3075 -0.2561 -0.3584
  253MOL0     C34075   2.682   0.844   5.124  0.1259  0.7014  0.1816
  253MOL0     C34076   2.767   0.918   5.038 -0.3828  0.1585 -0.2670
  253MOL0     C34077   2.903   0.943   5.049  0.1173  0.3981  0.6669
  253MOL0     C34078   2.967   0.901   5.168  0.6507 -0.5198 -0.0765
  253MOL0     O34079   3.101   0.935   5.197 -0.1979 -0.7145  0.4418
  253MOL0     C34080   3.178   1.002   5.096  0.3674 -0.5696  0.5566
  253MOL0     C34081   3.306   1.052   5.151  0.6626 -0.3936  0.2454
  253MOL0     C34082   3.393   0.944   5.214 -0.3691  0.6491 -0.3492
  253MOL0     C34083   3.529   1.008   5.266  0.3336 -0.0134 -1.0180
  253MOL0     C34084   3.604   0.909   5.344 -0.5297 -0.4397  0.2317
  253MOL0     C34085   3.674   0.814   5.384  0.5041  0.3647 -0.3747
  253MOL0     C34086   2.882   0.845   5.268 -0.0120 -0.0186  1.2301
  253MOL0     C34087   2.743   0.813   5.251  0.1735 -0.9814 -1.1918
  253MOL0     H34088   2.290   0.684   5.019 -0.8400  0.7850  2.4431
  253MOL0     H34089   2.076   0.699   4.932 -0.2495 -0.8400 -3.2685
  253MOL0     H34090   1.907   0.731   4.800  0.9980  0.8341 -2.4541
  253MOL0     H34091   1.824   0.832   4.932  2.1101  2.5198  0.1750
  253MOL0     H34092   1.774   0.887   4.645 -0.7276  0.2256  0.5213
  253MOL0     H34093   1.681   0.758   4.717  0.2135 -1.2003 -0.3579
  253MOL0     H34094   1.594   0.908   4.873 -0.5387  0.1318 -0.1364
  253MOL0     H34095   1.693   1.046   4.822 -0.9411 -0.2171  0.0321
  253MOL0     H34096   1.605   1.067   4.608  0.3910  0.5568  1.3978
  253MOL0     H34097   1.536   0.897   4.615 -2.9559 -0.6215  1.1673
  253MOL0     H34098   1.383   0.981   4.788 -2.2611 -0.3447 -0.1663
  253MOL0     H34099   1.435   1.154   4.745 -0.5346 -0.3746  0.5578
  253MOL0     H34100   1.363   1.111   4.513 -0.8725  1.6897 -0.5241
  253MOL0     H34101   1.320   0.949   4.549 -0.6758  0.5890 -0.8621
  253MOL0     H34102   1.165   1.046   4.732  0.5899 -0.4930 -0.2810
  253MOL0     H34103   1.184   1.203   4.659  0.2772  0.9607 -4.0887
  253MOL0     H34104   1.071   0.961   4.502 -1.0732 -1.0215  0.7494
  253MOL0     H34105   1.108   1.113   4.444  0.7924 -1.7549  0.1398
  253MOL0     H34106   0.918   0.979   4.747 -1.6539  1.0807 -0.2288
  253MOL0     H34107   0.664   1.010   4.842  0.8096  0.1579  1.8392
  253MOL0     H34108   0.681   1.187   4.883 -2.4739 -0.9813  1.0300
  253MOL0     H34109   0.482   1.071   4.681 -0.9722  1.2643 -1.2416
  253MOL0     H34110   0.501   1.246   4.729 -1.3865  0.5933  3.5181
  253MOL0     H34111   0.458   1.152   4.959  0.6721  1.7376 -1.4852
  253MOL0     H34112   0.411   1.000   4.880 -0.6705  0.7359  1.7843
  253MOL0     H34113   0.268   1.258   4.891 -0.0767  0.1054  0.8947
  253MOL0     H34114   0.219   1.103   4.931  1.6126 -0.1940  1.6209
  253MOL0     H34115   0.040   1.232   4.898  1.5648 -1.5813 -0.7491
  253MOL0     H34116  -0.146   1.362   4.950 -0.0976 -1.5825  0.0087
  253MOL0     H34117  -0.268   1.415   4.843  1.5104  0.4863 -2.6240
  253MOL0     H34118  -0.272   1.243   4.902 -0.3592  0.6170  2.2333
  253MOL0     H34119  -0.359   1.525   4.344 -0.2068  0.0209  3.5128
  253MOL0     H34120  -0.563   1.608   4.251 -1.6289 -0.3529  0.1637
  253MOL0     H34121  -0.824   1.652   4.147 -2.6039  1.0729 -1.9224
  253MOL0     H34122  -0.732   1.516   4.063 -0.5677 -0.7796 -0.1817
  253MOL0     H34123  -0.950   1.391   4.056  0.0350  0.0291  1.2834
  253MOL0     H34124  -1.035   1.538   4.111 -0.6189  1.1224 -0.5791
  253MOL0     H34125  -1.043   1.510   3.854 -0.2718  0.9034 -0.5593
  253MOL0     H34126  -0.859   1.532   3.860  0.2384 -0.4198  0.8550
  253MOL0     H34127  -1.048   1.724   3.968 -1.4342  0.2883 -1.2707
  253MOL0     H34128  -0.877   1.760   3.939  0.1785 -0.8896  1.2533
  253MOL0     H34129  -1.011   1.864   3.757  2.7739  0.7634 -1.6617
  253MOL0     H34130  -1.081   1.703   3.719  1.1835 -0.4230 -1.3766
  253MOL0     H34131  -0.866   1.616   3.657  1.5432  0.9018 -1.5479
  253MOL0     H34132  -0.917   1.760   3.569  0.7453  1.0469 -0.1141
  253MOL0     H34133  -0.723   1.730   3.800 -1.7534 -2.2874 -0.4237
  253MOL0     H34134  -0.764   1.894   3.728 -0.6543 -1.0056  0.2886
  253MOL0     H34135  -0.651   1.850   3.529 -1.7674 -0.1467 -0.0913
  253MOL0     H34136  -0.669   1.683   3.539 -2.0299  0.3267 -1.1880
  253MOL0     H34137  -0.745   1.213   4.339  0.5767 -0.6748 -0.0677
  253MOL0     H34138  -0.517   1.142   4.415  0.9331  0.8059  2.2780
  253MOL0     H34139  -0.090   1.231   4.426 -0.1445 -1.0165 -0.0371
  253MOL0     H34140   0.126   1.152   4.495 -0.3630  0.1605 -1.6356
  253MOL0     H34141   2.142   1.099   4.800 -0.9352  0.2290  2.2233
  253MOL0     H34142   2.398   1.058   4.857  1.0905 -1.2667  1.9275
  253MOL0     H34143   2.714   0.950   4.949 -1.5045 -1.3533 -0.1902
  253MOL0     H34144   2.939   1.008   4.970  2.0961  1.2351  2.1856
  253MOL0     H34145   3.207   0.938   5.012 -1.3104 -1.9796  0.9963
  253MOL0     H34146   3.121   1.087   5.056 -0.8202 -1.7348 -0.3050
  253MOL0     H34147   3.281   1.132   5.222  0.3072  0.2478 -0.5729
  253MOL0     H34148   3.364   1.107   5.076 -1.4371  3.6174  1.2223
  253MOL0     H34149   3.422   0.872   5.138  0.9388  0.4713  0.2925
  253MOL0     H34150   3.353   0.879   5.292 -0.8003  3.4933  1.9719
  253MOL0     H34151   3.503   1.097   5.324 -1.5851  0.6837 -2.8356
  253MOL0     H34152   3.600   1.037   5.188  1.7894 -1.6378 -0.3495
  253MOL0     H34153   3.725   0.735   5.435  1.0334  1.6610  1.1950
  253MOL0     H34154   2.927   0.818   5.363  0.1458 -2.6104  0.5042
  253MOL0     H34155   2.691   0.760   5.330 -0.5544  1.2649 -0.0816
  254MOL0     O34156   3.563   2.511   7.424  0.0233 -0.2698 -1.4841
  254MOL0     C34157   3.666   2.484   7.370  0.1600 -0.3436 -0.2607
  254MOL0     O34158   3.696   2.369   7.299  0.1079 -0.9412 -0.8410
  254MOL0     C34159   3.599   2.285   7.248  0.2308 -0.7595 -0.0873
  254MOL0     C34160   3.634   2.152   7.230 -0.5521  0.5244  0.1714
  254MOL0     C34161   3.539   2.045   7.191 -0.4721  0.0581 -0.7115
  254MOL0     C34162   3.406   2.086   7.171 -0.9168 -0.1754 -0.3216
  254MOL0     O34163   3.324   1.992   7.121 -0.8336  0.2188  0.2815
  254MOL0     C34164   3.222   1.975   7.216 -0.3539 -0.3198  0.0110
  254MOL0     C34165   3.143   1.849   7.195 -0.3793 -0.0056  0.6457
  254MOL0     C34166   3.000   1.848   7.263  0.2695 -0.2662  0.2027
  254MOL0     C34167   2.912   1.734   7.200  0.2208 -0.5739 -0.5249
  254MOL0     C34168   2.775   1.734   7.259 -0.1655  0.3796 -0.3095
  254MOL0     C34169   2.680   1.642   7.174 -0.7366 -0.7229  0.1417
  254MOL0     C34170   2.542   1.657   7.235  0.3115  0.4452  0.0850
  254MOL0     C34171   2.451   1.548   7.166 -0.7191 -0.6211  1.1480
  254MOL0     N34172   2.334   1.627   7.117 -0.3270 -0.4076  0.5400
  254MOL0     C34173   2.332   1.693   6.999  0.8209  0.1247  0.0017
  254MOL0     C34174   2.211   1.756   6.987 -0.9378  0.1388 -0.9843
  254MOL0     C34175   2.149   1.802   6.861  0.1500  0.2193 -0.3312
  254MOL0     C34176   2.002   1.752   6.840  0.4391  0.4700  0.7693
  254MOL0     C34177   1.939   1.781   6.695 -0.3776 -0.0639  0.5384
  254MOL0     C34178   1.787   1.749   6.680 -0.2398 -0.5123 -0.3746
  254MOL0     O34179   1.712   1.808   6.789 -0.1524  0.1797 -0.5269
  254MOL0     C34180   1.581   1.829   6.756  0.4633  1.0084 -0.2023
  254MOL0     C34181   1.501   1.736   6.676  0.3112 -0.0619 -0.6971
  254MOL0     C34182   1.371   1.773   6.632 -0.8016 -0.0340  0.0330
  254MOL0     C34183   1.301   1.675   6.547  0.1673  0.7738  0.1962
  254MOL0     C34184   1.317   1.904   6.661 -0.2968 -0.0877  1.0363
  254MOL0     C34185   1.177   1.944   6.616 -0.5111  0.8158  0.5468
  254MOL0     O34186   1.122   2.058   6.682 -0.1035 -0.0423  0.5258
  254MOL0     C34187   0.995   2.093   6.669  0.5902  0.0765 -0.7100
  254MOL0     C34188   0.886   2.002   6.652  0.2192 -0.0087 -0.4414
  254MOL0     C34189   0.752   2.041   6.626  1.0224  0.0128  0.3174
  254MOL0     C34190   0.718   2.176   6.624  0.2562 -0.1121 -0.1893
  254MOL0     O34191   0.590   2.225   6.607  0.3111 -0.8377 -0.5482
  254MOL0     C34192   0.486   2.127   6.568  0.1982  0.0761  0.0758
  254MOL0     C34193   0.355   2.197   6.518  0.2997 -0.4439  0.6967
  254MOL0     C34194   0.297   2.273   6.635 -0.3277  1.0982 -0.9242
  254MOL0     C34195   0.238   2.409   6.595  0.1636  0.2515  0.4810
  254MOL0     C34196   0.189   2.485   6.715  0.0455 -0.1338 -1.1590
  254MOL0     C34197   0.057   2.430   6.761  0.2379  0.0701 -0.5124
  254MOL0     C34198  -0.016   2.511   6.865  0.2502  0.1869  0.1806
  254MOL0     C34199  -0.134   2.432   6.914 -0.1048  0.0040 -0.0027
  254MOL0    Cl34200  -0.268   2.549   6.930 -0.2446  0.3179 -0.4245
  254MOL0     C34201   0.822   2.263   6.669 -0.4582 -0.6862 -0.0403
  254MOL0     C34202   0.956   2.224   6.689 -0.2720 -0.3084 -0.2333
  254MOL0     O34203   1.130   1.894   6.516 -0.1900 -0.7368 -0.0382
  254MOL0     C34204   1.399   1.985   6.748  0.0535 -0.2588  0.6789
  254MOL0     C34205   1.522   1.949   6.796 -0.2893  0.5850  0.1538
  254MOL0     N34206   2.136   1.731   7.100  0.3700 -0.5817  0.6674
  254MOL0     N34207   2.217   1.667   7.181  0.4586  0.3003  0.0045
  254MOL0     C34208   3.370   2.222   7.173 -0.3327 -0.4372  1.2293
  254MOL0     C34209   3.463   2.320   7.221  0.8511 -0.4828  0.3680
  254MOL0     C34210   3.767   2.586   7.384 -0.2790 -0.4858  0.0937
  254MOL0     C34211   3.760   2.689   7.484  1.1886 -0.3017  0.1642
  254MOL0     C34212   3.867   2.782   7.495 -0.3631  0.7353 -0.2272
  254MOL0     C34213   3.986   2.768   7.418 -0.2430 -0.9500  0.4938
  254MOL0     O34214   4.080   2.862   7.437 -0.5336 -0.0822 -0.0677
  254MOL0     C34215   4.208   2.832   7.380  0.2570  0.2491  0.1755
  254MOL0     C34216   4.308   2.944   7.430  0.4868  0.2190  1.1436
  254MOL0     C34217   4.359   2.932   7.570  0.0960  0.0182 -0.6419
  254MOL0     C34218   4.432   3.049   7.630 -0.6553 -0.9691  0.2499
  254MOL0     C34219   4.559   3.077   7.561  0.4330 -0.5468  0.3826
  254MOL0     C34220   4.664   3.098   7.505  0.7760  0.1626 -0.1555
  254MOL0     C34221   3.995   2.657   7.342  0.0472  0.3411  0.9404
  254MOL0     C34222   3.889   2.573   7.308 -0.2858 -0.1501  0.7469
  254MOL0     H34223   3.734   2.122   7.257 -1.1013  0.7556  2.7119
  254MOL0     H34224   3.559   1.940   7.175 -2.0533 -0.8117  2.3123
  254MOL0     H34225   3.247   1.975   7.322 -0.7462  0.2803  0.1038
  254MOL0     H34226   3.151   2.054   7.191  0.4144  0.1145 -0.9150
  254MOL0     H34227   3.145   1.830   7.088 -0.6285  0.6298  0.5208
  254MOL0     H34228   3.194   1.773   7.254  3.0463  0.2690 -1.6836
  254MOL0     H34229   3.004   1.838   7.372  1.2223 -0.3038  0.1649
  254MOL0     H34230   2.946   1.943   7.249  1.2305  0.4405  1.1392
  254MOL0     H34231   2.893   1.764   7.097  4.1551 -2.1827 -1.9455
  254MOL0     H34232   2.958   1.634   7.202 -1.0365 -1.2272 -2.1263
  254MOL0     H34233   2.787   1.697   7.361 -1.8056  0.3857 -0.0773
  254MOL0     H34234   2.730   1.833   7.263 -0.3838  0.3752 -1.9493
  254MOL0     H34235   2.690   1.677   7.071  0.4944  0.6968  0.7155
  254MOL0     H34236   2.724   1.542   7.176  3.6583  1.0373  1.8430
  254MOL0     H34237   2.541   1.635   7.342  1.6641 -1.5110 -0.2502
  254MOL0     H34238   2.500   1.753   7.203 -1.1776 -0.0623  0.4514
  254MOL0     H34239   2.409   1.467   7.226 -1.3177 -2.0742 -1.1096
  254MOL0     H34240   2.507   1.495   7.088 -0.0117 -1.1550  1.9967
  254MOL0     H34241   2.415   1.683   6.929 -0.0102  0.0396 -0.9908
  254MOL0     H34242   2.133   1.910   6.868  0.1677  0.1783  0.3976
  254MOL0     H34243   2.211   1.776   6.775  1.3547  2.5186 -0.2400
  254MOL0     H34244   1.931   1.798   6.910 -1.2036 -0.9257  0.0997
  254MOL0     H34245   1.998   1.644   6.850  0.2141  0.2065 -1.4974
  254MOL0     H34246   1.999   1.721   6.626  0.6499  1.4231  0.0902
  254MOL0     H34247   1.955   1.885   6.665  0.3281 -0.5246 -0.7603
  254MOL0     H34248   1.769   1.642   6.667 -2.1791 -0.2828  0.0269
  254MOL0     H34249   1.754   1.806   6.593  3.4710  2.1593 -0.2216
  254MOL0     H34250   1.548   1.641   6.652 -0.8695 -1.1808  1.1906
  254MOL0     H34251   1.197   1.663   6.580 -0.0141  1.0832 -0.2594
  254MOL0     H34252   1.300   1.706   6.442  0.3891  1.1720  0.3105
  254MOL0     H34253   1.344   1.574   6.546 -1.0597  0.0847 -3.9106
  254MOL0     H34254   0.903   1.894   6.657 -2.8540 -0.6495 -1.4690
  254MOL0     H34255   0.682   1.960   6.611 -0.3690  1.0096  1.1841
  254MOL0     H34256   0.528   2.068   6.486 -2.5686 -1.0443 -0.6369
  254MOL0     H34257   0.458   2.070   6.657  0.9727  1.2157  1.0851
  254MOL0     H34258   0.381   2.263   6.435 -1.5692  0.5255  0.8313
  254MOL0     H34259   0.286   2.127   6.471  0.3523 -0.1586  0.1847
  254MOL0     H34260   0.383   2.300   6.698 -0.9700  2.6879 -0.6600
  254MOL0     H34261   0.235   2.205   6.692  1.4718  0.8995  0.9064
  254MOL0     H34262   0.317   2.468   6.547 -1.1309  1.4074 -0.3139
  254MOL0     H34263   0.158   2.400   6.521  2.1298  3.0403 -2.2890
  254MOL0     H34264   0.166   2.589   6.692 -2.4405 -0.1192  0.9233
  254MOL0     H34265   0.276   2.486   6.782 -1.7066 -1.6949  1.3200
  254MOL0     H34266  -0.010   2.433   6.675 -0.3141  1.7347 -0.0690
  254MOL0     H34267   0.070   2.328   6.799  1.4137  0.6159  0.5953
  254MOL0     H34268  -0.050   2.610   6.833  0.7489 -0.4834 -2.6357
  254MOL0     H34269   0.055   2.530   6.946 -0.5631  0.1110  0.9260
  254MOL0     H34270  -0.113   2.389   7.012  0.3343  0.2882  0.0298
  254MOL0     H34271  -0.166   2.355   6.843  0.2521 -0.2146  0.0728
  254MOL0     H34272   0.784   2.364   6.684 -0.8361 -0.9391  0.7513
  254MOL0     H34273   1.029   2.298   6.720  1.3035 -0.6737 -2.7514
  254MOL0     H34274   1.365   2.084   6.775  0.8956 -0.2570  1.7806
  254MOL0     H34275   1.583   2.024   6.846  0.6756 -0.1568  0.1227
  254MOL0     H34276   3.271   2.248   7.138  0.6946 -0.2924 -1.8288
  254MOL0     H34277   3.449   2.428   7.225  1.3495 -0.4448  1.5991
  254MOL0     H34278   3.667   2.696   7.539  0.7400 -2.3880 -0.2239
  254MOL0     H34279   3.860   2.857   7.573  0.2164  0.7899 -0.2198
  254MOL0     H34280   4.241   2.731   7.406 -0.1524  0.3608  1.1822
  254MOL0     H34281   4.197   2.850   7.272 -2.2469  1.4371  0.5478
  254MOL0     H34282   4.250   3.036   7.415  1.9007  0.8589 -0.7775
  254MOL0     H34283   4.386   2.949   7.354 -0.8618  2.5340 -0.2128
  254MOL0     H34284   4.401   2.832   7.579 -1.8703 -0.9815 -1.9382
  254MOL0     H34285   4.275   2.920   7.640  2.8411 -0.0312  2.9135
  254MOL0     H34286   4.463   3.031   7.733  1.3941 -0.9330 -0.3096
  254MOL0     H34287   4.369   3.138   7.626  3.0577  1.9351  0.5084
  254MOL0     H34288   4.745   3.125   7.440 -0.6465 -0.0878 -2.1473
  254MOL0     H34289   4.090   2.629   7.297  1.2385  4.3289  0.5743
  254MOL0     H34290   3.913   2.484   7.251  0.3303  0.9401 -0.7572
  255MOL0     O34291   9.682  10.466   3.025  0.4071 -0.2135 -0.2124
  255MOL0     C34292   9.686  10.584   2.987 -0.3816 -0.5440 -0.8912
  255MOL0     O34293   9.580  10.677   2.983  0.0984 -0.2853 -0.7273
  255MOL0     C34294   9.463  10.623   2.985  0.0541 -0.3799 -0.6092
  255MOL0     C34295   9.412  10.541   2.879 -0.7661 -0.2241 -0.3365
  255MOL0     C34296   9.281  10.487   2.893 -1.3973 -0.6869  0.6396
  255MOL0     C34297   9.195  10.533   2.994  0.4559  0.3467 -0.1783
  255MOL0     O34298   9.069  10.479   2.995 -0.0506  0.0125 -0.0792
  255MOL0     C34299   8.989  10.516   3.112  0.3824 -0.1324 -0.1982
  255MOL0     C34300   8.873  10.412   3.114 -0.0357  0.3295 -0.3499
  255MOL0     C34301   8.775  10.440   3.226  0.4417  1.1179  0.3356
  255MOL0     C34302   8.644  10.358   3.217  0.0196 -0.5492  0.3096
  255MOL0     C34303   8.537  10.409   3.317  0.5066  0.0172  0.0017
  255MOL0     C34304   8.425  10.298   3.335 -0.6633 -0.2986 -0.1599
  255MOL0     C34305   8.316  10.358   3.416  0.1283  0.4354 -0.3668
  255MOL0     C34306   8.208  10.263   3.459  0.2239  0.5318  0.1072
  255MOL0     N34307   8.103  10.245   3.358  0.1328 -0.9470  0.1927
  255MOL0     C34308   8.037  10.130   3.332  0.8688 -0.2831 -0.5210
  255MOL0     C34309   7.932  10.165   3.251 -0.4082  0.9813 -0.4631
  255MOL0     C34310   7.815  10.073   3.207 -0.9902 -0.1046  0.1979
  255MOL0     C34311   7.744  10.032   3.323 -0.6344 -0.1648 -0.0281
  255MOL0     C34312   7.614   9.958   3.290 -0.4050  0.0994 -0.2106
  255MOL0     C34313   7.599   9.835   3.377  0.6099 -0.4492  0.3847
  255MOL0     O34314   7.596   9.856   3.520  0.1734  0.4675  0.5852
  255MOL0     C34315   7.508   9.938   3.580 -0.1607  0.3435 -0.3399
  255MOL0     C34316   7.532   9.982   3.708  0.5463 -0.3257 -0.1190
  255MOL0     C34317   7.433  10.046   3.788 -0.5985 -0.2339 -0.5885
  255MOL0     C34318   7.486  10.073   3.932  0.2131 -1.1727 -0.0036
  255MOL0     C34319   7.303  10.073   3.729  0.2301  0.7909 -0.8568
  255MOL0     C34320   7.184  10.138   3.798 -0.5421  0.9422  0.5181
  255MOL0     O34321   7.082  10.178   3.714  0.3921  0.2308  0.2324
  255MOL0     C34322   6.978  10.247   3.767  0.1967  0.8064 -0.1450
  255MOL0     C34323   6.978  10.379   3.751 -0.1730 -0.4749 -0.1362
  255MOL0     C34324   6.883  10.462   3.822 -0.2887  0.0615 -0.2171
  255MOL0     C34325   6.774  10.403   3.889 -0.7394  0.1611  1.0946
  255MOL0     O34326   6.692  10.483   3.968  0.0905  0.2327  0.6649
  255MOL0     C34327   6.618  10.413   4.064 -0.2317  0.4588 -0.7365
  255MOL0     C34328   6.563  10.510   4.164 -0.6056  0.8836 -0.9433
  255MOL0     C34329   6.475  10.608   4.095 -0.3109 -0.0601 -0.2560
  255MOL0     C34330   6.395  10.697   4.195  0.7095 -1.1580 -0.3966
  255MOL0     C34331   6.263  10.749   4.142 -0.1114  0.5776 -0.8137
  255MOL0     C34332   6.207  10.858   4.242  0.2900 -0.5351  0.2217
  255MOL0     C34333   6.076  10.906   4.185  0.2519  0.8816 -0.6426
  255MOL0     C34334   6.024  11.024   4.265  0.3664 -0.6693 -0.2947
  255MOL0    Cl34335   5.848  11.040   4.229 -0.4888  0.1957  0.5517
  255MOL0     C34336   6.759  10.259   3.873 -0.7126  0.1787  0.4656
  255MOL0     C34337   6.863  10.183   3.817 -1.1009  0.3853 -0.6991
  255MOL0     O34338   7.191  10.163   3.917  0.5672 -0.3499 -0.0749
  255MOL0     C34339   7.284  10.036   3.593 -0.1396  0.5635 -0.8007
  255MOL0     C34340   7.386   9.974   3.524  0.9920  1.4387  0.1814
  255MOL0     N34341   7.945  10.302   3.223 -0.2243 -0.5591 -0.1847
  255MOL0     N34342   8.045  10.349   3.291 -0.0738  0.9333  0.2211
  255MOL0     C34343   9.250  10.617   3.088  0.2034 -0.5554  0.1958
  255MOL0     C34344   9.383  10.660   3.091  0.3339 -0.2893  0.5983
  255MOL0     C34345   9.822  10.635   2.958 -1.3607 -0.2461  0.2592
  255MOL0     C34346   9.839  10.771   2.925  0.7830  0.2933  0.5497
  255MOL0     C34347   9.968  10.814   2.902  0.3711  0.2986  0.2689
  255MOL0     C34348  10.078  10.721   2.895 -0.1938  0.4389 -0.5515
  255MOL0     O34349  10.206  10.764   2.882  0.3626  0.2929  0.1151
  255MOL0     C34350  10.275  10.728   2.760 -0.4808 -0.7056 -0.2639
  255MOL0     C34351  10.410  10.812   2.754  0.3293  0.0038  0.4881
  255MOL0     C34352  10.507  10.787   2.869  0.7189  0.0980  0.3646
  255MOL0     C34353  10.646  10.854   2.845 -0.0212  0.2428  0.6689
  255MOL0     C34354  10.741  10.765   2.924  0.6951 -0.0947  0.5698
  255MOL0     C34355  10.819  10.712   2.993 -0.1244 -0.3717  0.2907
  255MOL0     C34356  10.061  10.593   2.927 -0.2331  0.1313 -0.1187
  255MOL0     C34357   9.932  10.550   2.961 -0.2513 -0.2699  0.6977
  255MOL0     H34358   9.459  10.536   2.782 -1.5864  1.4296 -0.8540
  255MOL0     H34359   9.247  10.428   2.809  0.3885 -1.6722  0.5578
  255MOL0     H34360   9.043  10.516   3.207  1.3836 -0.0440 -0.7465
  255MOL0     H34361   8.948  10.616   3.097  0.6292  0.1258  0.7993
  255MOL0     H34362   8.823  10.416   3.017 -5.0388  2.7138  1.9771
  255MOL0     H34363   8.897  10.307   3.134 -3.2838 -0.1580  1.7913
  255MOL0     H34364   8.835  10.424   3.317  0.7388  1.6318  0.2341
  255MOL0     H34365   8.748  10.546   3.221  0.6673  1.1503 -0.1825
  255MOL0     H34366   8.608  10.354   3.114 -0.2938  1.2091  0.3189
  255MOL0     H34367   8.657  10.253   3.244 -0.3370 -0.7368 -0.2310
  255MOL0     H34368   8.583  10.430   3.414  1.5715  0.9988 -0.6798
  255MOL0     H34369   8.497  10.503   3.278  0.3038 -0.9176 -2.2234
  255MOL0     H34370   8.390  10.262   3.238  1.6453  1.0153 -1.5677
  255MOL0     H34371   8.470  10.211   3.384  1.1829  1.2537  1.0361
  255MOL0     H34372   8.367  10.400   3.503  0.0472  0.9573 -0.5723
  255MOL0     H34373   8.275  10.439   3.356  0.3480 -1.5073 -3.4124
  255MOL0     H34374   8.162  10.298   3.552  0.5831 -2.1635  1.3819
  255MOL0     H34375   8.253  10.164   3.474  5.1973  2.1216 -1.9922
  255MOL0     H34376   8.047  10.034   3.382  0.0476 -1.4206 -2.4520
  255MOL0     H34377   7.751  10.134   3.143 -3.3848 -0.3854  2.1882
  255MOL0     H34378   7.859   9.991   3.150 -1.9045 -0.1247 -0.4983
  255MOL0     H34379   7.718  10.122   3.380  1.5123 -0.3725  1.3826
  255MOL0     H34380   7.814   9.971   3.381 -2.2454 -0.8967  1.2047
  255MOL0     H34381   7.632   9.920   3.189  2.8356  1.0713 -0.1291
  255MOL0     H34382   7.532  10.029   3.303  1.3797  2.1518  0.4744
  255MOL0     H34383   7.696   9.786   3.364  0.2124 -0.8665 -1.2915
  255MOL0     H34384   7.519   9.769   3.342  0.7724 -0.5850  0.2668
  255MOL0     H34385   7.632   9.952   3.737  1.9217  1.2750 -2.7746
  255MOL0     H34386   7.488  10.179   3.961 -0.4978 -1.2296  0.2537
  255MOL0     H34387   7.432  10.030   4.016  2.8771 -0.8376  2.0357
  255MOL0     H34388   7.586  10.032   3.953  0.6385  1.2944  3.8463
  255MOL0     H34389   7.061  10.420   3.694 -1.2608  1.4125 -0.4228
  255MOL0     H34390   6.903  10.569   3.828 -0.3287  0.2664 -2.6020
  255MOL0     H34391   6.542  10.351   4.017 -0.0489 -1.8221  1.7342
  255MOL0     H34392   6.682  10.349   4.125 -2.5776 -1.5099 -0.2210
  255MOL0     H34393   6.502  10.449   4.230  0.0748  2.8262  1.6171
  255MOL0     H34394   6.638  10.549   4.233 -1.6220  0.3617  0.4911
  255MOL0     H34395   6.413  10.539   4.037  0.6890 -2.9048  1.8520
  255MOL0     H34396   6.529  10.670   4.022 -0.9835  0.9905  0.1154
  255MOL0     H34397   6.373  10.647   4.290 -2.0689  0.7507  0.0619
  255MOL0     H34398   6.460  10.783   4.210 -1.8845  1.6596 -3.6721
  255MOL0     H34399   6.192  10.668   4.124  1.4733 -1.0003 -0.2836
  255MOL0     H34400   6.287  10.788   4.042  0.6739  0.2929 -0.7473
  255MOL0     H34401   6.200  10.803   4.336  3.2117 -0.2255  0.7099
  255MOL0     H34402   6.282  10.936   4.259  1.8940 -2.1299  0.8597
  255MOL0     H34403   6.003  10.825   4.193  3.1105 -1.7106  0.9656
  255MOL0     H34404   6.082  10.932   4.079 -1.2072 -1.4685 -1.3868
  255MOL0     H34405   6.074  11.119   4.250  0.7834 -0.5780  1.4886
  255MOL0     H34406   6.029  11.016   4.374 -2.4635  1.2771  0.0968
  255MOL0     H34407   6.682  10.194   3.915  0.3768 -1.2822  0.3088
  255MOL0     H34408   6.871  10.075   3.823  0.8213  0.4389 -1.4437
  255MOL0     H34409   7.196  10.068   3.537 -0.4244 -0.2360 -0.8210
  255MOL0     H34410   7.373   9.935   3.424  2.0694  1.0193  0.1967
  255MOL0     H34411   9.186  10.644   3.172  0.1290 -1.4071  0.4246
  255MOL0     H34412   9.421  10.736   3.159  1.2541 -0.1387 -0.0661
  255MOL0     H34413   9.761  10.846   2.915  0.4284 -0.2496 -0.9462
  255MOL0     H34414  10.000  10.916   2.883 -1.3050  0.9405  0.7400
  255MOL0     H34415  10.295  10.621   2.765 -1.1508 -0.7865  0.9445
  255MOL0     H34416  10.205  10.746   2.678 -1.9478 -0.2571  1.0251
  255MOL0     H34417  10.379  10.917   2.746 -1.5662 -0.0913  4.1613
  255MOL0     H34418  10.461  10.789   2.660  0.9715 -0.5103  0.9600
  255MOL0     H34419  10.505  10.679   2.882  0.4187  0.1011  0.3640
  255MOL0     H34420  10.470  10.825   2.965  3.5100 -0.8567  1.9233
  255MOL0     H34421  10.631  10.951   2.893 -3.1482  1.7090 -2.8111
  255MOL0     H34422  10.677  10.880   2.744  1.3837  1.3914  1.3612
  255MOL0     H34423  10.874  10.643   3.054 -1.7949 -2.2805 -0.2212
  255MOL0     H34424  10.143  10.523   2.930 -0.9724 -0.7793  3.2295
  255MOL0     H34425   9.911  10.443   2.964 -0.5431 -0.2438 -0.1762
  256MOL0     O34426   2.364   8.789   9.912 -0.0670  0.4933  0.3806
  256MOL0     C34427   2.363   8.802  10.034  1.2110  0.4327  1.0463
  256MOL0     O34428   2.261   8.859  10.102  0.9134 -1.0916  0.3333
  256MOL0     C34429   2.156   8.912  10.037  0.2443  0.6602 -0.1764
  256MOL0     C34430   2.132   9.050  10.030  0.1074 -0.3008  1.3292
  256MOL0     C34431   2.012   9.096   9.983  0.1189 -0.6936 -0.7002
  256MOL0     C34432   1.919   9.015   9.919 -0.2651  0.0717  0.0910
  256MOL0     O34433   1.794   9.051   9.866 -0.3241 -0.2657  0.3583
  256MOL0     C34434   1.735   9.174   9.910 -0.4098 -0.5767 -0.1988
  256MOL0     C34435   1.783   9.284   9.812  0.4662 -0.5846 -0.0886
  256MOL0     C34436   1.685   9.407   9.813  0.6272 -0.2322  0.2233
  256MOL0     C34437   1.744   9.513   9.713  0.5444  0.1007  0.3541
  256MOL0     C34438   1.781   9.465   9.567 -0.0886 -0.6933  0.3615
  256MOL0     C34439   1.653   9.429   9.493 -0.1238  0.3321 -0.1270
  256MOL0     C34440   1.576   9.540   9.437  0.1416  0.5432  0.5024
  256MOL0     C34441   1.437   9.501   9.385 -0.1657  0.5291 -0.2404
  256MOL0     N34442   1.333   9.500   9.495 -0.2358  0.2143 -0.7369
  256MOL0     C34443   1.288   9.615   9.548  0.0328  0.2925  0.4836
  256MOL0     C34444   1.187   9.584   9.630 -0.9918  1.3121  0.7934
  256MOL0     C34445   1.102   9.701   9.686  0.2930  0.3233  0.3661
  256MOL0     C34446   1.038   9.785   9.566  0.3728  0.6428  0.7607
  256MOL0     C34447   0.938   9.892   9.618  0.6636  0.1338 -0.0145
  256MOL0     C34448   0.806   9.851   9.689  0.1861 -0.0830  0.1759
  256MOL0     O34449   0.713   9.797   9.590  0.3068  0.2418 -0.5784
  256MOL0     C34450   0.589   9.771   9.637  0.1023 -0.2173  0.0403
  256MOL0     C34451   0.537   9.762   9.767 -0.0169 -0.4408 -0.5379
  256MOL0     C34452   0.408   9.724   9.798  0.0520  0.3311  0.4304
  256MOL0     C34453   0.384   9.723   9.949  0.9450 -0.4273 -0.0191
  256MOL0     C34454   0.317   9.696   9.699 -0.2433 -0.3361  0.7116
  256MOL0     C34455   0.172   9.693   9.729 -0.1673  0.2866 -0.1802
  256MOL0     O34456   0.120   9.762   9.839  0.0311 -0.2106  0.6866
  256MOL0     C34457  -0.017   9.776   9.833 -0.2237  0.7980  0.2248
  256MOL0     C34458  -0.098   9.718   9.934 -0.2918  0.5022  0.1154
  256MOL0     C34459  -0.239   9.732   9.933 -0.1853 -0.1001 -0.3851
  256MOL0     C34460  -0.301   9.806   9.837 -0.2273  0.9889 -0.1419
  256MOL0     O34461  -0.435   9.808   9.816 -0.0875 -0.0990 -0.7049
  256MOL0     C34462  -0.525   9.729   9.891  0.7395  0.8626  0.7127
  256MOL0     C34463  -0.646   9.705   9.794 -0.1011  0.0328 -0.0468
  256MOL0     C34464  -0.758   9.619   9.855  0.3101  0.2352 -1.2223
  256MOL0     C34465  -0.865   9.587   9.756  0.4404  0.1178  0.0930
  256MOL0     C34466  -0.992   9.517   9.812 -0.1970  0.5800  0.3564
  256MOL0     C34467  -1.108   9.505   9.706  1.1218  0.7102 -0.0420
  256MOL0     C34468  -1.231   9.439   9.768 -1.4450  0.3647 -0.2433
  256MOL0     C34469  -1.336   9.414   9.663  0.0375 -0.3313 -0.0106
  256MOL0    Cl34470  -1.284   9.302   9.542  0.5635  0.9242  0.3386
  256MOL0     C34471  -0.224   9.869   9.738  0.3045  0.1909  0.4982
  256MOL0     C34472  -0.084   9.839   9.731  0.5004 -0.5865 -0.2088
  256MOL0     O34473   0.108   9.651   9.637 -0.4230 -0.1918  0.2047
  256MOL0     C34474   0.361   9.716   9.564 -0.1655 -0.0746 -0.3107
  256MOL0     C34475   0.502   9.741   9.537 -0.2639 -0.1592 -0.1133
  256MOL0     N34476   1.187   9.450   9.635 -0.4886  0.2784 -0.3160
  256MOL0     N34477   1.267   9.403   9.544 -1.2889 -0.1236  0.9450
  256MOL0     C34478   1.945   8.881   9.915 -0.0972 -0.2560  0.7423
  256MOL0     C34479   2.063   8.824   9.965 -1.1866  0.0238 -0.1965
  256MOL0     C34480   2.485   8.766  10.097  0.1290 -0.3972 -0.2904
  256MOL0     C34481   2.509   8.795  10.229 -0.0865 -0.4392 -0.1452
  256MOL0     C34482   2.633   8.771  10.295  0.1928  0.2467 -0.0659
  256MOL0     C34483   2.738   8.714  10.227  0.5824  0.2186  0.5581
  256MOL0     O34484   2.860   8.690  10.283 -0.2398  0.3802 -0.1876
  256MOL0     C34485   2.896   8.734  10.411  0.0502  0.0262 -0.5953
  256MOL0     C34486   3.031   8.677  10.449 -0.6368 -0.1010 -0.7800
  256MOL0     C34487   3.087   8.736  10.586  0.4178  0.6979  0.4139
  256MOL0     C34488   3.204   8.669  10.635 -0.2809  0.3013 -0.6788
  256MOL0     C34489   3.318   8.695  10.545  0.5369  0.2476  0.1148
  256MOL0     C34490   3.403   8.713  10.467  0.2291  1.1399  0.2392
  256MOL0     C34491   2.720   8.686  10.088  0.5177 -0.8067  0.1954
  256MOL0     C34492   2.599   8.719  10.026 -0.3359  0.2284 -0.5777
  256MOL0     H34493   2.194   9.119  10.086  1.5764 -0.9458  0.5598
  256MOL0     H34494   2.005   9.205   9.983  1.2249 -0.6114 -1.0868
  256MOL0     H34495   1.627   9.163   9.915 -0.6101 -1.1229 -3.5078
  256MOL0     H34496   1.776   9.188  10.011  0.6306 -2.3767 -0.3281
  256MOL0     H34497   1.884   9.323   9.824  0.3048  0.9651 -2.9007
  256MOL0     H34498   1.778   9.235   9.715 -3.3720 -1.3661  0.3388
  256MOL0     H34499   1.590   9.374   9.771  1.9121 -2.5323 -1.1139
  256MOL0     H34500   1.673   9.448   9.914 -2.1906 -1.4891  0.4810
  256MOL0     H34501   1.678   9.601   9.710 -3.2505 -2.5184  0.0555
  256MOL0     H34502   1.837   9.547   9.759  0.5690  0.4869  0.0257
  256MOL0     H34503   1.835   9.549   9.521  2.6884 -2.4965  0.1039
  256MOL0     H34504   1.849   9.380   9.563  0.6165 -0.1188 -0.2661
  256MOL0     H34505   1.669   9.359   9.410  0.3124  1.2612 -0.8434
  256MOL0     H34506   1.585   9.375   9.560 -2.5161 -0.8171 -3.2024
  256MOL0     H34507   1.560   9.615   9.515  0.1934 -1.5476  2.6390
  256MOL0     H34508   1.641   9.576   9.357 -2.0019  0.0962 -1.5619
  256MOL0     H34509   1.439   9.404   9.336  1.4473  0.7257 -0.6389
  256MOL0     H34510   1.417   9.582   9.314  0.6799  0.6848 -0.3105
  256MOL0     H34511   1.325   9.715   9.528  0.2161  0.4016  1.3567
  256MOL0     H34512   1.023   9.656   9.747  0.6478  0.7525  1.1594
  256MOL0     H34513   1.159   9.767   9.752  0.0157 -0.0516  0.9906
  256MOL0     H34514   0.987   9.714   9.500  1.9301 -1.7690  2.0012
  256MOL0     H34515   1.104   9.853   9.512 -2.0458  2.9574  0.4878
  256MOL0     H34516   0.901   9.957   9.538  0.2570  0.9813  0.8506
  256MOL0     H34517   0.991   9.965   9.679  3.7685 -0.0543 -2.2972
  256MOL0     H34518   0.763   9.948   9.715  0.8005  0.4769 -0.8388
  256MOL0     H34519   0.823   9.793   9.781  0.2363 -0.6704 -0.1998
  256MOL0     H34520   0.597   9.794   9.851 -0.4313 -0.2359 -0.3189
  256MOL0     H34521   0.311   9.647   9.978  1.7816 -1.5384 -0.7534
  256MOL0     H34522   0.476   9.695  10.002 -0.3415  0.0717  2.6667
  256MOL0     H34523   0.350   9.822   9.981  0.9584 -0.9722  1.8028
  256MOL0     H34524  -0.044   9.667  10.013  2.5371  0.7376 -1.5306
  256MOL0     H34525  -0.302   9.702  10.016 -1.7156  1.7502 -0.8191
  256MOL0     H34526  -0.499   9.627   9.920 -1.8091  0.2898  1.2013
  256MOL0     H34527  -0.564   9.778   9.981 -2.9419  0.8431 -0.7172
  256MOL0     H34528  -0.678   9.804   9.759  0.2101 -0.4585 -1.8278
  256MOL0     H34529  -0.607   9.648   9.710 -0.4094  1.3360 -1.1044
  256MOL0     H34530  -0.804   9.681   9.932  1.3684  0.2871 -0.6064
  256MOL0     H34531  -0.721   9.525   9.898 -0.0096  0.5574 -0.2118
  256MOL0     H34532  -0.905   9.674   9.704 -0.0170  1.3241  2.3201
  256MOL0     H34533  -0.820   9.513   9.689  1.8916 -0.0296  1.1774
  256MOL0     H34534  -1.035   9.572   9.897  0.1471  0.1954  0.7810
  256MOL0     H34535  -0.965   9.415   9.840  2.2370  0.6119 -1.5269
  256MOL0     H34536  -1.146   9.597   9.660 -0.3821 -0.8100 -2.0520
  256MOL0     H34537  -1.079   9.437   9.626 -0.7249 -0.2993  0.0914
  256MOL0     H34538  -1.273   9.510   9.841  0.5446 -2.4295  4.0281
  256MOL0     H34539  -1.207   9.349   9.825 -0.8207  1.2796  0.9847
  256MOL0     H34540  -1.352   9.516   9.626 -2.9707  0.3962  2.8511
  256MOL0     H34541  -1.428   9.366   9.695  0.3620 -0.6999  0.3889
  256MOL0     H34542  -0.262   9.939   9.665 -2.6382 -2.6598 -0.9417
  256MOL0     H34543  -0.014   9.881   9.659  0.4400  0.0579  0.1025
  256MOL0     H34544   0.285   9.720   9.487  0.8403  0.5160 -1.3070
  256MOL0     H34545   0.537   9.760   9.435  0.9406 -3.5881 -0.4744
  256MOL0     H34546   1.862   8.831   9.865 -1.4806  0.0828  2.5856
  256MOL0     H34547   2.073   8.716   9.966 -1.1764  0.0253  0.2201
  256MOL0     H34548   2.444   8.852  10.294  1.1324  0.0537  0.6809
  256MOL0     H34549   2.635   8.799  10.400 -0.4956 -0.2009  0.0762
  256MOL0     H34550   2.898   8.843  10.412  0.3150  0.0395  0.9985
  256MOL0     H34551   2.826   8.701  10.489  2.8832 -1.4032  1.5588
  256MOL0     H34552   3.110   8.686  10.374  0.3184 -0.1564  0.1962
  256MOL0     H34553   3.019   8.570  10.471 -0.8737 -0.1048 -0.9290
  256MOL0     H34554   3.012   8.727  10.665 -0.7108  0.3335 -0.6633
  256MOL0     H34555   3.096   8.845  10.583  0.7751  0.8105  3.2375
  256MOL0     H34556   3.172   8.564  10.639 -1.9514  0.7972 -0.3193
  256MOL0     H34557   3.229   8.707  10.735  0.2268  2.1355 -1.4666
  256MOL0     H34558   3.490   8.718  10.405  1.1834 -1.7488  1.1839
  256MOL0     H34559   2.801   8.645  10.028  1.3300  0.0271  0.6894
  256MOL0     H34560   2.584   8.687   9.923  0.0798 -1.1134 -0.2428
  257MOL0     O34561  11.057   5.225   4.067  0.3151  0.3219 -0.1699
  257MOL0     C34562  10.963   5.300   4.089 -0.5237 -0.0598  0.3988
  257MOL0     O34563  10.970   5.430   4.111  0.0198 -0.1416 -0.3252
  257MOL0     C34564  11.101   5.476   4.107  0.1683 -0.1886  0.5442
  257MOL0     C34565  11.154   5.532   3.988  0.4319  0.1302  0.4942
  257MOL0     C34566  11.288   5.576   3.974  0.1537 -0.1726 -0.3557
  257MOL0     C34567  11.370   5.581   4.084  0.0319  0.6584 -0.2607
  257MOL0     O34568  11.504   5.614   4.091 -0.1530 -0.0115 -0.0239
  257MOL0     C34569  11.570   5.641   3.968 -0.5050 -0.7350  0.1201
  257MOL0     C34570  11.722   5.686   3.990 -0.3934  0.1717 -0.8794
  257MOL0     C34571  11.801   5.595   4.091 -0.0221 -0.0351  0.6211
  257MOL0     C34572  11.945   5.641   4.114  0.4264 -0.2860  0.1066
  257MOL0     C34573  12.017   5.534   4.191  0.2683  0.1523  0.4785
  257MOL0     C34574  11.971   5.496   4.327  0.3221 -0.1438 -0.4203
  257MOL0     C34575  12.054   5.401   4.412  0.9301 -0.2781 -0.0189
  257MOL0     C34576  12.092   5.275   4.335 -0.0964  0.0473  0.4295
  257MOL0     N34577  11.974   5.191   4.312  0.6635 -0.1797  0.0239
  257MOL0     C34578  11.922   5.099   4.404  1.0271  0.1215  0.0494
  257MOL0     C34579  11.813   5.052   4.343 -0.3532 -0.6375  0.1312
  257MOL0     C34580  11.740   4.934   4.388  0.1860 -1.0541  1.2275
  257MOL0     C34581  11.615   4.915   4.314 -0.5141 -0.3036 -0.2229
  257MOL0     C34582  11.550   4.782   4.355  0.0174  0.1720  0.3955
  257MOL0     C34583  11.447   4.745   4.248 -0.3651 -0.5693  0.5093
  257MOL0     O34584  11.387   4.628   4.297 -1.1864  0.3296  0.6696
  257MOL0     C34585  11.279   4.566   4.229 -0.6867  0.2309 -1.0559
  257MOL0     C34586  11.225   4.616   4.110  0.8886  0.4001  0.4944
  257MOL0     C34587  11.110   4.549   4.051  0.1639  0.5608  0.3242
  257MOL0     C34588  11.069   4.595   3.914  0.7145 -0.7193  0.3154
  257MOL0     C34589  11.055   4.437   4.116  0.5886  1.0991  0.2103
  257MOL0     C34590  10.933   4.359   4.062  0.2301 -0.1940 -1.0264
  257MOL0     O34591  10.882   4.392   3.942 -0.1153 -0.2654 -0.1333
  257MOL0     C34592  10.765   4.346   3.894 -0.2071  0.4840 -0.1667
  257MOL0     C34593  10.746   4.357   3.759  0.3324  0.5160  0.1810
  257MOL0     C34594  10.623   4.346   3.701  1.2138 -0.2395 -0.2348
  257MOL0     C34595  10.514   4.292   3.774 -0.3255 -0.9527  0.0346
  257MOL0     O34596  10.385   4.259   3.723  0.3655 -0.1874  0.2463
  257MOL0     C34597  10.351   4.291   3.590 -0.3334 -0.3111 -0.4278
  257MOL0     C34598  10.205   4.263   3.562  0.5153  0.7235  0.1393
  257MOL0     C34599  10.117   4.300   3.683 -0.2961  0.6454  0.1179
  257MOL0     C34600   9.969   4.268   3.656  0.0642 -0.3316  0.0601
  257MOL0     C34601   9.885   4.289   3.781  0.0866 -0.4664  0.4891
  257MOL0     C34602   9.733   4.290   3.749  0.7326 -0.0267 -0.1311
  257MOL0     C34603   9.692   4.418   3.677 -0.8024  0.3239  0.4528
  257MOL0     C34604   9.539   4.439   3.691 -0.3976  0.2575  0.8445
  257MOL0    Cl34605   9.482   4.578   3.596  0.2711 -0.2190  0.3097
  257MOL0     C34606  10.530   4.268   3.914 -0.2179 -0.6367  0.2307
  257MOL0     C34607  10.656   4.297   3.967  0.1250  0.7544 -0.5440
  257MOL0     O34608  10.885   4.280   4.143 -0.2453 -0.8320 -0.3565
  257MOL0     C34609  11.122   4.389   4.236  0.9569 -0.4358  0.8184
  257MOL0     C34610  11.230   4.453   4.293 -0.2568 -0.3671 -0.2798
  257MOL0     N34611  11.798   5.112   4.218 -0.2769  0.1316  0.2933
  257MOL0     N34612  11.886   5.204   4.211  0.0147  0.1003  0.2217
  257MOL0     C34613  11.315   5.543   4.206 -0.3667 -0.9137 -0.4746
  257MOL0     C34614  11.185   5.493   4.226  0.0776 -0.1709  0.1261
  257MOL0     C34615  10.826   5.254   4.086  0.2452 -0.0516 -0.3390
  257MOL0     C34616  10.786   5.123   4.114  0.0195  0.1680 -0.1245
  257MOL0     C34617  10.655   5.086   4.110  0.1252 -0.6186  0.3908
  257MOL0     C34618  10.556   5.177   4.076  0.3373  0.3154  0.4815
  257MOL0     O34619  10.422   5.148   4.075  0.0705  0.2461 -0.4603
  257MOL0     C34620  10.380   5.046   4.163 -0.1318  0.0370 -0.4577
  257MOL0     C34621  10.234   5.056   4.211  0.5144  0.0593  0.4088
  257MOL0     C34622  10.208   4.948   4.316 -0.0009  1.4871  0.2207
  257MOL0     C34623  10.103   4.844   4.274  0.3730 -0.0382  0.5279
  257MOL0     C34624  10.081   4.752   4.388  0.3184 -0.4588  0.5258
  257MOL0     C34625  10.059   4.677   4.480  0.5357 -0.5313  0.6832
  257MOL0     C34626  10.587   5.304   4.032 -0.3796 -0.2390 -0.2207
  257MOL0     C34627  10.724   5.348   4.044  0.0229  0.3967  0.1007
  257MOL0     H34628  11.090   5.516   3.901  2.0141  0.0776 -0.7069
  257MOL0     H34629  11.326   5.612   3.879 -0.6096  1.3011 -0.1317
  257MOL0     H34630  11.580   5.555   3.901  0.7012  0.2138 -0.9570
  257MOL0     H34631  11.525   5.726   3.916  1.7177  2.7912  3.4077
  257MOL0     H34632  11.766   5.679   3.891 -3.4720  0.6097 -2.4065
  257MOL0     H34633  11.727   5.790   4.025  0.6514 -0.6477  1.6767
  257MOL0     H34634  11.741   5.595   4.183 -1.7186  2.8745 -0.3580
  257MOL0     H34635  11.799   5.492   4.053 -0.5912 -0.2257  1.1395
  257MOL0     H34636  11.987   5.668   4.017 -1.7220  1.1912 -0.4815
  257MOL0     H34637  11.930   5.727   4.180 -0.9029 -0.1058 -0.3994
  257MOL0     H34638  12.010   5.447   4.125 -2.9478  0.1968  0.5833
  257MOL0     H34639  12.118   5.571   4.213  0.2085 -0.7822  2.5133
  257MOL0     H34640  11.956   5.589   4.383 -1.6994 -0.0513 -1.0050
  257MOL0     H34641  11.873   5.450   4.307  1.1232 -0.6883 -3.6458
  257MOL0     H34642  12.143   5.459   4.439  2.5594 -2.5521 -0.2281
  257MOL0     H34643  12.004   5.368   4.504 -0.4342  0.4264 -0.4769
  257MOL0     H34644  12.160   5.217   4.398  0.6914 -0.5492 -0.9193
  257MOL0     H34645  12.152   5.300   4.248  0.9559 -0.0846  1.0955
  257MOL0     H34646  11.957   5.055   4.497 -1.5587 -2.0002  0.1784
  257MOL0     H34647  11.807   4.852   4.361 -0.1904 -0.2802 -2.7037
  257MOL0     H34648  11.731   4.932   4.497 -0.2216 -1.7165  1.1854
  257MOL0     H34649  11.623   4.924   4.206 -3.6234 -1.6184 -0.6519
  257MOL0     H34650  11.546   4.995   4.342 -1.4886 -0.8046 -1.1594
  257MOL0     H34651  11.494   4.777   4.448  0.7596 -1.8593  0.7938
  257MOL0     H34652  11.631   4.709   4.367  0.0172  0.1580  0.3117
  257MOL0     H34653  11.503   4.719   4.158  4.1686  1.2720  2.4697
  257MOL0     H34654  11.387   4.833   4.220  1.1957  0.7431  1.1298
  257MOL0     H34655  11.266   4.698   4.052 -0.6857  1.4229  0.7714
  257MOL0     H34656  10.968   4.633   3.898  1.5027  0.5580 -2.1883
  257MOL0     H34657  11.128   4.682   3.883  0.6542 -0.3936  1.1035
  257MOL0     H34658  11.084   4.524   3.832 -0.4601  1.1615 -1.6387
  257MOL0     H34659  10.816   4.403   3.690 -1.9846  3.0572 -0.6190
  257MOL0     H34660  10.609   4.369   3.596  2.6545 -0.7434 -0.5613
  257MOL0     H34661  10.372   4.398   3.575 -2.3584  0.6258  2.5347
  257MOL0     H34662  10.412   4.229   3.524 -2.1472 -0.8193 -1.6824
  257MOL0     H34663  10.170   4.308   3.468  0.1259  2.0292  0.8795
  257MOL0     H34664  10.198   4.155   3.547 -0.9208  1.0129 -1.7576
  257MOL0     H34665  10.128   4.400   3.728 -1.2233  0.8579 -0.1078
  257MOL0     H34666  10.147   4.228   3.760 -0.8060  1.5168  1.1594
  257MOL0     H34667   9.937   4.345   3.586 -1.5690  0.4630  1.6143
  257MOL0     H34668   9.966   4.164   3.621  0.8368  0.3197 -2.1029
  257MOL0     H34669   9.914   4.388   3.818 -3.0537 -0.4737  3.4333
  257MOL0     H34670   9.908   4.211   3.854  2.8809 -0.9680 -0.7870
  257MOL0     H34671   9.719   4.203   3.683  0.5483  0.2861 -0.5092
  257MOL0     H34672   9.673   4.281   3.840 -0.1027  1.9565 -0.4373
  257MOL0     H34673   9.719   4.415   3.571 -1.1406 -0.0209  0.3755
  257MOL0     H34674   9.743   4.498   3.731  0.1897 -0.7947  1.2132
  257MOL0     H34675   9.520   4.449   3.798  1.1460 -0.2881  1.1955
  257MOL0     H34676   9.482   4.356   3.649  0.0221 -0.0477  0.8698
  257MOL0     H34677  10.441   4.236   3.969  0.8478  1.5146  3.5322
  257MOL0     H34678  10.657   4.283   4.075  2.8524 -1.9568 -0.7709
  257MOL0     H34679  11.079   4.304   4.288 -1.4856  0.6083  0.6260
  257MOL0     H34680  11.275   4.413   4.383  0.4288  0.2592 -0.3361
  257MOL0     H34681  11.379   5.531   4.293 -2.0218 -1.9082  0.6627
  257MOL0     H34682  11.139   5.455   4.316  0.8944 -0.0881  0.5926
  257MOL0     H34683  10.858   5.048   4.144  1.3626  1.1785 -0.7591
  257MOL0     H34684  10.628   4.985   4.138 -1.4268  0.0820  1.6005
  257MOL0     H34685  10.385   4.956   4.102 -1.0727 -0.9018  0.7965
  257MOL0     H34686  10.438   5.037   4.255 -0.3437 -0.6633 -0.3875
  257MOL0     H34687  10.166   5.040   4.127  0.8685  2.1064 -0.2974
  257MOL0     H34688  10.214   5.155   4.254 -1.9710 -0.1269 -0.1616
  257MOL0     H34689  10.191   5.000   4.411 -1.7592  1.1304  0.1345
  257MOL0     H34690  10.300   4.892   4.333 -0.1555  1.0958 -0.2058
  257MOL0     H34691  10.153   4.799   4.187 -0.2144  2.5189 -1.2650
  257MOL0     H34692  10.021   4.904   4.233  1.3296  1.3327  0.5672
  257MOL0     H34693  10.039   4.605   4.556  2.7410 -2.6846 -0.6271
  257MOL0     H34694  10.510   5.374   4.001 -2.1422 -0.8947  2.3867
  257MOL0     H34695  10.746   5.453   4.028 -1.9376  0.8462  0.0593
  258MOL0     O34696   0.747   8.361   6.939 -0.8879  0.3717  0.6886
  258MOL0     C34697   0.700   8.357   7.052 -0.2575  0.1912 -0.8605
  258MOL0     O34698   0.763   8.375   7.166  0.1576 -0.5496 -0.6378
  258MOL0     C34699   0.896   8.399   7.156  0.1494 -0.0316 -0.0468
  258MOL0     C34700   0.990   8.313   7.089 -0.0362 -0.2780 -0.8592
  258MOL0     C34701   1.128   8.336   7.091  0.2695  0.4591 -0.1535
  258MOL0     C34702   1.171   8.453   7.145  0.2133 -0.3014  0.3291
  258MOL0     O34703   1.310   8.468   7.157  0.4634 -0.0596  0.4317
  258MOL0     C34704   1.364   8.538   7.270 -0.2026  0.2526  1.2458
  258MOL0     C34705   1.514   8.534   7.293  0.1322 -0.3452  0.1088
  258MOL0     C34706   1.564   8.402   7.346 -0.2428  0.1642 -0.9989
  258MOL0     C34707   1.507   8.285   7.277 -0.5894  1.1747  0.0500
  258MOL0     C34708   1.566   8.153   7.329 -0.8503 -0.4124 -0.7137
  258MOL0     C34709   1.519   8.032   7.250  0.4989 -0.0376  0.2628
  258MOL0     C34710   1.374   8.004   7.245 -0.1379  0.2653  0.2180
  258MOL0     C34711   1.311   7.957   7.382  0.2366 -0.4597  0.8744
  258MOL0     N34712   1.367   7.833   7.437 -0.6501 -0.2688  0.8064
  258MOL0     C34713   1.331   7.707   7.411  0.1866 -1.1329 -0.6201
  258MOL0     C34714   1.390   7.621   7.496 -0.7209 -0.3486 -0.6335
  258MOL0     C34715   1.336   7.480   7.528 -0.3229 -0.2772  0.7474
  258MOL0     C34716   1.186   7.500   7.550 -0.0872  0.6662  0.3493
  258MOL0     C34717   1.122   7.368   7.591  0.8123 -0.7756 -0.3809
  258MOL0     C34718   1.090   7.266   7.486 -0.7077  0.1364  0.1764
  258MOL0     O34719   0.985   7.299   7.395 -0.3101 -0.0497  0.0039
  258MOL0     C34720   0.856   7.259   7.409  0.4115  0.3853  0.2286
  258MOL0     C34721   0.795   7.165   7.327  0.5815 -0.1855 -0.5822
  258MOL0     C34722   0.659   7.129   7.347 -0.6374 -0.4627 -0.2458
  258MOL0     C34723   0.606   7.024   7.247  0.6224  0.1334  0.3147
  258MOL0     C34724   0.581   7.190   7.446 -0.0938  0.8010  0.0453
  258MOL0     C34725   0.433   7.160   7.467 -0.4459 -0.0955  0.1700
  258MOL0     O34726   0.367   7.226   7.569 -0.5789  0.5546 -0.2653
  258MOL0     C34727   0.229   7.200   7.597 -0.5085 -0.9848 -0.0178
  258MOL0     C34728   0.188   7.207   7.734  0.3343 -0.7680 -0.1407
  258MOL0     C34729   0.059   7.168   7.765  0.0118  0.0486  0.0966
  258MOL0     C34730  -0.033   7.136   7.661  0.0884 -0.0073 -0.8118
  258MOL0     O34731  -0.155   7.088   7.702 -0.1142  0.7276  0.3575
  258MOL0     C34732  -0.265   7.080   7.609 -0.1208  0.1273  0.6903
  258MOL0     C34733  -0.392   7.047   7.687 -0.1896  0.3432  0.4405
  258MOL0     C34734  -0.427   7.141   7.790  0.0323  0.4284 -0.0105
  258MOL0     C34735  -0.541   7.082   7.876 -0.7749 -0.3697 -0.4178
  258MOL0     C34736  -0.668   7.054   7.794 -0.3042 -0.3704  0.6563
  258MOL0     C34737  -0.804   7.051   7.863 -0.0446  0.1159 -0.2343
  258MOL0     C34738  -0.808   6.982   7.991  0.1889  0.1791  0.8947
  258MOL0     C34739  -0.945   6.999   8.049 -0.0945  0.2768  1.0442
  258MOL0    Cl34740  -1.051   7.131   7.975 -0.0883  0.0020  0.2481
  258MOL0     C34741   0.007   7.145   7.526  0.1211 -0.3794  0.5593
  258MOL0     C34742   0.141   7.169   7.498 -0.3880  0.2028 -0.0767
  258MOL0     O34743   0.399   7.049   7.420 -0.1153  0.1780  0.2196
  258MOL0     C34744   0.644   7.289   7.533  0.8263 -0.1060  0.8259
  258MOL0     C34745   0.780   7.312   7.512  0.3299 -0.3001 -0.4101
  258MOL0     N34746   1.477   7.702   7.581 -0.3069 -0.0564  0.5599
  258MOL0     N34747   1.469   7.825   7.536  0.1647  0.0949  0.4177
  258MOL0     C34748   1.090   8.542   7.203 -0.6364 -0.3894 -0.4614
  258MOL0     C34749   0.950   8.514   7.216 -0.1476 -1.1016 -0.4310
  258MOL0     C34750   0.559   8.310   7.067 -0.0723 -0.8522  0.0976
  258MOL0     C34751   0.484   8.339   7.179  0.5556 -0.6567  0.0337
  258MOL0     C34752   0.346   8.320   7.180 -0.6287 -0.1956 -0.0958
  258MOL0     C34753   0.278   8.261   7.075 -0.8340 -1.1365  1.1613
  258MOL0     O34754   0.137   8.247   7.083 -0.0635  0.7474  0.5701
  258MOL0     C34755   0.062   8.184   6.970 -0.2892  0.4553 -0.7707
  258MOL0     C34756  -0.087   8.203   6.995  0.0030  0.6660 -0.0578
  258MOL0     C34757  -0.153   8.173   7.132 -0.8904 -0.3592  0.8281
  258MOL0     C34758  -0.310   8.188   7.125 -0.1385 -1.0223  0.2726
  258MOL0     C34759  -0.366   8.129   7.245  0.1082  0.9554 -0.4615
  258MOL0     C34760  -0.417   8.088   7.349 -0.2024 -0.1097  0.2956
  258MOL0     C34761   0.351   8.225   6.961 -0.3736 -0.6577  1.5596
  258MOL0     C34762   0.485   8.259   6.950 -0.3665  0.0264  0.1633
  258MOL0     H34763   0.973   8.214   7.046 -1.4171  0.2769 -1.6251
  258MOL0     H34764   1.207   8.268   7.061  1.6836  0.8249  2.5186
  258MOL0     H34765   1.339   8.644   7.275 -2.1254  0.0284 -1.4631
  258MOL0     H34766   1.307   8.506   7.358  0.5045  0.1517  1.6807
  258MOL0     H34767   1.558   8.560   7.196  0.3354 -1.7592 -0.1925
  258MOL0     H34768   1.542   8.615   7.362 -0.0214 -0.0544 -0.1693
  258MOL0     H34769   1.673   8.403   7.339 -0.0380  2.1115  1.4314
  258MOL0     H34770   1.546   8.400   7.454  0.7624 -0.1654 -0.8297
  258MOL0     H34771   1.400   8.282   7.297 -0.2409  1.1943  2.1629
  258MOL0     H34772   1.519   8.291   7.169  1.4470  1.9966  0.2767
  258MOL0     H34773   1.673   8.169   7.342 -0.9201 -0.6909  0.2877
  258MOL0     H34774   1.533   8.137   7.432  0.7426  1.1799  0.0894
  258MOL0     H34775   1.545   8.047   7.145 -1.6259  3.4775  0.0958
  258MOL0     H34776   1.560   7.941   7.295  0.7781  0.5293  1.1772
  258MOL0     H34777   1.319   8.084   7.193  0.2416  0.4681  0.1223
  258MOL0     H34778   1.364   7.922   7.174 -2.0819 -0.5915  1.4168
  258MOL0     H34779   1.206   7.945   7.356  0.4339 -1.6356  0.5531
  258MOL0     H34780   1.318   8.036   7.457 -0.3391 -0.8704  1.3758
  258MOL0     H34781   1.257   7.685   7.334  0.2418 -1.6027 -0.5464
  258MOL0     H34782   1.345   7.409   7.445 -1.8160  0.6448 -0.2301
  258MOL0     H34783   1.383   7.434   7.616 -1.5515 -1.6864  0.7079
  258MOL0     H34784   1.136   7.539   7.461 -2.8338 -0.0791  1.4649
  258MOL0     H34785   1.178   7.573   7.631 -3.7206  1.0954 -0.2306
  258MOL0     H34786   1.033   7.389   7.651  1.9904 -1.0013  1.5353
  258MOL0     H34787   1.188   7.316   7.661  0.5337 -0.0383  0.4571
  258MOL0     H34788   1.053   7.170   7.524 -0.7602 -0.2182 -0.7426
  258MOL0     H34789   1.181   7.251   7.428 -0.6408 -3.2409  0.9306
  258MOL0     H34790   0.859   7.125   7.249  1.8920  1.3164 -0.3241
  258MOL0     H34791   0.689   6.997   7.182  1.2628  1.9913  0.2960
  258MOL0     H34792   0.585   6.934   7.306  1.1818  0.3944  0.9285
  258MOL0     H34793   0.523   7.066   7.189  1.2496 -1.0127 -1.4926
  258MOL0     H34794   0.261   7.235   7.809  0.6128 -1.3460 -0.1939
  258MOL0     H34795   0.023   7.175   7.868 -0.5867 -1.7127  0.0478
  258MOL0     H34796  -0.272   7.170   7.547  0.1350 -0.4041 -0.1204
  258MOL0     H34797  -0.253   7.002   7.533  1.2021  1.4986 -0.5856
  258MOL0     H34798  -0.475   7.034   7.617  1.1301 -0.2284 -1.1000
  258MOL0     H34799  -0.373   6.955   7.744 -3.2558 -0.5829  0.1781
  258MOL0     H34800  -0.461   7.238   7.753 -0.5995  0.4045  0.4843
  258MOL0     H34801  -0.338   7.162   7.851  1.7365 -1.3785 -1.7222
  258MOL0     H34802  -0.499   6.988   7.912  1.1678 -0.2018 -2.0581
  258MOL0     H34803  -0.562   7.152   7.958 -1.3267 -0.4002 -0.5267
  258MOL0     H34804  -0.649   6.952   7.759 -0.3549  0.1800 -1.0591
  258MOL0     H34805  -0.673   7.115   7.704  1.5960  0.1643  0.8810
  258MOL0     H34806  -0.831   7.156   7.877 -3.1196 -0.6460  0.1767
  258MOL0     H34807  -0.880   7.000   7.803 -0.3242 -0.5203  0.6527
  258MOL0     H34808  -0.737   7.025   8.062  3.1287  0.8565 -2.1952
  258MOL0     H34809  -0.782   6.877   7.974 -0.5974  0.0364  0.5329
  258MOL0     H34810  -0.918   7.035   8.149  1.1474  0.8804  0.5118
  258MOL0     H34811  -0.999   6.904   8.043  2.3758 -1.0904 -2.6681
  258MOL0     H34812  -0.063   7.117   7.448 -1.7349 -1.3493  2.4839
  258MOL0     H34813   0.164   7.168   7.392 -0.9990  0.2066 -0.2117
  258MOL0     H34814   0.592   7.334   7.616 -0.2895 -1.3056  0.8107
  258MOL0     H34815   0.828   7.374   7.586 -0.5321  0.5952 -0.5871
  258MOL0     H34816   1.130   8.631   7.249  0.4351 -2.3162  2.6170
  258MOL0     H34817   0.886   8.582   7.271  1.6217  0.1469  0.1870
  258MOL0     H34818   0.524   8.400   7.260 -2.2080 -0.5248  1.3973
  258MOL0     H34819   0.290   8.352   7.267 -2.5372 -2.2874 -0.4715
  258MOL0     H34820   0.088   8.234   6.877 -0.8816  1.8643 -0.2053
  258MOL0     H34821   0.087   8.078   6.957  1.5586  0.7825 -0.1915
  258MOL0     H34822  -0.142   8.141   6.923 -0.5906 -0.6328  1.4511
  258MOL0     H34823  -0.117   8.307   6.978 -0.4178  0.5527 -0.0200
  258MOL0     H34824  -0.104   8.234   7.209  1.9607  0.8559 -1.7740
  258MOL0     H34825  -0.135   8.066   7.146  0.3135 -0.3127 -0.2640
  258MOL0     H34826  -0.344   8.129   7.039 -1.0115  0.2371 -0.2704
  258MOL0     H34827  -0.342   8.291   7.109 -3.7328 -2.2463 -1.7457
  258MOL0     H34828  -0.461   8.055   7.441 -1.2665 -0.0185 -0.1716
  258MOL0     H34829   0.300   8.183   6.875  0.3701 -0.1985  0.8810
  258MOL0     H34830   0.531   8.251   6.852 -1.2594  0.7494 -0.3293
  259MOL0     O34831   2.921   4.320   2.896  0.1962 -1.0544  0.4428
  259MOL0     C34832   2.953   4.316   2.777  0.1627  0.0592 -0.3793
  259MOL0     O34833   2.866   4.292   2.674 -0.1508 -0.1487  0.0289
  259MOL0     C34834   2.732   4.274   2.711  0.6600  0.4537 -0.1862
  259MOL0     C34835   2.637   4.327   2.623 -0.5292 -0.2478 -0.2506
  259MOL0     C34836   2.502   4.324   2.648 -0.6054  0.1539 -0.4051
  259MOL0     C34837   2.455   4.256   2.763  0.0242  0.4504  0.2926
  259MOL0     O34838   2.325   4.265   2.784  0.5663 -0.3858 -0.7893
  259MOL0     C34839   2.265   4.160   2.864  0.0461 -0.2465 -0.0801
  259MOL0     C34840   2.120   4.140   2.831  0.3333  0.0508  0.1801
  259MOL0     C34841   2.036   4.166   2.957 -0.3905  0.6281  0.4949
  259MOL0     C34842   1.890   4.182   2.932 -0.9022 -0.0979  0.4298
  259MOL0     C34843   1.857   4.327   2.892  0.7717  0.1922 -0.0116
  259MOL0     C34844   1.721   4.378   2.933  0.3959  0.2424 -0.6997
  259MOL0     C34845   1.691   4.515   2.881  0.0800  0.7631 -0.8430
  259MOL0     C34846   1.552   4.557   2.937 -0.1376  0.4575 -0.9262
  259MOL0     N34847   1.519   4.688   2.885  0.8815  1.8346 -0.1576
  259MOL0     C34848   1.455   4.709   2.768 -1.1279 -0.0841 -0.1252
  259MOL0     C34849   1.440   4.847   2.769  0.3518 -0.6548  0.7489
  259MOL0     C34850   1.380   4.931   2.665  0.5847  0.1294  0.4063
  259MOL0     C34851   1.226   4.901   2.659  0.1565 -0.8287  0.4190
  259MOL0     C34852   1.165   4.984   2.544 -0.0976  0.6198  0.6434
  259MOL0     C34853   1.039   5.057   2.572  0.3856  0.4880 -0.4017
  259MOL0     O34854   0.996   5.123   2.448 -0.3889  0.2318  0.0112
  259MOL0     C34855   0.868   5.171   2.439 -0.1304 -0.1885  0.1660
  259MOL0     C34856   0.828   5.235   2.320 -0.0577 -0.7287  1.1610
  259MOL0     C34857   0.696   5.297   2.317 -0.2146 -0.0628  0.8358
  259MOL0     C34858   0.653   5.359   2.188  1.1975 -0.7749  1.6385
  259MOL0     C34859   0.617   5.314   2.430  0.4190  0.5804 -0.1478
  259MOL0     C34860   0.479   5.383   2.445  0.3320  1.1476  0.0210
  259MOL0     O34861   0.382   5.306   2.517  0.1705 -0.8286  0.1849
  259MOL0     C34862   0.247   5.345   2.512 -0.1833  0.0318  0.1154
  259MOL0     C34863   0.153   5.252   2.476 -0.1671  0.3448  0.1068
  259MOL0     C34864   0.015   5.287   2.470 -1.0013 -0.0599 -0.5572
  259MOL0     C34865  -0.034   5.417   2.498 -0.4031  0.2482 -0.2566
  259MOL0     O34866  -0.165   5.452   2.492 -0.0328  0.0682 -0.1636
  259MOL0     C34867  -0.256   5.356   2.438 -0.0328  0.0788  0.4642
  259MOL0     C34868  -0.375   5.443   2.400 -0.6901 -0.2248  0.5878
  259MOL0     C34869  -0.352   5.535   2.283  0.5592  0.8717 -0.0001
  259MOL0     C34870  -0.479   5.613   2.247  0.0087 -0.0322  0.3477
  259MOL0     C34871  -0.465   5.701   2.124 -0.7279  0.4518  0.2722
  259MOL0     C34872  -0.592   5.783   2.091 -0.4868  0.0953 -0.2828
  259MOL0     C34873  -0.585   5.899   1.997 -0.2804  0.5021  0.1876
  259MOL0     C34874  -0.484   6.007   2.031 -0.1651 -0.3867  0.2184
  259MOL0    Cl34875  -0.487   6.058   2.201 -0.1573  0.3136  0.3364
  259MOL0     C34876   0.068   5.509   2.536 -0.4432 -0.3771 -0.1513
  259MOL0     C34877   0.204   5.474   2.538  0.2996  0.1436 -0.6383
  259MOL0     O34878   0.452   5.479   2.371  0.1394  0.2796  0.4770
  259MOL0     C34879   0.662   5.241   2.543  0.4870  0.8532  0.4061
  259MOL0     C34880   0.781   5.167   2.550  0.3992  0.6200 -0.0208
  259MOL0     N34881   1.480   4.894   2.889 -0.3138  0.2658  0.2057
  259MOL0     N34882   1.532   4.797   2.954  0.2050 -0.7914  0.2100
  259MOL0     C34883   2.550   4.182   2.838 -0.0176  0.0075 -0.3728
  259MOL0     C34884   2.687   4.193   2.815  0.2243 -0.4139 -0.5219
  259MOL0     C34885   3.087   4.324   2.739 -0.0548  0.3874  1.0891
  259MOL0     C34886   3.188   4.418   2.789  0.3255 -0.2174 -0.8179
  259MOL0     C34887   3.317   4.422   2.735  0.4624 -0.0180 -0.0805
  259MOL0     C34888   3.344   4.349   2.620  0.5121  0.1953 -0.4576
  259MOL0     O34889   3.459   4.363   2.539 -0.0418 -0.2577 -0.1461
  259MOL0     C34890   3.561   4.440   2.602  0.2930  0.2991  0.9224
  259MOL0     C34891   3.696   4.453   2.525  0.5583  0.1436 -0.8539
  259MOL0     C34892   3.758   4.315   2.497 -0.4987 -0.7880  0.5802
  259MOL0     C34893   3.860   4.296   2.610  0.0036  0.2749  0.3220
  259MOL0     C34894   3.988   4.360   2.582  0.2457  1.0203 -0.1156
  259MOL0     C34895   4.093   4.406   2.549 -0.4191 -0.2506  0.2138
  259MOL0     C34896   3.254   4.255   2.573 -0.3818  0.6394  0.3052
  259MOL0     C34897   3.131   4.245   2.634  0.0783 -0.3815 -0.6159
  259MOL0     H34898   2.679   4.363   2.530 -0.8037  0.8176  0.0223
  259MOL0     H34899   2.437   4.380   2.581 -0.3260  0.7809 -0.1569
  259MOL0     H34900   2.309   4.064   2.835  0.0406 -0.3939  0.3888
  259MOL0     H34901   2.291   4.187   2.967  2.3213  0.9416 -0.9083
  259MOL0     H34902   2.093   4.219   2.760 -4.2299  1.6406  3.2212
  259MOL0     H34903   2.107   4.045   2.779  1.1024 -0.6231  1.1739
  259MOL0     H34904   2.055   4.073   3.011  0.6850 -0.5426 -1.7547
  259MOL0     H34905   2.080   4.252   3.009  1.6843 -0.4160  0.5709
  259MOL0     H34906   1.851   4.104   2.864  1.0951 -3.6759  3.0511
  259MOL0     H34907   1.844   4.153   3.027  1.0358  0.1560  1.4981
  259MOL0     H34908   1.923   4.400   2.939  1.7149 -0.4335 -0.3269
  259MOL0     H34909   1.863   4.340   2.783  1.3828  0.2961  0.0336
  259MOL0     H34910   1.647   4.305   2.900  0.5839  0.5159 -1.7620
  259MOL0     H34911   1.708   4.385   3.042  0.5773 -1.6230 -0.5308
  259MOL0     H34912   1.754   4.596   2.918 -3.5784  1.9533  3.7462
  259MOL0     H34913   1.704   4.502   2.773 -1.7430 -0.1081 -0.9958
  259MOL0     H34914   1.561   4.559   3.046  1.4317 -0.5012 -1.0151
  259MOL0     H34915   1.468   4.494   2.907  0.7646 -0.9175 -0.6502
  259MOL0     H34916   1.438   4.635   2.690  2.3764 -1.3162  0.1224
  259MOL0     H34917   1.400   5.037   2.683 -0.0993  0.0806  1.6001
  259MOL0     H34918   1.422   4.904   2.568 -0.4377  1.1125 -0.3389
  259MOL0     H34919   1.184   4.933   2.755  2.4568 -0.5535  1.3903
  259MOL0     H34920   1.204   4.794   2.648 -1.5405 -0.7138  2.1178
  259MOL0     H34921   1.154   4.914   2.460  1.9341  1.0931 -0.0748
  259MOL0     H34922   1.232   5.056   2.496  1.0759 -0.2912  0.8647
  259MOL0     H34923   1.048   5.136   2.647  0.1894  0.2438 -0.1195
  259MOL0     H34924   0.962   4.986   2.602  1.2575  0.1692  1.2338
  259MOL0     H34925   0.895   5.221   2.235 -3.7597  0.5939 -2.3263
  259MOL0     H34926   0.549   5.326   2.177  1.2556 -0.3920 -0.3059
  259MOL0     H34927   0.647   5.468   2.195  0.4445 -0.7557  0.7988
  259MOL0     H34928   0.708   5.337   2.096 -1.5781  0.9996 -0.6106
  259MOL0     H34929   0.192   5.152   2.462  0.1694  0.4129  0.5242
  259MOL0     H34930  -0.056   5.206   2.469 -1.5252  0.3033  1.4071
  259MOL0     H34931  -0.219   5.297   2.354 -1.5757 -0.5066  0.1758
  259MOL0     H34932  -0.285   5.285   2.516 -0.9476  0.5632  0.5787
  259MOL0     H34933  -0.465   5.391   2.365 -0.5213 -1.3032  1.6650
  259MOL0     H34934  -0.395   5.504   2.488 -1.0652 -2.6608  2.3118
  259MOL0     H34935  -0.319   5.477   2.197  0.1066  0.4963  0.0754
  259MOL0     H34936  -0.274   5.606   2.311  0.6426  0.1756  1.6450
  259MOL0     H34937  -0.551   5.539   2.211  1.0785  0.1261 -2.3380
  259MOL0     H34938  -0.520   5.665   2.334 -0.0607 -0.2798  0.4622
  259MOL0     H34939  -0.422   5.652   2.035  0.9844  1.6989  0.3558
  259MOL0     H34940  -0.390   5.778   2.145  0.0268 -0.0473 -0.4770
  259MOL0     H34941  -0.673   5.717   2.056 -0.8894  0.3379  0.1848
  259MOL0     H34942  -0.632   5.818   2.186  1.4337  0.6449  0.3660
  259MOL0     H34943  -0.685   5.943   1.997 -2.3324 -3.5619 -1.3223
  259MOL0     H34944  -0.582   5.861   1.894 -4.8281  0.2451 -0.0847
  259MOL0     H34945  -0.506   6.090   1.962  0.3120 -1.1098 -0.8168
  259MOL0     H34946  -0.385   5.965   2.012 -0.2332  0.5941 -3.0007
  259MOL0     H34947   0.034   5.605   2.571 -0.3714 -0.2777 -0.3493
  259MOL0     H34948   0.273   5.553   2.565 -1.9038  2.0511 -0.3081
  259MOL0     H34949   0.589   5.240   2.623 -2.5061  4.3887 -1.9534
  259MOL0     H34950   0.807   5.124   2.646 -0.9337 -2.7353 -1.0030
  259MOL0     H34951   2.523   4.117   2.920 -0.0471  2.1667  1.4164
  259MOL0     H34952   2.759   4.151   2.885 -0.2773 -0.5959 -0.1020
  259MOL0     H34953   3.164   4.479   2.875 -2.0791 -0.7183 -1.0591
  259MOL0     H34954   3.389   4.488   2.781  2.2360 -1.4679 -0.6740
  259MOL0     H34955   3.519   4.541   2.611  2.9011  1.3893  1.8267
  259MOL0     H34956   3.576   4.402   2.703 -1.5727 -0.5547  0.9167
  259MOL0     H34957   3.767   4.519   2.576 -0.2090 -0.5742  1.2233
  259MOL0     H34958   3.671   4.497   2.428  2.9788 -0.9486 -2.0620
  259MOL0     H34959   3.813   4.313   2.402  2.3692  0.0204  2.1422
  259MOL0     H34960   3.683   4.236   2.486  0.4418 -1.9148  1.9271
  259MOL0     H34961   3.875   4.187   2.612  1.1950  0.4433  2.2016
  259MOL0     H34962   3.817   4.340   2.700  1.0633 -1.7176  1.8793
  259MOL0     H34963   4.189   4.448   2.527 -0.7856 -0.0474 -1.0916
  259MOL0     H34964   3.273   4.196   2.484 -0.7388  2.1288 -0.8098
  259MOL0     H34965   3.066   4.173   2.584  0.1098 -0.4894 -0.5038
  260MOL0     O34966   7.068   6.603   4.611  0.7233 -0.8049 -0.0677
  260MOL0     C34967   7.075   6.719   4.654  0.4404 -0.5331 -0.4323
  260MOL0     O34968   6.972   6.789   4.700  0.1627  0.3867 -0.2071
  260MOL0     C34969   6.846   6.732   4.703 -0.1441  0.0861  0.3244
  260MOL0     C34970   6.781   6.704   4.822  0.0626  0.4662  0.3512
  260MOL0     C34971   6.658   6.645   4.825 -1.0607 -0.1764 -0.3431
  260MOL0     C34972   6.581   6.618   4.710 -0.3920 -0.5129 -0.5074
  260MOL0     O34973   6.459   6.562   4.704 -0.3712 -0.4746 -0.2899
  260MOL0     C34974   6.356   6.639   4.763  0.0194 -0.4258 -0.6016
  260MOL0     C34975   6.224   6.557   4.781 -0.1672 -0.7624 -0.1571
  260MOL0     C34976   6.123   6.626   4.870  0.0512 -0.8134  0.8915
  260MOL0     C34977   6.003   6.527   4.882 -0.1314 -0.5110 -0.7463
  260MOL0     C34978   5.868   6.604   4.941 -0.3885  0.0893  0.1496
  260MOL0     C34979   5.764   6.495   4.951 -0.3040  0.3426  0.6319
  260MOL0     C34980   5.637   6.558   5.011  1.3497  0.0996 -0.2460
  260MOL0     C34981   5.515   6.464   5.013  0.2837  0.3915  0.6298
  260MOL0     N34982   5.411   6.534   5.090  1.1434  0.8442  0.9220
  260MOL0     C34983   5.415   6.573   5.217  0.1761  0.1272  0.1383
  260MOL0     C34984   5.288   6.619   5.245 -0.2581  0.0651 -0.4928
  260MOL0     C34985   5.239   6.678   5.376 -0.8054 -0.1778 -0.4178
  260MOL0     C34986   5.090   6.675   5.395 -0.4566 -0.8833  0.3791
  260MOL0     C34987   5.050   6.538   5.438 -0.8272  0.2940  0.2530
  260MOL0     C34988   4.899   6.524   5.445 -0.2051 -0.4655  0.1221
  260MOL0     O34989   4.840   6.630   5.524  0.0095 -0.0440 -0.1571
  260MOL0     C34990   4.703   6.647   5.528 -0.7585  0.1605 -0.2093
  260MOL0     C34991   4.661   6.770   5.566 -0.0127 -0.0518 -0.0305
  260MOL0     C34992   4.529   6.813   5.578  0.2268  0.5231  0.1719
  260MOL0     C34993   4.497   6.947   5.640 -0.4549  0.1599 -0.0429
  260MOL0     C34994   4.433   6.729   5.533  0.7481 -0.3561  0.3582
  260MOL0     C34995   4.294   6.766   5.543 -0.0536  0.6139  0.3723
  260MOL0     O34996   4.231   6.840   5.439 -0.0072 -0.3257 -0.3235
  260MOL0     C34997   4.096   6.875   5.460  0.2109  0.2796 -0.0808
  260MOL0     C34998   3.995   6.807   5.400 -0.5467 -0.0674 -0.1355
  260MOL0     C34999   3.864   6.850   5.428 -0.7156  0.4388 -0.1036
  260MOL0     C35000   3.837   6.963   5.504 -0.2874 -0.6314  0.8670
  260MOL0     O35001   3.703   6.993   5.519 -0.6182 -0.0943  0.1986
  260MOL0     C35002   3.676   7.137   5.535 -0.0398 -0.4155 -0.2114
  260MOL0     C35003   3.528   7.157   5.536  0.1440  0.7625 -0.1671
  260MOL0     C35004   3.494   7.294   5.485 -0.1328 -0.4980 -0.6422
  260MOL0     C35005   3.350   7.332   5.521 -0.7236  0.5420 -0.1133
  260MOL0     C35006   3.320   7.483   5.523 -0.6679 -0.3812 -0.3200
  260MOL0     C35007   3.165   7.523   5.547 -0.7086  0.1712 -0.2258
  260MOL0     C35008   3.096   7.425   5.655 -0.3421 -0.2339  0.5666
  260MOL0     C35009   2.947   7.470   5.685  0.1220 -0.0135 -0.3265
  260MOL0    Cl35010   2.844   7.390   5.571  0.2811 -0.4087 -0.3370
  260MOL0     C35011   3.946   7.043   5.550  0.5340  0.5345  0.1210
  260MOL0     C35012   4.073   6.989   5.539  0.6072  0.5358 -0.8526
  260MOL0     O35013   4.238   6.725   5.648 -0.8880  0.0136 -0.6850
  260MOL0     C35014   4.464   6.600   5.486 -0.2316 -0.2308  0.8490
  260MOL0     C35015   4.603   6.558   5.485 -0.3597  0.4474 -0.7357
  260MOL0     N35016   5.217   6.619   5.124  0.5463  0.1543 -1.3974
  260MOL0     N35017   5.297   6.570   5.034  0.0361 -0.9767 -0.1747
  260MOL0     C35018   6.642   6.644   4.585  1.0016 -0.1918  0.0826
  260MOL0     C35019   6.767   6.712   4.587 -0.8355  0.2522  1.2058
  260MOL0     C35020   7.210   6.790   4.656  0.6690 -0.7707 -0.0203
  260MOL0     C35021   7.321   6.721   4.610 -0.3377 -0.3029 -0.6827
  260MOL0     C35022   7.445   6.777   4.612 -1.2907 -0.0097  0.4101
  260MOL0     C35023   7.465   6.912   4.648 -0.1164  0.0412 -0.0565
  260MOL0     O35024   7.583   6.987   4.655 -0.1727 -0.1107  0.2786
  260MOL0     C35025   7.702   6.926   4.609 -0.2287  0.1755  0.1723
  260MOL0     C35026   7.820   7.020   4.613 -0.7677  0.1706  0.3188
  260MOL0     C35027   7.956   6.949   4.591 -0.1929  0.3723 -0.6479
  260MOL0     C35028   8.063   7.056   4.532  0.3596  0.7639  0.2961
  260MOL0     C35029   8.191   6.994   4.490 -0.0003 -0.5198 -0.2501
  260MOL0     C35030   8.294   6.941   4.451  0.4358  0.1059  0.9964
  260MOL0     C35031   7.350   6.983   4.682 -0.0051 -0.4174  0.6014
  260MOL0     C35032   7.223   6.924   4.697  0.2106 -0.5993  0.5692
  260MOL0     H35033   6.837   6.712   4.915  3.2286 -2.2429 -1.1168
  260MOL0     H35034   6.619   6.634   4.926 -1.2061  2.4893 -0.0394
  260MOL0     H35035   6.397   6.666   4.861  1.9737 -0.1116 -1.4539
  260MOL0     H35036   6.338   6.729   4.703  0.0257 -0.1875 -0.2471
  260MOL0     H35037   6.192   6.530   4.680 -2.0875  1.3791 -0.2096
  260MOL0     H35038   6.247   6.459   4.823  2.2125  0.2895  1.1584
  260MOL0     H35039   6.179   6.640   4.962  1.5644  1.3572 -0.2647
  260MOL0     H35040   6.088   6.719   4.824 -1.9210 -0.5571  2.7704
  260MOL0     H35041   5.971   6.492   4.783  1.4718  1.5124 -2.0641
  260MOL0     H35042   6.037   6.445   4.946 -0.9692  1.4914  2.5411
  260MOL0     H35043   5.888   6.651   5.037  0.7972 -0.8400  0.3853
  260MOL0     H35044   5.836   6.680   4.869  0.7909 -0.9339 -1.5304
  260MOL0     H35045   5.737   6.448   4.855 -1.7501  0.4986  0.9385
  260MOL0     H35046   5.809   6.413   5.008  2.9473  1.5886  0.0448
  260MOL0     H35047   5.653   6.593   5.113 -2.8596  0.7932  0.3485
  260MOL0     H35048   5.607   6.644   4.950  0.0299  0.6455  1.1098
  260MOL0     H35049   5.548   6.372   5.064  3.7111  1.6255  0.9231
  260MOL0     H35050   5.485   6.448   4.909 -0.3315 -2.2319  1.1249
  260MOL0     H35051   5.502   6.572   5.282  0.9086 -1.4750 -0.8252
  260MOL0     H35052   5.293   6.628   5.457  2.0495 -0.8696 -2.5387
  260MOL0     H35053   5.265   6.784   5.371  1.3624 -0.6865 -0.8960
  260MOL0     H35054   5.035   6.708   5.306  0.5742  1.8728  0.6521
  260MOL0     H35055   5.072   6.746   5.476 -0.7048  1.0782 -1.3185
  260MOL0     H35056   5.101   6.528   5.534  0.2010  1.4166 -0.1509
  260MOL0     H35057   5.087   6.461   5.368 -2.6132 -1.0958  0.7570
  260MOL0     H35058   4.880   6.424   5.484  1.4651 -1.2477 -0.9259
  260MOL0     H35059   4.853   6.530   5.346 -1.3411 -1.1241  0.5929
  260MOL0     H35060   4.743   6.832   5.600 -2.2077  2.0603  1.8847
  260MOL0     H35061   4.451   6.953   5.739 -0.2622  0.1151  0.0492
  260MOL0     H35062   4.589   7.005   5.653 -0.1204 -0.1059 -1.1352
  260MOL0     H35063   4.442   7.006   5.566  0.6235  1.1099 -0.1195
  260MOL0     H35064   4.014   6.726   5.330 -0.7496 -0.4618  0.2619
  260MOL0     H35065   3.778   6.801   5.384 -0.1303  0.5739 -1.4459
  260MOL0     H35066   3.723   7.165   5.630  0.8047 -1.3083 -0.3385
  260MOL0     H35067   3.716   7.186   5.447 -1.8340 -0.1078 -0.8853
  260MOL0     H35068   3.489   7.082   5.467  0.7818 -0.5010  0.7988
  260MOL0     H35069   3.489   7.131   5.635  0.8774  0.7080  0.1120
  260MOL0     H35070   3.515   7.294   5.377 -0.0865  0.2630 -0.6377
  260MOL0     H35071   3.559   7.360   5.542 -1.6590  1.1113 -0.6955
  260MOL0     H35072   3.280   7.279   5.456 -0.3142 -0.0185 -0.1030
  260MOL0     H35073   3.327   7.302   5.624 -1.3554 -0.9359 -0.6557
  260MOL0     H35074   3.350   7.524   5.426  0.3894 -1.7351 -0.6060
  260MOL0     H35075   3.385   7.533   5.595 -0.6606 -1.7727  0.6968
  260MOL0     H35076   3.150   7.625   5.582  0.9770  0.1160  0.7390
  260MOL0     H35077   3.106   7.517   5.454 -1.4022  2.7007 -0.0162
  260MOL0     H35078   3.156   7.430   5.746  2.4942 -1.2650 -1.1048
  260MOL0     H35079   3.081   7.322   5.623  0.1883 -1.0284  2.6940
  260MOL0     H35080   2.940   7.577   5.667  1.4033 -0.2430 -2.7921
  260MOL0     H35081   2.899   7.450   5.780  1.2900 -0.3511  0.2139
  260MOL0     H35082   3.929   7.134   5.607 -0.5053  0.7714 -0.5395
  260MOL0     H35083   4.153   7.045   5.587  1.8380 -0.1978 -1.9761
  260MOL0     H35084   4.390   6.536   5.440 -1.7182  1.4634  0.7889
  260MOL0     H35085   4.636   6.464   5.443  0.8454  0.6311 -0.2538
  260MOL0     H35086   6.593   6.621   4.490  0.5761 -1.4072  0.5774
  260MOL0     H35087   6.812   6.744   4.493 -1.3760  0.4738  1.0216
  260MOL0     H35088   7.322   6.621   4.568  0.8392  0.4027 -2.4450
  260MOL0     H35089   7.536   6.728   4.579  0.5180  2.5429  1.3470
  260MOL0     H35090   7.722   6.847   4.682  1.2971  1.0533  0.7564
  260MOL0     H35091   7.686   6.885   4.509 -0.4062  1.3885 -0.3061
  260MOL0     H35092   7.816   7.080   4.704 -1.1437 -1.5499  1.4813
  260MOL0     H35093   7.798   7.089   4.531  3.6751  1.6547  0.1183
  260MOL0     H35094   7.957   6.859   4.528  0.7812 -0.8766  1.0727
  260MOL0     H35095   7.999   6.911   4.684  0.5841 -2.2579 -1.9849
  260MOL0     H35096   8.081   7.114   4.623 -0.8422 -0.0364  1.0851
  260MOL0     H35097   8.016   7.114   4.452 -1.6713 -1.7892 -0.5347
  260MOL0     H35098   8.377   6.885   4.414 -1.2577 -1.9772  0.1427
  260MOL0     H35099   7.355   7.088   4.707  3.8395 -0.5489  0.9500
  260MOL0     H35100   7.129   6.972   4.724 -0.4372 -1.2256 -0.4571
  261MOL0     O35101   3.047   0.983   4.168 -0.7992  0.5093 -0.8348
  261MOL0     C35102   3.062   1.101   4.141  0.1960  0.1584  0.3451
  261MOL0     O35103   2.970   1.183   4.087 -0.1542  0.3227  0.6901
  261MOL0     C35104   2.846   1.125   4.054  0.1407  0.0938  0.9055
  261MOL0     C35105   2.814   1.078   3.924  0.4587  0.0203  0.6983
  261MOL0     C35106   2.693   1.021   3.900  0.0835  0.6954  0.0799
  261MOL0     C35107   2.594   1.015   4.000 -0.5595  0.4594  0.3624
  261MOL0     O35108   2.479   0.956   3.959 -0.4030 -0.6521 -0.0199
  261MOL0     C35109   2.367   0.954   4.042  0.5969 -0.1933  0.5081
  261MOL0     C35110   2.241   0.908   3.963 -1.0303 -0.2086 -0.8554
  261MOL0     C35111   2.127   0.883   4.058  0.7768 -0.8388 -0.1261
  261MOL0     C35112   1.990   0.842   3.993 -0.6462 -0.4067  0.3168
  261MOL0     C35113   1.863   0.842   4.078 -0.3114  0.6557 -0.0771
  261MOL0     C35114   1.879   0.756   4.203 -0.6445 -0.0162 -0.0593
  261MOL0     C35115   1.748   0.756   4.277 -0.2772 -0.2115  0.2477
  261MOL0     C35116   1.640   0.676   4.216  1.4675 -0.5850 -0.6391
  261MOL0     N35117   1.535   0.640   4.314  0.0896  0.9453 -0.3082
  261MOL0     C35118   1.487   0.509   4.335 -0.9116  0.2505 -0.1606
  261MOL0     C35119   1.365   0.525   4.396 -0.6770  0.0903 -0.3339
  261MOL0     C35120   1.284   0.408   4.440  0.8022  0.2375  0.3827
  261MOL0     C35121   1.139   0.448   4.435  0.3061  0.3952  0.8395
  261MOL0     C35122   1.051   0.331   4.457  0.0260  0.0820 -0.1542
  261MOL0     C35123   1.048   0.278   4.602 -0.3308 -0.3805  0.0576
  261MOL0     O35124   1.043   0.377   4.705 -0.1227 -0.1542 -0.0322
  261MOL0     C35125   1.059   0.334   4.839  0.7991 -0.6006  0.6771
  261MOL0     C35126   1.172   0.269   4.875 -0.1297 -0.8942  0.0636
  261MOL0     C35127   1.201   0.229   5.005  0.0022  0.0156 -0.9731
  261MOL0     C35128   1.333   0.153   5.028 -0.9513  0.3342  0.4741
  261MOL0     C35129   1.097   0.249   5.105 -0.4962  0.0596  0.8004
  261MOL0     C35130   1.125   0.211   5.246  0.1760 -0.0853 -0.2105
  261MOL0     O35131   1.025   0.143   5.311 -0.8116 -0.4002  0.0654
  261MOL0     C35132   1.039   0.122   5.444 -0.3870  0.8889  0.1883
  261MOL0     C35133   1.153   0.047   5.483 -0.9108 -0.3912 -1.1112
  261MOL0     C35134   1.165   0.011   5.626 -0.1080 -0.2499  0.1560
  261MOL0     C35135   1.060   0.039   5.711  0.7697 -0.6889 -0.7490
  261MOL0     O35136   1.067   0.002   5.846 -0.8420  0.1211 -0.0266
  261MOL0     C35137   1.028  -0.130   5.881  0.0505 -0.7179  0.5073
  261MOL0     C35138   0.885  -0.133   5.932  0.0327 -0.0757  0.1790
  261MOL0     C35139   0.830  -0.007   6.011  0.6585 -0.2027  1.1186
  261MOL0     C35140   0.671  -0.009   6.025 -0.3183  0.6371 -0.0933
  261MOL0     C35141   0.633   0.099   6.127  0.2688  0.1106 -0.1382
  261MOL0     C35142   0.492   0.085   6.180  0.1553 -0.7979 -0.6408
  261MOL0     C35143   0.378   0.119   6.078  0.1906  0.2120  0.6065
  261MOL0     C35144   0.243   0.112   6.151 -0.3485 -0.8648  0.1822
  261MOL0    Cl35145   0.102   0.145   6.047  0.2465 -0.0421 -0.3042
  261MOL0     C35146   0.950   0.124   5.666 -0.3768  0.4809  0.7045
  261MOL0     C35147   0.945   0.157   5.532  0.0343 -0.1365 -0.0251
  261MOL0     O35148   1.232   0.240   5.295 -0.7037  0.0319 -0.8691
  261MOL0     C35149   0.979   0.313   5.066 -0.3385  0.4020 -0.6901
  261MOL0     C35150   0.961   0.353   4.934 -0.1406 -0.3116 -0.1834
  261MOL0     N35151   1.338   0.660   4.412 -0.1790 -0.8882  0.5511
  261MOL0     N35152   1.433   0.726   4.351  0.3299 -0.5032 -0.2021
  261MOL0     C35153   2.626   1.051   4.128 -0.2078 -0.2234  0.0715
  261MOL0     C35154   2.752   1.112   4.154  0.6346  0.3434 -0.1898
  261MOL0     C35155   3.196   1.159   4.172  0.2292  0.0199 -0.0961
  261MOL0     C35156   3.223   1.300   4.152 -0.2927  0.8918  0.3236
  261MOL0     C35157   3.346   1.347   4.171 -1.3687 -0.4368 -0.8859
  261MOL0     C35158   3.453   1.261   4.204  0.3369 -0.6811 -0.0978
  261MOL0     O35159   3.579   1.324   4.229 -0.5642  0.4778 -0.7920
  261MOL0     C35160   3.580   1.436   4.313  0.6557  0.4469  0.1212
  261MOL0     C35161   3.714   1.451   4.395 -0.0047 -0.2435 -0.1202
  261MOL0     C35162   3.838   1.479   4.297 -0.3535  0.4430 -0.0815
  261MOL0     C35163   3.964   1.505   4.387  0.4364  0.2977 -1.1212
  261MOL0     C35164   3.999   1.389   4.465 -0.6026 -0.1107 -0.5829
  261MOL0     C35165   4.032   1.283   4.527  0.1136  0.3559  0.1589
  261MOL0     C35166   3.432   1.123   4.227  0.7332 -0.3282  0.3238
  261MOL0     C35167   3.303   1.068   4.210 -1.5962 -0.4687  0.8511
  261MOL0     H35168   2.873   1.098   3.836 -1.0639 -1.2225 -0.6683
  261MOL0     H35169   2.691   0.973   3.803  3.5399 -0.4950  0.4628
  261MOL0     H35170   2.381   0.881   4.122  1.5280  1.3069  1.7759
  261MOL0     H35171   2.351   1.051   4.090  0.7947 -0.3879  0.9658
  261MOL0     H35172   2.215   0.989   3.894  0.2755  0.1760 -0.9303
  261MOL0     H35173   2.275   0.820   3.908  1.7107  0.8819 -1.0996
  261MOL0     H35174   2.153   0.817   4.141 -1.8285  2.1132  3.3791
  261MOL0     H35175   2.111   0.975   4.114  2.6137 -0.8005  0.3969
  261MOL0     H35176   1.982   0.917   3.914 -0.2264  3.7229  3.8211
  261MOL0     H35177   2.000   0.747   3.939  0.8683  0.2870 -0.6905
  261MOL0     H35178   1.835   0.939   4.119  1.4505  0.3109  2.1429
  261MOL0     H35179   1.781   0.815   4.011  0.5310  0.4119 -1.0452
  261MOL0     H35180   1.907   0.651   4.193 -1.0596 -0.1717  0.3332
  261MOL0     H35181   1.951   0.804   4.270 -0.8546  2.3708 -1.4448
  261MOL0     H35182   1.761   0.726   4.381  0.9375  1.9358  0.7608
  261MOL0     H35183   1.712   0.859   4.283  2.5986  0.9512 -0.7247
  261MOL0     H35184   1.676   0.586   4.167 -0.4411 -2.4704  1.2091
  261MOL0     H35185   1.589   0.736   4.140 -0.2561 -0.7015  0.3742
  261MOL0     H35186   1.557   0.428   4.317  0.9933  2.1016 -1.5907
  261MOL0     H35187   1.312   0.316   4.387 -1.3330 -0.4910  0.4194
  261MOL0     H35188   1.311   0.392   4.545  0.9681 -0.0859  0.2939
  261MOL0     H35189   1.121   0.489   4.335  0.0747  0.7201  1.0168
  261MOL0     H35190   1.112   0.534   4.497 -0.2314  0.3133  0.7208
  261MOL0     H35191   1.078   0.253   4.384  0.9761  0.8730 -0.6789
  261MOL0     H35192   0.951   0.364   4.428 -1.3984 -1.2567  2.8093
  261MOL0     H35193   1.129   0.208   4.621 -0.8124 -1.4403 -1.5848
  261MOL0     H35194   0.958   0.215   4.606 -0.0838 -0.7949 -0.6859
  261MOL0     H35195   1.248   0.251   4.799  0.8747 -1.4045  1.1365
  261MOL0     H35196   1.335   0.073   4.953  2.4663  0.3337  0.3989
  261MOL0     H35197   1.419   0.220   5.021 -0.2137 -0.6780 -0.3755
  261MOL0     H35198   1.338   0.093   5.120  1.7006  0.3736  0.4449
  261MOL0     H35199   1.226   0.015   5.409 -1.2635 -0.7702 -1.2942
  261MOL0     H35200   1.250  -0.044   5.665  1.8314  3.3861  1.4681
  261MOL0     H35201   1.040  -0.214   5.812 -4.0466 -1.4699  0.4683
  261MOL0     H35202   1.094  -0.163   5.961  0.4451 -1.5030 -0.1285
  261MOL0     H35203   0.816  -0.146   5.848  0.0361 -2.1581  0.4276
  261MOL0     H35204   0.870  -0.230   5.981 -0.8619  0.9859  2.0922
  261MOL0     H35205   0.864   0.089   5.971 -0.8087 -0.2250 -0.2747
  261MOL0     H35206   0.880  -0.009   6.108  1.2821  2.1485  0.8985
  261MOL0     H35207   0.613   0.003   5.933  1.7218  1.8563 -1.2780
  261MOL0     H35208   0.642  -0.106   6.067 -2.7527  2.1151  1.9710
  261MOL0     H35209   0.653   0.192   6.074 -1.9033  1.7321  1.7269
  261MOL0     H35210   0.701   0.089   6.213  1.2120 -2.6107 -1.0861
  261MOL0     H35211   0.476  -0.021   6.200 -0.9477 -0.5830 -0.3030
  261MOL0     H35212   0.486   0.142   6.273  2.7384 -0.9951 -0.2655
  261MOL0     H35213   0.382   0.059   5.987  0.9541  1.8912 -0.5114
  261MOL0     H35214   0.397   0.222   6.046  3.9951 -0.0880  1.4604
  261MOL0     H35215   0.235   0.188   6.230 -0.3868  2.2557 -2.6050
  261MOL0     H35216   0.242   0.005   6.173  1.8791 -1.6603 -2.9493
  261MOL0     H35217   0.875   0.133   5.743 -1.1081 -3.3862  0.6614
  261MOL0     H35218   0.857   0.216   5.510 -0.9991 -1.0382  1.5086
  261MOL0     H35219   0.902   0.330   5.140 -0.3269 -3.0164  0.2717
  261MOL0     H35220   0.875   0.409   4.899  0.0470 -1.4180 -2.5827
  261MOL0     H35221   2.545   1.062   4.199 -2.3222 -0.5970 -2.1751
  261MOL0     H35222   2.789   1.144   4.250  0.9621 -0.7186  0.0572
  261MOL0     H35223   3.146   1.369   4.119 -1.2461 -1.3461 -2.5300
  261MOL0     H35224   3.361   1.452   4.149 -1.0954 -0.4808 -0.9127
  261MOL0     H35225   3.558   1.532   4.266  0.3788  1.2782  1.8689
  261MOL0     H35226   3.501   1.414   4.385 -1.2141 -0.9791 -2.1960
  261MOL0     H35227   3.731   1.364   4.459 -3.0351 -1.7635 -1.1964
  261MOL0     H35228   3.692   1.537   4.460 -1.0442  1.0810 -2.1442
  261MOL0     H35229   3.820   1.569   4.238 -0.0148  0.8705  0.4651
  261MOL0     H35230   3.857   1.393   4.231 -3.7378 -0.0731 -0.5494
  261MOL0     H35231   3.943   1.588   4.455  0.3801 -0.1433 -0.5889
  261MOL0     H35232   4.046   1.524   4.317 -0.5739  0.6269 -2.2443
  261MOL0     H35233   4.051   1.199   4.591 -1.3373  0.9751  1.4651
  261MOL0     H35234   3.523   1.063   4.232  1.8795  1.2316 -0.7681
  261MOL0     H35235   3.275   0.964   4.224  3.1294 -2.0458  0.3789
  262MOL0     O35236   1.756   7.305   7.344  0.2460  0.1544  0.4105
  262MOL0     C35237   1.800   7.318   7.457 -0.2148 -0.4673 -0.7355
  262MOL0     O35238   1.795   7.220   7.556  0.1204 -0.1687 -0.4203
  262MOL0     C35239   1.730   7.107   7.513 -0.5631  0.1200 -1.1026
  262MOL0     C35240   1.804   7.009   7.460 -0.1344  0.1365 -0.3134
  262MOL0     C35241   1.749   6.883   7.437  0.4003  0.1988  0.0780
  262MOL0     C35242   1.616   6.860   7.476 -0.1970 -0.0040  0.3532
  262MOL0     O35243   1.560   6.737   7.442 -0.0613 -0.1154 -0.3688
  262MOL0     C35244   1.461   6.689   7.530 -0.4984  0.4130  0.2881
  262MOL0     C35245   1.413   6.560   7.463  0.3050 -0.0959 -0.1032
  262MOL0     C35246   1.333   6.571   7.328 -0.3608  0.2335 -0.3379
  262MOL0     C35247   1.255   6.448   7.280  0.6786  0.4931  0.4164
  262MOL0     C35248   1.152   6.398   7.395  1.0471  0.0467 -0.1762
  262MOL0     C35249   1.046   6.313   7.323 -0.3422 -0.2776  0.1719
  262MOL0     C35250   0.942   6.265   7.419 -0.0689 -0.0188  0.4959
  262MOL0     C35251   0.870   6.138   7.366  0.3800 -0.7162  0.3828
  262MOL0     N35252   0.759   6.188   7.274  0.8723  0.5979  0.9716
  262MOL0     C35253   0.661   6.277   7.303 -0.2713  0.9935  0.4366
  262MOL0     C35254   0.585   6.278   7.199  0.6343  0.0351  0.3031
  262MOL0     C35255   0.455   6.359   7.196 -0.1050 -0.0340 -0.4416
  262MOL0     C35256   0.478   6.501   7.157 -0.4008  0.0845 -0.1968
  262MOL0     C35257   0.346   6.571   7.133  0.8262  0.0113 -0.3722
  262MOL0     C35258   0.248   6.585   7.253  0.5821  0.0438  0.1142
  262MOL0     O35259   0.149   6.665   7.193  0.7155  0.2770  0.2928
  262MOL0     C35260   0.022   6.659   7.243  0.0888  0.3780  0.1771
  262MOL0     C35261  -0.059   6.541   7.215  0.4141 -0.9518  0.7402
  262MOL0     C35262  -0.194   6.541   7.253  0.8061 -0.0020  0.6202
  262MOL0     C35263  -0.264   6.399   7.228 -0.0227 -0.5684 -0.0407
  262MOL0     C35264  -0.258   6.658   7.308  0.2256  1.1716  0.4707
  262MOL0     C35265  -0.406   6.665   7.347 -1.0375 -0.2995 -0.5027
  262MOL0     O35266  -0.445   6.770   7.420 -0.4620 -0.3314 -0.5708
  262MOL0     C35267  -0.573   6.800   7.443 -0.1070 -1.3206 -0.3457
  262MOL0     C35268  -0.632   6.917   7.378 -0.1940  0.7940 -0.6185
  262MOL0     C35269  -0.769   6.953   7.403 -0.2934 -0.3229  0.3320
  262MOL0     C35270  -0.855   6.870   7.477 -0.2966  0.2105 -0.3699
  262MOL0     O35271  -0.989   6.905   7.475 -0.6275 -0.1369 -0.0176
  262MOL0     C35272  -1.064   6.852   7.578 -0.2615  0.6638 -0.5359
  262MOL0     C35273  -1.205   6.916   7.585 -0.4483  0.3531  0.0576
  262MOL0     C35274  -1.278   6.884   7.719  0.0852  0.4461  0.5988
  262MOL0     C35275  -1.407   6.973   7.743  0.2344 -0.2716 -0.6673
  262MOL0     C35276  -1.467   6.953   7.880  0.1769  0.1944  0.2328
  262MOL0     C35277  -1.380   7.002   7.983 -0.8362  0.0244  0.0809
  262MOL0     C35278  -1.456   7.018   8.118 -1.0381  0.2219  0.5549
  262MOL0     C35279  -1.357   7.074   8.234  0.4987 -0.5036  0.8900
  262MOL0    Cl35280  -1.222   6.967   8.269 -0.1259 -0.4274  0.2158
  262MOL0     C35281  -0.790   6.760   7.541 -0.0880  0.7831 -0.4447
  262MOL0     C35282  -0.653   6.731   7.529 -0.0714  0.2717 -0.8317
  262MOL0     O35283  -0.484   6.574   7.316  0.9810  0.2230 -0.8678
  262MOL0     C35284  -0.181   6.772   7.328 -0.4088  0.5711  0.4922
  262MOL0     C35285  -0.044   6.768   7.310 -0.1975 -0.3599  0.1635
  262MOL0     N35286   0.627   6.198   7.098  0.2317 -0.1545  0.3550
  262MOL0     N35287   0.736   6.139   7.148  1.0554  0.2405  0.3756
  262MOL0     C35288   1.540   6.969   7.525  0.6574 -0.0591 -0.4074
  262MOL0     C35289   1.594   7.098   7.542 -0.4560 -0.1999 -0.6959
  262MOL0     C35290   1.847   7.456   7.494 -0.1683 -0.1788  0.0847
  262MOL0     C35291   1.781   7.575   7.455  0.0518 -0.3161 -0.9483
  262MOL0     C35292   1.829   7.701   7.487 -0.8039 -0.6367  0.0026
  262MOL0     C35293   1.950   7.710   7.553 -0.6845  0.1595  0.2468
  262MOL0     O35294   2.018   7.828   7.581  0.5162 -0.4295 -0.4171
  262MOL0     C35295   1.978   7.955   7.523 -0.4296  0.6447 -0.0066
  262MOL0     C35296   1.890   8.036   7.619  0.0165 -1.2068 -0.4259
  262MOL0     C35297   1.743   7.986   7.642 -0.3991  0.3666  0.4718
  262MOL0     C35298   1.660   8.091   7.708  0.2309 -0.9573  0.9191
  262MOL0     C35299   1.719   8.140   7.829 -0.0391  0.5446 -0.4710
  262MOL0     C35300   1.774   8.197   7.922  0.3522  0.8352  0.1271
  262MOL0     C35301   2.012   7.595   7.603  0.2959 -0.1643  0.4797
  262MOL0     C35302   1.961   7.471   7.569 -0.1622  0.3435 -1.0805
  262MOL0     H35303   1.907   7.036   7.439 -0.2421  1.1589  0.3911
  262MOL0     H35304   1.800   6.801   7.387  3.1022  0.8065  1.6550
  262MOL0     H35305   1.500   6.680   7.632  3.0818  2.8608 -0.6636
  262MOL0     H35306   1.381   6.763   7.541 -1.7873 -0.8379 -0.3636
  262MOL0     H35307   1.497   6.491   7.463  2.1035  1.9874 -0.0428
  262MOL0     H35308   1.353   6.516   7.543 -0.4639 -0.4849 -0.8823
  262MOL0     H35309   1.252   6.643   7.343  0.6164  1.7231 -1.8591
  262MOL0     H35310   1.398   6.603   7.246 -2.6370 -0.2742 -2.4660
  262MOL0     H35311   1.201   6.478   7.190  2.4023 -1.4057 -1.3627
  262MOL0     H35312   1.323   6.372   7.240  0.6538  1.0020 -0.6125
  262MOL0     H35313   1.211   6.343   7.468  0.6764  0.5025  0.4762
  262MOL0     H35314   1.101   6.483   7.442  0.0069 -1.3348  1.2809
  262MOL0     H35315   0.992   6.365   7.243  0.4478  2.3353  1.2440
  262MOL0     H35316   1.103   6.227   7.287 -0.3114  0.3116 -1.2822
  262MOL0     H35317   0.990   6.263   7.517  1.7577  4.2677 -0.0659
  262MOL0     H35318   0.865   6.341   7.433  0.5150  0.6783  0.0391
  262MOL0     H35319   0.828   6.080   7.448  1.6764 -1.0151  0.8700
  262MOL0     H35320   0.940   6.069   7.316  1.1889 -0.4637  1.1466
  262MOL0     H35321   0.651   6.323   7.401 -1.2736 -0.2315  0.9347
  262MOL0     H35322   0.393   6.310   7.120  1.5177  0.4569 -2.1778
  262MOL0     H35323   0.404   6.365   7.292  0.7888  0.9745 -0.0109
  262MOL0     H35324   0.538   6.507   7.066 -1.9557  1.8351 -1.1798
  262MOL0     H35325   0.532   6.556   7.235 -1.3531  2.9678 -1.3994
  262MOL0     H35326   0.290   6.518   7.055  0.6847 -1.0167  0.4063
  262MOL0     H35327   0.364   6.673   7.098 -1.9820  1.2928  1.6076
  262MOL0     H35328   0.294   6.630   7.341  1.3369  0.9391 -0.7155
  262MOL0     H35329   0.200   6.496   7.295  0.1479  1.0879  1.9057
  262MOL0     H35330  -0.014   6.466   7.150 -1.2660 -1.5935  0.2784
  262MOL0     H35331  -0.303   6.379   7.128 -1.7697 -1.3225  0.7530
  262MOL0     H35332  -0.199   6.314   7.252 -0.5661 -0.6867  1.0948
  262MOL0     H35333  -0.341   6.385   7.305 -1.8914  1.7372 -1.3630
  262MOL0     H35334  -0.565   6.976   7.316 -0.7295  2.2930  0.1911
  262MOL0     H35335  -0.803   7.040   7.349  0.9415  0.3443  0.5971
  262MOL0     H35336  -1.070   6.743   7.568  2.0983  0.4879 -0.6396
  262MOL0     H35337  -1.019   6.882   7.674 -3.8961  1.1697  1.1844
  262MOL0     H35338  -1.188   7.024   7.577  7.7189 -0.3754 -0.6313
  262MOL0     H35339  -1.264   6.889   7.497  3.5512 -1.3643 -2.3829
  262MOL0     H35340  -1.206   6.894   7.800 -1.3429  1.6184  1.7828
  262MOL0     H35341  -1.303   6.778   7.713 -2.0523  0.9903 -1.2682
  262MOL0     H35342  -1.377   7.077   7.726 -0.0518 -0.2119 -0.8142
  262MOL0     H35343  -1.482   6.943   7.669  0.3274 -0.1129 -0.8289
  262MOL0     H35344  -1.477   6.845   7.895  1.2568 -0.1863 -1.5077
  262MOL0     H35345  -1.565   7.000   7.894  0.1822  0.1426  0.4591
  262MOL0     H35346  -1.296   6.934   7.999  0.9002  2.0537  0.0383
  262MOL0     H35347  -1.337   7.098   7.952 -1.5157  0.2074 -0.3355
  262MOL0     H35348  -1.487   6.917   8.146 -2.5293  0.5928  0.3375
  262MOL0     H35349  -1.545   7.079   8.098 -1.1147 -0.2525 -0.6377
  262MOL0     H35350  -1.413   7.103   8.324 -0.5017  0.8219 -0.1287
  262MOL0     H35351  -1.329   7.174   8.199 -2.9255 -0.3479 -1.9012
  262MOL0     H35352  -0.844   6.695   7.608  0.7645  1.1337  0.5999
  262MOL0     H35353  -0.604   6.653   7.585  1.4232  2.2772  0.8139
  262MOL0     H35354  -0.228   6.862   7.368 -2.0667 -0.4453  0.9457
  262MOL0     H35355   0.024   6.852   7.316  0.6688 -1.0508  0.2554
  262MOL0     H35356   1.434   6.955   7.538  0.6034 -4.4937 -3.5467
  262MOL0     H35357   1.531   7.184   7.561 -1.0032 -0.5487 -0.9007
  262MOL0     H35358   1.689   7.561   7.400 -0.8611 -2.3594  0.9451
  262MOL0     H35359   1.779   7.791   7.453  0.6557 -0.2683 -1.3106
  262MOL0     H35360   2.068   8.014   7.503  0.9093 -0.3543  2.6006
  262MOL0     H35361   1.926   7.938   7.429  0.9665  2.7439 -1.2414
  262MOL0     H35362   1.877   8.134   7.572 -0.6390 -0.9202  0.3296
  262MOL0     H35363   1.945   8.047   7.712 -1.3156  0.3750  0.2178
  262MOL0     H35364   1.755   7.894   7.701  1.6451 -0.3132 -0.8896
  262MOL0     H35365   1.693   7.956   7.550  0.0496 -1.5811  0.8149
  262MOL0     H35366   1.566   8.049   7.743 -0.2445  1.2416  2.4668
  262MOL0     H35367   1.638   8.175   7.643  0.4801 -0.3320  1.6265
  262MOL0     H35368   1.835   8.240   7.999  2.5057  1.6690 -1.9141
  262MOL0     H35369   2.105   7.598   7.660  0.7876 -2.5387 -0.1138
  262MOL0     H35370   2.020   7.388   7.608 -2.2022 -1.8425 -2.3844
  263MOL0     O35371   2.483  10.988   7.399 -0.3266 -0.7663  0.4617
  263MOL0     C35372   2.512  10.872   7.376  0.3114  0.6632 -0.8505
  263MOL0     O35373   2.428  10.763   7.390  0.2275 -0.1625 -0.3257
  263MOL0     C35374   2.302  10.796   7.452 -0.3613 -0.1126  0.6044
  263MOL0     C35375   2.278  10.874   7.564  0.3679 -0.1713 -0.0915
  263MOL0     C35376   2.141  10.909   7.590 -0.8960  0.5818 -0.5902
  263MOL0     C35377   2.038  10.865   7.511  0.9955  0.0641 -0.6491
  263MOL0     O35378   1.905  10.900   7.538  0.0413  0.1583  0.4533
  263MOL0     C35379   1.814  10.928   7.435 -0.3733  0.0717 -0.1981
  263MOL0     C35380   1.691  11.013   7.496  0.2264  1.1206  1.1063
  263MOL0     C35381   1.612  10.922   7.591  0.6865 -0.5460 -0.1541
  263MOL0     C35382   1.470  10.982   7.614 -0.3486  0.9005 -1.1966
  263MOL0     C35383   1.411  10.933   7.749 -0.9059  0.3514  1.1209
  263MOL0     C35384   1.352  10.788   7.738 -0.5922 -0.2522  0.2194
  263MOL0     C35385   1.215  10.772   7.668  0.2379 -0.0892 -0.1169
  263MOL0     C35386   1.111  10.863   7.740 -0.0607  0.4833 -0.8770
  263MOL0     N35387   0.970  10.824   7.712 -0.5396  0.5132  0.5317
  263MOL0     C35388   0.850  10.887   7.740  0.3660 -0.5784 -0.2570
  263MOL0     C35389   0.752  10.805   7.697  0.1295  0.1552  0.0688
  263MOL0     C35390   0.599  10.827   7.698  0.3945 -0.5336 -0.0206
  263MOL0     C35391   0.513  10.708   7.724 -0.4578  0.3201 -0.6326
  263MOL0     C35392   0.367  10.763   7.732  0.0474  0.1274 -0.6809
  263MOL0     C35393   0.260  10.655   7.761  0.4471 -0.2607 -0.7832
  263MOL0     O35394   0.124  10.699   7.735  0.3049 -0.0380  0.1217
  263MOL0     C35395   0.024  10.679   7.826 -0.3921  0.0100 -0.0869
  263MOL0     C35396  -0.096  10.746   7.799 -0.0314  0.2392  0.1980
  263MOL0     C35397  -0.199  10.750   7.892  0.3374 -0.7700  1.0529
  263MOL0     C35398  -0.330  10.816   7.855 -0.4874 -0.2433 -0.3404
  263MOL0     C35399  -0.185  10.694   8.023  0.6436  0.4288  0.1102
  263MOL0     C35400  -0.286  10.685   8.127  0.2830 -0.6187  0.2868
  263MOL0     O35401  -0.414  10.636   8.100 -0.8039  0.2288 -0.2536
  263MOL0     C35402  -0.498  10.657   8.202  0.4869  0.0032 -0.6046
  263MOL0     C35403  -0.585  10.765   8.203 -0.0987  0.4277 -0.8997
  263MOL0     C35404  -0.691  10.775   8.291  0.2083  0.7498 -0.7081
  263MOL0     C35405  -0.724  10.675   8.383  0.0605 -0.4129 -0.4637
  263MOL0     O35406  -0.826  10.684   8.475  0.5385  0.6147  0.7196
  263MOL0     C35407  -0.917  10.786   8.464 -0.8457 -0.4360 -0.8415
  263MOL0     C35408  -0.989  10.794   8.597 -0.3581  0.5563  0.1835
  263MOL0     C35409  -1.124  10.885   8.600  0.1231 -0.9676 -0.3106
  263MOL0     C35410  -1.216  10.819   8.706  0.1938  0.0055  0.3340
  263MOL0     C35411  -1.335  10.907   8.738  0.1362 -0.4619 -0.2463
  263MOL0     C35412  -1.308  11.042   8.813  0.4840 -0.3723 -0.2756
  263MOL0     C35413  -1.443  11.124   8.839  0.5852  0.4190 -0.1121
  263MOL0     C35414  -1.436  11.244   8.920 -0.0239 -0.6193 -0.0501
  263MOL0    Cl35415  -1.592  11.262   9.002  0.1561 -0.2331 -0.4117
  263MOL0     C35416  -0.649  10.557   8.374  0.5686 -1.0022  0.2580
  263MOL0     C35417  -0.534  10.552   8.289  0.5089  0.1125 -1.2539
  263MOL0     O35418  -0.253  10.753   8.223 -0.0577 -0.1558 -0.5029
  263MOL0     C35419  -0.059  10.629   8.053 -0.4029 -0.4435  1.1673
  263MOL0     C35420   0.036  10.613   7.953  0.4576  0.1908  0.4120
  263MOL0     N35421   0.813  10.691   7.639 -0.1236 -0.6301  0.2433
  263MOL0     N35422   0.939  10.705   7.654 -0.4734  0.1189 -0.2140
  263MOL0     C35423   2.063  10.764   7.412 -0.9519  0.7144  0.0380
  263MOL0     C35424   2.193  10.734   7.379 -0.5906  0.5321  0.6949
  263MOL0     C35425   2.653  10.839   7.339  0.4827  0.0828  0.3556
  263MOL0     C35426   2.700  10.704   7.313  0.1154 -0.1586  0.3708
  263MOL0     C35427   2.823  10.676   7.270 -0.2731  1.9712  0.6999
  263MOL0     C35428   2.913  10.780   7.251  0.6009 -0.8760  0.3134
  263MOL0     O35429   3.041  10.745   7.204 -0.1590  0.5572  0.0082
  263MOL0     C35430   3.137  10.844   7.166  0.2525 -0.2880 -0.0335
  263MOL0     C35431   3.241  10.772   7.077 -0.2783 -0.3300 -0.2110
  263MOL0     C35432   3.353  10.855   7.015  0.3037  0.2374 -0.2373
  263MOL0     C35433   3.434  10.930   7.120  0.5959 -0.8515  0.1392
  263MOL0     C35434   3.547  10.997   7.057  0.2464  0.3870 -1.6984
  263MOL0     C35435   3.644  11.046   7.008 -0.1366  0.6200  0.7263
  263MOL0     C35436   2.867  10.919   7.273 -0.0334  0.0373 -0.3209
  263MOL0     C35437   2.740  10.944   7.308  0.9764  0.2666  0.0155
  263MOL0     H35438   2.363  10.919   7.616  0.5017 -0.6651  0.1205
  263MOL0     H35439   2.123  10.972   7.676 -0.2606  0.8116 -0.6168
  263MOL0     H35440   1.862  10.979   7.351  1.2296  1.2297  1.3537
  263MOL0     H35441   1.781  10.829   7.402  1.8403 -0.6689 -0.3658
  263MOL0     H35442   1.730  11.101   7.548 -2.4387  4.3707 -1.8184
  263MOL0     H35443   1.634  11.047   7.409  0.6988 -0.5740  0.0839
  263MOL0     H35444   1.604  10.816   7.565 -0.3916 -1.1299  2.3373
  263MOL0     H35445   1.666  10.928   7.685  1.9094  0.2919 -0.8835
  263MOL0     H35446   1.487  11.090   7.614  1.6905  0.6120 -1.6462
  263MOL0     H35447   1.408  10.950   7.529 -0.6224 -2.0364 -0.0086
  263MOL0     H35448   1.491  10.933   7.824 -0.0075  2.7062  0.2909
  263MOL0     H35449   1.332  11.004   7.775 -1.7464  0.5244 -1.5698
  263MOL0     H35450   1.425  10.724   7.687  0.5978  0.3408  1.1318
  263MOL0     H35451   1.341  10.753   7.841  0.7784  0.4452  0.6288
  263MOL0     H35452   1.230  10.809   7.566 -2.1996  2.1497  0.2215
  263MOL0     H35453   1.186  10.666   7.673  0.0618 -0.0035  1.2584
  263MOL0     H35454   1.124  10.967   7.709  1.7171  0.0087 -1.8431
  263MOL0     H35455   1.122  10.862   7.849 -1.8023  1.3134 -0.6654
  263MOL0     H35456   0.848  10.979   7.797  0.1969 -2.3546  2.8308
  263MOL0     H35457   0.576  10.914   7.760 -0.0819 -0.9936  0.4547
  263MOL0     H35458   0.568  10.849   7.595 -3.6134 -2.3761  0.5973
  263MOL0     H35459   0.526  10.660   7.822 -1.3241  2.0519  0.3759
  263MOL0     H35460   0.515  10.624   7.654 -3.2236 -1.5566  1.2922
  263MOL0     H35461   0.348  10.807   7.633  2.8927 -1.2620 -1.9652
  263MOL0     H35462   0.350  10.838   7.810 -1.2429 -1.3660  0.5257
  263MOL0     H35463   0.273  10.633   7.868 -2.3995  0.7480 -0.1565
  263MOL0     H35464   0.292  10.561   7.715  1.5228  0.3481 -1.3102
  263MOL0     H35465  -0.118  10.777   7.697 -1.8510 -0.3410  0.3775
  263MOL0     H35466  -0.383  10.751   7.786 -1.3198 -1.2278  1.1750
  263MOL0     H35467  -0.396  10.827   7.941  1.1629 -0.4055  1.0082
  263MOL0     H35468  -0.309  10.916   7.814  1.7556 -1.4287 -2.3083
  263MOL0     H35469  -0.574  10.834   8.120 -0.5404  1.5436 -0.0543
  263MOL0     H35470  -0.758  10.860   8.283 -2.3189 -1.1120 -0.3498
  263MOL0     H35471  -0.869  10.883   8.447  4.4410 -2.2610  1.5200
  263MOL0     H35472  -0.985  10.763   8.381 -2.4296  1.5243 -0.1618
  263MOL0     H35473  -1.018  10.691   8.618  0.8976 -0.1002 -1.1592
  263MOL0     H35474  -0.922  10.830   8.676 -0.5744  0.2067  0.5288
  263MOL0     H35475  -1.168  10.890   8.500 -1.2393 -4.4156 -0.0512
  263MOL0     H35476  -1.091  10.983   8.635  1.0126 -1.2606 -0.3017
  263MOL0     H35477  -1.253  10.725   8.664 -1.9990  1.6774 -1.8035
  263MOL0     H35478  -1.157  10.793   8.794 -0.3523 -0.1230  0.6658
  263MOL0     H35479  -1.395  10.848   8.808  1.4181 -1.4159  0.0864
  263MOL0     H35480  -1.382  10.937   8.643 -1.3573  2.0449  1.1847
  263MOL0     H35481  -1.249  11.009   8.899  3.1875 -1.7107 -2.4768
  263MOL0     H35482  -1.234  11.097   8.754  1.3510 -1.3529 -0.1286
  263MOL0     H35483  -1.523  11.059   8.875 -2.2405  2.1115 -2.8129
  263MOL0     H35484  -1.481  11.137   8.737 -2.6902 -1.5874  0.6880
  263MOL0     H35485  -1.411  11.331   8.858 -0.3585 -1.5515 -1.5449
  263MOL0     H35486  -1.354  11.235   8.991  0.8870  3.8986 -0.1995
  263MOL0     H35487  -0.669  10.476   8.444  0.3636 -1.1495  0.0295
  263MOL0     H35488  -0.481  10.457   8.290 -1.5605 -1.1168  0.1069
  263MOL0     H35489  -0.046  10.571   8.144  1.2310  0.7360  1.7331
  263MOL0     H35490   0.126  10.564   7.990 -0.0327  1.3398  3.4725
  263MOL0     H35491   1.982  10.710   7.363 -1.0557  0.0573  0.9251
  263MOL0     H35492   2.223  10.667   7.299 -0.0810 -1.7832  2.6947
  263MOL0     H35493   2.631  10.620   7.322  0.4009 -0.3279  1.0461
  263MOL0     H35494   2.852  10.571   7.270  0.6471  2.1967  2.0059
  263MOL0     H35495   3.083  10.912   7.100  0.1102 -1.3753 -1.0677
  263MOL0     H35496   3.180  10.908   7.244 -0.2685  0.5126 -0.3914
  263MOL0     H35497   3.193  10.724   6.991 -1.6941  0.4755  0.1053
  263MOL0     H35498   3.275  10.687   7.136 -1.2034  0.8380  2.1486
  263MOL0     H35499   3.309  10.925   6.944  1.1039 -0.3500 -1.3545
  263MOL0     H35500   3.423  10.793   6.957 -0.4102  1.1685 -2.1967
  263MOL0     H35501   3.464  10.870   7.206 -2.9356 -1.6245  1.0085
  263MOL0     H35502   3.366  11.003   7.166  1.5806 -1.0178  1.9485
  263MOL0     H35503   3.730  11.084   6.957 -0.9944  0.8132 -0.6305
  263MOL0     H35504   2.941  10.993   7.242  0.7184 -1.4916 -2.3876
  263MOL0     H35505   2.702  11.045   7.318  1.1818  0.2753  0.7552
  264MOL0     O35506   9.917   0.708   0.875 -0.6888  0.3436  0.9193
  264MOL0     C35507   9.926   0.812   0.944 -0.6787 -0.2042  0.6838
  264MOL0     O35508   9.842   0.851   1.043 -0.4776 -0.3657 -0.0619
  264MOL0     C35509   9.721   0.803   1.060 -0.2240 -0.5169 -0.2719
  264MOL0     C35510   9.659   0.826   1.182 -0.5283  0.0533 -0.6063
  264MOL0     C35511   9.532   0.769   1.203  0.2395  0.0567 -0.4997
  264MOL0     C35512   9.455   0.705   1.107  0.0781 -0.1181  0.2867
  264MOL0     O35513   9.330   0.657   1.134  0.5798 -0.2609  0.2796
  264MOL0     C35514   9.270   0.556   1.047 -0.9819  0.1823  0.0835
  264MOL0     C35515   9.149   0.485   1.098 -0.6215  0.9682 -0.3340
  264MOL0     C35516   9.023   0.572   1.077 -0.5836  1.0738  0.1204
  264MOL0     C35517   9.002   0.706   1.157  0.3632  1.0593 -0.4072
  264MOL0     C35518   8.933   0.815   1.080 -0.4289 -0.1845 -0.7181
  264MOL0     C35519   8.809   0.767   1.012  0.6460  0.5912 -0.5863
  264MOL0     C35520   8.749   0.875   0.917  0.3091 -0.3658 -0.7244
  264MOL0     C35521   8.608   0.836   0.862 -0.3889 -0.3636 -0.3605
  264MOL0     N35522   8.589   0.917   0.744 -0.2015  0.3374  0.4186
  264MOL0     C35523   8.602   1.050   0.733  0.1699  0.4214  0.6439
  264MOL0     C35524   8.577   1.074   0.601  0.8030 -0.3049  0.2183
  264MOL0     C35525   8.557   1.215   0.549  0.4663 -0.3397  0.1606
  264MOL0     C35526   8.412   1.272   0.584 -0.1982 -0.2040 -0.7066
  264MOL0     C35527   8.303   1.197   0.504  0.1837  0.3657  0.0280
  264MOL0     C35528   8.184   1.289   0.477 -0.5640 -0.0276 -0.3758
  264MOL0     O35529   8.092   1.217   0.405  0.2097  0.6456  0.1329
  264MOL0     C35530   7.967   1.273   0.382 -0.6608  0.6538  0.5272
  264MOL0     C35531   7.860   1.184   0.353  0.7253 -0.1049 -0.2796
  264MOL0     C35532   7.729   1.224   0.324  0.0693 -0.5633  0.2012
  264MOL0     C35533   7.623   1.121   0.285 -0.8676 -0.2238 -0.5262
  264MOL0     C35534   7.701   1.364   0.309 -0.4504 -0.1933  0.6062
  264MOL0     C35535   7.563   1.411   0.271 -0.9913  0.7509  0.4122
  264MOL0     O35536   7.554   1.545   0.272 -0.0193 -0.6502 -0.6228
  264MOL0     C35537   7.437   1.607   0.230 -0.0103 -0.0297  0.4996
  264MOL0     C35538   7.371   1.574   0.103 -1.6069 -0.3330 -0.8406
  264MOL0     C35539   7.264   1.651   0.068 -0.4809  0.1816  0.0456
  264MOL0     C35540   7.219   1.764   0.142 -0.3504  0.2076  0.0608
  264MOL0     O35541   7.111   1.830   0.092  0.1794  0.1120 -0.0848
  264MOL0     C35542   7.060   1.958   0.146  0.5668 -0.3896  0.5475
  264MOL0     C35543   6.963   1.933   0.272  0.0480 -0.4183  0.6195
  264MOL0     C35544   6.813   1.913   0.238 -0.1214  0.4239 -0.4891
  264MOL0     C35545   6.731   1.923   0.369  0.3768 -0.4380  0.5177
  264MOL0     C35546   6.585   1.941   0.351  0.3172  0.1769 -0.2225
  264MOL0     C35547   6.527   1.839   0.252  0.4852  0.2458  0.8228
  264MOL0     C35548   6.378   1.866   0.219  0.5573  0.0445  1.0430
  264MOL0     C35549   6.335   1.786   0.088 -0.1029 -0.2361  0.6398
  264MOL0    Cl35550   6.325   1.615   0.121 -0.1152 -0.0802  0.3947
  264MOL0     C35551   7.281   1.793   0.257  0.5613  0.0540  0.0243
  264MOL0     C35552   7.400   1.729   0.299 -0.4528  0.1193 -0.7035
  264MOL0     O35553   7.475   1.333   0.232  0.3073 -0.0272 -0.1147
  264MOL0     C35554   7.812   1.455   0.337  0.5716  0.0590  0.6017
  264MOL0     C35555   7.934   1.414   0.387  0.2795  0.1748  0.0804
  264MOL0     N35556   8.560   0.957   0.536 -0.5139  1.3023 -0.3600
  264MOL0     N35557   8.550   0.865   0.625  0.0293 -0.5796 -0.0819
  264MOL0     C35558   9.520   0.685   0.988  0.6744  0.4618  0.2365
  264MOL0     C35559   9.650   0.734   0.966  0.3035  0.8948  0.2550
  264MOL0     C35560  10.047   0.902   0.922  0.0876  0.1247  0.3413
  264MOL0     C35561  10.096   0.994   1.016 -0.2202 -0.1438  0.0776
  264MOL0     C35562  10.199   1.083   0.996 -0.1588 -0.0199  0.9394
  264MOL0     C35563  10.263   1.081   0.868 -0.8892 -0.0724 -0.0154
  264MOL0     O35564  10.366   1.169   0.849 -0.6540 -0.9197  0.4655
  264MOL0     C35565  10.438   1.184   0.731 -0.9297  0.2695  0.7388
  264MOL0     C35566  10.557   1.093   0.712 -0.0374  0.0525 -0.1352
  264MOL0     C35567  10.630   1.130   0.589 -0.7628  0.4660  0.6361
  264MOL0     C35568  10.569   1.107   0.450  0.0608 -0.0199  0.6088
  264MOL0     C35569  10.460   1.009   0.448  0.2820 -0.5702  0.0710
  264MOL0     C35570  10.354   0.945   0.439  0.1150 -0.1395  0.9495
  264MOL0     C35571  10.235   0.975   0.780  0.2663  0.5329 -0.5086
  264MOL0     C35572  10.127   0.889   0.800 -0.2119 -0.0630  0.2312
  264MOL0     H35573   9.710   0.880   1.261  1.0311 -0.6529 -1.0863
  264MOL0     H35574   9.495   0.779   1.305 -0.1175 -0.1516 -0.6049
  264MOL0     H35575   9.248   0.588   0.945 -0.7277 -2.4464 -0.8601
  264MOL0     H35576   9.348   0.480   1.037  0.0799  0.9061  2.2094
  264MOL0     H35577   9.132   0.390   1.046 -0.8024 -0.8861  2.8614
  264MOL0     H35578   9.168   0.462   1.203 -1.8213  1.7154  0.0768
  264MOL0     H35579   9.030   0.583   0.969 -1.3223 -0.7187 -0.1492
  264MOL0     H35580   8.937   0.507   1.098 -0.2764  0.7024  0.2249
  264MOL0     H35581   8.942   0.677   1.244  1.4919  0.8270  0.3256
  264MOL0     H35582   9.095   0.749   1.195  1.4206 -0.0686 -1.6098
  264MOL0     H35583   8.917   0.894   1.153  0.8443 -0.9688  0.4473
  264MOL0     H35584   9.000   0.851   1.001 -0.5767  0.8153 -0.3970
  264MOL0     H35585   8.831   0.678   0.952 -0.6481 -0.1211 -0.0375
  264MOL0     H35586   8.737   0.739   1.089  1.1607  3.3307  1.0265
  264MOL0     H35587   8.742   0.964   0.980  1.5912 -1.2306  0.7229
  264MOL0     H35588   8.819   0.898   0.837 -0.7526 -0.7179 -1.7756
  264MOL0     H35589   8.530   0.858   0.936  2.0877 -1.5581  2.8596
  264MOL0     H35590   8.605   0.729   0.838 -2.5451 -0.9849  2.1831
  264MOL0     H35591   8.623   1.125   0.809 -2.0247 -0.7818  2.5697
  264MOL0     H35592   8.637   1.273   0.596 -0.3795  0.8883  0.1196
  264MOL0     H35593   8.565   1.213   0.440  0.3683 -0.5331  0.1562
  264MOL0     H35594   8.404   1.381   0.575  1.9273 -0.1004 -1.9610
  264MOL0     H35595   8.394   1.235   0.686  0.4620 -1.2638 -0.9594
  264MOL0     H35596   8.260   1.108   0.551 -0.4458  0.5607 -0.1727
  264MOL0     H35597   8.343   1.173   0.405 -1.5668  1.2655 -0.9322
  264MOL0     H35598   8.219   1.361   0.402  0.5833 -1.6358 -1.4598
  264MOL0     H35599   8.145   1.345   0.563 -1.5735 -0.2708 -0.6603
  264MOL0     H35600   7.874   1.078   0.373 -2.6654 -0.7904 -0.9114
  264MOL0     H35601   7.534   1.131   0.348 -1.0724 -1.7075 -0.5661
  264MOL0     H35602   7.594   1.121   0.180 -2.5929  0.3836 -0.0807
  264MOL0     H35603   7.657   1.018   0.300 -1.7974 -0.7173 -1.7038
  264MOL0     H35604   7.399   1.484   0.048  1.3600  0.5283 -0.8893
  264MOL0     H35605   7.222   1.628  -0.030  2.8635 -2.1125 -1.0168
  264MOL0     H35606   7.147   2.023   0.160 -1.5954  2.5157  1.5562
  264MOL0     H35607   7.004   2.013   0.070 -0.9257  0.2572  2.0293
  264MOL0     H35608   7.005   1.847   0.323  2.3902 -0.3648 -1.0626
  264MOL0     H35609   6.954   2.009   0.350 -2.2309 -1.2420  1.2323
  264MOL0     H35610   6.784   1.829   0.175  1.5085  1.1327 -2.2975
  264MOL0     H35611   6.776   1.999   0.183 -0.2345  0.9815  0.4320
  264MOL0     H35612   6.748   1.829   0.422  0.8420 -1.8275 -1.9663
  264MOL0     H35613   6.768   2.001   0.436  0.0220 -0.2667  0.5179
  264MOL0     H35614   6.565   2.041   0.313 -0.9083  1.2833  2.9544
  264MOL0     H35615   6.545   1.940   0.453  3.7740  1.2915  1.2785
  264MOL0     H35616   6.584   1.832   0.159  1.0381 -0.7736  1.2125
  264MOL0     H35617   6.531   1.735   0.288 -2.4672 -0.4688 -0.5664
  264MOL0     H35618   6.366   1.974   0.207 -0.1298 -0.1887 -0.6968
  264MOL0     H35619   6.325   1.836   0.311  1.5218 -2.5608  0.8434
  264MOL0     H35620   6.394   1.808  -0.000 -1.3901 -1.7121 -0.6564
  264MOL0     H35621   6.230   1.814   0.074 -1.1099 -2.3169  3.1542
  264MOL0     H35622   7.240   1.877   0.312 -0.4827  0.2047 -0.9469
  264MOL0     H35623   7.451   1.754   0.392 -1.1937 -0.4867 -0.1277
  264MOL0     H35624   7.796   1.561   0.320  1.2014 -0.0224 -0.6338
  264MOL0     H35625   8.008   1.487   0.418 -0.5639 -0.0769  3.0132
  264MOL0     H35626   9.485   0.623   0.907  1.4579  1.6871 -1.0906
  264MOL0     H35627   9.688   0.699   0.870  2.3382 -0.9190  1.6201
  264MOL0     H35628  10.049   1.000   1.114  1.2323  2.2108  0.7173
  264MOL0     H35629  10.228   1.159   1.067  0.5430  0.5791  0.0448
  264MOL0     H35630  10.360   1.172   0.656  0.0535 -0.2050 -0.2430
  264MOL0     H35631  10.483   1.283   0.714 -0.7612  0.3851  1.8076
  264MOL0     H35632  10.524   0.990   0.697  1.3268 -0.5992  1.1625
  264MOL0     H35633  10.620   1.105   0.800  0.0584 -1.0850 -0.0380
  264MOL0     H35634  10.712   1.057   0.585 -0.4764  0.8281 -2.5946
  264MOL0     H35635  10.679   1.227   0.594  0.1040  0.0452  0.5187
  264MOL0     H35636  10.646   1.069   0.382 -0.3173  4.5489 -2.8634
  264MOL0     H35637  10.535   1.203   0.410  1.1865 -0.0651 -0.5302
  264MOL0     H35638  10.263   0.888   0.436 -0.3944  0.6504  1.1935
  264MOL0     H35639  10.288   0.968   0.685  0.6394 -0.0259 -0.2674
  264MOL0     H35640  10.112   0.820   0.717 -1.7184  1.1846 -0.5879
  265MOL0     O35641   8.462   3.242   1.270 -0.8369  0.0754 -0.2475
  265MOL0     C35642   8.462   3.279   1.155 -0.3940 -0.3885  0.7680
  265MOL0     O35643   8.566   3.338   1.090 -0.0293 -0.4085 -0.0278
  265MOL0     C35644   8.674   3.362   1.175  0.4134 -0.1032 -0.3657
  265MOL0     C35645   8.691   3.497   1.223 -0.9787 -0.5937 -0.0328
  265MOL0     C35646   8.803   3.538   1.301 -0.0256  0.1724  0.2491
  265MOL0     C35647   8.899   3.437   1.321  0.6403 -0.0236  0.1187
  265MOL0     O35648   9.017   3.458   1.386  0.0590  0.2306 -0.1019
  265MOL0     C35649   9.056   3.591   1.430 -0.5135  0.4732 -0.7570
  265MOL0     C35650   9.186   3.597   1.514  0.1041 -0.7218  0.6121
  265MOL0     C35651   9.304   3.569   1.420  0.5955 -0.4178  0.5723
  265MOL0     C35652   9.343   3.692   1.340  0.0175 -1.0462  0.7422
  265MOL0     C35653   9.491   3.687   1.299  0.5994  1.0834 -0.9923
  265MOL0     C35654   9.517   3.784   1.189 -0.4711 -0.8256  0.8849
  265MOL0     C35655   9.669   3.774   1.150  0.4205  0.2580 -0.0850
  265MOL0     C35656   9.720   3.848   1.018 -0.9836  0.4260 -0.2693
  265MOL0     N35657   9.871   3.857   1.006  1.1828 -0.8782  0.0708
  265MOL0     C35658   9.948   3.757   0.956  0.4260  0.4720  0.4371
  265MOL0     C35659  10.072   3.788   0.982 -1.4129 -0.1810 -0.0529
  265MOL0     C35660  10.199   3.709   0.952 -0.1628 -0.4046 -0.5517
  265MOL0     C35661  10.229   3.685   0.804  1.1444  0.0666 -0.1625
  265MOL0     C35662  10.361   3.623   0.782 -0.4814  0.2288 -0.3643
  265MOL0     C35663  10.402   3.596   0.628  0.1636 -0.4793 -0.0508
  265MOL0     O35664  10.409   3.714   0.542  1.2203  0.0829 -0.7149
  265MOL0     C35665  10.546   3.757   0.518  0.3578  0.4023  0.3908
  265MOL0     C35666  10.558   3.889   0.550 -0.2232 -0.4118 -0.3450
  265MOL0     C35667  10.674   3.962   0.535  0.0991  0.1811  0.3969
  265MOL0     C35668  10.673   4.106   0.590 -0.4460 -0.8326 -0.0787
  265MOL0     C35669  10.801   3.882   0.501  0.1202 -0.1499  1.4189
  265MOL0     C35670  10.933   3.940   0.487 -0.1078 -0.4092 -0.5465
  265MOL0     O35671  11.036   3.847   0.469 -0.9955 -0.5604  0.0699
  265MOL0     C35672  11.171   3.890   0.478 -0.3699  0.7810  0.1007
  265MOL0     C35673  11.223   4.007   0.420 -0.7560 -0.1637  0.6071
  265MOL0     C35674  11.345   4.063   0.450  0.6014 -0.5066  0.4512
  265MOL0     C35675  11.428   3.993   0.536  0.2498 -0.0374  0.6840
  265MOL0     O35676  11.538   4.054   0.589  0.7696 -0.2308 -0.2316
  265MOL0     C35677  11.627   4.125   0.505  0.6664 -0.3330 -0.7080
  265MOL0     C35678  11.774   4.107   0.553 -0.8569 -0.1104  0.0943
  265MOL0     C35679  11.871   4.207   0.484 -0.1225  0.1248 -0.1295
  265MOL0     C35680  12.020   4.161   0.494  0.5372  0.2232 -0.2576
  265MOL0     C35681  12.131   4.256   0.444 -0.0060 -0.8776  0.0411
  265MOL0     C35682  12.134   4.385   0.537 -0.3533  0.1531  1.0825
  265MOL0     C35683  12.260   4.476   0.524 -0.2895  1.1927  0.7411
  265MOL0     C35684  12.269   4.589   0.621  0.2387 -1.4161 -0.2213
  265MOL0    Cl35685  12.383   4.711   0.561 -0.2626 -0.2349  0.1388
  265MOL0     C35686  11.380   3.875   0.598 -0.8753  0.7437 -0.1345
  265MOL0     C35687  11.259   3.825   0.567 -0.2104  0.9416  0.1089
  265MOL0     O35688  10.955   4.058   0.518  0.7114 -0.6309 -1.0666
  265MOL0     C35689  10.782   3.749   0.454  0.4873  0.8050  0.8234
  265MOL0     C35690  10.656   3.690   0.460 -0.1749 -0.5213 -0.2540
  265MOL0     N35691  10.065   3.904   1.060  0.3184  0.2053 -0.2272
  265MOL0     N35692   9.951   3.944   1.079  0.3655  0.4557  0.1908
  265MOL0     C35693   8.886   3.307   1.270 -1.1106 -0.5017  0.1562
  265MOL0     C35694   8.767   3.268   1.208 -0.1087  0.2723  0.0156
  265MOL0     C35695   8.339   3.281   1.070  0.0814 -0.1532 -0.1941
  265MOL0     C35696   8.340   3.321   0.936  1.1295 -0.4751 -0.1010
  265MOL0     C35697   8.219   3.330   0.861 -0.4622  0.6748 -0.6117
  265MOL0     C35698   8.094   3.288   0.915 -0.4949  0.9031 -0.0349
  265MOL0     O35699   7.967   3.274   0.858 -0.3213  0.2625 -0.1320
  265MOL0     C35700   7.969   3.294   0.719 -0.4521  0.0911  0.1923
  265MOL0     C35701   7.847   3.226   0.659 -0.7189 -0.0900 -1.0961
  265MOL0     C35702   7.716   3.271   0.730  0.0250 -0.4529  0.6028
  265MOL0     C35703   7.605   3.210   0.649 -0.0573  0.1175 -0.1154
  265MOL0     C35704   7.473   3.242   0.710 -0.1720  0.4844 -0.5393
  265MOL0     C35705   7.355   3.267   0.743 -0.1596 -0.2955 -0.0619
  265MOL0     C35706   8.105   3.243   1.047  0.8269 -0.0788  0.1195
  265MOL0     C35707   8.222   3.232   1.119  0.1889 -0.3079  0.5238
  265MOL0     H35708   8.619   3.575   1.200  0.6465  1.4188  1.2463
  265MOL0     H35709   8.810   3.640   1.336 -1.7453  1.0211 -1.6615
  265MOL0     H35710   9.061   3.665   1.349 -3.3700  2.4374  0.6869
  265MOL0     H35711   8.981   3.635   1.497  0.7553  1.0389  0.3321
  265MOL0     H35712   9.191   3.698   1.557 -2.3627 -1.1628  2.1305
  265MOL0     H35713   9.175   3.528   1.598  0.8189  0.3528  1.6262
  265MOL0     H35714   9.376   3.518   1.485 -1.3760 -1.3330  2.1649
  265MOL0     H35715   9.280   3.494   1.344  3.6260 -0.9624  0.0275
  265MOL0     H35716   9.277   3.702   1.254 -0.3385 -2.6431  0.7938
  265MOL0     H35717   9.349   3.783   1.400  3.3303 -1.6042  1.4739
  265MOL0     H35718   9.558   3.701   1.384  0.2987 -0.5443 -0.4435
  265MOL0     H35719   9.505   3.585   1.262 -1.2097  0.1003  0.8113
  265MOL0     H35720   9.458   3.775   1.097 -1.9339 -1.1371  1.8279
  265MOL0     H35721   9.501   3.885   1.227  4.9585  0.9239 -0.4828
  265MOL0     H35722   9.719   3.824   1.234 -2.7311  0.8920  1.6022
  265MOL0     H35723   9.692   3.668   1.136 -2.0011 -0.0282 -2.8636
  265MOL0     H35724   9.673   3.946   1.011 -0.4285  0.8743  1.6438
  265MOL0     H35725   9.688   3.777   0.941 -0.0553 -2.6805  1.9763
  265MOL0     H35726   9.915   3.666   0.905 -2.2630  1.3659  0.4170
  265MOL0     H35727  10.281   3.752   1.011  0.2175 -2.9736  0.9402
  265MOL0     H35728  10.184   3.609   0.993  0.3984 -0.5164 -0.6197
  265MOL0     H35729  10.220   3.786   0.762 -2.4449  0.3526  0.9706
  265MOL0     H35730  10.155   3.618   0.758  1.4253  1.1015 -2.2455
  265MOL0     H35731  10.373   3.533   0.844  1.0436 -0.3850 -1.5027
  265MOL0     H35732  10.432   3.696   0.821  0.1819  0.7349 -2.4007
  265MOL0     H35733  10.318   3.538   0.590  0.7771 -0.8113 -0.9378
  265MOL0     H35734  10.492   3.536   0.610 -0.5816 -2.2341  1.7143
  265MOL0     H35735  10.474   3.945   0.590 -0.1949 -0.1215 -0.6891
  265MOL0     H35736  10.723   4.172   0.519  0.7778  0.3945  1.8166
  265MOL0     H35737  10.577   4.155   0.607  0.2593  0.7105 -0.2914
  265MOL0     H35738  10.730   4.121   0.683 -1.8634 -0.6816  0.7935
  265MOL0     H35739  11.160   4.064   0.352 -0.0095 -0.5685 -0.4377
  265MOL0     H35740  11.371   4.155   0.398  1.1616 -2.1042 -2.3500
  265MOL0     H35741  11.623   4.097   0.399  2.7035  1.7858 -1.4420
  265MOL0     H35742  11.601   4.231   0.512  0.2398 -0.4193 -0.9575
  265MOL0     H35743  11.777   4.121   0.662 -0.3919  0.4270  0.0191
  265MOL0     H35744  11.804   4.005   0.530  0.8449  0.6909 -1.4065
  265MOL0     H35745  11.867   4.302   0.539 -0.0021 -0.6543  1.2523
  265MOL0     H35746  11.837   4.236   0.384 -3.0605  3.6240  1.6242
  265MOL0     H35747  12.039   4.129   0.597 -1.4936  0.1902  0.1557
  265MOL0     H35748  12.033   4.067   0.438 -0.3636 -0.1982  0.2151
  265MOL0     H35749  12.128   4.288   0.340  2.3813 -2.1620 -0.5050
  265MOL0     H35750  12.229   4.206   0.447  1.4520  1.8027  2.5041
  265MOL0     H35751  12.048   4.452   0.529 -0.1594  0.2709 -0.2790
  265MOL0     H35752  12.133   4.340   0.637  0.1996 -0.5884  0.7682
  265MOL0     H35753  12.254   4.505   0.418  1.3987  0.1405  0.3321
  265MOL0     H35754  12.343   4.407   0.539 -1.5132 -0.2769  0.9950
  265MOL0     H35755  12.293   4.576   0.727  2.4615 -0.1326 -0.4898
  265MOL0     H35756  12.167   4.627   0.625 -0.2650 -2.6592  4.2069
  265MOL0     H35757  11.452   3.832   0.667 -1.6805  0.3061  0.4597
  265MOL0     H35758  11.212   3.736   0.609 -1.3351  1.2450 -0.4607
  265MOL0     H35759  10.864   3.693   0.410 -0.2290  0.2879  0.1200
  265MOL0     H35760  10.638   3.588   0.428 -1.6898 -0.0575 -0.9692
  265MOL0     H35761   8.971   3.247   1.299  1.1881 -0.0511 -4.6422
  265MOL0     H35762   8.748   3.165   1.180 -4.8848  0.8694  0.3760
  265MOL0     H35763   8.440   3.344   0.899  3.0546 -2.1245  3.5716
  265MOL0     H35764   8.232   3.363   0.758  0.3817  2.2815 -0.0186
  265MOL0     H35765   7.979   3.398   0.689 -1.1510 -0.3381 -1.6875
  265MOL0     H35766   8.058   3.242   0.682  2.1589  2.1963  3.0190
  265MOL0     H35767   7.870   3.122   0.683  0.3584  0.2250 -0.7457
  265MOL0     H35768   7.853   3.243   0.551 -0.7778  1.7250 -0.8458
  265MOL0     H35769   7.720   3.380   0.739  2.8861 -0.5782  2.1818
  265MOL0     H35770   7.727   3.237   0.833  2.3825 -2.9425 -0.3447
  265MOL0     H35771   7.609   3.102   0.634 -2.5240 -0.2820  1.4284
  265MOL0     H35772   7.602   3.266   0.555  0.7748  0.7856  0.2518
  265MOL0     H35773   7.259   3.299   0.777 -0.0810 -0.3722  0.2374
  265MOL0     H35774   8.017   3.207   1.099  1.0280 -0.8439 -0.0553
  265MOL0     H35775   8.216   3.177   1.213  0.4950 -1.4632 -0.1150
  266MOL0     O35776   9.264   8.846   5.842  0.6078 -0.0443  0.3118
  266MOL0     C35777   9.309   8.746   5.903 -0.8248  0.0123  0.0241
  266MOL0     O35778   9.296   8.719   6.035  0.1442 -0.0366  0.9253
  266MOL0     C35779   9.179   8.758   6.094  0.2639 -0.0644  0.7383
  266MOL0     C35780   9.177   8.816   6.216 -0.4404 -0.0830 -0.0851
  266MOL0     C35781   9.062   8.871   6.273 -0.4059  0.2217 -1.0886
  266MOL0     C35782   8.940   8.841   6.213 -0.5653  0.0345  0.9804
  266MOL0     O35783   8.823   8.863   6.271  0.0796  0.8831  0.4178
  266MOL0     C35784   8.807   8.956   6.375 -0.9522 -0.2606  0.4520
  266MOL0     C35785   8.669   8.931   6.439 -0.4237 -0.2523 -0.3538
  266MOL0     C35786   8.546   8.934   6.336  0.0647 -0.4707 -0.1593
  266MOL0     C35787   8.421   8.901   6.414  0.1704  0.3213 -0.5646
  266MOL0     C35788   8.285   8.903   6.350  0.2007 -0.3927  0.7930
  266MOL0     C35789   8.279   8.807   6.232 -0.2769  0.6812 -0.2240
  266MOL0     C35790   8.162   8.741   6.173 -0.1953  0.2222  0.1133
  266MOL0     C35791   8.143   8.599   6.245 -0.0829 -0.0756  0.3718
  266MOL0     N35792   8.032   8.528   6.189  0.6344  0.1776 -0.1395
  266MOL0     C35793   7.905   8.571   6.209  0.6830 -0.1153  0.7970
  266MOL0     C35794   7.827   8.500   6.114  0.8001 -0.0796 -1.0532
  266MOL0     C35795   7.668   8.506   6.121 -0.4464  0.1808  0.8149
  266MOL0     C35796   7.600   8.403   6.033  0.5435 -0.0951 -0.5733
  266MOL0     C35797   7.445   8.425   6.038  0.3660  0.2322 -0.1859
  266MOL0     C35798   7.371   8.354   5.924  0.3688  0.5536  0.3107
  266MOL0     O35799   7.232   8.379   5.936 -0.2243  0.3706 -0.3779
  266MOL0     C35800   7.139   8.355   5.840 -0.5461  0.1743  0.2313
  266MOL0     C35801   7.010   8.377   5.881  0.8043  0.5391  0.3984
  266MOL0     C35802   6.890   8.363   5.808 -0.0264  0.1341  0.9335
  266MOL0     C35803   6.757   8.408   5.862  0.1507 -0.3086  0.0942
  266MOL0     C35804   6.913   8.327   5.666 -0.6417  0.3259 -0.2923
  266MOL0     C35805   6.806   8.329   5.557  0.2852 -0.4171  0.2475
  266MOL0     O35806   6.675   8.307   5.603  0.3798 -0.2385 -0.4386
  266MOL0     C35807   6.566   8.345   5.522  0.7937  0.3431 -0.2282
  266MOL0     C35808   6.443   8.359   5.585  0.1963  0.5711  0.7507
  266MOL0     C35809   6.328   8.389   5.521  0.2656 -0.4120 -0.2504
  266MOL0     C35810   6.325   8.402   5.387 -0.0119 -0.0715 -0.1265
  266MOL0     O35811   6.201   8.421   5.333 -0.4931 -0.7597 -0.1230
  266MOL0     C35812   6.189   8.397   5.196 -0.8644 -0.0993 -0.0194
  266MOL0     C35813   6.054   8.447   5.142  0.3161 -0.0921  0.0211
  266MOL0     C35814   5.929   8.377   5.208 -0.3321 -0.5308 -0.0646
  266MOL0     C35815   5.800   8.428   5.135 -0.1915  0.3475 -0.2556
  266MOL0     C35816   5.682   8.391   5.218 -0.0022 -0.1598 -0.5531
  266MOL0     C35817   5.551   8.405   5.138 -0.2024  0.7820  0.0683
  266MOL0     C35818   5.543   8.300   5.038  0.2560 -0.5090  0.3651
  266MOL0     C35819   5.398   8.275   4.983 -0.4440 -1.0241  0.0546
  266MOL0    Cl35820   5.286   8.234   5.113 -0.0055 -0.2729 -0.3699
  266MOL0     C35821   6.447   8.397   5.310 -0.2575  0.1153  0.2983
  266MOL0     C35822   6.563   8.359   5.379 -0.5081 -0.0915  1.2483
  266MOL0     O35823   6.845   8.367   5.444  0.4325  0.1726  0.2518
  266MOL0     C35824   7.050   8.307   5.618 -0.2902  0.3506  0.8267
  266MOL0     C35825   7.155   8.315   5.708 -0.7450 -0.4094 -0.0274
  266MOL0     N35826   7.912   8.420   6.043 -0.1292  0.2971  1.2020
  266MOL0     N35827   8.033   8.438   6.084  0.9277  0.7386 -0.5258
  266MOL0     C35828   8.937   8.760   6.096 -0.1613 -0.4711 -0.4698
  266MOL0     C35829   9.055   8.728   6.039 -0.8209 -0.7960  0.0570
  266MOL0     C35830   9.381   8.640   5.828 -0.4424 -0.7555  0.4046
  266MOL0     C35831   9.470   8.557   5.887 -0.3452 -0.2090 -0.3716
  266MOL0     C35832   9.553   8.470   5.816  0.1447 -1.1728  0.0390
  266MOL0     C35833   9.531   8.453   5.680  0.3104  0.1965 -0.1679
  266MOL0     O35834   9.621   8.366   5.609  0.4199 -0.2295 -0.4250
  266MOL0     C35835   9.637   8.368   5.469 -1.5083  0.1417 -0.5994
  266MOL0     C35836   9.579   8.222   5.417 -0.3385 -0.7626  0.4078
  266MOL0     C35837   9.569   8.240   5.261 -0.7694 -0.0458 -0.5291
  266MOL0     C35838   9.481   8.135   5.182  0.1679 -0.1542  0.1317
  266MOL0     C35839   9.515   7.996   5.212  0.1009  0.7362 -0.2766
  266MOL0     C35840   9.552   7.881   5.230 -0.1815 -0.7166 -0.3850
  266MOL0     C35841   9.425   8.517   5.623  0.4699 -0.4723  0.7029
  266MOL0     C35842   9.351   8.614   5.695 -0.1247  0.2986  1.2172
  266MOL0     H35843   9.273   8.834   6.265  0.2800 -1.4470 -0.9157
  266MOL0     H35844   9.067   8.940   6.356 -0.9816  2.6062 -2.9262
  266MOL0     H35845   8.890   8.941   6.445 -0.2492 -0.3422 -0.3868
  266MOL0     H35846   8.818   9.056   6.333  1.2779 -0.7917 -0.3369
  266MOL0     H35847   8.671   8.838   6.497 -0.3059  0.5951  1.0448
  266MOL0     H35848   8.660   9.015   6.509 -0.2537  1.0984 -1.9004
  266MOL0     H35849   8.523   9.028   6.286 -3.6678 -0.3601  1.4543
  266MOL0     H35850   8.553   8.852   6.263 -3.9917 -2.6077  1.4789
  266MOL0     H35851   8.432   8.801   6.457  2.3316  0.4394 -0.7420
  266MOL0     H35852   8.412   8.974   6.494 -2.4142 -0.0088 -0.4615
  266MOL0     H35853   8.205   8.871   6.418 -2.1665  2.0058 -0.6494
  266MOL0     H35854   8.247   9.004   6.331 -0.1794 -0.2213  2.3583
  266MOL0     H35855   8.318   8.869   6.151  1.0401  1.2137  0.7724
  266MOL0     H35856   8.354   8.729   6.249  0.1452  0.9982 -0.5861
  266MOL0     H35857   8.075   8.798   6.205 -0.3427  0.0906 -0.0527
  266MOL0     H35858   8.164   8.725   6.064  1.9776 -1.1072  0.2765
  266MOL0     H35859   8.131   8.619   6.352  2.5769 -0.8820  0.8830
  266MOL0     H35860   8.227   8.531   6.230  0.2281  0.8704 -3.1089
  266MOL0     H35861   7.863   8.640   6.282 -0.9279  0.3693 -0.5341
  266MOL0     H35862   7.635   8.482   6.223  1.0096 -1.9017  0.8568
  266MOL0     H35863   7.645   8.608   6.089  2.0989 -0.1653 -2.6534
  266MOL0     H35864   7.628   8.306   6.075 -2.4176 -0.1335  1.7183
  266MOL0     H35865   7.621   8.404   5.926  0.4846 -0.3457 -0.5867
  266MOL0     H35866   7.415   8.530   6.031 -0.1230  0.1329  0.3507
  266MOL0     H35867   7.405   8.395   6.136 -1.5793  0.4245 -0.8780
  266MOL0     H35868   7.396   8.248   5.913 -1.5584  0.2632 -1.9291
  266MOL0     H35869   7.403   8.401   5.831  0.7310 -0.1702  0.0590
  266MOL0     H35870   7.000   8.416   5.981  1.8691  1.0085  0.3292
  266MOL0     H35871   6.702   8.469   5.789  1.4583  1.4229  0.4655
  266MOL0     H35872   6.692   8.329   5.899 -0.0404 -1.4186 -2.4511
  266MOL0     H35873   6.773   8.478   5.945  0.8599  2.0457 -1.8994
  266MOL0     H35874   6.452   8.345   5.692  2.6288 -2.1504  0.3371
  266MOL0     H35875   6.233   8.406   5.570  0.3465  0.9777 -0.5169
  266MOL0     H35876   6.254   8.453   5.129 -2.2563  0.4523 -0.9402
  266MOL0     H35877   6.200   8.290   5.176 -0.5538  0.1269 -1.1063
  266MOL0     H35878   6.053   8.556   5.147  0.8624 -0.1487  1.9253
  266MOL0     H35879   6.056   8.426   5.035 -1.7584  0.3281 -0.1405
  266MOL0     H35880   5.938   8.406   5.313 -0.1635 -2.5345  0.5052
  266MOL0     H35881   5.946   8.270   5.196  0.6397 -0.4333  0.2993
  266MOL0     H35882   5.802   8.536   5.119  1.0808  0.4770  0.5981
  266MOL0     H35883   5.800   8.396   5.031 -1.6842  0.5963 -0.3523
  266MOL0     H35884   5.690   8.463   5.300  0.6641 -1.0539  0.2047
  266MOL0     H35885   5.696   8.301   5.280 -3.3637  0.6155  1.6207
  266MOL0     H35886   5.462   8.402   5.202  0.7965 -2.0993  1.5189
  266MOL0     H35887   5.560   8.497   5.080  0.8056  1.2058  0.8816
  266MOL0     H35888   5.583   8.205   5.075 -1.1026 -0.5802  1.7688
  266MOL0     H35889   5.599   8.325   4.947 -1.4552 -3.0204 -1.5202
  266MOL0     H35890   5.406   8.186   4.921  0.4443  0.3106 -1.8371
  266MOL0     H35891   5.353   8.359   4.929  2.1803 -0.7779 -1.9570
  266MOL0     H35892   6.441   8.405   5.202 -0.2711  0.4264  0.3200
  266MOL0     H35893   6.642   8.327   5.313 -1.3525  1.9220 -0.8720
  266MOL0     H35894   7.076   8.261   5.524 -0.2349 -1.1725  1.5553
  266MOL0     H35895   7.258   8.291   5.681 -0.8829 -0.8318 -0.1908
  266MOL0     H35896   8.842   8.738   6.048 -0.6836 -0.2873  0.4381
  266MOL0     H35897   9.064   8.672   5.946  2.9810 -1.4927  0.6986
  266MOL0     H35898   9.497   8.578   5.990  0.8350 -0.4637 -0.6155
  266MOL0     H35899   9.640   8.418   5.855  0.0314 -0.4752  1.2769
  266MOL0     H35900   9.578   8.448   5.424  0.3481  2.2526  0.5040
  266MOL0     H35901   9.745   8.379   5.456 -1.1571 -1.1135  1.0165
  266MOL0     H35902   9.485   8.201   5.470 -0.9479 -1.2519 -0.8302
  266MOL0     H35903   9.648   8.139   5.436  0.6009 -0.3253 -0.9342
  266MOL0     H35904   9.669   8.219   5.222 -1.2766  2.5087 -3.7106
  266MOL0     H35905   9.536   8.338   5.223 -1.9606 -1.0382 -2.2318
  266MOL0     H35906   9.502   8.140   5.075  0.8251  0.1290  0.2695
  266MOL0     H35907   9.376   8.159   5.200  0.2806  1.2682 -0.9376
  266MOL0     H35908   9.590   7.786   5.262  0.4505 -1.1427 -2.2720
  266MOL0     H35909   9.410   8.494   5.518  1.4854  0.3027  0.3752
  266MOL0     H35910   9.264   8.668   5.658  1.0833  1.4931 -0.0067
  267MOL0     O35911  10.290   7.254   5.223  0.5076 -0.3301 -0.6310
  267MOL0     C35912  10.257   7.143   5.264  0.1691 -0.3160 -0.2096
  267MOL0     O35913  10.130   7.101   5.316  0.1676 -0.0879 -0.0175
  267MOL0     C35914  10.010   7.163   5.308 -0.4035 -0.2616 -0.9845
  267MOL0     C35915   9.904   7.090   5.351  1.3951 -0.6388  0.0793
  267MOL0     C35916   9.774   7.145   5.352 -0.1749 -0.3555 -0.5640
  267MOL0     C35917   9.756   7.276   5.317 -0.0677 -0.5967  0.6653
  267MOL0     O35918   9.625   7.317   5.308 -0.3340  0.2373 -0.2258
  267MOL0     C35919   9.591   7.398   5.196  0.6032  0.2239  0.5908
  267MOL0     C35920   9.470   7.343   5.118 -0.4298  0.5909  0.0808
  267MOL0     C35921   9.347   7.423   5.169  0.5789 -0.0791 -0.1449
  267MOL0     C35922   9.336   7.551   5.090  0.2366  0.1382 -0.0063
  267MOL0     C35923   9.188   7.570   5.077 -0.3643 -0.5863  0.2418
  267MOL0     C35924   9.114   7.598   5.216 -0.6023  0.2922  0.0464
  267MOL0     C35925   8.966   7.617   5.203 -0.5673 -0.8497 -0.4789
  267MOL0     C35926   8.910   7.679   5.331  0.1655 -0.3848 -0.8240
  267MOL0     N35927   8.882   7.576   5.436  0.1687 -0.5351 -0.0910
  267MOL0     C35928   8.794   7.469   5.423  0.0882 -0.5781  0.0519
  267MOL0     C35929   8.795   7.409   5.538  0.0911 -0.3873  0.4800
  267MOL0     C35930   8.716   7.285   5.568 -0.3964 -0.1052  0.2186
  267MOL0     C35931   8.696   7.269   5.719  0.0364 -0.4925  1.4124
  267MOL0     C35932   8.613   7.152   5.770 -0.2737 -0.1859  0.4186
  267MOL0     C35933   8.466   7.156   5.742  0.0345 -0.0758  0.8563
  267MOL0     O35934   8.414   7.274   5.803 -0.5150  0.0120 -0.4040
  267MOL0     C35935   8.278   7.266   5.817  0.3530  0.4517 -1.0194
  267MOL0     C35936   8.211   7.188   5.914 -0.5468 -0.9637  0.2149
  267MOL0     C35937   8.068   7.175   5.928 -0.2081  0.4060 -0.4989
  267MOL0     C35938   8.000   7.091   6.042  0.3081  0.3239  0.4029
  267MOL0     C35939   7.996   7.256   5.838 -0.8294 -0.0462 -0.2020
  267MOL0     C35940   7.845   7.257   5.832  0.6966  0.5415 -0.0746
  267MOL0     O35941   7.779   7.373   5.846  0.0930  0.3480 -0.0225
  267MOL0     C35942   7.638   7.386   5.839 -0.1212 -0.0208 -0.1024
  267MOL0     C35943   7.587   7.505   5.890  0.0145 -0.0136  0.3902
  267MOL0     C35944   7.450   7.535   5.885 -0.8998 -0.3418 -0.1425
  267MOL0     C35945   7.366   7.452   5.809  0.4407 -0.4788  0.3988
  267MOL0     O35946   7.238   7.488   5.762 -0.1347  0.1800 -1.5958
  267MOL0     C35947   7.157   7.566   5.852 -0.2378 -0.6776  0.1719
  267MOL0     C35948   7.011   7.543   5.802 -1.0190  0.5638  0.5580
  267MOL0     C35949   6.917   7.601   5.912  0.7674 -0.1308  0.3951
  267MOL0     C35950   6.773   7.595   5.869  0.2230 -0.3573  1.4175
  267MOL0     C35951   6.673   7.586   5.988 -0.0253 -0.0272  0.2787
  267MOL0     C35952   6.532   7.557   5.933 -0.7764  0.7312  0.3883
  267MOL0     C35953   6.427   7.556   6.053 -0.0444 -0.8909  0.1481
  267MOL0     C35954   6.409   7.694   6.108  0.8887  0.1548 -0.0596
  267MOL0    Cl35955   6.297   7.793   6.008  0.2092 -0.1045 -0.1430
  267MOL0     C35956   7.419   7.334   5.757  1.4272  0.1759 -1.5040
  267MOL0     C35957   7.548   7.293   5.791 -0.2041  0.1302 -0.0072
  267MOL0     O35958   7.792   7.148   5.837  0.3946 -0.3085  0.1387
  267MOL0     C35959   8.062   7.338   5.744 -0.3442 -0.7026 -0.8961
  267MOL0     C35960   8.203   7.340   5.733 -0.2232 -0.2269 -0.5248
  267MOL0     N35961   8.888   7.477   5.626 -0.0945  0.0982  0.2261
  267MOL0     N35962   8.939   7.577   5.566 -0.5267 -0.0387  0.1495
  267MOL0     C35963   9.870   7.353   5.277  0.4476 -0.2674 -0.3509
  267MOL0     C35964   9.992   7.294   5.273 -0.2424  0.0795 -0.1693
  267MOL0     C35965  10.377   7.054   5.288  0.6913 -0.0956 -0.0628
  267MOL0     C35966  10.515   7.086   5.261  0.5138 -1.2820  0.9488
  267MOL0     C35967  10.617   7.000   5.300  0.8332 -0.2101 -0.3631
  267MOL0     C35968  10.587   6.881   5.368  0.1572  1.0030  0.9334
  267MOL0     O35969  10.675   6.773   5.388 -0.4740 -0.3744 -0.9053
  267MOL0     C35970  10.778   6.752   5.283  0.4364 -0.2065  0.3198
  267MOL0     C35971  10.721   6.703   5.150  0.4551 -1.2647  0.0850
  267MOL0     C35972  10.618   6.588   5.174  0.9055 -0.5940 -0.6250
  267MOL0     C35973  10.488   6.622   5.109  0.2581  0.2494 -0.7174
  267MOL0     C35974  10.485   6.586   4.967 -0.9626  0.0605 -0.4796
  267MOL0     C35975  10.473   6.551   4.851  0.1096  0.3444 -0.7374
  267MOL0     C35976  10.447   6.854   5.407  0.6556 -0.4895 -0.2993
  267MOL0     C35977  10.343   6.932   5.359  0.2470  0.5851 -0.0230
  267MOL0     H35978   9.922   6.988   5.382  1.8157 -1.5705 -2.9652
  267MOL0     H35979   9.689   7.082   5.379  0.9460 -0.2001  4.2184
  267MOL0     H35980   9.573   7.502   5.224 -1.4406  0.6780 -1.9986
  267MOL0     H35981   9.676   7.392   5.128  1.6716  0.2840  1.8768
  267MOL0     H35982   9.475   7.347   5.009  1.6693  1.7946  0.1638
  267MOL0     H35983   9.465   7.238   5.147 -0.4142 -0.7313 -4.1271
  267MOL0     H35984   9.260   7.358   5.151 -0.0801  0.3953  1.1982
  267MOL0     H35985   9.359   7.451   5.274  1.0841  2.1987 -0.7450
  267MOL0     H35986   9.382   7.636   5.141  1.3206 -0.6535  0.3711
  267MOL0     H35987   9.386   7.548   4.993  0.5703  3.5727 -0.0537
  267MOL0     H35988   9.170   7.661   5.018  0.3910 -0.3882  0.3142
  267MOL0     H35989   9.129   7.490   5.033  0.8345 -1.4850  0.2356
  267MOL0     H35990   9.147   7.521   5.286 -1.6878 -0.5871 -0.3722
  267MOL0     H35991   9.155   7.692   5.256 -1.4757 -0.4262  2.9116
  267MOL0     H35992   8.955   7.691   5.123  0.8866  0.7035  0.6901
  267MOL0     H35993   8.904   7.537   5.160  1.3960 -1.3870 -2.5149
  267MOL0     H35994   8.820   7.737   5.310  0.6880  1.3685  1.3441
  267MOL0     H35995   8.980   7.753   5.374 -0.1360 -0.4732 -0.1634
  267MOL0     H35996   8.736   7.440   5.336  0.0916 -0.6389  0.0699
  267MOL0     H35997   8.621   7.289   5.515  1.9388  0.4817 -4.5250
  267MOL0     H35998   8.765   7.195   5.528  2.5672  0.5063  2.1637
  267MOL0     H35999   8.643   7.362   5.741 -1.5459 -1.0448  0.1194
  267MOL0     H36000   8.792   7.264   5.771  0.2496  1.3674  1.2563
  267MOL0     H36001   8.617   7.151   5.879  0.3992  2.4659  0.4804
  267MOL0     H36002   8.668   7.065   5.731  2.2106  0.8882  1.3588
  267MOL0     H36003   8.418   7.063   5.774 -0.6100 -0.2498 -0.5295
  267MOL0     H36004   8.449   7.160   5.634  0.4432 -3.6339  0.5390
  267MOL0     H36005   8.267   7.136   5.991 -0.8098  2.2351  2.8103
  267MOL0     H36006   7.937   7.164   6.095 -1.3183 -0.5689 -0.2261
  267MOL0     H36007   7.936   7.010   6.005 -0.3799  1.3634 -0.7314
  267MOL0     H36008   8.071   7.042   6.109 -0.0224  0.2734  0.7244
  267MOL0     H36009   7.658   7.576   5.932  0.1658  0.1964 -0.2169
  267MOL0     H36010   7.404   7.627   5.920 -3.0764 -1.0430 -0.9699
  267MOL0     H36011   7.174   7.532   5.955  3.7506  1.0608  0.2634
  267MOL0     H36012   7.182   7.672   5.850  1.9425 -1.1559 -0.6133
  267MOL0     H36013   7.001   7.586   5.702  0.7564  1.0398  0.5555
  267MOL0     H36014   6.997   7.435   5.791  0.0570  0.5690 -1.2261
  267MOL0     H36015   6.927   7.709   5.924  0.4478 -0.1988  1.3461
  267MOL0     H36016   6.929   7.559   6.012 -1.3096 -2.6072 -0.2851
  267MOL0     H36017   6.759   7.681   5.802  1.0369 -0.4942  1.0673
  267MOL0     H36018   6.752   7.501   5.818 -0.8616 -0.8677  2.7346
  267MOL0     H36019   6.676   7.679   6.045  0.7652 -1.0959  2.0702
  267MOL0     H36020   6.694   7.492   6.041 -0.8265 -1.2723 -1.5044
  267MOL0     H36021   6.510   7.626   5.852  1.4783 -0.3996 -1.2990
  267MOL0     H36022   6.539   7.455   5.893 -0.7479  0.9575 -0.1900
  267MOL0     H36023   6.468   7.489   6.130 -1.4217  0.3693  2.0559
  267MOL0     H36024   6.331   7.516   6.021 -0.0863 -1.3038  0.7730
  267MOL0     H36025   6.497   7.753   6.137 -1.2943  2.6850  2.0993
  267MOL0     H36026   6.362   7.688   6.207 -2.6312  2.2316 -1.4104
  267MOL0     H36027   7.351   7.267   5.706 -0.8336 -1.5193  3.1376
  267MOL0     H36028   7.578   7.195   5.754 -0.7314  0.5618 -1.6518
  267MOL0     H36029   8.006   7.407   5.683 -0.9687 -0.3203  0.0737
  267MOL0     H36030   8.246   7.402   5.655 -2.0618 -0.0546 -1.4608
  267MOL0     H36031   9.854   7.458   5.256  0.5390 -0.1303  0.2566
  267MOL0     H36032  10.072   7.362   5.246 -1.0947  1.2423  0.2092
  267MOL0     H36033  10.553   7.177   5.216  0.5995 -2.0426 -0.5715
  267MOL0     H36034  10.720   7.023   5.275  0.7804 -1.0276 -1.4254
  267MOL0     H36035  10.835   6.843   5.263 -0.0948  0.2266  0.7436
  267MOL0     H36036  10.854   6.686   5.325  2.1410  0.8621 -0.9892
  267MOL0     H36037  10.794   6.683   5.072  0.1324 -1.0253 -0.2791
  267MOL0     H36038  10.671   6.795   5.117  0.4675 -1.5806 -0.8225
  267MOL0     H36039  10.604   6.576   5.281  1.3085 -3.2303 -0.7949
  267MOL0     H36040  10.665   6.494   5.143  1.7902 -0.2827 -0.2733
  267MOL0     H36041  10.463   6.727   5.129  1.0811  0.6661 -1.7799
  267MOL0     H36042  10.412   6.563   5.162  1.2678 -0.0027  0.4988
  267MOL0     H36043  10.471   6.512   4.751  0.7248 -0.0576 -0.5973
  267MOL0     H36044  10.418   6.757   5.447 -0.3087 -1.2356 -2.6107
  267MOL0     H36045  10.238   6.905   5.361 -0.2605  2.2258 -1.5913
  268MOL0     O36046   4.729   8.684   5.884  0.7788  0.6476 -0.7607
  268MOL0     C36047   4.798   8.649   5.984  0.1525 -0.0730  0.1719
  268MOL0     O36048   4.756   8.642   6.116 -0.6649 -0.5603 -0.1122
  268MOL0     C36049   4.636   8.695   6.168  0.1828 -0.3131 -0.1019
  268MOL0     C36050   4.613   8.664   6.303 -0.5350  0.2348 -0.0593
  268MOL0     C36051   4.503   8.716   6.373  0.0334 -0.7054  0.8817
  268MOL0     C36052   4.409   8.791   6.303 -0.0157 -1.1320 -0.3167
  268MOL0     O36053   4.298   8.830   6.370 -0.2976 -0.1970  0.2336
  268MOL0     C36054   4.181   8.760   6.321 -0.2064 -0.1023 -0.1755
  268MOL0     C36055   4.081   8.737   6.440 -0.4950 -0.7846 -0.3395
  268MOL0     C36056   3.941   8.698   6.390 -0.4556  0.8310 -0.6335
  268MOL0     C36057   3.838   8.693   6.512 -0.4523  0.0093  0.4955
  268MOL0     C36058   3.849   8.571   6.606 -0.0155 -0.6760  0.2204
  268MOL0     C36059   3.741   8.569   6.713 -0.0097  0.4054 -0.6734
  268MOL0     C36060   3.761   8.432   6.781  0.3069  0.1208 -0.4327
  268MOL0     C36061   3.675   8.402   6.905  0.4687 -0.0304 -1.2519
  268MOL0     N36062   3.534   8.388   6.880  0.3665  0.0901  0.7977
  268MOL0     C36063   3.438   8.484   6.883 -0.0714 -0.4980 -0.6289
  268MOL0     C36064   3.337   8.443   6.802 -0.2756  0.0761  0.1984
  268MOL0     C36065   3.198   8.503   6.784  0.4959 -0.2214 -0.3159
  268MOL0     C36066   3.177   8.547   6.635 -0.5184 -0.4500  0.3461
  268MOL0     C36067   3.067   8.663   6.634  1.1369 -0.1133  0.4748
  268MOL0     C36068   2.923   8.609   6.632  0.5308  0.1994 -0.5860
  268MOL0     O36069   2.904   8.507   6.534 -0.3043  0.2386 -0.0614
  268MOL0     C36070   2.773   8.487   6.507 -0.3175 -0.8423 -0.0702
  268MOL0     C36071   2.734   8.506   6.375  0.1547  0.2122  0.3182
  268MOL0     C36072   2.599   8.482   6.330  0.6217  0.5054 -0.1785
  268MOL0     C36073   2.564   8.513   6.186  0.1908  0.2574 -0.0436
  268MOL0     C36074   2.508   8.435   6.428 -0.7824  0.1691  0.8058
  268MOL0     C36075   2.363   8.411   6.394  0.1069  0.4761  0.8775
  268MOL0     O36076   2.282   8.380   6.497 -0.6861  0.0457  0.1039
  268MOL0     C36077   2.148   8.334   6.482  0.9565 -0.4658 -0.3095
  268MOL0     C36078   2.106   8.257   6.367  0.1493 -0.0560  0.5171
  268MOL0     C36079   1.975   8.206   6.364  0.5383 -0.3721  0.9495
  268MOL0     C36080   1.884   8.228   6.468  0.5364  0.5781 -0.0804
  268MOL0     O36081   1.753   8.192   6.454 -0.9806 -0.5658 -0.2527
  268MOL0     C36082   1.717   8.087   6.361  0.4519 -0.0829 -0.0624
  268MOL0     C36083   1.590   8.023   6.411 -0.3178  0.2942 -0.2633
  268MOL0     C36084   1.547   7.931   6.296  1.2151 -0.5773  0.0723
  268MOL0     C36085   1.400   7.902   6.306  0.4387  0.2792 -0.7124
  268MOL0     C36086   1.350   7.816   6.189  0.0007  0.2432  0.0082
  268MOL0     C36087   1.299   7.891   6.067  0.4966  0.0256 -0.0759
  268MOL0     C36088   1.259   7.789   5.960  0.3866 -0.2788  0.4526
  268MOL0     C36089   1.144   7.807   5.868 -0.1992  0.1837  0.8160
  268MOL0    Cl36090   1.172   7.971   5.804 -0.1098 -0.2797  0.1619
  268MOL0     C36091   1.918   8.311   6.572  0.2808 -0.3551 -0.5586
  268MOL0     C36092   2.055   8.359   6.578 -0.2682 -0.7252 -1.1326
  268MOL0     O36093   2.323   8.427   6.274  0.4643 -0.3390  0.5021
  268MOL0     C36094   2.554   8.402   6.558  0.2115 -0.9551  1.0253
  268MOL0     C36095   2.685   8.432   6.599 -0.8525  1.0145  1.0143
  268MOL0     N36096   3.374   8.321   6.747 -0.4313  0.5151  0.0221
  268MOL0     N36097   3.488   8.297   6.793 -0.1947  1.1336  0.1024
  268MOL0     C36098   4.431   8.826   6.165  0.1276 -0.8902 -0.6817
  268MOL0     C36099   4.543   8.778   6.098 -0.3833  0.3258  0.3122
  268MOL0     C36100   4.941   8.618   5.965  0.1369  0.2391  0.2608
  268MOL0     C36101   5.005   8.651   5.846  0.1371 -0.1075  0.1245
  268MOL0     C36102   5.139   8.620   5.830 -0.7114  0.3835  0.1164
  268MOL0     C36103   5.221   8.563   5.927  0.3553  0.2106 -0.5317
  268MOL0     O36104   5.351   8.542   5.895 -0.1793 -0.2133  0.0619
  268MOL0     C36105   5.439   8.506   6.007 -0.9542  0.0334  0.3342
  268MOL0     C36106   5.563   8.444   5.941 -0.4544 -0.2701 -0.3687
  268MOL0     C36107   5.682   8.464   6.032  0.8405 -0.5503 -0.0525
  268MOL0     C36108   5.806   8.386   6.000  0.6916  0.1071  0.5799
  268MOL0     C36109   5.797   8.246   6.046 -0.0820 -0.9759  0.1296
  268MOL0     C36110   5.797   8.125   6.081  0.1105 -0.0828 -0.8632
  268MOL0     C36111   5.156   8.537   6.047  0.3299 -0.1180 -0.3034
  268MOL0     C36112   5.016   8.567   6.066 -0.5069  0.1220  0.2108
  268MOL0     H36113   4.686   8.600   6.352  0.3661  1.7490  0.6491
  268MOL0     H36114   4.498   8.713   6.482  0.2576 -2.2479  0.8822
  268MOL0     H36115   4.141   8.826   6.244  1.8373 -1.3283 -2.4114
  268MOL0     H36116   4.191   8.659   6.280  2.1368 -0.1292  0.3614
  268MOL0     H36117   4.126   8.674   6.517  2.4009  0.9209 -0.4738
  268MOL0     H36118   4.062   8.834   6.485  0.4628  0.5565 -2.6568
  268MOL0     H36119   3.901   8.777   6.327 -0.8830  1.1077 -0.0261
  268MOL0     H36120   3.943   8.604   6.335 -0.6107 -0.1315  0.9323
  268MOL0     H36121   3.853   8.778   6.578 -1.1395  0.4241  0.1223
  268MOL0     H36122   3.734   8.700   6.479 -0.6756 -2.4875  0.4415
  268MOL0     H36123   3.850   8.481   6.544  1.8423 -0.4499 -0.1420
  268MOL0     H36124   3.949   8.582   6.648 -0.6482  4.0548  0.9583
  268MOL0     H36125   3.760   8.653   6.780 -3.1082 -0.3653  1.4155
  268MOL0     H36126   3.642   8.577   6.667 -0.3357 -0.1710 -0.0893
  268MOL0     H36127   3.750   8.361   6.699 -1.1637  1.8115 -1.8060
  268MOL0     H36128   3.860   8.434   6.827  0.3320  4.2592 -0.3074
  268MOL0     H36129   3.679   8.482   6.980  0.2575 -3.5184  2.8763
  268MOL0     H36130   3.710   8.313   6.960 -1.4205  1.2017  2.2380
  268MOL0     H36131   3.423   8.571   6.947 -0.2340 -0.4076 -0.7890
  268MOL0     H36132   3.117   8.436   6.813  1.2397 -0.7867  0.4992
  268MOL0     H36133   3.196   8.588   6.853 -2.7890 -2.4575  2.6092
  268MOL0     H36134   3.144   8.465   6.570 -1.7531 -1.0002  1.6181
  268MOL0     H36135   3.272   8.581   6.593 -0.5305 -1.7178 -0.7622
  268MOL0     H36136   3.073   8.719   6.540  0.3894 -0.6648  0.0859
  268MOL0     H36137   3.087   8.735   6.713  0.3546  0.2004  0.3900
  268MOL0     H36138   2.862   8.698   6.612  1.0292  0.2524 -2.0733
  268MOL0     H36139   2.904   8.579   6.735  0.7802 -1.3156 -0.9634
  268MOL0     H36140   2.810   8.535   6.304  0.3101 -3.3638 -1.1629
  268MOL0     H36141   2.524   8.423   6.137 -1.6462  0.0192  1.7622
  268MOL0     H36142   2.487   8.590   6.194 -0.4553 -0.4997  1.3450
  268MOL0     H36143   2.653   8.548   6.132 -0.1263 -1.3149 -1.7030
  268MOL0     H36144   2.166   8.228   6.282  1.3908 -1.6284  1.8719
  268MOL0     H36145   1.954   8.138   6.282  1.9919  1.3453 -0.9385
  268MOL0     H36146   1.703   8.130   6.262  1.7107  0.1275 -0.1661
  268MOL0     H36147   1.781   7.998   6.358 -0.0534 -0.5258  1.4228
  268MOL0     H36148   1.598   7.962   6.501 -1.1219  0.4852 -0.0471
  268MOL0     H36149   1.510   8.091   6.445 -2.5565 -3.2419  2.1719
  268MOL0     H36150   1.600   7.837   6.313 -0.9254 -1.7537  0.7136
  268MOL0     H36151   1.571   7.968   6.196 -0.1970  0.3941  0.0542
  268MOL0     H36152   1.388   7.845   6.399 -3.2431  1.4252 -0.3463
  268MOL0     H36153   1.335   7.989   6.315  0.7707  0.3299  1.9985
  268MOL0     H36154   1.272   7.744   6.220 -0.5429  0.1906 -1.3975
  268MOL0     H36155   1.429   7.752   6.148 -0.5851  0.1316 -0.9834
  268MOL0     H36156   1.210   7.948   6.097  0.5063  0.2643 -0.4893
  268MOL0     H36157   1.381   7.959   6.041  2.1946 -1.7599  0.3891
  268MOL0     H36158   1.241   7.687   5.996  2.0064 -0.7759 -0.0562
  268MOL0     H36159   1.349   7.763   5.903 -1.1387 -1.9036 -1.3631
  268MOL0     H36160   1.056   7.800   5.933 -0.6606  0.9453  0.2887
  268MOL0     H36161   1.141   7.731   5.790  0.7419  0.5503  0.4162
  268MOL0     H36162   1.848   8.327   6.654  1.9094 -1.5170  1.1763
  268MOL0     H36163   2.077   8.422   6.664 -1.9291 -3.3925  1.4167
  268MOL0     H36164   2.487   8.367   6.636 -0.1043  0.0826  1.2377
  268MOL0     H36165   2.714   8.412   6.702 -0.2498 -2.1975  0.3192
  268MOL0     H36166   4.373   8.901   6.114  0.1225 -0.8586 -0.6293
  268MOL0     H36167   4.544   8.794   5.991 -0.1433  1.1323  0.4235
  268MOL0     H36168   4.962   8.694   5.757 -0.0618 -2.0168 -0.7456
  268MOL0     H36169   5.186   8.632   5.733 -3.1480 -4.0527 -1.8926
  268MOL0     H36170   5.459   8.599   6.061  0.2191 -0.0165  0.0048
  268MOL0     H36171   5.398   8.437   6.082  0.2073 -0.4925  0.5133
  268MOL0     H36172   5.578   8.483   5.840  0.9904 -3.4688 -1.5211
  268MOL0     H36173   5.543   8.337   5.934 -1.6395 -0.1820  1.0885
  268MOL0     H36174   5.656   8.447   6.137 -1.6152  0.1963 -0.4829
  268MOL0     H36175   5.714   8.568   6.022 -0.1206  0.0894  2.7739
  268MOL0     H36176   5.888   8.429   6.057  0.8761 -0.0831  0.4605
  268MOL0     H36177   5.828   8.414   5.897  1.1741  1.0721  0.9364
  268MOL0     H36178   5.790   8.023   6.114 -0.8113  0.7856  1.9122
  268MOL0     H36179   5.196   8.499   6.141 -1.8029 -0.0379  0.7092
  268MOL0     H36180   4.968   8.545   6.161  1.6808  0.9455  1.5816
  269MOL0     O36181   3.844   2.548   1.324 -0.0292  0.3586  0.2961
  269MOL0     C36182   3.824   2.442   1.260  0.2446  0.3005 -0.2706
  269MOL0     O36183   3.696   2.380   1.243  0.0708  0.2609 -0.0609
  269MOL0     C36184   3.594   2.416   1.333  0.5046  0.2509  1.0287
  269MOL0     C36185   3.589   2.361   1.454 -0.1364  0.0552 -0.7827
  269MOL0     C36186   3.480   2.401   1.541  0.3048 -0.0925  0.1722
  269MOL0     C36187   3.372   2.478   1.496  0.2134  0.3591  0.7022
  269MOL0     O36188   3.266   2.477   1.578  0.3883 -0.6812 -0.0735
  269MOL0     C36189   3.134   2.477   1.530 -0.1604 -0.3168 -0.2353
  269MOL0     C36190   3.051   2.402   1.638 -0.1212 -0.3886  0.1993
  269MOL0     C36191   2.911   2.380   1.600 -0.9691 -0.8070  0.4367
  269MOL0     C36192   2.835   2.320   1.717 -0.2081 -0.2681 -0.7295
  269MOL0     C36193   2.684   2.304   1.690 -0.0584  0.2908 -0.0045
  269MOL0     C36194   2.656   2.177   1.608  0.0567 -0.5308  0.2296
  269MOL0     C36195   2.508   2.175   1.553 -0.2559 -0.2625  0.8141
  269MOL0     C36196   2.400   2.163   1.665  0.1645  0.4991  0.3316
  269MOL0     N36197   2.268   2.161   1.605  0.5084  0.2043  0.0670
  269MOL0     C36198   2.213   2.049   1.541 -0.8012 -0.0280  0.1037
  269MOL0     C36199   2.097   2.093   1.486 -0.2202 -0.2773  0.2081
  269MOL0     C36200   2.003   2.010   1.401  0.5705  0.2337  0.1610
  269MOL0     C36201   2.073   1.913   1.287  0.1396 -0.1089  0.4405
  269MOL0     C36202   1.963   1.810   1.233 -1.0294 -0.2319  0.1341
  269MOL0     C36203   1.817   1.831   1.269  0.1916 -0.2828 -0.0437
  269MOL0     O36204   1.747   1.718   1.201  0.1317 -0.3457  0.1135
  269MOL0     C36205   1.611   1.727   1.196 -0.3575 -0.0064 -0.5252
  269MOL0     C36206   1.534   1.828   1.255  0.8199 -0.0523 -0.2583
  269MOL0     C36207   1.397   1.820   1.269  0.0523 -0.1246  0.3012
  269MOL0     C36208   1.339   1.942   1.334  0.6138 -0.0588  0.6841
  269MOL0     C36209   1.324   1.710   1.211  0.8458  0.6088 -0.2016
  269MOL0     C36210   1.178   1.686   1.238 -0.0189 -0.8992  0.8666
  269MOL0     O36211   1.128   1.561   1.209 -0.1523  0.3273 -0.4514
  269MOL0     C36212   0.994   1.545   1.220  0.3826 -0.3505 -0.2794
  269MOL0     C36213   0.908   1.563   1.329 -0.2712  0.4604 -0.1215
  269MOL0     C36214   0.771   1.545   1.318 -0.1973  0.2784 -0.5625
  269MOL0     C36215   0.715   1.499   1.196  0.2972 -0.1468  0.7018
  269MOL0     O36216   0.578   1.476   1.177 -0.2768  1.0291  0.5511
  269MOL0     C36217   0.509   1.543   1.068 -0.0701 -0.2582 -0.6041
  269MOL0     C36218   0.357   1.572   1.074  0.2201  0.4263 -0.0583
  269MOL0     C36219   0.304   1.686   0.983  0.8707  0.6898 -0.1728
  269MOL0     C36220   0.188   1.771   1.029 -0.1443 -0.2726 -0.7825
  269MOL0     C36221   0.066   1.679   1.058  0.8696 -0.4131 -0.8097
  269MOL0     C36222  -0.053   1.774   1.098  0.4460 -0.9348  0.0289
  269MOL0     C36223  -0.184   1.706   1.152 -0.3030 -0.5012 -0.1679
  269MOL0     C36224  -0.252   1.596   1.056 -0.0777 -0.1394 -0.2117
  269MOL0    Cl36225  -0.407   1.539   1.129  0.1562 -0.5318 -0.2643
  269MOL0     C36226   0.797   1.500   1.085 -0.2599  0.3939 -1.0017
  269MOL0     C36227   0.936   1.527   1.092  0.2281 -0.3883 -0.0539
  269MOL0     O36228   1.107   1.782   1.273 -0.6167 -0.1628  0.0937
  269MOL0     C36229   1.394   1.607   1.153 -0.6769 -0.6057 -0.1120
  269MOL0     C36230   1.533   1.620   1.139 -0.6840  0.0282 -0.7090
  269MOL0     N36231   2.084   2.225   1.516 -0.1620 -0.1788 -0.5706
  269MOL0     N36232   2.175   2.264   1.599  0.2255  0.3904  0.9733
  269MOL0     C36233   3.375   2.526   1.364 -0.2199  1.1861  1.2917
  269MOL0     C36234   3.487   2.488   1.286  0.6485 -0.5647 -0.1462
  269MOL0     C36235   3.936   2.387   1.195 -1.2811  0.2872  0.1802
  269MOL0     C36236   3.929   2.330   1.070 -0.6169 -0.3911  0.3545
  269MOL0     C36237   4.049   2.305   1.005 -0.5902 -0.0526 -0.2250
  269MOL0     C36238   4.175   2.318   1.060  1.2140  0.0346 -0.8374
  269MOL0     O36239   4.291   2.303   0.990 -0.4017 -0.0751  0.3930
  269MOL0     C36240   4.412   2.379   1.032 -0.2163  0.0380  0.2639
  269MOL0     C36241   4.529   2.344   0.934 -0.3897 -0.1915 -0.4606
  269MOL0     C36242   4.489   2.333   0.791  0.1239 -0.3793 -0.1679
  269MOL0     C36243   4.613   2.326   0.705 -0.0298  0.1439 -0.5793
  269MOL0     C36244   4.687   2.204   0.735 -0.5782  0.2664 -0.0569
  269MOL0     C36245   4.736   2.094   0.752 -0.4510 -0.2042  0.3982
  269MOL0     C36246   4.181   2.360   1.197  0.4294 -0.6388  0.5750
  269MOL0     C36247   4.063   2.393   1.263 -0.1997  0.0167 -0.6294
  269MOL0     H36248   3.666   2.296   1.493 -0.5060  0.6063  0.9947
  269MOL0     H36249   3.480   2.358   1.640 -0.4433  1.3811  0.8549
  269MOL0     H36250   3.103   2.582   1.526 -0.2965 -0.3156  0.5655
  269MOL0     H36251   3.116   2.424   1.436 -3.1209 -4.9057  2.5157
  269MOL0     H36252   3.102   2.306   1.649 -0.2362 -0.5556 -0.6933
  269MOL0     H36253   3.059   2.462   1.730  0.6182 -0.5359  0.2312
  269MOL0     H36254   2.872   2.478   1.570  2.1156 -0.2297 -2.3648
  269MOL0     H36255   2.909   2.304   1.521  1.9037  0.3203 -0.8763
  269MOL0     H36256   2.886   2.227   1.743 -0.3912  0.0226  0.7962
  269MOL0     H36257   2.846   2.384   1.805 -1.7870 -0.9415 -0.0023
  269MOL0     H36258   2.626   2.286   1.781 -0.3979 -0.3422 -0.3425
  269MOL0     H36259   2.639   2.391   1.641 -2.1854 -1.2651 -0.9889
  269MOL0     H36260   2.722   2.174   1.520  1.3778  1.0215  1.1072
  269MOL0     H36261   2.669   2.084   1.664 -0.9352 -1.1198 -0.4884
  269MOL0     H36262   2.478   2.265   1.498 -2.0072 -0.3528  1.5414
  269MOL0     H36263   2.502   2.091   1.483 -0.1010  0.0236  0.4560
  269MOL0     H36264   2.406   2.256   1.721 -4.6369  0.2770  1.6856
  269MOL0     H36265   2.414   2.071   1.724  0.9612  0.9791  0.9042
  269MOL0     H36266   2.268   1.958   1.523  2.7850  2.0066 -0.0703
  269MOL0     H36267   1.966   1.933   1.469  2.4942 -1.2099 -0.3407
  269MOL0     H36268   1.926   2.077   1.360  1.9289  2.0582  0.4621
  269MOL0     H36269   2.154   1.861   1.338 -0.1055  0.9092  1.9277
  269MOL0     H36270   2.115   1.967   1.201  2.9861  0.9795  2.3844
  269MOL0     H36271   1.989   1.709   1.265 -0.7703 -1.2390 -2.9402
  269MOL0     H36272   1.973   1.816   1.124  0.7154 -0.3770  0.2693
  269MOL0     H36273   1.785   1.931   1.239 -0.6280 -0.9604 -1.5087
  269MOL0     H36274   1.808   1.814   1.377 -3.6755  2.5113  0.2671
  269MOL0     H36275   1.589   1.905   1.307  1.0989 -1.2843  1.3575
  269MOL0     H36276   1.316   1.939   1.441 -2.3102  2.8888  0.3134
  269MOL0     H36277   1.413   2.021   1.321  0.0344  0.7373  1.9386
  269MOL0     H36278   1.248   1.971   1.281  1.5733 -0.8563 -1.5071
  269MOL0     H36279   0.941   1.593   1.428  0.2113 -2.8086  0.8397
  269MOL0     H36280   0.705   1.564   1.402 -0.8066 -3.5729  0.0048
  269MOL0     H36281   0.554   1.640   1.047 -0.1985 -0.1773 -0.5021
  269MOL0     H36282   0.513   1.478   0.980 -0.9642  0.5431 -1.2514
  269MOL0     H36283   0.298   1.483   1.050  0.2098  0.2205  0.7115
  269MOL0     H36284   0.336   1.603   1.176  0.2479 -1.2818  0.4925
  269MOL0     H36285   0.275   1.653   0.883 -0.4076  1.0069  0.0771
  269MOL0     H36286   0.386   1.757   0.966  1.8712 -0.8465 -2.1716
  269MOL0     H36287   0.214   1.819   1.123 -0.0337 -0.3151 -0.7912
  269MOL0     H36288   0.166   1.845   0.952  1.3090  1.1191  0.0952
  269MOL0     H36289   0.077   1.599   1.132  0.6966 -0.7108 -1.1024
  269MOL0     H36290   0.049   1.622   0.967  2.4783 -0.5469 -1.0568
  269MOL0     H36291  -0.028   1.856   1.165 -1.0180  1.1644 -1.8565
  269MOL0     H36292  -0.077   1.804   0.996  0.8222 -3.6815 -0.9442
  269MOL0     H36293  -0.253   1.789   1.168  1.4143  1.2645 -1.4885
  269MOL0     H36294  -0.167   1.663   1.251  1.0937 -3.7470 -1.6831
  269MOL0     H36295  -0.181   1.512   1.053  0.1109 -0.0634  1.3583
  269MOL0     H36296  -0.274   1.628   0.953 -2.0986 -2.5728 -0.6519
  269MOL0     H36297   0.763   1.469   0.987 -0.8825 -3.5053  0.2749
  269MOL0     H36298   0.998   1.520   1.002  1.5755 -2.0974  0.9447
  269MOL0     H36299   1.332   1.532   1.105 -1.8231 -0.7701  1.5595
  269MOL0     H36300   1.574   1.534   1.086 -3.8690 -1.8841 -0.3371
  269MOL0     H36301   3.295   2.579   1.313 -0.0503 -1.0439 -1.5777
  269MOL0     H36302   3.488   2.535   1.188  3.6231 -0.5851 -0.1899
  269MOL0     H36303   3.837   2.310   1.016 -1.8293 -1.5561  2.7134
  269MOL0     H36304   4.053   2.270   0.902  3.9438 -0.6118 -0.0712
  269MOL0     H36305   4.397   2.488   1.032  0.6108  0.2221 -2.6909
  269MOL0     H36306   4.436   2.342   1.132  1.8086 -0.1465 -0.2517
  269MOL0     H36307   4.569   2.247   0.965 -0.6904 -0.3773 -0.6543
  269MOL0     H36308   4.600   2.426   0.948 -0.6866 -0.0844  0.4898
  269MOL0     H36309   4.430   2.416   0.752  1.6685 -0.1816 -2.2323
  269MOL0     H36310   4.431   2.241   0.779 -0.6348  0.2416 -1.5636
  269MOL0     H36311   4.676   2.413   0.724  0.4316 -0.3453  0.1935
  269MOL0     H36312   4.579   2.325   0.601  1.5289 -2.0005 -1.1296
  269MOL0     H36313   4.780   2.001   0.782  2.9998  1.5254  1.2476
  269MOL0     H36314   4.271   2.374   1.257 -0.8227  1.3775  2.1183
  269MOL0     H36315   4.073   2.437   1.361  0.8286  0.5995 -0.9744
  270MOL0     O36316   7.068   4.556  10.025  0.4202  0.4118 -0.3803
  270MOL0     C36317   7.093   4.450  10.089 -0.0708 -0.3710 -0.1236
  270MOL0     O36318   7.008   4.352  10.128  0.0825  0.1162  0.2901
  270MOL0     C36319   6.876   4.387  10.106 -0.7849  0.5188  0.3659
  270MOL0     C36320   6.815   4.488  10.185  0.2062  0.6563  0.7934
  270MOL0     C36321   6.679   4.515  10.178 -0.5718  0.9116  0.6963
  270MOL0     C36322   6.601   4.456  10.081  0.8956  1.1900  0.0356
  270MOL0     O36323   6.467   4.477  10.075 -0.5509 -0.2963  0.6577
  270MOL0     C36324   6.420   4.506   9.941 -0.8201 -0.7931 -0.4843
  270MOL0     C36325   6.267   4.498   9.926  0.0411  0.7258 -0.1913
  270MOL0     C36326   6.228   4.348   9.918 -0.9125 -0.4137  0.0581
  270MOL0     C36327   6.076   4.339   9.903 -0.2363 -0.2679 -0.6269
  270MOL0     C36328   6.033   4.189   9.900 -0.0819 -0.7764  0.5441
  270MOL0     C36329   6.034   4.123  10.037  0.8944 -0.4772 -0.7013
  270MOL0     C36330   5.961   4.204  10.144 -0.8470 -0.0338  0.5791
  270MOL0     C36331   5.947   4.129  10.278  0.4237  0.0088  0.2432
  270MOL0     N36332   5.810   4.084  10.300  0.5283 -0.7528 -0.5791
  270MOL0     C36333   5.760   3.967  10.255  0.0742  0.3028  0.5243
  270MOL0     C36334   5.645   3.959  10.321 -0.7782  0.6909 -0.1426
  270MOL0     C36335   5.549   3.842  10.316  0.5525  0.0229  0.6592
  270MOL0     C36336   5.541   3.767  10.446 -0.2829  0.1848  0.4650
  270MOL0     C36337   5.464   3.641  10.437  0.1125 -0.0068  0.1460
  270MOL0     C36338   5.366   3.627  10.548 -0.1794 -0.2102 -0.4294
  270MOL0     O36339   5.273   3.534  10.508  0.3658 -0.0105  0.4791
  270MOL0     C36340   5.143   3.569  10.500  0.4854  0.5941  0.3889
  270MOL0     C36341   5.084   3.625  10.387  0.2775 -0.6384  0.4520
  270MOL0     C36342   4.944   3.666  10.389 -0.8587 -0.2678 -0.4318
  270MOL0     C36343   4.884   3.729  10.266  0.5347  0.6055 -0.0941
  270MOL0     C36344   4.869   3.651  10.508  0.5929  0.4399 -0.5837
  270MOL0     C36345   4.727   3.701  10.529 -0.1277  0.3096 -0.6329
  270MOL0     O36346   4.630   3.654  10.446 -0.4113  0.3301  0.5183
  270MOL0     C36347   4.500   3.661  10.485 -0.5632 -0.3556 -0.2005
  270MOL0     C36348   4.417   3.725  10.398  1.4745  0.1365  0.2669
  270MOL0     C36349   4.278   3.717  10.423  0.1264 -0.2675 -0.4239
  270MOL0     C36350   4.231   3.645  10.534  0.2573  0.0914  0.4464
  270MOL0     O36351   4.099   3.623  10.570  0.4830 -0.2769 -0.1442
  270MOL0     C36352   4.005   3.712  10.526 -0.3874 -0.1512 -0.0833
  270MOL0     C36353   3.889   3.709  10.620 -0.2796 -0.6286 -0.3844
  270MOL0     C36354   3.780   3.615  10.564 -0.0814  0.0203 -0.2783
  270MOL0     C36355   3.666   3.601  10.657  0.7548  0.1477 -0.4811
  270MOL0     C36356   3.572   3.481  10.616  1.0610 -1.2694  0.4779
  270MOL0     C36357   3.444   3.463  10.699  0.3790 -0.7258  0.3709
  270MOL0     C36358   3.331   3.385  10.641 -0.1283  0.4936  0.3061
  270MOL0     C36359   3.211   3.364  10.733 -0.7816 -0.3786 -0.0690
  270MOL0    Cl36360   3.151   3.516  10.799  0.2941  0.0515  0.3165
  270MOL0     C36361   4.315   3.587  10.620 -1.1361  0.2081  0.1444
  270MOL0     C36362   4.454   3.589  10.594  0.3890 -0.4648  0.3228
  270MOL0     O36363   4.712   3.785  10.622 -0.0703  0.0538 -0.2474
  270MOL0     C36364   4.930   3.592  10.616  1.1468 -0.6504  0.3997
  270MOL0     C36365   5.063   3.548  10.606 -0.0481 -0.4543 -0.4086
  270MOL0     N36366   5.610   4.075  10.390 -0.2890  0.6689 -0.0195
  270MOL0     N36367   5.714   4.156  10.368  0.2289  0.1850 -0.2974
  270MOL0     C36368   6.661   4.355   9.998  0.2820 -0.6720 -0.5158
  270MOL0     C36369   6.796   4.316  10.020  0.0335 -0.9288 -0.6496
  270MOL0     C36370   7.241   4.437  10.131  0.2509 -0.0968 -0.1436
  270MOL0     C36371   7.280   4.330  10.220  0.6900  0.3827 -0.1883
  270MOL0     C36372   7.407   4.322  10.278  0.4514  0.5859 -0.5175
  270MOL0     C36373   7.497   4.425  10.246 -0.6696  0.1706 -1.1141
  270MOL0     O36374   7.629   4.418  10.274 -0.5949 -0.2754 -0.5186
  270MOL0     C36375   7.682   4.310  10.357  0.4165 -0.4107 -0.0571
  270MOL0     C36376   7.731   4.178  10.288  0.0946  0.3965  0.5290
  270MOL0     C36377   7.820   4.216  10.165  0.1144 -0.2592  0.3632
  270MOL0     C36378   7.867   4.084  10.090 -0.3723 -0.5497 -0.6280
  270MOL0     C36379   7.756   3.996  10.067  0.4587 -0.5530 -0.7686
  270MOL0     C36380   7.647   3.938  10.049  0.8671  0.4515  0.3807
  270MOL0     C36381   7.460   4.523  10.151 -0.3882  0.0877 -0.2728
  270MOL0     C36382   7.335   4.529  10.091  0.7773  0.1403 -0.3006
  270MOL0     H36383   6.883   4.532  10.257  1.3223  0.7755 -0.3027
  270MOL0     H36384   6.625   4.576  10.249 -4.6675 -0.4915 -0.8893
  270MOL0     H36385   6.451   4.610   9.925 -3.0978 -0.2864 -2.0316
  270MOL0     H36386   6.464   4.440   9.866 -0.4792 -0.9857 -0.1219
  270MOL0     H36387   6.213   4.534  10.014  0.0804 -0.1632  0.2080
  270MOL0     H36388   6.234   4.562   9.844 -0.9885  2.1795  1.2878
  270MOL0     H36389   6.276   4.304   9.830 -1.7888  0.3309 -0.8214
  270MOL0     H36390   6.283   4.301  10.000  0.9759 -0.5182 -1.1992
  270MOL0     H36391   6.022   4.400   9.976  1.6806 -0.1338  0.7321
  270MOL0     H36392   6.055   4.377   9.803  2.5306  1.6626 -0.5812
  270MOL0     H36393   5.928   4.175   9.872  0.5918 -0.2190 -2.6799
  270MOL0     H36394   6.099   4.127   9.837  1.0328 -1.6074  2.4451
  270MOL0     H36395   6.001   4.020  10.020  0.0106 -0.1127 -1.2679
  270MOL0     H36396   6.141   4.111  10.060  0.8693 -3.0253 -1.5597
  270MOL0     H36397   6.012   4.298  10.167 -0.4882  0.5455 -2.2242
  270MOL0     H36398   5.859   4.228  10.114 -0.8061  0.3275  0.7283
  270MOL0     H36399   5.970   4.199  10.358 -1.8892  0.8253  0.2839
  270MOL0     H36400   6.013   4.042  10.284  0.8386  0.2303 -0.7800
  270MOL0     H36401   5.817   3.889  10.204  1.2589 -1.2781  3.9274
  270MOL0     H36402   5.454   3.889  10.287  0.7964 -0.2898 -0.7093
  270MOL0     H36403   5.582   3.775  10.236  1.6259  2.2670 -0.8984
  270MOL0     H36404   5.502   3.831  10.526  0.2045  1.4190 -0.2559
  270MOL0     H36405   5.640   3.725  10.464 -0.3336 -0.7449 -1.2029
  270MOL0     H36406   5.531   3.555  10.445 -1.1486 -0.9043  1.7411
  270MOL0     H36407   5.405   3.638  10.345  1.5086 -2.3671 -0.7465
  270MOL0     H36408   5.321   3.724  10.574  1.9038  1.5970 -3.1068
  270MOL0     H36409   5.409   3.587  10.640  0.6150  2.1934  0.3371
  270MOL0     H36410   5.146   3.643  10.301  2.2743  0.7036  2.0849
  270MOL0     H36411   4.962   3.764  10.198  0.4454 -0.3466 -0.6894
  270MOL0     H36412   4.823   3.649  10.224 -0.1253  0.5932  0.8451
  270MOL0     H36413   4.819   3.813  10.297  1.4388  0.7358  1.5872
  270MOL0     H36414   4.463   3.776  10.314 -0.9650  0.4128 -1.0049
  270MOL0     H36415   4.208   3.753  10.350 -0.1513 -1.9971 -1.0630
  270MOL0     H36416   4.060   3.806  10.516  0.8716 -0.9016 -0.4702
  270MOL0     H36417   3.968   3.684  10.427  2.4678 -0.8618 -1.0587
  270MOL0     H36418   3.932   3.690  10.719  3.0110  0.0137 -1.5531
  270MOL0     H36419   3.845   3.808  10.608 -0.2066 -0.3344  1.4610
  270MOL0     H36420   3.811   3.513  10.541 -0.8982 -0.3683  0.3042
  270MOL0     H36421   3.752   3.672  10.475  0.2794  1.2601  0.3875
  270MOL0     H36422   3.707   3.581  10.756 -1.8576 -2.1528  0.2691
  270MOL0     H36423   3.609   3.694  10.665 -0.4014 -0.6856  2.2252
  270MOL0     H36424   3.631   3.390  10.619  0.8595 -1.5838 -2.1856
  270MOL0     H36425   3.553   3.489  10.508  2.3809 -2.3759  0.1465
  270MOL0     H36426   3.467   3.433  10.801 -0.7834  2.3471  1.6560
  270MOL0     H36427   3.400   3.563  10.708  0.1536 -0.3836 -2.9936
  270MOL0     H36428   3.372   3.286  10.621 -0.9604  0.2636 -0.3130
  270MOL0     H36429   3.303   3.431  10.546 -1.2002 -1.1922 -0.2190
  270MOL0     H36430   3.123   3.321  10.685 -0.2818 -1.6228  0.0984
  270MOL0     H36431   3.245   3.299  10.814  0.1226 -0.4909 -0.5179
  270MOL0     H36432   4.266   3.538  10.704 -0.4881 -0.4595  0.1438
  270MOL0     H36433   4.521   3.540  10.664  2.2706  1.5168 -0.0140
  270MOL0     H36434   4.877   3.577  10.710  2.5853  1.1012  1.5678
  270MOL0     H36435   5.100   3.512  10.702  0.8616  1.8143  0.1459
  270MOL0     H36436   6.600   4.291   9.935 -1.2965 -1.4495  1.6712
  270MOL0     H36437   6.838   4.241   9.953 -0.4501  0.3078 -2.4112
  270MOL0     H36438   7.207   4.259  10.255  1.2403  0.0565  0.3212
  270MOL0     H36439   7.423   4.235  10.341 -2.0390  0.6800  0.3998
  270MOL0     H36440   7.766   4.361  10.406 -0.1317  2.0924 -1.5662
  270MOL0     H36441   7.609   4.263  10.424 -1.5723 -4.0249 -4.3034
  270MOL0     H36442   7.640   4.121  10.270  1.8416 -3.1240  1.8963
  270MOL0     H36443   7.775   4.109  10.361 -2.0716 -1.9596 -0.2660
  270MOL0     H36444   7.908   4.274  10.193 -0.0604 -0.4842  1.4355
  270MOL0     H36445   7.762   4.284  10.102  1.0253  1.4783  1.3443
  270MOL0     H36446   7.937   4.031  10.155  0.6124  0.0379 -1.1948
  270MOL0     H36447   7.923   4.101   9.998 -1.4644  0.8583 -1.0619
  270MOL0     H36448   7.566   3.869  10.049 -0.6417  2.0898  2.4619
  270MOL0     H36449   7.536   4.592  10.116 -0.0474 -0.5543 -0.8185
  270MOL0     H36450   7.324   4.609  10.019  4.4596  1.7764  0.7076
  271MOL0     O36451   6.388   6.890   3.558  0.3418  0.6498 -0.1172
  271MOL0     C36452   6.374   6.839   3.441 -0.2880 -0.2861  0.0552
  271MOL0     O36453   6.476   6.812   3.347  0.1396 -0.0539 -0.8311
  271MOL0     C36454   6.607   6.820   3.391  0.3214  0.1853 -0.0364
  271MOL0     C36455   6.681   6.917   3.332 -0.2865 -0.1428 -0.2613
  271MOL0     C36456   6.819   6.933   3.362  0.0616 -0.1562 -0.1896
  271MOL0     C36457   6.869   6.864   3.472 -0.3009  0.1538 -0.4001
  271MOL0     O36458   7.005   6.887   3.506  0.1663 -0.6115  0.1582
  271MOL0     C36459   7.087   6.766   3.497 -0.5328 -0.2218 -1.2103
  271MOL0     C36460   7.186   6.766   3.386  0.0359  0.7801 -0.7743
  271MOL0     C36461   7.297   6.865   3.407 -0.1097 -0.0707 -0.4352
  271MOL0     C36462   7.435   6.808   3.429  0.2405 -0.1459 -0.1920
  271MOL0     C36463   7.541   6.920   3.407  0.3047  0.3669  0.6454
  271MOL0     C36464   7.680   6.838   3.432  0.7267 -0.7662 -0.5010
  271MOL0     C36465   7.804   6.919   3.389  0.0400 -0.0611 -0.1524
  271MOL0     C36466   7.933   6.845   3.418  0.3771  0.5938 -0.4705
  271MOL0     N36467   7.935   6.724   3.334  0.4861 -0.4441 -0.7159
  271MOL0     C36468   7.929   6.718   3.194 -0.8355  0.1588  0.3253
  271MOL0     C36469   7.950   6.589   3.165 -1.0883  0.5172  0.1265
  271MOL0     C36470   7.942   6.516   3.038  0.1346 -0.1895  0.0052
  271MOL0     C36471   7.844   6.588   2.948  0.1585  0.2032 -0.3173
  271MOL0     C36472   7.783   6.507   2.837  0.3835 -0.1071  0.5328
  271MOL0     C36473   7.703   6.383   2.889  0.1164 -1.0791  0.1234
  271MOL0     O36474   7.618   6.440   2.987  0.1640 -0.2202 -0.6656
  271MOL0     C36475   7.508   6.374   3.034 -1.5011 -0.3634 -0.0975
  271MOL0     C36476   7.441   6.273   2.968 -0.2844  0.8826 -1.1012
  271MOL0     C36477   7.315   6.227   3.019 -0.6528 -0.1382 -0.2469
  271MOL0     C36478   7.246   6.112   2.946  0.2054 -0.2061 -0.1078
  271MOL0     C36479   7.250   6.291   3.133  0.0366  0.0855 -0.1588
  271MOL0     C36480   7.118   6.251   3.190 -0.1980  0.5322  0.1350
  271MOL0     O36481   7.034   6.191   3.103 -0.0861  0.5109 -0.0972
  271MOL0     C36482   6.911   6.142   3.130 -0.5139 -0.2966  0.5253
  271MOL0     C36483   6.852   6.135   3.265 -0.6573 -1.1441 -0.3447
  271MOL0     C36484   6.724   6.090   3.278 -0.0176  0.5522  0.1214
  271MOL0     C36485   6.656   6.041   3.171 -0.0883 -0.2426  0.8768
  271MOL0     O36486   6.529   6.002   3.200  0.6503  0.7875 -0.5696
  271MOL0     C36487   6.447   5.976   3.084 -1.0568 -0.0980 -0.3416
  271MOL0     C36488   6.312   5.933   3.130 -0.0785 -0.2747 -0.4768
  271MOL0     C36489   6.226   5.880   3.018 -1.2607  0.4488 -0.0870
  271MOL0     C36490   6.085   5.821   3.052 -0.2582 -0.4984  0.5173
  271MOL0     C36491   6.013   5.740   2.948 -0.8588  0.8616  0.6220
  271MOL0     C36492   5.881   5.665   2.981  0.6356  0.1340 -0.7158
  271MOL0     C36493   5.851   5.554   2.882  0.7849  0.1002  0.4636
  271MOL0     C36494   5.694   5.539   2.858 -0.1858  0.3556  0.6329
  271MOL0    Cl36495   5.594   5.481   2.997 -0.0237  0.4882  0.0081
  271MOL0     C36496   6.713   6.040   3.037  0.0298  0.3341 -0.1858
  271MOL0     C36497   6.835   6.095   3.023 -0.6061 -0.5375 -0.4023
  271MOL0     O36498   7.098   6.273   3.308  0.4589 -0.0241  0.1449
  271MOL0     C36499   7.321   6.395   3.193 -0.0375 -0.0444  0.3726
  271MOL0     C36500   7.446   6.425   3.148 -0.0757  0.2415  1.3987
  271MOL0     N36501   7.987   6.530   3.283 -0.6962  0.0200  0.0902
  271MOL0     N36502   7.979   6.607   3.387 -0.8880  0.4874 -0.4972
  271MOL0     C36503   6.789   6.782   3.541  0.1852 -0.5740  0.4804
  271MOL0     C36504   6.661   6.754   3.499 -0.7012  0.0693  0.7701
  271MOL0     C36505   6.238   6.792   3.406 -0.4269  0.5057  0.0826
  271MOL0     C36506   6.203   6.748   3.280 -0.7781 -0.3569  0.0966
  271MOL0     C36507   6.083   6.685   3.254  0.7077  0.4368 -0.3923
  271MOL0     C36508   5.987   6.673   3.360  0.3238 -0.5361 -0.2745
  271MOL0     O36509   5.857   6.626   3.342 -1.0997 -0.0518  0.0943
  271MOL0     C36510   5.818   6.598   3.207 -0.2105 -0.7789  0.5380
  271MOL0     C36511   5.843   6.453   3.167 -0.8577  0.1471 -0.5225
  271MOL0     C36512   5.716   6.368   3.191 -0.1432 -0.0048 -0.4489
  271MOL0     C36513   5.750   6.216   3.210 -0.6375  0.6246  0.0872
  271MOL0     C36514   5.617   6.160   3.242 -0.1952 -0.4613 -0.2848
  271MOL0     C36515   5.510   6.133   3.291 -0.5525 -0.5463  0.3010
  271MOL0     C36516   6.035   6.710   3.491 -0.3788  0.7935 -0.4122
  271MOL0     C36517   6.145   6.786   3.509 -0.2232 -0.5536  0.2093
  271MOL0     H36518   6.629   6.975   3.256  1.9156 -1.1607 -2.7247
  271MOL0     H36519   6.888   6.992   3.302  2.3425 -0.8166  1.6280
  271MOL0     H36520   7.138   6.772   3.594 -0.8712 -1.2717 -0.9577
  271MOL0     H36521   7.032   6.672   3.509 -1.8157  0.6523  0.2669
  271MOL0     H36522   7.219   6.662   3.390 -1.2902  0.3728  0.7600
  271MOL0     H36523   7.136   6.790   3.291 -0.6457 -0.9022 -0.8656
  271MOL0     H36524   7.305   6.937   3.325  2.2377 -2.9094 -2.8950
  271MOL0     H36525   7.263   6.930   3.489  0.5380  0.4672 -0.5766
  271MOL0     H36526   7.435   6.767   3.530  0.0523  1.8632  0.6741
  271MOL0     H36527   7.449   6.732   3.352  4.7693  1.7548 -1.5964
  271MOL0     H36528   7.543   6.948   3.301 -1.5796  2.6229  1.1310
  271MOL0     H36529   7.529   7.015   3.459 -1.2486  0.5800 -0.0398
  271MOL0     H36530   7.682   6.816   3.539  0.1575  0.4036 -0.2443
  271MOL0     H36531   7.676   6.744   3.375  0.3882 -1.6943  0.9822
  271MOL0     H36532   7.802   6.938   3.281  3.9313  2.5950  0.0501
  271MOL0     H36533   7.809   7.019   3.435 -0.3277 -0.0374 -0.1562
  271MOL0     H36534   7.912   6.820   3.523 -1.9288  1.4357 -0.6715
  271MOL0     H36535   8.016   6.913   3.396 -0.0602  0.4994 -2.5875
  271MOL0     H36536   7.898   6.786   3.115 -0.1721 -1.8216 -1.7660
  271MOL0     H36537   8.044   6.520   2.998 -0.3524  2.9699 -1.2773
  271MOL0     H36538   7.913   6.412   3.049  0.8672 -0.2665  1.4138
  271MOL0     H36539   7.893   6.674   2.901 -0.1831  0.4893 -0.1520
  271MOL0     H36540   7.761   6.629   3.007 -0.9909 -0.5202 -1.3821
  271MOL0     H36541   7.856   6.467   2.767  0.7194 -1.6563  1.7120
  271MOL0     H36542   7.719   6.576   2.781  2.1129  0.6207 -0.6257
  271MOL0     H36543   7.763   6.302   2.931  0.5355 -1.4645 -1.1951
  271MOL0     H36544   7.645   6.345   2.804  1.1591 -1.0516 -0.6121
  271MOL0     H36545   7.476   6.214   2.883 -0.0169 -0.7726  0.1149
  271MOL0     H36546   7.303   6.080   2.859 -1.4529 -1.1808 -0.8847
  271MOL0     H36547   7.232   6.033   3.020  0.5025 -0.3540 -0.2084
  271MOL0     H36548   7.154   6.151   2.901 -1.2403  0.2469  2.9657
  271MOL0     H36549   6.909   6.170   3.351 -0.9792  3.0840 -1.6235
  271MOL0     H36550   6.675   6.108   3.373 -0.3217  2.8128 -0.4068
  271MOL0     H36551   6.432   6.067   3.024 -2.0208 -0.3003 -0.4361
  271MOL0     H36552   6.480   5.896   3.017 -3.6511 -0.5455 -1.2262
  271MOL0     H36553   6.314   5.857   3.208 -2.5506 -2.1781 -2.0762
  271MOL0     H36554   6.256   6.016   3.173 -0.3392 -0.8493  0.3165
  271MOL0     H36555   6.291   5.802   2.976 -0.8268  0.9357 -0.3495
  271MOL0     H36556   6.208   5.963   2.949  0.1664  0.6635 -0.2446
  271MOL0     H36557   6.079   5.769   3.148 -0.3009 -0.9523  0.2717
  271MOL0     H36558   6.028   5.913   3.070  0.2711 -0.2073  0.7236
  271MOL0     H36559   6.082   5.674   2.895 -2.4898 -1.2664  1.0299
  271MOL0     H36560   5.986   5.819   2.877 -2.5483  0.4007  0.6977
  271MOL0     H36561   5.897   5.615   3.077 -0.8945  1.2146  0.1410
  271MOL0     H36562   5.792   5.725   2.998 -1.1942 -3.1211  2.3163
  271MOL0     H36563   5.892   5.457   2.915 -0.7794 -1.2345 -1.3142
  271MOL0     H36564   5.903   5.578   2.789 -0.0732  3.1489  0.6612
  271MOL0     H36565   5.685   5.468   2.776  1.5593  0.0184  0.7051
  271MOL0     H36566   5.651   5.634   2.824 -0.0981 -0.2383 -1.2334
  271MOL0     H36567   6.661   5.997   2.952  1.3360  0.4411 -1.0663
  271MOL0     H36568   6.881   6.098   2.925 -3.1655 -0.0708 -1.6786
  271MOL0     H36569   7.295   6.443   3.287  1.8466  4.7443 -1.2240
  271MOL0     H36570   7.495   6.506   3.202  0.0193  1.3478 -0.2506
  271MOL0     H36571   6.828   6.729   3.628 -0.4908  0.7859  1.6653
  271MOL0     H36572   6.600   6.684   3.554  0.4009 -3.9245 -2.5471
  271MOL0     H36573   6.264   6.758   3.190 -1.7890 -1.0274 -0.6930
  271MOL0     H36574   6.063   6.636   3.159 -2.1442 -0.1382  0.4349
  271MOL0     H36575   5.711   6.619   3.203  0.1239  1.2147  0.8686
  271MOL0     H36576   5.847   6.668   3.128 -0.5562  2.4503  3.0524
  271MOL0     H36577   5.922   6.420   3.235 -1.0659  2.7437  1.1328
  271MOL0     H36578   5.878   6.457   3.064 -1.4641  1.2841 -0.6968
  271MOL0     H36579   5.636   6.374   3.117 -0.1169 -2.4380 -0.7461
  271MOL0     H36580   5.684   6.402   3.290  0.1609  0.2040 -0.4201
  271MOL0     H36581   5.817   6.198   3.294 -2.6804 -2.1984  1.2892
  271MOL0     H36582   5.798   6.163   3.126 -2.6885  0.8186 -1.2805
  271MOL0     H36583   5.412   6.109   3.329 -0.0379 -1.0119  1.3874
  271MOL0     H36584   5.965   6.687   3.571 -0.5130 -0.0658 -0.7640
  271MOL0     H36585   6.159   6.827   3.608  1.8267 -0.6724  0.0138
  272MOL0     O36586   0.589   3.754   1.973 -0.6936  0.2933  0.2270
  272MOL0     C36587   0.662   3.854   1.963  0.4288  0.5379 -0.6984
  272MOL0     O36588   0.610   3.974   1.933 -0.1825  0.7310 -0.0346
  272MOL0     C36589   0.472   3.993   1.920  0.3457  1.0367 -0.1481
  272MOL0     C36590   0.386   3.965   2.025 -0.8009  0.3085  0.2234
  272MOL0     C36591   0.248   3.952   2.007  0.4000 -1.4359 -0.0134
  272MOL0     C36592   0.195   3.971   1.875  0.0256 -0.4438  0.1523
  272MOL0     O36593   0.058   3.973   1.873  0.3390  0.0571  0.1638
  272MOL0     C36594   0.016   4.111   1.837 -0.2483  0.6532 -1.1437
  272MOL0     C36595  -0.129   4.113   1.878 -0.9444  0.3786  1.9200
  272MOL0     C36596  -0.176   4.261   1.865 -0.8082  0.2152  0.2258
  272MOL0     C36597  -0.305   4.281   1.783 -0.4559  0.0771 -0.2753
  272MOL0     C36598  -0.361   4.421   1.803  0.3474  0.3168 -0.7367
  272MOL0     C36599  -0.511   4.431   1.759  0.5933 -0.2244  0.0227
  272MOL0     C36600  -0.613   4.342   1.831 -0.2534  0.2916 -0.0422
  272MOL0     C36601  -0.633   4.367   1.984 -0.4860 -0.6337  0.7375
  272MOL0     N36602  -0.648   4.508   2.006 -0.1036 -0.5592  0.5148
  272MOL0     C36603  -0.737   4.585   1.934  0.0380 -0.9366 -0.3609
  272MOL0     C36604  -0.728   4.708   1.991  0.8681  0.2528 -0.8061
  272MOL0     C36605  -0.810   4.826   1.942 -0.0474 -0.1800 -0.6580
  272MOL0     C36606  -0.964   4.805   1.925  0.6201  0.0987 -0.9109
  272MOL0     C36607  -1.017   4.931   1.860  0.0020 -0.4489 -0.2061
  272MOL0     C36608  -1.161   4.937   1.862 -0.3142  0.4240 -0.6579
  272MOL0     O36609  -1.199   5.018   1.748  0.9633 -0.2013  0.0383
  272MOL0     C36610  -1.335   5.041   1.732  0.2277  0.2257 -0.9143
  272MOL0     C36611  -1.378   5.170   1.698  0.0193 -0.0580 -0.3410
  272MOL0     C36612  -1.512   5.202   1.679  0.7759  0.4542 -0.4504
  272MOL0     C36613  -1.544   5.336   1.624 -0.4556  0.2121 -0.3089
  272MOL0     C36614  -1.615   5.104   1.703  0.2880  1.5163  0.0934
  272MOL0     C36615  -1.759   5.118   1.684 -0.3159  0.1767  0.4238
  272MOL0     O36616  -1.832   5.018   1.729  0.3253 -0.5123  0.3224
  272MOL0     C36617  -1.952   5.001   1.665  0.7885 -0.3207 -0.7320
  272MOL0     C36618  -2.065   5.074   1.712  0.5440  0.8695 -0.5755
  272MOL0     C36619  -2.195   5.045   1.658  0.2471 -0.0944 -0.9659
  272MOL0     C36620  -2.219   4.935   1.566  1.0296 -0.0930 -0.0731
  272MOL0     O36621  -2.346   4.916   1.524  0.2352 -0.4253 -0.4928
  272MOL0     C36622  -2.371   4.811   1.436  0.4873  0.1558 -0.4262
  272MOL0     C36623  -2.516   4.799   1.432 -0.4249 -0.0215  0.0330
  272MOL0     C36624  -2.581   4.899   1.342  0.8735 -0.4965 -0.3659
  272MOL0     C36625  -2.732   4.881   1.314 -0.5919  0.2117  0.3452
  272MOL0     C36626  -2.811   4.999   1.235 -0.0072 -0.3109 -0.6089
  272MOL0     C36627  -2.950   5.027   1.289 -0.1249 -0.3079  0.4244
  272MOL0     C36628  -3.048   4.923   1.247  0.4465 -0.0768 -0.0933
  272MOL0     C36629  -3.201   4.950   1.276 -0.5584 -0.5186  0.3347
  272MOL0    Cl36630  -3.294   4.814   1.209 -0.2930 -0.0767 -0.3857
  272MOL0     C36631  -2.105   4.864   1.538  0.3176 -0.7500 -0.3192
  272MOL0     C36632  -1.973   4.890   1.579 -0.6362  0.6745  0.0960
  272MOL0     O36633  -1.800   5.216   1.629 -0.1825 -0.4110  0.8153
  272MOL0     C36634  -1.570   4.972   1.740 -0.5808 -0.3452  0.2266
  272MOL0     C36635  -1.433   4.944   1.754 -0.4557 -0.6257  0.6064
  272MOL0     N36636  -0.628   4.705   2.089 -0.1690  0.1510  0.8896
  272MOL0     N36637  -0.573   4.585   2.088  0.5842 -0.8402  0.3307
  272MOL0     C36638   0.282   4.004   1.769  0.0649 -0.1914  0.5858
  272MOL0     C36639   0.421   4.018   1.795  0.3750 -0.6428  0.3294
  272MOL0     C36640   0.807   3.839   1.970 -1.8473 -1.3992 -0.0341
  272MOL0     C36641   0.877   3.718   2.010  0.8639  0.4432  1.1443
  272MOL0     C36642   1.008   3.699   1.978  0.2988  0.6550 -0.2235
  272MOL0     C36643   1.081   3.802   1.920  0.1291 -0.2130 -0.2946
  272MOL0     O36644   1.217   3.793   1.886 -0.0899  0.3156  0.1238
  272MOL0     C36645   1.263   3.665   1.830 -0.5300  0.3564  1.1062
  272MOL0     C36646   1.363   3.687   1.721  0.7814 -0.3364 -0.8803
  272MOL0     C36647   1.486   3.746   1.790 -0.1734 -0.9885 -1.1049
  272MOL0     C36648   1.610   3.746   1.705 -0.1947 -0.2363  0.7370
  272MOL0     C36649   1.595   3.848   1.599 -0.1785 -0.4679  0.0093
  272MOL0     C36650   1.593   3.923   1.500  0.3299  0.0988 -0.5362
  272MOL0     C36651   1.024   3.930   1.909 -0.6802 -0.8682  0.8420
  272MOL0     C36652   0.888   3.951   1.932  0.1560  0.5461  0.0006
  272MOL0     H36653   0.441   3.938   2.115 -1.6158 -0.3464  0.5372
  272MOL0     H36654   0.182   3.932   2.091  0.2030  1.4516  0.6202
  272MOL0     H36655   0.074   4.184   1.895 -1.6195 -1.2657  3.0542
  272MOL0     H36656   0.018   4.126   1.729  0.0218  0.7460 -1.1268
  272MOL0     H36657  -0.191   4.041   1.823  0.4621 -0.6451  1.6082
  272MOL0     H36658  -0.134   4.077   1.981  2.0909 -3.6935  0.9204
  272MOL0     H36659  -0.195   4.299   1.966 -2.1702  0.1217  0.0288
  272MOL0     H36660  -0.103   4.324   1.813 -0.7730 -0.1589 -0.1888
  272MOL0     H36661  -0.300   4.254   1.677 -1.3416  0.0633 -0.3228
  272MOL0     H36662  -0.368   4.218   1.846  1.4660  0.4673  2.1817
  272MOL0     H36663  -0.347   4.439   1.910 -0.6248 -0.2399 -0.5043
  272MOL0     H36664  -0.300   4.491   1.745  2.7949 -0.3471  0.8681
  272MOL0     H36665  -0.544   4.534   1.770  1.8632  0.3440 -1.2406
  272MOL0     H36666  -0.519   4.405   1.653 -1.6874 -1.7580  0.4950
  272MOL0     H36667  -0.713   4.352   1.789  0.1421 -0.9373 -1.3598
  272MOL0     H36668  -0.578   4.241   1.809  1.2563 -0.2091  3.7716
  272MOL0     H36669  -0.542   4.327   2.029  0.9033 -0.1159 -1.4136
  272MOL0     H36670  -0.723   4.315   2.018 -2.0420  0.2822 -1.7034
  272MOL0     H36671  -0.805   4.555   1.855  0.0326 -3.8749  0.6232
  272MOL0     H36672  -0.799   4.911   2.010  0.1860  0.7714 -1.8333
  272MOL0     H36673  -0.761   4.868   1.853  0.1861  0.6623 -0.1439
  272MOL0     H36674  -1.015   4.788   2.020  0.3898  1.1846 -0.8381
  272MOL0     H36675  -0.988   4.731   1.847  2.0074 -1.8708  0.4212
  272MOL0     H36676  -0.980   4.945   1.758  0.5808 -2.1681 -0.2701
  272MOL0     H36677  -0.977   5.024   1.901 -1.5652  0.2071 -0.0929
  272MOL0     H36678  -1.196   4.980   1.956  0.9535  1.3971 -0.6079
  272MOL0     H36679  -1.209   4.839   1.857 -2.0975  1.0173  2.3377
  272MOL0     H36680  -1.306   5.247   1.675 -2.2753  1.3808 -3.2220
  272MOL0     H36681  -1.577   5.390   1.713  0.8954  1.8948 -0.7590
  272MOL0     H36682  -1.450   5.380   1.589  0.7761 -0.3046  2.1173
  272MOL0     H36683  -1.623   5.337   1.548 -1.4392 -0.7776  0.6730
  272MOL0     H36684  -2.052   5.148   1.791  0.0231  0.2334  0.1167
  272MOL0     H36685  -2.283   5.099   1.690 -0.4560  0.3755 -3.4241
  272MOL0     H36686  -2.330   4.852   1.342 -0.2541  0.2295 -0.7193
  272MOL0     H36687  -2.322   4.715   1.457  0.4425 -0.0853 -1.3655
  272MOL0     H36688  -2.542   4.697   1.404 -1.7680 -0.1696  1.6078
  272MOL0     H36689  -2.560   4.823   1.530  1.9658 -0.1456  1.1962
  272MOL0     H36690  -2.541   4.889   1.240 -0.1315 -0.7364 -0.7442
  272MOL0     H36691  -2.558   4.999   1.380 -1.0690 -0.4407  0.7668
  272MOL0     H36692  -2.732   4.786   1.260  2.0412 -0.1324  0.7809
  272MOL0     H36693  -2.783   4.871   1.410 -1.1735  1.5631  0.2071
  272MOL0     H36694  -2.815   4.973   1.129 -1.9462  0.5528 -0.8007
  272MOL0     H36695  -2.757   5.092   1.254 -1.0195 -0.1152  1.6931
  272MOL0     H36696  -2.943   5.043   1.397  2.4972 -0.7302  0.3749
  272MOL0     H36697  -2.985   5.114   1.234 -1.7705 -1.0251  0.2661
  272MOL0     H36698  -3.025   4.827   1.296  0.8083 -0.1628 -0.4294
  272MOL0     H36699  -3.039   4.907   1.140  0.6814  0.6052 -0.1766
  272MOL0     H36700  -3.233   5.042   1.226  0.8816 -0.9872 -1.5566
  272MOL0     H36701  -3.224   4.957   1.383 -0.5079 -0.9919  0.3805
  272MOL0     H36702  -2.126   4.784   1.468 -2.9401  1.4032 -2.1027
  272MOL0     H36703  -1.899   4.828   1.530 -1.0032  1.4565 -1.5398
  272MOL0     H36704  -1.636   4.887   1.755 -0.9177  0.0295  0.9090
  272MOL0     H36705  -1.398   4.842   1.767  0.0032 -0.2540  2.7225
  272MOL0     H36706   0.243   4.019   1.669  0.2810  1.0425  0.6765
  272MOL0     H36707   0.488   4.043   1.713 -0.4245  1.0106  0.1274
  272MOL0     H36708   0.810   3.641   2.047  0.5661  0.8539  1.4717
  272MOL0     H36709   1.050   3.600   1.990  1.6609  1.3184  0.8406
  272MOL0     H36710   1.316   3.605   1.904  1.8067  0.5027 -0.3481
  272MOL0     H36711   1.179   3.613   1.783  0.2180  0.1965 -0.1110
  272MOL0     H36712   1.327   3.752   1.640  0.3501  0.3431 -0.1632
  272MOL0     H36713   1.400   3.589   1.690 -0.5418 -1.1065 -0.1405
  272MOL0     H36714   1.504   3.694   1.885 -2.0408 -1.7742 -1.1378
  272MOL0     H36715   1.459   3.848   1.816 -0.7571 -0.7363 -2.6140
  272MOL0     H36716   1.627   3.646   1.663 -2.0144 -0.8276  1.3099
  272MOL0     H36717   1.701   3.761   1.764  0.5822 -0.4391 -0.3838
  272MOL0     H36718   1.604   3.980   1.411  4.6286 -0.2987 -0.4695
  272MOL0     H36719   1.075   4.015   1.864 -0.1379 -1.0935  1.0207
  272MOL0     H36720   0.836   4.040   1.899  0.3940  0.2874 -1.1034
  273MOL0     O36721   9.331   0.116   9.316  0.0528 -0.4755  0.7264
  273MOL0     C36722   9.347   0.203   9.398 -0.4586  0.1200  0.2117
  273MOL0     O36723   9.255   0.255   9.486  1.1467  0.0499 -0.8210
  273MOL0     C36724   9.128   0.202   9.481 -0.4482 -0.6868  0.2806
  273MOL0     C36725   9.031   0.273   9.410  0.6056 -0.2921  0.6282
  273MOL0     C36726   8.892   0.229   9.411 -0.6634 -0.1704 -0.0747
  273MOL0     C36727   8.857   0.103   9.469  0.8042 -0.1694  0.9546
  273MOL0     O36728   8.725   0.060   9.462 -0.1113  0.1422 -0.5313
  273MOL0     C36729   8.645   0.058   9.591 -1.1998  0.3173  0.7991
  273MOL0     C36730   8.498   0.052   9.553 -0.3903  0.1902  0.2408
  273MOL0     C36731   8.410   0.027   9.682  0.2400 -0.2296  0.1708
  273MOL0     C36732   8.260   0.025   9.647  0.3135  0.4805 -0.6369
  273MOL0     C36733   8.181  -0.012   9.774 -0.2312  0.3598  0.9063
  273MOL0     C36734   8.031  -0.011   9.752 -0.0247  0.2391  0.1836
  273MOL0     C36735   7.953  -0.027   9.886 -0.1380 -1.0035  0.0039
  273MOL0     C36736   7.992  -0.155   9.965  0.2797 -0.0718  0.7132
  273MOL0     N36737   7.914  -0.173  10.082  0.5502  0.9541 -0.5949
  273MOL0     C36738   7.796  -0.251  10.093  0.2264 -0.0695  0.3170
  273MOL0     C36739   7.784  -0.270  10.227  0.5733  0.9952  0.1457
  273MOL0     C36740   7.690  -0.349  10.304  0.0460  0.0789  0.7368
  273MOL0     C36741   7.564  -0.258  10.334 -0.1874  0.2051  0.1242
  273MOL0     C36742   7.461  -0.331  10.417 -0.0191 -0.1728 -0.2325
  273MOL0     C36743   7.348  -0.233  10.465  0.0743 -0.4958 -0.1106
  273MOL0     O36744   7.222  -0.280  10.421 -0.0563 -0.0588  0.8432
  273MOL0     C36745   7.106  -0.220  10.474 -0.7010 -0.0237 -0.1771
  273MOL0     C36746   7.099  -0.126  10.573  0.6039  0.4854  0.1565
  273MOL0     C36747   6.979  -0.066  10.602 -0.0683  0.6082  0.1621
  273MOL0     C36748   6.981   0.032  10.714 -0.0846 -0.0246 -0.6584
  273MOL0     C36749   6.855  -0.112  10.548 -0.2354 -0.1827  1.0382
  273MOL0     C36750   6.724  -0.049  10.581 -0.0247  0.5165  0.1185
  273MOL0     O36751   6.618  -0.090  10.506 -1.1145 -0.5437  0.0586
  273MOL0     C36752   6.491  -0.043  10.525 -0.0170 -1.2344 -0.3965
  273MOL0     C36753   6.449   0.069  10.601  0.2286  0.6926  0.6788
  273MOL0     C36754   6.312   0.097  10.617  0.5382 -0.0256  0.3298
  273MOL0     C36755   6.213   0.025  10.551  0.8417  0.7189 -0.6997
  273MOL0     O36756   6.085   0.064  10.573  0.3856 -0.1672 -0.0623
  273MOL0     C36757   5.982  -0.013  10.503 -0.0635  0.5376  0.3557
  273MOL0     C36758   5.829   0.026  10.514  0.4380  0.6529  0.0897
  273MOL0     C36759   5.751  -0.074  10.437  1.1502  0.4368 -0.2581
  273MOL0     C36760   5.604  -0.049  10.470 -1.2223  0.2389 -0.1114
  273MOL0     C36761   5.511  -0.133  10.381  0.5404 -0.5971 -0.6809
  273MOL0     C36762   5.364  -0.108  10.416  0.6058  1.2505  0.1286
  273MOL0     C36763   5.284  -0.166  10.299 -0.2209  0.3974 -0.2390
  273MOL0     C36764   5.131  -0.164  10.326  1.1375 -0.7571  0.0706
  273MOL0    Cl36765   5.059  -0.207  10.179  0.0378 -0.1886  0.1165
  273MOL0     C36766   6.251  -0.089  10.479 -0.5448 -0.5879  0.9211
  273MOL0     C36767   6.389  -0.122  10.470  0.2054 -0.2292  0.1352
  273MOL0     O36768   6.722   0.025  10.674  0.1509  1.1335 -0.0800
  273MOL0     C36769   6.861  -0.214  10.445 -0.0182  0.3081  0.7923
  273MOL0     C36770   6.988  -0.269  10.413 -0.3944  0.5466 -0.1010
  273MOL0     N36771   7.875  -0.196  10.287 -0.0959  0.7165 -0.6853
  273MOL0     N36772   7.948  -0.134  10.200 -0.2448  0.1648  0.1382
  273MOL0     C36773   8.962   0.028   9.521 -0.0726  0.1455  0.0134
  273MOL0     C36774   9.093   0.075   9.532 -0.5577  0.5060  0.1498
  273MOL0     C36775   9.480   0.269   9.402 -0.3523 -1.1805  0.1894
  273MOL0     C36776   9.600   0.223   9.338 -0.3145 -0.2851  0.2675
  273MOL0     C36777   9.728   0.291   9.353 -0.1964  0.0063 -0.3489
  273MOL0     C36778   9.736   0.413   9.411  0.5978 -0.2993  0.1613
  273MOL0     O36779   9.857   0.473   9.433  0.1554 -0.2014  0.3482
  273MOL0     C36780   9.881   0.607   9.491 -0.0790  0.2430 -0.3074
  273MOL0     C36781  10.024   0.604   9.558 -0.5768  0.5308 -0.1164
  273MOL0     C36782  10.048   0.735   9.650 -0.1579  0.8267  0.5698
  273MOL0     C36783  10.201   0.748   9.682 -0.6657 -0.2221  0.7591
  273MOL0     C36784  10.252   0.621   9.734  0.5309  0.0233 -0.4447
  273MOL0     C36785  10.303   0.520   9.779 -0.7234 -0.3076 -0.8491
  273MOL0     C36786   9.614   0.464   9.464 -0.4448 -0.2635  0.1447
  273MOL0     C36787   9.490   0.405   9.450  0.6871  0.9040 -0.5634
  273MOL0     H36788   9.063   0.367   9.365 -1.2308 -1.2742 -3.1344
  273MOL0     H36789   8.819   0.295   9.366  0.0416  0.1006 -0.8577
  273MOL0     H36790   8.675  -0.016   9.666  1.9855  2.6809  2.1186
  273MOL0     H36791   8.662   0.149   9.651  3.1594  1.0660 -1.1312
  273MOL0     H36792   8.463   0.139   9.498  2.6994  2.2988  1.3593
  273MOL0     H36793   8.493  -0.032   9.483 -0.3250  0.7059 -0.3891
  273MOL0     H36794   8.433  -0.059   9.745  0.0098  1.0095  1.9990
  273MOL0     H36795   8.430   0.117   9.740  1.4741  0.5193 -1.3093
  273MOL0     H36796   8.227   0.118   9.600 -1.4120 -0.2163 -0.8817
  273MOL0     H36797   8.236  -0.048   9.569 -0.4859  0.5489 -0.4619
  273MOL0     H36798   8.210  -0.111   9.810 -0.5314 -0.2940 -0.5692
  273MOL0     H36799   8.206   0.062   9.851 -2.0286 -0.9648  2.9012
  273MOL0     H36800   8.002   0.077   9.694  0.1689  1.4603  1.8619
  273MOL0     H36801   7.999  -0.099   9.694 -2.5106  0.4180  1.1290
  273MOL0     H36802   7.987   0.050   9.957  0.8899 -1.5126  0.0929
  273MOL0     H36803   7.848  -0.017   9.860 -0.7296 -1.6995  1.9580
  273MOL0     H36804   8.099  -0.161   9.986  0.4962 -2.6030 -0.6513
  273MOL0     H36805   7.979  -0.245   9.903  1.7955  0.5180 -0.5207
  273MOL0     H36806   7.742  -0.299  10.012 -0.0456  0.1498  0.3677
  273MOL0     H36807   7.670  -0.441  10.250  1.5818  0.0801  0.1292
  273MOL0     H36808   7.752  -0.360  10.393  0.6786  4.0177  0.9741
  273MOL0     H36809   7.522  -0.236  10.236 -0.5684  0.2928  0.3075
  273MOL0     H36810   7.597  -0.164  10.379 -0.3708 -0.7300  2.3757
  273MOL0     H36811   7.504  -0.374  10.507  0.4243 -1.3980 -1.0116
  273MOL0     H36812   7.413  -0.416  10.369 -3.0914  1.6333 -0.6471
  273MOL0     H36813   7.365  -0.142  10.406 -0.4610 -1.8505 -2.4505
  273MOL0     H36814   7.360  -0.224  10.573  0.7332 -0.1016 -0.2102
  273MOL0     H36815   7.186  -0.086  10.623 -0.1208  2.7547 -0.2420
  273MOL0     H36816   7.078   0.051  10.761 -0.9333  0.5398  0.9371
  273MOL0     H36817   6.947   0.130  10.682  1.0030  0.2578 -1.0028
  273MOL0     H36818   6.924  -0.013  10.796 -1.5022  2.7810 -0.0085
  273MOL0     H36819   6.516   0.138  10.650  1.1839  1.8845 -2.1053
  273MOL0     H36820   6.279   0.181  10.678  1.4962  0.0299  0.7979
  273MOL0     H36821   6.009  -0.025  10.397  1.8955 -1.4534  0.9964
  273MOL0     H36822   5.988  -0.114  10.543 -2.0042 -0.3270 -1.3193
  273MOL0     H36823   5.801   0.025  10.620 -1.6847 -2.2506 -0.3623
  273MOL0     H36824   5.818   0.124  10.467  0.0902  0.2175 -0.7725
  273MOL0     H36825   5.770  -0.173  10.479 -1.5631  0.3854  1.0226
  273MOL0     H36826   5.788  -0.063  10.334  1.0088 -1.2397 -0.5036
  273MOL0     H36827   5.594  -0.079  10.574  4.2161  0.0764  0.6586
  273MOL0     H36828   5.568   0.054  10.462 -1.2004  0.6330  3.4418
  273MOL0     H36829   5.540  -0.237  10.401 -0.0142 -1.1753 -2.6458
  273MOL0     H36830   5.533  -0.106  10.277 -0.7024 -0.6468 -0.9715
  273MOL0     H36831   5.353  -0.155  10.514  2.3537  3.0959  1.2962
  273MOL0     H36832   5.330  -0.005  10.432 -0.5501  0.5618  2.5769
  273MOL0     H36833   5.328  -0.261  10.269  2.5827  1.2199  1.0004
  273MOL0     H36834   5.299  -0.087  10.224 -0.3856  1.3008  0.6586
  273MOL0     H36835   5.095  -0.066  10.359  0.0205 -0.0990 -2.7584
  273MOL0     H36836   5.110  -0.238  10.404  1.2856 -2.6639 -1.6209
  273MOL0     H36837   6.180  -0.159  10.436 -0.1594  0.2204 -1.1319
  273MOL0     H36838   6.414  -0.211  10.413  1.1535  0.5130 -0.6479
  273MOL0     H36839   6.781  -0.254  10.383 -0.4594 -0.4197  1.8114
  273MOL0     H36840   6.993  -0.348  10.340 -2.0712 -1.0325  1.3921
  273MOL0     H36841   8.936  -0.069   9.563  1.0264 -0.7819 -1.3636
  273MOL0     H36842   9.180   0.014   9.556 -1.1170 -0.0865  0.6907
  273MOL0     H36843   9.583   0.136   9.276 -2.0208  0.4269 -0.3104
  273MOL0     H36844   9.808   0.254   9.291 -0.7278  0.1191 -1.1291
  273MOL0     H36845   9.876   0.681   9.411  1.9578 -1.9642 -2.6542
  273MOL0     H36846   9.809   0.622   9.573  2.4488  0.6741  1.9800
  273MOL0     H36847  10.106   0.586   9.489  1.6783  1.2859  2.2152
  273MOL0     H36848  10.039   0.520   9.625  0.5682 -1.7384 -3.0260
  273MOL0     H36849   9.995   0.726   9.745  0.5918 -0.5766  0.8797
  273MOL0     H36850  10.018   0.827   9.599  2.2541  0.4031 -1.8418
  273MOL0     H36851  10.214   0.828   9.756 -0.8517 -0.4876  1.0835
  273MOL0     H36852  10.254   0.779   9.591 -0.1613 -0.2397  1.0461
  273MOL0     H36853  10.343   0.430   9.820 -1.3768 -0.1132  0.2498
  273MOL0     H36854   9.608   0.558   9.518  0.7975 -1.4917  2.5989
  273MOL0     H36855   9.413   0.472   9.486  2.4977  2.2291  1.1179
  274MOL0     O36856   0.096   7.822   8.616  0.1349  0.1479 -0.3190
  274MOL0     C36857   0.160   7.853   8.517  0.0796 -0.3162 -0.4885
  274MOL0     O36858   0.103   7.911   8.408 -0.1438  0.3638 -0.4466
  274MOL0     C36859  -0.026   7.942   8.400  0.3766 -0.2380  0.2635
  274MOL0     C36860  -0.138   7.874   8.454  0.0545  0.1706  1.0925
  274MOL0     C36861  -0.271   7.920   8.429  0.2150  0.0890 -0.1462
  274MOL0     C36862  -0.292   8.030   8.349  0.5197 -0.4384  1.1809
  274MOL0     O36863  -0.412   8.081   8.307  0.8575  0.7318 -0.0492
  274MOL0     C36864  -0.524   8.064   8.391  0.1416 -0.3033 -0.2587
  274MOL0     C36865  -0.626   7.965   8.342 -0.4472  0.2454 -0.3883
  274MOL0     C36866  -0.674   7.997   8.195  0.7540  0.2172  0.1775
  274MOL0     C36867  -0.786   7.909   8.158  0.5186 -0.6871  0.3657
  274MOL0     C36868  -0.836   7.942   8.019 -0.2121  0.2557 -0.1964
  274MOL0     C36869  -0.947   7.852   7.972  0.5403  0.2161 -1.1204
  274MOL0     C36870  -0.987   7.887   7.833  0.3398 -0.0714 -0.3305
  274MOL0     C36871  -1.089   7.988   7.828 -0.6583 -0.4479  0.0931
  274MOL0     N36872  -1.225   7.945   7.870  0.0473  0.0699 -0.1283
  274MOL0     C36873  -1.300   7.836   7.827  0.3163  0.1651 -0.0847
  274MOL0     C36874  -1.408   7.842   7.910  0.1939 -0.2011  0.2379
  274MOL0     C36875  -1.527   7.750   7.916 -0.0706  0.5600  0.1785
  274MOL0     C36876  -1.491   7.632   8.002  0.2825  0.4658 -0.0148
  274MOL0     C36877  -1.607   7.527   8.019 -0.0397 -0.3257  0.1000
  274MOL0     C36878  -1.608   7.460   8.149 -0.0683 -0.0683  0.4275
  274MOL0     O36879  -1.688   7.345   8.137 -0.6946 -0.0133 -0.0932
  274MOL0     C36880  -1.823   7.351   8.144 -0.0412  0.6224  0.1421
  274MOL0     C36881  -1.905   7.458   8.173 -0.7624 -0.4460  0.0094
  274MOL0     C36882  -2.049   7.453   8.174 -0.2057  0.5584 -0.0777
  274MOL0     C36883  -2.125   7.579   8.188  0.0230 -0.0687  0.1447
  274MOL0     C36884  -2.112   7.331   8.136  0.3638  0.9144  0.4309
  274MOL0     C36885  -2.257   7.303   8.113 -1.0627 -0.4510  0.0044
  274MOL0     O36886  -2.282   7.199   8.029 -0.0056  0.1952  0.2388
  274MOL0     C36887  -2.413   7.164   8.006 -0.5335 -0.2459 -0.2370
  274MOL0     C36888  -2.499   7.114   8.104 -0.4852  0.6987  0.0986
  274MOL0     C36889  -2.625   7.078   8.074  1.0577  0.6388  0.2201
  274MOL0     C36890  -2.672   7.085   7.939 -0.3688 -1.0591  0.0935
  274MOL0     O36891  -2.805   7.047   7.913 -0.1337  0.3461 -0.5047
  274MOL0     C36892  -2.872   7.121   7.806  0.7260 -0.0200  0.1457
  274MOL0     C36893  -3.029   7.112   7.815  0.3175 -1.1093  0.3073
  274MOL0     C36894  -3.058   6.967   7.784 -0.8377  0.6605  0.2062
  274MOL0     C36895  -3.206   6.949   7.744  0.8831 -0.2324 -0.4302
  274MOL0     C36896  -3.220   6.815   7.667 -0.2639 -0.1967 -0.4125
  274MOL0     C36897  -3.338   6.730   7.718  0.7376 -1.1832 -0.3263
  274MOL0     C36898  -3.473   6.805   7.714  0.0433 -0.7144 -0.8313
  274MOL0     C36899  -3.579   6.709   7.768  0.3304  0.1744  0.5386
  274MOL0    Cl36900  -3.633   6.599   7.645  0.0658 -0.1075  0.3078
  274MOL0     C36901  -2.583   7.129   7.838  0.7150 -0.0547 -0.9170
  274MOL0     C36902  -2.455   7.174   7.869 -0.4362  0.2517 -0.2625
  274MOL0     O36903  -2.334   7.375   8.174  0.5568 -0.0054  0.6827
  274MOL0     C36904  -2.030   7.214   8.117 -0.2400 -0.3475 -0.1437
  274MOL0     C36905  -1.889   7.229   8.119  0.8851 -0.4638  0.1020
  274MOL0     N36906  -1.397   7.941   8.002  0.4356 -0.0235 -0.4769
  274MOL0     N36907  -1.288   8.001   7.975 -0.8829  0.3284  1.0076
  274MOL0     C36908  -0.181   8.107   8.317  0.7611 -0.7196  0.9335
  274MOL0     C36909  -0.055   8.062   8.331  0.5094 -0.4777  0.3449
  274MOL0     C36910   0.303   7.810   8.518  0.0191 -0.2816  0.7662
  274MOL0     C36911   0.356   7.700   8.588  0.4436 -0.2689 -0.2283
  274MOL0     C36912   0.488   7.673   8.581  0.2812 -0.0022  0.9832
  274MOL0     C36913   0.583   7.758   8.504  0.4609  1.0381  0.2922
  274MOL0     O36914   0.712   7.738   8.463  0.1856  0.8703 -0.3784
  274MOL0     C36915   0.777   7.611   8.515 -0.2155 -0.6968 -0.7706
  274MOL0     C36916   0.926   7.592   8.471 -0.6093 -0.5339  0.0585
  274MOL0     C36917   1.012   7.715   8.505  0.9873 -0.6045 -0.3892
  274MOL0     C36918   1.137   7.729   8.412  0.4367  0.4188 -0.0615
  274MOL0     C36919   1.104   7.741   8.270 -0.7325  0.4452  0.5892
  274MOL0     C36920   1.074   7.753   8.157 -0.2049  0.5345  0.4801
  274MOL0     C36921   0.525   7.862   8.434 -1.7880 -0.0952 -0.9760
  274MOL0     C36922   0.386   7.892   8.441 -0.0975 -0.3524  0.2168
  274MOL0     H36923  -0.111   7.789   8.516 -0.2839  0.1082  1.1591
  274MOL0     H36924  -0.364   7.888   8.474 -0.8990  2.9130 -0.2162
  274MOL0     H36925  -0.497   8.050   8.496  0.5052 -1.2457 -0.4625
  274MOL0     H36926  -0.583   8.156   8.387  1.0178  0.2627 -0.3988
  274MOL0     H36927  -0.601   7.859   8.346 -0.4165  0.2527 -0.3750
  274MOL0     H36928  -0.706   7.982   8.414  0.6399  1.9398  0.5008
  274MOL0     H36929  -0.713   8.097   8.173 -1.3647 -0.9127 -1.6559
  274MOL0     H36930  -0.597   7.977   8.119  2.8478 -0.3865  2.3517
  274MOL0     H36931  -0.749   7.807   8.172  1.7186 -0.2540  0.4872
  274MOL0     H36932  -0.866   7.931   8.228  1.3730  0.4356  1.0302
  274MOL0     H36933  -0.883   8.040   8.032 -3.4736 -1.1532 -0.4251
  274MOL0     H36934  -0.753   7.961   7.950 -0.2318  1.0884  0.0040
  274MOL0     H36935  -0.914   7.748   7.975  0.4755  0.1781  2.4487
  274MOL0     H36936  -1.030   7.862   8.043  2.7219 -0.6409  1.7448
  274MOL0     H36937  -0.899   7.919   7.777  0.5291  0.2002  0.1174
  274MOL0     H36938  -1.024   7.803   7.773 -0.6772 -0.0768  0.2805
  274MOL0     H36939  -1.094   8.033   7.728 -2.3922 -1.3444 -0.2588
  274MOL0     H36940  -1.042   8.066   7.888 -0.1028  0.2128 -1.1566
  274MOL0     H36941  -1.279   7.772   7.741  0.8984  0.9204 -0.5192
  274MOL0     H36942  -1.615   7.793   7.964  0.1670  0.7328  0.4594
  274MOL0     H36943  -1.566   7.717   7.819  0.5057 -1.6658  0.6510
  274MOL0     H36944  -1.464   7.657   8.105 -1.1898  1.3555  0.1846
  274MOL0     H36945  -1.413   7.581   7.945 -1.1694 -1.7156 -0.1565
  274MOL0     H36946  -1.610   7.459   7.934 -0.6288 -0.9812  0.6257
  274MOL0     H36947  -1.700   7.584   8.027  1.5876  2.2789  2.6140
  274MOL0     H36948  -1.636   7.530   8.229  0.4111 -1.7208  2.1232
  274MOL0     H36949  -1.504   7.428   8.164  0.9305  2.7967  0.1502
  274MOL0     H36950  -1.867   7.559   8.188 -0.4012 -0.7788  1.5694
  274MOL0     H36951  -2.171   7.607   8.093  1.5597 -0.1490 -0.6523
  274MOL0     H36952  -2.204   7.573   8.264 -0.8137 -4.0145 -0.8008
  274MOL0     H36953  -2.056   7.660   8.213  0.0168  0.5408 -1.6873
  274MOL0     H36954  -2.475   7.087   8.206 -2.1100 -0.3432  0.2433
  274MOL0     H36955  -2.694   7.043   8.150 -0.0904  1.2308 -0.5086
  274MOL0     H36956  -2.847   7.226   7.821 -0.3889  0.1908  0.6057
  274MOL0     H36957  -2.835   7.100   7.705  1.0198 -2.0172  0.6372
  274MOL0     H36958  -3.059   7.136   7.917  0.7324 -1.3840  0.4966
  274MOL0     H36959  -3.076   7.184   7.747 -0.9079 -2.7613 -0.6835
  274MOL0     H36960  -3.034   6.908   7.873  0.3497  2.5199  1.2012
  274MOL0     H36961  -2.991   6.927   7.707  0.3718  0.1136  1.4983
  274MOL0     H36962  -3.258   6.941   7.840  2.5218 -2.1169  0.3754
  274MOL0     H36963  -3.237   7.039   7.690  4.9762  0.5019 -1.8671
  274MOL0     H36964  -3.129   6.755   7.659  0.9187  1.4904 -0.2008
  274MOL0     H36965  -3.239   6.846   7.563  2.0992  4.0526  0.1620
  274MOL0     H36966  -3.353   6.640   7.657 -1.2940 -0.6628 -0.6661
  274MOL0     H36967  -3.315   6.698   7.820 -1.9637 -0.6606  0.5004
  274MOL0     H36968  -3.504   6.858   7.624  0.0705  0.2131 -0.3110
  274MOL0     H36969  -3.472   6.885   7.788  0.3187 -0.8398 -0.6959
  274MOL0     H36970  -3.670   6.769   7.778  0.0192  1.0275 -4.5602
  274MOL0     H36971  -3.554   6.648   7.855 -0.3565  1.1463  1.4397
  274MOL0     H36972  -2.619   7.124   7.735  0.5470 -0.2361 -0.8508
  274MOL0     H36973  -2.382   7.220   7.803  1.1906 -2.6530 -0.6332
  274MOL0     H36974  -2.071   7.114   8.102  1.5934 -0.7278 -4.0443
  274MOL0     H36975  -1.824   7.147   8.088 -1.9930 -2.7754 -0.2329
  274MOL0     H36976  -0.198   8.195   8.254 -0.5275 -0.6943  1.3035
  274MOL0     H36977   0.032   8.107   8.284 -0.4320 -0.9255 -1.9805
  274MOL0     H36978   0.284   7.642   8.646 -1.0134  0.6614 -1.0317
  274MOL0     H36979   0.522   7.586   8.637  1.7366 -0.2794 -0.2507
  274MOL0     H36980   0.769   7.615   8.624 -2.1943 -1.3941 -0.8670
  274MOL0     H36981   0.723   7.524   8.479 -1.2539  0.4230 -2.0414
  274MOL0     H36982   0.929   7.568   8.364 -0.7432 -1.3706  0.2319
  274MOL0     H36983   0.969   7.502   8.517  1.7141  1.2781  1.6408
  274MOL0     H36984   1.045   7.721   8.609 -0.5039  0.2530  0.0593
  274MOL0     H36985   0.950   7.803   8.484  0.4459 -0.8352  0.2309
  274MOL0     H36986   1.195   7.638   8.427 -1.8138 -0.9136  1.1002
  274MOL0     H36987   1.196   7.814   8.450 -1.1440  1.4638  0.1494
  274MOL0     H36988   1.064   7.790   8.057  3.0807  1.1036  0.2255
  274MOL0     H36989   0.582   7.919   8.361 -0.3802 -1.5391 -1.0701
  274MOL0     H36990   0.356   7.977   8.382  4.3968  1.0079 -0.4693
  275MOL0     O36991   0.868   8.567   8.038  0.0209 -0.1776  1.0504
  275MOL0     C36992   0.869   8.668   7.974  0.0091  0.0297  1.2593
  275MOL0     O36993   0.762   8.714   7.892  0.1295  0.4072  0.4165
  275MOL0     C36994   0.640   8.655   7.903 -0.5497 -0.1249  0.1568
  275MOL0     C36995   0.530   8.742   7.907  0.3542 -0.0683  0.1015
  275MOL0     C36996   0.402   8.692   7.926 -0.8017 -0.0085  0.2246
  275MOL0     C36997   0.381   8.556   7.939  0.2541 -0.2114 -0.1529
  275MOL0     O36998   0.258   8.495   7.964 -0.0242  0.2811 -0.4652
  275MOL0     C36999   0.189   8.549   8.079 -1.3527 -0.3193 -0.2353
  275MOL0     C37000   0.098   8.446   8.132  0.0141  0.4750 -0.3216
  275MOL0     C37001  -0.019   8.399   8.035 -0.6511  0.0060  0.0050
  275MOL0     C37002  -0.153   8.467   8.065  0.6828  0.2942 -0.2573
  275MOL0     C37003  -0.259   8.386   7.984  0.4550 -0.0715 -0.9616
  275MOL0     C37004  -0.398   8.464   7.981 -0.8866 -0.0211 -0.1881
  275MOL0     C37005  -0.492   8.397   7.883  0.5304 -0.1181  0.1287
  275MOL0     C37006  -0.578   8.281   7.947  0.2573  0.5773 -0.0601
  275MOL0     N37007  -0.688   8.241   7.856 -0.0804 -0.0670  0.3248
  275MOL0     C37008  -0.678   8.153   7.747  0.8704 -0.0403 -0.3843
  275MOL0     C37009  -0.790   8.161   7.677  0.0005 -0.0150 -0.0731
  275MOL0     C37010  -0.832   8.091   7.548 -0.1560 -0.6008 -0.6171
  275MOL0     C37011  -0.962   8.157   7.476  0.1539  0.4513 -0.7930
  275MOL0     C37012  -1.011   8.066   7.362 -0.1074 -0.3323  0.5181
  275MOL0     C37013  -1.162   8.049   7.359  1.0342  0.4663 -0.4167
  275MOL0     O37014  -1.202   7.944   7.263 -0.0172 -0.0815  0.1550
  275MOL0     C37015  -1.278   7.837   7.304 -0.2748 -0.6391 -0.0643
  275MOL0     C37016  -1.274   7.726   7.230  0.6760  0.3967 -0.8121
  275MOL0     C37017  -1.363   7.614   7.249  0.4270 -0.3220  0.1047
  275MOL0     C37018  -1.358   7.505   7.145 -0.1227  0.0858 -0.5219
  275MOL0     C37019  -1.449   7.623   7.361  0.4812  0.9990  0.1676
  275MOL0     C37020  -1.556   7.520   7.388  0.0868 -0.4749 -0.5191
  275MOL0     O37021  -1.611   7.522   7.513  0.6186 -0.4172  0.5319
  275MOL0     C37022  -1.703   7.416   7.538  0.4259 -0.3534  0.0901
  275MOL0     C37023  -1.681   7.349   7.664  0.2012  0.1363 -0.0220
  275MOL0     C37024  -1.755   7.239   7.691 -0.3029  0.8957  0.1327
  275MOL0     C37025  -1.859   7.192   7.608 -0.0398  0.3105 -0.1672
  275MOL0     O37026  -1.925   7.079   7.658 -0.9148  0.2585  0.5760
  275MOL0     C37027  -2.016   7.105   7.765  0.6978 -1.2161  0.2159
  275MOL0     C37028  -2.100   6.982   7.781  0.6084  0.4573 -0.0790
  275MOL0     C37029  -2.181   6.945   7.655 -0.8204 -0.6345  0.7801
  275MOL0     C37030  -2.312   6.884   7.701 -0.4678 -0.1429 -1.0535
  275MOL0     C37031  -2.417   6.880   7.583  0.3373 -0.4573 -1.2000
  275MOL0     C37032  -2.559   6.832   7.624 -0.2646 -0.2586 -0.4027
  275MOL0     C37033  -2.673   6.864   7.526 -0.3134  0.4255  0.3072
  275MOL0     C37034  -2.804   6.787   7.545  0.8599 -0.4435  0.6201
  275MOL0    Cl37035  -2.792   6.616   7.494 -0.1038  0.1330 -0.8372
  275MOL0     C37036  -1.887   7.258   7.488 -0.3546 -0.3063  0.0274
  275MOL0     C37037  -1.805   7.367   7.449  0.0526 -0.4208  0.3373
  275MOL0     O37038  -1.587   7.446   7.302 -0.5236 -0.0795 -0.0075
  275MOL0     C37039  -1.439   7.728   7.449 -0.3700 -0.3543  0.4082
  275MOL0     C37040  -1.355   7.829   7.423  0.0613 -0.5944  0.2008
  275MOL0     N37041  -0.857   8.261   7.740  0.6224  0.0332  0.3611
  275MOL0     N37042  -0.809   8.301   7.853 -0.7411 -0.0939 -0.6449
  275MOL0     C37043   0.490   8.470   7.911  0.5633 -0.2922 -0.5988
  275MOL0     C37044   0.613   8.521   7.885 -0.3801 -0.4090 -0.0505
  275MOL0     C37045   0.993   8.748   7.973 -0.3530  0.6067  0.2867
  275MOL0     C37046   1.120   8.689   7.992  0.0467  0.0957  0.8614
  275MOL0     C37047   1.241   8.762   7.976 -0.2468  0.2188  0.0763
  275MOL0     C37048   1.240   8.894   7.931 -0.2847 -0.1720  0.6140
  275MOL0     O37049   1.348   8.975   7.897 -0.4863 -0.7512 -0.0241
  275MOL0     C37050   1.484   8.941   7.931 -0.4119  0.1487 -0.8219
  275MOL0     C37051   1.541   9.077   7.957 -0.5193 -0.3266 -0.0554
  275MOL0     C37052   1.494   9.124   8.102 -0.1805 -0.7064  1.1129
  275MOL0     C37053   1.563   9.250   8.146  0.5204 -0.2310  0.2685
  275MOL0     C37054   1.479   9.333   8.235 -0.0120  0.6224  0.3596
  275MOL0     C37055   1.414   9.395   8.322 -0.1500  0.2806 -0.4532
  275MOL0     C37056   1.120   8.950   7.908  0.3507 -0.8886 -0.7971
  275MOL0     C37057   0.995   8.886   7.928 -0.4577  0.9764  0.1736
  275MOL0     H37058   0.542   8.849   7.900  1.3315 -0.2292 -0.8750
  275MOL0     H37059   0.321   8.762   7.946  0.4651  1.2441  1.1694
  275MOL0     H37060   0.267   8.571   8.152 -1.7878 -1.8049  0.7125
  275MOL0     H37061   0.141   8.644   8.052 -0.7161 -0.5067 -2.2099
  275MOL0     H37062   0.156   8.357   8.159  2.6495  2.2789  0.2679
  275MOL0     H37063   0.056   8.471   8.230  0.9982 -0.8038  0.4498
  275MOL0     H37064   0.010   8.399   7.929  1.5636 -1.6331  0.5603
  275MOL0     H37065  -0.027   8.291   8.054 -2.9060 -0.2331 -1.7556
  275MOL0     H37066  -0.176   8.470   8.171 -2.7354 -1.6579 -0.8197
  275MOL0     H37067  -0.151   8.573   8.040  1.7941  0.6298  1.1282
  275MOL0     H37068  -0.226   8.387   7.880  0.5941 -0.3124 -0.9199
  275MOL0     H37069  -0.274   8.286   8.025 -1.6241  0.7575  0.5089
  275MOL0     H37070  -0.437   8.467   8.083  0.0066  1.6080  0.1397
  275MOL0     H37071  -0.379   8.569   7.956  0.4972 -0.4885 -1.2069
  275MOL0     H37072  -0.565   8.474   7.859 -0.1013 -1.1831 -1.5283
  275MOL0     H37073  -0.447   8.369   7.787 -2.6172 -2.1300 -0.9145
  275MOL0     H37074  -0.619   8.308   8.045  1.5158  2.1782  0.0616
  275MOL0     H37075  -0.514   8.197   7.974  0.7885 -0.1847 -3.2150
  275MOL0     H37076  -0.588   8.102   7.714  0.2341 -0.1920 -1.9779
  275MOL0     H37077  -0.754   8.101   7.473 -1.9350  2.6432 -2.2968
  275MOL0     H37078  -0.847   7.986   7.572 -1.5720 -0.0673  1.0899
  275MOL0     H37079  -0.936   8.254   7.433 -0.1034  0.8623 -0.0456
  275MOL0     H37080  -1.044   8.169   7.547 -0.9571  1.2727 -2.1735
  275MOL0     H37081  -0.973   7.967   7.388  1.7045 -1.1750 -4.2440
  275MOL0     H37082  -0.961   8.089   7.267 -0.5467 -0.6269  0.2108
  275MOL0     H37083  -1.207   8.145   7.328 -1.0878 -0.8987 -1.8977
  275MOL0     H37084  -1.195   8.025   7.460 -0.5465 -2.2094 -1.4580
  275MOL0     H37085  -1.214   7.718   7.140 -1.8189 -2.1604 -2.4498
  275MOL0     H37086  -1.348   7.402   7.181  0.3879  0.7020  1.2103
  275MOL0     H37087  -1.457   7.516   7.100 -0.8518 -0.2489  0.9071
  275MOL0     H37088  -1.281   7.520   7.069  1.6223 -0.4151  1.0469
  275MOL0     H37089  -1.604   7.393   7.727  0.9133 -1.1583  0.0319
  275MOL0     H37090  -1.729   7.189   7.784  2.0169 -1.8759 -1.8373
  275MOL0     H37091  -1.960   7.134   7.854 -0.6130  0.2084  0.6036
  275MOL0     H37092  -2.074   7.196   7.747  1.0222 -0.9593  0.4491
  275MOL0     H37093  -2.031   6.903   7.813  2.6182  1.5936 -1.3720
  275MOL0     H37094  -2.172   7.002   7.860  0.6664  4.9976 -0.9094
  275MOL0     H37095  -2.119   6.880   7.592 -2.3151 -1.1501 -0.2410
  275MOL0     H37096  -2.204   7.037   7.600  1.5950 -0.5247 -0.1550
  275MOL0     H37097  -2.292   6.780   7.730 -0.9552  0.3057  1.0659
  275MOL0     H37098  -2.353   6.945   7.782 -1.2628  1.5849 -2.6713
  275MOL0     H37099  -2.386   6.798   7.517 -1.0422 -1.7646 -0.2894
  275MOL0     H37100  -2.418   6.975   7.528 -0.9856  0.4886  0.3820
  275MOL0     H37101  -2.551   6.723   7.636  0.3530 -0.0266  1.6997
  275MOL0     H37102  -2.574   6.873   7.725 -0.4905 -1.1540 -0.0562
  275MOL0     H37103  -2.643   6.854   7.421 -1.5402  2.7683 -0.3168
  275MOL0     H37104  -2.694   6.971   7.530 -0.4761  0.4338 -0.4777
  275MOL0     H37105  -2.875   6.842   7.484  1.0515  0.7980  1.4626
  275MOL0     H37106  -2.831   6.785   7.651 -3.2755  0.7074 -0.2279
  275MOL0     H37107  -1.972   7.210   7.441 -1.1856  0.3908  0.7598
  275MOL0     H37108  -1.817   7.402   7.347 -0.0924 -1.9464 -0.1966
  275MOL0     H37109  -1.512   7.748   7.527  0.2695  0.3055  0.8558
  275MOL0     H37110  -1.356   7.915   7.489  0.6592 -1.3536  1.2327
  275MOL0     H37111   0.477   8.362   7.912  1.3401 -0.4166  1.5927
  275MOL0     H37112   0.701   8.467   7.852 -0.9300  0.1909 -2.7451
  275MOL0     H37113   1.139   8.588   8.030 -0.6313 -0.0318  0.8775
  275MOL0     H37114   1.338   8.712   7.978 -0.0726  0.5191 -0.5216
  275MOL0     H37115   1.496   8.870   8.014 -0.6016 -0.5462 -1.3774
  275MOL0     H37116   1.526   8.882   7.849  0.5215 -1.4302  0.7257
  275MOL0     H37117   1.512   9.154   7.886 -0.0866 -1.7020 -1.7968
  275MOL0     H37118   1.650   9.078   7.961 -0.5622  0.2401  2.3260
  275MOL0     H37119   1.526   9.051   8.177  3.3957 -0.6591 -0.1626
  275MOL0     H37120   1.385   9.134   8.097 -0.0971 -0.3306 -0.6162
  275MOL0     H37121   1.584   9.308   8.056  0.1997  1.1206  1.0349
  275MOL0     H37122   1.653   9.228   8.204  0.1410 -1.6014  0.3630
  275MOL0     H37123   1.357   9.445   8.398  0.5941 -0.9476  0.9690
  275MOL0     H37124   1.116   9.035   7.841 -0.7249 -1.5545 -1.6083
  275MOL0     H37125   0.899   8.933   7.907 -0.8761  0.4721  0.9321
  276MOL0     O37126   9.452  10.220   2.567  0.1193  0.3781  0.3119
  276MOL0     C37127   9.464  10.110   2.519  0.5440 -0.4154 -0.8965
  276MOL0     O37128   9.382   9.999   2.537  0.6023 -0.4091 -0.7241
  276MOL0     C37129   9.275  10.004   2.629 -0.0709  0.2653  0.6749
  276MOL0     C37130   9.218   9.874   2.661  0.4049 -0.4681  0.5417
  276MOL0     C37131   9.103   9.869   2.740 -1.0891 -0.3901  0.6100
  276MOL0     C37132   9.047   9.983   2.806 -0.0220  0.1424  0.3225
  276MOL0     O37133   8.946   9.953   2.893  0.9952 -0.2023  0.6544
  276MOL0     C37134   8.900  10.055   2.980 -0.2414 -0.4322  0.4072
  276MOL0     C37135   8.856   9.997   3.112 -0.0832  0.1443  0.1456
  276MOL0     C37136   8.736   9.906   3.090 -0.4351  0.3408 -0.1748
  276MOL0     C37137   8.616   9.941   3.189 -1.2458  1.0090  0.4720
  276MOL0     C37138   8.505   9.848   3.178  0.1197 -0.0950 -0.0636
  276MOL0     C37139   8.411   9.846   3.302  0.2223  0.2617  0.0581
  276MOL0     C37140   8.301   9.735   3.281 -0.3011 -0.4501  0.1893
  276MOL0     C37141   8.163   9.795   3.257 -0.4221  0.1762  0.4741
  276MOL0     N37142   8.072   9.688   3.230 -0.4995  1.0223  0.1820
  276MOL0     C37143   8.058   9.579   3.312  0.8570 -0.1285  0.0915
  276MOL0     C37144   7.929   9.533   3.288  0.2924 -0.3275 -0.5725
  276MOL0     C37145   7.866   9.404   3.347  0.3453  0.4160  1.3133
  276MOL0     C37146   7.716   9.402   3.372  0.4552 -0.2384  1.2902
  276MOL0     C37147   7.628   9.380   3.245 -0.1212 -0.2604 -0.3585
  276MOL0     C37148   7.480   9.383   3.276 -0.5994 -0.6997  0.1871
  276MOL0     O37149   7.435   9.523   3.311  0.0189 -0.2948  0.0132
  276MOL0     C37150   7.305   9.557   3.308  0.4501  0.4495 -0.5299
  276MOL0     C37151   7.211   9.486   3.226  0.7585 -0.3442 -0.6755
  276MOL0     C37152   7.067   9.505   3.244 -0.0229  0.0661 -0.1459
  276MOL0     C37153   6.977   9.415   3.163  0.2708 -0.1215 -0.1321
  276MOL0     C37154   7.027   9.594   3.346  0.0453  1.0339  0.3586
  276MOL0     C37155   6.890   9.608   3.384 -0.3996  0.6174 -0.3852
  276MOL0     O37156   6.799   9.605   3.282 -0.2479 -0.6832 -0.1358
  276MOL0     C37157   6.662   9.612   3.321  0.1719 -0.2435 -0.2004
  276MOL0     C37158   6.577   9.689   3.246  0.4118 -0.2255 -0.0872
  276MOL0     C37159   6.441   9.696   3.279  0.0570 -0.0090  1.1991
  276MOL0     C37160   6.382   9.610   3.375  0.2128  0.2076 -0.5614
  276MOL0     O37161   6.251   9.613   3.405 -0.1967  0.2452 -0.0907
  276MOL0     C37162   6.226   9.645   3.549  0.8647  0.3198  1.0321
  276MOL0     C37163   6.079   9.657   3.582  0.7044  0.8248  0.1040
  276MOL0     C37164   6.007   9.526   3.558  0.4324 -0.1190 -0.2818
  276MOL0     C37165   5.848   9.539   3.549  0.3485 -0.6863 -0.7493
  276MOL0     C37166   5.785   9.406   3.507 -0.4406  0.0200  0.0659
  276MOL0     C37167   5.637   9.427   3.480  0.6462 -0.5454 -0.3186
  276MOL0     C37168   5.549   9.300   3.485  0.3073 -0.3518  0.2290
  276MOL0     C37169   5.596   9.206   3.382 -0.6482 -0.4090  0.4558
  276MOL0    Cl37170   5.566   9.276   3.215  0.3863 -0.4851 -0.6645
  276MOL0     C37171   6.469   9.516   3.439  0.2454 -0.2548  0.0129
  276MOL0     C37172   6.609   9.521   3.417 -0.0131  0.4854 -0.3492
  276MOL0     O37173   6.864   9.638   3.502 -0.3604  0.5240 -0.2268
  276MOL0     C37174   7.123   9.661   3.420 -0.5293  0.2914  0.6023
  276MOL0     C37175   7.259   9.647   3.402  0.1665  0.1856  0.1985
  276MOL0     N37176   7.881   9.608   3.181 -0.5463  0.1697 -0.1970
  276MOL0     N37177   7.968   9.701   3.148  1.0514 -0.2464  0.7632
  276MOL0     C37178   9.102  10.107   2.778  0.2746  0.0206 -0.1801
  276MOL0     C37179   9.207  10.117   2.694  0.3988 -0.5341  0.4216
  276MOL0     C37180   9.584  10.084   2.447  0.4077  0.0103  0.0069
  276MOL0     C37181   9.700  10.157   2.466 -0.5299  0.0700  0.6944
  276MOL0     C37182   9.811  10.135   2.384 -0.3034 -0.2993  0.2214
  276MOL0     C37183   9.804  10.049   2.280 -0.0187 -0.0116 -0.8761
  276MOL0     O37184   9.925  10.042   2.215  0.6177  0.7495 -0.0193
  276MOL0     C37185   9.944   9.942   2.115  0.1357  1.2910 -0.3245
  276MOL0     C37186  10.089   9.964   2.061 -0.2957  0.4273 -0.0505
  276MOL0     C37187  10.118  10.108   2.008  0.7220  0.2303 -0.2334
  276MOL0     C37188  10.239  10.103   1.911 -0.1601  0.2848 -0.3498
  276MOL0     C37189  10.220  10.018   1.797 -0.6548  0.1702 -1.0720
  276MOL0     C37190  10.218   9.956   1.695 -0.4402  0.3866  0.2992
  276MOL0     C37191   9.690   9.977   2.255 -0.6811  0.0882  0.3194
  276MOL0     C37192   9.586   9.995   2.337  0.2456 -0.0190 -0.1319
  276MOL0     H37193   9.270   9.788   2.620  1.3126  0.6967 -0.8646
  276MOL0     H37194   9.074   9.769   2.772  3.2485 -1.3453  2.2783
  276MOL0     H37195   8.984  10.122   3.001  0.4295 -1.5249  1.2943
  276MOL0     H37196   8.816  10.106   2.932  0.8026 -0.5698 -1.6845
  276MOL0     H37197   8.939   9.944   3.160 -0.5835 -0.3458  0.4816
  276MOL0     H37198   8.826  10.079   3.178  3.3503 -0.5141  2.8080
  276MOL0     H37199   8.700   9.924   2.988 -2.0966  0.0502  0.3412
  276MOL0     H37200   8.759   9.799   3.090 -0.6835  0.2557  2.1358
  276MOL0     H37201   8.657   9.934   3.290 -1.2051  0.8063  0.4426
  276MOL0     H37202   8.586  10.044   3.170  0.4777  1.1305 -2.0750
  276MOL0     H37203   8.455   9.872   3.084  2.4514 -0.0988 -1.3819
  276MOL0     H37204   8.550   9.749   3.161 -1.3855 -0.6770 -0.8446
  276MOL0     H37205   8.457   9.822   3.398  1.1990  0.2824 -0.3901
  276MOL0     H37206   8.365   9.943   3.321  0.2669  0.1112  0.9379
  276MOL0     H37207   8.336   9.676   3.196 -1.0914  1.0656 -1.2214
  276MOL0     H37208   8.297   9.669   3.369  4.2193  2.4369  2.9717
  276MOL0     H37209   8.157   9.861   3.170  0.8784  0.7051  0.7532
  276MOL0     H37210   8.126   9.848   3.346  1.5992  0.0377  1.4407
  276MOL0     H37211   8.119   9.533   3.388 -1.7911 -0.0233  2.4562
  276MOL0     H37212   7.900   9.327   3.278 -0.9852 -0.1725  1.2875
  276MOL0     H37213   7.909   9.392   3.446  1.3035  1.0693  0.9914
  276MOL0     H37214   7.696   9.503   3.410  0.5299  0.8384 -1.3132
  276MOL0     H37215   7.686   9.336   3.454 -1.7166  0.6569  1.2859
  276MOL0     H37216   7.661   9.283   3.208  2.1935  1.4686 -3.2585
  276MOL0     H37217   7.636   9.454   3.164 -0.2176  0.6030  0.4025
  276MOL0     H37218   7.471   9.330   3.371 -1.8833 -2.0262 -0.6359
  276MOL0     H37219   7.420   9.329   3.203 -0.9540  0.2497 -0.2439
  276MOL0     H37220   7.241   9.408   3.156  0.7877 -1.8313  0.9359
  276MOL0     H37221   6.888   9.389   3.222  1.2438 -1.1010  0.9713
  276MOL0     H37222   6.955   9.479   3.078 -1.9169  0.6885  0.9540
  276MOL0     H37223   7.031   9.324   3.135 -0.9433 -0.7674 -0.4414
  276MOL0     H37224   6.614   9.760   3.174  1.3255 -0.9825 -0.3843
  276MOL0     H37225   6.384   9.773   3.227  2.6919  0.0590 -1.8721
  276MOL0     H37226   6.281   9.584   3.622  0.6549  2.2462  2.8849
  276MOL0     H37227   6.266   9.746   3.565 -1.4427  1.1171  2.0591
  276MOL0     H37228   6.076   9.680   3.689  1.1793  0.1617  0.2654
  276MOL0     H37229   6.027   9.731   3.519 -0.4865 -1.2690 -1.5145
  276MOL0     H37230   6.036   9.454   3.635  0.9468  0.7607  0.3580
  276MOL0     H37231   6.040   9.498   3.457  0.7670  1.5322 -0.6647
  276MOL0     H37232   5.818   9.570   3.650  0.0634 -1.8128 -0.4721
  276MOL0     H37233   5.827   9.621   3.480 -0.3890 -0.1189  0.1211
  276MOL0     H37234   5.798   9.322   3.576 -0.3673 -0.2905 -0.3243
  276MOL0     H37235   5.838   9.377   3.416 -1.8421  1.5608 -1.3078
  276MOL0     H37236   5.600   9.486   3.565  1.6980 -0.4119  0.0694
  276MOL0     H37237   5.618   9.488   3.392 -1.7288 -0.5462  0.1208
  276MOL0     H37238   5.442   9.319   3.470 -0.3856 -1.8672  2.6632
  276MOL0     H37239   5.561   9.250   3.582 -0.9670 -1.4528 -0.1545
  276MOL0     H37240   5.549   9.107   3.392 -1.8153  0.2827  2.1951
  276MOL0     H37241   5.701   9.189   3.408 -1.0598 -0.8651  1.9391
  276MOL0     H37242   6.428   9.440   3.504 -0.5128  0.4170  0.3305
  276MOL0     H37243   6.668   9.451   3.475  0.9256  2.2754  0.9411
  276MOL0     H37244   7.104   9.734   3.498 -0.6709  0.8354  0.0712
  276MOL0     H37245   7.322   9.711   3.464  0.4345 -1.0158  1.2100
  276MOL0     H37246   9.063  10.202   2.812 -1.3209 -0.0855 -1.6339
  276MOL0     H37247   9.244  10.215   2.666 -0.2753 -0.1330  0.9186
  276MOL0     H37248   9.707  10.223   2.552 -3.1591  0.2442  0.8429
  276MOL0     H37249   9.903  10.192   2.392 -0.2178 -0.5852  1.4776
  276MOL0     H37250   9.926   9.840   2.149 -2.4597  1.4599 -1.0472
  276MOL0     H37251   9.867   9.963   2.040 -1.1715  1.1221  0.9398
  276MOL0     H37252  10.101   9.893   1.978  2.4974  2.9600 -2.0441
  276MOL0     H37253  10.156   9.935   2.142  1.1706 -2.0135 -1.9875
  276MOL0     H37254  10.130  10.170   2.098  1.2423 -0.5112  0.2205
  276MOL0     H37255  10.038  10.155   1.951  1.8000  2.0294 -0.3558
  276MOL0     H37256  10.317  10.058   1.974 -2.4893 -1.4976  1.4952
  276MOL0     H37257  10.269  10.198   1.868 -1.5036  0.2878 -1.3569
  276MOL0     H37258  10.202   9.906   1.602 -1.3703  1.4776 -0.1586
  276MOL0     H37259   9.678   9.909   2.172  0.5180 -1.7607  1.5851
  276MOL0     H37260   9.494   9.949   2.302 -0.3948  0.2196  1.2175
  277MOL0     O37261   1.443   3.413  11.125  0.5513 -0.8908 -0.1066
  277MOL0     C37262   1.495   3.436  11.018  0.5180  0.1990  0.3055
  277MOL0     O37263   1.434   3.454  10.897  1.0855 -1.0359 -0.3196
  277MOL0     C37264   1.302   3.410  10.892  0.1398 -0.1772  0.1037
  277MOL0     C37265   1.267   3.287  10.830 -0.9102  0.5886  0.6237
  277MOL0     C37266   1.134   3.246  10.841 -0.0070 -0.3250 -0.6422
  277MOL0     C37267   1.035   3.323  10.912  0.1101 -0.5780 -0.1895
  277MOL0     O37268   0.908   3.297  10.919  0.6972 -0.2748  0.2501
  277MOL0     C37269   0.825   3.292  10.808 -0.0206 -0.0650  0.3757
  277MOL0     C37270   0.785   3.155  10.775  0.1918  0.2170 -0.4571
  277MOL0     C37271   0.683   3.145  10.663 -0.5357 -0.4319  0.1226
  277MOL0     C37272   0.547   3.201  10.703  0.1220  0.0952  1.0699
  277MOL0     C37273   0.445   3.155  10.593  0.0235 -0.0207 -0.1303
  277MOL0     C37274   0.311   3.217  10.627 -0.3578  0.0801 -0.8252
  277MOL0     C37275   0.203   3.138  10.549  0.2553  0.4795  0.4341
  277MOL0     C37276   0.066   3.205  10.558  0.2922 -0.2473 -0.0017
  277MOL0     N37277  -0.035   3.130  10.488 -0.0478  0.3163 -0.0653
  277MOL0     C37278  -0.039   3.121  10.350  0.0228 -0.2881  0.4084
  277MOL0     C37279  -0.139   3.038  10.323 -0.8619 -0.1925 -0.3745
  277MOL0     C37280  -0.175   3.003  10.178  0.3710  0.4193 -0.5533
  277MOL0     C37281  -0.326   3.036  10.150  0.1390 -0.8160  0.3050
  277MOL0     C37282  -0.340   3.149  10.039 -0.1977  0.4509 -0.2634
  277MOL0     C37283  -0.296   3.290  10.083 -0.5316 -0.4516  0.1447
  277MOL0     O37284  -0.321   3.388   9.984 -0.2778 -0.4593 -0.3710
  277MOL0     C37285  -0.459   3.410   9.947 -1.1854 -0.0671  0.4947
  277MOL0     C37286  -0.557   3.449  10.033  0.7686  0.3142 -0.3422
  277MOL0     C37287  -0.685   3.486   9.980 -0.5326 -0.5026 -0.2292
  277MOL0     C37288  -0.776   3.541  10.084 -0.3344 -0.6018  0.5831
  277MOL0     C37289  -0.706   3.485   9.841  0.2713 -0.0440  0.3996
  277MOL0     C37290  -0.834   3.542   9.789 -0.3731 -0.5306  0.5791
  277MOL0     O37291  -0.955   3.512   9.854  0.3268  0.0039  0.9781
  277MOL0     C37292  -1.065   3.570   9.802 -0.0803 -0.1592 -0.9329
  277MOL0     C37293  -1.131   3.531   9.682 -0.0775 -0.4173  0.1298
  277MOL0     C37294  -1.252   3.589   9.646 -0.3290 -0.5872  0.3838
  277MOL0     C37295  -1.308   3.689   9.718  0.3261 -0.4108  0.3852
  277MOL0     O37296  -1.436   3.731   9.680  0.2714 -0.0359  0.2482
  277MOL0     C37297  -1.482   3.859   9.736  0.5403  0.6364 -0.7076
  277MOL0     C37298  -1.612   3.907   9.667  0.3461  0.0983  0.3629
  277MOL0     C37299  -1.728   3.805   9.685 -0.4120  0.4676 -0.9919
  277MOL0     C37300  -1.851   3.846   9.614  1.3421  0.3825 -0.7055
  277MOL0     C37301  -1.979   3.772   9.669 -0.9084  0.2421 -0.2413
  277MOL0     C37302  -1.967   3.617   9.623 -0.5701 -0.9338  0.2738
  277MOL0     C37303  -2.102   3.563   9.636  0.1861  0.4526  0.6725
  277MOL0     C37304  -2.103   3.412   9.625  0.0944 -0.2972 -0.1213
  277MOL0    Cl37305  -2.266   3.346   9.643  0.0088  0.2279 -0.0106
  277MOL0     C37306  -1.239   3.736   9.831 -0.4315  0.1796 -1.2100
  277MOL0     C37307  -1.123   3.670   9.872 -0.5193 -0.0801 -0.5184
  277MOL0     O37308  -0.826   3.598   9.675 -0.4368  0.0816 -0.4792
  277MOL0     C37309  -0.599   3.446   9.760  0.6437 -0.0500 -0.5260
  277MOL0     C37310  -0.480   3.403   9.813 -0.4801 -0.2223  0.4616
  277MOL0     N37311  -0.198   2.988  10.443  0.2329 -0.3822  0.6502
  277MOL0     N37312  -0.136   3.054  10.539 -0.0061 -0.1211 -0.3986
  277MOL0     C37313   1.077   3.451  10.969  0.5173 -0.0110  0.3389
  277MOL0     C37314   1.210   3.490  10.957 -0.2465 -1.3762  0.4830
  277MOL0     C37315   1.643   3.468  11.022  0.2510  0.1310 -0.0542
  277MOL0     C37316   1.717   3.453  11.139  0.2808 -0.6088  0.7211
  277MOL0     C37317   1.860   3.459  11.136  0.7620 -0.0369 -0.3670
  277MOL0     C37318   1.927   3.472  11.012  0.4610 -0.5321 -0.3978
  277MOL0     O37319   2.062   3.449  11.026 -0.6474  0.0265  0.2077
  277MOL0     C37320   2.129   3.443  10.896 -0.6122 -0.7153 -0.6537
  277MOL0     C37321   2.284   3.447  10.927 -0.3572  0.3938  0.1397
  277MOL0     C37322   2.325   3.591  10.945  0.6344 -0.0761  0.4127
  277MOL0     C37323   2.483   3.603  10.949 -0.4861  0.5754  0.3436
  277MOL0     C37324   2.535   3.628  11.083 -0.1899 -0.7958 -0.1638
  277MOL0     C37325   2.594   3.644  11.190  0.3912 -0.4061 -0.6126
  277MOL0     C37326   1.847   3.494  10.898 -0.4389 -0.0252 -0.2787
  277MOL0     C37327   1.706   3.489  10.896 -0.5473 -0.1016 -0.5529
  277MOL0     H37328   1.350   3.235  10.783 -0.0793  1.2233  1.3521
  277MOL0     H37329   1.104   3.149  10.803 -0.1284 -0.1534 -0.9890
  277MOL0     H37330   0.740   3.356  10.835  0.6020  1.2277 -0.5895
  277MOL0     H37331   0.878   3.336  10.723  1.2571  0.5658  1.4587
  277MOL0     H37332   0.875   3.094  10.766  0.2125 -0.3445  2.3830
  277MOL0     H37333   0.739   3.103  10.859  0.9727  0.0344 -0.1315
  277MOL0     H37334   0.723   3.188  10.571  1.2738  0.2036  1.1509
  277MOL0     H37335   0.671   3.038  10.641  0.5981 -0.2989 -1.2963
  277MOL0     H37336   0.524   3.151  10.797  1.9903  0.3178  1.6760
  277MOL0     H37337   0.552   3.309  10.711  1.3273  0.4757 -2.6281
  277MOL0     H37338   0.482   3.189  10.495  0.5665  0.1474  0.1295
  277MOL0     H37339   0.435   3.047  10.594 -0.9434  0.0521  1.1454
  277MOL0     H37340   0.293   3.208  10.734  1.7309  1.7896 -0.2626
  277MOL0     H37341   0.319   3.325  10.609 -0.0406  0.9042  3.3882
  277MOL0     H37342   0.218   3.120  10.442 -2.1066  0.1350  0.1152
  277MOL0     H37343   0.200   3.039  10.598 -0.6406  0.6371  0.7121
  277MOL0     H37344   0.078   3.308  10.524  1.5927 -0.1079  0.7859
  277MOL0     H37345   0.036   3.207  10.663 -3.2088  3.0980 -0.8478
  277MOL0     H37346   0.014   3.184  10.280 -1.4232  0.2760 -0.2052
  277MOL0     H37347  -0.111   3.057  10.107 -0.9201  2.4438 -0.2751
  277MOL0     H37348  -0.157   2.899  10.149  1.7541  0.6576 -0.6231
  277MOL0     H37349  -0.372   3.069  10.244  2.1603  0.5836  0.8917
  277MOL0     H37350  -0.386   2.952  10.115 -1.3980  0.3580 -0.0048
  277MOL0     H37351  -0.437   3.137   9.990 -0.7576 -2.6806  1.3739
  277MOL0     H37352  -0.261   3.132   9.966  0.1149  3.6055 -0.7980
  277MOL0     H37353  -0.190   3.285  10.108 -0.6927 -4.0466  0.7016
  277MOL0     H37354  -0.350   3.320  10.174 -1.5149  2.8985 -1.3857
  277MOL0     H37355  -0.539   3.444  10.140 -1.5551 -1.2919  0.0478
  277MOL0     H37356  -0.720   3.597  10.159  1.4236 -0.0044 -1.1118
  277MOL0     H37357  -0.842   3.619  10.046  1.5313  0.8658  0.2147
  277MOL0     H37358  -0.836   3.473  10.146 -0.6907  0.5406  1.5193
  277MOL0     H37359  -1.081   3.456   9.621  0.7087  0.5847 -0.5021
  277MOL0     H37360  -1.313   3.564   9.560 -1.8143  3.8736 -0.1189
  277MOL0     H37361  -1.504   3.846   9.842  2.3923  2.3835 -0.0235
  277MOL0     H37362  -1.406   3.939   9.734  2.2538 -0.9124  0.0175
  277MOL0     H37363  -1.645   4.005   9.705 -3.5026 -1.8704  2.7328
  277MOL0     H37364  -1.607   3.923   9.559 -1.2062 -1.9359 -0.0609
  277MOL0     H37365  -1.748   3.789   9.791  0.9448 -1.6065 -1.0038
  277MOL0     H37366  -1.701   3.704   9.651  0.1893  0.3763 -0.2681
  277MOL0     H37367  -1.863   3.955   9.622 -1.8756 -0.0059  2.3515
  277MOL0     H37368  -1.851   3.830   9.506  0.3590 -0.7146 -0.5642
  277MOL0     H37369  -2.071   3.806   9.621 -1.6102 -1.7647 -0.4094
  277MOL0     H37370  -1.987   3.782   9.777 -0.0810  0.5000 -0.1928
  277MOL0     H37371  -1.924   3.604   9.523  0.9046 -2.6270  1.0822
  277MOL0     H37372  -1.895   3.575   9.694  1.8543  3.9436  1.1168
  277MOL0     H37373  -2.171   3.605   9.561 -0.7490 -2.8486 -0.5043
  277MOL0     H37374  -2.141   3.583   9.736  1.7255  2.8184  0.8561
  277MOL0     H37375  -2.037   3.364   9.698 -1.2410  0.4902  1.6876
  277MOL0     H37376  -2.064   3.395   9.524  0.6926  2.1048 -0.3582
  277MOL0     H37377  -1.285   3.801   9.905  0.9919  0.2445 -0.3298
  277MOL0     H37378  -1.072   3.705   9.961 -3.1748  2.9940  0.0151
  277MOL0     H37379  -0.620   3.464   9.655 -0.3584 -0.9779 -0.5100
  277MOL0     H37380  -0.405   3.365   9.745 -1.0383 -0.8504  0.1768
  277MOL0     H37381   1.002   3.503  11.027  0.3341  1.2212 -0.9474
  277MOL0     H37382   1.239   3.585  11.001  1.8661 -2.0236  0.5846
  277MOL0     H37383   1.675   3.434  11.237  1.9726 -0.2257  1.5515
  277MOL0     H37384   1.928   3.469  11.220  1.3876  1.8579 -1.0295
  277MOL0     H37385   2.103   3.349  10.847  0.7283 -1.8430  0.7076
  277MOL0     H37386   2.102   3.535  10.843  1.1398 -0.1524 -0.6219
  277MOL0     H37387   2.354   3.402  10.855 -0.7236  0.8285 -0.4959
  277MOL0     H37388   2.299   3.385  11.016  2.2108  2.2067  1.0914
  277MOL0     H37389   2.278   3.624  11.038 -0.9996 -1.3678  0.1014
  277MOL0     H37390   2.289   3.656  10.864  2.6581  2.4384  1.4190
  277MOL0     H37391   2.506   3.700  10.903  0.4230  1.0444  1.7328
  277MOL0     H37392   2.533   3.518  10.901 -0.7952  0.5923 -0.0102
  277MOL0     H37393   2.652   3.659  11.279 -1.0032  0.4268  0.1805
  277MOL0     H37394   1.899   3.513  10.805  0.6988  1.4098  0.6099
  277MOL0     H37395   1.657   3.507  10.801  2.0688 -1.2913 -2.2682
  278MOL0     O37396   9.784  10.979   3.737  0.4173  0.0894 -0.0315
  278MOL0     C37397   9.691  10.909   3.775 -0.4316 -0.1461  0.2660
  278MOL0     O37398   9.694  10.775   3.766 -0.5049 -0.2643  0.0283
  278MOL0     C37399   9.810  10.703   3.740  0.0906 -0.0704  0.1450
  278MOL0     C37400   9.781  10.561   3.724  0.7118 -0.1983  0.2855
  278MOL0     C37401   9.886  10.470   3.717  0.6674  0.9666 -0.4317
  278MOL0     C37402  10.018  10.509   3.696 -0.2420  0.2159  0.3309
  278MOL0     O37403  10.125  10.422   3.677  0.4395  0.7714  0.4431
  278MOL0     C37404  10.106  10.284   3.623  0.3694  0.0107  0.3019
  278MOL0     C37405  10.236  10.214   3.600 -0.5344  0.7657 -0.5332
  278MOL0     C37406  10.265  10.180   3.456 -0.2323 -0.1996  0.2272
  278MOL0     C37407  10.397  10.108   3.432 -0.0490  0.3601 -0.0883
  278MOL0     C37408  10.441  10.130   3.284  0.3807 -0.1205 -0.5485
  278MOL0     C37409  10.574  10.062   3.250 -0.5002  0.2922 -0.3670
  278MOL0     C37410  10.589  10.030   3.093  0.1237 -0.5027  1.1668
  278MOL0     C37411  10.481   9.920   3.044  0.7515  1.0822 -1.0430
  278MOL0     N37412  10.522   9.786   3.089  0.1339 -0.0983 -0.2332
  278MOL0     C37413  10.502   9.734   3.214 -0.1872 -0.6079 -0.7255
  278MOL0     C37414  10.597   9.637   3.226  0.1461  0.0979 -0.1404
  278MOL0     C37415  10.621   9.564   3.357  0.0434  0.0977  0.2823
  278MOL0     C37416  10.624   9.416   3.346 -0.3156 -0.0201 -0.0359
  278MOL0     C37417  10.556   9.349   3.462  0.0333 -0.2695 -0.4882
  278MOL0     C37418  10.588   9.202   3.456 -0.4325  0.2297  1.2522
  278MOL0     O37419  10.725   9.187   3.483 -1.1543  0.2635  0.6356
  278MOL0     C37420  10.791   9.068   3.463 -0.1280  0.0586 -0.1748
  278MOL0     C37421  10.728   8.939   3.487  0.0282 -0.3788  0.0095
  278MOL0     C37422  10.800   8.824   3.468 -0.4348  0.3297  0.0152
  278MOL0     C37423  10.730   8.690   3.475  0.4366  0.4595 -0.0716
  278MOL0     C37424  10.942   8.834   3.431 -0.0477  0.6109 -0.3514
  278MOL0     C37425  11.034   8.716   3.389 -0.1609 -0.4895 -0.4264
  278MOL0     O37426  11.163   8.730   3.428  0.5760  0.0131  0.0299
  278MOL0     C37427  11.251   8.625   3.430  0.1950 -0.1650 -0.3776
  278MOL0     C37428  11.314   8.595   3.546 -0.6170 -0.5109 -0.7858
  278MOL0     C37429  11.413   8.496   3.542  0.5083  0.4731 -0.5473
  278MOL0     C37430  11.440   8.429   3.424 -0.0678  0.1591 -0.6561
  278MOL0     O37431  11.519   8.314   3.421  0.3316 -0.1286  0.3867
  278MOL0     C37432  11.620   8.273   3.518 -0.0205 -0.4123 -0.3695
  278MOL0     C37433  11.688   8.154   3.462  0.1226  0.4498 -1.0212
  278MOL0     C37434  11.607   8.034   3.507  0.0255 -0.5899  0.0079
  278MOL0     C37435  11.681   7.907   3.473 -0.1739 -0.1292  0.0830
  278MOL0     C37436  11.589   7.782   3.477 -0.6225 -0.3998 -0.8077
  278MOL0     C37437  11.658   7.655   3.448 -0.7237  0.0722 -0.1454
  278MOL0     C37438  11.559   7.539   3.438 -0.0894  0.0900  0.5223
  278MOL0     C37439  11.602   7.423   3.525 -0.5368 -0.1420 -0.1713
  278MOL0    Cl37440  11.486   7.280   3.507 -0.6246  0.0623 -0.0600
  278MOL0     C37441  11.371   8.457   3.311 -0.4182 -0.1418  0.2545
  278MOL0     C37442  11.280   8.551   3.315 -0.5922 -0.0473  0.3263
  278MOL0     O37443  10.994   8.620   3.333 -0.1275 -0.1004  0.2274
  278MOL0     C37444  11.004   8.955   3.425 -1.2289 -0.5559 -0.8764
  278MOL0     C37445  10.927   9.075   3.438 -0.5409 -0.3579 -0.4797
  278MOL0     N37446  10.668   9.631   3.108  0.4008  0.1653 -0.1308
  278MOL0     N37447  10.622   9.726   3.028  0.4165  0.9307  0.3696
  278MOL0     C37448  10.044  10.646   3.707 -0.5137 -0.7239 -0.7238
  278MOL0     C37449   9.945  10.735   3.732  0.7044 -0.1678 -0.4724
  278MOL0     C37450   9.569  10.978   3.806  0.3078 -0.2944  0.5427
  278MOL0     C37451   9.448  10.909   3.808 -0.5772 -0.7428 -0.1035
  278MOL0     C37452   9.328  10.970   3.845  0.8560 -0.1721 -1.3836
  278MOL0     C37453   9.321  11.103   3.887 -1.0991  0.8274  0.8357
  278MOL0     O37454   9.215  11.171   3.927  0.3636  0.4908  0.5806
  278MOL0     C37455   9.081  11.129   3.882  0.6777  0.1201 -0.6369
  278MOL0     C37456   8.969  11.221   3.931 -0.3653  0.3757  0.1612
  278MOL0     C37457   8.980  11.243   4.082 -0.3376 -0.1668 -0.4593
  278MOL0     C37458   8.860  11.316   4.142  0.0741  0.3043  0.1812
  278MOL0     C37459   8.741  11.236   4.140  0.1964 -0.6520  0.0125
  278MOL0     C37460   8.644  11.164   4.130 -0.6125 -1.1248  0.2824
  278MOL0     C37461   9.441  11.175   3.876 -0.2658 -0.5343 -0.8629
  278MOL0     C37462   9.569  11.115   3.837  0.0868 -0.7370 -0.2765
  278MOL0     H37463   9.676  10.535   3.723  0.7456 -0.3218 -0.9490
  278MOL0     H37464   9.858  10.366   3.722 -0.1943  1.2543  1.2086
  278MOL0     H37465  10.049  10.235   3.703 -0.3571  0.8515  0.3164
  278MOL0     H37466  10.049  10.283   3.530  1.8136 -1.2197 -0.6166
  278MOL0     H37467  10.317  10.253   3.662 -0.5639 -2.3992  1.7551
  278MOL0     H37468  10.215  10.113   3.637 -2.2584  0.6608 -1.6746
  278MOL0     H37469  10.178  10.125   3.419 -1.6023  0.2937  2.5722
  278MOL0     H37470  10.258  10.275   3.401  0.3488 -1.4673 -2.1989
  278MOL0     H37471  10.478  10.140   3.498 -0.3723 -0.1490  0.5584
  278MOL0     H37472  10.380  10.002   3.449  2.1340 -0.1002 -0.4419
  278MOL0     H37473  10.369  10.096   3.208  0.7258  0.9344 -1.3731
  278MOL0     H37474  10.449  10.237   3.261 -6.2135  1.8776  3.4744
  278MOL0     H37475  10.651  10.133   3.283 -0.6092  0.4355 -0.4220
  278MOL0     H37476  10.580   9.967   3.303  1.3315 -1.4628 -3.4174
  278MOL0     H37477  10.594  10.121   3.032 -1.5194 -1.3942 -0.3701
  278MOL0     H37478  10.691   9.991   3.084  0.9104  1.7090 -0.8304
  278MOL0     H37479  10.480   9.913   2.935  1.1852 -0.6175 -0.9793
  278MOL0     H37480  10.381   9.939   3.083  0.2034 -1.6282 -0.9307
  278MOL0     H37481  10.424   9.770   3.280 -1.8409 -2.2191 -1.7146
  278MOL0     H37482  10.709   9.606   3.407  0.9488  1.0085 -1.9640
  278MOL0     H37483  10.534   9.594   3.416  1.2327  1.8962  1.2226
  278MOL0     H37484  10.724   9.380   3.322 -0.2835 -0.5300  0.8021
  278MOL0     H37485  10.562   9.377   3.265  0.2013 -2.6051  0.7352
  278MOL0     H37486  10.448   9.367   3.460  0.1484  0.6758  0.6725
  278MOL0     H37487  10.585   9.389   3.560 -0.1318 -1.4523  0.0633
  278MOL0     H37488  10.584   9.167   3.352 -0.4358  2.3346  0.4897
  278MOL0     H37489  10.529   9.138   3.522 -1.7770 -0.7194 -0.7448
  278MOL0     H37490  10.625   8.931   3.518 -0.0150 -1.4027 -0.3887
  278MOL0     H37491  10.727   8.651   3.373  0.5733 -1.0278  0.4697
  278MOL0     H37492  10.786   8.621   3.538 -0.9677  0.4648  1.2369
  278MOL0     H37493  10.634   8.695   3.527 -0.4248  0.7739 -1.6331
  278MOL0     H37494  11.289   8.656   3.633  2.0297 -0.2284 -0.1408
  278MOL0     H37495  11.446   8.472   3.643 -1.8665 -0.1910  0.1504
  278MOL0     H37496  11.695   8.349   3.539 -0.8643  1.1708 -2.6065
  278MOL0     H37497  11.580   8.241   3.614  0.6700 -1.6699 -0.4875
  278MOL0     H37498  11.696   8.168   3.354 -4.0611  1.0876 -1.4263
  278MOL0     H37499  11.784   8.143   3.514 -0.0380 -2.2438 -1.1480
  278MOL0     H37500  11.506   8.033   3.465 -1.0089 -0.6303  2.3403
  278MOL0     H37501  11.587   8.029   3.615 -0.7846 -1.7618 -0.1774
  278MOL0     H37502  11.720   7.922   3.372 -0.3203  1.3850  0.2278
  278MOL0     H37503  11.763   7.899   3.545 -0.5982  2.1423  0.9139
  278MOL0     H37504  11.521   7.801   3.393  0.6904  2.0045 -1.4292
  278MOL0     H37505  11.536   7.785   3.573 -0.3016  1.1401 -0.6430
  278MOL0     H37506  11.723   7.660   3.361  0.1796 -0.2839  0.4914
  278MOL0     H37507  11.724   7.643   3.534 -1.4413  1.4225  0.6329
  278MOL0     H37508  11.548   7.505   3.335  3.2291  0.6175 -0.1091
  278MOL0     H37509  11.458   7.561   3.474 -0.8273 -0.1125 -1.3389
  278MOL0     H37510  11.611   7.450   3.631  1.4949  0.0089 -0.3497
  278MOL0     H37511  11.703   7.390   3.497 -1.7438 -3.4127 -1.1287
  278MOL0     H37512  11.385   8.402   3.218 -1.5281 -1.3988  0.7881
  278MOL0     H37513  11.223   8.579   3.227  0.6158  0.4111 -0.3225
  278MOL0     H37514  11.108   8.978   3.403 -1.4863  1.2564 -0.3607
  278MOL0     H37515  10.977   9.171   3.434 -1.0269  0.3040  4.0633
  278MOL0     H37516  10.143  10.687   3.723 -1.4659  0.7884  1.9725
  278MOL0     H37517   9.979  10.836   3.753  1.1336  0.0765 -2.1800
  278MOL0     H37518   9.438  10.801   3.796 -0.1841 -0.9439  1.2559
  278MOL0     H37519   9.236  10.913   3.857 -1.7008  3.7789 -0.5799
  278MOL0     H37520   9.091  11.123   3.774  1.3522 -0.5205 -0.5469
  278MOL0     H37521   9.054  11.027   3.912  1.2445  0.3088  0.5631
  278MOL0     H37522   8.869  11.187   3.904  1.0444 -2.9721 -1.4854
  278MOL0     H37523   8.982  11.314   3.876 -1.9153  0.5296  0.0179
  278MOL0     H37524   9.072  11.298   4.106 -0.2106 -0.4334 -0.3253
  278MOL0     H37525   9.001  11.150   4.135 -0.5577  1.3472  2.4937
  278MOL0     H37526   8.841  11.409   4.086 -2.4964 -0.3310 -0.1124
  278MOL0     H37527   8.875  11.334   4.249  1.6852 -2.7523  0.5693
  278MOL0     H37528   8.571  11.087   4.115  0.7733 -2.5188  0.4264
  278MOL0     H37529   9.431  11.274   3.918  0.2312 -1.9641  3.0208
  278MOL0     H37530   9.654  11.178   3.860 -1.5146  1.0102  1.1442
  279MOL0     O37531  10.357  10.205  10.522 -0.0193  0.3748  0.1033
  279MOL0     C37532  10.454  10.146  10.574  0.6021 -0.1714  0.1311
  279MOL0     O37533  10.452  10.017  10.606  0.2348  0.4071  0.4092
  279MOL0     C37534  10.340   9.939  10.570  1.0833 -0.6405 -0.6660
  279MOL0     C37535  10.372   9.807  10.532 -0.0656 -0.9010  0.6183
  279MOL0     C37536  10.278   9.708  10.519  0.0552 -0.7103  0.2741
  279MOL0     C37537  10.145   9.739  10.532  0.3449 -0.2738 -0.9129
  279MOL0     O37538  10.050   9.634  10.523 -0.2460 -0.5724 -0.0553
  279MOL0     C37539   9.914   9.656  10.551 -0.9218  1.0718 -0.0048
  279MOL0     C37540   9.845   9.523  10.573  0.1764 -0.4471 -0.4088
  279MOL0     C37541   9.815   9.456  10.434  0.4801 -0.4110 -0.2880
  279MOL0     C37542   9.762   9.311  10.455  0.7840 -0.4827 -0.1543
  279MOL0     C37543   9.735   9.237  10.322 -0.0417 -0.3213  0.1842
  279MOL0     C37544   9.704   9.090  10.350  0.4371 -0.3747 -0.6064
  279MOL0     C37545   9.671   9.016  10.220 -0.8552  0.8822 -0.5424
  279MOL0     C37546   9.564   9.068  10.133  0.2739 -0.4934  0.1153
  279MOL0     N37547   9.434   9.086  10.206  0.9532 -0.4060 -0.1401
  279MOL0     C37548   9.360   8.973  10.234 -0.0607  1.1283 -0.4889
  279MOL0     C37549   9.258   9.018  10.313  0.1723  0.8728 -0.1516
  279MOL0     C37550   9.164   8.925  10.379  0.4027  0.1959  0.0152
  279MOL0     C37551   9.024   8.970  10.369 -0.4670  0.0800 -0.7355
  279MOL0     C37552   8.963   8.935  10.235  0.1105 -0.2193 -0.0521
  279MOL0     C37553   8.810   8.951  10.249 -0.9469 -0.5547 -0.0655
  279MOL0     O37554   8.750   8.852  10.344 -0.0392 -0.2220  0.7987
  279MOL0     C37555   8.609   8.859  10.348 -1.0831  0.8686 -0.0803
  279MOL0     C37556   8.539   8.973  10.319  0.1468 -0.2229 -0.4065
  279MOL0     C37557   8.397   8.977  10.343  0.1237  0.3068  0.0223
  279MOL0     C37558   8.331   9.110  10.329  0.2023 -0.3915  0.5137
  279MOL0     C37559   8.330   8.857  10.369  0.4206  0.0732 -0.8060
  279MOL0     C37560   8.171   8.844  10.384 -0.1356 -0.7040 -0.3233
  279MOL0     O37561   8.124   8.722  10.415  0.4347 -0.4620 -0.1061
  279MOL0     C37562   7.991   8.702  10.435  0.6573  0.5665 -0.7254
  279MOL0     C37563   7.939   8.692  10.569 -0.0360  0.2729  0.2949
  279MOL0     C37564   7.801   8.676  10.591 -0.5966  0.4595  0.1546
  279MOL0     C37565   7.706   8.689  10.482  0.4059  0.6993 -0.1178
  279MOL0     O37566   7.570   8.691  10.505  0.0940  0.0204 -0.0030
  279MOL0     C37567   7.478   8.758  10.417 -0.8709 -0.6902  0.3154
  279MOL0     C37568   7.402   8.658  10.332  0.0189 -0.6375 -0.2855
  279MOL0     C37569   7.283   8.710  10.256 -0.8092  0.0563 -0.1909
  279MOL0     C37570   7.168   8.764  10.333  0.2630 -0.1460  0.0437
  279MOL0     C37571   7.069   8.834  10.235 -0.2523  0.5139 -0.2551
  279MOL0     C37572   6.942   8.883  10.304  0.2918 -0.6636  0.8419
  279MOL0     C37573   6.830   8.878  10.201 -0.8081 -0.6226 -0.0444
  279MOL0     C37574   6.862   8.976  10.085  0.4234 -0.0259 -0.5433
  279MOL0    Cl37575   6.709   9.036  10.012 -0.1703  0.2313  0.5320
  279MOL0     C37576   7.758   8.687  10.356  0.1814 -0.4403  0.5910
  279MOL0     C37577   7.896   8.703  10.326 -0.5689 -0.2428  0.6825
  279MOL0     O37578   8.098   8.945  10.378  0.0084  0.4177 -0.7124
  279MOL0     C37579   8.407   8.743  10.394  0.2309 -0.4408  0.6420
  279MOL0     C37580   8.546   8.744  10.399  0.6504  0.4672  0.1996
  279MOL0     N37581   9.274   9.154  10.328 -0.1239  0.0778  0.8748
  279MOL0     N37582   9.385   9.191  10.279 -0.3943 -0.1745  0.7148
  279MOL0     C37583  10.112   9.878  10.556  0.5813  0.8673  0.5793
  279MOL0     C37584  10.208   9.972  10.588 -0.6426 -0.0281 -0.6131
  279MOL0     C37585  10.565  10.226  10.631  1.0741 -0.1544 -0.1789
  279MOL0     C37586  10.641  10.185  10.744 -0.5737 -0.8011  0.0851
  279MOL0     C37587  10.748  10.260  10.793  0.6125 -0.0888 -0.4540
  279MOL0     C37588  10.769  10.395  10.741  0.4245  0.1169 -0.4512
  279MOL0     O37589  10.877  10.469  10.791  0.2235  0.0445 -0.2346
  279MOL0     C37590  10.896  10.606  10.753  0.3717 -0.8204  0.2148
  279MOL0     C37591  11.029  10.660  10.816  0.8646  0.1238 -0.9031
  279MOL0     C37592  11.158  10.590  10.767 -0.3580  0.3981  0.4851
  279MOL0     C37593  11.287  10.661  10.825 -0.1159 -0.1104 -0.1779
  279MOL0     C37594  11.332  10.786  10.761 -0.7671  0.5423 -0.0827
  279MOL0     C37595  11.359  10.895  10.712  0.2120 -0.1783 -0.3356
  279MOL0     C37596  10.693  10.432  10.628  0.1560 -0.1836  0.2231
  279MOL0     C37597  10.589  10.356  10.571  0.0735  0.2844 -0.0995
  279MOL0     H37598  10.475   9.797  10.501 -0.4151 -1.2392 -0.4872
  279MOL0     H37599  10.295   9.607  10.485 -0.8422 -0.7604 -0.0668
  279MOL0     H37600   9.905   9.724  10.637  3.1102  3.3499 -1.1386
  279MOL0     H37601   9.863   9.706  10.468  1.4603 -0.6682 -2.7068
  279MOL0     H37602   9.896   9.466  10.650 -2.4022  1.5904  3.0986
  279MOL0     H37603   9.744   9.550  10.603 -0.3361 -1.1964 -1.3845
  279MOL0     H37604   9.751   9.514  10.367 -0.7157 -0.7870  0.4893
  279MOL0     H37605   9.912   9.450  10.384 -0.7786 -0.6525 -2.8386
  279MOL0     H37606   9.841   9.252  10.501  1.8466  1.0031  0.0324
  279MOL0     H37607   9.676   9.307  10.522 -0.3253  0.0500 -1.4923
  279MOL0     H37608   9.652   9.291  10.275  0.4433 -0.7841 -1.2370
  279MOL0     H37609   9.820   9.250  10.255 -1.0412  0.5281 -0.9773
  279MOL0     H37610   9.784   9.031  10.395 -0.0681 -0.7705 -0.2083
  279MOL0     H37611   9.615   9.088  10.413 -3.0992  2.5337 -4.8413
  279MOL0     H37612   9.766   9.003  10.167 -0.5111  1.2982 -0.0433
  279MOL0     H37613   9.641   8.914  10.244 -2.6019  1.1637 -1.3648
  279MOL0     H37614   9.556   9.008  10.042  1.1273  1.4075 -1.2779
  279MOL0     H37615   9.597   9.165  10.097 -2.6831  1.1444  1.4138
  279MOL0     H37616   9.376   8.870  10.202 -1.2005  0.7961 -0.0498
  279MOL0     H37617   9.175   8.827  10.333  0.3866 -1.2670  2.9256
  279MOL0     H37618   9.181   8.914  10.487  2.0232 -0.0973 -0.2440
  279MOL0     H37619   9.015   9.077  10.390 -1.0571 -0.2805  1.0192
  279MOL0     H37620   8.963   8.927  10.449 -0.9615  2.6712  0.3872
  279MOL0     H37621   8.974   8.829  10.211  1.2086 -0.5491  1.6951
  279MOL0     H37622   9.006   9.000  10.158  0.0642 -0.0684  0.0460
  279MOL0     H37623   8.772   8.948  10.147 -0.8276  2.2404 -0.2433
  279MOL0     H37624   8.799   9.054  10.282  3.0630  1.3097 -3.6534
  279MOL0     H37625   8.602   9.058  10.294  1.5990 -1.8763 -2.8491
  279MOL0     H37626   8.398   9.197  10.321 -0.9409  0.3311 -2.8964
  279MOL0     H37627   8.265   9.113  10.242  1.0223  0.6782 -0.0955
  279MOL0     H37628   8.270   9.128  10.418 -0.8892 -0.1636 -0.2542
  279MOL0     H37629   7.998   8.707  10.659  0.0898 -0.4083  0.3339
  279MOL0     H37630   7.768   8.672  10.695  1.7572  4.2082  1.2423
  279MOL0     H37631   7.412   8.825  10.473  0.0536  2.6424 -2.2823
  279MOL0     H37632   7.542   8.818  10.352 -0.8996 -1.6059 -0.5835
  279MOL0     H37633   7.475   8.617  10.261  0.5021 -1.8031  0.8586
  279MOL0     H37634   7.369   8.577  10.397 -0.1646 -0.8015 -0.5784
  279MOL0     H37635   7.251   8.627  10.192 -0.4900  0.7247 -1.2359
  279MOL0     H37636   7.327   8.786  10.192 -1.8365  1.9058  1.2108
  279MOL0     H37637   7.103   8.688  10.376  0.9967 -0.2038  1.0702
  279MOL0     H37638   7.201   8.835  10.410  0.0400  0.1587 -0.1372
  279MOL0     H37639   7.055   8.765  10.152  2.3690  1.7618 -1.8665
  279MOL0     H37640   7.114   8.924  10.192  2.1489 -1.0823 -1.3165
  279MOL0     H37641   6.914   8.811  10.382 -3.0694  3.2692  3.7171
  279MOL0     H37642   6.960   8.983  10.345  1.1346 -0.2937 -0.3512
  279MOL0     H37643   6.732   8.906  10.241 -0.1063  2.3885 -0.1755
  279MOL0     H37644   6.831   8.773  10.170  0.1146 -0.4865 -0.5086
  279MOL0     H37645   6.926   8.923  10.014 -0.5927 -0.9048 -0.8418
  279MOL0     H37646   6.918   9.062  10.122  0.0567  0.3556 -0.8621
  279MOL0     H37647   7.704   8.684  10.262 -0.1235 -0.5313  0.7674
  279MOL0     H37648   7.927   8.709  10.222  0.6867  0.1362  1.0594
  279MOL0     H37649   8.369   8.646  10.423  2.5336 -0.7498  2.9935
  279MOL0     H37650   8.613   8.674  10.446 -0.9506 -0.8888  0.5430
  279MOL0     H37651  10.008   9.909  10.557  0.5509  0.8679 -0.9123
  279MOL0     H37652  10.181  10.072  10.621 -0.9242  0.2650 -1.6570
  279MOL0     H37653  10.611  10.089  10.786 -1.1339 -1.0475 -0.8590
  279MOL0     H37654  10.809  10.217  10.872 -0.0675 -0.9889 -0.4081
  279MOL0     H37655  10.898  10.621  10.644 -0.9249  0.9136  0.3894
  279MOL0     H37656  10.812  10.673  10.774  0.8157 -0.1579 -0.0863
  279MOL0     H37657  11.016  10.674  10.924 -0.1807  1.6812 -1.2081
  279MOL0     H37658  11.028  10.763  10.779 -1.5389  1.0476  1.3835
  279MOL0     H37659  11.157  10.580  10.658 -0.0480  0.9304  0.4316
  279MOL0     H37660  11.168  10.492  10.814 -1.0801  0.1480  0.1374
  279MOL0     H37661  11.367  10.586  10.825 -1.9747 -2.3346  2.5994
  279MOL0     H37662  11.273  10.685  10.931  1.4568 -0.3193  0.0937
  279MOL0     H37663  11.377  10.992  10.669 -2.2374  2.1301  3.3152
  279MOL0     H37664  10.717  10.526  10.581 -2.0755  0.8720  1.0191
  279MOL0     H37665  10.527  10.387  10.487 -0.3206 -1.9428 -0.6882
  280MOL0     O37666   3.622   5.876   7.637  0.4204 -0.5251  0.1567
  280MOL0     C37667   3.678   5.857   7.742 -0.6211 -0.3551 -0.2659
  280MOL0     O37668   3.621   5.843   7.871 -0.7192  0.0052  0.4727
  280MOL0     C37669   3.484   5.845   7.892 -0.6921  0.1789 -0.0843
  280MOL0     C37670   3.385   5.832   7.800  0.9554  0.4100 -0.2528
  280MOL0     C37671   3.252   5.856   7.845  0.4168  0.3534 -0.1587
  280MOL0     C37672   3.231   5.872   7.979 -0.6972  0.4284 -0.4785
  280MOL0     O37673   3.098   5.882   8.014  0.2095  0.6512  0.0844
  280MOL0     C37674   3.065   5.977   8.124 -0.7855  0.2143  0.6053
  280MOL0     C37675   2.913   5.990   8.133 -0.1607 -0.4453  0.0785
  280MOL0     C37676   2.874   6.107   8.232  0.6402 -0.0784  0.3544
  280MOL0     C37677   2.884   6.238   8.149 -0.9654  0.3230  0.0953
  280MOL0     C37678   2.864   6.349   8.257  0.6260 -0.1619 -0.1817
  280MOL0     C37679   2.726   6.350   8.327 -0.2669 -0.2640 -0.6855
  280MOL0     C37680   2.685   6.489   8.396 -0.6675  0.3630 -0.3176
  280MOL0     C37681   2.627   6.589   8.297 -0.2538  0.4653 -0.3900
  280MOL0     N37682   2.595   6.717   8.363  0.2399 -0.0749  0.5799
  280MOL0     C37683   2.504   6.805   8.302  0.4074 -0.3653 -0.8282
  280MOL0     C37684   2.491   6.899   8.396 -1.0125 -0.7066 -0.2104
  280MOL0     C37685   2.392   7.009   8.400 -0.2181 -0.2755 -0.9504
  280MOL0     C37686   2.392   7.082   8.269  0.0706 -0.4457 -0.6222
  280MOL0     C37687   2.330   7.219   8.259 -0.2182 -0.1167 -0.1744
  280MOL0     C37688   2.346   7.299   8.127 -0.1523  0.5244 -0.1812
  280MOL0     O37689   2.293   7.431   8.140 -0.6824  0.1558  0.4653
  280MOL0     C37690   2.302   7.525   8.031  0.1096  0.1734  0.5963
  280MOL0     C37691   2.247   7.648   8.060  0.6233 -0.2392  0.2619
  280MOL0     C37692   2.247   7.756   7.971 -0.3186  0.9732  1.0225
  280MOL0     C37693   2.174   7.880   8.003 -0.4645  0.6954 -0.0612
  280MOL0     C37694   2.304   7.733   7.843  0.0475  1.0945  0.2838
  280MOL0     C37695   2.297   7.828   7.731  0.5054 -0.3254 -0.2806
  280MOL0     O37696   2.290   7.768   7.610  0.7948  0.2709 -0.2179
  280MOL0     C37697   2.312   7.825   7.487  0.2978 -0.1050  0.0230
  280MOL0     C37698   2.271   7.739   7.384 -0.0854  0.0444  0.6460
  280MOL0     C37699   2.268   7.777   7.252 -0.7788 -0.0361 -0.1578
  280MOL0     C37700   2.314   7.912   7.223 -0.3409  0.0837  0.1882
  280MOL0     O37701   2.332   7.967   7.094 -0.3629  0.1262  0.5675
  280MOL0     C37702   2.325   7.885   6.972  0.3205  0.0032 -1.6173
  280MOL0     C37703   2.464   7.843   6.942  0.5977 -0.2145 -0.6626
  280MOL0     C37704   2.550   7.959   6.900  0.1683 -0.1757  0.4194
  280MOL0     C37705   2.687   7.898   6.867 -0.2203  0.3178  0.0585
  280MOL0     C37706   2.796   8.009   6.835  1.1798  0.1368  0.5005
  280MOL0     C37707   2.931   7.947   6.794  0.2830 -0.5886 -0.6487
  280MOL0     C37708   3.000   7.860   6.904 -0.0407  0.5942 -0.0609
  280MOL0     C37709   3.130   7.803   6.857 -0.3689  0.1076 -0.8656
  280MOL0    Cl37710   3.208   7.693   6.978 -0.0688 -0.4115 -0.1049
  280MOL0     C37711   2.355   7.993   7.331  0.5035 -0.0410  0.5853
  280MOL0     C37712   2.349   7.958   7.463  0.2926  0.8285 -0.9756
  280MOL0     O37713   2.283   7.949   7.752  0.4711  0.9152  0.1035
  280MOL0     C37714   2.375   7.614   7.820  0.1151  0.2855  0.1202
  280MOL0     C37715   2.365   7.501   7.906 -0.3184 -0.1266 -0.7423
  280MOL0     N37716   2.568   6.871   8.502 -0.2476 -0.0781  0.0656
  280MOL0     N37717   2.631   6.756   8.484 -0.0362 -0.0007  0.3551
  280MOL0     C37718   3.326   5.872   8.077 -0.3064  0.3348  0.4071
  280MOL0     C37719   3.457   5.869   8.026 -0.4837  0.5043  0.8462
  280MOL0     C37720   3.821   5.825   7.735 -0.0888 -0.3132 -0.1487
  280MOL0     C37721   3.888   5.781   7.853 -0.2051 -0.4244  0.1219
  280MOL0     C37722   4.023   5.751   7.856  0.5058 -0.0292  0.3783
  280MOL0     C37723   4.095   5.750   7.730 -0.2791 -1.0996 -0.1861
  280MOL0     O37724   4.227   5.711   7.743 -0.1272 -0.3030  0.1866
  280MOL0     C37725   4.322   5.713   7.637 -0.0679  0.2095  0.8310
  280MOL0     C37726   4.358   5.851   7.585 -1.0146 -0.9375  0.1494
  280MOL0     C37727   4.464   5.920   7.682 -0.1261  0.6569  0.0443
  280MOL0     C37728   4.521   6.052   7.632 -0.5710 -0.2656  0.3601
  280MOL0     C37729   4.417   6.156   7.656 -0.0697  0.6531  0.0212
  280MOL0     C37730   4.346   6.249   7.682 -0.5305 -0.6250 -0.7689
  280MOL0     C37731   4.021   5.776   7.603 -1.5068  0.2251 -0.1362
  280MOL0     C37732   3.888   5.821   7.608  0.0610  0.7376 -0.8802
  280MOL0     H37733   3.399   5.824   7.692  1.4628 -0.1184 -0.1529
  280MOL0     H37734   3.169   5.851   7.776  1.7352 -0.8760 -1.7225
  280MOL0     H37735   3.107   5.933   8.215  2.0408  0.0598 -0.6663
  280MOL0     H37736   3.109   6.077   8.114 -0.5501  0.3002  2.2409
  280MOL0     H37737   2.871   6.013   8.035  0.8891  0.3063 -0.2114
  280MOL0     H37738   2.874   5.892   8.163 -2.0583  0.6190  1.2405
  280MOL0     H37739   2.771   6.094   8.267  0.3185  1.3103 -0.0421
  280MOL0     H37740   2.952   6.109   8.308 -0.2383 -3.5467  1.5492
  280MOL0     H37741   2.985   6.253   8.110 -1.4359  2.5241 -0.3706
  280MOL0     H37742   2.808   6.230   8.071  0.2722 -0.8816 -1.0453
  280MOL0     H37743   2.944   6.349   8.331  0.9121 -0.0071 -0.4898
  280MOL0     H37744   2.888   6.444   8.207  3.7225  0.8887  2.9405
  280MOL0     H37745   2.656   6.320   8.248 -1.5706  0.9502 -0.0386
  280MOL0     H37746   2.729   6.281   8.412  0.0252  2.1743  1.3751
  280MOL0     H37747   2.609   6.463   8.469 -0.8328 -0.0684 -0.6383
  280MOL0     H37748   2.774   6.522   8.450 -1.8114 -0.0581  1.9435
  280MOL0     H37749   2.537   6.537   8.264  0.1856 -0.2436 -0.4914
  280MOL0     H37750   2.689   6.604   8.208 -2.5380  1.7412 -1.8399
  280MOL0     H37751   2.455   6.803   8.205  0.7234 -0.9925 -0.9786
  280MOL0     H37752   2.287   6.986   8.420 -0.9789  2.5965 -1.0892
  280MOL0     H37753   2.415   7.082   8.479 -0.0557 -0.9324 -0.3872
  280MOL0     H37754   2.348   7.021   8.190 -1.5144  1.1461 -1.0338
  280MOL0     H37755   2.496   7.096   8.241  0.1749 -0.2483 -0.1471
  280MOL0     H37756   2.366   7.279   8.343  2.3654  0.5000 -1.6177
  280MOL0     H37757   2.224   7.200   8.278 -0.8055  0.3305 -2.6103
  280MOL0     H37758   2.288   7.244   8.053  1.6565 -0.1925 -1.1403
  280MOL0     H37759   2.448   7.312   8.089 -1.1498  1.6796 -2.6641
  280MOL0     H37760   2.208   7.661   8.160 -1.3471  0.1945 -0.5158
  280MOL0     H37761   2.094   7.882   7.927  0.6000 -2.5424 -1.4495
  280MOL0     H37762   2.130   7.883   8.103 -2.2595 -1.3220 -0.7046
  280MOL0     H37763   2.238   7.967   7.991  0.3569  0.0939 -0.0807
  280MOL0     H37764   2.250   7.639   7.422  3.2259 -1.5186 -1.1693
  280MOL0     H37765   2.232   7.708   7.177 -1.1478 -0.4613  0.4069
  280MOL0     H37766   2.257   7.801   6.985 -0.5497  0.6958 -1.5823
  280MOL0     H37767   2.278   7.938   6.889 -2.0106 -0.5479 -0.7217
  280MOL0     H37768   2.513   7.788   7.023  0.3429 -0.4849 -0.6897
  280MOL0     H37769   2.458   7.769   6.861 -1.7296 -2.9061  1.7561
  280MOL0     H37770   2.566   8.038   6.975  0.5563  1.0420 -0.9098
  280MOL0     H37771   2.522   8.016   6.811  1.0362  0.0714  0.2909
  280MOL0     H37772   2.716   7.838   6.954 -3.0641 -1.5949 -0.1625
  280MOL0     H37773   2.670   7.838   6.777 -2.1599  2.1612 -0.8853
  280MOL0     H37774   2.807   8.067   6.927 -0.8733  0.5745  0.5205
  280MOL0     H37775   2.770   8.061   6.743 -3.2556  0.8048  1.8988
  280MOL0     H37776   2.902   7.873   6.719 -1.1458 -0.2468 -0.4558
  280MOL0     H37777   3.004   8.019   6.755  0.3061 -0.4872 -0.4240
  280MOL0     H37778   2.940   7.776   6.938  0.4231  0.9033  1.6558
  280MOL0     H37779   3.015   7.920   6.995 -2.4657  2.1853 -0.6150
  280MOL0     H37780   3.196   7.889   6.846 -1.0544  0.7269 -0.2602
  280MOL0     H37781   3.127   7.744   6.765 -1.4778 -3.1488  1.0732
  280MOL0     H37782   2.393   8.094   7.315  1.9990 -0.6756 -0.0849
  280MOL0     H37783   2.375   8.021   7.547 -1.3393  0.0640  0.1573
  280MOL0     H37784   2.422   7.601   7.723  0.7407 -1.7979  0.6503
  280MOL0     H37785   2.419   7.407   7.894 -1.5882 -0.8649 -0.8346
  280MOL0     H37786   3.304   5.873   8.184  2.2445  2.2324  1.0221
  280MOL0     H37787   3.538   5.859   8.097  0.7853  0.3507 -0.5843
  280MOL0     H37788   3.840   5.774   7.950  0.1962  1.8275  0.5326
  280MOL0     H37789   4.076   5.714   7.944  1.3722  1.4152  0.4972
  280MOL0     H37790   4.418   5.663   7.651  1.4950  2.3763 -1.3377
  280MOL0     H37791   4.274   5.673   7.547 -0.3176 -1.0135  1.4882
  280MOL0     H37792   4.266   5.908   7.572 -1.5558 -1.8417 -0.0152
  280MOL0     H37793   4.391   5.835   7.482  0.4869  0.0870  0.4371
  280MOL0     H37794   4.550   5.858   7.707  0.9635  1.4394 -1.5625
  280MOL0     H37795   4.409   5.941   7.774 -1.0043 -2.5103  0.3433
  280MOL0     H37796   4.559   6.053   7.530  1.5957 -0.9428  1.1023
  280MOL0     H37797   4.617   6.072   7.682  0.5079  0.0485 -1.7195
  280MOL0     H37798   4.300   6.344   7.695  1.4523  0.5150 -1.5860
  280MOL0     H37799   4.074   5.772   7.508  0.7991 -0.0311  1.0915
  280MOL0     H37800   3.827   5.837   7.521  0.3289 -1.0828 -1.4452
  281MOL0     O37801   9.030   9.047   8.536  0.7141  0.0817 -0.3787
  281MOL0     C37802   8.997   9.147   8.592  0.5067 -0.4075  0.0455
  281MOL0     O37803   8.870   9.181   8.624 -0.9214 -0.2942  0.3151
  281MOL0     C37804   8.766   9.098   8.585  0.4628 -0.3089  0.0738
  281MOL0     C37805   8.684   9.141   8.485  0.6571 -0.3281 -0.1915
  281MOL0     C37806   8.572   9.065   8.448  0.3802  0.0872 -0.1653
  281MOL0     C37807   8.541   8.936   8.501 -1.1062 -0.6375  0.2551
  281MOL0     O37808   8.444   8.858   8.439 -0.0433  0.0258  0.6654
  281MOL0     C37809   8.480   8.716   8.447  0.3020 -1.3122 -0.0429
  281MOL0     C37810   8.404   8.635   8.356  0.1658  0.6238  0.3487
  281MOL0     C37811   8.252   8.632   8.372 -0.5220 -0.4164 -1.2211
  281MOL0     C37812   8.173   8.545   8.275  0.4638  0.0776  0.1453
  281MOL0     C37813   8.097   8.618   8.168  0.0772  0.0381  0.6634
  281MOL0     C37814   7.964   8.676   8.222  0.0380 -0.0676  0.6409
  281MOL0     C37815   7.846   8.644   8.127 -0.7067  0.5194 -0.3366
  281MOL0     C37816   7.801   8.498   8.141 -0.5012 -0.0236  0.7289
  281MOL0     N37817   7.691   8.477   8.045 -1.1662  0.6148  0.5393
  281MOL0     C37818   7.567   8.448   8.081 -1.1525  0.2281  0.3007
  281MOL0     C37819   7.498   8.458   7.967 -0.0322  0.1517  0.0319
  281MOL0     C37820   7.343   8.463   7.971  0.2303  0.5762 -0.0811
  281MOL0     C37821   7.284   8.603   7.998 -0.2630  0.8965  0.4296
  281MOL0     C37822   7.143   8.594   8.058  0.7136 -0.2965  0.5819
  281MOL0     C37823   7.031   8.600   7.941  0.3445 -0.2021 -0.5030
  281MOL0     O37824   7.032   8.481   7.866  0.2236 -0.1452 -0.0426
  281MOL0     C37825   6.923   8.408   7.882  0.0587 -0.4254 -0.7378
  281MOL0     C37826   6.923   8.281   7.937 -0.1243  0.9204 -0.4369
  281MOL0     C37827   6.800   8.205   7.940 -0.7687 -0.6044 -0.3999
  281MOL0     C37828   6.804   8.058   7.973 -0.3634 -0.3200  0.0107
  281MOL0     C37829   6.684   8.260   7.892 -0.0094  0.4203 -0.6366
  281MOL0     C37830   6.550   8.201   7.893 -0.0630 -0.6007  0.4522
  281MOL0     O37831   6.455   8.235   7.791  0.1672  0.1419 -0.1907
  281MOL0     C37832   6.322   8.202   7.823 -0.8230 -0.7652 -0.1910
  281MOL0     C37833   6.267   8.081   7.780 -0.2553 -0.2143 -0.9070
  281MOL0     C37834   6.142   8.045   7.830 -0.1291 -0.4235  0.0051
  281MOL0     C37835   6.070   8.134   7.914 -0.0072 -0.1271 -0.2906
  281MOL0     O37836   5.944   8.098   7.954  0.3655  0.1537  0.4539
  281MOL0     C37837   5.835   8.094   7.857 -0.2687  0.2428 -0.0564
  281MOL0     C37838   5.727   7.990   7.888  0.1966 -0.3429 -0.5803
  281MOL0     C37839   5.660   8.024   8.020  0.4149  0.2018  0.1021
  281MOL0     C37840   5.528   8.094   7.999 -0.3026 -0.3261  0.0002
  281MOL0     C37841   5.470   8.122   8.129  0.1675  0.4064 -0.3483
  281MOL0     C37842   5.334   8.192   8.109 -0.5154 -0.0709 -0.1373
  281MOL0     C37843   5.274   8.199   8.247 -0.2317 -0.1460 -0.2173
  281MOL0     C37844   5.167   8.310   8.244  0.1215 -0.2313 -0.6557
  281MOL0    Cl37845   5.066   8.293   8.391 -0.2760  0.3051  0.1356
  281MOL0     C37846   6.127   8.259   7.945  0.6943 -0.0636 -0.0054
  281MOL0     C37847   6.251   8.298   7.897 -0.7146 -0.1385 -0.5963
  281MOL0     O37848   6.521   8.134   7.987  0.0354  0.0967  0.7307
  281MOL0     C37849   6.692   8.388   7.836 -0.0162  0.0862  0.3241
  281MOL0     C37850   6.804   8.462   7.834 -0.1957 -0.1433 -0.4340
  281MOL0     N37851   7.584   8.495   7.862  0.0250  0.5687  0.0881
  281MOL0     N37852   7.697   8.506   7.913 -0.1483 -0.1347  0.4022
  281MOL0     C37853   8.639   8.890   8.592 -0.1875 -0.1220 -0.3659
  281MOL0     C37854   8.753   8.967   8.632  0.1984 -0.7819  0.7779
  281MOL0     C37855   9.107   9.231   8.633  0.0066 -1.0629  0.4696
  281MOL0     C37856   9.077   9.343   8.718  0.5715 -0.1293  0.7516
  281MOL0     C37857   9.180   9.430   8.758 -0.3406 -0.2564  0.4127
  281MOL0     C37858   9.309   9.414   8.707  0.0495  0.4742  0.7666
  281MOL0     O37859   9.402   9.510   8.741 -0.1786 -0.1213 -0.1032
  281MOL0     C37860   9.527   9.518   8.674 -0.1634  0.6677  0.9655
  281MOL0     C37861   9.509   9.604   8.550  0.0011  0.2191  0.0628
  281MOL0     C37862   9.637   9.588   8.455 -0.0061 -0.3813 -0.4759
  281MOL0     C37863   9.660   9.713   8.368  0.9050  0.8830 -0.1686
  281MOL0     C37864   9.578   9.700   8.251 -0.4561  0.3478 -0.4234
  281MOL0     C37865   9.505   9.682   8.160 -0.4080  0.3724  0.2577
  281MOL0     C37866   9.342   9.298   8.630  0.3940 -0.1375 -0.2182
  281MOL0     C37867   9.241   9.205   8.601 -0.5243  0.0995  0.6827
  281MOL0     H37868   8.709   9.238   8.445  2.2624 -0.1037  1.2316
  281MOL0     H37869   8.495   9.100   8.380  0.2776  3.0215  1.3014
  281MOL0     H37870   8.585   8.705   8.420 -0.2920 -0.8022 -2.8015
  281MOL0     H37871   8.453   8.679   8.547 -5.8517 -1.3429 -1.3374
  281MOL0     H37872   8.427   8.663   8.252  0.1549 -1.4655 -0.2615
  281MOL0     H37873   8.433   8.530   8.363 -0.3122  0.1653 -2.9107
  281MOL0     H37874   8.233   8.590   8.471  0.6126  1.3929 -0.1846
  281MOL0     H37875   8.219   8.736   8.366  0.1002 -0.2685 -2.1550
  281MOL0     H37876   8.252   8.496   8.218  0.9988  0.4714  0.5504
  281MOL0     H37877   8.110   8.474   8.330  1.6019  0.9428  2.7056
  281MOL0     H37878   8.151   8.699   8.118 -2.4774  0.0150 -2.3924
  281MOL0     H37879   8.077   8.544   8.089  0.4287 -1.7753  2.1917
  281MOL0     H37880   7.943   8.645   8.325  0.2270 -1.4414  0.2830
  281MOL0     H37881   7.986   8.783   8.214 -1.3305  0.2843  1.2602
  281MOL0     H37882   7.766   8.718   8.137  2.1520  3.8647 -0.6000
  281MOL0     H37883   7.879   8.660   8.025  0.1421  1.5372  0.0857
  281MOL0     H37884   7.777   8.472   8.245 -0.5898 -1.3776  0.3820
  281MOL0     H37885   7.895   8.447   8.117  1.7648  3.6559  1.0168
  281MOL0     H37886   7.529   8.429   8.181 -1.5250 -2.5198 -0.2642
  281MOL0     H37887   7.296   8.421   7.881  1.2486  0.6527 -0.6684
  281MOL0     H37888   7.302   8.405   8.054 -3.2855  0.4406 -1.7306
  281MOL0     H37889   7.286   8.652   7.900  0.7662 -0.1484 -0.0921
  281MOL0     H37890   7.354   8.657   8.062  1.5171 -1.9369  1.0077
  281MOL0     H37891   7.120   8.684   8.115 -2.0003 -0.7354  0.3067
  281MOL0     H37892   7.128   8.509   8.125 -0.5699  1.3066  2.4526
  281MOL0     H37893   7.049   8.678   7.866  1.9176 -0.2630 -0.2251
  281MOL0     H37894   6.935   8.627   7.986  1.2658  2.7661 -0.0874
  281MOL0     H37895   7.013   8.236   7.979 -0.4319  0.0246 -0.7165
  281MOL0     H37896   6.778   7.997   7.886  0.2632 -1.3175  0.5046
  281MOL0     H37897   6.908   8.030   7.992  0.8645  1.0858 -3.7343
  281MOL0     H37898   6.737   8.037   8.057 -2.8263  1.8124 -1.2758
  281MOL0     H37899   6.311   8.023   7.699  0.0628  1.4680 -1.9854
  281MOL0     H37900   6.098   7.950   7.802 -2.0692 -0.6439  3.2612
  281MOL0     H37901   5.779   8.187   7.865 -1.8703 -0.7295  0.6194
  281MOL0     H37902   5.867   8.077   7.754 -0.7485  0.2193 -0.2011
  281MOL0     H37903   5.653   7.980   7.808  0.8395 -1.5225 -1.0609
  281MOL0     H37904   5.778   7.893   7.890  1.3868  0.2826 -0.4768
  281MOL0     H37905   5.734   8.079   8.079  1.0157 -2.1052  1.6739
  281MOL0     H37906   5.652   7.926   8.070  4.6849 -0.1390  0.4905
  281MOL0     H37907   5.559   8.184   7.944 -1.0066  0.7232  1.2593
  281MOL0     H37908   5.464   8.038   7.930  1.2259  0.6030 -2.2890
  281MOL0     H37909   5.529   8.187   8.192  2.8132 -0.7556 -1.4807
  281MOL0     H37910   5.457   8.022   8.172  0.2391  0.6876  0.3364
  281MOL0     H37911   5.358   8.290   8.065  0.8222 -0.6967 -0.8703
  281MOL0     H37912   5.269   8.135   8.042 -2.9707  1.5419  0.7143
  281MOL0     H37913   5.344   8.204   8.332 -3.7661 -1.1512  3.0312
  281MOL0     H37914   5.228   8.101   8.261 -0.6288  0.1460  0.5539
  281MOL0     H37915   5.111   8.291   8.152  1.3355  0.4705 -1.5864
  281MOL0     H37916   5.198   8.415   8.238  0.1977 -0.0084  2.2308
  281MOL0     H37917   6.055   8.328   7.987  1.3291  0.5569  0.0812
  281MOL0     H37918   6.305   8.391   7.914 -1.3919  0.1379  0.1311
  281MOL0     H37919   6.607   8.424   7.780 -1.6839 -0.2854  2.4791
  281MOL0     H37920   6.798   8.563   7.795  0.7200  0.1302  0.1114
  281MOL0     H37921   8.642   8.789   8.630  0.7093  0.4506  1.1910
  281MOL0     H37922   8.820   8.939   8.712  0.7033 -1.1165  0.2444
  281MOL0     H37923   8.979   9.373   8.754  0.0756 -0.2503 -0.4293
  281MOL0     H37924   9.172   9.527   8.806  1.7585  0.2535 -0.1691
  281MOL0     H37925   9.610   9.560   8.731 -0.6528  3.9992 -0.5486
  281MOL0     H37926   9.561   9.419   8.641  1.0271  1.5681 -0.6767
  281MOL0     H37927   9.510   9.708   8.584  0.5836  1.3160 -2.9887
  281MOL0     H37928   9.417   9.588   8.492 -1.2498  1.2495  1.6900
  281MOL0     H37929   9.630   9.503   8.387  2.7282  0.3639 -1.8220
  281MOL0     H37930   9.732   9.564   8.504 -0.4674  1.2104  1.3285
  281MOL0     H37931   9.765   9.716   8.336  0.9796  2.7697  0.1237
  281MOL0     H37932   9.632   9.809   8.413 -0.7072  2.1967 -3.6401
  281MOL0     H37933   9.453   9.667   8.067  0.6389  1.0351 -0.4479
  281MOL0     H37934   9.445   9.278   8.601 -0.0245 -1.0242 -1.1760
  281MOL0     H37935   9.264   9.121   8.536 -0.1969  0.6078  0.1383
  282MOL0     O37936   4.477   3.508   1.474  0.1809 -0.0801  0.1310
  282MOL0     C37937   4.456   3.400   1.524  0.0632  0.1791 -0.5464
  282MOL0     O37938   4.380   3.375   1.630 -0.3162 -0.5440 -0.4517
  282MOL0     C37939   4.310   3.478   1.697  0.1422 -0.1971  0.4265
  282MOL0     C37940   4.259   3.442   1.831 -0.2158 -0.1106 -0.3306
  282MOL0     C37941   4.183   3.538   1.902 -0.0361 -0.2323  0.1187
  282MOL0     C37942   4.148   3.659   1.845  0.9891 -0.2142  0.1575
  282MOL0     O37943   4.077   3.750   1.919 -0.2717  0.2173  0.0583
  282MOL0     C37944   3.951   3.791   1.850  0.1069  0.1825 -0.0576
  282MOL0     C37945   3.826   3.744   1.926 -0.3917 -0.5868 -0.9190
  282MOL0     C37946   3.700   3.821   1.880  0.2569 -0.1405 -0.2397
  282MOL0     C37947   3.572   3.768   1.940  0.7546 -0.3693  0.2562
  282MOL0     C37948   3.449   3.859   1.936 -0.4853 -0.2756 -0.7429
  282MOL0     C37949   3.320   3.778   1.921 -0.2479  0.0053 -0.8452
  282MOL0     C37950   3.208   3.877   1.902 -0.3168  0.6636  1.0011
  282MOL0     C37951   3.083   3.782   1.890 -0.6117  0.0650  0.6380
  282MOL0     N37952   2.962   3.868   1.860 -0.3126 -0.2468  0.1634
  282MOL0     C37953   2.887   3.865   1.745  0.1621  0.5415 -0.2372
  282MOL0     C37954   2.789   3.953   1.764  0.0484  0.6914  0.5548
  282MOL0     C37955   2.675   3.985   1.666 -0.6237  0.8050 -0.3973
  282MOL0     C37956   2.557   3.878   1.674 -0.4261 -0.2689  0.4114
  282MOL0     C37957   2.488   3.881   1.812  0.4202 -0.0917 -0.8874
  282MOL0     C37958   2.377   3.778   1.819 -0.6029 -0.0511 -0.2750
  282MOL0     O37959   2.348   3.741   1.953 -0.3091  0.2100 -0.5434
  282MOL0     C37960   2.235   3.663   1.979  0.7652  0.3849  0.1349
  282MOL0     C37961   2.134   3.634   1.874 -0.6552  0.7309 -0.5484
  282MOL0     C37962   2.032   3.541   1.895 -0.2288 -0.6656  0.6555
  282MOL0     C37963   1.952   3.511   1.766 -0.9451  0.7141 -0.2081
  282MOL0     C37964   2.000   3.499   2.032 -0.1621 -0.4226  0.2742
  282MOL0     C37965   1.880   3.418   2.073  0.3351 -0.2350  0.0296
  282MOL0     O37966   1.891   3.387   2.205  0.1483 -0.0459  0.0192
  282MOL0     C37967   1.811   3.284   2.253 -0.6827  0.3831 -0.4311
  282MOL0     C37968   1.673   3.280   2.239 -0.5541  0.1936 -0.0330
  282MOL0     C37969   1.597   3.179   2.302 -0.1909 -0.5168  0.7190
  282MOL0     C37970   1.660   3.071   2.367  0.0142  0.7083  0.1243
  282MOL0     O37971   1.585   2.965   2.407  0.1914  0.4896  0.4630
  282MOL0     C37972   1.637   2.863   2.492 -0.1351 -0.6204  0.0856
  282MOL0     C37973   1.533   2.770   2.547 -0.4549 -0.6995 -0.6492
  282MOL0     C37974   1.475   2.655   2.464  0.4294  0.1777 -0.0454
  282MOL0     C37975   1.393   2.714   2.345  0.0950  0.5061 -0.4905
  282MOL0     C37976   1.276   2.785   2.402 -0.2658  0.1675  0.4782
  282MOL0     C37977   1.162   2.792   2.302  0.9216 -0.1339 -0.5072
  282MOL0     C37978   1.169   2.903   2.202  0.7919 -0.1744  0.6782
  282MOL0     C37979   1.047   2.915   2.115 -0.0828 -0.4659 -0.0118
  282MOL0    Cl37980   1.030   3.078   2.029  0.0371  0.3494 -0.0617
  282MOL0     C37981   1.801   3.087   2.395 -0.4570  0.3642  0.6389
  282MOL0     C37982   1.879   3.179   2.329  0.2150  0.0580  0.4327
  282MOL0     O37983   1.794   3.385   1.992  0.3842 -0.5428 -0.0673
  282MOL0     C37984   2.090   3.546   2.136 -0.1879  0.8392 -0.3265
  282MOL0     C37985   2.210   3.617   2.108  0.0067 -0.3971  0.6190
  282MOL0     N37986   2.797   4.008   1.891 -0.2593 -0.3449  1.1689
  282MOL0     N37987   2.908   3.961   1.939 -0.2875 -0.4325 -0.0335
  282MOL0     C37988   4.198   3.692   1.721 -0.2353  0.3893  0.0051
  282MOL0     C37989   4.270   3.607   1.641  0.1756 -0.6461  0.0486
  282MOL0     C37990   4.522   3.274   1.479  0.0257 -0.3858  0.7173
  282MOL0     C37991   4.484   3.154   1.531 -0.3473  0.3023 -0.0406
  282MOL0     C37992   4.557   3.037   1.499  0.4898  0.4859 -0.0172
  282MOL0     C37993   4.656   3.039   1.397 -0.5168 -0.1004 -0.3162
  282MOL0     O37994   4.719   2.919   1.362 -0.3677 -0.2278  0.6107
  282MOL0     C37995   4.815   2.915   1.253  0.3587 -0.2441 -0.2979
  282MOL0     C37996   4.869   2.774   1.237 -0.8644  0.6036 -1.3230
  282MOL0     C37997   4.987   2.790   1.135 -0.4277  0.0132 -0.4865
  282MOL0     C37998   5.041   2.643   1.118 -0.2643  0.8163 -0.3531
  282MOL0     C37999   5.159   2.636   1.035  0.5479 -0.1274  0.2228
  282MOL0     C38000   5.265   2.619   0.977  0.0298  0.7481 -0.9102
  282MOL0     C38001   4.686   3.160   1.343  0.1975  0.2016  0.7994
  282MOL0     C38002   4.622   3.268   1.377  0.5149 -0.5338 -0.2839
  282MOL0     H38003   4.287   3.352   1.884 -0.9792  0.0641  0.3938
  282MOL0     H38004   4.141   3.519   2.001 -0.8885 -0.6700 -0.3125
  282MOL0     H38005   3.952   3.901   1.852  1.2686  0.1734  1.7785
  282MOL0     H38006   3.939   3.760   1.746 -0.1140 -0.6684  0.2183
  282MOL0     H38007   3.795   3.640   1.915 -3.0651  0.0825 -0.3801
  282MOL0     H38008   3.851   3.759   2.031  2.1756  1.8811 -1.7514
  282MOL0     H38009   3.719   3.923   1.916 -0.2448 -0.7855  2.0619
  282MOL0     H38010   3.693   3.815   1.772 -0.1072 -0.1690 -0.2148
  282MOL0     H38011   3.543   3.674   1.891 -0.4945  1.2964 -2.4443
  282MOL0     H38012   3.593   3.750   2.045  1.9902  1.9164  0.4534
  282MOL0     H38013   3.454   3.908   2.033  1.8218  0.4197 -1.1350
  282MOL0     H38014   3.476   3.928   1.855  0.3131  0.2239 -0.0717
  282MOL0     H38015   3.329   3.703   1.842 -0.6689 -2.1935  1.0818
  282MOL0     H38016   3.295   3.721   2.011 -0.4761 -1.0305 -1.5485
  282MOL0     H38017   3.191   3.934   1.994  0.7084  2.8412 -0.0854
  282MOL0     H38018   3.218   3.939   1.813  0.3543 -1.8976 -0.7993
  282MOL0     H38019   3.069   3.726   1.983  0.1566 -4.1477 -1.5236
  282MOL0     H38020   3.094   3.714   1.805  0.3846 -1.1867  1.7248
  282MOL0     H38021   2.915   3.813   1.654  1.6420  1.9244 -0.6205
  282MOL0     H38022   2.648   4.088   1.689  1.8990  1.7024 -1.0278
  282MOL0     H38023   2.714   3.990   1.563 -0.8779  0.7961 -0.4950
  282MOL0     H38024   2.594   3.776   1.661  0.4795  0.3060 -2.0601
  282MOL0     H38025   2.484   3.887   1.593  0.0010  0.3363  0.0844
  282MOL0     H38026   2.452   3.981   1.838  2.0258  1.0923 -2.9343
  282MOL0     H38027   2.562   3.862   1.890 -3.4640  0.2637  3.3234
  282MOL0     H38028   2.411   3.688   1.767  1.0172 -1.0684  2.3078
  282MOL0     H38029   2.285   3.820   1.777 -0.8909  0.6308  0.9634
  282MOL0     H38030   2.137   3.678   1.775  0.8559  2.5859  0.2494
  282MOL0     H38031   1.849   3.486   1.794  0.0442 -4.0327 -0.0127
  282MOL0     H38032   1.969   3.582   1.685 -1.6915  0.9243 -0.1946
  282MOL0     H38033   1.980   3.413   1.727 -0.7797  0.0327  1.5686
  282MOL0     H38034   1.627   3.361   2.183  1.3761  1.3924  0.0140
  282MOL0     H38035   1.489   3.185   2.302 -0.3752 -2.7811  1.8246
  282MOL0     H38036   1.703   2.798   2.433  0.3747 -0.3334  0.3343
  282MOL0     H38037   1.686   2.902   2.581 -1.0949  0.5432  0.1279
  282MOL0     H38038   1.581   2.733   2.637  0.3318  0.8809 -0.3917
  282MOL0     H38039   1.459   2.842   2.583  1.0646  1.0873 -0.9336
  282MOL0     H38040   1.399   2.598   2.518 -0.1777  0.9532 -0.0463
  282MOL0     H38041   1.561   2.598   2.428 -0.9527 -0.6346 -2.2818
  282MOL0     H38042   1.462   2.777   2.288  1.2567 -1.8388 -1.8282
  282MOL0     H38043   1.373   2.631   2.278  0.3063 -0.0418  0.1144
  282MOL0     H38044   1.300   2.889   2.426 -2.2751  0.7902 -0.0245
  282MOL0     H38045   1.237   2.733   2.489 -0.9491  0.0288  0.0922
  282MOL0     H38046   1.161   2.695   2.252  0.3044 -0.4386  0.0726
  282MOL0     H38047   1.065   2.788   2.352  1.1922  1.6973  0.2372
  282MOL0     H38048   1.261   2.886   2.145  1.0316 -0.4650  1.1472
  282MOL0     H38049   1.178   2.999   2.255 -0.3488  0.5365 -0.3628
  282MOL0     H38050   0.956   2.903   2.175 -0.4250 -1.7177 -0.7380
  282MOL0     H38051   1.040   2.830   2.046 -0.0836 -0.2565 -0.2692
  282MOL0     H38052   1.862   3.026   2.460  1.1227  2.3849  1.1639
  282MOL0     H38053   1.987   3.192   2.335  0.1503  0.2010  1.2898
  282MOL0     H38054   2.087   3.522   2.241  2.0067  1.6563 -0.0335
  282MOL0     H38055   2.282   3.640   2.187  1.3796 -2.7839  0.1570
  282MOL0     H38056   4.176   3.785   1.668 -0.8938  0.9858  1.2786
  282MOL0     H38057   4.306   3.642   1.545 -0.8963 -3.8024 -1.6408
  282MOL0     H38058   4.402   3.151   1.601 -2.8169 -1.5486 -2.7645
  282MOL0     H38059   4.533   2.944   1.549  2.7380  0.7992  1.8155
  282MOL0     H38060   4.768   2.959   1.165  0.4501  0.2176 -0.1176
  282MOL0     H38061   4.899   2.979   1.283  0.6252  0.5669 -2.5640
  282MOL0     H38062   4.790   2.716   1.188  1.3173 -0.2230 -4.1544
  282MOL0     H38063   4.894   2.729   1.333 -0.7309 -0.6499 -1.9269
  282MOL0     H38064   5.073   2.849   1.168 -0.6110  1.0505 -1.8004
  282MOL0     H38065   4.956   2.831   1.039  1.3090 -0.0847 -1.1185
  282MOL0     H38066   4.963   2.589   1.064  1.7344 -1.5522 -1.0378
  282MOL0     H38067   5.059   2.593   1.214 -0.0315 -1.5253 -1.5397
  282MOL0     H38068   5.362   2.607   0.933  0.9008 -1.6006  1.4079
  282MOL0     H38069   4.761   3.173   1.265 -1.0629  0.2298 -0.4632
  282MOL0     H38070   4.662   3.362   1.341 -0.6258 -0.3779 -1.2038
  283MOL0     O38071  10.101   2.703   3.565  0.2015  0.0302  0.0399
  283MOL0     C38072  10.181   2.741   3.479 -0.4455 -0.5972 -0.0562
  283MOL0     O38073  10.156   2.843   3.392  0.1678 -0.1758  0.1129
  283MOL0     C38074  10.027   2.901   3.395 -0.1386  0.7829  0.7764
  283MOL0     C38075   9.977   2.963   3.509  0.5580 -0.1500  0.7287
  283MOL0     C38076   9.853   3.027   3.501 -0.6917 -0.0718 -0.2393
  283MOL0     C38077   9.770   3.033   3.387  0.4740 -0.3438  0.4843
  283MOL0     O38078   9.647   3.098   3.398 -0.9099 -0.1957 -0.0166
  283MOL0     C38079   9.559   3.108   3.285 -0.4197  0.0286 -0.0140
  283MOL0     C38080   9.431   3.187   3.321 -0.2408  0.2871 -0.0583
  283MOL0     C38081   9.388   3.279   3.208 -0.2071  0.2531  0.9340
  283MOL0     C38082   9.249   3.325   3.231 -0.2023 -0.7274 -0.3266
  283MOL0     C38083   9.196   3.437   3.140  0.1601 -0.1272 -0.5113
  283MOL0     C38084   9.180   3.396   2.991  0.1482  0.2269 -0.4302
  283MOL0     C38085   9.316   3.383   2.905 -0.0352 -0.0371  0.3344
  283MOL0     C38086   9.298   3.397   2.752  0.2259 -0.1919 -0.9620
  283MOL0     N38087   9.268   3.536   2.718  0.8432  0.4141  0.5871
  283MOL0     C38088   9.162   3.561   2.641  0.0176 -0.1732 -0.2294
  283MOL0     C38089   9.182   3.688   2.590 -0.1095 -0.9409  0.2351
  283MOL0     C38090   9.083   3.754   2.495  0.7108 -0.1501 -1.1283
  283MOL0     C38091   9.012   3.879   2.544 -0.0791  0.1700 -0.6619
  283MOL0     C38092   8.932   3.953   2.443  0.2744 -0.6556  0.0596
  283MOL0     C38093   8.885   3.875   2.313 -0.0879 -0.4433 -0.3532
  283MOL0     O38094   8.791   3.768   2.338  0.0467 -0.1901  0.1187
  283MOL0     C38095   8.667   3.793   2.284  0.5340  0.7795  0.0179
  283MOL0     C38096   8.602   3.923   2.293 -0.2885 -0.1992 -0.2955
  283MOL0     C38097   8.470   3.938   2.243  0.1552  0.2980  0.0495
  283MOL0     C38098   8.409   4.074   2.250 -1.0743 -0.2857 -0.9185
  283MOL0     C38099   8.406   3.823   2.179 -0.8053 -0.0975  0.5717
  283MOL0     C38100   8.275   3.824   2.098 -0.5629  0.0419  0.1177
  283MOL0     O38101   8.212   3.697   2.084 -1.0355  0.7310 -0.0271
  283MOL0     C38102   8.091   3.684   2.019  0.1262 -0.5009  0.5874
  283MOL0     C38103   8.082   3.581   1.923  0.5261  0.1762  0.3653
  283MOL0     C38104   7.980   3.574   1.837 -0.4114  0.2414  0.6042
  283MOL0     C38105   7.870   3.659   1.857  0.5926  0.1777 -0.4756
  283MOL0     O38106   7.762   3.659   1.770 -0.1427  0.0806 -0.6073
  283MOL0     C38107   7.649   3.745   1.792  0.2788  0.2019 -0.3568
  283MOL0     C38108   7.534   3.699   1.704 -0.8099  0.5834  0.7367
  283MOL0     C38109   7.413   3.798   1.707  0.2262  0.4423  0.3769
  283MOL0     C38110   7.339   3.779   1.834 -0.8130  0.1220  0.0566
  283MOL0     C38111   7.191   3.811   1.798 -0.2337 -0.6184 -0.1731
  283MOL0     C38112   7.099   3.698   1.749 -0.1337 -0.2194  0.3241
  283MOL0     C38113   6.962   3.737   1.712 -1.1461 -0.0642 -0.7249
  283MOL0     C38114   6.945   3.860   1.613 -0.3906  0.0344 -0.7948
  283MOL0    Cl38115   6.973   4.012   1.698  0.0488 -0.1895 -0.1721
  283MOL0     C38116   7.869   3.760   1.961  0.4148 -0.0271  0.0332
  283MOL0     C38117   7.981   3.772   2.044 -0.1385 -0.6404 -0.7237
  283MOL0     O38118   8.223   3.938   2.067 -0.3948  1.2336 -0.3475
  283MOL0     C38119   8.470   3.692   2.183  0.3387 -0.2333  0.1481
  283MOL0     C38120   8.598   3.680   2.227 -0.0301  0.2026  0.2164
  283MOL0     N38121   9.310   3.727   2.614 -0.6824 -0.0703 -0.9181
  283MOL0     N38122   9.359   3.636   2.699  0.1125 -0.0372 -0.0503
  283MOL0     C38123   9.830   2.980   3.271 -0.0623  0.3117  0.1470
  283MOL0     C38124   9.959   2.919   3.278  0.6806 -1.2323  0.0865
  283MOL0     C38125  10.307   2.667   3.460  0.0960  0.6600  0.2256
  283MOL0     C38126  10.385   2.680   3.345 -0.4646 -0.4745  1.2052
  283MOL0     C38127  10.511   2.619   3.325 -0.9846  0.1834  0.2650
  283MOL0     C38128  10.564   2.559   3.436  0.9849 -0.1183  0.3174
  283MOL0     O38129  10.698   2.529   3.463  0.0574  0.0234 -0.3318
  283MOL0     C38130  10.799   2.604   3.393 -0.0319  0.7129 -0.0895
  283MOL0     C38131  10.937   2.541   3.431  0.8537  0.3803 -0.0933
  283MOL0     C38132  10.992   2.460   3.318 -0.2036 -0.3731  0.6636
  283MOL0     C38133  11.129   2.408   3.364 -0.4294  0.7704  0.3291
  283MOL0     C38134  11.188   2.313   3.268  0.5375 -0.4106  0.8068
  283MOL0     C38135  11.240   2.230   3.207 -0.2475  0.0538 -0.9593
  283MOL0     C38136  10.478   2.528   3.549  0.3737  0.2321 -0.0994
  283MOL0     C38137  10.347   2.579   3.556 -0.0891  1.3013 -0.3150
  283MOL0     H38138  10.023   2.946   3.605  0.0872  0.2628  1.0332
  283MOL0     H38139   9.816   3.070   3.594 -1.4881 -1.8354  0.3153
  283MOL0     H38140   9.608   3.156   3.199 -1.4619 -0.5174 -0.9263
  283MOL0     H38141   9.530   3.011   3.245  2.1931 -0.6146 -0.5516
  283MOL0     H38142   9.353   3.122   3.362  1.4113 -1.1427  0.9710
  283MOL0     H38143   9.462   3.252   3.403 -2.3885  2.2584 -0.6998
  283MOL0     H38144   9.458   3.364   3.204  0.8295 -0.6157 -0.7462
  283MOL0     H38145   9.401   3.237   3.108 -2.4920 -0.9153  1.0637
  283MOL0     H38146   9.186   3.236   3.225 -0.7196 -0.4962  1.3212
  283MOL0     H38147   9.237   3.361   3.333 -0.1227 -1.9840  0.1387
  283MOL0     H38148   9.095   3.466   3.173  0.7714  0.1153  1.2740
  283MOL0     H38149   9.262   3.524   3.138  1.5919 -1.1607  0.0325
  283MOL0     H38150   9.116   3.307   2.992 -0.1879  0.4629  1.1393
  283MOL0     H38151   9.118   3.473   2.943  0.0298  0.1621 -0.3809
  283MOL0     H38152   9.387   3.458   2.942  0.6717  0.6907 -2.3070
  283MOL0     H38153   9.352   3.282   2.923  2.5193  1.1349  2.4194
  283MOL0     H38154   9.220   3.325   2.725 -3.4394  1.6841  3.3146
  283MOL0     H38155   9.396   3.374   2.710  0.7523  0.7017 -0.2487
  283MOL0     H38156   9.085   3.488   2.619  0.0137 -0.0955 -0.4746
  283MOL0     H38157   9.137   3.788   2.406  1.0263  2.2084 -0.1069
  283MOL0     H38158   9.004   3.683   2.466 -0.5259 -0.5928  2.7788
  283MOL0     H38159   9.083   3.937   2.603 -2.9064 -1.7928  5.4706
  283MOL0     H38160   8.942   3.841   2.619 -0.8972  0.0583 -1.4682
  283MOL0     H38161   9.015   4.012   2.402 -3.0967  3.4274 -1.6930
  283MOL0     H38162   8.848   4.016   2.477 -1.0726 -0.5807 -3.1046
  283MOL0     H38163   8.969   3.824   2.265 -1.2596  0.0894 -3.1474
  283MOL0     H38164   8.858   3.943   2.232 -0.8610 -0.4557 -0.1125
  283MOL0     H38165   8.649   4.004   2.349  2.4384  0.0402 -2.7271
  283MOL0     H38166   8.318   4.074   2.310  0.1387 -0.3560  1.0225
  283MOL0     H38167   8.470   4.145   2.307 -2.5334 -0.3510  0.8041
  283MOL0     H38168   8.400   4.121   2.152  0.5567  2.3043  0.0410
  283MOL0     H38169   8.168   3.514   1.916 -0.7768 -1.7305  1.6481
  283MOL0     H38170   7.978   3.495   1.762  1.7146  0.1555  0.5982
  283MOL0     H38171   7.606   3.737   1.892  0.7149  0.2429 -0.1679
  283MOL0     H38172   7.668   3.849   1.763 -0.6954 -0.1126 -2.3379
  283MOL0     H38173   7.567   3.677   1.602 -1.1858  0.5529  0.6207
  283MOL0     H38174   7.497   3.604   1.746 -1.1611  0.3625 -0.0563
  283MOL0     H38175   7.354   3.763   1.622 -0.4580 -1.2459  1.4890
  283MOL0     H38176   7.440   3.902   1.689 -1.7385  0.5560 -2.7515
  283MOL0     H38177   7.349   3.679   1.878  0.7968  1.9827  4.5600
  283MOL0     H38178   7.387   3.845   1.907  2.3325  0.8493 -2.4639
  283MOL0     H38179   7.197   3.892   1.725 -1.3341  1.4345  1.8781
  283MOL0     H38180   7.146   3.843   1.893  0.6553 -1.1888  0.4538
  283MOL0     H38181   7.154   3.656   1.664  0.9491 -0.4807  1.1323
  283MOL0     H38182   7.101   3.624   1.830  1.6021  0.7346  1.2061
  283MOL0     H38183   6.900   3.751   1.802 -1.1968 -1.8466 -0.4475
  283MOL0     H38184   6.923   3.644   1.670 -1.3362 -1.4130  2.1823
  283MOL0     H38185   6.839   3.849   1.588 -0.7830 -0.1745  0.8266
  283MOL0     H38186   7.006   3.852   1.522  0.4127  1.0809 -0.3686
  283MOL0     H38187   7.786   3.829   1.972  0.4331  0.6435 -3.0046
  283MOL0     H38188   7.994   3.852   2.116  1.8070 -2.8979  1.6069
  283MOL0     H38189   8.419   3.607   2.140  0.0369 -0.1479  0.3303
  283MOL0     H38190   8.635   3.579   2.215  0.6222  0.3762  0.6538
  283MOL0     H38191   9.782   2.989   3.174  3.8711 -2.1160 -2.3715
  283MOL0     H38192  10.020   2.892   3.192 -0.5014  1.9517 -1.9152
  283MOL0     H38193  10.339   2.736   3.264  2.0340 -0.8002 -0.5873
  283MOL0     H38194  10.578   2.641   3.242  2.0906  0.5146  2.6058
  283MOL0     H38195  10.779   2.606   3.285  1.3603 -0.7146 -0.4094
  283MOL0     H38196  10.794   2.712   3.413 -2.6255  1.5839 -4.1596
  283MOL0     H38197  10.920   2.461   3.503 -3.2154 -2.2440 -3.4338
  283MOL0     H38198  11.009   2.614   3.468  0.9845  0.5958 -0.7533
  283MOL0     H38199  11.006   2.525   3.232  0.0704  0.9970  1.7015
  283MOL0     H38200  10.919   2.381   3.301 -1.4209  0.7241  0.6606
  283MOL0     H38201  11.115   2.346   3.453 -1.0253  1.0493  0.4333
  283MOL0     H38202  11.188   2.500   3.374 -0.4333  0.8634 -0.4565
  283MOL0     H38203  11.299   2.150   3.165 -0.8932 -0.1317 -1.5288
  283MOL0     H38204  10.521   2.470   3.629  1.1955 -1.3019 -1.5732
  283MOL0     H38205  10.302   2.560   3.653  0.3534 -0.5263 -0.4364
  284MOL0     O38206  10.552   6.065   0.591  0.2699 -0.1413 -0.0385
  284MOL0     C38207  10.587   6.097   0.477  0.3211 -0.4570 -0.6722
  284MOL0     O38208  10.503   6.127   0.381  0.2114  0.2462 -0.4317
  284MOL0     C38209  10.374   6.143   0.425 -0.1293  0.5198 -0.0570
  284MOL0     C38210  10.279   6.037   0.419 -0.1965 -0.0898  0.6692
  284MOL0     C38211  10.151   6.062   0.470 -0.2569 -0.9608  0.1171
  284MOL0     C38212  10.116   6.185   0.533  0.2380  0.4617  0.3646
  284MOL0     O38213   9.995   6.200   0.582  0.5905 -0.6934 -0.4566
  284MOL0     C38214   9.885   6.149   0.505  0.5770 -0.0446  0.1804
  284MOL0     C38215   9.759   6.221   0.544 -0.0150  0.0619 -0.7366
  284MOL0     C38216   9.716   6.188   0.687 -0.5088  0.6913  0.1474
  284MOL0     C38217   9.585   6.253   0.727  0.1248  0.1031  0.2807
  284MOL0     C38218   9.559   6.248   0.888  0.0243  0.0826 -0.0391
  284MOL0     C38219   9.410   6.230   0.920  0.1762 -0.8594  0.5838
  284MOL0     C38220   9.326   6.356   0.875 -0.3774  0.5253 -0.2999
  284MOL0     C38221   9.174   6.308   0.865 -0.4762 -0.3824 -0.0132
  284MOL0     N38222   9.094   6.419   0.815  0.6741  0.3561 -0.0690
  284MOL0     C38223   9.016   6.497   0.898  0.0688 -0.0823  0.1619
  284MOL0     C38224   8.973   6.607   0.825 -0.0207  0.1531  0.4032
  284MOL0     C38225   8.896   6.721   0.868  0.4856  0.2773 -0.4467
  284MOL0     C38226   8.811   6.706   0.996 -0.0587 -0.0967  0.5018
  284MOL0     C38227   8.734   6.838   1.029 -0.1512 -0.0293  0.9560
  284MOL0     C38228   8.667   6.851   1.165 -0.2672 -1.0805 -0.4272
  284MOL0     O38229   8.586   6.741   1.204 -0.4741 -0.0222 -0.9484
  284MOL0     C38230   8.460   6.733   1.156  0.2825  0.3059 -0.2495
  284MOL0     C38231   8.420   6.667   1.045 -0.7082 -0.3575 -0.7072
  284MOL0     C38232   8.282   6.661   0.990  0.2886 -0.3684 -0.0964
  284MOL0     C38233   8.258   6.614   0.847 -0.6360 -1.0538  0.3309
  284MOL0     C38234   8.181   6.721   1.075 -0.5919 -0.0364  0.3629
  284MOL0     C38235   8.038   6.711   1.055  0.6544  0.1113 -0.1091
  284MOL0     O38236   7.985   6.655   0.943 -0.6411  0.5031  0.5594
  284MOL0     C38237   7.851   6.645   0.927  0.4176 -0.6798  0.6070
  284MOL0     C38238   7.771   6.751   0.879  0.5415 -0.2593 -0.2077
  284MOL0     C38239   7.626   6.741   0.876  0.8060 -0.4705  0.2594
  284MOL0     C38240   7.566   6.624   0.925  0.8287  1.5538 -0.2763
  284MOL0     O38241   7.425   6.609   0.937 -0.4804  0.2599  0.1715
  284MOL0     C38242   7.339   6.712   0.881  0.3734  0.6002  0.3783
  284MOL0     C38243   7.198   6.661   0.907  0.0218  0.3678 -0.2008
  284MOL0     C38244   7.156   6.692   1.057  0.3724  0.0751  0.0788
  284MOL0     C38245   7.003   6.711   1.060  0.4751  1.0411 -0.5798
  284MOL0     C38246   6.937   6.569   1.050  0.5316  0.3786 -0.3316
  284MOL0     C38247   6.782   6.585   1.035  0.5867  0.5632  0.9249
  284MOL0     C38248   6.713   6.454   1.024 -0.9254 -0.9178 -0.3561
  284MOL0     C38249   6.571   6.447   1.075 -0.0837 -1.0116  0.5066
  284MOL0    Cl38250   6.548   6.450   1.255  0.0994 -0.0206 -0.3252
  284MOL0     C38251   7.648   6.520   0.972 -0.7292 -0.4009 -0.4789
  284MOL0     C38252   7.784   6.524   0.953 -0.0157  0.1828  0.0271
  284MOL0     O38253   7.968   6.768   1.137 -0.7582 -0.0837  0.6812
  284MOL0     C38254   8.215   6.773   1.203 -0.5206  0.7840 -0.4355
  284MOL0     C38255   8.352   6.777   1.241 -0.2389  0.1747  0.4492
  284MOL0     N38256   9.025   6.586   0.697 -0.1137  0.1175  1.1672
  284MOL0     N38257   9.090   6.478   0.689 -0.6937  0.1837 -0.0892
  284MOL0     C38258  10.206   6.284   0.549  0.6639  1.3235 -0.2385
  284MOL0     C38259  10.337   6.261   0.491 -0.2299 -1.1097 -0.0036
  284MOL0     C38260  10.738   6.098   0.449  0.3522 -0.5249 -0.1660
  284MOL0     C38261  10.829   6.079   0.551 -1.1870  0.6051 -1.0108
  284MOL0     C38262  10.969   6.092   0.532 -0.3605  0.5146 -1.0164
  284MOL0     C38263  11.011   6.119   0.397 -0.1826  0.3060 -0.3921
  284MOL0     O38264  11.142   6.107   0.360 -0.3147 -0.0545 -0.2183
  284MOL0     C38265  11.246   6.111   0.467  0.4854 -0.1840 -0.0407
  284MOL0     C38266  11.383   6.093   0.402  0.4911 -0.6467  0.0883
  284MOL0     C38267  11.432   6.211   0.322  0.7068  0.1684 -0.9114
  284MOL0     C38268  11.544   6.172   0.228 -0.7356  0.0165  0.2473
  284MOL0     C38269  11.668   6.153   0.300 -0.4892 -0.7913  0.0273
  284MOL0     C38270  11.770   6.122   0.350  0.6211  0.6667  0.5238
  284MOL0     C38271  10.918   6.141   0.298 -0.1747  0.6366 -0.0675
  284MOL0     C38272  10.780   6.135   0.316 -0.6964 -0.3793 -0.3962
  284MOL0     H38273  10.323   5.943   0.387  0.5226 -1.0972  4.1482
  284MOL0     H38274  10.079   5.981   0.484 -1.4958 -0.1292 -1.2448
  284MOL0     H38275   9.893   6.165   0.397  0.1270  0.2951  0.1940
  284MOL0     H38276   9.877   6.043   0.530 -1.5717 -0.0786 -0.4622
  284MOL0     H38277   9.776   6.328   0.531 -1.5980  0.3573 -0.6117
  284MOL0     H38278   9.680   6.196   0.473  0.0312  1.3171 -1.2620
  284MOL0     H38279   9.715   6.081   0.711  1.8578  0.9642  1.8248
  284MOL0     H38280   9.788   6.235   0.755 -0.2107 -1.1473  1.1914
  284MOL0     H38281   9.574   6.353   0.684 -2.9497 -0.1612  0.2481
  284MOL0     H38282   9.509   6.186   0.687  0.3767 -1.7086  2.5783
  284MOL0     H38283   9.606   6.160   0.934 -0.3818  0.5505  1.3203
  284MOL0     H38284   9.594   6.341   0.934 -0.2455  0.0201  0.2962
  284MOL0     H38285   9.365   6.149   0.863 -1.7627  0.0395  0.7767
  284MOL0     H38286   9.419   6.220   1.029  4.1666  2.4701  0.8551
  284MOL0     H38287   9.330   6.439   0.945  0.1920 -0.4329  0.8262
  284MOL0     H38288   9.368   6.395   0.781  2.2689  0.8475  0.9335
  284MOL0     H38289   9.147   6.267   0.963  1.2653  1.3995  1.2993
  284MOL0     H38290   9.170   6.220   0.800 -1.4962  0.2159 -0.7886
  284MOL0     H38291   8.979   6.467   0.996  0.8202  0.9067  0.7626
  284MOL0     H38292   8.973   6.798   0.874  0.5726  0.2013 -0.5798
  284MOL0     H38293   8.835   6.759   0.785 -0.4954  1.5778  0.8129
  284MOL0     H38294   8.873   6.687   1.084 -0.8960 -0.6930  0.9760
  284MOL0     H38295   8.751   6.618   0.973 -2.1027  1.8367 -2.2082
  284MOL0     H38296   8.679   6.881   0.944  2.8391  1.2215 -0.4920
  284MOL0     H38297   8.817   6.908   1.038  0.0444 -0.2256  0.6827
  284MOL0     H38298   8.624   6.952   1.168  2.0856 -0.0259  0.1032
  284MOL0     H38299   8.745   6.865   1.240 -0.4759  0.4878 -0.4669
  284MOL0     H38300   8.498   6.607   0.998  1.1328  0.2656  1.3900
  284MOL0     H38301   8.235   6.705   0.792 -0.0907 -1.8177 -1.2104
  284MOL0     H38302   8.355   6.578   0.813  0.6208 -0.0161  2.5456
  284MOL0     H38303   8.185   6.533   0.850 -0.5830 -1.1748 -1.0669
  284MOL0     H38304   7.818   6.848   0.862  2.3523 -0.2243  3.7693
  284MOL0     H38305   7.573   6.821   0.825  2.2455  1.6781  1.9315
  284MOL0     H38306   7.352   6.809   0.929 -0.5112  1.6427 -1.3955
  284MOL0     H38307   7.359   6.717   0.774 -1.3106  1.8718  0.0795
  284MOL0     H38308   7.127   6.715   0.844 -0.7609  0.3617  0.6669
  284MOL0     H38309   7.205   6.553   0.893  1.2088  0.1135  1.9270
  284MOL0     H38310   7.199   6.787   1.090 -3.6620  1.7370  1.2021
  284MOL0     H38311   7.178   6.611   1.128 -1.1345 -2.1062 -1.8047
  284MOL0     H38312   6.973   6.757   1.155  0.9233 -1.7200  1.0211
  284MOL0     H38313   6.966   6.764   0.972 -1.1156 -0.0980 -0.6306
  284MOL0     H38314   6.975   6.510   1.134 -2.2312 -1.6126 -0.3544
  284MOL0     H38315   6.982   6.516   0.966  0.9737  1.0699 -0.5419
  284MOL0     H38316   6.742   6.637   1.123  0.6050 -1.8420  2.4520
  284MOL0     H38317   6.764   6.635   0.940  1.6461  0.5805  0.7221
  284MOL0     H38318   6.762   6.375   1.082 -0.5473 -1.5754 -1.5207
  284MOL0     H38319   6.730   6.425   0.920  0.8697  0.2857 -0.4300
  284MOL0     H38320   6.525   6.356   1.035 -1.0320  0.2465 -1.4355
  284MOL0     H38321   6.510   6.528   1.032 -0.0056 -0.5953  1.1659
  284MOL0     H38322   7.593   6.428   0.991 -2.5504  0.4827 -1.1816
  284MOL0     H38323   7.853   6.444   0.975  1.9731  2.2125  1.5990
  284MOL0     H38324   8.138   6.813   1.267 -2.0797 -2.1609 -0.3114
  284MOL0     H38325   8.381   6.810   1.339  0.3499  0.0551  0.3182
  284MOL0     H38326  10.162   6.376   0.588 -3.7506  0.1861 -1.8935
  284MOL0     H38327  10.419   6.331   0.493  0.1209 -1.4995 -0.5289
  284MOL0     H38328  10.794   6.047   0.648 -1.6268 -0.1033 -1.4002
  284MOL0     H38329  11.031   6.052   0.612 -0.0531 -1.9685 -2.3783
  284MOL0     H38330  11.244   6.202   0.526 -1.9350 -0.7047  0.7916
  284MOL0     H38331  11.220   6.020   0.522  0.6664 -2.1758 -2.9887
  284MOL0     H38332  11.375   6.001   0.343  1.1242  0.8130 -2.4388
  284MOL0     H38333  11.449   6.082   0.489 -0.8419  3.3226  1.8406
  284MOL0     H38334  11.450   6.300   0.382 -0.3715 -0.2041 -0.0017
  284MOL0     H38335  11.347   6.224   0.255  0.8096 -0.3830 -1.1529
  284MOL0     H38336  11.547   6.244   0.145 -0.1889  1.2972  1.3471
  284MOL0     H38337  11.534   6.075   0.180  0.9832  0.1091 -0.3609
  284MOL0     H38338  11.860   6.107   0.405  1.3437 -2.3372 -1.2629
  284MOL0     H38339  10.942   6.170   0.197  0.2684 -1.3202 -0.5712
  284MOL0     H38340  10.710   6.182   0.247 -0.8052  2.0569  1.2252
  285MOL0     O38341   2.558   6.015   8.016 -0.1643  0.8460  0.0113
  285MOL0     C38342   2.460   6.042   8.087 -0.6349  0.2505 -0.7531
  285MOL0     O38343   2.368   6.142   8.059 -0.0246  0.3539 -0.1861
  285MOL0     C38344   2.391   6.206   7.941 -0.1167  0.4082 -0.3776
  285MOL0     C38345   2.479   6.305   7.943  0.3579 -0.0322  0.2946
  285MOL0     C38346   2.510   6.383   7.829 -0.7596 -0.4599  0.6276
  285MOL0     C38347   2.444   6.358   7.711 -0.0642  0.0910 -0.1187
  285MOL0     O38348   2.471   6.428   7.600 -0.2756  0.4730  0.0327
  285MOL0     C38349   2.585   6.386   7.529  0.0089  0.1153 -0.0000
  285MOL0     C38350   2.569   6.420   7.383 -0.3187 -0.3760  0.5344
  285MOL0     C38351   2.691   6.363   7.295  0.3658 -0.7765 -0.7181
  285MOL0     C38352   2.832   6.402   7.328  0.8477  0.4433 -0.3058
  285MOL0     C38353   2.932   6.337   7.226  0.1733  0.1844  0.4412
  285MOL0     C38354   3.068   6.397   7.227 -0.1186 -0.6418  0.5220
  285MOL0     C38355   3.152   6.330   7.117 -0.3650 -0.1403 -0.7224
  285MOL0     C38356   3.294   6.390   7.120  0.5788 -0.0422 -0.1275
  285MOL0     N38357   3.387   6.326   7.035 -0.7978 -0.1264 -1.0964
  285MOL0     C38358   3.513   6.380   7.013  0.5588 -0.4407  0.1235
  285MOL0     C38359   3.567   6.309   6.911 -0.1960  0.4368 -0.2845
  285MOL0     C38360   3.695   6.346   6.853 -0.2781 -0.6012 -0.1445
  285MOL0     C38361   3.798   6.331   6.969  0.2097 -0.3666 -0.6960
  285MOL0     C38362   3.850   6.190   6.979  0.3074  0.0388  0.2700
  285MOL0     C38363   3.946   6.155   6.863  0.8508 -0.4064 -0.8846
  285MOL0     O38364   4.075   6.206   6.897  0.7024 -0.0460 -0.6210
  285MOL0     C38365   4.179   6.175   6.814 -0.0796 -0.9144 -0.7837
  285MOL0     C38366   4.172   6.141   6.680 -0.2450 -0.8050 -0.7356
  285MOL0     C38367   4.286   6.129   6.604 -0.4432  0.0549 -0.3257
  285MOL0     C38368   4.267   6.065   6.465 -0.4838 -0.1874 -0.4199
  285MOL0     C38369   4.412   6.147   6.664 -0.1798  0.0530  0.2317
  285MOL0     C38370   4.549   6.129   6.594 -0.6078 -0.1855  1.2679
  285MOL0     O38371   4.639   6.063   6.661 -0.4716  0.1871 -0.0934
  285MOL0     C38372   4.763   6.031   6.610 -0.2106  0.0231  0.2813
  285MOL0     C38373   4.840   5.950   6.695  0.2031 -0.5496  0.7215
  285MOL0     C38374   4.973   5.928   6.669 -0.3331 -0.9385 -0.4818
  285MOL0     C38375   5.039   5.985   6.554  0.0186  0.8912 -0.1770
  285MOL0     O38376   5.163   5.943   6.519  0.0077  0.2466  0.7198
  285MOL0     C38377   5.249   5.892   6.626  0.0757 -0.6907 -0.5044
  285MOL0     C38378   5.396   5.898   6.586 -0.0096 -0.7271  0.2136
  285MOL0     C38379   5.493   5.937   6.698  0.7228 -0.8603  0.1713
  285MOL0     C38380   5.632   5.927   6.647  0.0177 -0.0791 -0.3489
  285MOL0     C38381   5.714   6.018   6.743  0.2977  1.0049 -0.9376
  285MOL0     C38382   5.865   6.014   6.709 -0.2302 -0.4455  0.0021
  285MOL0     C38383   5.935   6.112   6.803  0.3713  0.2089 -0.0294
  285MOL0     C38384   6.089   6.087   6.812  0.3084  0.1643 -0.6371
  285MOL0    Cl38385   6.154   6.225   6.894 -0.0813  0.6326  0.4494
  285MOL0     C38386   4.971   6.067   6.476  0.5755  0.3176 -0.2176
  285MOL0     C38387   4.832   6.090   6.499  0.2206 -0.1337  0.3669
  285MOL0     O38388   4.547   6.150   6.472 -0.1473 -0.4053 -0.1811
  285MOL0     C38389   4.415   6.167   6.804 -0.0876 -0.5137 -0.7611
  285MOL0     C38390   4.303   6.188   6.880  0.5686  0.4350 -0.8892
  285MOL0     N38391   3.477   6.216   6.883 -0.1769  0.1949  0.0250
  285MOL0     N38392   3.369   6.224   6.949  0.0435  0.7498 -0.6096
  285MOL0     C38393   2.339   6.266   7.709  0.0852  0.6875  0.2650
  285MOL0     C38394   2.308   6.192   7.827  0.0437  0.4298 -0.5433
  285MOL0     C38395   2.436   5.957   8.211 -0.7579  0.3839  0.3385
  285MOL0     C38396   2.524   5.847   8.244  0.3194  0.0919 -0.2225
  285MOL0     C38397   2.497   5.773   8.358 -0.6587 -0.1172  0.4138
  285MOL0     C38398   2.387   5.796   8.438  0.6354  0.0288  0.5827
  285MOL0     O38399   2.385   5.723   8.550  0.2122  0.4884 -0.3609
  285MOL0     C38400   2.429   5.793   8.666  0.4698 -1.0822  0.6262
  285MOL0     C38401   2.580   5.833   8.672  0.0608 -0.0954 -0.2635
  285MOL0     C38402   2.677   5.731   8.731  0.2747 -0.7670  0.0509
  285MOL0     C38403   2.813   5.771   8.685 -0.0822  0.0908  0.2169
  285MOL0     C38404   2.828   5.733   8.540  0.1429 -0.5611 -0.6247
  285MOL0     C38405   2.850   5.709   8.420  0.4389  0.3346 -0.0590
  285MOL0     C38406   2.295   5.897   8.410  0.0712  0.7434  0.5534
  285MOL0     C38407   2.323   5.984   8.296 -0.3450  0.5743  0.0175
  285MOL0     H38408   2.534   6.324   8.035  0.7488 -0.0674  0.0706
  285MOL0     H38409   2.591   6.455   7.834 -0.2114 -0.9636 -0.7599
  285MOL0     H38410   2.671   6.429   7.580 -1.1374 -0.4591  2.5470
  285MOL0     H38411   2.595   6.277   7.542  0.3652  0.2240  0.6822
  285MOL0     H38412   2.477   6.378   7.340  0.3099  0.6532 -1.9904
  285MOL0     H38413   2.559   6.528   7.378 -0.2927 -0.3552  0.9313
  285MOL0     H38414   2.691   6.257   7.325  1.3146 -0.0306  2.2426
  285MOL0     H38415   2.672   6.356   7.188  0.5164 -1.2170 -0.7206
  285MOL0     H38416   2.841   6.510   7.321  1.7656  0.4132  0.2887
  285MOL0     H38417   2.852   6.367   7.430  1.0338  2.7364  0.5059
  285MOL0     H38418   2.928   6.231   7.254 -2.2875 -0.2401 -1.1634
  285MOL0     H38419   2.898   6.339   7.122  1.7236 -2.0314 -0.1910
  285MOL0     H38420   3.061   6.505   7.209 -3.2468 -1.0428 -1.4431
  285MOL0     H38421   3.110   6.383   7.327 -0.2783  1.6436  0.9719
  285MOL0     H38422   3.145   6.221   7.119 -0.5374 -0.1676 -1.9627
  285MOL0     H38423   3.106   6.359   7.022 -0.8652  2.4369  0.2263
  285MOL0     H38424   3.323   6.377   7.224  1.1544  1.6249 -0.0508
  285MOL0     H38425   3.283   6.499   7.109  1.0928 -0.1545 -2.2702
  285MOL0     H38426   3.543   6.468   7.070 -1.3793  2.3919 -2.9127
  285MOL0     H38427   3.722   6.283   6.768 -1.1167 -0.9126 -0.1893
  285MOL0     H38428   3.697   6.449   6.816  3.3029 -0.5155 -0.0473
  285MOL0     H38429   3.756   6.359   7.067 -0.4294  3.3607 -1.8892
  285MOL0     H38430   3.870   6.412   6.955 -0.8458  0.2319 -3.0837
  285MOL0     H38431   3.761   6.126   6.980  0.0074  0.3781 -1.5181
  285MOL0     H38432   3.907   6.180   7.072 -1.7648 -1.5884  1.4334
  285MOL0     H38433   3.920   6.204   6.769  1.5174 -2.3475 -2.1170
  285MOL0     H38434   3.950   6.049   6.836 -0.4785 -1.2879  1.9260
  285MOL0     H38435   4.080   6.113   6.629  0.9313 -0.4677 -3.1838
  285MOL0     H38436   4.162   6.034   6.456 -0.6719 -0.1861  1.3546
  285MOL0     H38437   4.291   6.146   6.395  3.5705 -0.1165  0.8263
  285MOL0     H38438   4.343   5.991   6.441 -0.5220 -0.0190 -1.0748
  285MOL0     H38439   4.800   5.914   6.789 -2.6722 -2.2508 -1.0110
  285MOL0     H38440   5.032   5.871   6.739  0.8784 -1.4099 -1.8278
  285MOL0     H38441   5.248   5.948   6.720  3.0118  1.8022 -1.7706
  285MOL0     H38442   5.234   5.786   6.646 -1.6466 -0.1739  1.3642
  285MOL0     H38443   5.415   5.801   6.539  1.2771 -0.4625  0.1464
  285MOL0     H38444   5.409   5.968   6.502 -2.0975  0.1018  0.5237
  285MOL0     H38445   5.477   5.890   6.795 -1.8303 -0.1169  0.2034
  285MOL0     H38446   5.470   6.043   6.715 -0.6287 -1.4190  2.2692
  285MOL0     H38447   5.650   5.819   6.658  0.8716 -0.3002 -3.2909
  285MOL0     H38448   5.644   5.959   6.544 -1.5209 -0.7623 -0.7817
  285MOL0     H38449   5.698   5.999   6.849 -0.9615  3.3629 -0.6435
  285MOL0     H38450   5.666   6.115   6.728 -0.4869  0.8522  0.4486
  285MOL0     H38451   5.905   5.913   6.719  2.5635  0.7220  1.8166
  285MOL0     H38452   5.893   6.038   6.607  0.9316 -2.0259 -0.0881
  285MOL0     H38453   5.903   6.085   6.904  2.4280 -0.1684  0.5793
  285MOL0     H38454   5.921   6.217   6.773  1.4248  0.2406 -0.4689
  285MOL0     H38455   6.143   6.073   6.718 -1.2966  1.4834 -1.7932
  285MOL0     H38456   6.116   6.000   6.873 -2.8959 -0.0553  0.6389
  285MOL0     H38457   5.014   6.108   6.385  2.8049 -3.9548 -1.3670
  285MOL0     H38458   4.780   6.153   6.428  1.9509  4.1039  2.5498
  285MOL0     H38459   4.506   6.186   6.861 -0.2680 -1.1691 -0.2417
  285MOL0     H38460   4.312   6.218   6.984 -1.5418 -0.3021 -0.4534
  285MOL0     H38461   2.279   6.254   7.620 -2.0561 -0.9098  1.8049
  285MOL0     H38462   2.234   6.112   7.826  1.3261 -0.8102 -2.2679
  285MOL0     H38463   2.613   5.831   8.183 -0.6143 -0.6142 -1.4433
  285MOL0     H38464   2.560   5.687   8.380 -0.1877 -0.4177 -1.8712
  285MOL0     H38465   2.373   5.887   8.668  0.3835 -0.8765 -3.2457
  285MOL0     H38466   2.427   5.737   8.760  1.7948 -0.6356  0.9484
  285MOL0     H38467   2.598   5.921   8.735 -1.5984 -0.7681  1.2410
  285MOL0     H38468   2.609   5.872   8.574  0.4045  2.0555  0.6393
  285MOL0     H38469   2.644   5.634   8.694  0.9522 -1.1852  0.5199
  285MOL0     H38470   2.668   5.728   8.840 -0.1027 -1.0694  0.0138
  285MOL0     H38471   2.886   5.709   8.739  0.2415 -0.7497 -1.1511
  285MOL0     H38472   2.818   5.879   8.702 -1.0968  0.0419  0.8917
  285MOL0     H38473   2.871   5.682   8.318  0.8850  0.9750 -0.1476
  285MOL0     H38474   2.197   5.905   8.456  0.0521  0.0323  0.6381
  285MOL0     H38475   2.247   6.055   8.262  0.6952  1.3761 -0.7058
  286MOL0     O38476   2.525   5.765   2.070 -0.6421 -0.0501  0.4161
  286MOL0     C38477   2.602   5.682   2.016  0.5257 -0.8515  0.2697
  286MOL0     O38478   2.581   5.548   1.999  0.5963 -0.1611  0.3114
  286MOL0     C38479   2.459   5.481   2.021  0.8237 -0.1716 -0.2296
  286MOL0     C38480   2.374   5.507   2.125  0.6119  0.1802  0.0821
  286MOL0     C38481   2.247   5.452   2.132  0.4244 -0.0407 -0.4829
  286MOL0     C38482   2.215   5.343   2.049 -0.2031 -0.1882  0.5024
  286MOL0     O38483   2.094   5.286   2.042  0.0326  0.3813 -1.5248
  286MOL0     C38484   1.985   5.351   2.099  0.1512  1.0454 -0.4654
  286MOL0     C38485   1.859   5.288   2.039 -0.0026  0.2440 -1.0491
  286MOL0     C38486   1.773   5.387   1.963  0.0235 -0.0012  0.9314
  286MOL0     C38487   1.661   5.315   1.882  0.7809 -0.0566 -0.1850
  286MOL0     C38488   1.541   5.406   1.873  0.0722  0.3845  0.4366
  286MOL0     C38489   1.424   5.341   1.781  0.9125  0.1575 -0.3831
  286MOL0     C38490   1.313   5.443   1.777 -0.4147  0.8310  1.0561
  286MOL0     C38491   1.175   5.380   1.756  0.1490 -0.4486  0.1784
  286MOL0     N38492   1.077   5.480   1.704 -0.7191 -0.1553  0.1373
  286MOL0     C38493   1.087   5.587   1.607 -0.0501  0.3808 -0.2361
  286MOL0     C38494   0.965   5.615   1.570  0.8257 -0.1776  0.1086
  286MOL0     C38495   0.919   5.711   1.466  0.1635  0.2817 -0.8548
  286MOL0     C38496   0.798   5.660   1.392 -0.2697  0.5187  0.0393
  286MOL0     C38497   0.843   5.536   1.312 -1.0440  0.2228 -0.0429
  286MOL0     C38498   0.748   5.486   1.193  0.3051 -0.3745 -1.2170
  286MOL0     O38499   0.710   5.585   1.094  0.2020  0.1009 -0.1324
  286MOL0     C38500   0.582   5.590   1.050 -0.8557  0.6594  0.5587
  286MOL0     C38501   0.524   5.710   1.027 -0.6147  0.0501 -0.1496
  286MOL0     C38502   0.390   5.709   0.985 -0.7222  1.0010  0.1282
  286MOL0     C38503   0.320   5.842   0.970  0.1846 -0.5529  0.1317
  286MOL0     C38504   0.317   5.594   0.946  0.2449 -0.1836 -1.0245
  286MOL0     C38505   0.179   5.593   0.897  0.6693  0.1967  0.7430
  286MOL0     O38506   0.080   5.676   0.965  0.2328  0.3874 -0.0263
  286MOL0     C38507  -0.045   5.679   0.931 -0.8120 -0.1468 -0.1363
  286MOL0     C38508  -0.103   5.801   0.891  0.2470 -0.3568  0.8149
  286MOL0     C38509  -0.238   5.805   0.857 -0.4385  0.0902 -0.3633
  286MOL0     C38510  -0.321   5.691   0.874 -0.4687 -0.2795 -0.4969
  286MOL0     O38511  -0.459   5.686   0.855 -0.0041  0.2870 -0.1499
  286MOL0     C38512  -0.531   5.806   0.818 -0.1774  0.1865 -0.3960
  286MOL0     C38513  -0.662   5.807   0.902 -0.3796 -0.3909  0.2320
  286MOL0     C38514  -0.745   5.933   0.869  0.0337  0.6736 -0.5894
  286MOL0     C38515  -0.847   5.969   0.984  0.2272 -0.4350  0.3338
  286MOL0     C38516  -0.932   6.088   0.945 -0.2439  0.2833  0.0863
  286MOL0     C38517  -1.035   6.109   1.060 -0.0082  0.1127  0.4378
  286MOL0     C38518  -1.108   6.240   1.028 -0.7004 -0.2046 -0.0055
  286MOL0     C38519  -1.231   6.199   0.944  0.7721  0.4601 -0.7150
  286MOL0    Cl38520  -1.361   6.325   0.958  0.1999 -0.1777  0.2131
  286MOL0     C38521  -0.260   5.568   0.907 -0.2909  0.2177  0.0099
  286MOL0     C38522  -0.124   5.567   0.928  0.1105 -0.4664 -0.5492
  286MOL0     O38523   0.163   5.533   0.788  0.4922  0.5247 -0.2616
  286MOL0     C38524   0.387   5.471   0.962  0.0181 -0.0333  0.2053
  286MOL0     C38525   0.515   5.473   1.024 -0.4392  0.2552 -0.3821
  286MOL0     N38526   0.879   5.540   1.649  0.6293 -0.4245 -0.0149
  286MOL0     N38527   0.944   5.452   1.714 -0.3347 -0.3024 -0.6817
  286MOL0     C38528   2.310   5.301   1.954  0.6824 -0.9315  0.1618
  286MOL0     C38529   2.430   5.366   1.936 -0.2266  0.4530 -0.0937
  286MOL0     C38530   2.716   5.739   1.937 -0.0382  0.9418 -0.2614
  286MOL0     C38531   2.811   5.653   1.881 -0.1717 -0.1729  0.2766
  286MOL0     C38532   2.931   5.703   1.828 -0.0664 -0.3621 -0.9849
  286MOL0     C38533   2.952   5.843   1.823  0.1110  0.1081  0.7662
  286MOL0     O38534   3.071   5.887   1.765 -0.2355 -0.3312  0.0443
  286MOL0     C38535   3.195   5.863   1.830 -0.0591 -0.5544 -1.3175
  286MOL0     C38536   3.309   5.897   1.732  0.2953  0.1859 -0.1803
  286MOL0     C38537   3.444   5.847   1.786  0.3052 -0.0678 -0.4393
  286MOL0     C38538   3.544   5.885   1.678  0.0100  0.1720  0.0753
  286MOL0     C38539   3.675   5.869   1.727 -0.4448  0.6028  0.0269
  286MOL0     C38540   3.787   5.849   1.776 -0.5896  0.1296 -0.2870
  286MOL0     C38541   2.853   5.930   1.869 -0.1570  0.6170 -0.0796
  286MOL0     C38542   2.734   5.876   1.927  0.0087 -0.3682  0.4585
  286MOL0     H38543   2.394   5.588   2.195 -1.1734 -1.0964  2.1456
  286MOL0     H38544   2.177   5.488   2.207  0.7686 -4.0045  1.9954
  286MOL0     H38545   1.980   5.350   2.209 -0.1344  0.7861 -0.4799
  286MOL0     H38546   1.981   5.459   2.080 -1.9066  0.9971 -0.4915
  286MOL0     H38547   1.892   5.200   1.983 -0.0669 -2.8245  3.2432
  286MOL0     H38548   1.799   5.248   2.121  1.1089  2.8844  1.2269
  286MOL0     H38549   1.721   5.455   2.030 -0.4839 -0.8659  1.4333
  286MOL0     H38550   1.836   5.444   1.894  0.3462  0.8842  1.9299
  286MOL0     H38551   1.684   5.286   1.779  1.1380  0.8821 -0.3820
  286MOL0     H38552   1.642   5.222   1.936 -1.0268  0.4617  0.1239
  286MOL0     H38553   1.501   5.425   1.973 -1.1710  1.3849 -0.2077
  286MOL0     H38554   1.567   5.505   1.836  2.1642 -0.4754 -0.5325
  286MOL0     H38555   1.455   5.328   1.677 -2.7827 -0.7793 -1.5045
  286MOL0     H38556   1.391   5.243   1.817 -1.2270  1.1630  0.5865
  286MOL0     H38557   1.319   5.504   1.868 -0.0958  1.8159  0.3994
  286MOL0     H38558   1.334   5.509   1.692  0.6372  2.2124  2.3250
  286MOL0     H38559   1.131   5.333   1.844 -0.9047  0.4190  0.1343
  286MOL0     H38560   1.196   5.302   1.682 -0.1951  0.2145 -0.6271
  286MOL0     H38561   1.175   5.628   1.557 -0.5018  0.6897 -0.7876
  286MOL0     H38562   0.891   5.802   1.520 -3.3721 -0.9879 -0.3027
  286MOL0     H38563   0.999   5.717   1.392  0.8609 -1.1729 -0.2706
  286MOL0     H38564   0.760   5.731   1.319 -1.0122 -3.0617 -3.3870
  286MOL0     H38565   0.718   5.639   1.464  0.5172 -1.4388  0.4158
  286MOL0     H38566   0.859   5.450   1.378  0.4187  1.9630  2.0044
  286MOL0     H38567   0.928   5.559   1.248 -2.3529  1.7061 -1.3510
  286MOL0     H38568   0.664   5.448   1.252 -0.5918  2.6089 -0.4030
  286MOL0     H38569   0.796   5.404   1.138 -0.4621 -1.6313 -0.0917
  286MOL0     H38570   0.572   5.804   1.052 -2.3412  0.8398  0.3374
  286MOL0     H38571   0.258   5.875   1.055 -1.2456  2.6099 -1.9353
  286MOL0     H38572   0.392   5.924   0.959 -1.6637  1.2066  0.3239
  286MOL0     H38573   0.249   5.859   0.889  0.0461 -0.5869  0.2449
  286MOL0     H38574  -0.050   5.896   0.885 -0.3031 -0.1393 -2.2702
  286MOL0     H38575  -0.279   5.903   0.834 -0.4271  0.0639 -0.4891
  286MOL0     H38576  -0.470   5.891   0.851  1.3461 -0.7856 -0.5979
  286MOL0     H38577  -0.552   5.820   0.712 -0.4061  0.0679 -0.3670
  286MOL0     H38578  -0.725   5.718   0.889 -1.3267 -0.0621  2.1916
  286MOL0     H38579  -0.629   5.803   1.006 -2.4663 -1.3747  0.9183
  286MOL0     H38580  -0.800   5.925   0.775 -1.6144  0.5625  0.3432
  286MOL0     H38581  -0.670   6.012   0.861 -0.2619  1.2230  1.5904
  286MOL0     H38582  -0.913   5.885   1.007  1.4191 -0.2438  5.7696
  286MOL0     H38583  -0.799   6.004   1.076  3.1208 -0.2057 -1.1272
  286MOL0     H38584  -0.977   6.064   0.848  1.2871  0.4561 -0.6866
  286MOL0     H38585  -0.869   6.176   0.935  2.3956 -1.7677 -4.4955
  286MOL0     H38586  -1.089   6.014   1.057  2.3388 -1.2909 -0.5530
  286MOL0     H38587  -0.983   6.125   1.155 -0.8011  3.3143  0.4594
  286MOL0     H38588  -1.050   6.319   0.979 -0.0816  2.1791  4.1163
  286MOL0     H38589  -1.140   6.280   1.124  2.1389  4.0464 -0.5192
  286MOL0     H38590  -1.267   6.101   0.978  1.9540  1.3765  3.7385
  286MOL0     H38591  -1.207   6.198   0.837 -1.4945  3.4306 -1.4026
  286MOL0     H38592  -0.322   5.480   0.916 -0.5200  0.5600  2.0349
  286MOL0     H38593  -0.084   5.475   0.970  0.4234 -0.7993 -1.5406
  286MOL0     H38594   0.343   5.376   0.934  2.7556 -0.8049 -2.0086
  286MOL0     H38595   0.572   5.383   1.045 -0.8523  0.6203  2.6844
  286MOL0     H38596   2.290   5.220   1.885  0.0786 -0.4840 -0.1934
  286MOL0     H38597   2.489   5.332   1.852  1.5011 -2.4980  2.1301
  286MOL0     H38598   2.791   5.547   1.885 -1.1004 -0.0569 -0.8780
  286MOL0     H38599   3.013   5.647   1.784  1.0113  1.5382 -1.5512
  286MOL0     H38600   3.188   5.924   1.921 -0.5703 -2.6573  0.1217
  286MOL0     H38601   3.213   5.768   1.881  0.1332  1.0876  1.9407
  286MOL0     H38602   3.316   6.005   1.716  2.0879  0.3766  1.5359
  286MOL0     H38603   3.286   5.840   1.641  1.7545  2.7106 -2.2698
  286MOL0     H38604   3.457   5.739   1.794  3.4967  0.0382 -2.3866
  286MOL0     H38605   3.461   5.897   1.882 -3.0208  0.6768 -0.1104
  286MOL0     H38606   3.524   5.987   1.646 -0.6181  0.5799  1.6449
  286MOL0     H38607   3.529   5.833   1.584 -0.0707  2.4578 -1.2519
  286MOL0     H38608   3.884   5.818   1.809 -0.8336 -1.8901 -1.3424
  286MOL0     H38609   2.858   6.038   1.859 -1.7558  0.9608  2.1131
  286MOL0     H38610   2.677   5.948   1.985  4.2574  3.4612  0.4207
  287MOL0     O38611  10.694   3.505   5.826 -0.1357 -0.1727  0.3462
  287MOL0     C38612  10.683   3.427   5.920  0.2618  0.4232 -0.6311
  287MOL0     O38613  10.582   3.351   5.941  0.8287 -0.5642  0.4936
  287MOL0     C38614  10.462   3.391   5.877 -0.0171 -0.2458 -0.3829
  287MOL0     C38615  10.360   3.464   5.944 -0.3825  0.8166  0.4374
  287MOL0     C38616  10.236   3.487   5.886  0.0241 -0.4985 -0.3664
  287MOL0     C38617  10.221   3.457   5.748 -0.1341  0.2774 -0.2405
  287MOL0     O38618  10.104   3.466   5.679  0.1235  0.5667  0.2833
  287MOL0     C38619   9.994   3.532   5.741 -0.1822 -0.7314 -0.2217
  287MOL0     C38620   9.876   3.497   5.652 -0.1039  0.0923  0.1411
  287MOL0     C38621   9.752   3.587   5.683  0.1828  0.5558 -0.8591
  287MOL0     C38622   9.633   3.525   5.620  0.6220 -0.0214 -0.6693
  287MOL0     C38623   9.498   3.589   5.675  0.2731  0.5742  0.2363
  287MOL0     C38624   9.375   3.513   5.628 -0.8165 -0.7803 -0.4773
  287MOL0     C38625   9.255   3.591   5.668  0.3199  0.3102  1.1870
  287MOL0     C38626   9.132   3.531   5.597  0.0181  0.0939  0.3511
  287MOL0     N38627   9.012   3.585   5.654  0.2110  0.8684 -0.0914
  287MOL0     C38628   8.950   3.544   5.770  0.3301 -1.5615 -0.1906
  287MOL0     C38629   8.820   3.570   5.753  1.2018 -0.2446  0.0191
  287MOL0     C38630   8.710   3.532   5.853  0.4527 -0.8369 -0.2254
  287MOL0     C38631   8.596   3.461   5.793  0.0172  0.3756  0.3006
  287MOL0     C38632   8.511   3.526   5.691 -0.7402  1.4244  0.6128
  287MOL0     C38633   8.382   3.452   5.671 -0.2357  0.7901  0.1412
  287MOL0     O38634   8.403   3.331   5.596 -0.1660  0.0304 -0.2289
  287MOL0     C38635   8.299   3.249   5.571  0.6693  0.2682 -0.7944
  287MOL0     C38636   8.325   3.112   5.545  0.9383 -0.0496  0.3317
  287MOL0     C38637   8.227   3.029   5.478 -0.3857 -0.7776  0.1125
  287MOL0     C38638   8.268   2.887   5.433  0.5656 -0.1586  0.5341
  287MOL0     C38639   8.097   3.080   5.457 -0.2001 -0.5075 -0.3106
  287MOL0     C38640   7.993   3.001   5.389  0.5139  0.6440  0.3334
  287MOL0     O38641   7.985   2.869   5.417 -0.4851 -0.5100  0.2975
  287MOL0     C38642   7.886   2.796   5.346 -0.1685 -0.2189 -0.1379
  287MOL0     C38643   7.770   2.778   5.416  0.0998  0.6172 -0.3097
  287MOL0     C38644   7.662   2.695   5.371  0.0912 -0.3043  0.4566
  287MOL0     C38645   7.672   2.648   5.242 -0.6824 -0.9091 -0.7466
  287MOL0     O38646   7.583   2.578   5.168  0.1386 -0.1195  0.0297
  287MOL0     C38647   7.476   2.507   5.232 -0.0496 -0.5214 -0.1667
  287MOL0     C38648   7.404   2.416   5.129 -0.2982  1.2927  0.3397
  287MOL0     C38649   7.267   2.379   5.185 -0.7098  0.3791  0.1096
  287MOL0     C38650   7.284   2.258   5.286 -0.2015 -0.4410 -0.3097
  287MOL0     C38651   7.150   2.222   5.353  0.9148 -0.0901 -0.2522
  287MOL0     C38652   7.184   2.115   5.461 -0.2271  0.4931  0.2350
  287MOL0     C38653   7.079   2.097   5.570  0.3134 -0.4279 -0.0243
  287MOL0     C38654   6.954   2.024   5.517  0.6747  0.0094 -1.1712
  287MOL0    Cl38655   6.847   2.041   5.659  0.5516 -0.4047 -0.2171
  287MOL0     C38656   7.788   2.675   5.167 -1.3085 -0.3010  0.6945
  287MOL0     C38657   7.898   2.743   5.220 -0.0901 -0.2609 -0.0150
  287MOL0     O38658   7.926   3.063   5.310  0.3936  0.3693 -0.3488
  287MOL0     C38659   8.066   3.217   5.494  0.2507  0.3981  0.0035
  287MOL0     C38660   8.164   3.294   5.552  0.4165  0.4931 -0.6598
  287MOL0     N38661   8.802   3.630   5.631 -0.0007  0.1880  0.2851
  287MOL0     N38662   8.915   3.645   5.573  0.5596 -0.7242  0.3175
  287MOL0     C38663  10.322   3.389   5.681 -0.0534 -0.1281 -0.8539
  287MOL0     C38664  10.439   3.361   5.746  0.0545  0.5615 -0.3488
  287MOL0     C38665  10.799   3.413   6.016  0.4739 -0.5116 -0.3583
  287MOL0     C38666  10.779   3.335   6.130  0.7800  0.7681  0.5895
  287MOL0     C38667  10.880   3.311   6.219  0.2896 -0.0894 -0.1499
  287MOL0     C38668  11.011   3.367   6.189 -0.9869  0.7178  0.5239
  287MOL0     O38669  11.133   3.345   6.262  0.4206 -0.6047 -0.0037
  287MOL0     C38670  11.127   3.367   6.410 -0.0040 -0.4150 -0.3424
  287MOL0     C38671  11.148   3.239   6.487 -0.2915  0.4559  0.1542
  287MOL0     C38672  11.140   3.255   6.637 -0.6170  0.5879  0.5024
  287MOL0     C38673  10.995   3.275   6.681  0.1014 -0.4894  0.4314
  287MOL0     C38674  10.978   3.247   6.823 -0.4893 -0.3539 -0.1321
  287MOL0     C38675  10.972   3.244   6.946  0.1256  0.4499 -0.3574
  287MOL0     C38676  11.034   3.427   6.068  0.5375 -0.3273 -0.5217
  287MOL0     C38677  10.933   3.468   5.990  0.8440 -0.4278 -0.2159
  287MOL0     H38678  10.374   3.502   6.045  0.7697  2.6011 -0.3632
  287MOL0     H38679  10.158   3.537   5.943  0.0869 -1.8891  1.0064
  287MOL0     H38680   9.978   3.491   5.841 -0.0689 -0.1478  0.0407
  287MOL0     H38681  10.006   3.639   5.758  2.5384 -1.4206  3.4488
  287MOL0     H38682   9.898   3.505   5.546 -0.9310 -0.9944 -0.1199
  287MOL0     H38683   9.851   3.396   5.685 -1.9702  0.4312 -0.1450
  287MOL0     H38684   9.748   3.610   5.790  1.2752  0.6866 -0.8430
  287MOL0     H38685   9.771   3.685   5.640  1.2385  0.7657  0.0669
  287MOL0     H38686   9.632   3.553   5.514  0.1521  0.5361 -0.5262
  287MOL0     H38687   9.622   3.417   5.629  2.5812 -0.1582  0.7133
  287MOL0     H38688   9.496   3.574   5.783 -0.6361  1.8414  0.4299
  287MOL0     H38689   9.504   3.698   5.664 -1.9725  0.6550 -0.7979
  287MOL0     H38690   9.381   3.498   5.520  1.6149  0.6776 -0.6120
  287MOL0     H38691   9.373   3.411   5.667  1.8394 -1.6980 -2.4647
  287MOL0     H38692   9.252   3.571   5.776 -0.8206 -1.0875  0.9411
  287MOL0     H38693   9.274   3.694   5.636  1.1188  0.3081  1.6418
  287MOL0     H38694   9.145   3.423   5.602 -2.2574 -0.4136 -2.1320
  287MOL0     H38695   9.135   3.542   5.488 -2.5155 -1.1531  0.0676
  287MOL0     H38696   9.002   3.507   5.857 -0.3987  3.0292  2.5403
  287MOL0     H38697   8.757   3.474   5.933 -1.0017  2.0502  2.9616
  287MOL0     H38698   8.686   3.624   5.907  2.4896 -0.6841  0.5006
  287MOL0     H38699   8.530   3.429   5.873 -0.3227 -2.6469 -1.0784
  287MOL0     H38700   8.635   3.364   5.762 -1.2431 -0.4966  1.3421
  287MOL0     H38701   8.566   3.523   5.597  2.4628 -2.1064  2.3316
  287MOL0     H38702   8.489   3.629   5.721  0.0255  1.8022 -0.0972
  287MOL0     H38703   8.324   3.528   5.619  2.0447  2.3749 -0.2231
  287MOL0     H38704   8.326   3.427   5.762 -0.0774 -1.9256 -0.4241
  287MOL0     H38705   8.427   3.076   5.543  1.1442  0.5136  0.6962
  287MOL0     H38706   8.239   2.866   5.330  0.5555 -2.3950  0.9373
  287MOL0     H38707   8.377   2.886   5.439  0.5912 -1.2012  0.0941
  287MOL0     H38708   8.229   2.810   5.501 -2.5060  1.4700  0.8140
  287MOL0     H38709   7.758   2.831   5.511 -0.0757  1.9150 -1.0250
  287MOL0     H38710   7.583   2.656   5.433 -0.6315  1.2169  0.5508
  287MOL0     H38711   7.520   2.445   5.310  0.7130 -0.0079 -0.1775
  287MOL0     H38712   7.404   2.581   5.268  0.3281 -0.7277  1.0727
  287MOL0     H38713   7.374   2.466   5.036 -1.9746 -2.7929 -1.5812
  287MOL0     H38714   7.476   2.335   5.112 -2.0463 -0.5916  1.5552
  287MOL0     H38715   7.202   2.351   5.102 -3.9473  1.0160  2.2549
  287MOL0     H38716   7.222   2.467   5.234  1.4051  0.2729  2.4438
  287MOL0     H38717   7.334   2.170   5.244  0.1294 -0.7929  0.8023
  287MOL0     H38718   7.353   2.288   5.365 -0.6688 -1.8590  0.6655
  287MOL0     H38719   7.079   2.175   5.284  0.6534  0.1700 -0.1622
  287MOL0     H38720   7.101   2.305   5.403 -0.6143 -2.0711  1.7181
  287MOL0     H38721   7.198   2.016   5.419 -1.6438  0.0842  0.6610
  287MOL0     H38722   7.280   2.141   5.508  0.7185  0.5828 -1.6717
  287MOL0     H38723   7.063   2.194   5.619 -1.8974 -1.0294  0.5608
  287MOL0     H38724   7.125   2.032   5.645  1.1556  1.6001  1.3110
  287MOL0     H38725   6.971   1.917   5.505 -0.5418 -0.3057 -0.3177
  287MOL0     H38726   6.915   2.071   5.426 -1.6373  0.5448  0.0312
  287MOL0     H38727   7.789   2.629   5.068 -1.5643 -1.3496  1.1618
  287MOL0     H38728   7.989   2.766   5.166 -0.8989  1.5412 -0.6802
  287MOL0     H38729   7.968   3.263   5.496  0.3423  0.5673  1.0128
  287MOL0     H38730   8.140   3.398   5.570  0.3279  0.4311 -0.4175
  287MOL0     H38731  10.308   3.360   5.578 -1.2286 -2.0582 -0.2039
  287MOL0     H38732  10.525   3.318   5.697  0.3654 -1.0538  1.4423
  287MOL0     H38733  10.680   3.296   6.150  0.4906  1.0301 -0.2904
  287MOL0     H38734  10.874   3.250   6.308  0.0385  0.6113  0.3244
  287MOL0     H38735  11.213   3.430   6.436  0.0992 -1.1625  1.1809
  287MOL0     H38736  11.031   3.419   6.422  1.0768  1.3174  1.2817
  287MOL0     H38737  11.247   3.195   6.472 -0.7116 -0.7033  0.6438
  287MOL0     H38738  11.077   3.162   6.454  0.4300  0.1881 -0.8047
  287MOL0     H38739  11.200   3.340   6.671  1.2166 -0.8450  1.0035
  287MOL0     H38740  11.181   3.161   6.676 -2.0092 -1.0662 -1.7932
  287MOL0     H38741  10.934   3.208   6.620 -1.1508 -0.0370  1.1374
  287MOL0     H38742  10.974   3.381   6.666  3.0146 -0.0358 -1.2612
  287MOL0     H38743  10.995   3.271   7.048 -1.2805  2.1689 -0.4543
  287MOL0     H38744  11.138   3.452   6.046  0.3556  1.1542  0.2211
  287MOL0     H38745  10.947   3.522   5.897 -2.3526 -0.3288 -0.7665
  288MOL0     O38746   2.260   3.235   9.382  0.2985  0.2238  0.1931
  288MOL0     C38747   2.357   3.308   9.345 -1.0177  0.7502 -0.3745
  288MOL0     O38748   2.350   3.430   9.291  0.2427  0.1155 -0.2003
  288MOL0     C38749   2.220   3.475   9.253 -0.8770  0.0298 -0.4444
  288MOL0     C38750   2.211   3.528   9.127 -0.2570 -0.5223  0.0971
  288MOL0     C38751   2.085   3.571   9.081  0.1264 -0.0285 -0.1280
  288MOL0     C38752   1.968   3.569   9.162 -0.1978  0.5598 -0.0678
  288MOL0     O38753   1.854   3.628   9.116  0.1324  0.0459 -0.2778
  288MOL0     C38754   1.746   3.546   9.084 -0.0475 -0.8679  0.0889
  288MOL0     C38755   1.624   3.638   9.068  0.4899 -0.6122 -0.0622
  288MOL0     C38756   1.495   3.550   9.077 -0.2852 -0.5235 -0.1842
  288MOL0     C38757   1.373   3.645   9.090  0.3254  0.3416 -0.4073
  288MOL0     C38758   1.261   3.584   9.173  0.3985  0.7575  0.9618
  288MOL0     C38759   1.123   3.662   9.151  0.5250 -0.2867  0.8594
  288MOL0     C38760   1.040   3.589   9.043  0.7267  0.1005  0.4646
  288MOL0     C38761   0.914   3.670   9.015  0.3561  0.4480 -0.4120
  288MOL0     N38762   0.785   3.597   9.024 -0.4645  0.2493  0.1245
  288MOL0     C38763   0.744   3.479   8.967  0.4990 -0.2983  0.2985
  288MOL0     C38764   0.619   3.471   8.996  0.9467  0.1061 -0.1315
  288MOL0     C38765   0.526   3.366   8.952  0.1074  0.0217 -0.0804
  288MOL0     C38766   0.449   3.424   8.830 -0.4704  0.0721 -0.0358
  288MOL0     C38767   0.354   3.536   8.859  0.9442  0.3596 -0.2735
  288MOL0     C38768   0.261   3.502   8.976 -0.3505  0.5440 -0.2630
  288MOL0     O38769   0.173   3.602   9.016  0.0856  0.0588 -0.2600
  288MOL0     C38770   0.071   3.649   8.936 -0.1806 -0.2256  1.2232
  288MOL0     C38771   0.082   3.777   8.877  0.5169  0.1141 -1.2726
  288MOL0     C38772  -0.035   3.823   8.809 -0.3687  0.2560 -0.2745
  288MOL0     C38773  -0.026   3.954   8.735  0.6865  0.8348 -0.2500
  288MOL0     C38774  -0.156   3.748   8.812 -0.3291 -0.8046  0.4642
  288MOL0     C38775  -0.276   3.780   8.736 -0.0374 -0.0569  0.1550
  288MOL0     O38776  -0.396   3.759   8.799 -0.0191 -0.2415 -0.3416
  288MOL0     C38777  -0.504   3.757   8.719  0.3494 -0.2890  0.6420
  288MOL0     C38778  -0.562   3.644   8.654 -0.3748  0.1376  0.4956
  288MOL0     C38779  -0.663   3.670   8.562  0.5228  0.0488  0.0749
  288MOL0     C38780  -0.706   3.801   8.524  0.3126  0.4691  0.0298
  288MOL0     O38781  -0.802   3.820   8.433 -0.3989  0.4037 -0.2721
  288MOL0     C38782  -0.914   3.910   8.452 -0.4707  0.0834  0.1894
  288MOL0     C38783  -1.005   3.837   8.549 -0.7942  0.2938 -0.3106
  288MOL0     C38784  -1.079   3.737   8.468 -0.5233  1.1633  0.1113
  288MOL0     C38785  -1.158   3.632   8.550  0.1085 -0.4441 -1.0348
  288MOL0     C38786  -1.235   3.520   8.468  0.2545 -0.1162  0.8403
  288MOL0     C38787  -1.311   3.564   8.346  0.0687 -0.4089  0.3905
  288MOL0     C38788  -1.418   3.676   8.371 -0.4157  0.1131  0.4488
  288MOL0     C38789  -1.525   3.647   8.468 -0.2157 -0.4905  0.1475
  288MOL0    Cl38790  -1.640   3.793   8.469 -0.1184  0.0620  0.5438
  288MOL0     C38791  -0.647   3.904   8.591 -0.3207  0.1146 -0.3770
  288MOL0     C38792  -0.550   3.887   8.691 -0.3034 -0.2843 -0.1790
  288MOL0     O38793  -0.262   3.808   8.622 -0.4089  0.3309  0.0923
  288MOL0     C38794  -0.162   3.621   8.873 -0.2736  0.0342 -0.8172
  288MOL0     C38795  -0.045   3.574   8.941 -0.0837  0.0985  0.2885
  288MOL0     N38796   0.584   3.573   9.082 -0.6878 -0.1564  0.1366
  288MOL0     N38797   0.680   3.647   9.097 -0.4185  0.3919  0.1605
  288MOL0     C38798   1.977   3.521   9.289  0.3379 -0.3155  0.3531
  288MOL0     C38799   2.101   3.476   9.331  0.4056 -0.4595 -0.4601
  288MOL0     C38800   2.502   3.259   9.357  0.5116 -0.1349 -0.0208
  288MOL0     C38801   2.545   3.150   9.441  0.2583  0.4981  0.7295
  288MOL0     C38802   2.684   3.108   9.438  0.1996 -0.3881 -0.5048
  288MOL0     C38803   2.782   3.179   9.366 -0.6598  0.7955 -0.6765
  288MOL0     O38804   2.918   3.144   9.369  0.2622 -0.1394  0.7678
  288MOL0     C38805   3.002   3.172   9.479  1.2944 -0.2507 -0.0653
  288MOL0     C38806   3.148   3.204   9.432  0.6793 -0.2319  0.5115
  288MOL0     C38807   3.136   3.336   9.352  0.2443  0.6085 -0.5062
  288MOL0     C38808   3.281   3.401   9.335 -0.9442  0.2709  0.0216
  288MOL0     C38809   3.288   3.546   9.348 -0.1375  0.4382  0.0769
  288MOL0     C38810   3.292   3.665   9.374 -0.1409 -0.7213 -0.2501
  288MOL0     C38811   2.736   3.282   9.286  0.0443 -0.5553  0.0451
  288MOL0     C38812   2.602   3.329   9.279  0.3309 -0.5944 -0.9196
  288MOL0     H38813   2.306   3.543   9.077  0.7204 -0.3366  1.9080
  288MOL0     H38814   2.075   3.603   8.978 -0.9160  1.2955  0.3557
  288MOL0     H38815   1.767   3.487   8.994 -1.3032 -0.3192 -0.5755
  288MOL0     H38816   1.730   3.480   9.170  0.7234 -0.7001  0.3721
  288MOL0     H38817   1.615   3.705   9.154 -0.0079 -0.9455  0.1471
  288MOL0     H38818   1.626   3.686   8.970  0.7041  0.1598  0.3084
  288MOL0     H38819   1.488   3.491   8.986  5.4162 -2.2044  0.0775
  288MOL0     H38820   1.506   3.485   9.165 -2.4303  0.9422  1.2575
  288MOL0     H38821   1.396   3.734   9.150  0.7759 -0.5916  0.8399
  288MOL0     H38822   1.330   3.670   8.992  1.2088 -1.3471 -1.2581
  288MOL0     H38823   1.251   3.478   9.148 -0.4404  0.5599  2.0437
  288MOL0     H38824   1.278   3.586   9.281 -0.8018 -2.7038  1.3395
  288MOL0     H38825   1.070   3.654   9.246  1.3427 -1.8948  1.2191
  288MOL0     H38826   1.137   3.767   9.126  0.7653 -0.8515 -1.6767
  288MOL0     H38827   1.103   3.587   8.954 -2.7829 -0.6547 -2.2479
  288MOL0     H38828   1.038   3.480   9.056  4.3141 -0.6179 -3.1880
  288MOL0     H38829   0.924   3.707   8.912  1.2217  0.1287 -0.4543
  288MOL0     H38830   0.913   3.754   9.085 -2.2602 -1.2765  1.8493
  288MOL0     H38831   0.800   3.417   8.898  2.1340  0.1091  1.2009
  288MOL0     H38832   0.584   3.278   8.922 -2.3137 -1.0473 -2.0549
  288MOL0     H38833   0.451   3.344   9.029  0.2129 -2.6458 -0.6407
  288MOL0     H38834   0.400   3.343   8.776  0.1418 -0.6430  0.4586
  288MOL0     H38835   0.526   3.470   8.767 -0.4874 -0.5156 -0.4867
  288MOL0     H38836   0.299   3.541   8.765 -0.0560  3.2370  0.3644
  288MOL0     H38837   0.404   3.629   8.886 -0.3992  0.4851  2.0476
  288MOL0     H38838   0.321   3.499   9.067 -0.9719 -0.4463  0.1254
  288MOL0     H38839   0.200   3.414   8.950 -0.1379 -0.3185  1.9329
  288MOL0     H38840   0.174   3.834   8.883  0.1520  0.5385  2.1883
  288MOL0     H38841  -0.113   4.020   8.732 -0.2055 -0.3058 -0.1924
  288MOL0     H38842   0.053   4.008   8.788  0.5725 -0.7428  1.6269
  288MOL0     H38843  -0.001   3.931   8.631 -2.1474  0.9636 -1.0522
  288MOL0     H38844  -0.543   3.542   8.685 -1.0768  0.3711  1.7641
  288MOL0     H38845  -0.714   3.587   8.515  1.6293 -0.6243  0.0215
  288MOL0     H38846  -0.872   4.005   8.486  2.6072 -1.2803  0.5659
  288MOL0     H38847  -0.962   3.922   8.354  0.4761  1.8643 -0.1070
  288MOL0     H38848  -0.950   3.783   8.626 -2.4848 -2.7602 -1.0972
  288MOL0     H38849  -1.063   3.911   8.605 -0.1862 -1.4613  2.8723
  288MOL0     H38850  -1.010   3.674   8.411 -0.4296  0.1097  1.3601
  288MOL0     H38851  -1.139   3.786   8.390  3.1278  0.5649 -3.3965
  288MOL0     H38852  -1.081   3.592   8.616 -0.3495  0.6750  0.2249
  288MOL0     H38853  -1.230   3.678   8.617  2.1298  1.4186 -0.0120
  288MOL0     H38854  -1.309   3.471   8.532 -0.7717  0.4576  0.1284
  288MOL0     H38855  -1.161   3.448   8.431  2.6193  1.1435  2.7866
  288MOL0     H38856  -1.243   3.595   8.266  0.4267 -0.8662  0.5159
  288MOL0     H38857  -1.354   3.475   8.301  1.1109 -0.9503  0.4320
  288MOL0     H38858  -1.464   3.700   8.275  0.8551  3.8296  0.6102
  288MOL0     H38859  -1.371   3.768   8.406  0.1395 -0.5613  1.5378
  288MOL0     H38860  -1.482   3.631   8.567 -0.2914 -2.5867 -0.1264
  288MOL0     H38861  -1.584   3.562   8.435  2.6770 -2.5800  0.0087
  288MOL0     H38862  -0.674   4.007   8.570  1.5507  0.2397 -2.5058
  288MOL0     H38863  -0.508   3.965   8.754 -1.7345 -0.4465  1.0322
  288MOL0     H38864  -0.254   3.563   8.869  1.3049 -2.7221  0.1333
  288MOL0     H38865  -0.044   3.477   8.990  3.7838 -1.6289 -2.6368
  288MOL0     H38866   1.893   3.534   9.358 -0.5942  0.9779 -0.9773
  288MOL0     H38867   2.103   3.436   9.432  1.4500  3.0577  1.0471
  288MOL0     H38868   2.480   3.100   9.512 -0.1498  2.7369  2.0265
  288MOL0     H38869   2.708   3.021   9.499  0.6226  1.4115  2.0948
  288MOL0     H38870   2.960   3.253   9.539  3.7020  0.2100  1.1487
  288MOL0     H38871   3.009   3.083   9.542 -1.8122 -2.0070 -1.9829
  288MOL0     H38872   3.209   3.133   9.375  1.1292 -1.6626  2.6513
  288MOL0     H38873   3.207   3.217   9.523  0.2272 -0.0250  0.7828
  288MOL0     H38874   3.068   3.412   9.393 -0.4080 -1.4653  2.5990
  288MOL0     H38875   3.103   3.315   9.250  1.2345  2.0019 -1.1573
  288MOL0     H38876   3.319   3.372   9.237  0.9153  2.5331 -0.0075
  288MOL0     H38877   3.346   3.358   9.412 -1.3293 -1.0740 -0.3719
  288MOL0     H38878   3.292   3.765   9.413  1.6975 -0.7428 -0.1390
  288MOL0     H38879   2.808   3.325   9.216 -0.0357  1.8524  1.3259
  288MOL0     H38880   2.585   3.416   9.216  0.9044  1.5678  1.7164
  289MOL0     O38881   8.228   4.310   6.536  0.8332  0.0578  0.3854
  289MOL0     C38882   8.226   4.268   6.648  0.6239 -0.5067 -0.6649
  289MOL0     O38883   8.114   4.239   6.725  0.6117  0.5072  0.1084
  289MOL0     C38884   7.982   4.227   6.684  0.5637 -0.4765  0.5173
  289MOL0     C38885   7.929   4.261   6.563 -0.3376 -0.3863 -0.1316
  289MOL0     C38886   7.800   4.246   6.523 -0.0074 -0.1360  0.3990
  289MOL0     C38887   7.701   4.200   6.612  0.7113 -0.7632 -0.0589
  289MOL0     O38888   7.565   4.194   6.568  0.4675 -0.0945 -0.3494
  289MOL0     C38889   7.469   4.177   6.672  0.5341  0.0967  0.0001
  289MOL0     C38890   7.334   4.232   6.620  0.1516  0.0083 -0.0273
  289MOL0     C38891   7.293   4.142   6.501 -0.2249  0.3060  0.4528
  289MOL0     C38892   7.158   4.192   6.451  0.6249 -0.0420 -0.0730
  289MOL0     C38893   7.115   4.104   6.333 -0.3415  0.5334  0.7065
  289MOL0     C38894   6.994   4.159   6.256  0.3903 -0.4386 -0.6773
  289MOL0     C38895   6.948   4.084   6.125 -0.2667  0.2276 -0.7098
  289MOL0     C38896   6.842   4.153   6.050 -0.2804  0.4401 -0.1210
  289MOL0     N38897   6.712   4.140   6.125  0.5446  0.1476 -0.8580
  289MOL0     C38898   6.624   4.031   6.123  0.7737 -0.9499 -0.4746
  289MOL0     C38899   6.523   4.077   6.198  0.2763 -0.6698 -0.4083
  289MOL0     C38900   6.393   4.009   6.199  0.1716 -0.3700 -1.0789
  289MOL0     C38901   6.289   4.081   6.120 -0.2755  0.4430  0.0486
  289MOL0     C38902   6.155   4.006   6.119 -0.2755 -0.0540  0.5145
  289MOL0     C38903   6.068   4.048   6.246 -0.4352 -1.0991 -0.0720
  289MOL0     O38904   5.957   3.964   6.243  0.3020 -0.1505 -0.2440
  289MOL0     C38905   5.843   3.984   6.315 -0.4780 -0.6536 -0.6220
  289MOL0     C38906   5.845   4.061   6.434 -0.3435  0.4683  0.6265
  289MOL0     C38907   5.730   4.093   6.505 -0.4933 -0.3606 -0.3092
  289MOL0     C38908   5.748   4.200   6.620  0.3800  0.6249 -0.8004
  289MOL0     C38909   5.608   4.041   6.460  0.4157  0.6551  0.2089
  289MOL0     C38910   5.476   4.064   6.524  0.3780  0.3703 -0.5525
  289MOL0     O38911   5.390   4.131   6.442  0.3258  0.1663 -0.2273
  289MOL0     C38912   5.266   4.168   6.492 -0.2485 -0.8664 -0.4612
  289MOL0     C38913   5.151   4.098   6.464  0.1679  0.0297 -0.5556
  289MOL0     C38914   5.024   4.126   6.514 -0.0443  0.5340 -0.2343
  289MOL0     C38915   5.012   4.237   6.597 -1.0037  0.0781 -0.6739
  289MOL0     O38916   4.885   4.264   6.625 -0.2917  0.1972 -0.4112
  289MOL0     C38917   4.866   4.378   6.711  1.2079  0.3898  0.5479
  289MOL0     C38918   4.710   4.392   6.704 -0.4451  0.1118  0.2059
  289MOL0     C38919   4.659   4.466   6.584 -0.7650 -0.9802  0.0387
  289MOL0     C38920   4.507   4.476   6.579  0.1022  0.4053 -0.4152
  289MOL0     C38921   4.467   4.513   6.439  0.1844 -0.5052  0.5659
  289MOL0     C38922   4.328   4.555   6.441  0.6097 -0.3571  0.3040
  289MOL0     C38923   4.284   4.593   6.306 -0.2200  0.5724 -0.6383
  289MOL0     C38924   4.136   4.628   6.300  1.2771  0.2689 -0.5894
  289MOL0    Cl38925   4.015   4.536   6.419 -0.2771  0.4895 -0.0588
  289MOL0     C38926   5.125   4.307   6.636 -0.8343 -0.4502 -0.5732
  289MOL0     C38927   5.252   4.272   6.581  0.0584 -0.5596 -0.2192
  289MOL0     O38928   5.455   4.028   6.645 -0.2637  0.2396  0.4852
  289MOL0     C38929   5.603   3.976   6.338 -0.0318 -1.4552  1.3268
  289MOL0     C38930   5.723   3.939   6.266 -0.1274 -0.8901 -0.8990
  289MOL0     N38931   6.549   4.206   6.249  0.1054  0.4489 -0.0779
  289MOL0     N38932   6.660   4.242   6.206 -0.0852 -0.3357  0.0798
  289MOL0     C38933   7.747   4.175   6.743  0.0496 -0.1362 -0.0172
  289MOL0     C38934   7.890   4.179   6.781 -0.9108 -0.5076  0.7271
  289MOL0     C38935   8.357   4.226   6.705 -0.7299 -0.4465  0.4607
  289MOL0     C38936   8.484   4.260   6.640  0.4032  0.9841  0.1477
  289MOL0     C38937   8.606   4.235   6.701  0.7169 -0.2502 -0.2593
  289MOL0     C38938   8.614   4.180   6.831  0.0620 -0.1550 -0.8859
  289MOL0     O38939   8.724   4.164   6.909  0.4792  0.5369 -1.3199
  289MOL0     C38940   8.844   4.142   6.840  0.0827  0.5418  0.0997
  289MOL0     C38941   8.945   4.068   6.933 -0.7761 -0.3430  0.5725
  289MOL0     C38942   8.880   3.947   6.996  0.0218  0.2387 -0.0956
  289MOL0     C38943   8.980   3.860   7.074 -0.2111  0.0611  0.6618
  289MOL0     C38944   9.100   3.825   6.988 -0.8857  0.5699  0.6642
  289MOL0     C38945   9.206   3.774   6.951  0.2992 -0.2403 -0.0966
  289MOL0     C38946   8.493   4.155   6.903  0.1530 -0.1120 -0.5260
  289MOL0     C38947   8.372   4.177   6.838 -0.2939  0.0325 -0.8148
  289MOL0     H38948   7.995   4.299   6.485 -2.4283  1.8208 -0.9613
  289MOL0     H38949   7.772   4.268   6.420 -0.8089 -0.0197  0.6299
  289MOL0     H38950   7.467   4.072   6.704  1.1563 -0.0104 -0.2972
  289MOL0     H38951   7.487   4.236   6.762  0.9549  0.3436 -0.2417
  289MOL0     H38952   7.264   4.222   6.703  0.0675  0.7913  0.0042
  289MOL0     H38953   7.353   4.335   6.590  1.5839 -0.1147  0.3777
  289MOL0     H38954   7.377   4.136   6.431 -1.2556  1.0079 -0.8740
  289MOL0     H38955   7.284   4.042   6.545  0.0735  0.1290  0.1152
  289MOL0     H38956   7.084   4.185   6.532 -0.8861  1.8137 -1.2046
  289MOL0     H38957   7.167   4.293   6.411  0.9341 -0.7591 -1.9021
  289MOL0     H38958   7.200   4.093   6.265 -1.0113  3.1460 -0.6611
  289MOL0     H38959   7.090   4.003   6.367  1.3770  0.7001  2.6587
  289MOL0     H38960   6.911   4.171   6.325  2.0824 -2.8499  1.9878
  289MOL0     H38961   7.020   4.258   6.218  2.0812 -1.4010 -2.2528
  289MOL0     H38962   7.034   4.081   6.058 -0.9833  1.5726 -1.7535
  289MOL0     H38963   6.917   3.984   6.157 -0.0566  0.5812  0.6401
  289MOL0     H38964   6.836   4.094   5.958  2.9656  0.0795 -0.2078
  289MOL0     H38965   6.867   4.257   6.029  1.4079 -0.2442 -1.7495
  289MOL0     H38966   6.628   3.937   6.069 -1.9945 -0.6638 -1.3722
  289MOL0     H38967   6.406   3.906   6.167 -1.8349 -1.0652  0.1958
  289MOL0     H38968   6.360   4.000   6.303 -0.5369 -2.5926 -1.4456
  289MOL0     H38969   6.328   4.090   6.018  0.1846  0.6419  0.2409
  289MOL0     H38970   6.272   4.186   6.143 -0.7497  0.3812  0.0029
  289MOL0     H38971   6.171   3.898   6.122  1.5489  0.1489 -0.4885
  289MOL0     H38972   6.108   4.031   6.024 -0.5334  0.9977  0.9059
  289MOL0     H38973   6.036   4.152   6.244 -0.9762 -1.2530 -1.9027
  289MOL0     H38974   6.119   4.010   6.335 -0.9423  0.7440  1.0509
  289MOL0     H38975   5.935   4.116   6.459 -0.0313  0.1878  0.1394
  289MOL0     H38976   5.697   4.294   6.600  1.9132  1.9057  0.9698
  289MOL0     H38977   5.692   4.169   6.709  2.6274  0.4775  0.6581
  289MOL0     H38978   5.852   4.208   6.652  1.5384  3.7162 -4.6397
  289MOL0     H38979   5.153   4.018   6.391  0.8665  0.7532 -1.3593
  289MOL0     H38980   4.941   4.063   6.484 -1.3004  1.7208  0.5985
  289MOL0     H38981   4.899   4.361   6.814  4.4429  2.3266 -0.0394
  289MOL0     H38982   4.915   4.469   6.675 -0.2442  1.3525  0.8840
  289MOL0     H38983   4.656   4.296   6.708 -3.3011  1.5434 -1.1930
  289MOL0     H38984   4.672   4.447   6.791  0.1557  0.6694  0.1212
  289MOL0     H38985   4.697   4.416   6.495 -1.5777 -1.9479  0.2132
  289MOL0     H38986   4.698   4.568   6.585 -0.0190 -1.2093  2.4392
  289MOL0     H38987   4.463   4.384   6.618  0.6099 -0.3089 -1.4879
  289MOL0     H38988   4.487   4.563   6.643  0.6793  0.3833 -0.1906
  289MOL0     H38989   4.476   4.432   6.366 -0.3445 -0.0030 -0.0723
  289MOL0     H38990   4.527   4.599   6.407  1.2098 -0.8610  1.4644
  289MOL0     H38991   4.274   4.466   6.472  0.1861 -0.0075  0.5788
  289MOL0     H38992   4.325   4.641   6.510  0.5579  1.6633 -2.0651
  289MOL0     H38993   4.294   4.501   6.247 -1.1380 -1.9537  2.8421
  289MOL0     H38994   4.340   4.680   6.271 -0.3623  0.8154 -0.2729
  289MOL0     H38995   4.106   4.600   6.199 -0.3201  1.2386 -0.4226
  289MOL0     H38996   4.124   4.736   6.314 -3.1223 -0.2866  1.7568
  289MOL0     H38997   5.119   4.386   6.710 -0.2342 -0.0895 -0.8973
  289MOL0     H38998   5.344   4.325   6.603  1.2914 -3.0664  1.0916
  289MOL0     H38999   5.510   3.944   6.292  0.4527  0.1396 -0.9015
  289MOL0     H39000   5.722   3.896   6.166  1.0921  1.7401 -2.1229
  289MOL0     H39001   7.680   4.158   6.827  0.5783 -2.1336  0.0660
  289MOL0     H39002   7.923   4.153   6.881 -1.5435  0.3784  1.1788
  289MOL0     H39003   8.474   4.299   6.539  0.5379 -1.3283 -0.8058
  289MOL0     H39004   8.699   4.270   6.658  0.5027  0.0333 -0.4857
  289MOL0     H39005   8.832   4.078   6.752 -2.3939  1.2074 -0.1138
  289MOL0     H39006   8.891   4.237   6.813  1.8984  0.1531  1.6888
  289MOL0     H39007   8.983   4.135   7.010  1.4713  1.4270 -1.9296
  289MOL0     H39008   9.033   4.043   6.873 -2.0905  2.9113 -3.1737
  289MOL0     H39009   8.821   3.889   6.925  0.5685 -0.1570 -0.2322
  289MOL0     H39010   8.813   3.988   7.073 -0.5168  2.7298 -1.7797
  289MOL0     H39011   8.923   3.773   7.108  0.1536  0.1011  1.3899
  289MOL0     H39012   9.021   3.911   7.162  0.9842  0.7822 -0.2759
  289MOL0     H39013   9.295   3.729   6.913  0.1263  1.0005 -2.0830
  289MOL0     H39014   8.493   4.118   7.005  0.9094  0.8286 -0.1713
  289MOL0     H39015   8.280   4.168   6.895 -0.4017  0.0611 -0.9842
  290MOL0     O39016   6.761   9.300  10.933 -0.1245 -0.2912 -0.4175
  290MOL0     C39017   6.829   9.218  10.992 -0.2320  0.6573  1.0664
  290MOL0     O39018   6.785   9.091  11.022 -0.5061 -0.0785  0.1150
  290MOL0     C39019   6.652   9.057  11.016  0.6951 -0.6460  0.2482
  290MOL0     C39020   6.542   9.139  11.031  0.2594 -0.3216 -0.4323
  290MOL0     C39021   6.409   9.091  11.042 -0.8145 -0.1277 -0.2416
  290MOL0     C39022   6.386   8.957  11.038 -0.7340  0.2310  0.1924
  290MOL0     O39023   6.261   8.902  11.050 -0.5096  0.1610  0.8715
  290MOL0     C39024   6.154   8.993  11.072  0.0948  0.4266 -0.6821
  290MOL0     C39025   6.029   8.905  11.062  1.0156 -0.6925 -0.1334
  290MOL0     C39026   5.901   8.990  11.105  0.3034  0.2884 -0.8650
  290MOL0     C39027   5.778   8.896  11.138 -1.0042 -0.4041 -0.0566
  290MOL0     C39028   5.662   8.995  11.175  0.3982  0.0554  0.0503
  290MOL0     C39029   5.516   8.943  11.195 -0.6292  0.3900 -0.3770
  290MOL0     C39030   5.486   8.913  11.351  0.8254  0.2682 -0.1938
  290MOL0     C39031   5.348   8.861  11.368 -0.7876  0.5841  0.4436
  290MOL0     N39032   5.299   8.833  11.499 -0.0953  0.8190 -0.4449
  290MOL0     C39033   5.274   8.705  11.551 -0.3090  0.4566 -0.0326
  290MOL0     C39034   5.228   8.718  11.678  0.6202 -0.1835 -0.2933
  290MOL0     C39035   5.167   8.618  11.770 -0.6645  0.5522  0.1943
  290MOL0     C39036   5.031   8.578  11.717  0.2291 -0.2178  0.2563
  290MOL0     C39037   4.991   8.449  11.781  0.0129 -0.2012  0.3056
  290MOL0     C39038   4.844   8.411  11.750 -0.9436  0.1366  0.3206
  290MOL0     O39039   4.758   8.514  11.794 -0.3208 -0.8412 -0.7312
  290MOL0     C39040   4.634   8.486  11.841 -0.8037 -0.1443 -0.0036
  290MOL0     C39041   4.558   8.378  11.803 -0.1624  0.6385  0.5383
  290MOL0     C39042   4.442   8.335  11.872  0.0528  0.1727  0.1333
  290MOL0     C39043   4.378   8.210  11.814  0.6254 -0.5947 -0.4229
  290MOL0     C39044   4.391   8.418  11.976 -0.0264 -0.7140 -0.3219
  290MOL0     C39045   4.257   8.413  12.040 -0.2304  0.5399 -0.5633
  290MOL0     O39046   4.219   8.521  12.128 -0.2319 -0.2577 -0.0933
  290MOL0     C39047   4.092   8.509  12.174  0.5606 -1.1260  0.1400
  290MOL0     C39048   3.981   8.501  12.082 -0.0083  0.7141 -0.4774
  290MOL0     C39049   3.854   8.503  12.133 -0.5461  0.6837  0.3498
  290MOL0     C39050   3.830   8.512  12.271  1.0278 -0.0227 -1.0706
  290MOL0     O39051   3.702   8.516  12.309 -0.1189  0.3930  0.1722
  290MOL0     C39052   3.661   8.502  12.445  0.0236 -0.1242  0.3345
  290MOL0     C39053   3.513   8.525  12.446  0.0331 -0.0489 -0.1543
  290MOL0     C39054   3.465   8.529  12.588  0.0413 -0.1467  0.5532
  290MOL0     C39055   3.323   8.590  12.582 -0.0621  0.2289 -0.2288
  290MOL0     C39056   3.279   8.603  12.723 -0.3365 -0.1601 -0.2702
  290MOL0     C39057   3.184   8.718  12.747 -0.3342 -0.2192  0.0155
  290MOL0     C39058   3.054   8.692  12.667  0.8763 -0.4422 -0.6007
  290MOL0     C39059   2.944   8.785  12.716 -0.1892  0.1287  0.6839
  290MOL0    Cl39060   2.800   8.772  12.620 -0.3071 -0.2879 -0.2550
  290MOL0     C39061   3.941   8.522  12.364 -0.0565  0.8799  0.6427
  290MOL0     C39062   4.072   8.524  12.320  0.5096 -0.6148 -0.1154
  290MOL0     O39063   4.187   8.314  12.020  0.9163 -0.1818  0.7695
  290MOL0     C39064   4.476   8.525  12.024 -0.2454 -0.7112  0.8670
  290MOL0     C39065   4.589   8.564  11.953 -0.1482 -0.1374  0.8624
  290MOL0     N39066   5.232   8.857  11.706  0.4501 -0.6100  0.2853
  290MOL0     N39067   5.281   8.919  11.605 -0.8587  0.3816  0.7271
  290MOL0     C39068   6.492   8.866  11.006  0.2962  0.2110 -0.6994
  290MOL0     C39069   6.622   8.923  10.997 -0.3404  0.4342  1.4322
  290MOL0     C39070   6.969   9.259  11.022  0.3479  0.3281  1.1019
  290MOL0     C39071   7.037   9.343  10.938 -0.0561  0.1115  0.5011
  290MOL0     C39072   7.169   9.397  10.963 -0.4994  0.6375  0.3318
  290MOL0     C39073   7.232   9.351  11.081 -0.4900  0.5034 -0.5103
  290MOL0     O39074   7.344   9.409  11.126  0.0418  0.4138  0.2980
  290MOL0     C39075   7.366   9.544  11.098 -0.4705 -0.3526  0.1022
  290MOL0     C39076   7.488   9.552  10.998  1.0110 -0.1673 -0.1625
  290MOL0     C39077   7.493   9.702  10.952 -0.5164 -0.7010  0.4142
  290MOL0     C39078   7.514   9.800  11.073 -0.5450 -0.0400 -0.4540
  290MOL0     C39079   7.642   9.780  11.138 -0.6837  0.1446 -0.1463
  290MOL0     C39080   7.748   9.772  11.189 -0.3129  1.0446 -0.6554
  290MOL0     C39081   7.159   9.267  11.171 -0.3369  0.1325 -1.3630
  290MOL0     C39082   7.032   9.222  11.139  0.4478 -0.2057 -0.2457
  290MOL0     H39083   6.556   9.245  11.047 -1.2376 -0.1702 -0.0073
  290MOL0     H39084   6.337   9.168  11.067  0.5628  0.8480  0.8552
  290MOL0     H39085   6.165   9.036  11.172  2.2680 -1.5154  0.0245
  290MOL0     H39086   6.148   9.074  10.999  3.8508 -0.7499 -2.5967
  290MOL0     H39087   6.003   8.878  10.960 -1.8739  1.9001 -0.2373
  290MOL0     H39088   6.042   8.820  11.130 -1.3884 -3.4392 -2.7668
  290MOL0     H39089   5.934   9.055  11.187  3.5695  0.5038 -2.2214
  290MOL0     H39090   5.865   9.052  11.023 -1.3414  0.1541 -0.2870
  290MOL0     H39091   5.742   8.839  11.052 -1.3044 -0.3805  0.0544
  290MOL0     H39092   5.806   8.833  11.223  1.1105 -0.8666 -1.0234
  290MOL0     H39093   5.682   9.061  11.260 -3.6230  2.1885 -0.3920
  290MOL0     H39094   5.645   9.071  11.098  3.6081  0.1230 -0.7312
  290MOL0     H39095   5.444   9.012  11.150 -1.9064  0.9841  2.3686
  290MOL0     H39096   5.504   8.846  11.146 -0.1414  0.9281 -1.6057
  290MOL0     H39097   5.562   8.843  11.388  0.5126 -1.6092 -2.8297
  290MOL0     H39098   5.497   9.009  11.402  0.1390 -0.2142  0.9154
  290MOL0     H39099   5.328   8.772  11.307 -2.2193  1.3727 -0.2988
  290MOL0     H39100   5.281   8.938  11.328 -1.8524 -0.2769  0.5291
  290MOL0     H39101   5.272   8.610  11.497 -0.4472  0.9661 -0.9345
  290MOL0     H39102   5.236   8.535  11.756 -2.4218 -0.5889 -2.2723
  290MOL0     H39103   5.175   8.662  11.870  0.7784  0.2473  0.2398
  290MOL0     H39104   5.023   8.562  11.609  0.6715 -0.4899  0.2581
  290MOL0     H39105   4.960   8.660  11.731  1.7565  1.0545  0.9632
  290MOL0     H39106   5.008   8.447  11.889  0.5228 -0.9654  0.2249
  290MOL0     H39107   5.050   8.369  11.735  0.9354  2.1623 -2.9426
  290MOL0     H39108   4.831   8.313  11.798  0.4737 -0.9971 -1.4670
  290MOL0     H39109   4.819   8.404  11.644  1.1789 -0.8661 -0.1749
  290MOL0     H39110   4.604   8.325  11.720  2.1385  1.5216  1.1674
  290MOL0     H39111   4.358   8.140  11.895 -1.2737 -0.5161 -0.7926
  290MOL0     H39112   4.282   8.232  11.768 -0.4730  0.4424  2.1712
  290MOL0     H39113   4.437   8.160  11.736 -2.4919 -0.6673 -2.9187
  290MOL0     H39114   3.989   8.503  11.974  1.4362 -2.4080 -0.5446
  290MOL0     H39115   3.771   8.475  12.069 -1.1264 -3.7483  2.6374
  290MOL0     H39116   3.685   8.406  12.493  2.4621  0.6112  0.7773
  290MOL0     H39117   3.711   8.580  12.504  2.9279 -0.0916 -1.9048
  290MOL0     H39118   3.491   8.622  12.400 -0.3720  1.3135  2.6755
  290MOL0     H39119   3.473   8.448  12.380  0.9460  1.8035 -3.0504
  290MOL0     H39120   3.529   8.591  12.652 -1.1442  0.0057  1.6371
  290MOL0     H39121   3.473   8.428  12.628 -1.8608  0.1967  1.9401
  290MOL0     H39122   3.315   8.692  12.543 -0.3018 -0.1611 -1.2351
  290MOL0     H39123   3.249   8.528  12.530  0.6676 -0.9019  0.0642
  290MOL0     H39124   3.367   8.600  12.787 -0.1518 -3.8519 -0.4976
  290MOL0     H39125   3.227   8.510  12.748 -1.2743  0.2394 -0.6844
  290MOL0     H39126   3.165   8.721  12.855  3.3262  2.8105  0.8139
  290MOL0     H39127   3.240   8.809  12.722  1.1133 -1.3883 -1.1809
  290MOL0     H39128   3.022   8.591  12.692  0.8570 -0.2064  0.3556
  290MOL0     H39129   3.071   8.702  12.559  1.5594 -0.6112 -0.5112
  290MOL0     H39130   2.982   8.884  12.689 -1.3775  0.9761  1.9629
  290MOL0     H39131   2.920   8.767  12.821 -2.5106  1.1351  0.4009
  290MOL0     H39132   3.925   8.519  12.471 -0.5164 -0.2584  0.5501
  290MOL0     H39133   4.159   8.524  12.385  0.8526  0.0853 -0.5535
  290MOL0     H39134   4.454   8.588  12.109  1.7803  0.5277  0.5357
  290MOL0     H39135   4.649   8.649  11.982 -0.1140  0.2963 -0.4471
  290MOL0     H39136   6.470   8.760  11.000 -0.6314  0.2204  1.6380
  290MOL0     H39137   6.705   8.858  10.972  0.8078  2.4301 -0.2236
  290MOL0     H39138   6.988   9.376  10.847 -0.7544  3.1254  1.8549
  290MOL0     H39139   7.211   9.477  10.903 -1.5400  1.9739  1.3171
  290MOL0     H39140   7.273   9.597  11.074 -0.5806  0.9914  3.0237
  290MOL0     H39141   7.400   9.589  11.192  0.4808  0.4830 -0.6318
  290MOL0     H39142   7.481   9.490  10.908 -0.9814  0.9728 -0.8572
  290MOL0     H39143   7.580   9.516  11.045  0.8867 -0.7724 -0.3785
  290MOL0     H39144   7.397   9.722  10.904 -0.4568 -0.3544  0.4441
  290MOL0     H39145   7.569   9.701  10.873 -0.6774 -0.2384  0.2563
  290MOL0     H39146   7.433   9.779  11.145 -1.4095 -1.1658 -1.7124
  290MOL0     H39147   7.507   9.906  11.047  1.7755  1.1190  2.9215
  290MOL0     H39148   7.850   9.777  11.223 -0.0630  0.0877 -1.2209
  290MOL0     H39149   7.205   9.244  11.266 -1.9443 -2.5194 -1.1162
  290MOL0     H39150   6.969   9.166  11.207  1.5253 -0.8499  0.2504
  291MOL0     O39151   8.015   9.346   8.503  0.5864  0.2377 -0.1160
  291MOL0     C39152   8.078   9.422   8.577  0.0407 -0.5709 -0.1859
  291MOL0     O39153   8.034   9.469   8.694 -0.2475 -0.3555  0.5238
  291MOL0     C39154   7.903   9.450   8.732  0.8403  0.4376  0.2371
  291MOL0     C39155   7.881   9.437   8.871 -0.3208 -0.0479  0.3547
  291MOL0     C39156   7.752   9.460   8.922 -0.4605  0.1706 -0.1805
  291MOL0     C39157   7.646   9.462   8.827  0.5431 -0.2702 -0.2383
  291MOL0     O39158   7.514   9.471   8.856 -0.0934  0.2664 -0.1883
  291MOL0     C39159   7.455   9.443   8.991 -0.2034  0.0916  0.1311
  291MOL0     C39160   7.443   9.571   9.066  0.0875 -0.3350 -0.9393
  291MOL0     C39161   7.320   9.653   9.014  0.5167  0.5794  0.4661
  291MOL0     C39162   7.194   9.605   9.084 -1.0680  0.6049  0.3458
  291MOL0     C39163   7.073   9.686   9.035  0.4937  0.1330  0.5353
  291MOL0     C39164   6.951   9.648   9.120  0.2742 -0.1368 -0.2381
  291MOL0     C39165   6.822   9.703   9.065  0.3343 -0.1796  0.5318
  291MOL0     C39166   6.702   9.661   9.152  0.0214 -0.5182 -0.1573
  291MOL0     N39167   6.566   9.706   9.115  0.0825 -0.9185 -0.1835
  291MOL0     C39168   6.528   9.840   9.108 -0.1254  0.2191  0.1227
  291MOL0     C39169   6.391   9.841   9.104  0.0443  0.3912 -0.0857
  291MOL0     C39170   6.298   9.961   9.101  0.2798 -0.0314  0.4017
  291MOL0     C39171   6.234   9.992   9.243  0.0598  0.0267 -0.1386
  291MOL0     C39172   6.141   9.887   9.311 -0.8217  0.2902  0.3804
  291MOL0     C39173   6.034   9.842   9.208  0.3006 -0.1856 -0.2056
  291MOL0     O39174   5.952   9.950   9.161 -0.0971  0.6285 -0.2417
  291MOL0     C39175   5.847   9.996   9.243 -0.4502 -0.6609  0.1913
  291MOL0     C39176   5.767  10.093   9.192  0.0377 -0.0711  0.5687
  291MOL0     C39177   5.673  10.161   9.264  0.2666  0.4100  0.0222
  291MOL0     C39178   5.594  10.261   9.178 -0.0469  0.2579  0.1988
  291MOL0     C39179   5.647  10.131   9.399 -0.2969 -0.4439 -0.3796
  291MOL0     C39180   5.555  10.198   9.488  0.7110  0.4578 -0.2647
  291MOL0     O39181   5.476  10.112   9.572  0.1580 -0.1104  0.3126
  291MOL0     C39182   5.365  10.177   9.621 -0.3154  0.0508  0.4485
  291MOL0     C39183   5.263  10.217   9.543  1.3713 -0.1760 -0.1541
  291MOL0     C39184   5.151  10.276   9.599 -0.6546  0.0592 -0.1097
  291MOL0     C39185   5.145  10.297   9.735 -0.3070 -0.0437  0.2296
  291MOL0     O39186   5.040  10.371   9.777  0.2786 -0.8757  0.1489
  291MOL0     C39187   5.041  10.414   9.913  0.2437  0.6238  0.2669
  291MOL0     C39188   4.927  10.505   9.935 -0.6293 -0.4345 -1.2867
  291MOL0     C39189   4.792  10.437   9.922 -0.1396 -0.2003  0.5254
  291MOL0     C39190   4.667  10.525   9.959 -0.1007  0.6860  0.5947
  291MOL0     C39191   4.534  10.442   9.972 -0.3921 -0.9359  0.7396
  291MOL0     C39192   4.423  10.549   9.967 -0.7003  0.8058 -0.5957
  291MOL0     C39193   4.287  10.492   9.946 -0.0975 -0.4698 -0.0548
  291MOL0     C39194   4.184  10.605   9.943  0.5671  0.7958 -0.1191
  291MOL0    Cl39195   4.130  10.639  10.114  0.0376  0.2456  0.1511
  291MOL0     C39196   5.246  10.237   9.817  0.6862 -0.6482 -0.1386
  291MOL0     C39197   5.355  10.176   9.761  0.3208 -0.0798  0.7709
  291MOL0     O39198   5.552  10.322   9.494  0.0207 -0.0494  0.4227
  291MOL0     C39199   5.720  10.018   9.451  0.5518  0.1913  0.2965
  291MOL0     C39200   5.826   9.953   9.375  0.2863  1.5158 -0.9005
  291MOL0     N39201   6.349   9.709   9.114  0.2129 -0.1792 -0.4851
  291MOL0     N39202   6.451   9.632   9.119 -0.6564 -0.3021 -0.3814
  291MOL0     C39203   7.665   9.474   8.690  1.0221  0.8389  0.2904
  291MOL0     C39204   7.793   9.485   8.644 -0.3023 -0.0319  0.1845
  291MOL0     C39205   8.212   9.455   8.536 -0.9063 -0.5698 -0.2968
  291MOL0     C39206   8.286   9.553   8.606  0.7507  0.2623  0.7907
  291MOL0     C39207   8.416   9.586   8.579 -0.4570  0.2273 -0.4364
  291MOL0     C39208   8.477   9.524   8.467 -1.1108  0.9096 -0.3977
  291MOL0     O39209   8.596   9.558   8.412 -0.2868  0.2032  0.0414
  291MOL0     C39210   8.695   9.613   8.504 -0.3633 -0.2799  0.2283
  291MOL0     C39211   8.834   9.584   8.468  0.2281  0.5177 -0.0008
  291MOL0     C39212   8.930   9.670   8.547  0.9500 -0.2190  0.9125
  291MOL0     C39213   9.074   9.660   8.494 -0.3640  1.0428 -0.5959
  291MOL0     C39214   9.163   9.759   8.556 -0.3738  0.3031 -0.3755
  291MOL0     C39215   9.237   9.839   8.616 -0.5106 -0.4114  0.6280
  291MOL0     C39216   8.412   9.429   8.395 -0.0979 -0.1396 -0.3853
  291MOL0     C39217   8.287   9.392   8.427 -0.0796  0.5444  0.4047
  291MOL0     H39218   7.966   9.434   8.939 -0.9040 -0.8936  1.0657
  291MOL0     H39219   7.732   9.475   9.028 -0.4294  0.7110 -0.2496
  291MOL0     H39220   7.359   9.397   8.966  0.2953 -0.0362 -1.7321
  291MOL0     H39221   7.515   9.372   9.048  1.3364  0.3483 -1.1043
  291MOL0     H39222   7.434   9.550   9.173 -2.6184  2.3144 -0.5338
  291MOL0     H39223   7.530   9.635   9.056 -0.6779  1.0594  0.7594
  291MOL0     H39224   7.328   9.760   9.035  0.3372  0.7929 -0.4778
  291MOL0     H39225   7.320   9.643   8.905  1.5710 -0.7968  0.5644
  291MOL0     H39226   7.188   9.495   9.082 -1.5913  0.6253  0.6440
  291MOL0     H39227   7.219   9.626   9.188  1.7487 -1.0297  0.1075
  291MOL0     H39228   7.099   9.791   9.051  2.9922 -0.5568  1.5903
  291MOL0     H39229   7.054   9.667   8.929 -2.6759  1.2311  0.8269
  291MOL0     H39230   6.959   9.540   9.135  1.0321  0.1160  1.3956
  291MOL0     H39231   6.963   9.685   9.222  3.2526  0.8457 -0.8270
  291MOL0     H39232   6.836   9.811   9.073 -0.2170 -0.1441  1.1769
  291MOL0     H39233   6.802   9.669   8.963 -2.0940  0.6917  0.6466
  291MOL0     H39234   6.719   9.715   9.246  2.1968  2.0892 -1.9120
  291MOL0     H39235   6.706   9.553   9.168  1.1090 -0.8629 -2.4312
  291MOL0     H39236   6.599   9.920   9.088  2.3975 -2.3298 -1.9018
  291MOL0     H39237   6.357  10.045   9.061  0.9215 -0.0949  1.1913
  291MOL0     H39238   6.214   9.946   9.032  0.5509 -0.6776  0.2079
  291MOL0     H39239   6.169  10.078   9.228  1.3529  0.5215 -4.2894
  291MOL0     H39240   6.312  10.010   9.318 -1.2359  1.3299  0.9435
  291MOL0     H39241   6.108   9.930   9.405 -2.5590 -0.2435  0.0505
  291MOL0     H39242   6.203   9.799   9.331 -0.3939 -0.4720 -3.4865
  291MOL0     H39243   5.977   9.757   9.247 -0.0740  1.1158  2.2550
  291MOL0     H39244   6.085   9.802   9.120  1.2212  1.3246 -0.3877
  291MOL0     H39245   5.795  10.118   9.090  1.5215 -1.0421  0.7105
  291MOL0     H39246   5.612  10.240   9.073 -0.5979 -0.6652  0.2779
  291MOL0     H39247   5.485  10.266   9.192 -0.4689 -0.2056 -2.4387
  291MOL0     H39248   5.626  10.363   9.198 -2.0922  0.8643  0.6759
  291MOL0     H39249   5.281  10.227   9.437 -0.1644  0.2185 -0.3940
  291MOL0     H39250   5.071  10.313   9.536 -2.2528 -2.6724  0.1709
  291MOL0     H39251   5.036  10.326   9.977 -1.1400  0.4275 -0.0801
  291MOL0     H39252   5.137  10.464   9.930  0.4579  1.4702 -2.8074
  291MOL0     H39253   4.931  10.544  10.037  1.4523 -0.1374 -1.4337
  291MOL0     H39254   4.948  10.594   9.875  1.3100  1.7983  2.3420
  291MOL0     H39255   4.795  10.350   9.988  4.2134 -0.1547  0.6289
  291MOL0     H39256   4.782  10.391   9.824 -0.3817 -0.6266  0.7473
  291MOL0     H39257   4.682  10.580  10.052  1.5130  2.9047 -0.8638
  291MOL0     H39258   4.655  10.600   9.879 -1.7244 -0.0903  0.0599
  291MOL0     H39259   4.534  10.384  10.065  1.3104 -0.5602  1.0170
  291MOL0     H39260   4.521  10.376   9.886  0.6657  0.9539 -0.9433
  291MOL0     H39261   4.422  10.602  10.063 -0.9122 -1.7647  0.9305
  291MOL0     H39262   4.442  10.616   9.883 -0.6409  0.6811 -0.6811
  291MOL0     H39263   4.250  10.415  10.013  1.0744 -0.1778  0.9619
  291MOL0     H39264   4.285  10.448   9.845 -2.0757 -1.1124  0.2109
  291MOL0     H39265   4.097  10.582   9.881  0.4788  1.0873 -0.1045
  291MOL0     H39266   4.230  10.694   9.899  1.9141  0.0378 -0.3002
  291MOL0     H39267   5.248  10.249   9.925 -1.7547 -0.3393 -0.0728
  291MOL0     H39268   5.430  10.140   9.831  0.6091  0.7073  0.8728
  291MOL0     H39269   5.710   9.986   9.554 -1.4878  2.9785  1.0901
  291MOL0     H39270   5.884   9.876   9.424 -0.2911  1.0896 -0.8721
  291MOL0     H39271   7.582   9.486   8.621  1.3167 -0.7836 -0.3795
  291MOL0     H39272   7.816   9.522   8.545 -2.4799  0.6777 -0.1155
  291MOL0     H39273   8.221   9.603   8.677 -0.4201 -0.3207  0.1678
  291MOL0     H39274   8.455   9.671   8.634 -0.8993 -1.2879  2.3690
  291MOL0     H39275   8.681   9.721   8.497 -3.6887 -0.6748 -0.9673
  291MOL0     H39276   8.686   9.590   8.611  0.6339  1.3563  0.6887
  291MOL0     H39277   8.839   9.600   8.360 -0.3440  0.7060 -0.0068
  291MOL0     H39278   8.857   9.478   8.479  3.5930  1.1377 -0.2236
  291MOL0     H39279   8.925   9.641   8.652 -0.0389 -0.9383  0.6832
  291MOL0     H39280   8.895   9.773   8.537  0.3296 -0.6183 -1.9716
  291MOL0     H39281   9.071   9.676   8.386  0.3124  1.2052 -0.5920
  291MOL0     H39282   9.118   9.562   8.514 -0.8236  1.4277  2.9881
  291MOL0     H39283   9.286   9.913   8.676 -0.9167  0.1168  0.3228
  291MOL0     H39284   8.449   9.406   8.295 -2.0877  2.8071 -1.9377
  291MOL0     H39285   8.246   9.315   8.363  3.3665  0.6688 -2.2645
  292MOL0     O39286   1.452   8.841   2.597 -0.1670 -0.3885 -0.1359
  292MOL0     C39287   1.456   8.962   2.575 -0.6823  0.1036 -0.1857
  292MOL0     O39288   1.366   9.028   2.501  0.0292 -0.5203  0.4358
  292MOL0     C39289   1.250   8.982   2.452  0.1179 -0.2461 -0.0973
  292MOL0     C39290   1.175   9.072   2.369 -0.5075 -0.4226  1.0689
  292MOL0     C39291   1.048   9.053   2.321 -0.3517  0.8230  0.2391
  292MOL0     C39292   0.989   8.923   2.347  1.4166 -0.6826  0.4734
  292MOL0     O39293   0.862   8.911   2.285  0.1659  0.1713 -0.2568
  292MOL0     C39294   0.770   8.811   2.332 -1.0417  0.2135  1.2415
  292MOL0     C39295   0.651   8.794   2.237  0.4458  0.2357 -0.4670
  292MOL0     C39296   0.555   8.906   2.254 -0.8037  0.4316 -0.0893
  292MOL0     C39297   0.478   8.918   2.126 -0.6518 -0.1396 -1.1215
  292MOL0     C39298   0.373   9.034   2.138 -0.1652  0.7078  0.6555
  292MOL0     C39299   0.236   8.972   2.175  0.0732  0.0970 -0.4298
  292MOL0     C39300   0.142   9.092   2.183 -0.3995  1.3469  0.0387
  292MOL0     C39301   0.021   9.055   2.273  0.4453 -0.9042  0.2689
  292MOL0     N39302  -0.088   9.158   2.238 -1.0153 -0.2289 -0.1473
  292MOL0     C39303  -0.097   9.286   2.286  0.4771 -0.7776 -0.0316
  292MOL0     C39304  -0.215   9.333   2.235 -0.9674  0.0736  0.5414
  292MOL0     C39305  -0.265   9.474   2.242  0.1960  1.0288 -0.2510
  292MOL0     C39306  -0.418   9.468   2.233 -0.2520  0.2617  0.5993
  292MOL0     C39307  -0.480   9.592   2.297  0.2319  0.0665  0.7898
  292MOL0     C39308  -0.620   9.617   2.250  0.3479 -0.8477  0.4913
  292MOL0     O39309  -0.698   9.515   2.310  0.4697  0.1828 -0.3523
  292MOL0     C39310  -0.839   9.519   2.294 -0.4375 -0.0594 -0.2907
  292MOL0     C39311  -0.899   9.411   2.361 -0.0055 -0.1312  0.7482
  292MOL0     C39312  -1.039   9.396   2.365 -0.2572 -0.1477 -0.5909
  292MOL0     C39313  -1.089   9.275   2.426  0.9199 -0.2648 -0.7383
  292MOL0     C39314  -1.121   9.499   2.300 -0.3348 -0.9906 -0.8159
  292MOL0     C39315  -1.269   9.500   2.300 -0.2182  0.5066  0.4171
  292MOL0     O39316  -1.340   9.580   2.212 -0.0877  0.0991 -0.1057
  292MOL0     C39317  -1.472   9.602   2.228 -0.1352 -0.2779 -0.1172
  292MOL0     C39318  -1.558   9.597   2.110  0.0499  0.4308 -0.2643
  292MOL0     C39319  -1.696   9.618   2.128 -0.7938  0.7339 -0.0057
  292MOL0     C39320  -1.750   9.650   2.255  0.2076 -0.6032 -0.1881
  292MOL0     O39321  -1.885   9.641   2.285  0.0032  0.0367  0.4539
  292MOL0     C39322  -1.961   9.721   2.202  0.5077 -0.3371  0.5341
  292MOL0     C39323  -2.080   9.776   2.279  0.2223 -0.8951  0.6229
  292MOL0     C39324  -2.179   9.660   2.336 -0.3098  1.7532 -0.1674
  292MOL0     C39325  -2.296   9.713   2.419 -0.4556  0.4513  0.4125
  292MOL0     C39326  -2.407   9.609   2.446  0.3824 -0.3977 -0.1674
  292MOL0     C39327  -2.519   9.677   2.544  0.5412  0.7111 -0.3658
  292MOL0     C39328  -2.622   9.584   2.606  0.3272  0.1676 -0.2251
  292MOL0     C39329  -2.741   9.652   2.674 -1.8184 -0.6316 -0.0033
  292MOL0    Cl39330  -2.837   9.533   2.756 -0.3396 -0.3507  0.2263
  292MOL0     C39331  -1.663   9.667   2.364 -0.3891  0.0830  0.1095
  292MOL0     C39332  -1.523   9.642   2.349 -0.1198 -0.8967 -0.2268
  292MOL0     O39333  -1.320   9.433   2.388 -0.1365  0.3441  0.0103
  292MOL0     C39334  -1.053   9.606   2.239 -0.2948 -0.3292  0.8699
  292MOL0     C39335  -0.915   9.611   2.232 -0.2541 -0.0919  0.5337
  292MOL0     N39336  -0.250   9.250   2.135 -0.0731 -0.0020  0.2889
  292MOL0     N39337  -0.179   9.138   2.145  0.6027  0.4347 -0.1240
  292MOL0     C39338   1.058   8.828   2.422  0.1731  0.3309 -0.3013
  292MOL0     C39339   1.184   8.861   2.476 -0.2814  0.1471 -0.3570
  292MOL0     C39340   1.563   9.050   2.627 -0.5663  0.0230  0.4480
  292MOL0     C39341   1.641   9.011   2.731 -0.2620 -0.7456 -0.4840
  292MOL0     C39342   1.740   9.090   2.782 -0.7919  0.1151  0.7190
  292MOL0     C39343   1.777   9.217   2.729 -0.1576 -0.0075 -0.0591
  292MOL0     O39344   1.872   9.305   2.781  0.1638  0.3754 -0.1235
  292MOL0     C39345   1.914   9.280   2.911  0.1262  0.5402 -0.5844
  292MOL0     C39346   2.014   9.382   2.953 -0.6943  0.0697 -0.0067
  292MOL0     C39347   2.071   9.355   3.089  0.4907  0.4848  0.5144
  292MOL0     C39348   2.138   9.219   3.103  0.0460  0.4699  0.0677
  292MOL0     C39349   2.233   9.217   3.214 -0.2960 -0.5099  0.2755
  292MOL0     C39350   2.337   9.209   3.281  0.0642  0.5036  0.2764
  292MOL0     C39351   1.693   9.259   2.627  0.2345  0.3918  0.2259
  292MOL0     C39352   1.588   9.179   2.579 -0.6046  0.6353  0.7587
  292MOL0     H39353   1.239   9.151   2.331  1.0484 -1.3517  1.6716
  292MOL0     H39354   1.006   9.138   2.267 -2.8769 -0.0170  0.7391
  292MOL0     H39355   0.817   8.714   2.347  1.8544  1.3382  0.1310
  292MOL0     H39356   0.736   8.845   2.431 -0.1093 -0.2219  1.7290
  292MOL0     H39357   0.693   8.785   2.137  0.8352 -0.6415 -0.2401
  292MOL0     H39358   0.596   8.701   2.257 -0.3372  1.0399  1.3977
  292MOL0     H39359   0.497   8.886   2.345 -0.6304  1.3050  0.2178
  292MOL0     H39360   0.615   8.996   2.268  0.7383 -0.6583  0.5195
  292MOL0     H39361   0.558   8.937   2.054 -0.2587 -0.3074 -0.7362
  292MOL0     H39362   0.436   8.822   2.096 -1.1992  0.0581 -0.9842
  292MOL0     H39363   0.409   9.108   2.210  2.9195 -0.7683  0.7716
  292MOL0     H39364   0.365   9.088   2.042  0.3779  0.7719  0.6432
  292MOL0     H39365   0.189   8.907   2.100 -2.8551  0.8116  0.6540
  292MOL0     H39366   0.250   8.929   2.275  1.5164  0.7561 -0.3187
  292MOL0     H39367   0.188   9.187   2.210 -0.6623  1.6858 -0.6873
  292MOL0     H39368   0.102   9.117   2.084  3.9414 -0.3297 -2.4301
  292MOL0     H39369   0.046   9.059   2.379 -1.5837 -0.0791  0.7600
  292MOL0     H39370  -0.014   8.954   2.249  0.8900 -0.3631 -3.3410
  292MOL0     H39371  -0.041   9.325   2.371  1.7864 -1.0255 -0.7576
  292MOL0     H39372  -0.235   9.512   2.340  1.4251 -0.4010 -0.0302
  292MOL0     H39373  -0.219   9.532   2.161  0.2003  2.0036  0.4418
  292MOL0     H39374  -0.462   9.381   2.282 -0.8160 -0.9925 -2.0058
  292MOL0     H39375  -0.452   9.455   2.131  0.0454  0.6167  0.4520
  292MOL0     H39376  -0.423   9.680   2.265  1.0056 -0.4695  0.6630
  292MOL0     H39377  -0.474   9.584   2.406 -1.9904 -1.1406  0.8811
  292MOL0     H39378  -0.635   9.613   2.142 -1.9549  0.5093  0.7055
  292MOL0     H39379  -0.651   9.717   2.281 -0.9020 -0.0524 -2.9318
  292MOL0     H39380  -0.824   9.338   2.390  0.5185 -0.3059 -0.9526
  292MOL0     H39381  -1.149   9.217   2.356 -0.3231 -1.6420  1.3325
  292MOL0     H39382  -1.002   9.212   2.450  1.3328  0.0096 -1.4953
  292MOL0     H39383  -1.142   9.300   2.519 -0.9449  2.2037 -2.3546
  292MOL0     H39384  -1.529   9.572   2.008 -1.1209 -2.7438  0.0751
  292MOL0     H39385  -1.760   9.621   2.040 -0.9090  1.0705  0.0885
  292MOL0     H39386  -1.912   9.803   2.150 -4.6578  3.0143  0.2115
  292MOL0     H39387  -2.004   9.664   2.120  0.5420  2.2889 -1.4246
  292MOL0     H39388  -2.050   9.841   2.361 -1.6318 -1.6766  2.0041
  292MOL0     H39389  -2.145   9.830   2.210  0.7093  0.1118  0.9299
  292MOL0     H39390  -2.126   9.579   2.387 -4.5203 -1.6860 -0.7464
  292MOL0     H39391  -2.226   9.610   2.251 -2.5476 -0.0492  2.0064
  292MOL0     H39392  -2.249   9.744   2.512 -1.5892  1.3537  0.7107
  292MOL0     H39393  -2.334   9.807   2.377 -1.2051  0.6560  1.5024
  292MOL0     H39394  -2.371   9.512   2.482  0.6918 -0.8461 -1.6212
  292MOL0     H39395  -2.455   9.584   2.351 -0.9564  0.5408  0.2360
  292MOL0     H39396  -2.462   9.722   2.626 -1.5237 -1.2018  2.3057
  292MOL0     H39397  -2.575   9.753   2.488 -0.5543 -2.2952 -3.7364
  292MOL0     H39398  -2.570   9.525   2.682  0.5749 -1.8404 -1.8731
  292MOL0     H39399  -2.666   9.512   2.537  0.2066  0.9816 -1.0147
  292MOL0     H39400  -2.803   9.711   2.606 -0.2150  2.6302  1.1486
  292MOL0     H39401  -2.710   9.726   2.748 -1.1072  0.3449 -1.2253
  292MOL0     H39402  -1.697   9.714   2.456  0.4542  0.3694  0.2802
  292MOL0     H39403  -1.455   9.664   2.430 -1.6489 -0.0413  0.8653
  292MOL0     H39404  -1.109   9.688   2.195  0.7766  0.3450  0.7060
  292MOL0     H39405  -0.872   9.701   2.188  2.1384  0.1754  3.1628
  292MOL0     H39406   1.004   8.737   2.445  0.3185 -0.3543 -2.5195
  292MOL0     H39407   1.220   8.786   2.546  3.6684  2.9048  0.9164
  292MOL0     H39408   1.613   8.919   2.780  0.1867  0.0361  1.3369
  292MOL0     H39409   1.772   9.058   2.880 -0.3415  1.1798  0.9397
  292MOL0     H39410   1.826   9.275   2.977  1.2422  0.2224  0.9179
  292MOL0     H39411   1.958   9.180   2.912  0.4811  0.6239  2.2511
  292MOL0     H39412   1.963   9.478   2.961 -1.5607 -0.4491  0.8345
  292MOL0     H39413   2.098   9.392   2.883 -0.7838  0.6521 -0.0301
  292MOL0     H39414   1.983   9.364   3.153 -3.1123  0.3192 -3.8666
  292MOL0     H39415   2.143   9.434   3.112 -1.2205  2.0648  0.6771
  292MOL0     H39416   2.187   9.188   3.010 -2.4030 -1.3048 -0.7479
  292MOL0     H39417   2.060   9.147   3.132 -1.7800  3.3516  2.9105
  292MOL0     H39418   2.421   9.221   3.347 -0.2407  0.2177  0.7277
  292MOL0     H39419   1.706   9.351   2.571  0.7559  0.4772  0.4800
  292MOL0     H39420   1.532   9.236   2.505  0.2635  0.2232 -0.2404
  293MOL0     O39421   6.586  10.511   1.838 -0.3376  0.3552 -0.2508
  293MOL0     C39422   6.628  10.621   1.808 -0.7420  0.4751 -0.0125
  293MOL0     O39423   6.554  10.740   1.794  0.0173  0.1358 -0.0492
  293MOL0     C39424   6.417  10.719   1.816 -0.3197 -0.1319 -0.0020
  293MOL0     C39425   6.351  10.772   1.925  0.3607  0.2824 -0.7452
  293MOL0     C39426   6.210  10.762   1.933 -0.3257 -0.2838 -0.3394
  293MOL0     C39427   6.138  10.686   1.845 -0.6365  0.0451 -0.2057
  293MOL0     O39428   6.007  10.647   1.858  0.1216 -0.5077 -0.0806
  293MOL0     C39429   5.921  10.703   1.956  0.2593 -0.2764  0.0648
  293MOL0     C39430   5.768  10.669   1.923  0.3527  0.0579 -0.5564
  293MOL0     C39431   5.680  10.678   2.037 -1.2214  0.0469 -0.0999
  293MOL0     C39432   5.544  10.738   2.005 -0.0714  0.4883  0.1981
  293MOL0     C39433   5.467  10.715   2.138 -0.8555  0.8733  0.1505
  293MOL0     C39434   5.335  10.794   2.126 -0.8602 -0.0192  0.7059
  293MOL0     C39435   5.240  10.751   2.227  1.2028  0.1354 -0.0679
  293MOL0     C39436   5.110  10.835   2.228 -0.4270  0.2763 -0.8013
  293MOL0     N39437   5.013  10.817   2.116  0.1800 -0.4320 -0.4289
  293MOL0     C39438   4.885  10.771   2.149  0.2253  0.0891 -0.4806
  293MOL0     C39439   4.812  10.831   2.050  0.1850 -0.1900  0.1125
  293MOL0     C39440   4.661  10.829   2.044 -0.3260  0.4552 -0.5837
  293MOL0     C39441   4.606  10.711   1.964 -0.8766 -0.8650 -0.3075
  293MOL0     C39442   4.456  10.715   1.971  0.5778 -0.3636  0.5086
  293MOL0     C39443   4.392  10.649   1.846  0.1466 -0.6342 -0.9531
  293MOL0     O39444   4.258  10.608   1.885  0.2040  0.2713 -1.0182
  293MOL0     C39445   4.149  10.687   1.890  0.2773  0.4591  0.9232
  293MOL0     C39446   4.146  10.825   1.874 -0.1682  0.7966  0.0073
  293MOL0     C39447   4.021  10.890   1.858 -0.1861  0.2481  0.7647
  293MOL0     C39448   4.022  11.044   1.851  0.2040  0.6946 -0.1737
  293MOL0     C39449   3.895  10.819   1.878 -0.5973 -0.0491  0.3469
  293MOL0     C39450   3.768  10.884   1.901  0.2360 -0.0498  0.8510
  293MOL0     O39451   3.675  10.826   1.988  0.3334  0.6945 -0.4068
  293MOL0     C39452   3.545  10.848   1.967 -0.8020 -0.8878  0.3635
  293MOL0     C39453   3.474  10.935   2.048  0.6131  0.3936  0.1698
  293MOL0     C39454   3.339  10.952   2.030  0.1757 -0.0152  0.0173
  293MOL0     C39455   3.265  10.890   1.931  0.3323  0.3800  0.8837
  293MOL0     O39456   3.133  10.928   1.909  0.7912 -0.9540  0.1810
  293MOL0     C39457   3.035  10.824   1.941 -0.4539  0.3577  0.0720
  293MOL0     C39458   2.901  10.890   1.952  0.3116  0.0304  0.0885
  293MOL0     C39459   2.791  10.819   2.036  0.2441 -0.9443  0.1911
  293MOL0     C39460   2.666  10.905   2.028  0.6261 -0.5240  0.9566
  293MOL0     C39461   2.544  10.844   2.102 -0.5029  0.5262  0.0259
  293MOL0     C39462   2.443  10.953   2.126  0.9454 -0.1311  0.0992
  293MOL0     C39463   2.324  10.919   2.225 -0.2533 -0.3203 -0.8015
  293MOL0     C39464   2.200  11.000   2.201  0.1481 -0.4153 -0.5498
  293MOL0    Cl39465   2.241  11.173   2.200 -0.2147  0.2202  0.2178
  293MOL0     C39466   3.338  10.794   1.850 -0.2094 -1.0222 -0.4049
  293MOL0     C39467   3.473  10.782   1.862 -1.1487  0.5433 -0.4308
  293MOL0     O39468   3.751  10.996   1.862  0.7881  0.0285 -1.0880
  293MOL0     C39469   3.905  10.685   1.909 -0.4173  0.2157  0.8194
  293MOL0     C39470   4.032  10.618   1.918  0.2759 -0.1436  0.4838
  293MOL0     N39471   4.895  10.889   1.953 -0.6357 -0.7767 -0.0931
  293MOL0     N39472   5.018  10.888   2.003  0.7928 -0.2652  0.1006
  293MOL0     C39473   6.207  10.625   1.737  0.4818  0.6400  0.7638
  293MOL0     C39474   6.340  10.649   1.718 -0.5116  0.6355  0.1269
  293MOL0     C39475   6.786  10.635   1.811  0.6402 -0.0024 -0.2703
  293MOL0     C39476   6.852  10.743   1.748 -0.8151  0.0266 -0.3796
  293MOL0     C39477   6.991  10.748   1.730 -0.3099 -0.9306  0.2701
  293MOL0     C39478   7.071  10.645   1.768 -0.2791 -0.2461  0.6042
  293MOL0     O39479   7.209  10.636   1.749  0.6678  0.4148  0.2622
  293MOL0     C39480   7.276  10.751   1.713 -0.9088  0.3071  0.0451
  293MOL0     C39481   7.423  10.701   1.745  0.1610  0.4302 -0.3200
  293MOL0     C39482   7.474  10.613   1.631  1.3823 -0.1292 -0.2936
  293MOL0     C39483   7.623  10.601   1.616  0.0628 -0.6927  0.5160
  293MOL0     C39484   7.702  10.720   1.574 -0.2056 -0.0189 -0.3391
  293MOL0     C39485   7.777  10.814   1.549  0.8440  0.6654 -0.3817
  293MOL0     C39486   7.001  10.532   1.827 -0.3543 -0.1530 -0.0804
  293MOL0     C39487   6.869  10.528   1.845  0.6356  1.2381 -0.4703
  293MOL0     H39488   6.408  10.827   2.000 -0.1722 -2.0890  1.5228
  293MOL0     H39489   6.165  10.795   2.026 -1.0014 -0.2530 -0.6753
  293MOL0     H39490   5.946  10.657   2.052  0.8808  0.8077  0.4305
  293MOL0     H39491   5.929  10.811   1.949  2.1080 -0.3269  0.9076
  293MOL0     H39492   5.727  10.734   1.845  0.1131  2.2869  1.3291
  293MOL0     H39493   5.758  10.571   1.876 -1.1240 -0.1703  0.1844
  293MOL0     H39494   5.668  10.581   2.087  0.3011 -1.6874 -2.8445
  293MOL0     H39495   5.734  10.739   2.110 -0.4122 -1.7708  0.8724
  293MOL0     H39496   5.542  10.842   1.971  0.2668  1.0806  1.8938
  293MOL0     H39497   5.485  10.680   1.934 -0.4587  2.7449 -1.4527
  293MOL0     H39498   5.463  10.606   2.151  1.4336  0.4836 -1.8382
  293MOL0     H39499   5.522  10.739   2.229 -1.4658  0.2041  0.7130
  293MOL0     H39500   5.357  10.901   2.135  0.1386  0.0975 -2.2261
  293MOL0     H39501   5.282  10.784   2.031 -2.1044  1.6794  1.1658
  293MOL0     H39502   5.213  10.645   2.228  0.9764  0.1878  0.9899
  293MOL0     H39503   5.285  10.782   2.322 -0.1421 -1.2288  1.0558
  293MOL0     H39504   5.141  10.940   2.239 -0.0719  0.0343  0.7678
  293MOL0     H39505   5.061  10.807   2.321  1.0660 -0.9767 -0.3566
  293MOL0     H39506   4.848  10.711   2.231 -0.2017  3.3240  1.8962
  293MOL0     H39507   4.611  10.819   2.141 -1.3731  0.5662 -1.0974
  293MOL0     H39508   4.630  10.929   2.014 -2.4186 -0.5127 -1.8991
  293MOL0     H39509   4.654  10.619   1.998 -2.2770 -0.9173  1.7209
  293MOL0     H39510   4.635  10.727   1.860 -0.7484 -2.3761 -0.5340
  293MOL0     H39511   4.427  10.820   1.961  0.5988 -0.4595 -0.8359
  293MOL0     H39512   4.410  10.672   2.060 -0.9503  0.3722  0.1023
  293MOL0     H39513   4.454  10.572   1.800  1.9838  1.6013 -2.4550
  293MOL0     H39514   4.395  10.733   1.775  1.8574 -0.6007 -0.8771
  293MOL0     H39515   4.233  10.888   1.860  0.4293  0.3364  1.4277
  293MOL0     H39516   3.973  11.093   1.935 -1.0906  1.3671 -1.2873
  293MOL0     H39517   4.125  11.079   1.857  1.1967 -2.1262  1.4958
  293MOL0     H39518   3.969  11.071   1.760  1.6814 -0.0016 -1.2873
  293MOL0     H39519   3.518  10.969   2.141 -1.7207  0.7166  1.2369
  293MOL0     H39520   3.275  11.007   2.097  0.3459 -0.1361  0.2801
  293MOL0     H39521   3.037  10.750   1.860  0.3035  1.8690 -1.3473
  293MOL0     H39522   3.049  10.774   2.038 -0.8484  0.0336 -0.0369
  293MOL0     H39523   2.923  10.990   1.991  1.7226  0.2142 -1.0955
  293MOL0     H39524   2.865  10.912   1.852 -0.5157 -0.6973  0.2192
  293MOL0     H39525   2.822  10.827   2.141  2.2099  4.2992 -0.4826
  293MOL0     H39526   2.777  10.715   2.005  1.1716 -1.3114  0.9535
  293MOL0     H39527   2.677  11.009   2.061 -3.5287  0.4779 -0.1168
  293MOL0     H39528   2.643  10.918   1.922 -1.1709  1.5905  1.5110
  293MOL0     H39529   2.572  10.803   2.199 -4.0817 -1.4461  0.3774
  293MOL0     H39530   2.499  10.760   2.049 -3.5295  3.8156 -3.1590
  293MOL0     H39531   2.493  11.040   2.169  1.3437  1.5419 -3.4336
  293MOL0     H39532   2.411  10.992   2.029  0.2878 -0.2482  0.2661
  293MOL0     H39533   2.360  10.925   2.328  1.7925 -0.0125 -1.4959
  293MOL0     H39534   2.295  10.814   2.218 -0.4404 -0.3673  0.4851
  293MOL0     H39535   2.120  10.981   2.272  2.3335 -2.7707  1.4972
  293MOL0     H39536   2.154  10.991   2.102 -2.0935 -0.3505  0.4206
  293MOL0     H39537   3.287  10.746   1.768 -0.1384  1.8506 -2.2652
  293MOL0     H39538   3.527  10.713   1.797 -2.6603 -3.5466  2.2568
  293MOL0     H39539   3.817  10.624   1.926  0.5453 -1.1702  0.9746
  293MOL0     H39540   4.028  10.514   1.947  0.5098 -1.4395 -3.4494
  293MOL0     H39541   6.140  10.576   1.667 -0.0413  1.3970  0.7181
  293MOL0     H39542   6.397  10.605   1.636  1.3509  0.2230  1.5816
  293MOL0     H39543   6.795  10.822   1.700 -1.0773 -0.3024 -0.6152
  293MOL0     H39544   7.025  10.842   1.688  0.4881 -1.8759 -1.2657
  293MOL0     H39545   7.268  10.792   1.612 -0.3361 -1.0329 -0.5646
  293MOL0     H39546   7.240  10.822   1.788 -2.5515 -0.2820 -0.1475
  293MOL0     H39547   7.432  10.654   1.843  0.2241 -0.3461 -0.6897
  293MOL0     H39548   7.486  10.790   1.746 -1.6135  1.7428  1.0425
  293MOL0     H39549   7.429  10.629   1.533 -0.1375  1.2773  0.5896
  293MOL0     H39550   7.425  10.518   1.653 -1.7014  1.7893  1.9135
  293MOL0     H39551   7.644  10.517   1.549  1.9018  1.8762 -2.3933
  293MOL0     H39552   7.667  10.571   1.711 -0.4954 -2.2950  0.3080
  293MOL0     H39553   7.832  10.901   1.520  1.1821  0.4607 -0.3660
  293MOL0     H39554   7.070  10.456   1.863  0.2545  0.5600  0.2758
  293MOL0     H39555   6.815  10.440   1.878 -0.1388  2.2997  1.2291
  294MOL0     O39556  11.034   6.084   8.349 -0.2728  0.6616  0.1103
  294MOL0     C39557  11.105   5.988   8.368 -0.1101 -0.0141 -0.3803
  294MOL0     O39558  11.060   5.857   8.360  0.4849 -0.3235 -0.2397
  294MOL0     C39559  10.934   5.824   8.322  0.5038  0.1767  0.6568
  294MOL0     C39560  10.925   5.729   8.217 -0.1974  0.0990  0.0281
  294MOL0     C39561  10.804   5.703   8.158  0.6466  0.2733 -0.1461
  294MOL0     C39562  10.687   5.760   8.219  0.0119 -0.3821 -0.3422
  294MOL0     O39563  10.563   5.728   8.173 -0.1290 -0.3703 -0.2211
  294MOL0     C39564  10.537   5.591   8.123  0.8490 -0.4765  0.7063
  294MOL0     C39565  10.392   5.556   8.158 -0.6549 -0.0952  0.1782
  294MOL0     C39566  10.338   5.467   8.045 -0.5974  0.6362 -0.2290
  294MOL0     C39567  10.186   5.467   8.072  0.4672  0.2686  0.3780
  294MOL0     C39568  10.113   5.363   7.974  0.9033 -0.4900  0.2729
  294MOL0     C39569   9.957   5.352   7.987 -0.7601  0.3873  0.0218
  294MOL0     C39570   9.910   5.313   8.131  0.4152  0.0981  0.1588
  294MOL0     C39571   9.762   5.288   8.124 -0.6000  0.3876  0.2991
  294MOL0     N39572   9.709   5.195   8.224 -0.4100 -0.1616 -0.1972
  294MOL0     C39573   9.673   5.063   8.207 -0.5461 -0.3506  0.8251
  294MOL0     C39574   9.625   5.030   8.327 -0.2170  0.6031  0.8766
  294MOL0     C39575   9.604   4.890   8.363  0.1448 -0.3590 -0.0084
  294MOL0     C39576   9.472   4.859   8.416 -0.2344  0.6808 -0.2149
  294MOL0     C39577   9.366   4.878   8.305  0.0980 -0.1921 -0.3238
  294MOL0     C39578   9.222   4.835   8.357 -0.5714 -0.0859  0.0097
  294MOL0     O39579   9.136   4.857   8.243  0.2355  1.2519 -1.1255
  294MOL0     C39580   9.056   4.750   8.192 -0.0203 -0.7524 -0.7174
  294MOL0     C39581   9.047   4.618   8.240 -0.5625 -0.3573  0.2708
  294MOL0     C39582   8.958   4.523   8.196  0.3743 -0.4064  0.5540
  294MOL0     C39583   8.951   4.393   8.273  0.1914  0.4944 -0.9343
  294MOL0     C39584   8.879   4.557   8.091  0.8940  0.0366  0.5404
  294MOL0     C39585   8.779   4.469   8.036 -0.0686  0.0359 -0.4789
  294MOL0     O39586   8.658   4.508   8.062  0.5312  0.5950  0.3363
  294MOL0     C39587   8.574   4.550   7.958 -0.1779  0.0108  0.4857
  294MOL0     C39588   8.602   4.533   7.825 -0.8539  0.3381  0.4304
  294MOL0     C39589   8.513   4.565   7.724  0.4721  0.6882 -0.0904
  294MOL0     C39590   8.390   4.621   7.751 -0.1803 -0.7449  1.2266
  294MOL0     O39591   8.318   4.643   7.635 -0.2647 -0.7059 -0.2829
  294MOL0     C39592   8.246   4.763   7.617 -0.0452 -0.9953  0.0840
  294MOL0     C39593   8.108   4.736   7.667  0.6102  0.3655 -0.5323
  294MOL0     C39594   8.030   4.631   7.592 -0.2291 -0.0254  0.2761
  294MOL0     C39595   7.882   4.655   7.628  0.6967  0.5299  0.0606
  294MOL0     C39596   7.779   4.550   7.570 -0.2276  0.0351 -0.2121
  294MOL0     C39597   7.640   4.602   7.612  0.0966 -0.0685 -0.2581
  294MOL0     C39598   7.542   4.501   7.550 -0.1660 -0.0468 -0.1624
  294MOL0     C39599   7.401   4.525   7.601 -0.3527 -0.6011  0.1109
  294MOL0    Cl39600   7.276   4.433   7.499  0.1946  0.4258  0.3748
  294MOL0     C39601   8.354   4.642   7.887 -0.6074 -0.8095  0.1973
  294MOL0     C39602   8.450   4.609   7.988 -0.6453  0.0725 -0.3878
  294MOL0     O39603   8.811   4.361   7.995 -0.0649 -0.2002 -0.0827
  294MOL0     C39604   8.882   4.693   8.037 -0.1119  0.5482 -0.1454
  294MOL0     C39605   8.972   4.788   8.087 -0.4432  0.0865 -0.7096
  294MOL0     N39606   9.631   5.139   8.413  0.4824 -0.0770 -0.7581
  294MOL0     N39607   9.678   5.241   8.355 -0.1003  0.3798  0.3955
  294MOL0     C39608  10.701   5.852   8.323  0.3486  0.1966 -0.2474
  294MOL0     C39609  10.822   5.886   8.375 -0.4303  0.2671 -0.3157
  294MOL0     C39610  11.245   6.023   8.399  0.2972 -0.5081  1.1492
  294MOL0     C39611  11.295   6.159   8.408  0.3647  0.3228 -0.2260
  294MOL0     C39612  11.423   6.183   8.458  0.7190 -0.1780  0.4280
  294MOL0     C39613  11.512   6.074   8.480  0.6991 -0.0638  0.1044
  294MOL0     O39614  11.638   6.083   8.545  0.1387  0.2016  0.2536
  294MOL0     C39615  11.710   6.207   8.546 -0.1889  0.0118 -0.1372
  294MOL0     C39616  11.856   6.168   8.565  0.1086 -0.6832  0.6412
  294MOL0     C39617  11.891   6.135   8.714  0.1103  0.0932 -0.3949
  294MOL0     C39618  12.028   6.077   8.735  0.1162  0.1286 -0.3331
  294MOL0     C39619  12.123   6.156   8.659 -0.2936  0.7825  0.1073
  294MOL0     C39620  12.200   6.210   8.580 -0.5251  0.8575  0.4779
  294MOL0     C39621  11.463   5.940   8.463 -0.0594 -0.0002  0.3101
  294MOL0     C39622  11.333   5.920   8.424  0.6851  0.0647  0.2334
  294MOL0     H39623  11.019   5.687   8.184  0.3948  1.3074  0.0997
  294MOL0     H39624  10.792   5.636   8.073  1.8542  0.5012 -0.5182
  294MOL0     H39625  10.548   5.598   8.014 -0.3715  0.9280  0.6372
  294MOL0     H39626  10.604   5.517   8.169  0.7257 -0.7992  0.3738
  294MOL0     H39627  10.399   5.504   8.254  0.9658  0.0758  0.1758
  294MOL0     H39628  10.336   5.649   8.173  1.4074  0.7621  3.7433
  294MOL0     H39629  10.361   5.497   7.943 -1.3287  0.7268 -0.3751
  294MOL0     H39630  10.391   5.372   8.055  3.5739  2.6588 -1.1390
  294MOL0     H39631  10.172   5.435   8.175 -0.8349  0.7550  0.3629
  294MOL0     H39632  10.146   5.567   8.056 -0.7300 -0.3399 -0.5867
  294MOL0     H39633  10.131   5.397   7.871  0.5055  2.5344  1.1053
  294MOL0     H39634  10.155   5.262   7.969 -1.0275 -1.3757  0.8627
  294MOL0     H39635   9.908   5.445   7.956  1.2924  2.1624  1.8223
  294MOL0     H39636   9.937   5.272   7.915  0.6098 -0.8318  0.9423
  294MOL0     H39637   9.963   5.218   8.143 -2.1728 -1.7000 -1.4894
  294MOL0     H39638   9.944   5.389   8.202  0.9655 -0.2553  0.2775
  294MOL0     H39639   9.758   5.246   8.023 -2.2210  1.3998 -0.0974
  294MOL0     H39640   9.705   5.381   8.113 -3.1243 -1.2361 -1.3003
  294MOL0     H39641   9.683   5.001   8.118  1.1309  1.6173 -0.4558
  294MOL0     H39642   9.630   4.834   8.273 -1.0886 -2.3496  0.7917
  294MOL0     H39643   9.681   4.848   8.428  1.0127  1.0942 -0.0665
  294MOL0     H39644   9.455   4.928   8.499  1.6295  2.9977 -1.6210
  294MOL0     H39645   9.468   4.758   8.458 -1.4097  0.3243 -1.1266
  294MOL0     H39646   9.386   4.817   8.217 -1.3822 -1.0243 -0.1091
  294MOL0     H39647   9.364   4.983   8.276  1.4904 -0.1734 -0.4471
  294MOL0     H39648   9.179   4.901   8.433  0.3476 -0.0715  0.5366
  294MOL0     H39649   9.228   4.731   8.390 -1.0418  0.1347  0.8197
  294MOL0     H39650   9.093   4.593   8.334  3.0630  0.3063 -1.1803
  294MOL0     H39651   8.850   4.352   8.285  0.4630  0.1671  0.4941
  294MOL0     H39652   9.004   4.313   8.219 -0.8061 -0.0477 -1.1426
  294MOL0     H39653   8.987   4.401   8.376 -2.2014 -1.2402  0.1493
  294MOL0     H39654   8.697   4.484   7.806 -0.0392  0.8910  2.6867
  294MOL0     H39655   8.535   4.559   7.618 -3.6168 -0.1824 -1.0593
  294MOL0     H39656   8.298   4.843   7.669  2.1656 -1.1217 -1.7825
  294MOL0     H39657   8.249   4.793   7.512  1.7732  0.7603  0.5878
  294MOL0     H39658   8.114   4.700   7.770  0.8866  0.0962 -0.6407
  294MOL0     H39659   8.043   4.824   7.666 -0.5046 -0.4328 -0.1876
  294MOL0     H39660   8.064   4.534   7.629 -1.5449 -0.0811  1.4176
  294MOL0     H39661   8.055   4.633   7.485 -1.5364  1.2258 -0.0426
  294MOL0     H39662   7.864   4.648   7.736  0.8312  1.7742  0.1720
  294MOL0     H39663   7.851   4.752   7.590 -3.1231 -0.8705 -0.8322
  294MOL0     H39664   7.801   4.451   7.613 -0.0405  1.1347  2.4639
  294MOL0     H39665   7.784   4.542   7.461  2.7625 -1.6302 -0.0598
  294MOL0     H39666   7.638   4.612   7.721  0.1549  0.6605 -0.3177
  294MOL0     H39667   7.617   4.705   7.580  0.9929  0.3984  0.5602
  294MOL0     H39668   7.570   4.396   7.570 -0.1659 -0.0197 -0.0182
  294MOL0     H39669   7.539   4.509   7.441 -0.1509  0.9828 -0.0925
  294MOL0     H39670   7.381   4.632   7.593 -2.5340 -0.5445  3.9172
  294MOL0     H39671   7.385   4.495   7.705 -1.1066 -1.3734 -0.2177
  294MOL0     H39672   8.252   4.669   7.912 -0.6691 -2.5061  2.0003
  294MOL0     H39673   8.432   4.623   8.094  1.1728  1.8550 -0.2599
  294MOL0     H39674   8.811   4.724   7.962 -0.2790 -0.2539 -0.3244
  294MOL0     H39675   8.975   4.892   8.056  0.8659 -0.3868 -2.3539
  294MOL0     H39676  10.610   5.893   8.365  1.7685  1.1277  2.1332
  294MOL0     H39677  10.825   5.963   8.451 -2.4888  0.6082 -0.5104
  294MOL0     H39678  11.215   6.232   8.399  1.4154  1.2627 -3.0120
  294MOL0     H39679  11.471   6.279   8.470 -2.3097  1.1530  3.6481
  294MOL0     H39680  11.709   6.274   8.459  0.3365  1.4463  0.9085
  294MOL0     H39681  11.676   6.272   8.627  1.1039 -0.9105  1.2059
  294MOL0     H39682  11.924   6.245   8.529  0.0269 -0.3480  1.1963
  294MOL0     H39683  11.878   6.081   8.502  1.4703 -0.3941  0.6825
  294MOL0     H39684  11.817   6.062   8.749  0.3466 -0.2087 -0.5255
  294MOL0     H39685  11.884   6.222   8.780  0.6948 -1.4278  1.8047
  294MOL0     H39686  12.031   5.971   8.708 -0.1716  0.0424 -0.0311
  294MOL0     H39687  12.049   6.080   8.842 -1.5808  0.0491  0.0331
  294MOL0     H39688  12.273   6.241   8.508  0.7943 -1.8609  0.5109
  294MOL0     H39689  11.532   5.858   8.481 -1.8638 -1.6401  0.0856
  294MOL0     H39690  11.302   5.818   8.406  0.6723  0.4102 -2.1446
  295MOL0     O39691   5.782  11.128   5.781 -0.0415 -0.3434  0.0933
  295MOL0     C39692   5.773  11.037   5.867  0.7724 -0.3435 -1.1772
  295MOL0     O39693   5.655  10.974   5.900 -0.3680  0.6566 -0.6461
  295MOL0     C39694   5.539  11.022   5.860  0.1536 -0.2521 -0.7580
  295MOL0     C39695   5.474  11.119   5.921 -1.0928 -0.8149  0.9828
  295MOL0     C39696   5.342  11.153   5.880  0.2051 -0.4159 -0.3402
  295MOL0     C39697   5.277  11.074   5.779  0.1488  0.0402  0.1580
  295MOL0     O39698   5.146  11.090   5.742  0.2513 -0.9181  0.5892
  295MOL0     C39699   5.096  11.223   5.754  0.4446  0.9713 -0.3268
  295MOL0     C39700   4.996  11.240   5.650  0.7844  0.6231  0.2829
  295MOL0     C39701   4.859  11.182   5.682  0.1221 -0.1560  0.3508
  295MOL0     C39702   4.759  11.209   5.571  0.0881  0.1303 -0.1807
  295MOL0     C39703   4.631  11.120   5.593 -0.4607 -0.1265 -0.5868
  295MOL0     C39704   4.562  11.125   5.731 -0.5873 -0.3778  0.3772
  295MOL0     C39705   4.433  11.045   5.735 -0.6041 -0.0462 -0.7654
  295MOL0     C39706   4.311  11.094   5.655  0.2290  0.6897 -0.5699
  295MOL0     N39707   4.196  11.017   5.709 -0.5993 -0.0075  0.2112
  295MOL0     C39708   4.107  10.948   5.630  0.4497 -0.1249 -0.3769
  295MOL0     C39709   4.008  10.925   5.715  0.7226 -0.4984  0.3888
  295MOL0     C39710   3.893  10.837   5.687 -0.7731 -0.3490  0.3488
  295MOL0     C39711   3.799  10.805   5.806  0.1223  0.0121 -0.0134
  295MOL0     C39712   3.716  10.933   5.833  0.5261 -0.2369 -0.2206
  295MOL0     C39713   3.578  10.893   5.903 -0.7662 -0.0877 -0.4668
  295MOL0     O39714   3.524  11.008   5.971  0.5483 -0.0556  0.1958
  295MOL0     C39715   3.397  10.997   6.026 -0.7458 -0.4857 -0.7525
  295MOL0     C39716   3.345  11.114   6.079  1.1862  0.6997  0.2172
  295MOL0     C39717   3.217  11.123   6.134 -0.4447  0.3176  0.2669
  295MOL0     C39718   3.163  11.270   6.170 -0.2464 -0.5854  0.2045
  295MOL0     C39719   3.138  11.003   6.133  0.7901  0.2885 -0.2329
  295MOL0     C39720   2.994  10.993   6.179  0.2754  0.3021 -0.2029
  295MOL0     O39721   2.933  10.865   6.172 -0.2033 -0.0108  0.7987
  295MOL0     C39722   2.805  10.865   6.205  0.2865  0.6491 -0.3522
  295MOL0     C39723   2.716  10.925   6.116 -0.5561 -0.6724 -0.3194
  295MOL0     C39724   2.585  10.961   6.157  0.0668  0.3527 -0.2194
  295MOL0     C39725   2.543  10.920   6.285  0.5431 -0.4090 -0.0524
  295MOL0     O39726   2.407  10.947   6.326  0.2794  0.2859  0.1424
  295MOL0     C39727   2.380  10.998   6.456  0.6054  0.4341  0.6655
  295MOL0     C39728   2.339  10.906   6.566  0.2644 -0.3812 -0.1305
  295MOL0     C39729   2.189  10.865   6.578  0.2193 -0.2116  0.1538
  295MOL0     C39730   2.104  10.974   6.644  0.3266  0.2626 -0.0074
  295MOL0     C39731   1.957  10.951   6.664  0.7020  0.4713 -0.1154
  295MOL0     C39732   1.869  10.975   6.542 -0.9799 -0.0653 -0.2731
  295MOL0     C39733   1.724  10.919   6.564  0.2057  0.0840  0.0970
  295MOL0     C39734   1.623  10.989   6.466 -0.0069  0.0892 -0.5145
  295MOL0    Cl39735   1.460  10.934   6.504 -0.0318  0.1929  0.0656
  295MOL0     C39736   2.626  10.850   6.377 -1.1024 -0.3645  0.6237
  295MOL0     C39737   2.756  10.818   6.333 -0.0379  0.2709 -0.4172
  295MOL0     O39738   2.940  11.093   6.239 -0.8847 -0.0496  0.5831
  295MOL0     C39739   3.197  10.880   6.086 -0.0516  0.5463  0.0989
  295MOL0     C39740   3.320  10.884   6.035 -0.3428  0.2892  0.7911
  295MOL0     N39741   4.032  10.986   5.835  1.0038  0.5782  0.4273
  295MOL0     N39742   4.148  11.041   5.834  0.1932  0.5656  0.0425
  295MOL0     C39743   5.349  10.976   5.712  1.3701  0.1595 -0.3187
  295MOL0     C39744   5.476  10.944   5.760 -0.0392  1.2235 -0.0692
  295MOL0     C39745   5.890  10.985   5.934 -0.2179  0.4238 -0.4808
  295MOL0     C39746   5.883  10.888   6.039 -0.6563  0.9770  0.1260
  295MOL0     C39747   6.005  10.840   6.104  0.4236 -0.2091 -0.1288
  295MOL0     C39748   6.131  10.884   6.056  0.1344 -0.0123 -0.6655
  295MOL0     O39749   6.254  10.836   6.101 -0.4851 -0.7759  0.1168
  295MOL0     C39750   6.260  10.812   6.243  0.1004 -0.3704 -0.6957
  295MOL0     C39751   6.394  10.755   6.271  0.2056 -0.6890  0.0969
  295MOL0     C39752   6.507  10.858   6.273  0.6467  0.9159  1.3416
  295MOL0     C39753   6.645  10.806   6.313  0.5050  0.0057 -0.8014
  295MOL0     C39754   6.674  10.672   6.256 -0.5532 -0.7285  0.3509
  295MOL0     C39755   6.709  10.583   6.180 -0.2452  0.6009  0.6887
  295MOL0     C39756   6.135  10.976   5.952 -0.2952  0.0897 -0.2860
  295MOL0     C39757   6.022  11.021   5.893  0.0470 -0.3729  0.5386
  295MOL0     H39758   5.522  11.168   6.005  0.4790  0.8059 -0.7715
  295MOL0     H39759   5.296  11.234   5.936 -1.7309 -2.1365  0.7392
  295MOL0     H39760   5.056  11.221   5.855  2.5833  0.9185  0.5758
  295MOL0     H39761   5.173  11.301   5.747  0.4228  0.9474 -0.9572
  295MOL0     H39762   4.987  11.349   5.641  2.1703  0.8398  1.0577
  295MOL0     H39763   5.042  11.207   5.556  0.8492  0.5820  0.3284
  295MOL0     H39764   4.851  11.074   5.702  1.7945 -0.1926  0.9559
  295MOL0     H39765   4.819  11.235   5.769  2.5245 -0.4083  1.7008
  295MOL0     H39766   4.725  11.313   5.565 -2.6343 -0.7342 -1.8477
  295MOL0     H39767   4.804  11.184   5.474 -1.4812 -1.7392 -0.5069
  295MOL0     H39768   4.551  11.151   5.526  1.0380  1.9339 -1.5338
  295MOL0     H39769   4.649  11.014   5.569  1.8830 -0.2050  1.0894
  295MOL0     H39770   4.634  11.086   5.804 -1.7516  0.2154  1.8957
  295MOL0     H39771   4.542  11.227   5.763  0.8293 -0.2308  0.8582
  295MOL0     H39772   4.449  10.938   5.716  2.3644 -0.3410  2.3476
  295MOL0     H39773   4.402  11.052   5.840  1.9288  0.8103 -0.0088
  295MOL0     H39774   4.340  11.084   5.550  1.3646  0.3123 -0.2372
  295MOL0     H39775   4.310  11.201   5.676  0.8149  0.8422 -1.2665
  295MOL0     H39776   4.110  10.917   5.526  0.5394  0.2332 -0.4833
  295MOL0     H39777   3.840  10.883   5.602  1.7073  1.5519 -0.3121
  295MOL0     H39778   3.937  10.739   5.667  1.2374  0.2202  1.6958
  295MOL0     H39779   3.861  10.776   5.891  0.9484 -0.9068 -0.8824
  295MOL0     H39780   3.733  10.722   5.777 -1.2278  1.4682 -1.2898
  295MOL0     H39781   3.683  10.989   5.746  0.1997  0.2829  0.2368
  295MOL0     H39782   3.780  11.001   5.889 -0.0086 -0.9493  1.3100
  295MOL0     H39783   3.613  10.823   5.980  1.4346 -0.6610 -1.8918
  295MOL0     H39784   3.505  10.842   5.840  0.8395 -1.8957 -0.9411
  295MOL0     H39785   3.408  11.203   6.079  2.3196 -0.0421 -1.7461
  295MOL0     H39786   3.058  11.283   6.143 -1.4161 -1.0858  3.9101
  295MOL0     H39787   3.160  11.278   6.279 -0.9609  0.1441  0.1360
  295MOL0     H39788   3.230  11.349   6.137 -2.4351  2.3604  2.2934
  295MOL0     H39789   2.753  10.957   6.019  1.5889  1.3068  1.0537
  295MOL0     H39790   2.513  11.017   6.098  0.3054  1.1660  0.2506
  295MOL0     H39791   2.475  11.045   6.484  1.1737 -1.3135  1.8370
  295MOL0     H39792   2.302  11.075   6.451  1.0825  0.8423 -1.9116
  295MOL0     H39793   2.394  10.812   6.556  0.5837 -0.3904  1.4145
  295MOL0     H39794   2.371  10.954   6.659 -1.6607  3.6019 -1.2716
  295MOL0     H39795   2.177  10.785   6.651 -5.4601  0.4295  0.3589
  295MOL0     H39796   2.148  10.829   6.483 -0.4612  0.1504  0.3037
  295MOL0     H39797   2.140  10.987   6.746  1.8015 -2.3816 -0.0807
  295MOL0     H39798   2.113  11.069   6.592  1.3834 -0.1206 -0.5486
  295MOL0     H39799   1.914  11.025   6.733 -0.6030 -0.7024  0.3574
  295MOL0     H39800   1.942  10.848   6.697 -0.3180  0.9244  0.9181
  295MOL0     H39801   1.865  11.083   6.526 -0.9109 -0.3240 -2.4126
  295MOL0     H39802   1.915  10.921   6.458 -0.1025 -0.5203  0.4942
  295MOL0     H39803   1.690  10.934   6.667 -0.4230  1.8249 -0.3267
  295MOL0     H39804   1.717  10.811   6.547 -4.7417  0.0758  0.5145
  295MOL0     H39805   1.653  10.970   6.363 -2.5735 -1.9843 -0.9680
  295MOL0     H39806   1.630  11.097   6.484  4.1326 -0.1088  0.0887
  295MOL0     H39807   2.588  10.831   6.477  1.0396  2.1620  2.0074
  295MOL0     H39808   2.824  10.776   6.407  2.4134 -1.4366 -3.3962
  295MOL0     H39809   3.150  10.783   6.091 -0.8938  0.8429 -1.4071
  295MOL0     H39810   3.358  10.790   5.999 -0.7552  0.6535 -0.6629
  295MOL0     H39811   5.287  10.926   5.638 -2.5706  1.6311  1.7084
  295MOL0     H39812   5.523  10.856   5.720  2.2942  1.5620  1.7207
  295MOL0     H39813   5.789  10.845   6.072  1.1871 -3.4936  0.2341
  295MOL0     H39814   5.992  10.765   6.181  2.2862 -1.0234 -0.5526
  295MOL0     H39815   6.257  10.897   6.311  1.9836 -2.1038  1.7455
  295MOL0     H39816   6.189  10.733   6.272  2.4254 -3.0006 -1.7749
  295MOL0     H39817   6.418  10.679   6.197  1.7757 -0.4664  0.3528
  295MOL0     H39818   6.399  10.716   6.373 -0.2786  0.5512  0.6155
  295MOL0     H39819   6.484  10.940   6.341  2.2678  3.0441 -0.5120
  295MOL0     H39820   6.514  10.903   6.173  1.0564  1.7803  1.7453
  295MOL0     H39821   6.643  10.799   6.422 -2.2761 -0.2943 -0.8032
  295MOL0     H39822   6.729  10.872   6.288  0.8828 -0.7218 -1.5093
  295MOL0     H39823   6.746  10.502   6.122  1.7136  1.5427  0.5416
  295MOL0     H39824   6.221  11.012   5.896 -0.2289 -2.1945 -1.8160
  295MOL0     H39825   6.027  11.093   5.811 -1.7716 -1.8033 -0.9202
  296MOL0     O39826  10.367   9.857   0.181 -0.2526  0.3572 -0.1083
  296MOL0     C39827  10.448   9.765   0.184 -0.3083  0.6636  0.2030
  296MOL0     O39828  10.410   9.631   0.181 -0.2017 -0.0098  0.1245
  296MOL0     C39829  10.285   9.583   0.188 -0.0426 -0.2613  0.5711
  296MOL0     C39830  10.181   9.624   0.104  0.0703  0.0579 -0.2353
  296MOL0     C39831  10.056   9.564   0.106  0.2837  0.2260 -0.9264
  296MOL0     C39832  10.033   9.456   0.189 -0.0744  0.2510  0.4604
  296MOL0     O39833   9.910   9.387   0.181 -0.3358 -0.1940 -0.1446
  296MOL0     C39834   9.808   9.428   0.090  0.1158 -0.1715  0.5832
  296MOL0     C39835   9.680   9.347   0.125  0.3397 -0.0745 -0.6062
  296MOL0     C39836   9.546   9.406   0.074  0.0497 -0.6174  0.3302
  296MOL0     C39837   9.558   9.421  -0.077 -0.0108  0.9598 -0.4097
  296MOL0     C39838   9.437   9.481  -0.130  0.2893 -0.2241  0.2546
  296MOL0     C39839   9.332   9.384  -0.178  0.4891 -0.9586 -0.0648
  296MOL0     C39840   9.204   9.397  -0.088 -1.4234  0.5057 -0.4607
  296MOL0     C39841   9.181   9.270   0.005  0.8329 -0.1338  0.0098
  296MOL0     N39842   9.077   9.300   0.103 -1.1025 -0.5290  0.2321
  296MOL0     C39843   9.106   9.309   0.233 -0.0996  0.5649 -0.2589
  296MOL0     C39844   8.989   9.345   0.299 -0.2181 -0.9832 -0.1318
  296MOL0     C39845   8.975   9.375   0.452 -0.9311  0.1486  0.3854
  296MOL0     C39846   8.829   9.355   0.496 -0.4973  0.0829 -0.2354
  296MOL0     C39847   8.829   9.356   0.658 -0.3078  0.3113  0.3196
  296MOL0     C39848   8.693   9.322   0.696 -0.3120 -0.6216  0.3703
  296MOL0     O39849   8.668   9.324   0.833  0.8099  1.1003  0.5712
  296MOL0     C39850   8.536   9.315   0.863  0.1892  1.1023 -0.7538
  296MOL0     C39851   8.431   9.280   0.774  0.1663  0.0856 -0.8733
  296MOL0     C39852   8.301   9.251   0.808  0.6492 -0.3342  0.2165
  296MOL0     C39853   8.203   9.205   0.700  1.0354 -0.5096  0.1044
  296MOL0     C39854   8.266   9.264   0.945  0.2956  0.6804 -0.4250
  296MOL0     C39855   8.130   9.218   0.986 -0.2863  1.0377 -0.0893
  296MOL0     O39856   8.132   9.146   1.106 -0.1402 -0.7124 -0.2632
  296MOL0     C39857   8.013   9.090   1.139 -0.1801 -0.2929 -0.3266
  296MOL0     C39858   7.985   8.959   1.112 -0.3019  0.5424 -0.8497
  296MOL0     C39859   7.858   8.911   1.139 -0.7240  0.4211  0.3320
  296MOL0     C39860   7.757   8.996   1.186 -0.6559  0.7828 -0.7502
  296MOL0     O39861   7.623   8.962   1.189  0.2341  0.0995  0.3530
  296MOL0     C39862   7.586   8.827   1.235 -0.2730 -0.7389  0.3530
  296MOL0     C39863   7.448   8.798   1.192 -0.1640  0.1186  0.2327
  296MOL0     C39864   7.342   8.873   1.265 -0.3292  0.6180  0.1017
  296MOL0     C39865   7.196   8.810   1.237 -0.7814  0.5585  0.4283
  296MOL0     C39866   7.121   8.788   1.366 -0.2282  0.2481 -0.0118
  296MOL0     C39867   6.987   8.726   1.358 -0.4790  0.5408 -0.0411
  296MOL0     C39868   7.004   8.566   1.356  0.3448 -0.8290 -0.2050
  296MOL0     C39869   6.874   8.499   1.323 -0.0094 -0.6593  0.5611
  296MOL0    Cl39870   6.853   8.517   1.147 -0.5879 -0.0385  0.3254
  296MOL0     C39871   7.787   9.131   1.212  0.1113  0.4432 -0.1494
  296MOL0     C39872   7.917   9.176   1.189 -0.1948  0.3832  0.3543
  296MOL0     O39873   8.025   9.255   0.929  0.0801 -0.0440  0.2506
  296MOL0     C39874   8.358   9.316   1.039 -0.1198  0.1798  0.0277
  296MOL0     C39875   8.494   9.336   1.001 -0.4249 -0.0056  1.3023
  296MOL0     N39876   8.890   9.350   0.199  0.5306 -0.7028 -0.1763
  296MOL0     N39877   8.947   9.318   0.081 -0.8808  0.5884 -0.0070
  296MOL0     C39878  10.137   9.413   0.269 -0.5455  0.1335 -0.2403
  296MOL0     C39879  10.257   9.478   0.270  0.1263 -0.1827 -0.2230
  296MOL0     C39880  10.588   9.784   0.182 -0.0893  0.8742 -0.3270
  296MOL0     C39881  10.681   9.673   0.188 -0.0975  0.4204 -0.1486
  296MOL0     C39882  10.816   9.694   0.204 -0.1795 -0.7258  0.3332
  296MOL0     C39883  10.867   9.814   0.208 -0.1103 -1.3259  0.9546
  296MOL0     O39884  10.998   9.823   0.227  0.3795 -0.1292  0.4148
  296MOL0     C39885  11.063   9.951   0.226  1.0028 -0.3951 -0.7654
  296MOL0     C39886  11.217   9.947   0.228  0.2610 -0.3809 -0.0301
  296MOL0     C39887  11.280   9.879   0.102  0.0519  0.7299  0.1007
  296MOL0     C39888  11.435   9.879   0.126  0.5431  0.4233  0.4270
  296MOL0     C39889  11.506   9.783   0.042  0.3712  0.2724  0.4361
  296MOL0     C39890  11.558   9.716  -0.039 -0.1235  0.2546 -0.1946
  296MOL0     C39891  10.779   9.924   0.181 -0.9421  0.7807  0.4942
  296MOL0     C39892  10.639   9.914   0.166 -0.0010  0.0939 -0.3980
  296MOL0     H39893  10.195   9.697   0.025  0.5200 -1.5818 -1.7312
  296MOL0     H39894   9.988   9.609   0.033 -0.9941 -0.1062  0.0201
  296MOL0     H39895   9.776   9.530   0.113 -0.8907 -0.2030 -0.5881
  296MOL0     H39896   9.840   9.423  -0.015 -0.8546  1.4481  0.1799
  296MOL0     H39897   9.681   9.241   0.100 -1.6796 -1.6043  4.5031
  296MOL0     H39898   9.671   9.342   0.234 -1.9994 -1.5648 -0.7978
  296MOL0     H39899   9.463   9.340   0.100  1.4090 -2.3104  0.5761
  296MOL0     H39900   9.526   9.504   0.118  2.7023  0.1137  0.0676
  296MOL0     H39901   9.636   9.493  -0.101 -0.6377  2.3637  1.5202
  296MOL0     H39902   9.573   9.324  -0.126 -4.0286 -0.2045  0.2410
  296MOL0     H39903   9.386   9.550  -0.062 -3.6912 -0.7974 -1.8907
  296MOL0     H39904   9.455   9.547  -0.215  0.8737 -0.7732 -0.0531
  296MOL0     H39905   9.299   9.413  -0.279 -0.6061 -1.3547  0.1667
  296MOL0     H39906   9.374   9.283  -0.181  2.2529 -0.2903  0.4907
  296MOL0     H39907   9.201   9.491  -0.031  0.6891  0.5152 -0.2762
  296MOL0     H39908   9.117   9.397  -0.154  0.8303  1.4797 -3.6829
  296MOL0     H39909   9.272   9.241   0.058  1.4253 -0.5377 -1.2049
  296MOL0     H39910   9.144   9.186  -0.055  1.2465 -0.8065  0.6850
  296MOL0     H39911   9.207   9.294   0.272  0.6458  0.9444 -1.9670
  296MOL0     H39912   9.038   9.308   0.512 -3.3017 -1.0864  1.6151
  296MOL0     H39913   9.009   9.479   0.462  2.3178 -0.7521  0.0834
  296MOL0     H39914   8.788   9.264   0.453 -1.0226  1.5041 -2.9272
  296MOL0     H39915   8.763   9.431   0.453 -0.0947  0.3486 -0.3971
  296MOL0     H39916   8.845   9.456   0.700  1.0218 -0.0284  0.6397
  296MOL0     H39917   8.902   9.288   0.702  0.2247 -0.1825 -1.2778
  296MOL0     H39918   8.673   9.222   0.658  2.0029 -1.8989  2.2777
  296MOL0     H39919   8.628   9.392   0.642 -0.3339 -0.4128  0.6666
  296MOL0     H39920   8.447   9.265   0.668 -2.1145 -0.4182 -1.2068
  296MOL0     H39921   8.131   9.280   0.666  0.8354 -1.8185 -2.6468
  296MOL0     H39922   8.263   9.164   0.619 -0.0028 -2.1594  0.1406
  296MOL0     H39923   8.149   9.121   0.746 -2.4407  0.7699 -1.2852
  296MOL0     H39924   8.057   8.902   1.055  0.2100  1.0764 -0.7502
  296MOL0     H39925   7.831   8.813   1.100 -1.9762  1.4024 -1.4344
  296MOL0     H39926   7.661   8.755   1.200 -0.2144 -0.9290  0.8626
  296MOL0     H39927   7.588   8.821   1.344 -0.9413  1.2807  0.4988
  296MOL0     H39928   7.429   8.799   1.085  0.0145 -0.7669  0.1814
  296MOL0     H39929   7.433   8.695   1.227 -0.3716  0.9997  2.9857
  296MOL0     H39930   7.339   8.980   1.241 -1.2118  0.4518 -0.5898
  296MOL0     H39931   7.366   8.856   1.371 -0.3700 -0.9871 -0.1267
  296MOL0     H39932   7.140   8.863   1.160  1.8947 -2.4215 -4.0547
  296MOL0     H39933   7.215   8.709   1.200  1.1546 -0.0648  2.8063
  296MOL0     H39934   7.101   8.891   1.400 -0.0712  0.7725 -1.4625
  296MOL0     H39935   7.180   8.727   1.435 -2.0171 -1.5417  0.0468
  296MOL0     H39936   6.920   8.761   1.437  0.3423  0.5507  0.6699
  296MOL0     H39937   6.947   8.743   1.257 -0.3153 -2.0724 -0.6385
  296MOL0     H39938   7.034   8.537   1.457  1.2777  0.6154 -0.0355
  296MOL0     H39939   7.093   8.547   1.296  1.1311  4.4273 -1.2289
  296MOL0     H39940   6.794   8.556   1.370 -1.3769 -0.8802 -1.3516
  296MOL0     H39941   6.878   8.396   1.360  0.1470 -0.7141  0.3991
  296MOL0     H39942   7.704   9.195   1.238  1.5989  2.7486 -0.7133
  296MOL0     H39943   7.933   9.284   1.190 -0.0035  0.3719 -0.5154
  296MOL0     H39944   8.330   9.314   1.144 -1.0263 -0.7580 -0.2101
  296MOL0     H39945   8.575   9.361   1.069  1.1248  0.4907 -0.6342
  296MOL0     H39946  10.118   9.327   0.331 -1.0970  1.3129  1.2898
  296MOL0     H39947  10.341   9.441   0.328  0.6332 -1.0869 -1.4961
  296MOL0     H39948  10.645   9.570   0.190 -1.3352  0.8308  1.9034
  296MOL0     H39949  10.889   9.614   0.209 -0.2152 -0.7648  0.2274
  296MOL0     H39950  11.031  10.007   0.138  0.9549  0.4156 -0.2389
  296MOL0     H39951  11.025  10.004   0.314  1.1848 -0.5384 -0.5987
  296MOL0     H39952  11.254   9.883   0.309 -0.2486 -0.0717  0.4552
  296MOL0     H39953  11.253  10.050   0.232 -0.7887  0.0050 -0.2449
  296MOL0     H39954  11.256   9.934   0.010  0.3456 -0.0375 -0.4462
  296MOL0     H39955  11.248   9.775   0.093  3.0456 -0.3850  1.2744
  296MOL0     H39956  11.454   9.856   0.231 -0.7281  1.3822  0.9048
  296MOL0     H39957  11.451   9.985   0.105 -1.7016  0.6651 -0.3336
  296MOL0     H39958  11.590   9.646  -0.114 -0.7669 -0.2519 -0.0097
  296MOL0     H39959  10.813  10.026   0.174  0.7440  0.1669 -1.6130
  296MOL0     H39960  10.583  10.007   0.168  0.6708  0.4847  1.1622
  297MOL0     O39961   4.811   2.338   4.593  0.1373  0.1834  0.0526
  297MOL0     C39962   4.817   2.376   4.711 -0.4364 -0.0350  0.6450
  297MOL0     O39963   4.716   2.371   4.795 -0.3862  0.0293  0.0333
  297MOL0     C39964   4.601   2.303   4.777 -0.3651 -0.1060 -0.4616
  297MOL0     C39965   4.606   2.176   4.713  0.2479 -0.6501 -0.1204
  297MOL0     C39966   4.485   2.106   4.706  0.8012  0.5023 -0.1760
  297MOL0     C39967   4.359   2.144   4.765  0.0144 -0.0909  0.1140
  297MOL0     O39968   4.251   2.060   4.786  0.3093 -0.5215  0.0595
  297MOL0     C39969   4.190   2.013   4.665  0.0825  0.5308  0.1780
  297MOL0     C39970   4.087   1.897   4.694 -0.2943  0.2325  0.1948
  297MOL0     C39971   3.968   1.943   4.772 -0.1766  0.7241  0.7419
  297MOL0     C39972   3.857   1.986   4.673  0.4960  0.4119 -0.6394
  297MOL0     C39973   3.730   2.002   4.748  0.1664  0.0293 -0.3970
  297MOL0     C39974   3.619   1.998   4.644  0.3124 -0.1904  0.1041
  297MOL0     C39975   3.482   2.027   4.713 -0.0367  0.8666 -0.8728
  297MOL0     C39976   3.465   2.181   4.750  0.0100 -0.2659  0.1550
  297MOL0     N39977   3.333   2.202   4.808 -0.3018 -0.1573  0.5079
  297MOL0     C39978   3.218   2.153   4.757  0.5519  0.2477  0.0545
  297MOL0     C39979   3.130   2.170   4.857  0.0891 -0.2538 -0.1259
  297MOL0     C39980   2.998   2.107   4.862 -0.2679 -0.2295  0.7327
  297MOL0     C39981   2.890   2.173   4.763 -0.6358  0.0130 -0.1032
  297MOL0     C39982   2.909   2.322   4.742 -0.3265  0.8885  0.5370
  297MOL0     C39983   2.860   2.391   4.856  0.7795 -0.7267  0.0432
  297MOL0     O39984   2.723   2.348   4.885  0.2442  0.2758 -0.1040
  297MOL0     C39985   2.617   2.421   4.842  0.1910 -0.1181 -0.1864
  297MOL0     C39986   2.491   2.373   4.874  0.7921  0.4214  0.1642
  297MOL0     C39987   2.368   2.434   4.824  1.1493 -0.4536 -0.2254
  297MOL0     C39988   2.240   2.368   4.860  0.0996  0.5619  0.2812
  297MOL0     C39989   2.388   2.543   4.733 -0.6122  0.3538 -0.3059
  297MOL0     C39990   2.271   2.610   4.679  0.0263 -0.4473  0.0915
  297MOL0     O39991   2.286   2.748   4.671  0.4690  0.1603 -0.2611
  297MOL0     C39992   2.190   2.833   4.617 -0.7387  1.2308 -0.4121
  297MOL0     C39993   2.202   2.967   4.665  0.1087 -0.2462  0.3389
  297MOL0     C39994   2.097   3.056   4.637 -0.3552 -0.3861 -0.4999
  297MOL0     C39995   1.989   3.021   4.559 -0.2452 -1.0241  0.1748
  297MOL0     O39996   1.882   3.105   4.545  0.5485  0.2993 -0.2423
  297MOL0     C39997   1.899   3.247   4.548  0.2100 -0.1285  0.3679
  297MOL0     C39998   1.809   3.327   4.450 -0.3179 -0.0166 -0.2412
  297MOL0     C39999   1.653   3.331   4.459  0.1776 -0.2943  0.6272
  297MOL0     C40000   1.569   3.379   4.335 -0.1704 -0.0110 -0.3780
  297MOL0     C40001   1.427   3.435   4.365  0.0148 -1.3631 -0.2237
  297MOL0     C40002   1.336   3.473   4.249  0.2007 -0.5193  0.0551
  297MOL0     C40003   1.392   3.598   4.169  0.9022 -0.1527  0.3649
  297MOL0     C40004   1.311   3.653   4.061  0.9376  0.5016  0.4125
  297MOL0    Cl40005   1.404   3.789   3.995 -0.1609  0.2763  0.4756
  297MOL0     C40006   1.979   2.885   4.514 -0.1443 -0.0446  1.1287
  297MOL0     C40007   2.074   2.793   4.547  0.1301  0.1447  0.0181
  297MOL0     O40008   2.193   2.541   4.621 -0.1236 -0.2393  0.4284
  297MOL0     C40009   2.512   2.594   4.717  0.1472  0.3108  0.1702
  297MOL0     C40010   2.627   2.541   4.775 -0.3099  1.3901 -0.2043
  297MOL0     N40011   3.183   2.236   4.961  0.5296 -0.5968  0.3202
  297MOL0     N40012   3.308   2.253   4.929 -0.2394  0.3785 -1.0364
  297MOL0     C40013   4.361   2.274   4.816 -0.2152  0.1117 -0.5913
  297MOL0     C40014   4.476   2.348   4.826 -0.3303  0.0115 -0.2072
  297MOL0     C40015   4.932   2.444   4.756 -0.5942  0.3101 -0.3015
  297MOL0     C40016   5.061   2.435   4.693  0.5630  0.5267 -0.0696
  297MOL0     C40017   5.163   2.510   4.739 -0.2317  0.0649  0.4297
  297MOL0     C40018   5.154   2.582   4.856  0.5874 -0.4738 -0.3904
  297MOL0     O40019   5.269   2.650   4.902  0.4519  0.1224 -0.1454
  297MOL0     C40020   5.389   2.659   4.830  0.0524 -0.2699 -0.2259
  297MOL0     C40021   5.456   2.784   4.886  0.4369  0.0484 -0.5480
  297MOL0     C40022   5.568   2.834   4.797 -0.0398  0.0587 -0.4023
  297MOL0     C40023   5.688   2.738   4.777 -0.9407  0.4778  0.0730
  297MOL0     C40024   5.737   2.695   4.910 -0.5118 -0.3726  0.2241
  297MOL0     C40025   5.769   2.656   5.018 -0.6719  0.4840 -0.2713
  297MOL0     C40026   5.030   2.580   4.924 -0.9054  0.2739  0.1757
  297MOL0     C40027   4.922   2.508   4.884 -0.3196  0.0671 -0.3959
  297MOL0     H40028   4.707   2.147   4.685  0.7685 -0.9537  1.9393
  297MOL0     H40029   4.496   2.004   4.671 -1.5101  0.2499 -0.3183
  297MOL0     H40030   4.152   2.104   4.617  1.2317  1.2512  0.5748
  297MOL0     H40031   4.275   1.982   4.603 -0.1183  1.3035 -0.5018
  297MOL0     H40032   4.073   1.834   4.606  0.8034 -0.7640  0.7225
  297MOL0     H40033   4.135   1.828   4.763  4.1229  2.6532 -0.1087
  297MOL0     H40034   3.941   1.865   4.844  0.1709 -0.5185 -0.4325
  297MOL0     H40035   4.004   2.028   4.830 -0.9039  1.3397  0.3072
  297MOL0     H40036   3.889   2.072   4.613  0.9952 -0.8953 -2.3299
  297MOL0     H40037   3.836   1.904   4.604 -1.5784  0.2693  0.0927
  297MOL0     H40038   3.714   1.921   4.820  0.5322 -0.4107 -0.7951
  297MOL0     H40039   3.727   2.094   4.806  0.5680 -0.6514  0.7570
  297MOL0     H40040   3.640   2.079   4.573 -1.2141  0.3358  0.2216
  297MOL0     H40041   3.612   1.902   4.592  0.6516  0.5867 -1.4605
  297MOL0     H40042   3.403   1.993   4.645 -1.1803  0.0791  0.7838
  297MOL0     H40043   3.466   1.970   4.805 -1.0440  1.2149 -0.8170
  297MOL0     H40044   3.464   2.241   4.659 -1.7265  0.8794  0.8656
  297MOL0     H40045   3.549   2.219   4.809 -1.0834  0.3307  1.3875
  297MOL0     H40046   3.211   2.109   4.658 -0.2457  1.2282 -0.3318
  297MOL0     H40047   3.022   2.003   4.840  1.0321 -0.0003  1.0266
  297MOL0     H40048   2.958   2.112   4.964 -1.7624  0.8740  0.1394
  297MOL0     H40049   2.798   2.136   4.809 -1.7278  4.5262  1.8707
  297MOL0     H40050   2.913   2.123   4.668  3.1561 -1.1336  1.2365
  297MOL0     H40051   2.849   2.353   4.656 -0.3702 -3.0724 -1.0377
  297MOL0     H40052   3.013   2.350   4.721 -0.0395 -0.0351  0.6890
  297MOL0     H40053   2.871   2.498   4.835  2.3224 -0.0788  3.3971
  297MOL0     H40054   2.926   2.395   4.943  0.8939  2.1576 -0.0553
  297MOL0     H40055   2.472   2.284   4.932 -0.0930  1.2275  1.1584
  297MOL0     H40056   2.258   2.263   4.882  0.3305  0.4878 -0.2290
  297MOL0     H40057   2.189   2.412   4.946 -1.2913 -3.3716  1.6763
  297MOL0     H40058   2.168   2.374   4.777 -3.0578  0.2707  2.8162
  297MOL0     H40059   2.277   3.000   4.736 -1.1105 -1.5062  2.3164
  297MOL0     H40060   2.114   3.149   4.691  0.6112 -0.8472  0.0302
  297MOL0     H40061   1.887   3.297   4.645 -0.4850  3.1888 -1.2876
  297MOL0     H40062   2.005   3.265   4.524  0.6315  0.4526  2.4652
  297MOL0     H40063   1.843   3.430   4.471 -4.4059  1.3293  0.6421
  297MOL0     H40064   1.835   3.296   4.348 -1.0296  1.2765 -0.8469
  297MOL0     H40065   1.633   3.400   4.542 -1.1092 -0.2234  0.2887
  297MOL0     H40066   1.623   3.234   4.500  1.6665 -1.3106 -0.5838
  297MOL0     H40067   1.635   3.451   4.286 -0.7696 -0.7369 -2.3428
  297MOL0     H40068   1.560   3.299   4.261  1.8794 -0.3150 -0.3741
  297MOL0     H40069   1.435   3.518   4.436  2.7819 -1.9180  0.2385
  297MOL0     H40070   1.373   3.359   4.422 -1.2864  0.7496  1.5432
  297MOL0     H40071   1.309   3.390   4.183  0.9510 -0.1369 -0.7430
  297MOL0     H40072   1.243   3.509   4.295  0.9817  2.1033 -0.2393
  297MOL0     H40073   1.488   3.574   4.121  0.6668 -3.8317  1.4458
  297MOL0     H40074   1.391   3.677   4.245 -1.7249 -0.9020  1.2008
  297MOL0     H40075   1.213   3.678   4.101 -0.7488 -4.0800 -0.2173
  297MOL0     H40076   1.288   3.583   3.981  2.8424 -0.3761  0.5743
  297MOL0     H40077   1.893   2.850   4.459  0.2544  1.5350 -0.6188
  297MOL0     H40078   2.071   2.691   4.510  3.7998 -0.4071  0.8598
  297MOL0     H40079   2.531   2.675   4.648  1.6511  0.7455  1.0395
  297MOL0     H40080   2.720   2.595   4.754  0.8971 -0.5978 -0.2221
  297MOL0     H40081   4.267   2.306   4.859 -1.1747 -0.4048 -2.2042
  297MOL0     H40082   4.454   2.451   4.854 -0.8852  0.3353 -1.7527
  297MOL0     H40083   5.067   2.381   4.599 -0.6609 -2.0137  1.2123
  297MOL0     H40084   5.250   2.500   4.675  1.0994  1.0543  1.9935
  297MOL0     H40085   5.456   2.572   4.833 -0.3898 -0.6393 -0.8093
  297MOL0     H40086   5.353   2.671   4.727 -5.0215 -3.9662  0.7172
  297MOL0     H40087   5.508   2.761   4.980  0.4131 -2.1731 -1.0213
  297MOL0     H40088   5.386   2.864   4.913 -0.5385 -0.5226 -1.3278
  297MOL0     H40089   5.607   2.927   4.839 -1.4064  0.3553  0.2552
  297MOL0     H40090   5.532   2.855   4.696  0.0710 -1.9769 -0.9031
  297MOL0     H40091   5.771   2.778   4.717 -0.1109 -0.9898  0.2081
  297MOL0     H40092   5.672   2.655   4.708  1.8275  1.9401 -2.5765
  297MOL0     H40093   5.795   2.607   5.110 -1.0072 -0.2345 -0.5565
  297MOL0     H40094   5.028   2.641   5.014  2.3185 -0.2221  0.6996
  297MOL0     H40095   4.837   2.505   4.951  1.0493  0.7548  1.4707
  298MOL0     O40096  11.192   6.926   9.410 -0.3188  0.0457 -0.2583
  298MOL0     C40097  11.186   7.008   9.506 -0.2672 -0.5321 -0.1725
  298MOL0     O40098  11.076   7.072   9.554  0.1713 -0.6169  0.3196
  298MOL0     C40099  10.950   7.059   9.500  1.1021 -0.2412 -0.2392
  298MOL0     C40100  10.845   7.050   9.591  0.5554 -0.6497 -0.2065
  298MOL0     C40101  10.713   7.045   9.543 -1.1420 -0.2829  1.4035
  298MOL0     C40102  10.692   7.034   9.407  0.6400  0.2197  0.7384
  298MOL0     O40103  10.555   7.032   9.368 -0.2191 -0.1940 -0.4065
  298MOL0     C40104  10.522   7.031   9.231 -0.5767  0.4266  0.2029
  298MOL0     C40105  10.371   6.993   9.211  0.2271 -0.1770  0.2617
  298MOL0     C40106  10.314   7.005   9.064 -0.3472 -0.8090  0.0147
  298MOL0     C40107  10.156   6.974   9.060  0.0856 -0.1326  0.4749
  298MOL0     C40108  10.079   7.032   8.937  0.2985 -0.3310  0.9080
  298MOL0     C40109   9.932   7.008   8.942  0.0604 -0.1088 -0.4653
  298MOL0     C40110   9.896   6.874   8.879  0.0111 -0.3008 -0.2432
  298MOL0     C40111   9.753   6.833   8.893 -0.0277 -0.0185 -0.0419
  298MOL0     N40112   9.689   6.863   9.025 -0.0808 -0.3035 -0.8991
  298MOL0     C40113   9.569   6.930   9.028 -0.2063 -0.7392 -0.2200
  298MOL0     C40114   9.537   6.922   9.158 -0.7164 -0.8043 -1.1929
  298MOL0     C40115   9.429   7.002   9.227 -0.0225 -0.6009  0.7192
  298MOL0     C40116   9.296   7.005   9.143 -0.3626 -0.2091 -0.8064
  298MOL0     C40117   9.200   7.091   9.204  0.0579 -0.1333 -0.6346
  298MOL0     C40118   9.147   7.025   9.340  1.1435 -0.6121  0.3036
  298MOL0     O40119   9.047   6.928   9.318  0.6713  0.9512 -0.3084
  298MOL0     C40120   8.917   6.963   9.289  0.4228  0.1169  0.3375
  298MOL0     C40121   8.822   6.866   9.312 -0.0925  0.9636 -0.2721
  298MOL0     C40122   8.688   6.886   9.287  0.2603  0.2599  0.1457
  298MOL0     C40123   8.597   6.772   9.322 -0.1532 -0.5822 -0.6411
  298MOL0     C40124   8.644   7.014   9.247 -0.2299  0.2739 -0.2620
  298MOL0     C40125   8.497   7.052   9.222 -0.6134 -0.2702  0.6001
  298MOL0     O40126   8.479   7.167   9.153 -0.1565 -0.5549 -0.2113
  298MOL0     C40127   8.348   7.197   9.130  1.0083 -0.0195  0.7602
  298MOL0     C40128   8.274   7.278   9.213 -0.0356  0.2068  0.0686
  298MOL0     C40129   8.131   7.297   9.179 -0.5459  0.0051  1.2369
  298MOL0     C40130   8.068   7.232   9.074  0.3925  0.7498  0.3406
  298MOL0     O40131   7.936   7.220   9.053 -0.0687 -0.2183 -0.1238
  298MOL0     C40132   7.839   7.294   9.127  0.1736  0.1867  0.0310
  298MOL0     C40133   7.699   7.271   9.082 -0.0562 -1.0635 -0.0344
  298MOL0     C40134   7.647   7.131   9.127  0.3131  0.6210 -1.3109
  298MOL0     C40135   7.497   7.120   9.075 -0.2420  0.0153 -0.9698
  298MOL0     C40136   7.462   6.970   9.094 -0.5908  0.5354 -0.2522
  298MOL0     C40137   7.332   6.943   9.025  0.1718 -0.7387 -0.3182
  298MOL0     C40138   7.295   6.796   9.044 -0.0305 -0.1357 -0.1518
  298MOL0     C40139   7.214   6.748   8.921  0.4617  0.2585  1.0778
  298MOL0    Cl40140   7.157   6.576   8.946  0.0189  0.3818  0.1144
  298MOL0     C40141   8.148   7.154   8.992 -0.7484 -0.8380  0.3221
  298MOL0     C40142   8.279   7.128   9.026 -0.0599  0.3696 -0.8390
  298MOL0     O40143   8.406   6.975   9.262  0.6541 -1.2163 -0.1085
  298MOL0     C40144   8.740   7.114   9.233  0.0176  0.2989  0.6932
  298MOL0     C40145   8.877   7.089   9.251 -0.0305 -0.3603 -0.0541
  298MOL0     N40146   9.623   6.840   9.224  0.0933  0.0939 -0.9459
  298MOL0     N40147   9.709   6.801   9.146  0.2819 -0.0747  0.0246
  298MOL0     C40148  10.799   7.038   9.314 -0.1200 -0.5491  0.7756
  298MOL0     C40149  10.929   7.062   9.362  0.1401  0.2427 -0.0033
  298MOL0     C40150  11.311   7.065   9.567 -0.3868 -0.1782 -0.0481
  298MOL0     C40151  11.434   7.041   9.500 -0.3833  0.3906 -0.1765
  298MOL0     C40152  11.551   7.097   9.545  0.5021  0.2433 -0.9776
  298MOL0     C40153  11.558   7.174   9.662 -0.1295  0.4475 -0.1997
  298MOL0     O40154  11.671   7.233   9.718  0.0458 -0.3664 -0.0812
  298MOL0     C40155  11.795   7.200   9.666 -0.5634 -0.2656  0.3505
  298MOL0     C40156  11.912   7.247   9.762 -0.2124 -0.3453  0.3085
  298MOL0     C40157  12.054   7.217   9.704 -0.0890  0.5995  0.0718
  298MOL0     C40158  12.165   7.252   9.798 -0.0146 -0.6719  0.0401
  298MOL0     C40159  12.155   7.190   9.927 -0.2584  0.9368 -0.1721
  298MOL0     C40160  12.162   7.134  10.034 -0.0957 -0.4369 -1.3546
  298MOL0     C40161  11.437   7.192   9.731  0.9438 -0.3794 -0.2920
  298MOL0     C40162  11.314   7.150   9.679 -0.3378  0.1025 -0.7785
  298MOL0     H40163  10.863   7.060   9.698 -0.6091 -1.2702  0.0589
  298MOL0     H40164  10.625   7.049   9.607 -2.8766  0.7135 -0.9155
  298MOL0     H40165  10.547   7.128   9.187  2.7646 -0.4967 -0.2233
  298MOL0     H40166  10.590   6.961   9.182  0.8403  1.8452  0.0644
  298MOL0     H40167  10.357   6.894   9.254  0.3628  0.7517  2.5990
  298MOL0     H40168  10.315   7.061   9.276 -1.2799 -3.7064  2.9917
  298MOL0     H40169  10.334   7.108   9.032  4.0680 -0.2073  3.6358
  298MOL0     H40170  10.369   6.932   9.004 -0.3770 -1.1545  0.3998
  298MOL0     H40171  10.141   6.866   9.063  5.3150 -1.2006 -1.8577
  298MOL0     H40172  10.107   7.012   9.150 -0.1828  4.1450 -1.2308
  298MOL0     H40173  10.107   7.136   8.917 -1.0058 -0.1416 -0.0732
  298MOL0     H40174  10.108   6.982   8.844 -1.0123  0.7692 -0.1321
  298MOL0     H40175   9.911   7.002   9.050  0.2813 -0.1881 -0.4274
  298MOL0     H40176   9.870   7.091   8.907  1.5331  1.4235  0.4220
  298MOL0     H40177   9.912   6.866   8.772  0.6098 -1.9096 -0.0556
  298MOL0     H40178   9.956   6.801   8.933 -1.6096 -1.3261  0.2413
  298MOL0     H40179   9.743   6.726   8.874  0.3031 -0.3495  1.5373
  298MOL0     H40180   9.691   6.885   8.819  0.2525 -0.0708 -0.3126
  298MOL0     H40181   9.530   6.998   8.953  3.0981  1.4852 -0.1606
  298MOL0     H40182   9.408   6.952   9.322  1.4421 -2.6308  0.0506
  298MOL0     H40183   9.459   7.106   9.242 -1.7214 -0.2446  1.8940
  298MOL0     H40184   9.265   6.900   9.134 -0.8512 -0.1750  0.3017
  298MOL0     H40185   9.310   7.042   9.041 -1.6542  0.1072 -0.8875
  298MOL0     H40186   9.110   7.108   9.145 -1.3569  2.4562  1.9719
  298MOL0     H40187   9.247   7.185   9.236  1.5642 -1.2060  0.4264
  298MOL0     H40188   9.103   7.111   9.392  0.5424  2.3999 -4.5193
  298MOL0     H40189   9.226   6.990   9.407  1.8578 -1.1521 -0.7954
  298MOL0     H40190   8.863   6.773   9.349  0.8198  1.9875  1.4386
  298MOL0     H40191   8.659   6.692   9.363  0.4183 -0.3393 -1.0260
  298MOL0     H40192   8.519   6.799   9.394 -0.4608 -1.8101 -0.4859
  298MOL0     H40193   8.551   6.724   9.235 -1.9837 -2.0423  1.0156
  298MOL0     H40194   8.313   7.342   9.291 -0.3082 -0.3469  0.6624
  298MOL0     H40195   8.080   7.372   9.238  0.1946  1.1514  0.4595
  298MOL0     H40196   7.848   7.272   9.234 -1.0532 -4.9864 -0.6388
  298MOL0     H40197   7.867   7.399   9.115  3.7409 -0.6006  0.2836
  298MOL0     H40198   7.639   7.355   9.117  1.8400  0.5961 -0.5446
  298MOL0     H40199   7.696   7.284   8.974 -1.7646  2.1834  0.2649
  298MOL0     H40200   7.645   7.095   9.230 -2.3755 -1.7720 -2.0636
  298MOL0     H40201   7.703   7.055   9.072 -0.1422  0.2804 -1.3116
  298MOL0     H40202   7.436   7.185   9.139  2.8374  2.8804 -0.6716
  298MOL0     H40203   7.501   7.160   8.973  0.0430  2.2475 -0.1518
  298MOL0     H40204   7.453   6.946   9.200  0.4361 -0.5836 -0.3925
  298MOL0     H40205   7.544   6.906   9.060  0.7664  1.2584  1.5386
  298MOL0     H40206   7.255   7.007   9.071 -0.8631 -3.6006  2.3327
  298MOL0     H40207   7.343   6.970   8.920  1.4644  0.0743 -0.0038
  298MOL0     H40208   7.237   6.780   9.135 -0.6920  0.4952 -0.4480
  298MOL0     H40209   7.387   6.737   9.050  0.0923 -0.1334 -1.6060
  298MOL0     H40210   7.271   6.759   8.828 -1.1375  2.5472  0.2455
  298MOL0     H40211   7.119   6.803   8.919 -0.8137 -1.8537  0.7098
  298MOL0     H40212   8.094   7.100   8.915  0.4934 -0.9668 -0.4843
  298MOL0     H40213   8.333   7.060   8.961 -2.5486 -1.5214 -1.1066
  298MOL0     H40214   8.709   7.216   9.211  1.1181  0.8212  1.4704
  298MOL0     H40215   8.941   7.174   9.232 -2.4558  1.3462 -1.1889
  298MOL0     H40216  10.786   7.041   9.206 -2.8526 -2.8251  0.9213
  298MOL0     H40217  11.016   7.070   9.297  0.0526  0.3617 -0.1078
  298MOL0     H40218  11.434   6.981   9.409  0.6798 -0.2299  0.2104
  298MOL0     H40219  11.638   7.065   9.490  1.6584 -1.6396  1.7233
  298MOL0     H40220  11.808   7.092   9.654 -0.2172 -0.1536 -0.3971
  298MOL0     H40221  11.811   7.239   9.565  0.1802 -1.6540 -0.1049
  298MOL0     H40222  11.907   7.204   9.862  3.1413  0.2580  0.8767
  298MOL0     H40223  11.914   7.357   9.757  3.8596 -0.2267  1.1968
  298MOL0     H40224  12.059   7.279   9.614 -0.9064  1.5039  0.6253
  298MOL0     H40225  12.067   7.110   9.685  0.1944  0.4569  0.9914
  298MOL0     H40226  12.158   7.360   9.812  2.3317 -0.0378 -2.5904
  298MOL0     H40227  12.261   7.238   9.746 -0.3437 -0.2216 -0.7097
  298MOL0     H40228  12.158   7.087  10.131  0.9920 -1.6643 -1.8594
  298MOL0     H40229  11.450   7.257   9.817 -0.3563  0.3892 -0.6437
  298MOL0     H40230  11.219   7.167   9.728 -0.1408  0.0076 -0.3507
  299MOL0     O40231   2.630   4.439   5.982  0.1101  0.2441 -0.0684
  299MOL0     C40232   2.681   4.475   5.875 -0.0075  0.2085 -0.0721
  299MOL0     O40233   2.638   4.442   5.750  0.1882  0.3684  0.4920
  299MOL0     C40234   2.543   4.340   5.728  0.2503  0.6552  0.2614
  299MOL0     C40235   2.548   4.282   5.610 -0.5600  0.3818  0.0611
  299MOL0     C40236   2.450   4.183   5.571  0.5593  0.9627  0.1181
  299MOL0     C40237   2.377   4.122   5.675 -0.3231  0.4672 -0.8845
  299MOL0     O40238   2.303   4.017   5.653 -0.1977 -0.0717 -0.4397
  299MOL0     C40239   2.368   3.911   5.593  1.1223 -0.0345 -0.8371
  299MOL0     C40240   2.283   3.782   5.586  0.3532 -0.1096  0.4497
  299MOL0     C40241   2.153   3.803   5.517 -0.4080 -0.2594  0.4841
  299MOL0     C40242   2.062   3.684   5.550 -0.1801 -0.4768  0.8179
  299MOL0     C40243   1.926   3.691   5.488  0.0066  0.6856 -0.0375
  299MOL0     C40244   1.836   3.584   5.548  0.3631 -0.6102 -0.0013
  299MOL0     C40245   1.685   3.605   5.501 -0.3139 -0.9543 -0.3532
  299MOL0     C40246   1.670   3.600   5.346 -1.0761 -0.2092 -0.3297
  299MOL0     N40247   1.537   3.633   5.305 -0.1520  0.5019 -0.1446
  299MOL0     C40248   1.478   3.758   5.309  0.3869  1.0256 -0.5307
  299MOL0     C40249   1.346   3.738   5.272  0.2118  0.8451  0.6339
  299MOL0     C40250   1.233   3.842   5.273 -0.2819  0.1789  0.7534
  299MOL0     C40251   1.107   3.781   5.233  0.6961  0.6840  0.1375
  299MOL0     C40252   0.997   3.876   5.204  0.0466  0.5714 -0.3660
  299MOL0     C40253   0.873   3.799   5.155  0.7148 -0.4122 -0.1894
  299MOL0     O40254   0.761   3.892   5.140 -0.3141 -0.0348 -0.1962
  299MOL0     C40255   0.641   3.847   5.091 -0.2519  0.0833 -0.7263
  299MOL0     C40256   0.533   3.934   5.094 -0.5255  0.5323  0.5261
  299MOL0     C40257   0.407   3.900   5.039  0.6032 -0.0243 -0.1945
  299MOL0     C40258   0.294   3.996   5.070 -0.1715 -0.1340 -0.2866
  299MOL0     C40259   0.390   3.772   4.977 -0.0548  0.1137 -0.1055
  299MOL0     C40260   0.267   3.748   4.900  0.0953  0.3743 -0.0549
  299MOL0     O40261   0.216   3.841   4.821 -0.0262  0.0137 -0.4621
  299MOL0     C40262   0.084   3.866   4.825 -0.7882 -0.1348  0.1218
  299MOL0     C40263   0.033   3.934   4.715 -0.1149  0.0517 -0.6874
  299MOL0     C40264  -0.104   3.945   4.699 -0.2814  0.5720  0.5413
  299MOL0     C40265  -0.199   3.886   4.780 -0.0282 -0.3865  0.3259
  299MOL0     O40266  -0.337   3.910   4.764 -0.0148 -0.6590 -0.1917
  299MOL0     C40267  -0.400   3.868   4.641  0.1036 -0.1874 -0.0707
  299MOL0     C40268  -0.545   3.834   4.672  0.5543 -0.6328 -0.4974
  299MOL0     C40269  -0.638   3.796   4.550 -0.1263 -0.0175 -0.3938
  299MOL0     C40270  -0.777   3.823   4.583 -0.1056 -0.1998  0.0383
  299MOL0     C40271  -0.874   3.823   4.470  0.4189  0.4672  0.2058
  299MOL0     C40272  -1.025   3.859   4.495 -0.1087  0.4517  0.7867
  299MOL0     C40273  -1.101   3.870   4.351  0.6085 -0.6502  0.2785
  299MOL0     C40274  -1.232   3.951   4.374  0.2303 -1.2525 -0.0806
  299MOL0    Cl40275  -1.209   4.124   4.346 -0.1393 -0.0288 -0.0575
  299MOL0     C40276  -0.150   3.816   4.889  0.7137 -0.0552 -0.5477
  299MOL0     C40277  -0.013   3.808   4.910  0.7989 -0.8256  0.2617
  299MOL0     O40278   0.230   3.629   4.907  0.0997  0.2104 -0.5359
  299MOL0     C40279   0.494   3.675   4.988  0.0606 -0.1496 -0.0212
  299MOL0     C40280   0.614   3.713   5.053 -0.7162  0.3365  0.5460
  299MOL0     N40281   1.337   3.601   5.235 -0.6232  0.5119 -0.3455
  299MOL0     N40282   1.448   3.540   5.262 -0.1223  0.3062  0.0706
  299MOL0     C40283   2.378   4.176   5.808 -0.4133 -0.0782  0.5794
  299MOL0     C40284   2.453   4.293   5.828  0.7419 -0.7454  0.2569
  299MOL0     C40285   2.794   4.562   5.898 -0.0146 -0.4689 -0.0818
  299MOL0     C40286   2.851   4.620   5.788  0.3624 -0.6320  0.5174
  299MOL0     C40287   2.960   4.707   5.806  0.7957  0.2439 -0.4766
  299MOL0     C40288   3.017   4.727   5.939  0.1104 -0.0142  0.3942
  299MOL0     O40289   3.126   4.810   5.961  0.1540 -0.6736  0.0269
  299MOL0     C40290   3.174   4.879   5.842 -0.4191  0.2015 -0.0574
  299MOL0     C40291   3.310   4.938   5.887 -0.4681  0.0594 -0.0711
  299MOL0     C40292   3.353   5.007   5.762 -0.2260  0.2983 -0.2158
  299MOL0     C40293   3.453   5.110   5.802  0.1482 -0.5858 -0.5353
  299MOL0     C40294   3.565   5.118   5.708 -0.2156 -0.3351 -0.3457
  299MOL0     C40295   3.656   5.137   5.632  0.6245 -0.1115  0.4139
  299MOL0     C40296   2.959   4.672   6.040 -0.6690  0.3314  0.2812
  299MOL0     C40297   2.846   4.598   6.024 -0.7048  0.6866  0.0996
  299MOL0     H40298   2.627   4.318   5.545  1.5326  1.7890  3.1535
  299MOL0     H40299   2.452   4.139   5.471 -1.3004 -0.6733  0.7543
  299MOL0     H40300   2.390   3.919   5.486 -1.5510 -0.0228 -1.4649
  299MOL0     H40301   2.461   3.886   5.645  1.2685  1.6718 -0.1952
  299MOL0     H40302   2.338   3.697   5.544 -1.4145 -3.0570  3.5338
  299MOL0     H40303   2.267   3.761   5.692 -1.1435 -3.5420 -0.2959
  299MOL0     H40304   2.103   3.892   5.553  1.8311  2.0722 -1.7202
  299MOL0     H40305   2.158   3.810   5.408  0.1212 -1.0982  0.4430
  299MOL0     H40306   2.112   3.590   5.524 -3.0519 -1.9614  0.3486
  299MOL0     H40307   2.055   3.683   5.659  1.2509  2.9460  1.0698
  299MOL0     H40308   1.880   3.790   5.493 -0.1160  0.6519 -0.4425
  299MOL0     H40309   1.940   3.676   5.380 -1.4620  0.7793 -0.2641
  299MOL0     H40310   1.863   3.484   5.515  3.8898  0.5583 -1.1323
  299MOL0     H40311   1.851   3.581   5.656  0.1062 -0.1273  0.0539
  299MOL0     H40312   1.621   3.529   5.546 -0.3310 -0.7808 -0.0810
  299MOL0     H40313   1.654   3.703   5.537  0.8911 -0.9549  0.7641
  299MOL0     H40314   1.701   3.501   5.310 -3.7577 -1.1846 -0.1508
  299MOL0     H40315   1.729   3.678   5.296 -1.2820 -0.3630 -0.8243
  299MOL0     H40316   1.515   3.847   5.360  0.4938  0.3359  0.6432
  299MOL0     H40317   1.218   3.884   5.372  4.0587  0.7083  1.3925
  299MOL0     H40318   1.262   3.921   5.204 -2.6058  0.1024 -0.3997
  299MOL0     H40319   1.067   3.717   5.312  1.1990 -1.2935 -1.1476
  299MOL0     H40320   1.118   3.715   5.147  1.4369  2.1778 -0.9603
  299MOL0     H40321   1.022   3.952   5.129  1.1006  0.5936 -0.0146
  299MOL0     H40322   0.977   3.926   5.299 -0.7934  1.4928 -1.0082
  299MOL0     H40323   0.840   3.728   5.231 -1.1365 -2.4769 -2.7317
  299MOL0     H40324   0.900   3.745   5.063  1.6835 -0.3006  0.0176
  299MOL0     H40325   0.557   4.033   5.134  1.0859  0.5523 -0.3866
  299MOL0     H40326   0.271   4.061   4.985 -0.8991 -0.1024 -0.0714
  299MOL0     H40327   0.203   3.939   5.094  0.6315 -1.0522  0.7301
  299MOL0     H40328   0.319   4.052   5.161  1.3434  0.2201 -0.8818
  299MOL0     H40329   0.095   3.980   4.639 -0.0122  0.6205 -0.2688
  299MOL0     H40330  -0.134   4.002   4.612  0.4934 -0.0827 -0.1794
  299MOL0     H40331  -0.398   3.953   4.572 -4.2415  1.5729  1.6326
  299MOL0     H40332  -0.342   3.786   4.597  2.2376  0.6734  0.9918
  299MOL0     H40333  -0.549   3.749   4.740  2.5526 -0.0362  0.4305
  299MOL0     H40334  -0.593   3.912   4.731  1.5634  0.3370 -0.9117
  299MOL0     H40335  -0.616   3.690   4.535  2.5388  0.5366 -0.9394
  299MOL0     H40336  -0.611   3.847   4.457  0.2874 -0.1366 -0.3384
  299MOL0     H40337  -0.816   3.742   4.645 -2.5723 -0.7789 -2.0579
  299MOL0     H40338  -0.778   3.921   4.632 -0.3999  0.5536 -1.4122
  299MOL0     H40339  -0.863   3.728   4.417  3.4131  1.1451 -0.5657
  299MOL0     H40340  -0.829   3.895   4.401 -0.9254 -1.4236 -2.8859
  299MOL0     H40341  -1.072   3.787   4.562 -0.5996  1.9338  2.0935
  299MOL0     H40342  -1.025   3.954   4.549 -0.7762  0.5384  0.6459
  299MOL0     H40343  -1.139   3.768   4.337 -0.7817 -0.4061  1.8384
  299MOL0     H40344  -1.034   3.899   4.270  0.2508  0.7831  0.4609
  299MOL0     H40345  -1.267   3.944   4.477 -0.2995 -2.5877 -0.3370
  299MOL0     H40346  -1.316   3.901   4.325 -0.9795  1.0032 -0.4652
  299MOL0     H40347  -0.212   3.759   4.957 -0.4990 -0.8921 -2.2898
  299MOL0     H40348   0.023   3.747   4.992 -0.7964 -0.2425  1.4653
  299MOL0     H40349   0.474   3.573   4.959 -1.9858  0.0786  0.4356
  299MOL0     H40350   0.690   3.635   5.058 -0.2358  0.8144  0.7992
  299MOL0     H40351   2.318   4.131   5.887 -2.3941 -2.1650 -1.9246
  299MOL0     H40352   2.449   4.337   5.927 -0.3154 -1.8909  0.7571
  299MOL0     H40353   2.832   4.588   5.686  0.2244  1.0823 -0.0212
  299MOL0     H40354   2.989   4.754   5.713 -2.2892  2.0827 -0.6572
  299MOL0     H40355   3.196   4.805   5.764  0.2957 -1.0911  1.3112
  299MOL0     H40356   3.108   4.955   5.799  1.2580  0.6278 -2.0348
  299MOL0     H40357   3.373   4.855   5.922 -0.2781  0.4112  0.4350
  299MOL0     H40358   3.301   5.012   5.968  0.7400 -0.4639  0.5720
  299MOL0     H40359   3.275   5.049   5.698  1.0953 -0.6437 -2.5577
  299MOL0     H40360   3.401   4.932   5.700  0.9514  1.6051 -0.9263
  299MOL0     H40361   3.498   5.081   5.898 -0.3286 -0.2603 -0.2066
  299MOL0     H40362   3.407   5.208   5.817  1.4479 -0.1081  0.5848
  299MOL0     H40363   3.728   5.155   5.556  0.8130 -2.9506 -0.1756
  299MOL0     H40364   3.002   4.689   6.139 -2.1160 -0.3790  1.0692
  299MOL0     H40365   2.796   4.550   6.107 -0.5667 -0.5282 -0.4896
  300MOL0     O40366   8.983   4.754   0.015 -0.9007 -0.3021  0.1726
  300MOL0     C40367   8.987   4.707   0.133  0.9610 -0.4573 -0.6496
  300MOL0     O40368   8.883   4.706   0.219 -0.7515 -0.0177 -0.4081
  300MOL0     C40369   8.767   4.763   0.182  0.4369  0.6694 -0.0746
  300MOL0     C40370   8.698   4.719   0.065  0.2563 -0.1415  0.1091
  300MOL0     C40371   8.577   4.772   0.021  0.1171 -0.2743  0.3986
  300MOL0     C40372   8.522   4.871   0.102  0.0984 -0.3367 -0.0959
  300MOL0     O40373   8.399   4.918   0.086  0.3560 -0.4540 -0.0746
  300MOL0     C40374   8.334   4.906  -0.049 -0.6211  1.1797 -0.4698
  300MOL0     C40375   8.195   4.962  -0.033  0.3828  0.0889  0.3084
  300MOL0     C40376   8.101   4.897   0.071 -0.0765 -0.0620 -0.6311
  300MOL0     C40377   7.954   4.946   0.064  0.1691 -0.3493 -0.2966
  300MOL0     C40378   7.862   4.872   0.166  0.2602 -1.1705  0.9317
  300MOL0     C40379   7.898   4.910   0.309 -0.1699 -1.1898  0.3400
  300MOL0     C40380   7.807   4.842   0.413  0.2513  0.6700 -0.5238
  300MOL0     C40381   7.671   4.907   0.437  0.2298 -1.0976 -0.1727
  300MOL0     N40382   7.590   4.815   0.521 -0.2695 -0.0964 -0.1024
  300MOL0     C40383   7.516   4.847   0.636 -0.9387 -0.0280 -0.5836
  300MOL0     C40384   7.474   4.727   0.688 -0.9690 -0.1579  0.1921
  300MOL0     C40385   7.418   4.720   0.826  0.0779  1.3214 -0.2975
  300MOL0     C40386   7.274   4.774   0.832  0.5428 -0.2015  0.0342
  300MOL0     C40387   7.183   4.670   0.763  0.6415 -0.2911 -0.8540
  300MOL0     C40388   7.040   4.731   0.723 -0.7913 -0.3030 -0.0383
  300MOL0     O40389   6.959   4.620   0.696  0.3860  0.6561 -0.6208
  300MOL0     C40390   6.823   4.627   0.698  0.1257 -0.9989  0.6285
  300MOL0     C40391   6.767   4.504   0.697  0.5949 -0.1094 -0.7076
  300MOL0     C40392   6.628   4.489   0.717 -1.0253 -0.1456  0.5665
  300MOL0     C40393   6.583   4.349   0.739 -0.8348 -0.0235  0.1524
  300MOL0     C40394   6.549   4.602   0.721 -0.1707  0.5243  0.3882
  300MOL0     C40395   6.398   4.594   0.744  0.0226 -0.1680  0.0666
  300MOL0     O40396   6.331   4.720   0.758  0.3841 -0.6794 -0.6017
  300MOL0     C40397   6.199   4.725   0.791  0.1327 -0.0667  0.2334
  300MOL0     C40398   6.144   4.670   0.909  0.3975 -0.6859 -0.6942
  300MOL0     C40399   6.005   4.679   0.923 -0.2449  0.6608  0.2448
  300MOL0     C40400   5.916   4.751   0.839 -0.5049 -0.3326 -0.3274
  300MOL0     O40401   5.785   4.758   0.878  0.3583  0.9237 -0.0281
  300MOL0     C40402   5.692   4.846   0.823  0.2294  0.1521 -0.5969
  300MOL0     C40403   5.550   4.828   0.871  0.4743  1.7488  0.4382
  300MOL0     C40404   5.472   4.953   0.818  0.4695  0.1373  0.1007
  300MOL0     C40405   5.331   4.959   0.874  0.3994 -0.7384  0.3710
  300MOL0     C40406   5.245   4.850   0.797  0.4682  0.0378 -0.5804
  300MOL0     C40407   5.096   4.871   0.830 -0.3803 -0.4748 -0.4417
  300MOL0     C40408   5.059   4.849   0.981 -0.0846  0.4524  0.1976
  300MOL0     C40409   4.912   4.857   1.002  0.1626  0.1553  1.0643
  300MOL0    Cl40410   4.814   4.745   0.919 -0.2617  0.5007  0.0753
  300MOL0     C40411   5.973   4.814   0.731 -0.3829 -0.1777  1.2209
  300MOL0     C40412   6.111   4.802   0.707 -1.3813  0.2239 -0.1044
  300MOL0     O40413   6.332   4.489   0.749  0.1429  0.2051  0.4545
  300MOL0     C40414   6.603   4.730   0.709 -0.6394 -0.3271 -0.0983
  300MOL0     C40415   6.744   4.741   0.715  0.6284  0.6225 -0.7784
  300MOL0     N40416   7.504   4.625   0.597 -0.0119 -0.0793 -0.1463
  300MOL0     N40417   7.578   4.677   0.508  0.5489 -1.0762  0.1458
  300MOL0     C40418   8.585   4.911   0.219 -0.2288 -0.6729 -0.4053
  300MOL0     C40419   8.708   4.855   0.260 -0.7929  0.3205 -0.5021
  300MOL0     C40420   9.111   4.640   0.172 -0.5349 -0.4218  0.6054
  300MOL0     C40421   9.226   4.635   0.082  0.8017  1.3138  0.8313
  300MOL0     C40422   9.349   4.572   0.123  1.0285 -0.0755  0.3251
  300MOL0     C40423   9.360   4.518   0.253  0.4374 -0.1038  0.4853
  300MOL0     O40424   9.477   4.459   0.299  0.6006  0.0369  0.0783
  300MOL0     C40425   9.593   4.476   0.212  0.3874  0.0522 -0.6553
  300MOL0     C40426   9.590   4.369   0.100 -0.0841  0.5271  0.0231
  300MOL0     C40427   9.689   4.404  -0.015  0.2717  0.7385  0.1729
  300MOL0     C40428   9.750   4.283  -0.093  0.1104  0.6144 -0.1328
  300MOL0     C40429   9.813   4.337  -0.211 -0.4014  0.3355 -0.4063
  300MOL0     C40430   9.865   4.382  -0.311  0.1039  0.4185 -0.2057
  300MOL0     C40431   9.245   4.525   0.335 -0.6834 -0.7004  1.1781
  300MOL0     C40432   9.117   4.584   0.295 -0.2293  0.0891 -0.5532
  300MOL0     H40433   8.734   4.642  -0.003  2.0856  1.0580 -0.3372
  300MOL0     H40434   8.533   4.722  -0.065 -0.6808 -2.6324  2.0722
  300MOL0     H40435   8.399   4.965  -0.114  2.3932  0.3532  1.5584
  300MOL0     H40436   8.326   4.803  -0.083  0.7507  0.8615  0.1233
  300MOL0     H40437   8.205   5.066  -0.002 -0.5884  0.3064 -0.0840
  300MOL0     H40438   8.155   4.965  -0.135  1.5245 -1.4437 -0.2226
  300MOL0     H40439   8.103   4.789   0.049 -1.0811 -0.2563  0.1956
  300MOL0     H40440   8.138   4.918   0.172  0.1525  0.1361 -0.7556
  300MOL0     H40441   7.952   5.054   0.082  0.4566 -0.4978  0.7050
  300MOL0     H40442   7.902   4.920  -0.029  0.5095  0.1182 -0.6232
  300MOL0     H40443   7.757   4.900   0.157  1.0072  1.1229 -2.5295
  300MOL0     H40444   7.874   4.768   0.133 -1.7415 -0.4052 -2.6490
  300MOL0     H40445   7.999   4.872   0.330 -0.2363 -0.8207  1.3930
  300MOL0     H40446   7.910   5.018   0.322  0.7869 -1.4528  1.9883
  300MOL0     H40447   7.791   4.739   0.378  1.7751  1.1585 -2.8451
  300MOL0     H40448   7.869   4.831   0.503  3.0162 -2.0373 -2.5736
  300MOL0     H40449   7.623   4.925   0.340 -1.9570 -0.1651  1.0305
  300MOL0     H40450   7.690   4.999   0.492 -0.8078  0.3829 -2.1655
  300MOL0     H40451   7.506   4.939   0.693 -0.9196 -0.6402  0.4382
  300MOL0     H40452   7.408   4.614   0.852 -2.1052  1.0424 -2.0144
  300MOL0     H40453   7.482   4.785   0.887  0.6733  1.3217 -0.9178
  300MOL0     H40454   7.271   4.874   0.788  0.5392  0.0293  0.5503
  300MOL0     H40455   7.247   4.776   0.938  1.6878  1.9125  0.3324
  300MOL0     H40456   7.170   4.578   0.820  1.4827  1.3993  2.2477
  300MOL0     H40457   7.230   4.642   0.668  0.5977  4.2013 -2.4388
  300MOL0     H40458   7.052   4.789   0.631  1.2896  1.4125  1.2034
  300MOL0     H40459   7.010   4.809   0.794  1.7755  1.8204 -1.0555
  300MOL0     H40460   6.836   4.420   0.700 -1.0884 -1.6388 -2.5432
  300MOL0     H40461   6.533   4.338   0.835  2.1222 -0.6088  1.7466
  300MOL0     H40462   6.514   4.302   0.668 -2.0221 -1.1221  1.9806
  300MOL0     H40463   6.666   4.278   0.736 -1.5914 -0.9596  0.7921
  300MOL0     H40464   6.208   4.617   0.977  4.1227  2.4423 -1.4276
  300MOL0     H40465   5.959   4.649   1.017 -2.7530 -0.9997 -1.4177
  300MOL0     H40466   5.725   4.948   0.847 -1.8800  0.4996  1.0878
  300MOL0     H40467   5.691   4.830   0.714 -2.0475  0.3358 -0.6548
  300MOL0     H40468   5.512   4.729   0.846  0.5299  1.5621  1.0838
  300MOL0     H40469   5.535   4.838   0.978 -1.5230 -0.3680  0.4448
  300MOL0     H40470   5.467   4.942   0.709  0.0729 -3.7130  0.3722
  300MOL0     H40471   5.530   5.040   0.847  0.5552  0.4540 -0.9879
  300MOL0     H40472   5.320   4.937   0.981 -2.4806 -0.9546  0.1145
  300MOL0     H40473   5.290   5.059   0.859  0.5650 -0.4480  1.7306
  300MOL0     H40474   5.255   4.755   0.849  1.6334 -0.3350 -1.4438
  300MOL0     H40475   5.255   4.852   0.688  2.0363  2.9981 -0.4792
  300MOL0     H40476   5.073   4.972   0.795 -1.3226 -0.5674 -0.1214
  300MOL0     H40477   5.047   4.802   0.761 -1.4817 -0.2202  0.0687
  300MOL0     H40478   5.105   4.917   1.053  0.5083  0.6228 -0.3251
  300MOL0     H40479   5.097   4.747   0.994  1.5020  1.0098  0.1629
  300MOL0     H40480   4.865   4.953   0.976 -0.2991 -0.5011 -0.6850
  300MOL0     H40481   4.891   4.836   1.107 -1.3109 -5.1873  0.0024
  300MOL0     H40482   5.912   4.877   0.666  1.3497 -0.4407 -0.7521
  300MOL0     H40483   6.167   4.841   0.624  1.7231 -0.2705  1.6167
  300MOL0     H40484   6.545   4.821   0.723 -0.0893  0.2562 -1.4227
  300MOL0     H40485   6.805   4.828   0.736  0.3271  0.3431  1.4819
  300MOL0     H40486   8.541   4.991   0.277  1.3948 -0.1727  0.1804
  300MOL0     H40487   8.762   4.888   0.349 -0.5411 -2.6799  0.5695
  300MOL0     H40488   9.216   4.674  -0.019  2.5802  1.6549  0.7499
  300MOL0     H40489   9.432   4.568   0.053  0.3479 -0.9891 -0.4484
  300MOL0     H40490   9.612   4.582   0.192 -0.6787  1.0465  2.7906
  300MOL0     H40491   9.683   4.447   0.267  1.9169 -0.2623 -3.1704
  300MOL0     H40492   9.489   4.339   0.072 -1.3877  2.6476  2.0690
  300MOL0     H40493   9.634   4.290   0.162 -0.9318  1.8206  2.4314
  300MOL0     H40494   9.767   4.473   0.019 -2.0090  1.3577  4.9677
  300MOL0     H40495   9.631   4.454  -0.092  1.7307 -0.5798 -1.8704
  300MOL0     H40496   9.676   4.206  -0.120  2.8594 -2.1890 -0.2869
  300MOL0     H40497   9.828   4.228  -0.040  0.4360 -0.7530 -1.9183
  300MOL0     H40498   9.898   4.425  -0.403  0.1782  1.7922  0.4527
  300MOL0     H40499   9.247   4.471   0.428  1.7756 -2.5573  0.1789
  300MOL0     H40500   9.031   4.588   0.362 -0.1974  0.8297 -0.5573
  301MOL0     O40501   5.920   3.181   7.596  0.7021  0.3499  0.2786
  301MOL0     C40502   5.988   3.171   7.696  0.2729 -0.3101 -0.1128
  301MOL0     O40503   5.950   3.199   7.818  0.5460 -0.8776  0.0075
  301MOL0     C40504   5.821   3.255   7.844 -0.5396 -0.3650  0.3354
  301MOL0     C40505   5.741   3.188   7.933 -0.1877  0.4920 -0.1673
  301MOL0     C40506   5.609   3.238   7.961  0.1161 -1.1465  0.6765
  301MOL0     C40507   5.563   3.360   7.897  0.8710  0.1690 -0.1526
  301MOL0     O40508   5.429   3.403   7.914 -0.1870 -0.2022  0.4272
  301MOL0     C40509   5.409   3.547   7.945  1.0665  1.1302  0.1928
  301MOL0     C40510   5.283   3.604   7.874 -0.6144 -0.1045  0.4412
  301MOL0     C40511   5.142   3.558   7.929  0.1029 -0.8808 -0.7553
  301MOL0     C40512   5.134   3.560   8.080  0.0415  0.4000 -0.5175
  301MOL0     C40513   4.997   3.535   8.139  0.1755  0.1782  0.4877
  301MOL0     C40514   4.944   3.400   8.103 -0.3204  0.5905 -1.0289
  301MOL0     C40515   4.821   3.371   8.179  0.3843  0.0489 -0.6835
  301MOL0     C40516   4.703   3.460   8.142  0.4547 -0.4826 -0.1877
  301MOL0     N40517   4.688   3.492   7.998 -0.1849 -0.5154 -0.4309
  301MOL0     C40518   4.655   3.400   7.902 -0.5029 -0.3050 -0.6128
  301MOL0     C40519   4.627   3.478   7.796 -0.3494 -0.0053 -0.7599
  301MOL0     C40520   4.603   3.441   7.646 -0.4314 -0.0661 -0.3823
  301MOL0     C40521   4.468   3.480   7.599  0.0598  0.2498  0.1033
  301MOL0     C40522   4.452   3.459   7.441  0.9907 -0.4190 -0.3107
  301MOL0     C40523   4.309   3.511   7.401 -0.1897 -0.0183  0.3548
  301MOL0     O40524   4.211   3.426   7.467 -0.4562 -0.0799  0.0320
  301MOL0     C40525   4.072   3.423   7.434 -0.3837 -0.3569  0.4480
  301MOL0     C40526   4.000   3.301   7.427 -0.3080 -0.5606  0.2184
  301MOL0     C40527   3.867   3.297   7.386  0.5538  0.7632  0.8056
  301MOL0     C40528   3.811   3.153   7.371  0.3940  0.3123 -0.5446
  301MOL0     C40529   3.798   3.413   7.359 -0.1884 -0.0135 -0.1424
  301MOL0     C40530   3.652   3.410   7.325 -0.3803 -0.0660 -0.6289
  301MOL0     O40531   3.566   3.320   7.388  0.4126 -0.2957 -0.2535
  301MOL0     C40532   3.434   3.316   7.366  0.3919 -0.6900  0.0782
  301MOL0     C40533   3.358   3.431   7.350  0.9369 -0.3516  0.8091
  301MOL0     C40534   3.216   3.427   7.335 -0.3600 -0.3226 -1.2884
  301MOL0     C40535   3.149   3.303   7.317  0.0990 -0.2492  0.2012
  301MOL0     O40536   3.011   3.304   7.306 -0.5626 -0.0284 -0.6544
  301MOL0     C40537   2.959   3.229   7.193 -0.1817 -0.4263 -0.5354
  301MOL0     C40538   2.807   3.249   7.187 -0.2415  0.6994  1.1558
  301MOL0     C40539   2.777   3.381   7.112 -0.4623  0.4571 -0.1007
  301MOL0     C40540   2.622   3.421   7.104 -0.9793 -0.0008 -0.7746
  301MOL0     C40541   2.560   3.329   6.996  0.6444  0.0247  0.1546
  301MOL0     C40542   2.411   3.313   6.991 -0.1993  0.4462 -0.2017
  301MOL0     C40543   2.368   3.203   7.092  0.7564  0.2254 -0.2268
  301MOL0     C40544   2.225   3.184   7.073  0.4998 -0.0587  0.2757
  301MOL0    Cl40545   2.136   3.340   7.114  0.3272  0.0552  0.0320
  301MOL0     C40546   3.225   3.182   7.333  0.5957 -0.3564 -0.2042
  301MOL0     C40547   3.369   3.194   7.358  0.3081  0.1986  0.2851
  301MOL0     O40548   3.619   3.488   7.234  0.3331  0.1233  0.0559
  301MOL0     C40549   3.864   3.539   7.355  0.2909  0.7839  0.2164
  301MOL0     C40550   4.000   3.541   7.401  1.1212 -0.0272  0.3275
  301MOL0     N40551   4.625   3.612   7.837 -0.3896  0.0929 -0.2284
  301MOL0     N40552   4.670   3.621   7.952  0.1702  0.1084  0.1453
  301MOL0     C40553   5.653   3.434   7.818  0.7067  0.1518  0.8079
  301MOL0     C40554   5.775   3.377   7.785 -0.6087 -0.0085 -0.0055
  301MOL0     C40555   6.128   3.126   7.669  0.0589  0.7540  0.6834
  301MOL0     C40556   6.197   3.053   7.764  0.7647 -0.4021  0.6597
  301MOL0     C40557   6.333   3.031   7.741 -0.5365 -0.1982  0.0028
  301MOL0     C40558   6.396   3.069   7.616  0.9612 -0.3664 -0.3368
  301MOL0     O40559   6.530   3.057   7.590  0.6673 -0.1847 -0.1548
  301MOL0     C40560   6.608   2.985   7.685 -0.4576 -0.5951 -0.9741
  301MOL0     C40561   6.755   3.009   7.657  0.4629  0.5698  0.2935
  301MOL0     C40562   6.807   3.155   7.680  0.0702  0.3988 -1.0200
  301MOL0     C40563   6.827   3.188   7.832 -0.1410  0.0756 -0.3616
  301MOL0     C40564   6.701   3.205   7.912  0.5273  0.6558  0.0867
  301MOL0     C40565   6.606   3.225   7.981  0.3636  1.2010 -0.4367
  301MOL0     C40566   6.317   3.128   7.518  0.2133  0.5245  0.1655
  301MOL0     C40567   6.185   3.158   7.545 -0.3104 -0.8071 -0.1280
  301MOL0     H40568   5.789   3.099   7.972 -1.0298  0.5797  1.1754
  301MOL0     H40569   5.528   3.191   8.016 -1.6768  2.3040  1.2683
  301MOL0     H40570   5.400   3.556   8.054 -1.4880  0.2779  0.1102
  301MOL0     H40571   5.493   3.611   7.915  1.7529  0.5614  0.8460
  301MOL0     H40572   5.294   3.713   7.874  3.0591 -0.2590  3.0387
  301MOL0     H40573   5.294   3.567   7.772  2.6371 -3.8844  1.9128
  301MOL0     H40574   5.068   3.627   7.887  1.7770  0.4018 -1.7073
  301MOL0     H40575   5.114   3.459   7.890 -0.3126 -0.0581 -2.6620
  301MOL0     H40576   5.202   3.480   8.112  1.8171  1.7430 -0.7883
  301MOL0     H40577   5.186   3.638   8.137  0.4425 -0.7556  0.7469
  301MOL0     H40578   5.016   3.541   8.247  1.6248  0.6767  0.2323
  301MOL0     H40579   4.929   3.616   8.110 -0.4028  0.1027  1.5925
  301MOL0     H40580   4.926   3.393   7.996 -0.4603 -0.4981 -0.9408
  301MOL0     H40581   5.021   3.327   8.130 -0.0610  1.2980  0.2407
  301MOL0     H40582   4.797   3.266   8.157 -0.8367  0.7483 -3.0755
  301MOL0     H40583   4.849   3.378   8.284 -2.3082 -2.6290  0.3556
  301MOL0     H40584   4.710   3.552   8.201  0.9517  1.6033 -3.2497
  301MOL0     H40585   4.614   3.408   8.178 -1.0921  1.3942 -1.0951
  301MOL0     H40586   4.642   3.292   7.903 -2.7951 -0.1313 -2.1950
  301MOL0     H40587   4.679   3.493   7.587 -0.2180 -0.7894 -0.7638
  301MOL0     H40588   4.613   3.333   7.632  1.3596  0.1634 -1.1666
  301MOL0     H40589   4.458   3.587   7.619  2.7066  0.9692 -1.8017
  301MOL0     H40590   4.391   3.422   7.650 -0.4741 -1.1707 -2.1762
  301MOL0     H40591   4.473   3.354   7.419  3.6319  0.4443 -2.4411
  301MOL0     H40592   4.514   3.520   7.376  0.1906 -0.0108 -0.7101
  301MOL0     H40593   4.302   3.501   7.292 -1.7901 -0.8324  0.5167
  301MOL0     H40594   4.285   3.614   7.429 -3.6444 -0.6886  0.2669
  301MOL0     H40595   4.065   3.215   7.439  1.0292  0.1700 -1.3712
  301MOL0     H40596   3.765   3.134   7.274 -2.7777  2.6485  0.3201
  301MOL0     H40597   3.885   3.078   7.399 -0.1950 -0.3132 -0.6182
  301MOL0     H40598   3.733   3.159   7.449  2.7476  3.0325  1.8083
  301MOL0     H40599   3.400   3.532   7.354 -2.3019  1.1000  1.2427
  301MOL0     H40600   3.159   3.518   7.324 -0.4003 -0.2101 -0.2439
  301MOL0     H40601   3.008   3.274   7.107  1.7103  0.4148  0.8883
  301MOL0     H40602   2.986   3.123   7.200 -1.4695 -0.7665 -0.6163
  301MOL0     H40603   2.768   3.164   7.130  0.8446  1.4816 -0.8652
  301MOL0     H40604   2.771   3.244   7.290  3.0522  0.8289  2.4202
  301MOL0     H40605   2.821   3.391   7.013 -1.7364 -0.8984 -0.8327
  301MOL0     H40606   2.827   3.442   7.188 -4.2986  0.1018  3.1019
  301MOL0     H40607   2.581   3.416   7.205  2.8282 -0.9831  0.8804
  301MOL0     H40608   2.606   3.526   7.077  1.6280  0.8224  0.5639
  301MOL0     H40609   2.603   3.229   7.009  1.4179 -0.0861 -2.6214
  301MOL0     H40610   2.595   3.369   6.901 -1.7859  1.9059 -0.0528
  301MOL0     H40611   2.369   3.410   7.016  0.9274  1.2137 -1.1575
  301MOL0     H40612   2.381   3.281   6.891  0.2761 -2.5261  0.4874
  301MOL0     H40613   2.383   3.242   7.192 -2.7907  4.5334 -1.0700
  301MOL0     H40614   2.420   3.106   7.087  1.6487  0.7068 -0.4313
  301MOL0     H40615   2.191   3.107   7.143  0.8425  0.7403  1.3352
  301MOL0     H40616   2.207   3.148   6.971  1.2735 -1.4333  0.5896
  301MOL0     H40617   3.176   3.087   7.316 -1.8381  0.5304  1.3940
  301MOL0     H40618   3.425   3.101   7.360 -1.4504 -0.9023  0.2085
  301MOL0     H40619   3.807   3.631   7.348 -6.1105 -2.7310 -2.1266
  301MOL0     H40620   4.055   3.632   7.423  1.6121 -0.7834  2.4690
  301MOL0     H40621   5.617   3.529   7.781 -2.8813 -1.2253  0.3554
  301MOL0     H40622   5.837   3.421   7.707  0.1383 -0.4552  0.3315
  301MOL0     H40623   6.148   3.016   7.853  1.4725 -1.1401  0.7585
  301MOL0     H40624   6.384   2.968   7.814 -1.0968  2.1251  2.5282
  301MOL0     H40625   6.592   3.023   7.785 -0.4040  2.0656 -1.9117
  301MOL0     H40626   6.574   2.881   7.679  1.8219 -1.3807 -1.0478
  301MOL0     H40627   6.764   2.980   7.552 -3.7580 -2.9200  0.5749
  301MOL0     H40628   6.806   2.941   7.727  1.3348  1.3990  0.4799
  301MOL0     H40629   6.733   3.227   7.645  0.3560  1.7080  0.9295
  301MOL0     H40630   6.906   3.154   7.633  2.2421 -5.5784  2.5551
  301MOL0     H40631   6.878   3.284   7.822 -1.0329  0.6403  0.4214
  301MOL0     H40632   6.895   3.124   7.889 -1.8543  1.6620  3.8357
  301MOL0     H40633   6.518   3.232   8.043 -1.5670 -1.0657 -2.6727
  301MOL0     H40634   6.360   3.143   7.420  1.0091  1.3283  0.6229
  301MOL0     H40635   6.127   3.198   7.463 -1.6197 -0.5491  0.9083
  302MOL0     O40636   5.074   4.432  10.625 -0.2838 -0.2458  0.0746
  302MOL0     C40637   5.049   4.493  10.526  0.5508  0.6636  0.3034
  302MOL0     O40638   4.932   4.553  10.492 -0.1106  0.4427 -0.0219
  302MOL0     C40639   4.828   4.562  10.584 -0.0975  1.2992 -0.1200
  302MOL0     C40640   4.854   4.592  10.721  0.1685  0.6854 -0.6225
  302MOL0     C40641   4.741   4.599  10.809 -0.6437 -0.1248 -0.6074
  302MOL0     C40642   4.611   4.584  10.761  0.7406 -0.3670 -1.0640
  302MOL0     O40643   4.488   4.565  10.838 -0.6294  0.3617  0.4787
  302MOL0     C40644   4.495   4.524  10.975 -0.0124  0.5085 -0.3944
  302MOL0     C40645   4.363   4.464  11.014 -0.5053  0.0661 -0.6484
  302MOL0     C40646   4.246   4.556  11.002  0.1210 -0.5725  0.4625
  302MOL0     C40647   4.108   4.475  11.011 -0.5847 -0.0427 -0.2832
  302MOL0     C40648   3.998   4.559  10.962 -0.1779  0.2410  0.4830
  302MOL0     C40649   3.859   4.479  10.932 -0.3547  0.4556 -0.7464
  302MOL0     C40650   3.752   4.581  10.908  0.0092 -0.1212  0.5644
  302MOL0     C40651   3.630   4.531  10.985 -0.0459 -0.3289 -0.0719
  302MOL0     N40652   3.505   4.609  10.976  0.1172  0.2894 -0.4045
  302MOL0     C40653   3.404   4.597  11.072 -0.1741 -0.0542  0.6653
  302MOL0     C40654   3.315   4.695  11.028  0.1093  0.0101  0.4741
  302MOL0     C40655   3.176   4.706  11.086 -0.2515  0.2049  0.2161
  302MOL0     C40656   3.080   4.785  10.994 -1.1457 -0.7120  0.6825
  302MOL0     C40657   2.944   4.756  11.051  0.0451  0.0212  0.6584
  302MOL0     C40658   2.823   4.804  10.971  0.2082  0.4210  0.5270
  302MOL0     O40659   2.712   4.805  11.056  0.4668 -0.3801  0.1370
  302MOL0     C40660   2.594   4.852  11.008  0.2156  0.4315  0.4949
  302MOL0     C40661   2.561   4.866  10.871  0.9774 -0.2682  0.3896
  302MOL0     C40662   2.431   4.888  10.833 -0.3268  0.2659  0.1508
  302MOL0     C40663   2.405   4.909  10.685  0.0303 -0.1131  0.6870
  302MOL0     C40664   2.324   4.905  10.927 -0.2045  0.3462 -0.7987
  302MOL0     C40665   2.182   4.944  10.907 -0.7420 -0.8112  0.2284
  302MOL0     O40666   2.104   4.972  11.014  0.3073  0.4573  0.8164
  302MOL0     C40667   1.970   4.974  10.978 -0.0161 -0.1979  0.6991
  302MOL0     C40668   1.902   4.852  10.987 -0.4096 -0.3512 -0.7595
  302MOL0     C40669   1.765   4.847  10.948 -0.1749  0.1226  0.7652
  302MOL0     C40670   1.687   4.965  10.921 -0.2917  0.1510 -0.2658
  302MOL0     O40671   1.558   4.958  10.904 -0.0609 -0.1454  0.4832
  302MOL0     C40672   1.474   5.036  10.996 -0.5202 -0.3256 -0.7048
  302MOL0     C40673   1.437   4.958  11.119 -0.7905  0.9386  0.2129
  302MOL0     C40674   1.338   5.023  11.217  0.3768 -0.5952 -0.3737
  302MOL0     C40675   1.407   5.143  11.281  0.1404 -0.1713  0.6084
  302MOL0     C40676   1.304   5.214  11.370  0.7027  1.0918  0.9913
  302MOL0     C40677   1.358   5.353  11.403  0.6181 -0.3273 -0.3880
  302MOL0     C40678   1.302   5.405  11.534 -0.0058 -0.2209  0.0121
  302MOL0     C40679   1.375   5.539  11.571  0.4330 -0.6745 -0.3143
  302MOL0    Cl40680   1.323   5.689  11.468 -0.6375 -0.0602 -0.1671
  302MOL0     C40681   1.762   5.090  10.920  0.0876  0.2834 -0.6468
  302MOL0     C40682   1.898   5.091  10.953 -0.5996 -0.3977  0.3137
  302MOL0     O40683   2.145   4.945  10.784 -0.0353  0.3590 -0.6031
  302MOL0     C40684   2.358   4.879  11.062  0.1248 -0.3553 -0.4909
  302MOL0     C40685   2.492   4.859  11.097  0.2252 -0.0651  0.5037
  302MOL0     N40686   3.362   4.766  10.921 -0.1516  0.5744  1.2904
  302MOL0     N40687   3.477   4.715  10.896  0.4532  0.2627  0.5272
  302MOL0     C40688   4.590   4.566  10.628  0.2061 -0.2401  0.5241
  302MOL0     C40689   4.693   4.548  10.536  0.6278 -0.5811  0.4651
  302MOL0     C40690   5.151   4.485  10.419 -0.6520 -0.6534 -0.1598
  302MOL0     C40691   5.119   4.518  10.283 -0.4083 -0.2386 -0.3248
  302MOL0     C40692   5.220   4.502  10.182  0.9172  0.9967 -0.1032
  302MOL0     C40693   5.350   4.456  10.215  0.1971 -0.0722 -0.1676
  302MOL0     O40694   5.440   4.448  10.106  0.3676  0.1335 -0.1608
  302MOL0     C40695   5.581   4.466  10.137 -0.7513 -0.5458 -0.1642
  302MOL0     C40696   5.649   4.531  10.013  0.7839 -0.1333 -0.6491
  302MOL0     C40697   5.678   4.426   9.906 -0.8007 -0.1728 -0.6428
  302MOL0     C40698   5.738   4.481   9.780  0.8179  0.1265 -0.1088
  302MOL0     C40699   5.774   4.374   9.688  0.0598  0.5104 -0.0173
  302MOL0     C40700   5.812   4.280   9.616  0.5675 -0.0100  0.9944
  302MOL0     C40701   5.384   4.425  10.349 -0.2584  0.2557 -0.3123
  302MOL0     C40702   5.282   4.448  10.449  0.1576  0.9803  0.1090
  302MOL0     H40703   4.951   4.615  10.763 -0.1591 -1.2377  1.3900
  302MOL0     H40704   4.762   4.622  10.913 -0.5667  2.5476 -1.1343
  302MOL0     H40705   4.559   4.436  10.985 -0.4196  0.2983  0.4322
  302MOL0     H40706   4.532   4.606  11.037 -0.3368  0.0675  0.3916
  302MOL0     H40707   4.350   4.376  10.949 -1.1075 -1.4600  1.4280
  302MOL0     H40708   4.367   4.426  11.116  0.6628 -0.9783 -1.0531
  302MOL0     H40709   4.244   4.634  11.079 -0.0003 -0.1940  0.0802
  302MOL0     H40710   4.253   4.622  10.916  1.8751 -2.3019 -0.7991
  302MOL0     H40711   4.114   4.393  10.940 -1.6143  0.9325 -1.5329
  302MOL0     H40712   4.092   4.437  11.113  0.4557 -0.3980 -0.2394
  302MOL0     H40713   3.975   4.641  11.030 -1.8668 -0.4368  0.7860
  302MOL0     H40714   4.034   4.605  10.869 -3.2565  1.8705 -0.0251
  302MOL0     H40715   3.864   4.425  10.837 -2.8969  1.7766 -1.7408
  302MOL0     H40716   3.836   4.413  11.016 -0.3945  0.7562 -0.5193
  302MOL0     H40717   3.778   4.681  10.942 -0.0416  0.3824 -0.8236
  302MOL0     H40718   3.729   4.580  10.801 -0.1326  0.3628  0.5912
  302MOL0     H40719   3.652   4.543  11.092 -1.3758  0.6027  0.1248
  302MOL0     H40720   3.604   4.429  10.958  0.7681 -0.6796  0.4404
  302MOL0     H40721   3.403   4.524  11.152  2.6746  1.4332  2.2090
  302MOL0     H40722   3.134   4.605  11.088 -0.9613  0.4989  1.5028
  302MOL0     H40723   3.181   4.743  11.189 -0.5923 -2.0425  1.1109
  302MOL0     H40724   3.091   4.746  10.892 -2.1884  1.4462 -0.3267
  302MOL0     H40725   3.086   4.894  11.002  0.0202 -0.8682  2.4668
  302MOL0     H40726   2.938   4.800  11.151 -0.5847  0.4023  0.4571
  302MOL0     H40727   2.919   4.650  11.063 -0.2507 -0.2099 -1.5780
  302MOL0     H40728   2.816   4.739  10.883  0.5215  1.7732 -0.5387
  302MOL0     H40729   2.842   4.907  10.938 -1.3399  1.3501  2.3165
  302MOL0     H40730   2.634   4.854  10.791  2.3281  2.3776  1.1183
  302MOL0     H40731   2.330   4.833  10.661  0.4533 -1.0839  2.2502
  302MOL0     H40732   2.360   5.007  10.669 -1.1239 -0.5159  1.2940
  302MOL0     H40733   2.496   4.889  10.627 -0.8972 -1.0150 -0.5305
  302MOL0     H40734   1.948   4.755  11.006 -1.0423 -0.4485  0.3811
  302MOL0     H40735   1.734   4.743  10.940  2.8923 -1.0231  2.1106
  302MOL0     H40736   1.531   5.125  11.025  1.2026 -1.5706 -0.1022
  302MOL0     H40737   1.386   5.073  10.944 -0.3288  1.5379  0.1968
  302MOL0     H40738   1.387   4.869  11.081  0.5715 -0.2701  1.1210
  302MOL0     H40739   1.529   4.925  11.170 -1.4294 -1.4658 -0.0566
  302MOL0     H40740   1.308   4.962  11.302  4.0173  1.4019  2.6498
  302MOL0     H40741   1.250   5.068  11.169  0.2758 -1.5696 -1.1456
  302MOL0     H40742   1.490   5.100  11.338 -0.6787 -0.8157  1.3341
  302MOL0     H40743   1.444   5.212  11.205  0.7989 -1.6801 -0.4867
  302MOL0     H40744   1.273   5.157  11.458 -2.8868 -0.2479 -0.9107
  302MOL0     H40745   1.204   5.222  11.325 -0.4503 -0.9816  2.9485
  302MOL0     H40746   1.465   5.339  11.420 -0.0114 -2.4178  2.9643
  302MOL0     H40747   1.328   5.423  11.325 -0.9546  0.0740  0.5060
  302MOL0     H40748   1.310   5.334  11.616 -1.5399  1.1882  1.4713
  302MOL0     H40749   1.196   5.424  11.513 -0.4110  0.9618  2.7535
  302MOL0     H40750   1.485   5.537  11.565  0.5070  0.5700  0.4352
  302MOL0     H40751   1.342   5.562  11.672  0.5541  2.1301 -0.8289
  302MOL0     H40752   1.719   5.189  10.903 -0.1534  0.8878  2.7360
  302MOL0     H40753   1.958   5.181  10.947  0.8308 -1.1638  2.1729
  302MOL0     H40754   2.293   4.899  11.146  2.3390  1.5176  0.9217
  302MOL0     H40755   2.523   4.844  11.200  0.5117  0.1788  0.4558
  302MOL0     H40756   4.486   4.558  10.598  0.5726 -1.9884 -0.3950
  302MOL0     H40757   4.664   4.530  10.433 -0.2749 -0.0824  0.6244
  302MOL0     H40758   5.017   4.546  10.260 -0.3686 -0.9782 -1.4613
  302MOL0     H40759   5.190   4.526  10.080 -1.8419  0.0221  0.3923
  302MOL0     H40760   5.595   4.535  10.220 -0.7176 -0.2447 -0.4168
  302MOL0     H40761   5.631   4.372  10.159  1.2065  0.4485 -0.1576
  302MOL0     H40762   5.747   4.571  10.041  0.6822  0.5012 -1.1804
  302MOL0     H40763   5.586   4.608   9.968  1.5122  0.1844 -1.1599
  302MOL0     H40764   5.588   4.372   9.875  0.4344 -2.8246  0.0638
  302MOL0     H40765   5.738   4.351   9.958 -0.4293  1.2467  1.0284
  302MOL0     H40766   5.826   4.539   9.809  2.0791 -1.8235  0.1660
  302MOL0     H40767   5.660   4.544   9.735  0.4394  0.2084  0.6403
  302MOL0     H40768   5.852   4.208   9.547 -2.5926 -0.3653 -0.6312
  302MOL0     H40769   5.482   4.386  10.372 -0.1730  0.0543 -0.9959
  302MOL0     H40770   5.312   4.439  10.553  0.7249 -1.4554 -0.1902
  303MOL0     O40771   4.509   9.045   9.917 -0.4402 -0.0725  0.5344
  303MOL0     C40772   4.475   9.119   9.824 -0.2271  0.5375 -0.4525
  303MOL0     O40773   4.558   9.202   9.753 -0.2328 -0.2828  0.0582
  303MOL0     C40774   4.687   9.176   9.773 -0.9825  0.3934 -0.7133
  303MOL0     C40775   4.751   9.188   9.899  0.8749 -0.0323  0.3494
  303MOL0     C40776   4.892   9.202   9.921 -0.1665 -0.6136  0.5093
  303MOL0     C40777   4.977   9.196   9.802  0.6976 -0.1999 -0.1689
  303MOL0     O40778   5.115   9.191   9.809  0.3156 -0.8068 -0.0196
  303MOL0     C40779   5.177   9.144   9.929 -0.4645  0.0803  0.5313
  303MOL0     C40780   5.325   9.169   9.907 -0.0924  0.5446 -0.2089
  303MOL0     C40781   5.361   9.315   9.881  0.4436 -0.5679 -0.2347
  303MOL0     C40782   5.513   9.333   9.860  0.1643 -0.4191 -0.5821
  303MOL0     C40783   5.556   9.452   9.777  0.0271 -0.0694  0.9729
  303MOL0     C40784   5.493   9.582   9.824  0.7563 -0.0838 -0.5480
  303MOL0     C40785   5.557   9.703   9.759 -1.3398 -0.6493 -0.1122
  303MOL0     C40786   5.508   9.830   9.821 -0.2577  0.9141 -1.2465
  303MOL0     N40787   5.365   9.838   9.822  0.0611  0.2738 -0.0080
  303MOL0     C40788   5.282   9.803   9.715 -0.5039 -0.4647  0.0673
  303MOL0     C40789   5.155   9.809   9.764 -0.9107 -0.8511 -0.5700
  303MOL0     C40790   5.034   9.766   9.688 -0.0327  0.8042 -0.0856
  303MOL0     C40791   4.919   9.863   9.667  0.2626 -0.3841 -0.1623
  303MOL0     C40792   4.973   9.994   9.603 -0.2234  0.5436  0.9765
  303MOL0     C40793   4.862  10.098   9.579  0.0044 -0.3658 -0.2088
  303MOL0     O40794   4.757  10.035   9.517  0.3170 -0.4545  0.6207
  303MOL0     C40795   4.650  10.114   9.489 -0.1940  0.2963  0.6081
  303MOL0     C40796   4.526  10.051   9.457  0.4844  0.7988 -0.4679
  303MOL0     C40797   4.406  10.114   9.448  0.1339  0.0547  1.1303
  303MOL0     C40798   4.290  10.030   9.402 -0.5637  0.0195  0.1834
  303MOL0     C40799   4.403  10.260   9.468 -0.1873  0.1464 -0.5077
  303MOL0     C40800   4.279  10.346   9.473  0.1846  0.2560  0.3180
  303MOL0     O40801   4.301  10.478   9.505 -0.0038 -0.4178  0.7216
  303MOL0     C40802   4.196  10.565   9.525 -0.4329 -0.3967 -0.5445
  303MOL0     C40803   4.080  10.533   9.581  0.3454  0.0414 -0.0999
  303MOL0     C40804   3.986  10.637   9.599  0.3874 -0.4680 -0.3351
  303MOL0     C40805   4.015  10.773   9.582 -0.0319 -0.2075 -0.8172
  303MOL0     O40806   3.916  10.868   9.602 -0.3689 -0.0034  0.0374
  303MOL0     C40807   3.934  11.008   9.566  0.4028  0.1397  0.3839
  303MOL0     C40808   3.806  11.090   9.591  0.6986 -0.0880  0.0520
  303MOL0     C40809   3.823  11.231   9.532 -0.0070  0.9520 -0.4257
  303MOL0     C40810   3.689  11.299   9.529  0.3596 -0.4982  0.3032
  303MOL0     C40811   3.595  11.257   9.417 -0.6216 -0.3265  0.2159
  303MOL0     C40812   3.492  11.366   9.413  0.6924 -0.0927  0.7616
  303MOL0     C40813   3.382  11.340   9.298  0.4662 -1.1088  0.8059
  303MOL0     C40814   3.294  11.469   9.289  0.0981  0.5680 -0.3445
  303MOL0    Cl40815   3.169  11.412   9.167 -0.1670 -0.3173 -0.3335
  303MOL0     C40816   4.146  10.803   9.542  0.7095  0.1349 -0.5001
  303MOL0     C40817   4.228  10.701   9.514 -0.2433  0.7561 -0.2652
  303MOL0     O40818   4.172  10.296   9.441  0.0415  0.2524 -0.2719
  303MOL0     C40819   4.523  10.324   9.493  0.7393 -0.0326  0.5220
  303MOL0     C40820   4.645  10.253   9.490  0.0839  0.4988 -0.1208
  303MOL0     N40821   5.165   9.847   9.896  0.0037 -0.0535 -0.3394
  303MOL0     N40822   5.289   9.859   9.934  0.1358  0.3468 -0.2738
  303MOL0     C40823   4.913   9.186   9.677  0.1894  0.6191  0.0406
  303MOL0     C40824   4.773   9.173   9.667  0.2056  0.7367 -0.2409
  303MOL0     C40825   4.330   9.139   9.804 -0.2401  0.6562  0.4490
  303MOL0     C40826   4.280   9.237   9.716  0.0139 -0.2940  0.0010
  303MOL0     C40827   4.142   9.260   9.694 -0.5627  1.3315  0.3841
  303MOL0     C40828   4.046   9.176   9.751  0.5992 -0.1125  0.3732
  303MOL0     O40829   3.909   9.206   9.754  0.8012 -0.6782 -0.0507
  303MOL0     C40830   3.860   9.277   9.642  0.3239 -0.7576 -0.6373
  303MOL0     C40831   3.706   9.298   9.652  0.3909  0.1548 -0.3053
  303MOL0     C40832   3.666   9.401   9.550  1.1917  0.1299 -0.4060
  303MOL0     C40833   3.519   9.435   9.578 -0.0227 -0.3844  0.2775
  303MOL0     C40834   3.469   9.528   9.467  0.1116 -0.0744  0.3379
  303MOL0     C40835   3.442   9.594   9.371  0.4413 -0.9296  0.3160
  303MOL0     C40836   4.099   9.076   9.833  0.7024 -0.0063 -0.3074
  303MOL0     C40837   4.233   9.056   9.862  0.2622 -0.0432  0.0970
  303MOL0     H40838   4.678   9.213   9.975 -0.6658 -2.5325 -0.1866
  303MOL0     H40839   4.941   9.220  10.016  1.0855 -0.4852 -0.1415
  303MOL0     H40840   5.151   9.201  10.019  3.4105 -0.8518  2.4898
  303MOL0     H40841   5.151   9.041   9.954  2.0638  0.0605  3.9195
  303MOL0     H40842   5.379   9.141   9.997  4.2566  0.1276 -2.6588
  303MOL0     H40843   5.365   9.104   9.829  1.4970  1.1770  0.0485
  303MOL0     H40844   5.317   9.348   9.787 -3.7292 -1.6268  1.1472
  303MOL0     H40845   5.321   9.371   9.966  0.9070  0.4586 -0.6701
  303MOL0     H40846   5.556   9.340   9.960 -0.0337 -2.1043 -0.3535
  303MOL0     H40847   5.550   9.242   9.813 -0.1757  0.6695 -3.1082
  303MOL0     H40848   5.664   9.461   9.792  0.2005  0.3424 -0.3490
  303MOL0     H40849   5.542   9.435   9.669 -1.7429  1.1382  0.9672
  303MOL0     H40850   5.386   9.573   9.800  0.5133 -1.3238  0.8926
  303MOL0     H40851   5.507   9.593   9.931  1.3750  0.6098 -0.6889
  303MOL0     H40852   5.665   9.706   9.772 -1.2726 -0.6174 -0.6688
  303MOL0     H40853   5.544   9.709   9.651 -1.3061 -1.3376 -0.1561
  303MOL0     H40854   5.543   9.915   9.761  0.0060  0.9040 -1.1052
  303MOL0     H40855   5.552   9.839   9.921  0.6030  3.2432 -1.7694
  303MOL0     H40856   5.316   9.760   9.622 -0.5662  2.4940 -1.4659
  303MOL0     H40857   5.063   9.730   9.588  2.3073 -0.7966  1.0858
  303MOL0     H40858   4.977   9.691   9.744 -1.1773 -0.1055 -2.3285
  303MOL0     H40859   4.875   9.877   9.766  2.8255 -1.2272  1.1567
  303MOL0     H40860   4.839   9.822   9.604 -1.6927  1.7950  0.7257
  303MOL0     H40861   5.013   9.986   9.502  0.3342 -1.0616  1.2914
  303MOL0     H40862   5.048  10.028   9.675 -0.7626 -0.9964  2.3188
  303MOL0     H40863   4.911  10.171   9.513 -0.0550 -0.0139  0.1285
  303MOL0     H40864   4.827  10.137   9.676 -0.0936  1.3365 -0.8869
  303MOL0     H40865   4.534   9.944   9.443  5.1845  0.9567 -0.5739
  303MOL0     H40866   4.207  10.045   9.472 -0.5576  1.0620 -0.0119
  303MOL0     H40867   4.253  10.057   9.303 -0.1497 -0.3117 -0.0628
  303MOL0     H40868   4.311   9.924   9.387 -1.3180 -0.1316  0.1282
  303MOL0     H40869   4.049  10.429   9.594  0.1696  0.3253  2.3045
  303MOL0     H40870   3.884  10.608   9.618  1.1899 -2.1557  1.8898
  303MOL0     H40871   4.010  11.064   9.622 -1.1920  1.5821  1.1839
  303MOL0     H40872   3.967  11.014   9.462  0.3399 -0.9796  0.2862
  303MOL0     H40873   3.716  11.037   9.559  0.3661  0.1172  0.6276
  303MOL0     H40874   3.787  11.111   9.697 -2.7358  2.1772 -0.8332
  303MOL0     H40875   3.870  11.231   9.433  1.1621 -0.4396  0.0995
  303MOL0     H40876   3.892  11.284   9.598  2.5775 -3.2497  0.6205
  303MOL0     H40877   3.636  11.282   9.623  1.1737 -0.5411  0.7637
  303MOL0     H40878   3.717  11.405   9.528  2.6068 -1.0140  1.6164
  303MOL0     H40879   3.550  11.160   9.442 -0.8514 -0.0148  1.0579
  303MOL0     H40880   3.652  11.252   9.324  1.1503  0.1675  1.2460
  303MOL0     H40881   3.444  11.372   9.512  0.4203 -1.9773  0.7781
  303MOL0     H40882   3.545  11.461   9.400  0.6274 -0.4126 -2.7154
  303MOL0     H40883   3.313  11.255   9.306 -2.1065  0.8216  0.5944
  303MOL0     H40884   3.438  11.323   9.206  0.2260 -0.3878  0.5125
  303MOL0     H40885   3.346  11.564   9.268  2.8153  0.0798  3.1341
  303MOL0     H40886   3.254  11.482   9.389 -0.0826  0.6394 -0.4260
  303MOL0     H40887   4.174  10.907   9.532 -0.3596  0.4065 -0.8634
  303MOL0     H40888   4.332  10.715   9.483 -0.4702 -0.3685 -1.6948
  303MOL0     H40889   4.525  10.432   9.491 -3.0887  0.1477 -1.2684
  303MOL0     H40890   4.740  10.304   9.505  2.0816 -3.0330  0.3915
  303MOL0     H40891   4.978   9.191   9.591  0.2267  0.3893  0.0557
  303MOL0     H40892   4.734   9.167   9.565 -0.8003 -1.5102  0.2123
  303MOL0     H40893   4.347   9.292   9.650  0.9421 -2.1358 -0.6630
  303MOL0     H40894   4.116   9.346   9.634 -3.1056 -0.7908 -1.8354
  303MOL0     H40895   3.916   9.370   9.642  2.6411 -2.0645  0.0762
  303MOL0     H40896   3.884   9.218   9.553  0.3007 -1.5293 -0.1404
  303MOL0     H40897   3.680   9.317   9.757 -0.6772 -1.3451 -0.2545
  303MOL0     H40898   3.652   9.207   9.624 -3.6686  2.7534 -1.8817
  303MOL0     H40899   3.676   9.375   9.445  0.8194  0.9114 -0.6416
  303MOL0     H40900   3.724   9.490   9.580  0.9215 -0.0170  0.5881
  303MOL0     H40901   3.503   9.491   9.670  1.0670 -0.0336  0.2684
  303MOL0     H40902   3.459   9.343   9.578  0.4524 -0.7195 -1.1153
  303MOL0     H40903   3.402   9.662   9.298 -1.1826  0.2190  2.1636
  303MOL0     H40904   4.036   9.013   9.894 -0.4093  0.5991 -0.8055
  303MOL0     H40905   4.249   8.976   9.934  1.7912  0.8668  0.8279
  304MOL0     O40906   8.482   2.543   1.388  0.4999  0.1428 -0.1198
  304MOL0     C40907   8.577   2.480   1.345 -0.3837 -0.6866  1.2682
  304MOL0     O40908   8.580   2.398   1.237 -0.8302 -0.3595  0.8580
  304MOL0     C40909   8.481   2.409   1.139 -0.5655  0.6208 -0.6053
  304MOL0     C40910   8.434   2.298   1.069  0.1122 -0.5737  0.8667
  304MOL0     C40911   8.332   2.304   0.979  0.2357 -0.5909  0.1656
  304MOL0     C40912   8.277   2.421   0.941 -0.2695  0.2727 -0.5950
  304MOL0     O40913   8.171   2.429   0.851 -0.2000 -0.3178 -0.0638
  304MOL0     C40914   8.097   2.307   0.827  0.0464  0.3102  0.2256
  304MOL0     C40915   7.963   2.356   0.770  0.5963  0.1269  1.0081
  304MOL0     C40916   7.903   2.271   0.659 -0.5350  0.2138  0.5927
  304MOL0     C40917   7.753   2.305   0.666  0.3710  0.1366  0.1404
  304MOL0     C40918   7.675   2.214   0.567 -0.7432  0.5657 -0.4240
  304MOL0     C40919   7.544   2.183   0.625 -0.0605  0.0507 -0.5786
  304MOL0     C40920   7.456   2.102   0.526 -1.4675  0.4011  0.6096
  304MOL0     C40921   7.335   2.049   0.600 -0.6238  0.0897 -0.4335
  304MOL0     N40922   7.232   2.156   0.626  0.4022 -0.2064  0.0568
  304MOL0     C40923   7.144   2.200   0.529 -0.4325  0.3493 -0.6063
  304MOL0     C40924   7.035   2.252   0.597  0.0286 -0.7526  0.0390
  304MOL0     C40925   6.920   2.315   0.529  0.2137  0.1014 -0.4741
  304MOL0     C40926   6.797   2.266   0.613 -0.6121 -0.4351  0.8302
  304MOL0     C40927   6.668   2.278   0.523 -0.3627 -0.4466 -0.0701
  304MOL0     C40928   6.543   2.244   0.597 -0.3248 -0.4567 -0.5097
  304MOL0     O40929   6.538   2.107   0.640  0.1969  0.7770  0.3547
  304MOL0     C40930   6.431   2.058   0.719 -0.1426 -0.3845  0.2055
  304MOL0     C40931   6.321   2.132   0.759  0.0981 -0.0338 -0.2744
  304MOL0     C40932   6.211   2.073   0.830  0.0812  0.3206 -0.4544
  304MOL0     C40933   6.086   2.163   0.858 -0.6874  0.0820 -0.9340
  304MOL0     C40934   6.218   1.932   0.867  0.6232 -0.3322 -0.0991
  304MOL0     C40935   6.105   1.870   0.938 -0.2707 -0.4400  0.7482
  304MOL0     O40936   6.079   1.900   1.063 -0.0393 -0.3732 -0.5404
  304MOL0     C40937   5.994   1.835   1.133 -0.1576  0.3295 -0.0158
  304MOL0     C40938   6.023   1.729   1.213 -0.3260  0.2822 -0.8303
  304MOL0     C40939   5.933   1.662   1.287  0.6969 -0.1629 -0.2240
  304MOL0     C40940   5.794   1.689   1.272 -0.0127  0.0803 -0.4476
  304MOL0     O40941   5.713   1.616   1.351 -0.0742 -0.5907 -0.4695
  304MOL0     C40942   5.581   1.657   1.380  0.4052  0.2755 -0.9443
  304MOL0     C40943   5.537   1.568   1.506 -0.4406  0.4147  0.6770
  304MOL0     C40944   5.414   1.619   1.578 -1.1130 -0.5881 -0.0092
  304MOL0     C40945   5.308   1.664   1.485  0.7735 -0.4520 -0.5540
  304MOL0     C40946   5.181   1.711   1.573 -0.2500 -0.4356 -0.1067
  304MOL0     C40947   5.100   1.838   1.519 -0.2278  0.0081  0.3863
  304MOL0     C40948   4.982   1.891   1.611  0.1037  0.5811  0.2112
  304MOL0     C40949   4.857   1.805   1.621 -0.5005 -0.2890 -0.2622
  304MOL0    Cl40950   4.782   1.785   1.463  0.3923  0.2031 -0.2408
  304MOL0     C40951   5.760   1.801   1.195 -0.4780 -0.1814 -0.2453
  304MOL0     C40952   5.858   1.868   1.127  0.2194 -0.2255 -0.0378
  304MOL0     O40953   6.056   1.793   0.859  0.7608  0.0820 -0.5496
  304MOL0     C40954   6.325   1.859   0.829  0.3073 -0.7272 -0.2848
  304MOL0     C40955   6.432   1.929   0.760  0.0437 -0.3810  0.2904
  304MOL0     N40956   7.061   2.242   0.733  0.5526 -0.2184 -0.7660
  304MOL0     N40957   7.181   2.184   0.746  0.1377 -0.7899  0.1166
  304MOL0     C40958   8.331   2.538   0.990  0.3724  0.2125  0.2111
  304MOL0     C40959   8.437   2.527   1.086 -0.8171 -0.3985 -0.3828
  304MOL0     C40960   8.706   2.497   1.423  0.2916  0.8506 -0.1069
  304MOL0     C40961   8.820   2.428   1.391 -0.4676 -0.1017 -0.3725
  304MOL0     C40962   8.938   2.446   1.460  0.2752  0.0754  0.3597
  304MOL0     C40963   8.945   2.542   1.564 -0.1618  0.1302  0.3164
  304MOL0     O40964   9.068   2.563   1.613 -0.3402 -0.3770  0.0079
  304MOL0     C40965   9.082   2.688   1.682 -0.1274 -0.2318  0.0020
  304MOL0     C40966   9.229   2.690   1.744  0.6514  0.8976 -0.3118
  304MOL0     C40967   9.333   2.687   1.630 -0.0976  0.8270  0.6401
  304MOL0     C40968   9.342   2.807   1.547  0.7193  0.2595 -0.0131
  304MOL0     C40969   9.460   2.811   1.458 -0.5210  0.5793  0.9352
  304MOL0     C40970   9.557   2.813   1.376  0.6140  0.2408  0.1621
  304MOL0     C40971   8.825   2.618   1.593  0.6642  0.3546  0.9133
  304MOL0     C40972   8.704   2.586   1.526  0.1450 -0.0570  0.1193
  304MOL0     H40973   8.485   2.205   1.091  1.2586  0.3281  2.1835
  304MOL0     H40974   8.318   2.207   0.931  2.0977 -0.1050 -1.5121
  304MOL0     H40975   8.152   2.255   0.747  0.5825 -0.9112  1.3532
  304MOL0     H40976   8.083   2.236   0.909  2.8656  1.2009  1.6148
  304MOL0     H40977   7.909   2.350   0.865  1.8844 -0.9183  1.7089
  304MOL0     H40978   7.956   2.462   0.743 -1.5018 -0.1718  0.1871
  304MOL0     H40979   7.952   2.279   0.562  2.1103 -2.6459  1.5089
  304MOL0     H40980   7.901   2.164   0.685 -2.0971  0.2605  0.7383
  304MOL0     H40981   7.719   2.295   0.769 -1.2563  1.1767 -0.2702
  304MOL0     H40982   7.742   2.410   0.639 -0.0944  0.1508  0.3965
  304MOL0     H40983   7.670   2.260   0.468 -0.9911 -2.1956 -1.7989
  304MOL0     H40984   7.726   2.117   0.559  1.9312  1.8912 -0.6673
  304MOL0     H40985   7.553   2.122   0.716 -1.7420 -1.3171 -1.2782
  304MOL0     H40986   7.498   2.275   0.664  1.8707  0.0813  1.9709
  304MOL0     H40987   7.430   2.161   0.438 -1.9778 -0.8382 -0.0946
  304MOL0     H40988   7.515   2.018   0.490 -1.4896 -0.7236  3.0083
  304MOL0     H40989   7.366   2.008   0.697 -0.7427  0.0260 -0.4223
  304MOL0     H40990   7.297   1.964   0.542  0.9432  0.0274 -1.4424
  304MOL0     H40991   7.149   2.186   0.421 -3.1871 -1.6787 -0.5786
  304MOL0     H40992   6.929   2.424   0.525 -0.6075  0.5378  4.4436
  304MOL0     H40993   6.914   2.289   0.422 -0.2573  0.6742 -0.5928
  304MOL0     H40994   6.791   2.333   0.699 -1.0650  1.6873 -0.7765
  304MOL0     H40995   6.797   2.162   0.647  1.3968 -1.0915 -0.9579
  304MOL0     H40996   6.674   2.207   0.440 -2.3746 -0.0707 -0.5912
  304MOL0     H40997   6.675   2.376   0.473  0.3344 -0.5588 -0.1993
  304MOL0     H40998   6.464   2.276   0.528  1.7602  3.7009 -1.2999
  304MOL0     H40999   6.537   2.304   0.688 -1.0140  0.4896 -1.1637
  304MOL0     H41000   6.302   2.235   0.728 -0.3785  0.2596  0.9734
  304MOL0     H41001   6.109   2.224   0.946 -1.1592 -2.1097  0.7996
  304MOL0     H41002   6.076   2.233   0.775 -0.8680  4.7231  2.5786
  304MOL0     H41003   5.994   2.108   0.879  0.3495 -0.8661  1.5547
  304MOL0     H41004   6.130   1.709   1.217  0.1975  2.3766 -2.3033
  304MOL0     H41005   5.958   1.578   1.350 -1.5023 -1.9746 -1.6018
  304MOL0     H41006   5.572   1.759   1.419 -0.7532 -0.1984  0.1308
  304MOL0     H41007   5.512   1.633   1.298 -2.1817 -0.0194  1.1549
  304MOL0     H41008   5.518   1.467   1.470 -2.0186  0.9236  0.0378
  304MOL0     H41009   5.613   1.550   1.584  0.8351 -1.9864 -0.9965
  304MOL0     H41010   5.457   1.686   1.653  1.1761 -2.1696  0.2056
  304MOL0     H41011   5.371   1.540   1.640  0.3836 -2.7154 -1.4928
  304MOL0     H41012   5.336   1.739   1.411 -1.4219 -0.5365 -1.5342
  304MOL0     H41013   5.279   1.580   1.421  0.4605  0.3955 -1.5422
  304MOL0     H41014   5.216   1.734   1.674 -1.2256 -3.0561  0.9069
  304MOL0     H41015   5.122   1.620   1.575  1.9530 -1.9684 -0.8002
  304MOL0     H41016   5.163   1.928   1.521 -0.8899  0.4698  0.9238
  304MOL0     H41017   5.071   1.807   1.418 -0.3229 -1.8885  0.9574
  304MOL0     H41018   4.942   1.987   1.577  1.2668  0.7601 -0.7195
  304MOL0     H41019   5.020   1.899   1.713 -1.1745 -1.5795  0.9296
  304MOL0     H41020   4.784   1.838   1.695  0.7019  0.8027  0.4802
  304MOL0     H41021   4.896   1.714   1.667  0.7695 -0.4330 -1.5315
  304MOL0     H41022   5.660   1.841   1.184  0.1691  1.5350 -0.1468
  304MOL0     H41023   5.838   1.945   1.053  1.9798  0.1430 -0.1864
  304MOL0     H41024   6.329   1.756   0.863  1.4654  0.0248  2.0976
  304MOL0     H41025   6.515   1.871   0.721 -0.8353  0.4096 -3.1779
  304MOL0     H41026   8.287   2.628   0.947 -1.6189 -0.8757 -0.1408
  304MOL0     H41027   8.470   2.625   1.117 -0.1742 -0.6273 -0.3389
  304MOL0     H41028   8.826   2.354   1.312 -0.9338 -1.9308  1.2174
  304MOL0     H41029   9.021   2.385   1.424 -0.6325 -2.1392  1.8002
  304MOL0     H41030   9.058   2.773   1.618 -0.8705  0.6247  1.3609
  304MOL0     H41031   9.010   2.689   1.764 -0.6368 -1.8554 -0.3912
  304MOL0     H41032   9.236   2.602   1.808 -0.7475  0.9371 -0.0824
  304MOL0     H41033   9.243   2.777   1.809  0.4149  2.4066 -2.1777
  304MOL0     H41034   9.314   2.598   1.569  0.6620  1.0613  0.0385
  304MOL0     H41035   9.430   2.659   1.672 -0.9175  0.9125  2.6913
  304MOL0     H41036   9.341   2.890   1.618  0.9798  1.0327 -0.8894
  304MOL0     H41037   9.249   2.807   1.489 -0.7409  0.1388  2.2244
  304MOL0     H41038   9.644   2.815   1.313  0.5542  1.2034  0.0992
  304MOL0     H41039   8.827   2.692   1.672 -3.3578  0.7545  0.8687
  304MOL0     H41040   8.615   2.642   1.553 -0.0849 -1.5364  2.8104
  305MOL0     O41041   8.287   9.390   4.099 -0.0759  0.7774 -0.8388
  305MOL0     C41042   8.317   9.456   4.200  0.4323  0.0965 -0.6684
  305MOL0     O41043   8.239   9.532   4.266 -0.1492 -0.0308 -0.8204
  305MOL0     C41044   8.112   9.570   4.232  0.2277  0.6524  0.2288
  305MOL0     C41045   8.001   9.501   4.270  0.3396  0.5139  0.5608
  305MOL0     C41046   7.876   9.548   4.231 -0.0331 -0.8088  0.0227
  305MOL0     C41047   7.860   9.665   4.155 -0.6513 -0.6364  0.1755
  305MOL0     O41048   7.745   9.729   4.109  0.2467  0.5483  0.8130
  305MOL0     C41049   7.627   9.694   4.178  0.2112 -0.1847 -0.2479
  305MOL0     C41050   7.535   9.812   4.179  0.1142 -0.1268 -0.0282
  305MOL0     C41051   7.402   9.792   4.266 -0.4673  0.8731  0.2421
  305MOL0     C41052   7.293   9.719   4.181  0.6417 -0.6068 -0.7993
  305MOL0     C41053   7.183   9.810   4.144  0.1443 -0.0494  0.2928
  305MOL0     C41054   7.069   9.728   4.087  0.8274  0.3182 -0.6729
  305MOL0     C41055   6.952   9.809   4.070  0.3226 -0.3578  0.4870
  305MOL0     C41056   6.830   9.734   4.033 -0.0830  0.5979 -0.4242
  305MOL0     N41057   6.736   9.813   3.955  0.1101 -0.2328  0.4021
  305MOL0     C41058   6.718   9.789   3.823 -0.3594  0.3063  0.1736
  305MOL0     C41059   6.604   9.848   3.786 -0.6302 -0.2430  0.1261
  305MOL0     C41060   6.548   9.857   3.652 -0.6411  0.2729 -0.0894
  305MOL0     C41061   6.566   9.984   3.573  0.8731  0.0813  0.3868
  305MOL0     C41062   6.708  10.008   3.528 -0.2060 -0.6078  0.5416
  305MOL0     C41063   6.709  10.134   3.429  0.2298  0.1581  0.3026
  305MOL0     O41064   6.683  10.261   3.493 -0.9746  0.1616  0.1600
  305MOL0     C41065   6.559  10.302   3.513  0.1955  0.1225  1.0594
  305MOL0     C41066   6.537  10.413   3.599  0.0146  0.2533  0.5245
  305MOL0     C41067   6.408  10.472   3.619 -0.1410 -0.5746  0.2480
  305MOL0     C41068   6.400  10.585   3.711 -0.1837  0.0363 -0.1611
  305MOL0     C41069   6.294  10.424   3.546  0.6164 -0.1855 -0.1097
  305MOL0     C41070   6.157  10.472   3.550 -0.4494 -0.3154  0.2362
  305MOL0     O41071   6.065  10.395   3.497  0.6833  0.4825 -1.1080
  305MOL0     C41072   5.939  10.399   3.542 -0.3567 -0.1458 -0.3461
  305MOL0     C41073   5.852  10.497   3.501 -0.6251 -0.2632 -0.1549
  305MOL0     C41074   5.720  10.502   3.541  1.1947 -0.2798  0.2811
  305MOL0     C41075   5.671  10.410   3.629  0.0992  0.0681 -0.5169
  305MOL0     O41076   5.538  10.428   3.673  0.2243  0.0570 -1.1326
  305MOL0     C41077   5.524  10.464   3.813 -0.2011 -0.3665 -0.1259
  305MOL0     C41078   5.379  10.495   3.845 -0.5594 -0.1619 -0.8488
  305MOL0     C41079   5.334  10.628   3.795 -0.0590  0.0676  0.2304
  305MOL0     C41080   5.301  10.636   3.649 -0.1574  0.1981 -0.0133
  305MOL0     C41081   5.214  10.753   3.605 -0.3776 -0.1900  0.0499
  305MOL0     C41082   5.065  10.748   3.647 -0.2087  0.2018  0.0761
  305MOL0     C41083   5.001  10.884   3.620 -0.0118  0.8167 -0.2928
  305MOL0     C41084   4.849  10.884   3.658 -0.0292  0.5265  0.1564
  305MOL0    Cl41085   4.766  11.038   3.621  0.0154 -0.3404 -0.2328
  305MOL0     C41086   5.757  10.309   3.680  0.8947 -0.2617 -0.7715
  305MOL0     C41087   5.891  10.308   3.636  0.8941  0.1067  0.8027
  305MOL0     O41088   6.136  10.584   3.601  0.7084  0.3518  0.4382
  305MOL0     C41089   6.320  10.306   3.463 -0.7050  0.6353 -1.3113
  305MOL0     C41090   6.446  10.255   3.448  0.0262  0.0806 -0.3153
  305MOL0     N41091   6.552   9.916   3.895  0.2065  0.0795 -1.3554
  305MOL0     N41092   6.630   9.885   3.999 -0.4287 -0.7530 -0.6700
  305MOL0     C41093   7.981   9.731   4.112 -0.6539  0.1132 -0.1294
  305MOL0     C41094   8.105   9.678   4.148  0.8075  0.1431  0.9322
  305MOL0     C41095   8.459   9.437   4.241 -0.5237  0.6991  0.3194
  305MOL0     C41096   8.522   9.478   4.369  0.2736  0.6541  0.3634
  305MOL0     C41097   8.651   9.449   4.401  0.6271 -0.2830  0.5050
  305MOL0     C41098   8.736   9.391   4.308  0.3880  0.0271 -0.6195
  305MOL0     O41099   8.873   9.379   4.331  0.1848  0.1924  0.4731
  305MOL0     C41100   8.960   9.325   4.232  0.4344 -0.1225 -0.2019
  305MOL0     C41101   9.104   9.321   4.288 -0.7932  0.0858  0.6599
  305MOL0     C41102   9.110   9.264   4.429 -0.5999 -0.3100  0.0083
  305MOL0     C41103   9.258   9.259   4.482  0.1975 -0.2334  0.5199
  305MOL0     C41104   9.352   9.167   4.407 -0.3905 -0.6040 -0.2399
  305MOL0     C41105   9.424   9.103   4.342  0.0774 -0.8176  0.1710
  305MOL0     C41106   8.682   9.351   4.185 -0.2083  0.3133  0.9224
  305MOL0     C41107   8.546   9.362   4.147 -0.7892  0.3465  0.5753
  305MOL0     H41108   8.009   9.413   4.334 -0.6699 -1.4675 -1.8775
  305MOL0     H41109   7.784   9.502   4.267 -0.0213 -0.5407  0.4034
  305MOL0     H41110   7.588   9.602   4.134  0.7700 -0.2142 -0.7051
  305MOL0     H41111   7.652   9.671   4.282  1.5969 -2.2318 -0.9539
  305MOL0     H41112   7.591   9.898   4.216 -1.6009  0.4632  1.3252
  305MOL0     H41113   7.498   9.845   4.082  0.3370 -0.3911 -0.2045
  305MOL0     H41114   7.433   9.725   4.346 -3.7166 -0.7863  0.2879
  305MOL0     H41115   7.372   9.886   4.312  2.9828  1.3918  1.7367
  305MOL0     H41116   7.331   9.676   4.088 -2.0244 -0.9934 -1.7852
  305MOL0     H41117   7.253   9.633   4.236  0.6505  0.4283  0.9090
  305MOL0     H41118   7.158   9.874   4.229  1.1801 -0.4374  0.9021
  305MOL0     H41119   7.209   9.874   4.059 -0.6959  1.8522  1.3997
  305MOL0     H41120   7.089   9.684   3.989  2.5620  1.7999 -1.0376
  305MOL0     H41121   7.040   9.645   4.152  1.7267  0.3070 -0.2606
  305MOL0     H41122   6.928   9.846   4.171 -0.2076  0.9827 -0.1041
  305MOL0     H41123   6.972   9.898   4.010 -0.2555  1.2986  2.5977
  305MOL0     H41124   6.778   9.701   4.124  2.2140  1.2832  1.2416
  305MOL0     H41125   6.853   9.640   3.982  0.2448 -0.9414  2.3514
  305MOL0     H41126   6.778   9.733   3.751  0.1367 -0.7828  1.3984
  305MOL0     H41127   6.578   9.767   3.598  3.0205 -0.5049  2.8680
  305MOL0     H41128   6.441   9.856   3.675 -0.9280  0.4149 -1.3390
  305MOL0     H41129   6.524  10.073   3.619 -1.1211 -0.6884  0.1734
  305MOL0     H41130   6.503   9.968   3.486 -0.0583  1.9588  0.6672
  305MOL0     H41131   6.750   9.923   3.474  0.3176 -1.6719  2.5153
  305MOL0     H41132   6.777  10.040   3.607  0.0488 -1.5920  0.7258
  305MOL0     H41133   6.641  10.122   3.344  1.2549  1.9579 -0.8556
  305MOL0     H41134   6.805  10.142   3.377  0.4599  1.4225  0.8795
  305MOL0     H41135   6.631  10.444   3.646  0.8672 -4.6184  2.6198
  305MOL0     H41136   6.496  10.600   3.762  0.0160 -0.2278 -0.4556
  305MOL0     H41137   6.390  10.673   3.646 -0.7012 -0.7416 -1.1598
  305MOL0     H41138   6.317  10.582   3.782  0.9226 -2.8449  1.1501
  305MOL0     H41139   5.903  10.574   3.444  0.3007  1.2996  2.6044
  305MOL0     H41140   5.663  10.583   3.494 -0.6011 -1.2529  0.6815
  305MOL0     H41141   5.554  10.374   3.869 -0.4674  0.0115  0.6411
  305MOL0     H41142   5.602  10.537   3.836  0.6983 -1.6974  1.2737
  305MOL0     H41143   5.316  10.414   3.808  0.2734 -1.0733 -0.2912
  305MOL0     H41144   5.364  10.487   3.953  2.6870 -4.6984 -0.4783
  305MOL0     H41145   5.405  10.706   3.822  0.4544  0.0431 -0.9739
  305MOL0     H41146   5.238  10.642   3.845  0.7678 -0.1080  1.9362
  305MOL0     H41147   5.390  10.646   3.586  0.7925  0.8987  1.3950
  305MOL0     H41148   5.255  10.542   3.617  2.5580 -1.7257  1.3569
  305MOL0     H41149   5.226  10.762   3.496  1.6764 -1.4629  0.1197
  305MOL0     H41150   5.255  10.846   3.645  3.3174 -1.4719 -0.4055
  305MOL0     H41151   5.012  10.660   3.608 -2.0971  0.1102  2.5858
  305MOL0     H41152   5.066  10.736   3.755  1.8030 -0.6774  0.0052
  305MOL0     H41153   5.004  10.914   3.515  0.1574  0.8453 -0.2806
  305MOL0     H41154   5.044  10.973   3.666 -2.3855  1.8307  0.1474
  305MOL0     H41155   4.841  10.856   3.764  1.6301 -0.1673  0.1299
  305MOL0     H41156   4.809  10.804   3.596  2.7829 -1.1159  0.2767
  305MOL0     H41157   5.721  10.243   3.758 -0.9413 -0.4530 -1.7214
  305MOL0     H41158   5.965  10.238   3.672  0.9156 -0.5008 -0.3699
  305MOL0     H41159   6.238  10.265   3.405 -0.2800 -0.5813 -1.0851
  305MOL0     H41160   6.457  10.165   3.388  1.0498  0.3629 -0.5767
  305MOL0     H41161   7.980   9.818   4.046  3.4883  1.5488  1.3622
  305MOL0     H41162   8.188   9.734   4.104  0.5925 -0.9199 -0.9240
  305MOL0     H41163   8.459   9.541   4.431  0.1403  0.0708  0.8327
  305MOL0     H41164   8.692   9.497   4.489 -0.1539  1.4696 -0.0458
  305MOL0     H41165   8.929   9.225   4.200  1.7454 -1.4355  2.3029
  305MOL0     H41166   8.955   9.386   4.141  1.8493 -0.4764 -0.5462
  305MOL0     H41167   9.148   9.420   4.269  2.1119 -1.1939  0.1764
  305MOL0     H41168   9.153   9.250   4.221  0.3727 -0.6391  2.2220
  305MOL0     H41169   9.064   9.165   4.436 -1.1876  0.0269  1.0845
  305MOL0     H41170   9.051   9.325   4.498 -1.4325  1.6398 -2.3163
  305MOL0     H41171   9.258   9.244   4.590 -3.4621  0.3559  0.6994
  305MOL0     H41172   9.308   9.356   4.474  1.1817 -0.4469  3.0776
  305MOL0     H41173   9.494   9.040   4.290 -0.4185  0.3630 -2.0420
  305MOL0     H41174   8.740   9.307   4.104 -1.8944 -0.1429 -0.0780
  305MOL0     H41175   8.502   9.331   4.053  2.2487 -0.9701 -0.5197
  306MOL0     O41176   4.326   1.579   0.054 -0.2215 -0.2733  0.0960
  306MOL0     C41177   4.335   1.488  -0.024 -0.1866 -0.5249 -0.7549
  306MOL0     O41178   4.237   1.401  -0.045  0.8371  0.5257 -0.0092
  306MOL0     C41179   4.113   1.399   0.006  0.2332  0.4914 -0.4667
  306MOL0     C41180   4.022   1.309  -0.056  0.3969 -0.2614 -0.6550
  306MOL0     C41181   3.885   1.302  -0.010 -0.3854  0.1357  0.1791
  306MOL0     C41182   3.842   1.371   0.109 -0.6554  0.4195  0.5483
  306MOL0     O41183   3.710   1.375   0.154  0.6876 -0.5431 -0.6343
  306MOL0     C41184   3.613   1.313   0.069  0.0791  0.2095 -0.0906
  306MOL0     C41185   3.478   1.369   0.084  0.0435 -0.3057 -0.0799
  306MOL0     C41186   3.415   1.346   0.217 -0.5010 -0.1621  0.1104
  306MOL0     C41187   3.290   1.435   0.216 -0.0932 -0.1573  0.3783
  306MOL0     C41188   3.208   1.436   0.340  0.2305  0.1513 -0.8454
  306MOL0     C41189   3.154   1.304   0.384  0.7486  0.1846  0.1092
  306MOL0     C41190   3.060   1.334   0.500  0.1681  0.8091  0.2040
  306MOL0     C41191   2.995   1.200   0.555 -0.0238  0.3099  0.4445
  306MOL0     N41192   2.896   1.231   0.653  0.3280  0.4223  0.4634
  306MOL0     C41193   2.923   1.233   0.788  1.2438 -0.9756 -0.0606
  306MOL0     C41194   2.799   1.252   0.843 -0.1475  1.3031 -0.1324
  306MOL0     C41195   2.792   1.239   0.991 -0.0484  0.0033  0.2904
  306MOL0     C41196   2.653   1.258   1.054  0.1521 -0.0417  0.4451
  306MOL0     C41197   2.637   1.247   1.200 -0.7305  0.0093 -0.0243
  306MOL0     C41198   2.491   1.231   1.244 -0.0988 -0.5233 -0.2705
  306MOL0     O41199   2.403   1.327   1.176  0.0728  0.5428 -0.6233
  306MOL0     C41200   2.268   1.320   1.191  0.7380 -0.5705 -0.5569
  306MOL0     C41201   2.201   1.227   1.272 -0.6598  0.0654 -1.0167
  306MOL0     C41202   2.066   1.218   1.284 -0.0597  0.4489  0.2359
  306MOL0     C41203   2.010   1.118   1.385  0.0437 -0.3299  0.7510
  306MOL0     C41204   1.986   1.309   1.217  0.3190 -0.5528  0.3688
  306MOL0     C41205   1.842   1.319   1.215  0.4452  0.8779 -0.1714
  306MOL0     O41206   1.774   1.218   1.269  0.2851  0.3004  0.1326
  306MOL0     C41207   1.636   1.220   1.249  0.5534 -0.9704 -0.0905
  306MOL0     C41208   1.584   1.114   1.176 -0.2812 -0.3018 -0.0498
  306MOL0     C41209   1.446   1.103   1.155 -0.1497  0.1132  0.9279
  306MOL0     C41210   1.360   1.201   1.214  0.5387 -0.0393 -0.4025
  306MOL0     O41211   1.224   1.191   1.183  0.0344 -0.1439 -0.7977
  306MOL0     C41212   1.144   1.128   1.285 -0.2087  0.2165  0.5473
  306MOL0     C41213   1.003   1.138   1.249 -0.0659  0.6655 -0.3303
  306MOL0     C41214   0.913   1.092   1.366 -0.2258 -0.0469  1.0347
  306MOL0     C41215   0.767   1.089   1.320 -0.3582 -0.7835  0.0225
  306MOL0     C41216   0.670   1.044   1.436 -0.4679 -0.0931  0.3257
  306MOL0     C41217   0.526   1.043   1.379  0.1199 -0.1913  0.1135
  306MOL0     C41218   0.483   1.192   1.379 -0.2660  0.4797  0.6075
  306MOL0     C41219   0.337   1.217   1.367  0.4634  0.0504 -0.7637
  306MOL0    Cl41220   0.296   1.392   1.368  0.0219 -0.0828 -0.0396
  306MOL0     C41221   1.409   1.305   1.290 -0.1233  0.5662 -0.3326
  306MOL0     C41222   1.546   1.312   1.310  0.8044  0.0923  0.0697
  306MOL0     O41223   1.789   1.421   1.167  0.5601  0.2577  0.1974
  306MOL0     C41224   2.050   1.415   1.153 -0.4259 -0.0442  0.1264
  306MOL0     C41225   2.187   1.413   1.125 -0.2090 -0.2492 -0.0354
  306MOL0     N41226   2.710   1.242   0.748  0.0390 -0.2715  0.3896
  306MOL0     N41227   2.765   1.218   0.631 -0.3565 -0.2045  0.1179
  306MOL0     C41228   3.942   1.441   0.171  0.3290 -0.6415  0.0295
  306MOL0     C41229   4.068   1.467   0.113  0.0781 -0.6362 -0.5464
  306MOL0     C41230   4.460   1.470  -0.100  0.9327  0.2323 -0.6326
  306MOL0     C41231   4.584   1.520  -0.048 -0.6079 -0.5511 -0.4228
  306MOL0     C41232   4.690   1.516  -0.136 -0.8262 -0.1579  0.6522
  306MOL0     C41233   4.691   1.453  -0.262  0.2477 -0.7176  0.7267
  306MOL0     O41234   4.822   1.453  -0.336  0.0912 -0.8506 -0.7060
  306MOL0     C41235   4.807   1.418  -0.474  0.2817  0.5460 -0.4571
  306MOL0     C41236   4.941   1.452  -0.530 -0.3402 -0.2049  0.7682
  306MOL0     C41237   5.027   1.324  -0.506 -0.7256 -0.4172 -0.8252
  306MOL0     C41238   5.176   1.364  -0.486 -0.3907 -0.7098 -0.7656
  306MOL0     C41239   5.227   1.428  -0.610 -0.4881  0.4110  0.0677
  306MOL0     C41240   5.277   1.469  -0.716 -0.1203 -0.3050 -0.5329
  306MOL0     C41241   4.574   1.398  -0.310  0.0390 -0.2413  0.3212
  306MOL0     C41242   4.462   1.405  -0.221 -1.2480  0.3661  0.0126
  306MOL0     H41243   4.065   1.236  -0.123  0.3271 -2.0957  1.2169
  306MOL0     H41244   3.817   1.232  -0.058 -1.0440  0.5695  0.4528
  306MOL0     H41245   3.643   1.348  -0.030 -0.0152  1.8546  0.4404
  306MOL0     H41246   3.617   1.204   0.074 -3.6740 -0.0347  0.1860
  306MOL0     H41247   3.483   1.477   0.070  0.0954 -0.2631  0.2675
  306MOL0     H41248   3.415   1.317   0.010  0.0190 -1.9014  1.0079
  306MOL0     H41249   3.398   1.238   0.220  0.8834 -0.4666 -1.5889
  306MOL0     H41250   3.485   1.377   0.296 -1.4091  0.4110  0.7153
  306MOL0     H41251   3.319   1.535   0.183  2.2249 -1.6250 -2.4663
  306MOL0     H41252   3.222   1.395   0.140 -0.3388  1.0931 -0.0901
  306MOL0     H41253   3.260   1.492   0.417 -0.5250  1.5936 -1.3533
  306MOL0     H41254   3.123   1.501   0.319 -1.0702 -1.9106 -2.4132
  306MOL0     H41255   3.116   1.245   0.299 -0.4193 -1.5575  1.7716
  306MOL0     H41256   3.237   1.248   0.427  1.1522  2.4289  2.4617
  306MOL0     H41257   3.107   1.396   0.577  0.6087 -1.3369  1.7472
  306MOL0     H41258   2.977   1.393   0.460  0.7840  1.2460 -0.4579
  306MOL0     H41259   3.078   1.142   0.597  0.4220 -0.2835 -1.1678
  306MOL0     H41260   2.945   1.146   0.474 -1.1913  0.0240  1.3240
  306MOL0     H41261   3.020   1.233   0.836  0.9875 -0.9667  0.4559
  306MOL0     H41262   2.836   1.140   1.008 -1.3280 -0.7400 -0.5376
  306MOL0     H41263   2.859   1.316   1.030  1.9795 -0.4665 -2.0177
  306MOL0     H41264   2.593   1.181   1.004 -0.0366  0.1280  0.4091
  306MOL0     H41265   2.613   1.358   1.034 -3.2766 -1.1669  0.9904
  306MOL0     H41266   2.684   1.333   1.249 -0.6346  0.2437 -0.5235
  306MOL0     H41267   2.700   1.167   1.241  1.1091  1.5894  0.3659
  306MOL0     H41268   2.477   1.256   1.349  0.5758  0.6774 -0.4491
  306MOL0     H41269   2.453   1.131   1.221  0.7032 -1.2937  1.6104
  306MOL0     H41270   2.258   1.156   1.331 -0.5142  1.6569  0.8459
  306MOL0     H41271   1.961   1.038   1.328 -0.5074  0.2235  0.4455
  306MOL0     H41272   2.086   1.070   1.447 -0.0026 -1.1631  0.1790
  306MOL0     H41273   1.935   1.160   1.453 -0.2737  1.2973 -0.5390
  306MOL0     H41274   1.647   1.045   1.120  0.9570  2.9373 -2.9692
  306MOL0     H41275   1.405   1.027   1.088  1.3320 -2.0579  2.3483
  306MOL0     H41276   1.168   1.022   1.302 -1.9112 -0.1919  0.5404
  306MOL0     H41277   1.161   1.188   1.375 -3.0603  2.2229 -0.1344
  306MOL0     H41278   0.970   1.237   1.216 -1.7057 -0.0516 -0.9377
  306MOL0     H41279   0.981   1.074   1.163  2.5952 -0.3352 -0.3656
  306MOL0     H41280   0.931   1.160   1.450 -0.7453 -0.7894  1.7750
  306MOL0     H41281   0.944   0.996   1.409  3.0249  0.0261 -0.8423
  306MOL0     H41282   0.731   1.188   1.289 -2.8349 -1.1313  1.5470
  306MOL0     H41283   0.761   1.023   1.233 -1.5294 -1.2387  0.4312
  306MOL0     H41284   0.682   1.101   1.529 -1.5364 -1.0931  1.1015
  306MOL0     H41285   0.701   0.944   1.465  2.1582  0.3765 -0.5876
  306MOL0     H41286   0.523   0.996   1.281 -1.0785  1.6544 -0.8008
  306MOL0     H41287   0.449   0.998   1.441 -1.2884  1.8539 -0.0421
  306MOL0     H41288   0.534   1.252   1.302  0.3580  0.5590  1.0703
  306MOL0     H41289   0.524   1.246   1.465  2.1866 -2.8984  1.7776
  306MOL0     H41290   0.288   1.168   1.452  1.8118 -1.2126 -0.6838
  306MOL0     H41291   0.295   1.167   1.280 -0.6431 -0.3333 -0.0376
  306MOL0     H41292   1.339   1.378   1.329  0.1328  1.5109 -1.6080
  306MOL0     H41293   1.577   1.394   1.375  0.5585 -1.0404  1.6642
  306MOL0     H41294   1.999   1.493   1.097 -0.1247  0.8590  1.0779
  306MOL0     H41295   2.225   1.492   1.062  2.8729 -2.1089 -0.6993
  306MOL0     H41296   3.917   1.489   0.265 -1.7492  1.3337 -1.4350
  306MOL0     H41297   4.136   1.529   0.171  0.5901 -1.9744  0.3310
  306MOL0     H41298   4.599   1.565   0.050  0.5984 -0.5718 -0.5904
  306MOL0     H41299   4.779   1.565  -0.097 -0.5951 -1.7386  2.1976
  306MOL0     H41300   4.795   1.310  -0.485 -2.4461  0.6476  0.6880
  306MOL0     H41301   4.717   1.465  -0.515 -0.5209 -1.9297 -1.7136
  306MOL0     H41302   4.991   1.534  -0.476  1.4852 -0.0221 -1.0619
  306MOL0     H41303   4.938   1.476  -0.637  0.0149 -0.6227  0.6614
  306MOL0     H41304   5.013   1.255  -0.589  2.2641 -1.8959 -0.2413
  306MOL0     H41305   4.999   1.276  -0.411 -1.9778  0.4714 -0.7237
  306MOL0     H41306   5.236   1.275  -0.468 -0.8159 -0.6391  1.2228
  306MOL0     H41307   5.190   1.432  -0.402  1.0775  3.5483 -4.0658
  306MOL0     H41308   5.312   1.503  -0.811  0.7601  0.4682  0.0590
  306MOL0     H41309   4.571   1.343  -0.403 -1.2318 -1.4098  1.0305
  306MOL0     H41310   4.380   1.351  -0.267 -0.0210 -1.6700  0.0564
  307MOL0     O41311   9.616   5.432   5.071 -0.0066 -0.0101  0.0761
  307MOL0     C41312   9.525   5.438   5.150  0.0915 -0.7576  0.1917
  307MOL0     O41313   9.407   5.379   5.134  0.3468 -0.0373  0.0996
  307MOL0     C41314   9.361   5.303   5.021 -0.1582  0.5543 -0.4923
  307MOL0     C41315   9.224   5.313   4.996 -0.3156 -0.1534 -0.1984
  307MOL0     C41316   9.162   5.245   4.890  0.3672  0.4229  0.4255
  307MOL0     C41317   9.239   5.163   4.805  0.2849  0.0468 -0.8109
  307MOL0     O41318   9.177   5.069   4.726  0.4782 -0.5214 -0.2549
  307MOL0     C41319   9.212   5.096   4.588 -0.2755  0.3246  0.0994
  307MOL0     C41320   9.132   5.002   4.501  0.2948  0.1538 -0.8017
  307MOL0     C41321   8.990   5.057   4.484  0.2439 -0.0117  0.0048
  307MOL0     C41322   8.888   4.960   4.430 -1.0069 -0.3514 -0.2733
  307MOL0     C41323   8.774   5.024   4.358  0.1316 -0.1228 -0.7267
  307MOL0     C41324   8.795   5.065   4.217  0.0953  0.0692  0.7242
  307MOL0     C41325   8.827   4.952   4.112 -0.2247 -0.3267 -0.1511
  307MOL0     C41326   8.727   4.836   4.092  0.5176 -0.9956 -0.7974
  307MOL0     N41327   8.756   4.751   3.978  0.2371 -0.0875 -0.4148
  307MOL0     C41328   8.765   4.795   3.846  0.1194  0.0596  0.6140
  307MOL0     C41329   8.829   4.692   3.784 -0.1856 -0.3425 -0.3471
  307MOL0     C41330   8.890   4.685   3.648 -1.0183  0.2436 -0.4543
  307MOL0     C41331   8.848   4.556   3.577 -0.3335 -1.2563  0.1389
  307MOL0     C41332   8.735   4.563   3.466 -0.6223 -0.0573  0.0076
  307MOL0     C41333   8.608   4.625   3.504 -0.3991 -0.4186  0.7542
  307MOL0     O41334   8.530   4.539   3.593 -0.6526 -0.2355  0.0504
  307MOL0     C41335   8.413   4.601   3.638 -0.3926 -0.3436 -0.3535
  307MOL0     C41336   8.424   4.683   3.751  0.4635  0.0377 -0.2010
  307MOL0     C41337   8.315   4.750   3.806 -0.4878 -0.2824 -0.3329
  307MOL0     C41338   8.351   4.839   3.921 -0.7489  0.2518  0.1023
  307MOL0     C41339   8.190   4.730   3.752 -0.8191  1.0299  0.2933
  307MOL0     C41340   8.064   4.795   3.794 -0.0718 -0.1485 -0.5801
  307MOL0     O41341   7.953   4.780   3.716 -0.0595 -0.2385  0.0932
  307MOL0     C41342   7.842   4.857   3.726  0.0902  0.2491  0.4162
  307MOL0     C41343   7.804   4.968   3.649  0.3552 -0.5550 -0.0405
  307MOL0     C41344   7.682   5.028   3.660 -0.0989 -0.6690 -0.1133
  307MOL0     C41345   7.582   4.983   3.748  0.2087  1.0280  0.4330
  307MOL0     O41346   7.453   5.035   3.744  0.3324 -0.1446  0.1211
  307MOL0     C41347   7.377   5.029   3.866  1.0213 -0.1636 -0.0660
  307MOL0     C41348   7.243   5.115   3.847 -0.3569 -0.0408 -0.2669
  307MOL0     C41349   7.148   5.047   3.757 -0.3857 -0.5177 -0.2224
  307MOL0     C41350   7.020   5.123   3.760  0.2353 -0.1881  0.0164
  307MOL0     C41351   6.917   5.036   3.691 -0.5389 -0.4073 -0.4405
  307MOL0     C41352   6.794   5.120   3.682  0.0563 -0.8033  0.1600
  307MOL0     C41353   6.675   5.036   3.638 -0.7042  0.2713  0.2160
  307MOL0     C41354   6.550   5.130   3.622  0.0966  0.3935 -0.2265
  307MOL0    Cl41355   6.405   5.043   3.584 -0.5261 -0.2314  0.2627
  307MOL0     C41356   7.619   4.875   3.833  0.2664  0.3560 -0.0832
  307MOL0     C41357   7.745   4.816   3.828 -0.6115  0.2819 -0.3005
  307MOL0     O41358   8.063   4.865   3.894  0.2888  0.6100 -0.5155
  307MOL0     C41359   8.175   4.641   3.644  0.3520 -0.9568  0.7657
  307MOL0     C41360   8.290   4.582   3.577 -0.5854 -0.2061  0.5696
  307MOL0     N41361   8.852   4.593   3.877  0.3394  0.0110  0.5555
  307MOL0     N41362   8.811   4.630   3.993  0.0268 -0.5390 -0.4512
  307MOL0     C41363   9.383   5.175   4.814 -0.0327  0.7105  0.4896
  307MOL0     C41364   9.443   5.242   4.922  0.4986 -0.2884 -0.0262
  307MOL0     C41365   9.538   5.529   5.262 -0.3544  0.1763 -0.3832
  307MOL0     C41366   9.444   5.567   5.359 -0.6567  0.2808 -0.1874
  307MOL0     C41367   9.474   5.661   5.463 -0.0580  0.6377  0.0872
  307MOL0     C41368   9.604   5.711   5.475 -0.5898  0.6400  0.7430
  307MOL0     O41369   9.619   5.790   5.588  0.4950 -0.6007  0.6465
  307MOL0     C41370   9.753   5.840   5.613  0.3994 -0.2461  0.8072
  307MOL0     C41371   9.783   5.973   5.549  0.0641  0.3963  0.2071
  307MOL0     C41372   9.667   6.072   5.555  0.9016  0.3854 -1.0462
  307MOL0     C41373   9.707   6.196   5.486  0.3011 -0.3759 -0.0073
  307MOL0     C41374   9.650   6.319   5.549  0.2730  1.4750 -0.6435
  307MOL0     C41375   9.597   6.416   5.606  0.3722 -0.6950  0.4660
  307MOL0     C41376   9.700   5.670   5.384 -0.1641 -0.9878 -0.1547
  307MOL0     C41377   9.663   5.591   5.276  0.3180 -0.2877 -0.2536
  307MOL0     H41378   9.159   5.377   5.055  0.7306  0.4992  0.2788
  307MOL0     H41379   9.054   5.245   4.884  0.4451  0.4735 -1.9739
  307MOL0     H41380   9.193   5.201   4.561 -1.4800 -0.1498 -1.0112
  307MOL0     H41381   9.319   5.078   4.576 -0.8010 -1.0850 -4.5068
  307MOL0     H41382   9.184   4.998   4.404  0.3640 -0.5869 -0.7364
  307MOL0     H41383   9.124   4.906   4.551 -2.8320  1.9006  2.5135
  307MOL0     H41384   8.953   5.104   4.575 -0.3170  1.3329 -0.8931
  307MOL0     H41385   8.991   5.137   4.410 -0.3518 -0.7536 -0.8348
  307MOL0     H41386   8.949   4.896   4.365  5.1368  0.9694  3.3475
  307MOL0     H41387   8.867   4.909   4.524  1.1142  0.8998  0.9602
  307MOL0     H41388   8.695   4.950   4.341 -0.2981 -0.0055  0.6341
  307MOL0     H41389   8.737   5.103   4.423  3.3681 -0.0237  1.2271
  307MOL0     H41390   8.706   5.118   4.183  0.7790  1.5026  1.0941
  307MOL0     H41391   8.878   5.136   4.207 -1.5330  1.8061 -1.2199
  307MOL0     H41392   8.852   5.011   4.024  1.3763  1.4618  1.4065
  307MOL0     H41393   8.924   4.905   4.130  1.6826  2.6952 -1.7757
  307MOL0     H41394   8.626   4.877   4.083 -0.1077 -2.1193  0.6173
  307MOL0     H41395   8.732   4.772   4.180  2.8263  0.1650 -0.0139
  307MOL0     H41396   8.744   4.892   3.801  1.4706 -0.4116 -1.1136
  307MOL0     H41397   8.882   4.772   3.582  2.8495  1.1801  0.0635
  307MOL0     H41398   8.997   4.669   3.665 -1.0795  0.0714 -0.2364
  307MOL0     H41399   8.819   4.476   3.646 -1.8284  0.0456  1.0930
  307MOL0     H41400   8.943   4.516   3.542  0.4593  0.4128  0.3053
  307MOL0     H41401   8.699   4.465   3.432  0.8211 -0.4209 -0.5417
  307MOL0     H41402   8.771   4.602   3.371  1.4861 -1.1890  0.2830
  307MOL0     H41403   8.550   4.634   3.412  0.2354  0.0038  0.3910
  307MOL0     H41404   8.606   4.729   3.539  2.5197 -0.3525  0.9671
  307MOL0     H41405   8.518   4.690   3.803  1.4364  1.0489 -2.0075
  307MOL0     H41406   8.458   4.859   3.927 -0.7694  1.9362 -3.1161
  307MOL0     H41407   8.302   4.937   3.923  1.3000  1.3415  2.0450
  307MOL0     H41408   8.328   4.798   4.020 -0.4031  4.9965  2.4252
  307MOL0     H41409   7.875   5.017   3.583  0.7504 -0.5989  0.3469
  307MOL0     H41410   7.661   5.119   3.604 -3.0242 -0.8502  0.5330
  307MOL0     H41411   7.333   4.934   3.898 -0.1461  0.2588 -0.3622
  307MOL0     H41412   7.439   5.070   3.946  0.2569  2.7274 -0.8212
  307MOL0     H41413   7.207   5.141   3.946  0.4135  2.7355 -0.6302
  307MOL0     H41414   7.285   5.208   3.806  0.1641 -0.5135 -0.8351
  307MOL0     H41415   7.122   4.945   3.785 -0.0272 -1.0924 -1.8995
  307MOL0     H41416   7.188   5.050   3.655  0.5195  3.2671  0.0892
  307MOL0     H41417   6.987   5.138   3.863 -2.4103  2.6808 -1.0746
  307MOL0     H41418   7.017   5.222   3.711 -4.2189 -0.1311  0.0237
  307MOL0     H41419   6.894   4.953   3.758  1.6243 -0.8271 -0.1586
  307MOL0     H41420   6.955   5.007   3.593 -1.1597  0.1832 -0.8660
  307MOL0     H41421   6.783   5.166   3.780  1.0396 -2.8833  1.3350
  307MOL0     H41422   6.800   5.202   3.610  1.0360 -0.2860  0.8140
  307MOL0     H41423   6.657   4.960   3.715  0.0416 -1.0692 -0.8806
  307MOL0     H41424   6.700   4.986   3.544  0.8802  1.2804  0.0492
  307MOL0     H41425   6.560   5.196   3.535 -1.9476  0.0223 -0.7843
  307MOL0     H41426   6.534   5.182   3.717  2.1851  2.4048 -0.8673
  307MOL0     H41427   7.543   4.846   3.905  0.9510 -2.9223 -0.5187
  307MOL0     H41428   7.781   4.745   3.902 -0.5708  1.0147  0.3938
  307MOL0     H41429   8.081   4.622   3.594  1.3241  0.3862 -1.7192
  307MOL0     H41430   8.276   4.505   3.503 -0.4451  1.2039 -0.9724
  307MOL0     H41431   9.442   5.126   4.737 -1.3036  1.6237 -1.1083
  307MOL0     H41432   9.550   5.229   4.935  0.3396 -2.0833 -0.2471
  307MOL0     H41433   9.340   5.536   5.368 -1.5609  3.1198  0.2475
  307MOL0     H41434   9.404   5.686   5.542 -0.2310 -1.4342  0.6624
  307MOL0     H41435   9.772   5.839   5.721  1.0062 -0.1439  0.7024
  307MOL0     H41436   9.829   5.769   5.581 -1.9825 -2.5118 -0.1690
  307MOL0     H41437   9.799   5.940   5.446 -2.3767  0.1203 -0.1502
  307MOL0     H41438   9.871   6.009   5.603 -0.4789  0.7402  0.8849
  307MOL0     H41439   9.638   6.088   5.659  1.9042  0.9722 -0.8420
  307MOL0     H41440   9.573   6.039   5.511 -1.0765 -0.0100  3.0248
  307MOL0     H41441   9.675   6.191   5.382  2.3396  0.6785 -0.7468
  307MOL0     H41442   9.815   6.213   5.495 -0.1617  4.0511 -0.5153
  307MOL0     H41443   9.539   6.498   5.643 -0.6423 -0.0945 -2.2298
  307MOL0     H41444   9.801   5.708   5.393 -0.5685  0.0449  0.1924
  307MOL0     H41445   9.747   5.566   5.213  1.2707  0.7226  0.5559
  308MOL0     O41446   0.396   1.181   7.675  0.2420 -0.4550  0.0432
  308MOL0     C41447   0.387   1.064   7.704  0.2276  0.9031  0.1498
  308MOL0     O41448   0.277   0.989   7.701 -0.2846 -0.7191  0.0429
  308MOL0     C41449   0.168   1.037   7.639 -0.5548 -0.1885 -0.1127
  308MOL0     C41450   0.158   1.033   7.495  0.2694 -0.3873  0.8756
  308MOL0     C41451   0.050   1.086   7.424  0.2161 -0.2147 -0.1277
  308MOL0     C41452  -0.050   1.150   7.498  0.8869  0.0902  0.2856
  308MOL0     O41453  -0.152   1.207   7.423 -0.0334  0.1770 -0.5397
  308MOL0     C41454  -0.237   1.309   7.488  0.7082  0.2412 -0.1696
  308MOL0     C41455  -0.338   1.379   7.398 -0.2969  0.8421 -0.1000
  308MOL0     C41456  -0.445   1.290   7.331 -0.1378 -0.5839 -0.1100
  308MOL0     C41457  -0.532   1.375   7.227 -0.5917  1.0497  0.0631
  308MOL0     C41458  -0.678   1.325   7.213 -0.2913  0.9121  0.2105
  308MOL0     C41459  -0.760   1.356   7.341 -0.4574  0.1212  0.4244
  308MOL0     C41460  -0.901   1.309   7.337  0.5356 -0.2145  1.5242
  308MOL0     C41461  -0.913   1.160   7.323  0.1286 -0.8855 -0.2028
  308MOL0     N41462  -1.054   1.129   7.337  0.3084 -0.1976  0.0049
  308MOL0     C41463  -1.120   1.089   7.454  0.0967  0.5890  0.1615
  308MOL0     C41464  -1.240   1.051   7.406  0.1759  0.0726  0.2911
  308MOL0     C41465  -1.328   0.966   7.497 -0.2804  0.2654 -0.0527
  308MOL0     C41466  -1.476   1.003   7.511  0.3831 -0.2995 -0.0721
  308MOL0     C41467  -1.565   0.973   7.389 -0.0169  0.0186  0.3353
  308MOL0     C41468  -1.587   0.820   7.376 -0.1345  0.3174  0.0830
  308MOL0     O41469  -1.716   0.806   7.311 -0.1326 -0.0005 -0.6458
  308MOL0     C41470  -1.829   0.831   7.385  0.8049  0.2522 -0.2314
  308MOL0     C41471  -1.830   0.845   7.530  0.1476  0.2595  0.5766
  308MOL0     C41472  -1.954   0.859   7.598  0.4530  0.1578 -0.0610
  308MOL0     C41473  -1.950   0.881   7.743 -0.5324 -0.1777  0.1841
  308MOL0     C41474  -2.082   0.851   7.526 -0.8611 -0.0608  0.5176
  308MOL0     C41475  -2.217   0.847   7.573  0.3746 -0.3616 -0.2098
  308MOL0     O41476  -2.317   0.840   7.485 -0.4726  0.1302 -0.0990
  308MOL0     C41477  -2.443   0.867   7.534  0.9375  0.2731  0.1356
  308MOL0     C41478  -2.518   0.799   7.629  0.8757  0.0541  0.5403
  308MOL0     C41479  -2.648   0.833   7.651 -0.4248 -0.0401 -1.4378
  308MOL0     C41480  -2.701   0.953   7.609  0.5146  0.1704  0.5534
  308MOL0     O41481  -2.832   0.967   7.648 -0.2581  0.2389 -0.0095
  308MOL0     C41482  -2.865   1.081   7.727  0.8776 -0.3966  0.5498
  308MOL0     C41483  -3.014   1.076   7.770  0.4378 -0.0718  0.5427
  308MOL0     C41484  -3.103   1.119   7.645  0.0238 -0.0276 -0.3909
  308MOL0     C41485  -3.251   1.088   7.670 -0.1874  0.4258 -0.7361
  308MOL0     C41486  -3.347   1.116   7.554  0.4804  0.0732 -0.7016
  308MOL0     C41487  -3.362   1.265   7.505 -0.1686  0.9346  0.2708
  308MOL0     C41488  -3.462   1.288   7.397  0.1820 -0.4170  0.1341
  308MOL0     C41489  -3.592   1.342   7.441 -0.3947 -1.0192  0.3443
  308MOL0    Cl41490  -3.701   1.245   7.544  0.0036  0.3057  0.3678
  308MOL0     C41491  -2.629   1.029   7.515 -1.1456 -1.0985 -1.4098
  308MOL0     C41492  -2.504   0.980   7.476 -0.3654  0.0304 -0.0734
  308MOL0     O41493  -2.236   0.856   7.694  0.4573 -0.2576  0.1550
  308MOL0     C41494  -2.073   0.850   7.381 -0.8167  0.5994  0.0715
  308MOL0     C41495  -1.950   0.839   7.320  0.4977  0.0449 -0.1507
  308MOL0     N41496  -1.250   1.077   7.266  0.3237 -0.1685 -0.5239
  308MOL0     N41497  -1.136   1.119   7.227 -0.4220  0.1293  0.6060
  308MOL0     C41498  -0.050   1.144   7.641  0.6889 -0.2750  0.1589
  308MOL0     C41499   0.054   1.082   7.711 -1.0146  0.1628 -1.1294
  308MOL0     C41500   0.506   0.987   7.749  0.7168 -0.5368  0.3910
  308MOL0     C41501   0.508   0.847   7.765 -0.7542 -0.1087 -0.3052
  308MOL0     C41502   0.630   0.774   7.803  0.3269 -0.2795 -1.1963
  308MOL0     C41503   0.745   0.848   7.806  0.1241  0.3051  0.0833
  308MOL0     O41504   0.859   0.770   7.813 -0.3437  0.2752 -0.2096
  308MOL0     C41505   0.986   0.841   7.805 -0.3841  0.2285 -0.0577
  308MOL0     C41506   1.018   0.862   7.961 -1.0161 -0.3627  0.6033
  308MOL0     C41507   1.166   0.883   7.974 -1.0519  0.3335 -1.0360
  308MOL0     C41508   1.209   0.862   8.117  0.2922  0.5772 -0.3003
  308MOL0     C41509   1.192   0.715   8.147  0.5855 -0.2539  0.6066
  308MOL0     C41510   1.193   0.594   8.154  0.0390 -1.0283 -0.0947
  308MOL0     C41511   0.744   0.990   7.794 -0.0401 -0.3448  0.2730
  308MOL0     C41512   0.629   1.057   7.753  0.3470  0.2799 -0.2166
  308MOL0     H41513   0.247   1.002   7.440 -0.3658 -2.5733  0.9672
  308MOL0     H41514   0.051   1.090   7.316  1.2061  2.4909 -0.0999
  308MOL0     H41515  -0.292   1.254   7.564  0.8960  0.8260  0.4051
  308MOL0     H41516  -0.185   1.390   7.541 -0.8205  0.4546  1.0740
  308MOL0     H41517  -0.394   1.462   7.442 -1.8890  1.6347 -3.2606
  308MOL0     H41518  -0.287   1.436   7.319 -1.4974  1.5838 -0.3654
  308MOL0     H41519  -0.401   1.210   7.271 -1.8278 -1.3424 -0.3743
  308MOL0     H41520  -0.505   1.233   7.403  0.8177 -0.0414  1.1662
  308MOL0     H41521  -0.526   1.478   7.263  0.1826  0.8291  0.5838
  308MOL0     H41522  -0.490   1.378   7.126 -2.7561 -0.3729 -0.9585
  308MOL0     H41523  -0.721   1.371   7.124  1.6203 -0.3202 -1.4276
  308MOL0     H41524  -0.678   1.217   7.195  2.6988  0.5985  1.4483
  308MOL0     H41525  -0.722   1.306   7.431 -2.7032 -1.9787  0.2896
  308MOL0     H41526  -0.748   1.465   7.349 -1.6855  0.1767  1.9485
  308MOL0     H41527  -0.950   1.334   7.431  0.8646 -0.1753  1.6871
  308MOL0     H41528  -0.947   1.362   7.254  1.3733 -2.1843 -0.3137
  308MOL0     H41529  -0.860   1.105   7.401 -1.1064  0.4541  1.6769
  308MOL0     H41530  -0.872   1.131   7.226  1.4889 -0.4121  0.2114
  308MOL0     H41531  -1.063   1.083   7.547  0.6658  0.2713 -0.2012
  308MOL0     H41532  -1.317   0.864   7.458  0.8177 -0.2835  1.6133
  308MOL0     H41533  -1.291   0.959   7.599 -3.7277  0.3863  1.3269
  308MOL0     H41534  -1.474   1.111   7.531  0.4900 -0.1459 -0.8928
  308MOL0     H41535  -1.516   0.947   7.596  3.0638 -1.5558  0.4852
  308MOL0     H41536  -1.513   1.004   7.298  1.5493 -1.2511  0.7499
  308MOL0     H41537  -1.662   1.023   7.399  0.2994  1.1435 -1.8029
  308MOL0     H41538  -1.575   0.782   7.477  2.2159  1.6917  0.3887
  308MOL0     H41539  -1.522   0.767   7.305 -0.7004  0.3802 -0.4872
  308MOL0     H41540  -1.745   0.836   7.596 -0.0624 -2.0534  0.6353
  308MOL0     H41541  -2.029   0.950   7.772 -3.0336 -1.3396 -3.2368
  308MOL0     H41542  -1.965   0.781   7.784  0.3954  0.4249  2.1235
  308MOL0     H41543  -1.856   0.926   7.776 -0.8846  0.1909  0.6927
  308MOL0     H41544  -2.482   0.717   7.691 -1.4371  1.0239  3.4104
  308MOL0     H41545  -2.709   0.775   7.719 -0.8671  2.2009  0.1962
  308MOL0     H41546  -2.797   1.084   7.813  0.6610 -1.3996  0.7618
  308MOL0     H41547  -2.856   1.168   7.662 -1.3012 -1.2247 -0.9749
  308MOL0     H41548  -3.034   0.970   7.788  0.5952 -0.3741 -0.9259
  308MOL0     H41549  -3.033   1.132   7.862 -0.4737  1.6399 -0.6233
  308MOL0     H41550  -3.079   1.063   7.555  0.8150  2.7041 -1.9763
  308MOL0     H41551  -3.082   1.226   7.632  1.5649  0.2258  3.0153
  308MOL0     H41552  -3.256   0.980   7.686 -0.1244  0.3943 -0.9284
  308MOL0     H41553  -3.264   1.135   7.767  0.8327 -2.2882  0.8305
  308MOL0     H41554  -3.447   1.071   7.564  0.9204 -1.0448 -1.1989
  308MOL0     H41555  -3.312   1.056   7.470  0.1269  0.0723 -0.8507
  308MOL0     H41556  -3.389   1.336   7.583 -2.3639 -0.1986  0.6111
  308MOL0     H41557  -3.260   1.284   7.470  0.9003 -2.5108  1.1421
  308MOL0     H41558  -3.482   1.202   7.332 -1.9852 -0.9420  1.3920
  308MOL0     H41559  -3.415   1.360   7.329  0.6341 -1.9107 -1.1835
  308MOL0     H41560  -3.647   1.370   7.351  0.2897  1.1384  0.5348
  308MOL0     H41561  -3.569   1.433   7.498 -0.8132 -2.4736  3.0161
  308MOL0     H41562  -2.667   1.123   7.476  0.0453 -0.9244 -2.1780
  308MOL0     H41563  -2.448   1.032   7.399 -0.6586  0.2231 -0.1589
  308MOL0     H41564  -2.156   0.854   7.311  0.8954  1.3826 -2.0241
  308MOL0     H41565  -1.953   0.831   7.212  0.3368 -0.7655 -0.0902
  308MOL0     H41566  -0.135   1.193   7.689 -0.0961  1.9051 -3.1120
  308MOL0     H41567   0.053   1.084   7.819 -0.9723 -1.2542 -1.0894
  308MOL0     H41568   0.415   0.792   7.756 -1.8769  1.0117  3.0365
  308MOL0     H41569   0.627   0.668   7.824 -1.6778  0.2820  2.0718
  308MOL0     H41570   1.063   0.774   7.767  1.0994  1.2382  1.0434
  308MOL0     H41571   0.979   0.930   7.743  1.5549 -0.5183 -1.4475
  308MOL0     H41572   0.992   0.765   8.006  0.7522 -1.3046 -0.2752
  308MOL0     H41573   0.969   0.950   8.002  1.7267  3.3802 -3.2689
  308MOL0     H41574   1.203   0.977   7.931 -0.7641  0.0497 -1.4107
  308MOL0     H41575   1.220   0.814   7.909 -1.3873  1.4954 -2.6200
  308MOL0     H41576   1.146   0.933   8.173 -0.5460 -0.1534 -0.2860
  308MOL0     H41577   1.313   0.885   8.141  0.2953 -0.0387  0.3173
  308MOL0     H41578   1.188   0.487   8.161 -0.2321 -0.8829  4.0235
  308MOL0     H41579   0.833   1.049   7.812 -1.4215  1.4935  1.4745
  308MOL0     H41580   0.630   1.162   7.729 -1.0444  0.3191 -0.2154
  309MOL0     O41581   0.850   0.834   1.651 -0.4483 -0.6032  0.4970
  309MOL0     C41582   0.844   0.740   1.574 -0.3711 -0.2874 -0.0505
  309MOL0     O41583   0.735   0.674   1.539 -0.2150  0.5769  0.6202
  309MOL0     C41584   0.601   0.702   1.560 -0.9468  0.3681 -0.2657
  309MOL0     C41585   0.519   0.645   1.462  0.5214  0.5067  0.4212
  309MOL0     C41586   0.379   0.667   1.457  0.1060  0.1772 -0.2678
  309MOL0     C41587   0.328   0.746   1.563 -0.1414 -0.7020  0.7874
  309MOL0     O41588   0.198   0.793   1.564  0.2225 -0.2948  0.2060
  309MOL0     C41589   0.096   0.709   1.513  0.7203 -0.4415 -0.1810
  309MOL0     C41590  -0.041   0.749   1.573 -0.1741  0.3898 -0.6348
  309MOL0     C41591  -0.072   0.899   1.576 -0.0300 -0.6699  0.2855
  309MOL0     C41592  -0.219   0.913   1.612 -0.8771  0.3550  0.0799
  309MOL0     C41593  -0.259   1.055   1.593 -0.3155 -0.9480  0.3249
  309MOL0     C41594  -0.412   1.081   1.622 -0.0980  0.2636  0.4410
  309MOL0     C41595  -0.467   1.222   1.589  0.3868 -0.2791  0.4460
  309MOL0     C41596  -0.424   1.324   1.689 -0.6450  1.1285  0.8828
  309MOL0     N41597  -0.497   1.458   1.667 -0.7633  0.4631 -0.0327
  309MOL0     C41598  -0.510   1.529   1.546  0.4314  1.0104 -0.7443
  309MOL0     C41599  -0.573   1.651   1.583  0.6298 -0.1442  0.1860
  309MOL0     C41600  -0.612   1.765   1.489  0.0771 -0.5070 -0.9439
  309MOL0     C41601  -0.755   1.718   1.435 -0.6151  0.0835 -0.1671
  309MOL0     C41602  -0.866   1.690   1.537  0.2977 -0.2717  0.2140
  309MOL0     C41603  -0.906   1.813   1.608  0.5299 -0.5957  0.2141
  309MOL0     O41604  -1.044   1.790   1.658 -0.6494 -0.7161 -0.2566
  309MOL0     C41605  -1.151   1.852   1.594  0.5133 -0.0809 -0.0126
  309MOL0     C41606  -1.145   1.950   1.491 -0.3703 -0.1861  0.0409
  309MOL0     C41607  -1.255   2.009   1.426 -1.1330 -0.2598  0.3235
  309MOL0     C41608  -1.232   2.122   1.333  0.4177  0.6179  0.3130
  309MOL0     C41609  -1.383   1.968   1.463 -0.0799 -0.7398 -0.0646
  309MOL0     C41610  -1.508   2.024   1.403  0.5989  0.3034 -0.3242
  309MOL0     O41611  -1.615   2.002   1.491 -0.3404 -0.6678  0.0294
  309MOL0     C41612  -1.742   2.048   1.457 -0.4152  0.0553  0.2142
  309MOL0     C41613  -1.845   1.954   1.476  0.4293 -0.0442  1.0426
  309MOL0     C41614  -1.968   1.981   1.413  0.1509  1.1712  0.0177
  309MOL0     C41615  -1.998   2.100   1.358  0.4178 -0.5504  0.3800
  309MOL0     O41616  -2.113   2.134   1.295  0.3378 -0.4742 -0.2677
  309MOL0     C41617  -2.183   2.039   1.220  0.4172  0.1150 -0.3464
  309MOL0     C41618  -2.269   2.117   1.119 -0.4026  0.6571 -1.0693
  309MOL0     C41619  -2.373   2.031   1.039 -0.7294 -1.1393  0.7082
  309MOL0     C41620  -2.449   2.138   0.955 -0.6708  0.3884  0.2671
  309MOL0     C41621  -2.546   2.057   0.871 -0.2072  0.0762 -0.0173
  309MOL0     C41622  -2.620   2.152   0.765 -0.4297  0.8750  0.4471
  309MOL0     C41623  -2.723   2.064   0.707  0.0444  0.6005  0.7548
  309MOL0     C41624  -2.786   2.120   0.575  0.2818  0.0071  0.0226
  309MOL0    Cl41625  -2.972   2.087   0.582  0.0518  0.1667  0.0181
  309MOL0     C41626  -1.900   2.203   1.363  0.5554  0.4354 -0.0258
  309MOL0     C41627  -1.774   2.174   1.407  1.0507  0.2292  1.0269
  309MOL0     O41628  -1.521   2.059   1.282  0.7587 -0.5565 -0.8353
  309MOL0     C41629  -1.392   1.875   1.573  0.0862  0.5237 -0.3646
  309MOL0     C41630  -1.277   1.815   1.629  1.0814 -0.7991  0.4577
  309MOL0     N41631  -0.583   1.652   1.722 -0.3678  0.6241  0.3504
  309MOL0     N41632  -0.538   1.542   1.772  0.9117  0.1071 -0.0170
  309MOL0     C41633   0.407   0.790   1.668 -0.2232 -0.2563  0.3942
  309MOL0     C41634   0.545   0.762   1.676  0.4046  0.7884  0.3846
  309MOL0     C41635   0.977   0.703   1.514  0.4361  0.5798 -0.0155
  309MOL0     C41636   0.971   0.596   1.423 -0.6585 -0.7079 -0.3722
  309MOL0     C41637   1.091   0.564   1.355  0.8313 -0.3847  0.3994
  309MOL0     C41638   1.208   0.634   1.370 -0.5145 -0.0291 -0.4780
  309MOL0     O41639   1.327   0.597   1.299  0.5528  0.2032  0.3350
  309MOL0     C41640   1.427   0.695   1.286 -0.0996 -0.1842  0.2679
  309MOL0     C41641   1.528   0.674   1.171  0.5195 -0.6141  0.9034
  309MOL0     C41642   1.628   0.573   1.204  0.2203 -0.0888  0.2095
  309MOL0     C41643   1.598   0.431   1.161  0.3643  0.6051 -0.4513
  309MOL0     C41644   1.585   0.431   1.019 -0.0248 -1.0277 -0.2055
  309MOL0     C41645   1.571   0.453   0.898 -0.1283  0.2480 -0.2220
  309MOL0     C41646   1.209   0.744   1.459 -0.0134  0.3175 -0.6941
  309MOL0     C41647   1.090   0.780   1.535 -0.4647  0.6263  0.6551
  309MOL0     H41648   0.560   0.585   1.382 -3.5032 -0.7249 -0.9600
  309MOL0     H41649   0.319   0.621   1.380  0.1221 -1.0866  0.4462
  309MOL0     H41650   0.083   0.716   1.404  0.7126  0.0951 -0.1470
  309MOL0     H41651   0.103   0.607   1.553 -0.9443 -1.4659 -2.2382
  309MOL0     H41652  -0.120   0.694   1.521 -1.7853  1.1258  0.9425
  309MOL0     H41653  -0.051   0.717   1.677  0.1442 -0.4420 -0.8498
  309MOL0     H41654  -0.011   0.953   1.649  2.3918 -2.1966 -0.4680
  309MOL0     H41655  -0.054   0.944   1.478 -1.7346  3.0363  1.5254
  309MOL0     H41656  -0.284   0.855   1.545 -3.2247  1.5738  1.2056
  309MOL0     H41657  -0.231   0.876   1.714  2.1198 -0.8174  0.1287
  309MOL0     H41658  -0.194   1.109   1.662 -1.4986  1.8350 -0.5877
  309MOL0     H41659  -0.253   1.078   1.486  0.3198  0.8522  0.7298
  309MOL0     H41660  -0.474   1.017   1.559 -1.1316 -1.3288  2.9435
  309MOL0     H41661  -0.428   1.053   1.727  1.1119 -0.5041  0.4347
  309MOL0     H41662  -0.446   1.252   1.486 -2.0334 -1.4456 -0.4540
  309MOL0     H41663  -0.575   1.210   1.594  0.1736 -2.3039 -4.0990
  309MOL0     H41664  -0.315   1.334   1.675 -0.3624 -0.3745  1.8599
  309MOL0     H41665  -0.434   1.293   1.793 -0.6010 -1.3662  0.2026
  309MOL0     H41666  -0.484   1.508   1.443 -0.4012 -2.2131 -0.3955
  309MOL0     H41667  -0.615   1.851   1.556  0.1116 -1.5982  0.5101
  309MOL0     H41668  -0.546   1.781   1.402  1.5852  0.8798  0.3856
  309MOL0     H41669  -0.733   1.628   1.378  0.2624  0.0282  0.2360
  309MOL0     H41670  -0.791   1.793   1.365 -3.0275  0.3595  1.2472
  309MOL0     H41671  -0.841   1.616   1.613  1.4009  1.1745  1.3199
  309MOL0     H41672  -0.950   1.643   1.485 -0.2926 -1.3526  2.0567
  309MOL0     H41673  -0.900   1.905   1.548 -1.0860 -0.5465  0.0847
  309MOL0     H41674  -0.840   1.834   1.693  0.6340 -0.4492  0.0988
  309MOL0     H41675  -1.046   1.981   1.459 -0.0237 -0.7005  0.5821
  309MOL0     H41676  -1.260   2.221   1.369  0.3402  0.2521  1.2792
  309MOL0     H41677  -1.128   2.134   1.300  0.8693  1.4299  1.9364
  309MOL0     H41678  -1.292   2.111   1.242 -1.9401 -1.1225  1.9355
  309MOL0     H41679  -1.834   1.862   1.533 -0.9299 -0.6869  0.3062
  309MOL0     H41680  -2.051   1.913   1.429  0.9100 -0.3658 -2.1427
  309MOL0     H41681  -2.109   1.969   1.179  3.4605  2.9888 -0.1464
  309MOL0     H41682  -2.248   1.978   1.284  1.2659 -2.1097 -1.4646
  309MOL0     H41683  -2.317   2.198   1.174  1.3841 -0.6574  2.7608
  309MOL0     H41684  -2.200   2.166   1.049  0.7609 -0.0027 -0.4268
  309MOL0     H41685  -2.448   1.984   1.103 -0.4365 -2.6446 -0.0131
  309MOL0     H41686  -2.333   1.943   0.987  0.2553 -1.9582  2.7663
  309MOL0     H41687  -2.496   2.213   1.020  4.0162  1.9816  2.2444
  309MOL0     H41688  -2.382   2.196   0.891 -0.7227  0.1270 -0.0312
  309MOL0     H41689  -2.615   2.026   0.950  2.6817 -1.5078  2.0426
  309MOL0     H41690  -2.487   1.973   0.835  3.4316  0.6172  3.8807
  309MOL0     H41691  -2.680   2.235   0.803 -0.5386  1.1446 -0.2968
  309MOL0     H41692  -2.546   2.188   0.693  0.9421 -2.4551  0.0059
  309MOL0     H41693  -2.806   2.059   0.778  1.0701 -1.6299  1.8769
  309MOL0     H41694  -2.684   1.967   0.677  0.7589  0.5742  1.7249
  309MOL0     H41695  -2.727   2.081   0.492  0.6798 -1.6490  1.0432
  309MOL0     H41696  -2.777   2.229   0.578  1.2332 -0.0419 -0.6111
  309MOL0     H41697  -1.933   2.300   1.327 -2.9583  0.2889  2.3135
  309MOL0     H41698  -1.697   2.250   1.402  1.5405 -0.1738  2.0583
  309MOL0     H41699  -1.487   1.834   1.608  1.3917 -3.0370 -0.5627
  309MOL0     H41700  -1.299   1.744   1.709 -1.7076  0.1638  0.6432
  309MOL0     H41701   0.367   0.845   1.753  3.0585  0.5479  1.5623
  309MOL0     H41702   0.614   0.792   1.754  1.4158 -0.0220 -0.1754
  309MOL0     H41703   0.881   0.544   1.394 -0.0309 -1.4992 -0.9220
  309MOL0     H41704   1.077   0.479   1.290 -0.5424 -1.7215  2.3423
  309MOL0     H41705   1.385   0.794   1.267 -0.6917  0.4493  4.0141
  309MOL0     H41706   1.488   0.701   1.377  2.2433 -0.2256 -1.2103
  309MOL0     H41707   1.578   0.771   1.164 -0.6614 -0.0506 -0.4053
  309MOL0     H41708   1.465   0.658   1.082  0.3802  0.8715  0.7073
  309MOL0     H41709   1.644   0.569   1.313 -1.5754  1.3389  0.5711
  309MOL0     H41710   1.720   0.610   1.158 -0.9937  1.6990 -0.8662
  309MOL0     H41711   1.500   0.401   1.199  0.7598 -1.1776 -0.7413
  309MOL0     H41712   1.671   0.357   1.195 -1.1414 -0.6169  0.2102
  309MOL0     H41713   1.545   0.467   0.795 -1.4597  0.7999  0.1754
  309MOL0     H41714   1.299   0.799   1.482 -1.0164  0.9153  2.2985
  309MOL0     H41715   1.097   0.859   1.609  1.7978 -0.1716  1.3923
  310MOL0     O41716  10.515  10.977   6.732 -0.2207  0.6712 -0.9304
  310MOL0     C41717  10.556  10.875   6.788 -0.2948 -0.0568  0.4901
  310MOL0     O41718  10.476  10.768   6.841  0.4152  1.1071 -0.0998
  310MOL0     C41719  10.340  10.762   6.812  0.2948  0.1871  0.4331
  310MOL0     C41720  10.252  10.733   6.914  0.1054 -0.4655  0.3369
  310MOL0     C41721  10.119  10.718   6.896  0.9826  0.0768  0.6763
  310MOL0     C41722  10.061  10.729   6.767 -0.8340  0.6131 -0.6469
  310MOL0     O41723   9.924  10.716   6.769  0.2420 -0.2551  0.1286
  310MOL0     C41724   9.848  10.783   6.672 -0.3928 -0.4704  0.3773
  310MOL0     C41725   9.711  10.712   6.674 -0.5181  0.0275 -0.6859
  310MOL0     C41726   9.604  10.777   6.773  0.3571  1.3979  0.1790
  310MOL0     C41727   9.465  10.711   6.755 -0.3497 -0.3634 -0.0477
  310MOL0     C41728   9.378  10.782   6.855 -0.0361 -0.2747 -0.5918
  310MOL0     C41729   9.245  10.712   6.889 -0.0582  0.0261  0.2665
  310MOL0     C41730   9.151  10.811   6.964  0.0944 -0.1447  0.2058
  310MOL0     C41731   9.104  10.944   6.895 -0.6165 -0.2401  0.0519
  310MOL0     N41732   9.023  10.910   6.784  1.3983  0.9859  1.1550
  310MOL0     C41733   8.890  10.874   6.787  0.3885 -0.1379  0.2774
  310MOL0     C41734   8.860  10.843   6.661  0.1066 -0.2707  0.4045
  310MOL0     C41735   8.730  10.768   6.630 -0.1471 -0.6148  0.2755
  310MOL0     C41736   8.745  10.611   6.650 -0.0579 -0.0236 -0.4801
  310MOL0     C41737   8.626  10.530   6.613 -0.0233  0.3508  0.4360
  310MOL0     C41738   8.635  10.498   6.467 -0.3874 -0.1146  0.7215
  310MOL0     O41739   8.582  10.368   6.435 -0.3974  0.0533 -0.6050
  310MOL0     C41740   8.449  10.355   6.407  0.8946 -0.3703 -0.1636
  310MOL0     C41741   8.341  10.443   6.433 -0.0165  0.0975  0.0128
  310MOL0     C41742   8.204  10.416   6.407  0.3080 -0.5046  0.5501
  310MOL0     C41743   8.109  10.519   6.451 -0.3958 -0.4715 -0.6665
  310MOL0     C41744   8.171  10.295   6.343  0.2927  0.2078  0.2464
  310MOL0     C41745   8.035  10.249   6.304  0.1119  0.3580  0.6024
  310MOL0     O41746   8.013  10.111   6.280  0.4166 -0.5547 -0.6409
  310MOL0     C41747   7.894  10.060   6.230 -0.2007  0.8232 -0.0626
  310MOL0     C41748   7.857   9.924   6.265  0.0394  0.0034  0.5931
  310MOL0     C41749   7.763   9.853   6.192 -0.6288  0.4293  0.6381
  310MOL0     C41750   7.671   9.925   6.115  0.2749 -0.4260  0.0399
  310MOL0     O41751   7.563   9.873   6.049  0.5602  0.6285 -0.6493
  310MOL0     C41752   7.499   9.761   6.121 -0.6503  0.2884  0.2398
  310MOL0     C41753   7.408   9.697   6.025 -1.0685 -0.5795  0.2431
  310MOL0     C41754   7.309   9.608   6.101  0.5519 -1.2644 -0.1559
  310MOL0     C41755   7.223   9.530   6.002  0.2149  0.3817 -0.0915
  310MOL0     C41756   7.290   9.408   5.944 -0.2852  0.1995 -0.2406
  310MOL0     C41757   7.225   9.334   5.818 -0.0466  0.4947 -0.6113
  310MOL0     C41758   7.133   9.217   5.857  0.5731 -0.0127 -0.7490
  310MOL0     C41759   7.100   9.119   5.751  0.2005  0.1533  0.0491
  310MOL0    Cl41760   7.059   9.201   5.586 -0.2293  0.2402 -0.3661
  310MOL0     C41761   7.699  10.062   6.089 -0.1773  0.4994  0.4438
  310MOL0     C41762   7.818  10.132   6.137 -0.1956 -0.3166 -0.1755
  310MOL0     O41763   7.947  10.335   6.296 -0.1765 -0.2545 -0.0291
  310MOL0     C41764   8.274  10.202   6.317  0.7427 -0.9318 -0.2772
  310MOL0     C41765   8.411  10.231   6.358  0.0761 -1.0379  0.7949
  310MOL0     N41766   8.974  10.858   6.585 -0.5357  0.2428  0.2004
  310MOL0     N41767   9.076  10.898   6.652 -0.1916  0.5637 -0.7702
  310MOL0     C41768  10.144  10.759   6.656 -0.0146  0.4397  0.6121
  310MOL0     C41769  10.287  10.771   6.679 -0.9776  0.3369 -0.3385
  310MOL0     C41770  10.708  10.861   6.792  0.4845  0.1984 -0.4745
  310MOL0     C41771  10.795  10.973   6.767  0.1523  0.3618  0.6755
  310MOL0     C41772  10.933  10.953   6.761  0.4729  0.2716  0.3660
  310MOL0     C41773  10.993  10.840   6.807  0.3249 -0.2731 -0.4744
  310MOL0     O41774  11.130  10.813   6.810  0.1845 -0.3897 -0.0795
  310MOL0     C41775  11.214  10.916   6.755  0.4647  0.1816 -0.0822
  310MOL0     C41776  11.361  10.873   6.742  0.1026  0.6955  0.2832
  310MOL0     C41777  11.372  10.728   6.692  0.0672 -0.3948  0.1199
  310MOL0     C41778  11.502  10.697   6.614 -0.2755  0.5142 -0.2624
  310MOL0     C41779  11.629  10.737   6.682 -0.2400  0.7594  0.8607
  310MOL0     C41780  11.734  10.749   6.745 -0.8831 -0.4250  0.9479
  310MOL0     C41781  10.906  10.741   6.849  0.2032 -0.4694 -0.6269
  310MOL0     C41782  10.771  10.742   6.838  0.4093  0.0887 -0.4357
  310MOL0     H41783  10.299  10.725   7.012  0.1347  2.9392  0.7407
  310MOL0     H41784  10.049  10.698   6.976  1.6851  1.2244  1.6090
  310MOL0     H41785   9.836  10.890   6.691  0.5375  0.0831 -1.8738
  310MOL0     H41786   9.889  10.773   6.572 -2.2376  0.6779 -0.5592
  310MOL0     H41787   9.667  10.728   6.576  0.8966 -2.6299 -1.8586
  310MOL0     H41788   9.721  10.605   6.692  3.1521  0.6064  1.6354
  310MOL0     H41789   9.636  10.766   6.877  2.8644  0.6555 -0.6001
  310MOL0     H41790   9.593  10.884   6.754  1.6647  1.3406 -0.9915
  310MOL0     H41791   9.425  10.745   6.659 -1.9921  3.2493  1.7292
  310MOL0     H41792   9.462  10.603   6.774  1.0786 -0.6826 -1.3971
  310MOL0     H41793   9.431  10.790   6.950  0.4999  0.6560 -0.9522
  310MOL0     H41794   9.356  10.886   6.830  0.4707  0.3129  1.2452
  310MOL0     H41795   9.183  10.679   6.805  0.6675  0.6806 -0.5435
  310MOL0     H41796   9.262  10.626   6.954  0.0779 -1.5944 -1.7873
  310MOL0     H41797   9.058  10.757   6.985 -0.3957  0.7902  0.5007
  310MOL0     H41798   9.202  10.832   7.058 -1.3683  1.0579  0.7803
  310MOL0     H41799   9.185  11.013   6.869 -0.8787  1.2797  2.8990
  310MOL0     H41800   9.040  11.003   6.961  1.3972  0.6799  1.2692
  310MOL0     H41801   8.830  10.867   6.877 -0.4117  1.6842 -0.0617
  310MOL0     H41802   8.647  10.807   6.690 -2.4201 -4.3768 -0.1031
  310MOL0     H41803   8.710  10.776   6.523  0.6052 -2.0278  0.0035
  310MOL0     H41804   8.756  10.598   6.758 -0.9556 -1.3965 -0.5327
  310MOL0     H41805   8.844  10.578   6.616  0.8977 -0.1271  2.1505
  310MOL0     H41806   8.531  10.579   6.636  0.1415 -0.0619  2.1480
  310MOL0     H41807   8.622  10.441   6.675  0.0216 -1.3991 -1.9393
  310MOL0     H41808   8.741  10.496   6.441 -0.3568 -0.7586  0.8683
  310MOL0     H41809   8.594  10.576   6.403 -0.1332  1.4051  2.3186
  310MOL0     H41810   8.365  10.543   6.469  1.0942  0.3609 -1.3917
  310MOL0     H41811   8.018  10.469   6.486  1.3379 -2.6341  1.0026
  310MOL0     H41812   8.156  10.577   6.531 -2.0614  0.5731 -0.3804
  310MOL0     H41813   8.090  10.591   6.371 -2.1394  1.0902  1.0286
  310MOL0     H41814   7.925   9.875   6.334  1.7970 -3.4096 -3.1898
  310MOL0     H41815   7.769   9.745   6.200 -1.1738  0.2773 -0.6265
  310MOL0     H41816   7.564   9.690   6.172 -3.3171 -1.3094  1.6702
  310MOL0     H41817   7.426   9.806   6.190 -1.8754  0.1363 -0.9283
  310MOL0     H41818   7.354   9.780   5.979 -0.0601  0.5775  1.0795
  310MOL0     H41819   7.468   9.634   5.959  1.3603  1.0414  0.7822
  310MOL0     H41820   7.244   9.671   6.162  3.6300  0.2399  1.8626
  310MOL0     H41821   7.354   9.537   6.172 -1.8012 -1.0214  1.6943
  310MOL0     H41822   7.136   9.496   6.058 -2.0666  4.1376 -1.0404
  310MOL0     H41823   7.182   9.591   5.921 -2.4409 -3.9027 -2.3404
  310MOL0     H41824   7.307   9.333   6.022 -3.0428  2.2808  2.5967
  310MOL0     H41825   7.395   9.430   5.920 -1.5076  4.0816 -3.0380
  310MOL0     H41826   7.171   9.397   5.746 -0.7868  0.1875 -0.3335
  310MOL0     H41827   7.303   9.285   5.759 -0.0617 -0.5677  0.2419
  310MOL0     H41828   7.037   9.258   5.889  0.1778 -1.2666 -0.3014
  310MOL0     H41829   7.172   9.151   5.935  1.6435  0.4911 -0.8356
  310MOL0     H41830   7.006   9.069   5.779 -0.2520  0.6978 -0.4618
  310MOL0     H41831   7.179   9.044   5.739 -0.4988 -0.5399 -0.3760
  310MOL0     H41832   7.633  10.116   6.021  2.1457  2.1791 -0.6323
  310MOL0     H41833   7.844  10.232   6.106  4.7884 -1.5447 -0.8832
  310MOL0     H41834   8.243  10.104   6.280 -0.4437 -1.6503  2.3830
  310MOL0     H41835   8.491  10.158   6.354  1.1699  0.0606  1.7744
  310MOL0     H41836  10.096  10.773   6.559 -2.9571 -2.3046  1.4969
  310MOL0     H41837  10.359  10.767   6.598 -1.4526 -2.6608 -0.7505
  310MOL0     H41838  10.760  11.072   6.738  1.8488  0.4679 -1.1901
  310MOL0     H41839  10.988  11.042   6.732 -1.8148  2.5238  2.4954
  310MOL0     H41840  11.177  10.938   6.654 -3.2498  3.2205  1.6697
  310MOL0     H41841  11.205  11.011   6.809  0.0882  1.6586 -2.5419
  310MOL0     H41842  11.406  10.875   6.841  0.8261 -3.2075  0.1557
  310MOL0     H41843  11.410  10.944   6.675 -1.3235  1.6277  0.1770
  310MOL0     H41844  11.281  10.702   6.638 -0.0164  1.2746 -0.5966
  310MOL0     H41845  11.372  10.658   6.777 -3.6703 -0.6685  0.0641
  310MOL0     H41846  11.501  10.757   6.522 -0.0615 -0.6860 -1.0770
  310MOL0     H41847  11.499  10.591   6.587  4.0160 -0.0453  0.7686
  310MOL0     H41848  11.827  10.762   6.798 -1.4692 -2.4436  2.6272
  310MOL0     H41849  10.950  10.649   6.885 -0.0242 -1.2786 -2.3307
  310MOL0     H41850  10.710  10.653   6.854  0.0581 -0.3819 -3.6716
  311MOL0     O41851   0.181   2.540  11.070  0.5956  0.3189 -0.0682
  311MOL0     C41852   0.221   2.488  11.173  0.2120  0.0564  0.8336
  311MOL0     O41853   0.138   2.469  11.284  0.1839 -0.6800  0.0230
  311MOL0     C41854   0.009   2.516  11.273  0.0953  0.1903  0.4661
  311MOL0     C41855  -0.086   2.458  11.192  0.2978  0.1224 -0.4669
  311MOL0     C41856  -0.218   2.498  11.186  0.4771 -0.5709 -0.1927
  311MOL0     C41857  -0.255   2.616  11.257  0.5297 -1.1426  0.1212
  311MOL0     O41858  -0.385   2.669  11.248  0.3700  0.3527  0.1696
  311MOL0     C41859  -0.462   2.627  11.365 -1.0378 -0.4272 -0.0772
  311MOL0     C41860  -0.606   2.685  11.371  0.1070  0.5160  0.1315
  311MOL0     C41861  -0.683   2.616  11.266  0.0911  0.8793  0.0826
  311MOL0     C41862  -0.828   2.662  11.271 -0.4334  1.0889  0.6240
  311MOL0     C41863  -0.913   2.569  11.172 -0.2127 -0.3198 -0.3920
  311MOL0     C41864  -1.058   2.621  11.165 -1.1076  0.7650 -0.3634
  311MOL0     C41865  -1.133   2.524  11.077 -0.4001 -0.1636 -0.2070
  311MOL0     C41866  -1.269   2.570  11.040  0.1581  0.3740  0.9359
  311MOL0     N41867  -1.328   2.475  10.945  0.0279 -0.2472 -0.3386
  311MOL0     C41868  -1.435   2.401  10.992 -0.5071 -0.7202  0.0078
  311MOL0     C41869  -1.481   2.340  10.887  0.2834 -0.4129  1.1730
  311MOL0     C41870  -1.613   2.268  10.879  0.2134  0.2223  0.0971
  311MOL0     C41871  -1.738   2.352  10.846 -0.0759  1.0088 -0.1783
  311MOL0     C41872  -1.856   2.264  10.797 -0.6535 -0.1355 -0.2808
  311MOL0     C41873  -1.992   2.334  10.817  0.8846 -0.5054  0.2977
  311MOL0     O41874  -2.087   2.262  10.739  0.3957  0.0725 -0.1393
  311MOL0     C41875  -2.220   2.294  10.726  1.1451  0.3456 -0.2261
  311MOL0     C41876  -2.276   2.407  10.785 -0.0056 -0.6339  0.0404
  311MOL0     C41877  -2.409   2.448  10.769 -0.2416 -0.3310 -0.8616
  311MOL0     C41878  -2.443   2.588  10.828 -0.7241  0.0636  0.2556
  311MOL0     C41879  -2.491   2.375  10.686 -0.1124  0.6955 -0.2572
  311MOL0     C41880  -2.632   2.401  10.659  0.9747  0.1985 -0.0713
  311MOL0     O41881  -2.692   2.315  10.571  0.4906 -0.5576  0.5029
  311MOL0     C41882  -2.831   2.315  10.552  0.3327  0.1000 -0.4802
  311MOL0     C41883  -2.908   2.431  10.515 -0.6552  0.8967  0.0236
  311MOL0     C41884  -3.045   2.415  10.501 -0.0390  0.4300  0.2263
  311MOL0     C41885  -3.104   2.292  10.520 -0.3823 -0.5095  0.4838
  311MOL0     O41886  -3.235   2.265  10.506  0.1273  0.5131  0.2459
  311MOL0     C41887  -3.336   2.361  10.473 -0.2190  0.0165  0.4420
  311MOL0     C41888  -3.474   2.300  10.480 -0.0773 -0.3622 -0.0224
  311MOL0     C41889  -3.583   2.390  10.413 -0.5764  0.7112  0.5369
  311MOL0     C41890  -3.612   2.519  10.493 -0.7776  0.0039 -0.2200
  311MOL0     C41891  -3.744   2.592  10.462  0.3530  0.3782 -0.4682
  311MOL0     C41892  -3.746   2.735  10.520 -1.2781 -0.3890  0.1359
  311MOL0     C41893  -3.880   2.797  10.541  0.4552 -0.7347 -0.2129
  311MOL0     C41894  -3.869   2.926  10.612  0.9020  0.5061  0.3971
  311MOL0    Cl41895  -4.037   2.972  10.658  0.1466 -0.2160  0.0351
  311MOL0     C41896  -3.034   2.179  10.544  0.3122 -0.2557 -0.1474
  311MOL0     C41897  -2.892   2.191  10.559  0.8557 -0.0889 -0.2259
  311MOL0     O41898  -2.690   2.489  10.717 -0.1389 -0.1217 -0.0589
  311MOL0     C41899  -2.435   2.268  10.624 -0.1587  0.8731  0.0370
  311MOL0     C41900  -2.303   2.216  10.647 -0.4634 -1.1913 -0.0321
  311MOL0     N41901  -1.401   2.374  10.777  0.0137  0.3641  0.3799
  311MOL0     N41902  -1.312   2.460  10.813  0.4017 -0.6383  0.0838
  311MOL0     C41903  -0.164   2.673  11.343 -0.3026 -0.0541 -1.0736
  311MOL0     C41904  -0.039   2.622  11.348 -1.1599  0.0266  0.1081
  311MOL0     C41905   0.355   2.434  11.179  0.4037  0.5352  1.1826
  311MOL0     C41906   0.447   2.447  11.074 -0.2033 -0.2604  1.2353
  311MOL0     C41907   0.572   2.391  11.083 -0.4430 -1.0126  0.5587
  311MOL0     C41908   0.609   2.314  11.193  0.5430 -0.7042  0.2703
  311MOL0     O41909   0.738   2.256  11.184  0.4638  0.6099 -0.5186
  311MOL0     C41910   0.740   2.125  11.127  0.3594  0.5928  0.4962
  311MOL0     C41911   0.883   2.073  11.111  0.5964  0.7800 -0.2912
  311MOL0     C41912   0.944   2.126  10.987 -0.1391 -1.0674 -0.3968
  311MOL0     C41913   1.083   2.178  11.030  0.3901  0.1849  0.2384
  311MOL0     C41914   1.081   2.312  11.089  0.0749  0.3808  0.3530
  311MOL0     C41915   1.093   2.410  11.149  0.7972 -0.7384 -0.3386
  311MOL0     C41916   0.532   2.310  11.304  0.0064 -0.1059 -0.5937
  311MOL0     C41917   0.401   2.367  11.296 -0.2222 -0.4858 -0.0838
  311MOL0     H41918  -0.040   2.390  11.122  2.1739  3.5351 -2.8209
  311MOL0     H41919  -0.291   2.444  11.126 -3.5104  1.6440  2.2350
  311MOL0     H41920  -0.471   2.518  11.367  0.0779 -0.5227  0.9846
  311MOL0     H41921  -0.417   2.668  11.456 -0.5162  2.0012 -1.3568
  311MOL0     H41922  -0.647   2.662  11.470  4.8137  1.6745  2.6286
  311MOL0     H41923  -0.600   2.794  11.371 -1.2358  0.6191  1.2500
  311MOL0     H41924  -0.640   2.650  11.172 -0.9782 -2.5078 -1.8319
  311MOL0     H41925  -0.663   2.509  11.252 -0.0778  1.2000 -3.3507
  311MOL0     H41926  -0.883   2.656  11.366 -0.8327  0.5140  0.3665
  311MOL0     H41927  -0.830   2.764  11.233 -0.1770 -0.3165 -3.7238
  311MOL0     H41928  -0.864   2.571  11.075  0.0951 -0.1876 -0.2358
  311MOL0     H41929  -0.920   2.469  11.214  0.8517  0.7132  2.5221
  311MOL0     H41930  -1.103   2.623  11.265 -0.1966 -1.1767  0.1281
  311MOL0     H41931  -1.067   2.724  11.129 -1.2165  1.5827  1.8578
  311MOL0     H41932  -1.074   2.511  10.986  2.0817  0.5806  1.1961
  311MOL0     H41933  -1.138   2.429  11.132 -1.0658  0.1637  0.3161
  311MOL0     H41934  -1.263   2.669  10.994  0.7009 -1.9414 -4.9973
  311MOL0     H41935  -1.338   2.577  11.125 -0.9126  1.2078  0.0339
  311MOL0     H41936  -1.481   2.398  11.090 -0.1424  3.4879  0.4835
  311MOL0     H41937  -1.595   2.197  10.798  0.1960 -0.6765  0.8597
  311MOL0     H41938  -1.616   2.212  10.973 -0.2339 -1.9867 -1.1538
  311MOL0     H41939  -1.716   2.428  10.770  1.4833 -1.5582 -2.4979
  311MOL0     H41940  -1.771   2.401  10.937 -0.3851  0.0747  0.2268
  311MOL0     H41941  -1.862   2.170  10.852  1.2818 -2.6898 -4.0370
  311MOL0     H41942  -1.828   2.244  10.694  1.1964  0.7438  0.0150
  311MOL0     H41943  -1.987   2.436  10.778 -1.4195 -0.5478 -0.2815
  311MOL0     H41944  -2.024   2.335  10.922 -0.1100 -0.3127  0.0039
  311MOL0     H41945  -2.206   2.475  10.833  0.8845 -0.8413 -0.9277
  311MOL0     H41946  -2.358   2.629  10.884  0.5171 -1.1430 -0.6804
  311MOL0     H41947  -2.465   2.654  10.744 -0.2384  1.0948  0.9203
  311MOL0     H41948  -2.524   2.594  10.902 -0.0467  1.3132  0.9251
  311MOL0     H41949  -2.849   2.522  10.508 -1.2825  1.5664  2.5306
  311MOL0     H41950  -3.094   2.511  10.485 -0.2835  0.3043  0.2097
  311MOL0     H41951  -3.337   2.453  10.533 -0.7831  0.5181 -0.3155
  311MOL0     H41952  -3.310   2.384  10.369 -2.0038 -1.3347 -0.3592
  311MOL0     H41953  -3.471   2.209  10.420 -3.1003  1.0647 -2.5999
  311MOL0     H41954  -3.496   2.272  10.584 -0.7801  1.5739  0.3995
  311MOL0     H41955  -3.672   2.328  10.418 -0.0822  0.0672  4.7416
  311MOL0     H41956  -3.566   2.407  10.306 -2.3877 -0.6558 -0.0144
  311MOL0     H41957  -3.616   2.487  10.598 -0.1793 -2.4907 -0.8938
  311MOL0     H41958  -3.525   2.584  10.483 -0.5266 -0.2114  0.4633
  311MOL0     H41959  -3.828   2.544  10.514  0.2058  1.1126 -0.0056
  311MOL0     H41960  -3.766   2.587  10.355 -0.3156 -3.6425 -0.3121
  311MOL0     H41961  -3.688   2.735  10.613 -2.1704 -1.7966  0.7196
  311MOL0     H41962  -3.695   2.809  10.457  0.5072 -0.5959  1.2638
  311MOL0     H41963  -3.919   2.724  10.612  4.0121 -1.9123  0.7669
  311MOL0     H41964  -3.935   2.813  10.447 -0.1872  2.8746  0.6100
  311MOL0     H41965  -3.818   2.998  10.547  1.1478  0.8519  0.9637
  311MOL0     H41966  -3.808   2.915  10.702  1.3129 -0.0839  0.0543
  311MOL0     H41967  -3.077   2.080  10.554 -0.8764  0.2087 -0.4508
  311MOL0     H41968  -2.834   2.102  10.581  0.8056 -1.0342 -3.4603
  311MOL0     H41969  -2.482   2.206  10.548 -0.7696 -1.6698  2.3446
  311MOL0     H41970  -2.266   2.136  10.584 -0.0953 -3.9986  3.4393
  311MOL0     H41971  -0.207   2.747  11.410 -0.8855 -2.7197  1.7227
  311MOL0     H41972   0.025   2.664  11.424 -1.3971 -0.8317  0.7980
  311MOL0     H41973   0.431   2.511  10.987  1.6624 -2.3463 -0.7723
  311MOL0     H41974   0.646   2.406  11.005 -2.0702  1.8718 -0.5751
  311MOL0     H41975   0.681   2.062  11.194 -0.0501  0.6380  0.1824
  311MOL0     H41976   0.695   2.118  11.028  1.2274 -2.5019  0.2325
  311MOL0     H41977   0.878   1.964  11.102  2.4214  0.6156  0.4065
  311MOL0     H41978   0.940   2.095  11.201  1.1975  0.0431 -0.4861
  311MOL0     H41979   0.896   2.210  10.936  0.0070 -1.5319 -1.3226
  311MOL0     H41980   0.960   2.046  10.915 -0.5998 -1.7980  0.2981
  311MOL0     H41981   1.137   2.193  10.936 -1.0605 -1.0956 -0.8374
  311MOL0     H41982   1.138   2.112  11.098  0.3409  2.0947  2.2594
  311MOL0     H41983   1.079   2.494  11.214 -0.6439 -0.7459 -0.6094
  311MOL0     H41984   0.576   2.256  11.388 -0.5413  0.9696  0.4129
  311MOL0     H41985   0.339   2.367  11.384  0.3836 -2.6008  0.3931
  312MOL0     O41986   7.892   1.228  10.697 -0.5472  0.3819  0.1903
  312MOL0     C41987   7.997   1.280  10.744 -0.3518 -0.3509  0.4138
  312MOL0     O41988   8.021   1.415  10.766 -0.4983 -0.1486  0.7386
  312MOL0     C41989   7.924   1.511  10.750  1.3414  0.3055 -0.3902
  312MOL0     C41990   7.825   1.538  10.854 -0.6413  0.1926  0.1027
  312MOL0     C41991   7.721   1.624  10.831 -0.5228 -0.5814  0.2127
  312MOL0     C41992   7.699   1.672  10.700 -0.3788  0.1769  0.2698
  312MOL0     O41993   7.582   1.743  10.691 -0.1165 -0.1532  0.0720
  312MOL0     C41994   7.602   1.874  10.619  0.2688  0.3112  0.2312
  312MOL0     C41995   7.463   1.935  10.583 -0.5778 -0.2292  0.0032
  312MOL0     C41996   7.387   1.840  10.488 -0.5062 -0.0144  0.1957
  312MOL0     C41997   7.239   1.884  10.473  1.1419 -0.3433  0.2553
  312MOL0     C41998   7.165   1.800  10.372  0.4891  0.3134 -0.2337
  312MOL0     C41999   7.153   1.652  10.404 -0.2516  0.2064 -0.1231
  312MOL0     C42000   7.044   1.567  10.330 -0.1758 -0.0598  0.7125
  312MOL0     C42001   7.021   1.418  10.368  0.3140  0.0822  0.3433
  312MOL0     N42002   6.953   1.335  10.262  0.0296  0.1467 -0.9434
  312MOL0     C42003   6.834   1.359  10.191 -0.7210 -0.2563  0.7426
  312MOL0     C42004   6.810   1.237  10.145 -0.3692 -0.1941 -0.2333
  312MOL0     C42005   6.690   1.212  10.068  0.4692  0.0306 -0.1710
  312MOL0     C42006   6.571   1.147  10.141  0.2780 -0.1889  0.0380
  312MOL0     C42007   6.453   1.128  10.041  0.3181 -0.0232 -0.1719
  312MOL0     C42008   6.336   1.056  10.099 -0.7327  0.2998 -0.5426
  312MOL0     O42009   6.217   1.086  10.019 -0.0520 -0.4140 -0.9750
  312MOL0     C42010   6.099   1.041  10.060 -0.2575  0.3481  0.0560
  312MOL0     C42011   6.077   0.917  10.118  0.4073 -0.6744  0.1821
  312MOL0     C42012   5.943   0.882  10.161 -0.4263  0.0594  0.2931
  312MOL0     C42013   5.931   0.734  10.209  0.5270 -0.4296  0.6569
  312MOL0     C42014   5.831   0.967  10.148 -0.2598 -0.2723 -0.0263
  312MOL0     C42015   5.688   0.943  10.181  0.5057 -0.1727 -0.5834
  312MOL0     O42016   5.590   1.027  10.143  0.0568 -1.1456 -0.2150
  312MOL0     C42017   5.460   0.993  10.169 -1.3113 -0.9306 -0.4332
  312MOL0     C42018   5.364   0.970  10.074 -0.1386  0.7518  0.4911
  312MOL0     C42019   5.234   0.934  10.113  0.2509 -0.6675 -0.0211
  312MOL0     C42020   5.199   0.946  10.246  0.4254  0.8960 -1.0207
  312MOL0     O42021   5.068   0.922  10.293  0.3600  0.0657 -0.1450
  312MOL0     C42022   4.981   0.846  10.202  0.3195 -0.5077 -0.1747
  312MOL0     C42023   4.847   0.822  10.260  0.3522 -0.1374  0.3679
  312MOL0     C42024   4.758   0.951  10.279 -0.4207  0.5782  0.4531
  312MOL0     C42025   4.633   0.906  10.366 -0.5494 -0.7325 -0.4940
  312MOL0     C42026   4.569   1.037  10.405 -0.5253  0.4159 -0.6866
  312MOL0     C42027   4.466   1.036  10.517 -0.3477  0.1078  0.2710
  312MOL0     C42028   4.455   1.175  10.583 -0.3468  0.5348  0.4742
  312MOL0     C42029   4.370   1.166  10.707  0.5698 -0.5756  0.9638
  312MOL0    Cl42030   4.195   1.157  10.676 -0.0393  0.0280 -0.1749
  312MOL0     C42031   5.294   0.978  10.343  0.1291  0.3115  0.3076
  312MOL0     C42032   5.426   1.002  10.305  0.4336  0.3824 -0.6554
  312MOL0     O42033   5.673   0.828  10.222 -0.1357  0.3713 -0.3726
  312MOL0     C42034   5.864   1.090  10.104  0.9867 -0.6459 -0.4497
  312MOL0     C42035   5.989   1.131  10.056 -0.2708 -0.1870  0.0414
  312MOL0     N42036   6.910   1.151  10.181 -0.1552  0.3544 -0.3891
  312MOL0     N42037   7.006   1.212  10.235 -0.5227 -0.7057 -0.5156
  312MOL0     C42038   7.801   1.650  10.602  0.6571 -0.0682  1.5178
  312MOL0     C42039   7.913   1.569  10.623  0.1727 -0.0423  0.2423
  312MOL0     C42040   8.101   1.183  10.783 -0.9572 -1.0817 -0.7012
  312MOL0     C42041   8.225   1.232  10.818 -0.4119 -1.0145 -0.6301
  312MOL0     C42042   8.333   1.142  10.837  0.4149 -0.8331 -0.0766
  312MOL0     C42043   8.319   1.005  10.832 -0.1771  0.0224 -1.0546
  312MOL0     O42044   8.430   0.942  10.862  0.0313 -0.3350  0.4796
  312MOL0     C42045   8.421   0.802  10.888  0.1091  0.4718  0.5736
  312MOL0     C42046   8.560   0.750  10.928 -0.0195 -0.3779 -0.9535
  312MOL0     C42047   8.663   0.752  10.814 -1.0402  0.6445  0.3829
  312MOL0     C42048   8.799   0.700  10.865 -0.1277  0.5794 -0.0542
  312MOL0     C42049   8.878   0.618  10.773 -0.7673  0.5974 -0.3577
  312MOL0     C42050   8.956   0.544  10.710 -0.2389 -0.3448  0.1926
  312MOL0     C42051   8.184   0.962  10.810  0.4276  0.1288 -0.1141
  312MOL0     C42052   8.081   1.045  10.787  0.8628  0.0500  0.3501
  312MOL0     H42053   7.822   1.483  10.947  1.1055  0.9354  0.6319
  312MOL0     H42054   7.653   1.656  10.910 -0.7338 -1.3926  0.3721
  312MOL0     H42055   7.659   1.944  10.680  1.7849 -0.4714 -0.2475
  312MOL0     H42056   7.665   1.869  10.530  0.6258  1.5638  0.3994
  312MOL0     H42057   7.408   1.953  10.676 -1.7518  1.5058 -0.9622
  312MOL0     H42058   7.483   2.035  10.542  0.8380  0.2743  1.7952
  312MOL0     H42059   7.434   1.850  10.389  0.1661 -1.2362  0.3778
  312MOL0     H42060   7.385   1.733  10.509  0.2207 -1.0995 -4.2153
  312MOL0     H42061   7.199   1.869  10.574  2.2216 -0.1047  0.7364
  312MOL0     H42062   7.230   1.989  10.444 -3.4175 -0.7412 -0.4977
  312MOL0     H42063   7.070   1.848  10.350 -0.2778 -0.4268  1.3448
  312MOL0     H42064   7.221   1.796  10.278  1.0625  1.6345  0.0281
  312MOL0     H42065   7.251   1.603  10.397 -0.6553 -0.4130 -2.1589
  312MOL0     H42066   7.118   1.638  10.506 -1.9934  1.0365 -0.5639
  312MOL0     H42067   6.950   1.624  10.334  1.0120  1.9277  2.2620
  312MOL0     H42068   7.070   1.555  10.224 -1.9959 -0.9598  0.3277
  312MOL0     H42069   6.962   1.418  10.459  1.6092 -0.7334  1.2221
  312MOL0     H42070   7.118   1.372  10.389  2.1088  2.5006 -1.9557
  312MOL0     H42071   6.770   1.447  10.189 -0.5607 -0.1428  0.4842
  312MOL0     H42072   6.665   1.307  10.020  1.0931 -0.7734 -2.2016
  312MOL0     H42073   6.724   1.158   9.979  2.5891  3.1438 -1.4345
  312MOL0     H42074   6.546   1.220  10.218  3.3941  1.4830 -0.3745
  312MOL0     H42075   6.592   1.045  10.174 -1.3095 -0.7421 -0.5563
  312MOL0     H42076   6.481   1.078   9.947 -0.0984  1.3205 -1.0419
  312MOL0     H42077   6.419   1.224  10.002  2.2823  0.9203  0.3376
  312MOL0     H42078   6.325   1.095  10.201  1.2619  0.8396 -0.5145
  312MOL0     H42079   6.352   0.949  10.115  1.1754  0.4622 -1.1404
  312MOL0     H42080   6.159   0.845  10.121  0.5487 -0.4962  0.6845
  312MOL0     H42081   5.881   0.672  10.134 -0.9775 -1.0654  2.1216
  312MOL0     H42082   6.030   0.697  10.234 -0.8504 -3.1553  2.5642
  312MOL0     H42083   5.879   0.722  10.304  2.1612 -0.6743  1.5392
  312MOL0     H42084   5.368   0.975   9.966  0.5017  0.8837  0.5213
  312MOL0     H42085   5.161   0.912  10.036 -0.6031 -0.0491  0.5940
  312MOL0     H42086   4.968   0.893  10.104  2.8331  1.2136  0.2021
  312MOL0     H42087   5.027   0.749  10.182 -2.6894 -2.1358  0.1247
  312MOL0     H42088   4.798   0.750  10.193 -1.3312  1.9071 -0.7181
  312MOL0     H42089   4.858   0.768  10.354 -3.3150 -2.1928 -0.1710
  312MOL0     H42090   4.714   0.978  10.183  1.4420  1.2601 -0.2491
  312MOL0     H42091   4.818   1.028  10.329 -1.4237  1.0009  1.0505
  312MOL0     H42092   4.576   0.831  10.311 -0.0599 -2.6097  1.4204
  312MOL0     H42093   4.666   0.850  10.454  0.0681 -2.3508 -1.6916
  312MOL0     H42094   4.547   1.084  10.309  0.4176  0.9233 -0.6717
  312MOL0     H42095   4.648   1.102  10.445  0.8128 -0.3285 -2.0367
  312MOL0     H42096   4.367   1.009  10.480 -1.2174  2.5135  0.6302
  312MOL0     H42097   4.500   0.960  10.587  1.0405 -0.4369 -0.9481
  312MOL0     H42098   4.420   1.258  10.521 -0.9535  0.6874  1.0207
  312MOL0     H42099   4.556   1.200  10.617 -0.1647 -0.4299  0.6635
  312MOL0     H42100   4.383   1.259  10.763  1.3037 -0.6935  0.9909
  312MOL0     H42101   4.403   1.085  10.773  1.9902 -0.6525  0.1952
  312MOL0     H42102   5.263   0.992  10.446  0.1475  1.7006  0.1499
  312MOL0     H42103   5.500   1.023  10.381  0.0065 -1.7054  0.4283
  312MOL0     H42104   5.785   1.164  10.098 -0.2526 -1.7675  1.0806
  312MOL0     H42105   6.013   1.230  10.018 -1.4471 -0.1057 -0.5390
  312MOL0     H42106   7.783   1.692  10.503  2.1003 -1.3083  0.6841
  312MOL0     H42107   7.971   1.527  10.543 -1.6877  1.2443 -1.8971
  312MOL0     H42108   8.264   1.334  10.817  5.6306 -2.8921 -0.4469
  312MOL0     H42109   8.428   1.192  10.849  0.8664 -0.7893 -3.0854
  312MOL0     H42110   8.349   0.778  10.966 -2.2519  1.6013 -1.1420
  312MOL0     H42111   8.381   0.757  10.797 -2.6389  1.4534  1.2111
  312MOL0     H42112   8.545   0.646  10.959 -1.8769 -0.4278 -1.8764
  312MOL0     H42113   8.602   0.811  11.010 -0.6951 -0.8071 -0.2747
  312MOL0     H42114   8.671   0.856  10.782  0.1381  0.9232  1.4858
  312MOL0     H42115   8.635   0.691  10.727  0.4740 -1.2405  1.1336
  312MOL0     H42116   8.783   0.629  10.947  2.2180  2.8678  2.5750
  312MOL0     H42117   8.860   0.782  10.904 -0.2584 -0.4791  2.6057
  312MOL0     H42118   9.023   0.473  10.666 -1.7187 -1.9240  0.3641
  312MOL0     H42119   8.171   0.854  10.809  4.5976 -0.5251 -0.4390
  312MOL0     H42120   7.985   1.000  10.762  1.7125 -1.5928 -0.0331
  313MOL0     O42121   2.779   5.423   8.952  0.2802  0.4288 -0.5660
  313MOL0     C42122   2.802   5.382   8.842  0.4387 -0.9536 -0.3239
  313MOL0     O42123   2.711   5.310   8.765  0.3513 -0.6979  0.3816
  313MOL0     C42124   2.588   5.282   8.809 -0.7669 -0.1516 -0.0827
  313MOL0     C42125   2.582   5.178   8.901  0.0380  0.8983 -0.0549
  313MOL0     C42126   2.458   5.134   8.939 -0.4589 -0.0070 -0.0882
  313MOL0     C42127   2.341   5.201   8.903  0.2238  0.3468  0.7264
  313MOL0     O42128   2.217   5.171   8.949  0.1520  0.5995 -0.2335
  313MOL0     C42129   2.191   5.055   9.022 -0.4962 -0.5556 -0.7654
  313MOL0     C42130   2.041   5.043   9.061  0.5064  0.5533  0.7430
  313MOL0     C42131   2.027   4.937   9.167  0.6737  0.6933  1.1615
  313MOL0     C42132   1.877   4.899   9.191  0.7152  0.4135  0.7929
  313MOL0     C42133   1.815   4.814   9.081 -0.3310  0.6289  0.1385
  313MOL0     C42134   1.668   4.786   9.119  0.7914  0.0960  0.2533
  313MOL0     C42135   1.621   4.688   9.014  0.2979  1.0024 -0.0780
  313MOL0     C42136   1.470   4.669   9.040  0.6387  0.5712  0.2839
  313MOL0     N42137   1.404   4.600   8.931 -0.3483 -0.2547 -0.0742
  313MOL0     C42138   1.329   4.658   8.835  0.5626  0.1976 -0.1653
  313MOL0     C42139   1.297   4.559   8.749 -0.3926 -0.4719 -0.3085
  313MOL0     C42140   1.223   4.581   8.616 -0.6300 -0.5681 -0.2112
  313MOL0     C42141   1.066   4.602   8.626  0.7266  0.0970  0.2300
  313MOL0     C42142   1.009   4.637   8.488  0.1515  0.4164 -0.2772
  313MOL0     C42143   0.864   4.686   8.501 -0.2864 -0.1887  0.8064
  313MOL0     O42144   0.851   4.815   8.572  0.0062  0.0619  0.2789
  313MOL0     C42145   0.723   4.863   8.600  0.0268  0.7570  0.6139
  313MOL0     C42146   0.714   4.972   8.683  0.1751 -0.3896 -0.2197
  313MOL0     C42147   0.598   5.051   8.710 -0.1379 -0.1435  0.1377
  313MOL0     C42148   0.594   5.166   8.808 -0.2172 -0.1048 -0.5947
  313MOL0     C42149   0.477   5.003   8.643 -0.4520 -0.2576  0.4933
  313MOL0     C42150   0.338   5.057   8.671 -1.5832 -0.0016  0.0552
  313MOL0     O42151   0.239   4.969   8.656  0.2098 -0.0000  0.0863
  313MOL0     C42152   0.119   4.984   8.723  0.0433 -0.3450  0.7489
  313MOL0     C42153   0.110   5.045   8.850  0.5234 -0.3678  0.4380
  313MOL0     C42154  -0.022   5.047   8.909 -0.2796 -0.0516  0.0966
  313MOL0     C42155  -0.137   4.992   8.838  1.1057 -0.8555  0.3332
  313MOL0     O42156  -0.257   5.008   8.902  0.2316  0.4696  1.0216
  313MOL0     C42157  -0.379   5.019   8.827  0.1295 -0.7640  0.1100
  313MOL0     C42158  -0.495   5.086   8.898  0.7669 -0.1095  0.5995
  313MOL0     C42159  -0.444   5.211   8.957 -0.0599  0.2804  0.0496
  313MOL0     C42160  -0.417   5.329   8.857 -0.5289  0.1305 -0.1441
  313MOL0     C42161  -0.336   5.448   8.921  0.0288 -0.3917  0.2755
  313MOL0     C42162  -0.190   5.413   8.926 -0.2693 -0.0301 -0.4698
  313MOL0     C42163  -0.109   5.519   8.999  0.5867 -0.0693 -0.4540
  313MOL0     C42164   0.044   5.493   8.989 -1.2666  0.0324 -0.0675
  313MOL0    Cl42165   0.126   5.560   9.132  0.4196  0.0777  0.2080
  313MOL0     C42166  -0.118   4.932   8.708  0.1826 -0.3511 -0.1259
  313MOL0     C42167   0.011   4.930   8.660  0.3284  0.4760 -0.3537
  313MOL0     O42168   0.325   5.172   8.713  0.6953 -0.5361 -0.4750
  313MOL0     C42169   0.481   4.881   8.574 -1.0544  0.5611  0.4403
  313MOL0     C42170   0.604   4.807   8.552 -0.2912  0.0537 -0.3542
  313MOL0     N42171   1.336   4.436   8.806 -1.3577  0.4442  0.8385
  313MOL0     N42172   1.396   4.463   8.919 -1.4250 -0.3319  0.5912
  313MOL0     C42173   2.355   5.318   8.830 -0.5966  0.5323  0.0527
  313MOL0     C42174   2.481   5.362   8.786  0.0222 -0.5680  0.6438
  313MOL0     C42175   2.935   5.419   8.786 -0.9382  1.3898 -0.2368
  313MOL0     C42176   3.047   5.462   8.870  0.9350  0.0451 -0.2651
  313MOL0     C42177   3.162   5.505   8.807 -0.1621  0.2721 -0.3860
  313MOL0     C42178   3.180   5.491   8.664  0.0845 -0.8912  0.3007
  313MOL0     O42179   3.297   5.511   8.589  0.0173  0.0903  0.4539
  313MOL0     C42180   3.423   5.530   8.654 -0.5275 -0.0708  0.1454
  313MOL0     C42181   3.482   5.403   8.716 -0.1353 -0.4872  0.2830
  313MOL0     C42182   3.446   5.275   8.631  0.0187  0.1426  0.4121
  313MOL0     C42183   3.530   5.279   8.497  0.7112  0.1284  0.5700
  313MOL0     C42184   3.670   5.282   8.537  0.2044 -0.1758  0.1703
  313MOL0     C42185   3.787   5.279   8.551 -0.3805  0.0676  0.0815
  313MOL0     C42186   3.074   5.449   8.587 -0.8467 -0.6745  0.4535
  313MOL0     C42187   2.951   5.407   8.644 -0.3107 -1.0747 -0.2232
  313MOL0     H42188   2.663   5.112   8.931 -2.0386 -2.5087 -1.3658
  313MOL0     H42189   2.454   5.048   9.004 -1.3465 -2.0971 -2.7180
  313MOL0     H42190   2.214   4.967   8.961 -0.6589  0.3239 -2.1089
  313MOL0     H42191   2.269   5.056   9.099  2.2111  0.9667 -3.3295
  313MOL0     H42192   2.016   5.142   9.101 -1.0412  0.8355 -0.8044
  313MOL0     H42193   1.986   5.027   8.968  1.6316  0.3340  0.0979
  313MOL0     H42194   2.076   4.843   9.137 -2.7499 -1.0022  0.3673
  313MOL0     H42195   2.075   4.973   9.258  1.9476  2.9384 -0.3020
  313MOL0     H42196   1.859   4.851   9.287  0.9208 -0.1737  0.5468
  313MOL0     H42197   1.829   4.997   9.201 -1.7769 -0.7186  0.5644
  313MOL0     H42198   1.813   4.866   8.985  1.8746 -1.1352 -0.9535
  313MOL0     H42199   1.871   4.721   9.070 -0.6958  0.7141 -3.4962
  313MOL0     H42200   1.665   4.746   9.221  0.5260  0.8510  0.5482
  313MOL0     H42201   1.609   4.878   9.118  0.3083 -0.2122  0.4062
  313MOL0     H42202   1.630   4.727   8.913  1.7175 -2.2661 -1.3632
  313MOL0     H42203   1.669   4.589   9.011 -0.2003  0.7862 -2.5816
  313MOL0     H42204   1.415   4.760   9.065 -0.3472 -0.5793  2.5775
  313MOL0     H42205   1.462   4.609   9.131 -1.6046  0.5743  0.1456
  313MOL0     H42206   1.306   4.764   8.831 -0.4755 -0.0536 -2.2145
  313MOL0     H42207   1.272   4.668   8.573 -1.0677  0.5689  1.4903
  313MOL0     H42208   1.238   4.499   8.545 -0.2651  1.2679 -2.3493
  313MOL0     H42209   1.037   4.674   8.703 -0.5908 -1.3136  1.1029
  313MOL0     H42210   1.021   4.506   8.653  0.9169 -0.8324 -2.4216
  313MOL0     H42211   1.025   4.547   8.429  1.5085  1.5628 -1.7609
  313MOL0     H42212   1.074   4.716   8.449  0.8069 -0.8059 -1.7331
  313MOL0     H42213   0.797   4.611   8.543  0.4049 -0.8005  0.8255
  313MOL0     H42214   0.827   4.690   8.398  0.7925 -2.6349  0.2458
  313MOL0     H42215   0.807   4.989   8.737 -0.6809  0.2952  1.0959
  313MOL0     H42216   0.547   5.252   8.759 -3.6694  0.8473  3.6386
  313MOL0     H42217   0.552   5.144   8.907  1.4003 -0.2589  0.0892
  313MOL0     H42218   0.699   5.189   8.829 -0.5223 -1.1736  2.7802
  313MOL0     H42219   0.193   5.086   8.908  1.2727 -2.5586  0.9951
  313MOL0     H42220  -0.027   5.080   9.012 -0.2109  1.2275 -0.2850
  313MOL0     H42221  -0.364   5.071   8.732 -2.3418 -0.6317 -0.2937
  313MOL0     H42222  -0.428   4.927   8.794 -3.5298  0.9031  0.3871
  313MOL0     H42223  -0.573   5.096   8.822  1.7457 -2.1222 -0.7550
  313MOL0     H42224  -0.539   5.016   8.970 -0.1681 -0.8304 -0.6077
  313MOL0     H42225  -0.351   5.195   9.012 -0.0573  1.8855  0.5750
  313MOL0     H42226  -0.521   5.253   9.022  0.8650  2.6722 -0.2807
  313MOL0     H42227  -0.360   5.291   8.772 -0.4320 -2.2080  0.8989
  313MOL0     H42228  -0.517   5.363   8.829 -1.2513 -1.4767  0.3471
  313MOL0     H42229  -0.379   5.464   9.020 -1.6314 -1.0893 -0.2971
  313MOL0     H42230  -0.368   5.530   8.855 -1.6415 -1.8381 -0.8223
  313MOL0     H42231  -0.172   5.313   8.965  2.1372  0.5119 -0.0330
  313MOL0     H42232  -0.159   5.406   8.821  0.8164  2.7229 -0.4280
  313MOL0     H42233  -0.138   5.526   9.104 -4.0666  1.4937 -1.6282
  313MOL0     H42234  -0.129   5.613   8.947  2.1942 -0.2733 -1.5342
  313MOL0     H42235   0.091   5.547   8.906 -0.0528 -0.2554  0.4057
  313MOL0     H42236   0.065   5.386   8.981  1.2250  0.4597 -0.2998
  313MOL0     H42237  -0.201   4.880   8.661  2.0191 -1.9736 -1.7475
  313MOL0     H42238   0.012   4.892   8.558 -0.4925 -0.7487  0.0694
  313MOL0     H42239   0.392   4.839   8.529  0.2964  0.1998 -2.0643
  313MOL0     H42240   0.595   4.715   8.495 -3.1034  1.0061 -1.6181
  313MOL0     H42241   2.266   5.373   8.800 -1.1230 -0.2766  0.0860
  313MOL0     H42242   2.491   5.449   8.721  0.5638 -1.1185 -0.0140
  313MOL0     H42243   3.027   5.456   8.977 -1.5435 -1.7519 -0.7337
  313MOL0     H42244   3.246   5.550   8.860  0.0093  2.3250 -2.2278
  313MOL0     H42245   3.491   5.568   8.577  2.5576  0.5525  2.9468
  313MOL0     H42246   3.428   5.608   8.730  0.4082 -0.6966  0.7557
  313MOL0     H42247   3.424   5.388   8.808  0.2108 -3.2974  0.1246
  313MOL0     H42248   3.590   5.417   8.728  0.3169 -0.2985 -3.1176
  313MOL0     H42249   3.338   5.271   8.616  0.0878  1.4055 -0.6481
  313MOL0     H42250   3.470   5.180   8.680  0.5608  0.1757  0.2254
  313MOL0     H42251   3.503   5.361   8.430 -1.9158 -0.1869  1.1480
  313MOL0     H42252   3.506   5.188   8.442 -2.2691  1.1058  0.1092
  313MOL0     H42253   3.893   5.289   8.555 -0.4034  4.2032 -2.9237
  313MOL0     H42254   3.089   5.435   8.480  0.5710 -2.7833  0.8596
  313MOL0     H42255   2.873   5.373   8.576 -2.2074 -2.7609  2.5871
  314MOL0     O42256   6.102   9.241   6.054  0.4134 -0.0558  0.0608
  314MOL0     C42257   6.171   9.160   5.983 -0.1166 -0.1958 -0.3514
  314MOL0     O42258   6.114   9.070   5.896  0.0359  0.5580  0.1855
  314MOL0     C42259   5.981   9.026   5.909 -0.6525 -0.6167 -0.2304
  314MOL0     C42260   5.953   8.892   5.916  0.1190  0.5196 -0.0971
  314MOL0     C42261   5.816   8.851   5.928 -0.7157 -0.3314 -1.1379
  314MOL0     C42262   5.712   8.945   5.935  0.4810  0.0574  0.4351
  314MOL0     O42263   5.580   8.897   5.945 -0.3329 -0.9612  0.6001
  314MOL0     C42264   5.471   8.983   5.969 -0.2422 -0.3209 -0.1669
  314MOL0     C42265   5.338   8.918   6.010  0.7167  0.7247  0.1113
  314MOL0     C42266   5.225   9.000   6.073  0.1322 -0.7209 -0.0101
  314MOL0     C42267   5.094   8.930   6.096  0.3898  0.1385  0.9764
  314MOL0     C42268   4.992   9.017   6.172 -0.5671 -0.7570 -0.3008
  314MOL0     C42269   4.856   8.946   6.179  0.2799 -0.2598 -0.0483
  314MOL0     C42270   4.759   9.026   6.254  0.0293 -0.1471  1.2292
  314MOL0     C42271   4.760   9.016   6.413  0.0601 -0.4638  0.5691
  314MOL0     N42272   4.662   9.106   6.488  0.3675  0.1087  0.2641
  314MOL0     C42273   4.522   9.080   6.482 -0.1551  0.1516 -0.3342
  314MOL0     C42274   4.467   9.158   6.572 -0.4348  0.0444  0.0849
  314MOL0     C42275   4.323   9.168   6.598  0.9013 -0.7513 -1.1337
  314MOL0     C42276   4.255   9.052   6.665  0.6821  0.3387  0.5353
  314MOL0     C42277   4.140   9.099   6.765 -0.0897  0.0202  0.3839
  314MOL0     C42278   4.072   8.977   6.828 -0.6919  0.4495 -0.7364
  314MOL0     O42279   3.954   9.013   6.903  0.1343  0.6464  0.5826
  314MOL0     C42280   3.830   9.004   6.838 -0.1324  0.1094 -0.8073
  314MOL0     C42281   3.718   8.989   6.921 -1.0616 -0.3287 -0.5373
  314MOL0     C42282   3.593   8.958   6.865  0.4622  0.2070 -0.0906
  314MOL0     C42283   3.482   8.958   6.981 -0.4550  0.4007  0.0177
  314MOL0     C42284   3.564   8.963   6.727 -0.3160 -0.4330  0.3280
  314MOL0     C42285   3.425   8.957   6.665  0.0133  0.3282  0.0894
  314MOL0     O42286   3.430   8.983   6.531  0.2368 -0.5616  0.3973
  314MOL0     C42287   3.334   8.941   6.449 -0.3252 -0.7420 -0.2504
  314MOL0     C42288   3.194   8.977   6.447  0.6099  0.0666 -0.5444
  314MOL0     C42289   3.102   8.916   6.357  0.0251 -0.5053  0.0046
  314MOL0     C42290   3.142   8.821   6.271  0.4423  0.2716  0.8039
  314MOL0     O42291   3.073   8.756   6.163 -0.4303 -0.5075 -0.2888
  314MOL0     C42292   2.978   8.848   6.100 -1.0439 -0.2019  0.0382
  314MOL0     C42293   2.833   8.822   6.156 -0.6155 -0.6565  0.6921
  314MOL0     C42294   2.744   8.954   6.149  0.0713  0.1784 -0.1370
  314MOL0     C42295   2.719   8.986   6.001 -0.5336 -1.0271 -0.0268
  314MOL0     C42296   2.618   9.105   5.989 -0.8200  0.8122  0.1831
  314MOL0     C42297   2.469   9.071   6.020 -0.1375  0.0532 -0.0334
  314MOL0     C42298   2.378   9.190   6.062 -0.7544  0.1229 -0.5526
  314MOL0     C42299   2.229   9.144   6.066  0.1405  0.0261  0.0438
  314MOL0    Cl42300   2.115   9.285   6.084  0.2132 -0.4575  0.0146
  314MOL0     C42301   3.276   8.788   6.273 -1.2007 -0.1114  0.1447
  314MOL0     C42302   3.367   8.839   6.361  0.0368  0.2936  0.2992
  314MOL0     O42303   3.324   8.910   6.717 -1.5539  0.7298 -0.2384
  314MOL0     C42304   3.678   8.993   6.646 -0.0190 -0.2703 -0.0933
  314MOL0     C42305   3.808   9.005   6.698 -0.3311 -0.0362  0.5743
  314MOL0     N42306   4.567   9.225   6.644 -0.4304  0.4228 -0.0343
  314MOL0     N42307   4.682   9.203   6.589 -0.2924  0.6216  0.1291
  314MOL0     C42308   5.745   9.081   5.918  0.0395 -0.4989  0.2082
  314MOL0     C42309   5.876   9.123   5.901  0.1499 -0.6994 -0.4446
  314MOL0     C42310   6.307   9.127   6.015 -0.2974 -0.0781 -0.5077
  314MOL0     C42311   6.374   9.012   5.971 -0.3514  0.3629 -0.4073
  314MOL0     C42312   6.510   9.001   6.008 -0.2680 -0.4580 -0.1893
  314MOL0     C42313   6.584   9.098   6.080 -0.3506  0.3796 -0.1375
  314MOL0     O42314   6.722   9.098   6.117 -0.1013  0.5360  0.8255
  314MOL0     C42315   6.802   8.983   6.071 -0.5418 -0.3087 -0.2570
  314MOL0     C42316   6.765   8.861   6.148  0.0689  0.6902  0.1799
  314MOL0     C42317   6.884   8.806   6.228 -0.0020 -0.7653  0.2511
  314MOL0     C42318   6.967   8.714   6.135 -0.6437 -0.1726  0.7860
  314MOL0     C42319   7.102   8.669   6.198  0.5714 -0.1510  0.5989
  314MOL0     C42320   7.220   8.663   6.225  0.3721 -1.1251 -0.2550
  314MOL0     C42321   6.517   9.212   6.121 -0.0180  0.5991  0.1736
  314MOL0     C42322   6.380   9.228   6.091  0.1216 -0.0004 -0.0428
  314MOL0     H42323   6.037   8.825   5.900  1.3925  2.1165 -0.4006
  314MOL0     H42324   5.787   8.748   5.944 -1.8209  0.2681  1.0869
  314MOL0     H42325   5.496   9.049   6.052  1.2083  0.1304 -0.9322
  314MOL0     H42326   5.445   9.044   5.883  2.3395  1.3583  0.1189
  314MOL0     H42327   5.295   8.873   5.920 -0.0349 -0.3961  1.0074
  314MOL0     H42328   5.360   8.832   6.073  0.7482  0.2509 -0.5364
  314MOL0     H42329   5.251   9.046   6.169 -1.2409  1.0038 -0.4222
  314MOL0     H42330   5.201   9.089   6.014  1.4824  1.1682  2.1629
  314MOL0     H42331   5.055   8.903   5.997  3.5562  1.2582 -0.7213
  314MOL0     H42332   5.106   8.835   6.148 -0.5247 -0.4170  0.2013
  314MOL0     H42333   5.028   9.033   6.274 -1.9106  0.5830 -0.0077
  314MOL0     H42334   4.979   9.113   6.122 -1.8641 -1.1000 -0.6704
  314MOL0     H42335   4.816   8.932   6.078 -3.3610 -0.3122  1.2441
  314MOL0     H42336   4.869   8.853   6.235 -0.8131  0.4306  1.4190
  314MOL0     H42337   4.783   9.132   6.242  0.1233 -0.2471  0.4934
  314MOL0     H42338   4.660   8.993   6.221 -0.4898  1.5984  0.9572
  314MOL0     H42339   4.866   9.026   6.441 -0.4169  2.2791  1.6474
  314MOL0     H42340   4.733   8.914   6.443  1.4613 -1.6360 -1.8475
  314MOL0     H42341   4.471   8.998   6.434 -0.2565 -1.0150  1.6498
  314MOL0     H42342   4.322   9.254   6.666  2.9296 -1.8714  0.4148
  314MOL0     H42343   4.270   9.208   6.510  0.2589  3.2143  0.8267
  314MOL0     H42344   4.330   9.002   6.727  0.7219 -0.7873 -0.3620
  314MOL0     H42345   4.217   8.997   6.578 -0.6055 -0.7039  1.7154
  314MOL0     H42346   4.075   9.172   6.716  0.9137  1.3671  0.9881
  314MOL0     H42347   4.184   9.159   6.844 -3.1178  0.9116  1.5369
  314MOL0     H42348   4.128   8.920   6.903 -4.2069 -0.6259  1.2738
  314MOL0     H42349   4.058   8.910   6.743  2.1839 -2.7117  1.0068
  314MOL0     H42350   3.741   8.974   7.026  0.5457  0.4500 -0.7380
  314MOL0     H42351   3.396   9.018   6.949 -0.6387  1.7819  2.7972
  314MOL0     H42352   3.442   8.857   6.995  0.0563  0.3681  1.4890
  314MOL0     H42353   3.517   9.000   7.076  1.3381 -0.9065 -0.0161
  314MOL0     H42354   3.143   9.056   6.503 -0.0264  1.5001 -3.0159
  314MOL0     H42355   2.998   8.944   6.367  0.2538  0.3328  0.1085
  314MOL0     H42356   3.010   8.950   6.121  3.1132 -1.4583  0.6829
  314MOL0     H42357   2.982   8.841   5.991 -1.0696 -0.7719  0.0730
  314MOL0     H42358   2.785   8.735   6.110 -1.4810 -0.3799  1.0420
  314MOL0     H42359   2.834   8.789   6.260 -3.5772 -3.0701  0.1078
  314MOL0     H42360   2.795   9.030   6.209 -0.2484 -1.8856  2.9575
  314MOL0     H42361   2.650   8.933   6.200 -0.1316 -1.1277 -1.0195
  314MOL0     H42362   2.819   9.005   5.959 -0.3420  1.7961  1.4156
  314MOL0     H42363   2.682   8.894   5.955 -2.7745  0.1543 -0.7199
  314MOL0     H42364   2.631   9.158   5.894  0.3625 -0.0971 -0.1868
  314MOL0     H42365   2.655   9.185   6.054 -0.0754  1.7994 -1.3958
  314MOL0     H42366   2.418   9.037   5.930 -2.0731 -0.0334  1.0484
  314MOL0     H42367   2.466   8.983   6.085 -0.7565 -0.4843 -0.7740
  314MOL0     H42368   2.390   9.262   5.981  1.8504  1.0830  0.5802
  314MOL0     H42369   2.400   9.253   6.149 -0.1937 -0.1659 -0.4794
  314MOL0     H42370   2.221   9.064   6.141 -0.6887 -2.0206 -2.0871
  314MOL0     H42371   2.212   9.095   5.970  0.4824  0.8718 -0.4592
  314MOL0     H42372   3.315   8.715   6.202  2.4517  1.6492  0.1146
  314MOL0     H42373   3.467   8.796   6.363  1.1201  2.3515 -2.4684
  314MOL0     H42374   3.668   8.996   6.538  1.8386 -0.4798 -0.3142
  314MOL0     H42375   3.895   9.028   6.637  1.2504 -0.6202  2.5240
  314MOL0     H42376   5.668   9.157   5.922  1.9614  1.5308  2.8317
  314MOL0     H42377   5.898   9.227   5.875 -0.2823 -0.8015 -1.2615
  314MOL0     H42378   6.332   8.930   5.913  4.5481 -0.6826 -3.0431
  314MOL0     H42379   6.575   8.921   5.974  2.8557  1.7230  0.2448
  314MOL0     H42380   6.790   8.984   5.962  0.5465  1.7944 -0.4114
  314MOL0     H42381   6.908   9.001   6.087 -0.1224 -0.5198 -2.4583
  314MOL0     H42382   6.727   8.782   6.083 -1.1974  0.3526  1.2938
  314MOL0     H42383   6.686   8.893   6.216  0.6028 -0.6054  1.4691
  314MOL0     H42384   6.858   8.763   6.325  0.1913 -2.3126 -0.3561
  314MOL0     H42385   6.950   8.891   6.249  1.3365 -0.9568 -2.6240
  314MOL0     H42386   6.977   8.765   6.039  0.1162 -1.0870  0.3514
  314MOL0     H42387   6.904   8.629   6.107  0.8988 -0.0959 -3.6936
  314MOL0     H42388   7.326   8.664   6.243  0.7524 -0.3408 -2.1967
  314MOL0     H42389   6.571   9.288   6.178  0.8473 -0.2773  0.5603
  314MOL0     H42390   6.327   9.311   6.138 -0.5956 -0.8518  0.6847
  315MOL0     O42391   3.758   0.341   4.789 -0.0970 -0.7694  0.5423
  315MOL0     C42392   3.820   0.389   4.694 -0.1798  0.1609  0.4867
  315MOL0     O42393   3.777   0.380   4.565 -0.4901  0.5777  0.0651
  315MOL0     C42394   3.682   0.282   4.538  0.1985 -0.2000 -1.2468
  315MOL0     C42395   3.549   0.298   4.551  0.6294  0.2384  1.1199
  315MOL0     C42396   3.450   0.197   4.519  0.2294 -0.5384  0.2375
  315MOL0     C42397   3.506   0.080   4.456 -0.2872  0.0828 -0.9698
  315MOL0     O42398   3.445  -0.031   4.415 -0.1893 -0.7277 -0.4804
  315MOL0     C42399   3.301  -0.031   4.422  0.0648 -0.6735 -0.0029
  315MOL0     C42400   3.251  -0.045   4.563  0.5306 -0.7855 -0.6550
  315MOL0     C42401   3.108  -0.107   4.557 -0.0490 -0.1600 -0.8490
  315MOL0     C42402   3.007  -0.018   4.476 -0.0054 -0.1350 -0.1408
  315MOL0     C42403   2.871  -0.088   4.456  0.4520  0.1141 -0.7738
  315MOL0     C42404   2.882  -0.222   4.381 -0.8079 -0.1234 -0.1182
  315MOL0     C42405   2.751  -0.264   4.321 -1.1772 -0.0298  0.7345
  315MOL0     C42406   2.665  -0.329   4.428 -0.6160 -0.2937 -0.3626
  315MOL0     N42407   2.550  -0.392   4.361  0.0522  0.1388 -0.5913
  315MOL0     C42408   2.558  -0.513   4.296  1.1108 -1.0444 -0.4976
  315MOL0     C42409   2.429  -0.548   4.269  0.3319 -0.6127  0.5663
  315MOL0     C42410   2.378  -0.664   4.186 -0.6268  0.1658  0.5926
  315MOL0     C42411   2.402  -0.791   4.267 -0.1604 -0.3433  0.3837
  315MOL0     C42412   2.341  -0.782   4.413  0.0174  0.0653  0.2764
  315MOL0     C42413   2.196  -0.737   4.425 -0.5696  0.0941 -0.4138
  315MOL0     O42414   2.100  -0.815   4.345 -0.4097  0.3426  0.1425
  315MOL0     C42415   2.005  -0.879   4.413  0.2619  0.4281  0.0008
  315MOL0     C42416   1.932  -0.819   4.521 -0.1066 -0.5943 -0.3521
  315MOL0     C42417   1.824  -0.882   4.587  0.5033 -0.1260 -0.0632
  315MOL0     C42418   1.756  -0.818   4.705  0.4752  0.0527  0.4727
  315MOL0     C42419   1.794  -1.014   4.547  0.2714  0.1015  0.1840
  315MOL0     C42420   1.678  -1.098   4.610 -0.4946 -0.9268 -0.2323
  315MOL0     O42421   1.642  -1.071   4.739 -0.3737  0.0530  0.4503
  315MOL0     C42422   1.515  -1.097   4.793  0.1716  1.0210  0.1625
  315MOL0     C42423   1.395  -1.066   4.726  0.6032  0.1332 -0.0080
  315MOL0     C42424   1.275  -1.072   4.797  0.1451  0.8348  0.1311
  315MOL0     C42425   1.269  -1.122   4.934  0.0659  0.3617  0.4844
  315MOL0     O42426   1.142  -1.129   4.989 -0.8053 -0.5114 -0.4727
  315MOL0     C42427   1.133  -1.136   5.131 -0.7847  0.1856  0.0367
  315MOL0     C42428   0.981  -1.118   5.172 -0.9480  0.3718  0.2585
  315MOL0     C42429   0.965  -1.125   5.328 -0.1243 -0.7180  0.2704
  315MOL0     C42430   0.971  -0.990   5.403 -0.3964  0.9013  0.2648
  315MOL0     C42431   0.903  -0.989   5.545 -0.1670 -0.2088 -0.4706
  315MOL0     C42432   0.754  -1.028   5.564 -0.3488 -0.9152 -1.0286
  315MOL0     C42433   0.719  -1.012   5.708 -0.4341 -0.5285 -0.1568
  315MOL0     C42434   0.572  -1.034   5.734  0.8538  0.5393 -0.2800
  315MOL0    Cl42435   0.489  -1.182   5.663 -0.2258  0.0380  0.1897
  315MOL0     C42436   1.392  -1.158   4.996 -0.2329 -0.2575 -0.0983
  315MOL0     C42437   1.511  -1.147   4.921  0.0092  0.2944 -0.6915
  315MOL0     O42438   1.627  -1.180   4.540 -0.0706  0.7188  0.0635
  315MOL0     C42439   1.877  -1.076   4.447  0.2313 -0.0992 -0.0941
  315MOL0     C42440   1.979  -1.006   4.378  0.3580  0.0858  0.6449
  315MOL0     N42441   2.344  -0.443   4.310 -0.4021 -0.4274  0.0505
  315MOL0     N42442   2.420  -0.354   4.378 -0.6918  0.0654 -0.0450
  315MOL0     C42443   3.642   0.066   4.441 -0.0813  0.7639  0.2148
  315MOL0     C42444   3.729   0.168   4.477  0.5707 -0.0981 -0.0249
  315MOL0     C42445   3.956   0.451   4.725  0.1630  0.1256 -0.4645
  315MOL0     C42446   3.986   0.493   4.853 -0.2483  0.1029 -0.2227
  315MOL0     C42447   4.116   0.546   4.882  0.0052 -0.2355  0.7878
  315MOL0     C42448   4.210   0.554   4.781  0.1165  0.4667  0.2469
  315MOL0     O42449   4.338   0.598   4.790  0.5500  0.2445 -0.4949
  315MOL0     C42450   4.377   0.668   4.905  0.0846  0.1798  0.9588
  315MOL0     C42451   4.503   0.752   4.869  0.3516 -0.4120  0.3303
  315MOL0     C42452   4.608   0.652   4.798 -0.8658 -0.8909 -0.0819
  315MOL0     C42453   4.747   0.703   4.820 -0.1202 -0.9366  0.9156
  315MOL0     C42454   4.770   0.849   4.792  0.4909  1.1905  0.5155
  315MOL0     C42455   4.802   0.965   4.760 -0.7841 -0.0472 -0.8968
  315MOL0     C42456   4.177   0.515   4.651 -0.8087 -0.1079 -0.5414
  315MOL0     C42457   4.051   0.462   4.626  0.2644 -0.3233 -0.5336
  315MOL0     H42458   3.520   0.393   4.596  0.1808  0.6233  0.0500
  315MOL0     H42459   3.345   0.227   4.523  0.9013  1.9843  1.3947
  315MOL0     H42460   3.268   0.063   4.376 -1.8961  0.0688  2.6306
  315MOL0     H42461   3.274  -0.112   4.354 -2.0557 -0.3348  0.3500
  315MOL0     H42462   3.334  -0.105   4.603  1.6391 -0.6022 -2.5671
  315MOL0     H42463   3.249   0.048   4.621 -1.4989  0.2946 -2.3460
  315MOL0     H42464   3.116  -0.208   4.516  1.1713 -0.6696  0.5309
  315MOL0     H42465   3.066  -0.126   4.657 -2.8021  1.9079 -1.4929
  315MOL0     H42466   2.985   0.075   4.528 -0.4001  0.8192 -1.9188
  315MOL0     H42467   3.050   0.006   4.378 -1.3579 -0.6389 -0.8837
  315MOL0     H42468   2.818  -0.100   4.551 -0.7012  0.6679 -1.3295
  315MOL0     H42469   2.808  -0.026   4.392 -1.1005 -1.6403 -1.0658
  315MOL0     H42470   2.952  -0.205   4.299 -0.1721  0.3541  0.5133
  315MOL0     H42471   2.924  -0.298   4.448  1.8189  0.2830 -1.1907
  315MOL0     H42472   2.705  -0.180   4.268 -0.2289 -1.6512 -2.9791
  315MOL0     H42473   2.759  -0.335   4.238  0.0321  0.2869  0.5675
  315MOL0     H42474   2.631  -0.256   4.502 -1.5207 -1.5873  0.5457
  315MOL0     H42475   2.720  -0.402   4.488 -2.2586  0.2104  1.8843
  315MOL0     H42476   2.646  -0.574   4.279  2.2242 -0.4119  2.4154
  315MOL0     H42477   2.273  -0.639   4.170 -0.0724  2.0132 -0.4699
  315MOL0     H42478   2.415  -0.650   4.084 -3.2865  1.3978 -0.2953
  315MOL0     H42479   2.509  -0.805   4.286  0.3333 -2.7418 -3.1572
  315MOL0     H42480   2.359  -0.875   4.212  0.8650 -0.2694 -0.5700
  315MOL0     H42481   2.407  -0.717   4.471  0.1413  0.5148 -0.3583
  315MOL0     H42482   2.358  -0.884   4.448  1.0121 -0.0125 -0.3723
  315MOL0     H42483   2.198  -0.632   4.394  1.7078 -0.5155 -2.6811
  315MOL0     H42484   2.174  -0.741   4.532 -1.3840  2.6319 -0.4134
  315MOL0     H42485   1.943  -0.716   4.554 -1.3845  0.1140 -2.0123
  315MOL0     H42486   1.648  -0.830   4.719  0.5018 -0.0081  0.6272
  315MOL0     H42487   1.811  -0.851   4.794 -1.2838  1.4023  2.1532
  315MOL0     H42488   1.758  -0.708   4.706  1.4203  0.0758 -1.0970
  315MOL0     H42489   1.405  -1.046   4.620  1.1906 -2.4742 -0.5313
  315MOL0     H42490   1.181  -1.047   4.748 -0.5236 -1.6005  0.0485
  315MOL0     H42491   1.174  -1.232   5.164  3.6798  1.5351 -1.0141
  315MOL0     H42492   1.192  -1.058   5.178  0.5167 -0.3770 -0.6013
  315MOL0     H42493   0.942  -1.023   5.134  0.2096  1.5790  1.9660
  315MOL0     H42494   0.917  -1.198   5.133 -3.0468  1.2202  1.7684
  315MOL0     H42495   1.030  -1.197   5.378  0.5087 -0.3007  0.0579
  315MOL0     H42496   0.861  -1.156   5.339 -0.4491  0.3545  0.3931
  315MOL0     H42497   1.076  -0.965   5.419  0.2067  0.4537 -2.4320
  315MOL0     H42498   0.932  -0.908   5.342  2.8912  2.7567  0.4366
  315MOL0     H42499   0.924  -0.889   5.584  0.5252 -0.7904  0.6944
  315MOL0     H42500   0.952  -1.066   5.605  0.5232  1.0489  0.6343
  315MOL0     H42501   0.695  -0.959   5.504  0.7853 -0.0740 -1.2199
  315MOL0     H42502   0.729  -1.130   5.535 -0.7125 -1.1919  0.1913
  315MOL0     H42503   0.753  -0.912   5.736 -0.1769 -0.9408  1.1018
  315MOL0     H42504   0.769  -1.077   5.781 -1.0204 -0.3332  0.4274
  315MOL0     H42505   0.514  -0.945   5.709 -0.7679  0.1479  1.8306
  315MOL0     H42506   0.572  -1.046   5.843 -1.3496  0.7665 -0.2076
  315MOL0     H42507   1.384  -1.198   5.097  2.2167 -2.6578 -0.7418
  315MOL0     H42508   1.608  -1.162   4.965  0.3687 -2.2641 -2.1276
  315MOL0     H42509   1.859  -1.180   4.420 -0.8747  0.1805 -0.4865
  315MOL0     H42510   2.041  -1.053   4.303 -0.3137  0.8289 -0.3949
  315MOL0     H42511   3.676  -0.015   4.377  0.5955  2.5159 -1.7558
  315MOL0     H42512   3.834   0.169   4.448  0.1752  1.7924 -1.6493
  315MOL0     H42513   3.918   0.482   4.936  0.3063 -0.3414  0.1869
  315MOL0     H42514   4.132   0.584   4.982  3.8062  1.3791 -0.2318
  315MOL0     H42515   4.299   0.729   4.953 -0.0444  0.0153  0.9584
  315MOL0     H42516   4.407   0.598   4.983  0.2487 -1.3347 -0.4228
  315MOL0     H42517   4.548   0.798   4.957 -0.8336  0.8228  0.3270
  315MOL0     H42518   4.467   0.831   4.803 -1.5241 -2.8193 -1.7573
  315MOL0     H42519   4.569   0.656   4.696 -1.9351  1.4823  0.3448
  315MOL0     H42520   4.600   0.549   4.832 -1.5745 -1.7284 -2.5483
  315MOL0     H42521   4.812   0.636   4.763 -0.7747 -0.6775 -0.1456
  315MOL0     H42522   4.770   0.690   4.926  2.9147  2.9016  0.9887
  315MOL0     H42523   4.841   1.065   4.751  1.6728 -0.7875  0.7119
  315MOL0     H42524   4.252   0.537   4.575  0.4398  1.1248  0.9452
  315MOL0     H42525   4.036   0.428   4.525 -3.7706 -3.4524  0.8444
  316MOL0     O42526   6.969   9.228   2.241  0.1752  0.3166 -0.4379
  316MOL0     C42527   7.069   9.190   2.301  0.2006  0.8312  0.2241
  316MOL0     O42528   7.072   9.075   2.389  0.1696 -0.9923  0.6804
  316MOL0     C42529   6.968   8.996   2.415 -1.0378  0.6404 -0.4477
  316MOL0     C42530   7.014   8.879   2.476  0.2019  0.5131 -0.7246
  316MOL0     C42531   6.918   8.780   2.517  0.0951  0.2820 -1.3469
  316MOL0     C42532   6.779   8.789   2.489  0.2544 -0.3378  0.0691
  316MOL0     O42533   6.694   8.699   2.550 -0.1999 -0.4068  0.5580
  316MOL0     C42534   6.551   8.718   2.532  0.6654 -0.1552 -0.0374
  316MOL0     C42535   6.505   8.670   2.393  0.9084  0.0118  0.1653
  316MOL0     C42536   6.354   8.692   2.380  0.9615  0.5634 -0.7511
  316MOL0     C42537   6.265   8.557   2.408 -0.0322 -0.9691  0.0491
  316MOL0     C42538   6.112   8.583   2.388  0.1505 -0.2977 -0.2560
  316MOL0     C42539   6.026   8.491   2.479  0.2702  0.1048 -0.0524
  316MOL0     C42540   5.881   8.511   2.468 -0.2103 -0.0229 -0.8939
  316MOL0     C42541   5.832   8.642   2.532 -0.7750  0.2954  0.4431
  316MOL0     N42542   5.687   8.635   2.551  0.3024 -0.1719  0.1555
  316MOL0     C42543   5.620   8.651   2.670 -0.0135 -0.1382  0.0110
  316MOL0     C42544   5.493   8.629   2.640 -0.1399 -0.1508  0.6676
  316MOL0     C42545   5.383   8.627   2.746  0.0072  1.2065  0.3605
  316MOL0     C42546   5.250   8.573   2.690  0.1170  0.1850  0.1289
  316MOL0     C42547   5.145   8.565   2.803 -0.3412  0.0257  0.1418
  316MOL0     C42548   5.010   8.524   2.750  0.7996 -0.0906 -0.4368
  316MOL0     O42549   4.912   8.545   2.850  0.0808 -0.3931  0.2692
  316MOL0     C42550   4.803   8.469   2.836  0.1331 -0.1851 -0.0303
  316MOL0     C42551   4.746   8.376   2.933 -0.0882 -0.0720  0.2773
  316MOL0     C42552   4.630   8.297   2.914  0.2040 -0.1481 -0.2610
  316MOL0     C42553   4.575   8.219   3.034 -1.0389 -0.5914 -0.0986
  316MOL0     C42554   4.558   8.307   2.790 -0.3543 -0.1640 -0.8692
  316MOL0     C42555   4.436   8.218   2.749  0.5002 -0.0716  1.0199
  316MOL0     O42556   4.374   8.247   2.632  0.1903  0.0306  0.5168
  316MOL0     C42557   4.278   8.156   2.588  0.2933 -0.2367 -0.5798
  316MOL0     C42558   4.148   8.206   2.555  0.7025 -1.0373 -0.0013
  316MOL0     C42559   4.056   8.127   2.491  0.0541  0.1390  0.7350
  316MOL0     C42560   4.075   7.997   2.452 -0.3582  0.3195 -0.6207
  316MOL0     O42561   3.969   7.929   2.395 -0.3195 -0.7138  0.5890
  316MOL0     C42562   4.000   7.828   2.300  0.5370 -0.3474 -0.1308
  316MOL0     C42563   3.872   7.771   2.246 -0.0147  1.5623  0.7654
  316MOL0     C42564   3.894   7.636   2.171 -0.2961 -0.1684  0.6685
  316MOL0     C42565   3.761   7.582   2.126 -0.1185  0.9131 -0.6394
  316MOL0     C42566   3.788   7.453   2.041  0.6406  0.2149  0.6266
  316MOL0     C42567   3.661   7.365   2.051 -0.7756 -0.0644  0.4310
  316MOL0     C42568   3.547   7.406   1.963 -0.2181 -0.3885 -0.2332
  316MOL0     C42569   3.450   7.292   1.953 -0.3579  0.2561  0.1932
  316MOL0    Cl42570   3.309   7.354   1.869  0.5004 -0.0391  0.1848
  316MOL0     C42571   4.200   7.946   2.474  0.7633 -0.1516 -1.0050
  316MOL0     C42572   4.303   8.021   2.549  0.6204  0.1633  0.3386
  316MOL0     O42573   4.405   8.127   2.823  0.0592  0.4748 -0.7737
  316MOL0     C42574   4.606   8.406   2.695 -1.1793  0.0359 -0.7423
  316MOL0     C42575   4.725   8.478   2.717 -0.4869 -0.4320 -0.1803
  316MOL0     N42576   5.475   8.603   2.502  0.1245  0.3961 -0.0007
  316MOL0     N42577   5.592   8.598   2.452 -0.5404  0.4043 -0.3472
  316MOL0     C42578   6.740   8.907   2.416  0.1732  0.1918 -0.0848
  316MOL0     C42579   6.831   9.008   2.376 -1.7288 -0.0367 -0.4444
  316MOL0     C42580   7.195   9.260   2.278 -0.4876  0.2923 -0.0440
  316MOL0     C42581   7.229   9.312   2.156  1.1427 -1.0150  0.1572
  316MOL0     C42582   7.355   9.379   2.132  0.0849 -0.4991 -0.6795
  316MOL0     C42583   7.447   9.393   2.244 -0.5009  0.2621 -0.5440
  316MOL0     O42584   7.572   9.460   2.246 -0.9431 -0.3291  0.6113
  316MOL0     C42585   7.606   9.532   2.126  0.1237 -0.0936 -0.0611
  316MOL0     C42586   7.748   9.595   2.128 -0.0930  0.0640  0.7179
  316MOL0     C42587   7.772   9.674   1.996  0.8451  0.7221 -0.0709
  316MOL0     C42588   7.877   9.785   2.007  0.7620  0.2518  0.7855
  316MOL0     C42589   7.939   9.812   1.878 -0.0590  0.0584  0.0569
  316MOL0     C42590   7.976   9.842   1.768  0.1752 -0.4199  0.4234
  316MOL0     C42591   7.414   9.340   2.365 -0.5256  0.2418 -0.5681
  316MOL0     C42592   7.294   9.269   2.383  0.2585 -1.3702 -0.6464
  316MOL0     H42593   7.119   8.870   2.502 -0.1806  2.2002  1.9167
  316MOL0     H42594   6.947   8.692   2.575  0.4083  1.5294  0.4674
  316MOL0     H42595   6.502   8.655   2.606  0.3813 -0.8393 -0.7852
  316MOL0     H42596   6.516   8.819   2.557 -1.1356 -0.4008 -1.3082
  316MOL0     H42597   6.549   8.734   2.315  0.1366 -0.0970 -0.3702
  316MOL0     H42598   6.544   8.572   2.364  0.2040 -1.3865  3.5122
  316MOL0     H42599   6.318   8.766   2.452 -0.3177  1.3674 -2.1465
  316MOL0     H42600   6.338   8.725   2.277 -2.0650 -2.1549 -1.3091
  316MOL0     H42601   6.304   8.473   2.350  4.3331 -0.3754  1.7209
  316MOL0     H42602   6.281   8.525   2.511 -1.4396  1.5961  1.1547
  316MOL0     H42603   6.101   8.690   2.411  3.5821 -0.1338  1.1064
  316MOL0     H42604   6.089   8.582   2.280  0.1184 -1.9728 -0.2626
  316MOL0     H42605   6.058   8.387   2.464 -1.1856 -0.7688  2.3153
  316MOL0     H42606   6.054   8.517   2.582  0.7407  0.4741 -0.2668
  316MOL0     H42607   5.846   8.512   2.364  0.9161  1.1268 -1.2993
  316MOL0     H42608   5.823   8.441   2.528 -0.7792  3.0189  2.4804
  316MOL0     H42609   5.854   8.730   2.471  3.6871 -1.9909 -1.6273
  316MOL0     H42610   5.875   8.665   2.630  0.9394 -2.3358  0.3803
  316MOL0     H42611   5.660   8.660   2.771 -0.1898 -3.1662  0.4291
  316MOL0     H42612   5.420   8.561   2.826  0.5799 -1.4281 -1.9245
  316MOL0     H42613   5.362   8.730   2.774 -1.6960  1.4790 -1.6849
  316MOL0     H42614   5.261   8.471   2.653 -0.0602  0.5819 -1.0479
  316MOL0     H42615   5.224   8.625   2.598 -1.6491 -1.8644 -0.6320
  316MOL0     H42616   5.134   8.659   2.858 -0.3949 -0.4135  0.9113
  316MOL0     H42617   5.181   8.493   2.877 -2.5775 -1.0815  0.2261
  316MOL0     H42618   5.005   8.420   2.715  1.9517  0.2494 -1.6552
  316MOL0     H42619   4.974   8.581   2.664 -2.3445 -1.0018  0.1177
  316MOL0     H42620   4.783   8.382   3.035 -2.5468  0.1724  1.2157
  316MOL0     H42621   4.632   8.243   3.123 -0.6822  0.6122 -0.6337
  316MOL0     H42622   4.473   8.252   3.059 -0.0430  1.1424  1.9753
  316MOL0     H42623   4.585   8.114   3.003 -1.3858 -0.2437 -1.5018
  316MOL0     H42624   4.113   8.302   2.593  0.2599 -1.1855 -0.0356
  316MOL0     H42625   3.956   8.169   2.481  0.7276  1.1304 -3.6803
  316MOL0     H42626   4.047   7.876   2.213  1.8428 -0.9569  0.2093
  316MOL0     H42627   4.063   7.745   2.334  4.8254  1.3650 -3.0338
  316MOL0     H42628   3.797   7.745   2.321 -0.2860 -0.3130 -0.0944
  316MOL0     H42629   3.820   7.842   2.180  0.1223 -0.6492 -1.9477
  316MOL0     H42630   3.945   7.562   2.233 -1.5784 -0.2838  1.6259
  316MOL0     H42631   3.955   7.662   2.084  0.1813 -0.4669  0.9109
  316MOL0     H42632   3.701   7.570   2.216  0.6091  1.2588 -0.0942
  316MOL0     H42633   3.713   7.659   2.065  2.6561  2.9102 -0.4733
  316MOL0     H42634   3.874   7.401   2.085  2.7418  4.5900  2.3498
  316MOL0     H42635   3.803   7.462   1.934 -2.5119 -1.3236 -0.0621
  316MOL0     H42636   3.693   7.269   2.009  0.1691  0.4845 -0.1300
  316MOL0     H42637   3.631   7.358   2.157 -1.5391  0.2864  0.2441
  316MOL0     H42638   3.599   7.434   1.871  0.7955  0.0834  0.4678
  316MOL0     H42639   3.502   7.499   1.998 -0.4144 -0.3415 -0.6012
  316MOL0     H42640   3.410   7.250   2.046 -0.9879  0.6783  0.1184
  316MOL0     H42641   3.494   7.212   1.893  2.1834 -0.1669  2.4590
  316MOL0     H42642   4.238   7.855   2.430  0.5313 -0.8748  0.2367
  316MOL0     H42643   4.405   7.983   2.549  0.0810 -1.3813 -0.1886
  316MOL0     H42644   4.551   8.423   2.603 -0.3664  1.0291 -1.0657
  316MOL0     H42645   4.749   8.551   2.640 -2.9389 -2.5104 -3.2080
  316MOL0     H42646   6.635   8.918   2.388 -0.5873 -5.0002 -0.2155
  316MOL0     H42647   6.793   9.092   2.320 -1.1283  0.0734 -0.6924
  316MOL0     H42648   7.158   9.298   2.074  0.9252  1.2179 -0.0984
  316MOL0     H42649   7.377   9.417   2.033  0.2641  0.5926 -0.2292
  316MOL0     H42650   7.599   9.467   2.038 -1.5652 -2.0215  1.4095
  316MOL0     H42651   7.541   9.619   2.112  0.8662  0.7184  1.2148
  316MOL0     H42652   7.819   9.512   2.141 -1.3139 -1.3767 -1.2423
  316MOL0     H42653   7.749   9.656   2.219 -0.1744 -0.1358  0.8552
  316MOL0     H42654   7.676   9.708   1.956  0.4450 -1.6532 -1.3301
  316MOL0     H42655   7.814   9.606   1.921  2.5267  1.9532 -0.3076
  316MOL0     H42656   7.952   9.760   2.082  0.0915 -0.1649  1.3218
  316MOL0     H42657   7.821   9.875   2.034 -0.2284  0.5053 -1.8221
  316MOL0     H42658   8.020   9.880   1.677 -0.3175  0.1160  0.4042
  316MOL0     H42659   7.489   9.345   2.443 -0.2145  2.0310 -0.9394
  316MOL0     H42660   7.267   9.226   2.479 -0.9535 -1.7357 -1.1342
  317MOL0     O42661   6.163   9.408   8.159  0.2583 -0.9106 -0.1118
  317MOL0     C42662   6.234   9.399   8.259  0.9154  0.6709  0.5485
  317MOL0     O42663   6.207   9.334   8.377  0.0514 -0.1856  0.2331
  317MOL0     C42664   6.096   9.262   8.393 -0.6778  0.9991 -1.2073
  317MOL0     C42665   6.074   9.141   8.327 -0.4309  0.7395  1.0718
  317MOL0     C42666   5.950   9.075   8.330 -0.0946 -0.2200 -0.4251
  317MOL0     C42667   5.841   9.126   8.408  0.9293 -0.3477 -0.2597
  317MOL0     O42668   5.731   9.051   8.427  0.2547 -0.1314  0.4053
  317MOL0     C42669   5.661   9.049   8.547  0.3922 -0.1425 -0.4381
  317MOL0     C42670   5.576   8.915   8.541 -0.5366 -0.2834  0.3505
  317MOL0     C42671   5.500   8.907   8.679 -0.3731  0.4483 -0.2673
  317MOL0     C42672   5.587   8.815   8.778 -0.8381 -0.3241 -1.2459
  317MOL0     C42673   5.540   8.804   8.921 -0.1898 -0.9687 -0.1013
  317MOL0     C42674   5.535   8.940   8.983 -0.4608  0.2045 -0.3716
  317MOL0     C42675   5.549   8.949   9.133  0.4364  0.6616 -0.6042
  317MOL0     C42676   5.445   8.863   9.208 -0.5433 -0.4716  0.2632
  317MOL0     N42677   5.429   8.906   9.345 -0.5052 -0.3905  0.7385
  317MOL0     C42678   5.328   8.997   9.380  0.1627 -0.1831 -1.0447
  317MOL0     C42679   5.373   9.053   9.491  0.4441 -0.8778 -0.1152
  317MOL0     C42680   5.302   9.180   9.539  0.1613 -0.0606 -0.1740
  317MOL0     C42681   5.328   9.296   9.441  0.0980  0.5445  0.4143
  317MOL0     C42682   5.289   9.440   9.480  0.3674  0.8220  0.1435
  317MOL0     C42683   5.138   9.442   9.525 -0.0546  0.8702 -0.2901
  317MOL0     O42684   5.055   9.429   9.412  0.0663 -0.1718 -0.4434
  317MOL0     C42685   4.926   9.468   9.427  0.8231  0.0408 -0.0388
  317MOL0     C42686   4.859   9.471   9.549 -0.5947 -0.0163 -0.0884
  317MOL0     C42687   4.719   9.514   9.555 -0.3650 -0.2615  0.5464
  317MOL0     C42688   4.655   9.524   9.692 -0.4169  0.1935 -0.1359
  317MOL0     C42689   4.655   9.551   9.432 -0.9523  0.9752 -0.1016
  317MOL0     C42690   4.509   9.590   9.422  0.5512 -0.3522  0.0498
  317MOL0     O42691   4.419   9.570   9.525  0.3801  0.7521  0.0218
  317MOL0     C42692   4.287   9.615   9.512 -1.1836  0.2551 -0.6822
  317MOL0     C42693   4.189   9.550   9.446  0.7049  0.9611  0.8305
  317MOL0     C42694   4.067   9.606   9.430  0.1114 -0.0281 -1.0023
  317MOL0     C42695   4.035   9.731   9.482  1.5097  0.3355 -0.0670
  317MOL0     O42696   3.919   9.794   9.460  0.4829 -0.8430  0.4625
  317MOL0     C42697   3.817   9.745   9.370  0.1894 -0.0115  0.1649
  317MOL0     C42698   3.708   9.843   9.349  0.4945 -0.8045 -0.6337
  317MOL0     C42699   3.641   9.890   9.475 -0.8232 -0.1724 -0.7605
  317MOL0     C42700   3.547  10.001   9.441 -0.3405  0.2189  0.6304
  317MOL0     C42701   3.467  10.055   9.568  0.5572 -0.0826  0.8134
  317MOL0     C42702   3.390   9.935   9.630  0.8366 -0.2688 -0.5245
  317MOL0     C42703   3.286   9.884   9.528 -0.2100  0.5816  0.5918
  317MOL0     C42704   3.201   9.761   9.580  0.0422 -0.2239  0.5052
  317MOL0    Cl42705   3.093   9.824   9.698 -0.4505 -0.4279  0.4849
  317MOL0     C42706   4.129   9.791   9.556  0.3190 -0.3661  0.5617
  317MOL0     C42707   4.256   9.737   9.570  0.0278 -0.0137  0.1060
  317MOL0     O42708   4.464   9.627   9.314 -0.3739 -0.2096 -0.6189
  317MOL0     C42709   4.725   9.549   9.310  0.5928  0.1263  0.7977
  317MOL0     C42710   4.857   9.508   9.312  0.4307  0.9651 -0.2631
  317MOL0     N42711   5.492   9.000   9.531  0.0943 -0.2733  0.6892
  317MOL0     N42712   5.526   8.918   9.439  0.0398 -0.2921  0.2446
  317MOL0     C42713   5.877   9.239   8.492  0.7920 -0.6471  0.2210
  317MOL0     C42714   5.992   9.301   8.481 -0.5659  0.0434 -0.5079
  317MOL0     C42715   6.371   9.452   8.246  0.0594 -0.1915  0.1142
  317MOL0     C42716   6.412   9.531   8.140 -0.3571  0.3104 -0.3154
  317MOL0     C42717   6.538   9.591   8.130 -0.0500  0.1217 -0.5503
  317MOL0     C42718   6.628   9.577   8.236 -0.1359 -0.2068  1.2480
  317MOL0     O42719   6.755   9.626   8.257  0.2575  0.3866 -0.0082
  317MOL0     C42720   6.811   9.689   8.138 -0.8214  0.4299  0.4280
  317MOL0     C42721   6.952   9.748   8.155  0.1632 -0.0842 -0.2187
  317MOL0     C42722   6.930   9.870   8.250 -0.0361  0.0893 -0.1409
  317MOL0     C42723   7.058   9.950   8.280  0.5811  0.2622 -0.6224
  317MOL0     C42724   7.026  10.084   8.328  0.0962 -0.1393  0.4821
  317MOL0     C42725   7.005  10.207   8.339  0.5126 -0.4388  0.2391
  317MOL0     C42726   6.596   9.489   8.337 -0.4807  0.5844  0.1643
  317MOL0     C42727   6.466   9.437   8.348  0.3259 -0.1684  0.2884
  317MOL0     H42728   6.152   9.109   8.259  0.3175 -0.2804  2.3643
  317MOL0     H42729   5.912   8.987   8.279 -0.6304 -0.6119  0.6122
  317MOL0     H42730   5.734   9.044   8.628  0.3955  0.7273 -0.3777
  317MOL0     H42731   5.597   9.136   8.562 -1.6309 -1.6356  0.0468
  317MOL0     H42732   5.505   8.915   8.458  1.1027 -3.8150 -1.2562
  317MOL0     H42733   5.640   8.826   8.532  2.7415  2.1190 -3.8672
  317MOL0     H42734   5.489   9.011   8.709  2.9982  0.7888  0.2255
  317MOL0     H42735   5.398   8.867   8.675 -0.3837  0.4862 -0.3741
  317MOL0     H42736   5.603   8.715   8.738 -0.7754 -0.4940 -0.7939
  317MOL0     H42737   5.687   8.861   8.771 -0.8826 -0.3936 -2.6862
  317MOL0     H42738   5.441   8.757   8.924 -1.3181  1.2459 -0.6310
  317MOL0     H42739   5.603   8.732   8.974 -1.8939  0.2077  3.8523
  317MOL0     H42740   5.619   8.997   8.941 -0.6717  0.8947  0.1378
  317MOL0     H42741   5.439   8.988   8.962 -0.7845 -0.2465  0.0830
  317MOL0     H42742   5.648   8.921   9.170  0.6014  0.0082 -1.4932
  317MOL0     H42743   5.521   9.051   9.163 -0.0377  0.9356 -1.8957
  317MOL0     H42744   5.475   8.758   9.202 -1.4721 -0.6462 -2.3738
  317MOL0     H42745   5.346   8.862   9.162 -2.1711 -0.5945  3.4858
  317MOL0     H42746   5.237   9.018   9.325 -0.5822  2.2904  0.9481
  317MOL0     H42747   5.195   9.156   9.538  0.0794  0.2944 -0.0081
  317MOL0     H42748   5.335   9.214   9.638 -1.3721 -1.9881  1.0854
  317MOL0     H42749   5.284   9.288   9.341 -0.2456  0.8265  0.5420
  317MOL0     H42750   5.437   9.301   9.430  0.3768 -2.2103  1.2491
  317MOL0     H42751   5.304   9.511   9.399 -1.8416 -1.0096 -2.0477
  317MOL0     H42752   5.351   9.467   9.566  1.6996 -0.0336 -0.5181
  317MOL0     H42753   5.121   9.537   9.578 -0.1726  1.6091 -1.6063
  317MOL0     H42754   5.126   9.368   9.604  0.0305  3.6674  2.5835
  317MOL0     H42755   4.919   9.442   9.635  1.1041 -3.0636 -2.1225
  317MOL0     H42756   4.625   9.628   9.706 -0.3967  0.2938 -0.8047
  317MOL0     H42757   4.563   9.466   9.695 -2.9029  3.8328 -0.4894
  317MOL0     H42758   4.722   9.485   9.770  0.5523  1.7211 -0.1644
  317MOL0     H42759   4.207   9.453   9.402  3.3188  2.0109 -0.6107
  317MOL0     H42760   3.990   9.552   9.376 -0.9402  0.1178  0.3171
  317MOL0     H42761   3.860   9.718   9.273  0.3814 -0.0905  0.2710
  317MOL0     H42762   3.780   9.649   9.407  1.1178 -0.1026  0.9046
  317MOL0     H42763   3.768   9.927   9.313 -0.3154  0.4310  0.7516
  317MOL0     H42764   3.648   9.797   9.270  0.6348  0.7623 -1.6921
  317MOL0     H42765   3.716   9.934   9.541  1.0418 -1.7575 -1.7086
  317MOL0     H42766   3.587   9.810   9.525 -0.1710  0.9712  1.9511
  317MOL0     H42767   3.601  10.088   9.403 -0.6794 -0.6849 -2.0764
  317MOL0     H42768   3.479   9.977   9.360 -0.7550  2.5364  0.2333
  317MOL0     H42769   3.397  10.136   9.546  1.1412  0.3843  0.6248
  317MOL0     H42770   3.528  10.093   9.651 -0.0627  1.8696  0.4156
  317MOL0     H42771   3.459   9.857   9.662  0.5381 -1.0760 -1.7875
  317MOL0     H42772   3.337   9.971   9.718  1.1900  1.5699 -1.0145
  317MOL0     H42773   3.339   9.839   9.443 -0.7660 -0.3657  0.7373
  317MOL0     H42774   3.218   9.965   9.500  0.8728  1.2463 -0.2195
  317MOL0     H42775   3.273   9.693   9.626  1.9014  1.2389 -0.1231
  317MOL0     H42776   3.154   9.711   9.495 -2.5778 -0.9039  2.2601
  317MOL0     H42777   4.092   9.879   9.607 -1.1836 -0.2027 -0.7302
  317MOL0     H42778   4.328   9.786   9.633  0.6586 -1.3230  0.4374
  317MOL0     H42779   4.680   9.571   9.214  1.5868 -0.7740  0.1027
  317MOL0     H42780   4.910   9.484   9.221  0.8403 -0.0182  0.2110
  317MOL0     H42781   5.801   9.274   8.561  0.7248  0.5823 -0.4377
  317MOL0     H42782   6.018   9.370   8.561 -2.0282  0.1002 -0.0621
  317MOL0     H42783   6.337   9.528   8.062 -1.5914 -4.6611  0.6759
  317MOL0     H42784   6.556   9.657   8.045  0.5427 -0.0639 -0.5726
  317MOL0     H42785   6.813   9.602   8.071 -2.5513  1.0683 -0.5205
  317MOL0     H42786   6.735   9.759   8.103 -0.4984  1.3468  1.4985
  317MOL0     H42787   6.979   9.778   8.054  1.1426 -0.6337 -0.1322
  317MOL0     H42788   7.034   9.681   8.185  2.3725  3.6089  2.8815
  317MOL0     H42789   6.877   9.847   8.342 -0.4722  0.8907 -0.1834
  317MOL0     H42790   6.866   9.945   8.203 -1.0944 -0.3386  0.5952
  317MOL0     H42791   7.112   9.964   8.187  0.1455 -1.0851 -1.1044
  317MOL0     H42792   7.117   9.889   8.349  0.5237 -1.4358 -2.0051
  317MOL0     H42793   6.998  10.314   8.339 -3.7615 -0.5129 -2.6901
  317MOL0     H42794   6.669   9.466   8.414  1.0121  2.8321 -0.4681
  317MOL0     H42795   6.445   9.373   8.434 -0.4854  0.8989  0.9073
  318MOL0     O42796   3.144   7.002   7.531  0.0212  0.2987  0.3665
  318MOL0     C42797   3.181   7.085   7.609  0.1505  0.4507  0.4143
  318MOL0     O42798   3.102   7.184   7.672  0.6047 -0.1645 -0.2502
  318MOL0     C42799   2.970   7.215   7.641 -0.1745  0.0683 -0.6056
  318MOL0     C42800   2.907   7.274   7.744  0.5009 -0.6062  0.4590
  318MOL0     C42801   2.780   7.325   7.736 -0.1176 -0.2478  0.0006
  318MOL0     C42802   2.709   7.308   7.614  0.1982 -0.2173 -0.1136
  318MOL0     O42803   2.585   7.359   7.614 -0.2253  0.7979  0.5457
  318MOL0     C42804   2.485   7.315   7.525  0.1307  1.0587  0.5221
  318MOL0     C42805   2.496   7.395   7.393  0.1596  0.2606  0.2907
  318MOL0     C42806   2.404   7.349   7.273 -1.6311 -0.0244 -0.1692
  318MOL0     C42807   2.252   7.341   7.299  0.0424  0.6822  0.1783
  318MOL0     C42808   2.203   7.288   7.159  0.2224 -0.2831 -0.2697
  318MOL0     C42809   2.057   7.328   7.142  0.6805  0.0446 -0.4601
  318MOL0     C42810   1.995   7.282   7.005 -0.5676  0.6834  0.3528
  318MOL0     C42811   1.987   7.401   6.903 -0.2393 -0.6872  0.4848
  318MOL0     N42812   2.114   7.428   6.836  0.4871  0.3017  0.4939
  318MOL0     C42813   2.141   7.361   6.715  0.4601 -0.5941  0.5485
  318MOL0     C42814   2.261   7.409   6.679  0.6865  0.5406  0.5578
  318MOL0     C42815   2.330   7.397   6.550  0.7013 -0.0056  0.1336
  318MOL0     C42816   2.376   7.537   6.488 -0.6119  0.6420 -0.4376
  318MOL0     C42817   2.451   7.520   6.364 -0.0192  0.2934  0.6906
  318MOL0     C42818   2.362   7.512   6.245  1.3267 -0.6334  0.0406
  318MOL0     O42819   2.345   7.379   6.198  0.7537  0.0681  0.0139
  318MOL0     C42820   2.245   7.350   6.099 -0.4833  0.1184 -0.6992
  318MOL0     C42821   2.229   7.213   6.059  0.0126  0.0801 -0.7080
  318MOL0     C42822   2.131   7.170   5.980 -0.4006  0.0531 -0.5763
  318MOL0     C42823   2.136   7.022   5.947 -0.2482  0.1124  0.7639
  318MOL0     C42824   2.030   7.264   5.943 -0.0041 -0.0650  0.0807
  318MOL0     C42825   1.912   7.224   5.865  0.2884  0.5128  0.1135
  318MOL0     O42826   1.865   7.093   5.866  0.4522 -0.5481 -0.1567
  318MOL0     C42827   1.749   7.056   5.805  0.4771 -0.4722 -0.4250
  318MOL0     C42828   1.738   6.921   5.767  0.4878  0.1792 -0.9389
  318MOL0     C42829   1.612   6.881   5.711  0.3216 -0.0769  0.7611
  318MOL0     C42830   1.501   6.972   5.682  0.4107 -0.2199 -0.1548
  318MOL0     O42831   1.393   6.930   5.612  0.5440 -0.3897  0.1122
  318MOL0     C42832   1.270   7.006   5.626  0.7531  0.2545 -0.2637
  318MOL0     C42833   1.155   6.926   5.570  0.7619  0.0840  0.0411
  318MOL0     C42834   1.022   6.964   5.638  0.5698 -0.0588  0.3425
  318MOL0     C42835   0.923   6.867   5.583  0.1303  0.2377 -0.0289
  318MOL0     C42836   0.809   6.841   5.686  0.3755 -0.7458  0.8414
  318MOL0     C42837   0.719   6.728   5.645  0.3607  0.9458 -0.2145
  318MOL0     C42838   0.670   6.746   5.499 -1.0688  0.1687 -0.3591
  318MOL0     C42839   0.575   6.638   5.455  0.4232 -0.5324 -0.8230
  318MOL0    Cl42840   0.415   6.713   5.497 -0.3286 -0.0629  0.3863
  318MOL0     C42841   1.515   7.096   5.744  0.1819 -0.6960  0.0950
  318MOL0     C42842   1.634   7.141   5.789 -0.4653  0.2146 -0.3966
  318MOL0     O42843   1.859   7.315   5.803 -0.3973  0.5277  0.1406
  318MOL0     C42844   2.046   7.405   5.975 -0.3329 -0.3558  0.0481
  318MOL0     C42845   2.154   7.444   6.050 -0.3810 -0.3494  0.2768
  318MOL0     N42846   2.309   7.495   6.779  0.6558 -0.1597 -0.4283
  318MOL0     N42847   2.215   7.511   6.873 -0.1898 -0.4251  0.1720
  318MOL0     C42848   2.768   7.230   7.512  0.0883 -0.3429 -0.0228
  318MOL0     C42849   2.900   7.192   7.526  1.0464  1.0730  0.1073
  318MOL0     C42850   3.317   7.074   7.656  0.0053  0.6084 -1.2669
  318MOL0     C42851   3.416   7.001   7.593 -1.1872  0.3111  0.2637
  318MOL0     C42852   3.545   6.989   7.641 -0.1608 -0.2078  0.3334
  318MOL0     C42853   3.577   7.061   7.760  0.0498 -0.1942 -0.0034
  318MOL0     O42854   3.700   7.060   7.816 -0.5444 -0.2703  0.2025
  318MOL0     C42855   3.807   6.972   7.769  0.3360 -0.0236  0.1289
  318MOL0     C42856   3.922   6.934   7.866  0.2757  0.5078 -0.4989
  318MOL0     C42857   4.036   6.849   7.791 -0.0602 -0.0033 -0.3776
  318MOL0     C42858   4.032   6.707   7.849 -0.2649 -0.5747  0.1151
  318MOL0     C42859   4.162   6.644   7.818  0.3654 -0.5907  0.6519
  318MOL0     C42860   4.272   6.598   7.806  0.0111 -0.0014  0.1691
  318MOL0     C42861   3.481   7.135   7.832  0.1277 -0.2591  0.0180
  318MOL0     C42862   3.357   7.151   7.775 -0.4091  0.7459  0.1040
  318MOL0     H42863   2.961   7.278   7.839  2.6588  0.6430 -0.7335
  318MOL0     H42864   2.736   7.363   7.827  0.1829 -3.0394  1.4444
  318MOL0     H42865   2.491   7.206   7.519 -0.6717  0.9760  1.0409
  318MOL0     H42866   2.396   7.347   7.581  0.0143  1.1807  0.2688
  318MOL0     H42867   2.464   7.498   7.410 -2.6865 -0.5627  0.4025
  318MOL0     H42868   2.598   7.392   7.354 -0.5488 -1.1931 -1.6401
  318MOL0     H42869   2.428   7.406   7.183  0.1752 -2.8248 -1.6065
  318MOL0     H42870   2.431   7.245   7.256  2.2260  0.6360  0.8761
  318MOL0     H42871   2.221   7.270   7.377  2.1337 -2.2783 -1.4844
  318MOL0     H42872   2.217   7.442   7.320  0.9661  0.9108  0.6236
  318MOL0     H42873   2.262   7.305   7.068  0.4351 -2.7120 -0.6462
  318MOL0     H42874   2.208   7.180   7.144  1.6992 -0.1140 -1.2920
  318MOL0     H42875   2.002   7.279   7.222  1.3737 -0.3186 -0.1933
  318MOL0     H42876   2.040   7.436   7.149  0.1213 -0.1244  1.0476
  318MOL0     H42877   2.052   7.197   6.967 -2.4604 -0.8835  0.9006
  318MOL0     H42878   1.890   7.251   7.011 -0.8323  1.3276 -0.6146
  318MOL0     H42879   1.948   7.489   6.954 -1.0297  0.0595 -1.3420
  318MOL0     H42880   1.913   7.373   6.828  0.1280  1.0034 -0.5628
  318MOL0     H42881   2.076   7.296   6.657 -0.0183  0.9159 -0.6788
  318MOL0     H42882   2.414   7.330   6.571  0.0150 -1.7868 -2.2711
  318MOL0     H42883   2.271   7.335   6.481  0.5303 -0.8178  0.9779
  318MOL0     H42884   2.434   7.597   6.558 -1.0065  1.4923 -0.8309
  318MOL0     H42885   2.289   7.600   6.466 -0.1769  2.2541  2.1414
  318MOL0     H42886   2.507   7.427   6.362  0.0481  0.3097 -2.7514
  318MOL0     H42887   2.524   7.601   6.354 -1.2006  1.4845  1.3574
  318MOL0     H42888   2.380   7.584   6.165  1.3663 -0.8283 -0.1275
  318MOL0     H42889   2.261   7.534   6.281  1.1011  2.0093 -1.9635
  318MOL0     H42890   2.310   7.146   6.083 -1.2553 -1.9398 -1.7810
  318MOL0     H42891   2.241   6.991   5.958  0.4633  1.5832 -1.3230
  318MOL0     H42892   2.066   6.972   6.014  2.5215 -0.0691  3.7652
  318MOL0     H42893   2.102   6.995   5.846 -0.8579  4.2998 -0.3335
  318MOL0     H42894   1.820   6.852   5.779 -0.2300 -0.3032  1.6409
  318MOL0     H42895   1.610   6.777   5.682 -2.3483  0.2570 -0.6921
  318MOL0     H42896   1.251   7.020   5.732 -0.3848 -2.5740  0.0037
  318MOL0     H42897   1.268   7.103   5.575  2.3509  0.3000 -0.2775
  318MOL0     H42898   1.146   6.936   5.461 -1.7734  0.0519  0.1884
  318MOL0     H42899   1.179   6.822   5.595  0.2801 -0.2994 -1.0388
  318MOL0     H42900   0.989   7.066   5.615 -1.0465 -0.7825 -0.7631
  318MOL0     H42901   1.018   6.958   5.747  1.2545 -1.3741  0.3147
  318MOL0     H42902   0.887   6.903   5.486 -0.8915 -1.9180 -0.5147
  318MOL0     H42903   0.974   6.771   5.568  0.9764  0.4598  1.2544
  318MOL0     H42904   0.748   6.929   5.705 -0.6636 -1.0145 -1.0561
  318MOL0     H42905   0.858   6.811   5.779 -0.3370  0.3696  1.6003
  318MOL0     H42906   0.765   6.633   5.674  2.6282  1.8391 -0.6628
  318MOL0     H42907   0.635   6.735   5.714  1.3283 -0.8394  1.2329
  318MOL0     H42908   0.759   6.739   5.435 -1.9104  0.0063 -1.5383
  318MOL0     H42909   0.633   6.845   5.471  1.5838  0.5026 -3.2951
  318MOL0     H42910   0.591   6.538   5.497 -3.5081 -1.0339 -0.1230
  318MOL0     H42911   0.577   6.619   5.348 -0.6925 -1.2926 -0.7366
  318MOL0     H42912   1.437   7.173   5.745  0.6349 -0.1944  2.3044
  318MOL0     H42913   1.630   7.242   5.828  2.1684  0.0259  0.5441
  318MOL0     H42914   1.967   7.478   5.962 -2.7891 -2.3753  2.3804
  318MOL0     H42915   2.175   7.548   6.073  3.1110 -0.4549 -1.7602
  318MOL0     H42916   2.709   7.193   7.429 -2.5095  2.1077  0.5907
  318MOL0     H42917   2.947   7.133   7.448  0.4467  0.3577  0.2732
  318MOL0     H42918   3.383   6.948   7.505 -0.2310 -0.2676  0.2413
  318MOL0     H42919   3.601   6.921   7.578 -0.6106 -1.8588  1.6466
  318MOL0     H42920   3.763   6.876   7.740  1.0046 -0.0446 -0.8654
  318MOL0     H42921   3.852   7.037   7.693  2.4533  1.3904  2.4492
  318MOL0     H42922   3.873   6.876   7.945 -0.4340  0.8688 -0.6727
  318MOL0     H42923   3.970   7.018   7.915  1.7503 -0.7881  0.3867
  318MOL0     H42924   4.128   6.906   7.805  0.3980 -0.6058 -0.8597
  318MOL0     H42925   4.020   6.841   7.683  1.4067 -0.4757 -0.5942
  318MOL0     H42926   3.948   6.659   7.799 -2.8616  2.6428  1.0650
  318MOL0     H42927   4.008   6.706   7.955  0.4187 -2.2132  0.2882
  318MOL0     H42928   4.373   6.561   7.802  0.8866  2.2919 -3.1769
  318MOL0     H42929   3.504   7.189   7.923 -2.0003 -1.1627  1.1647
  318MOL0     H42930   3.288   7.210   7.834 -0.4471  2.0901 -1.2247
  319MOL0     O42931   9.640   6.828   2.863  0.3964 -1.0712  0.0241
  319MOL0     C42932   9.671   6.946   2.835 -0.0259 -0.0636  0.0165
  319MOL0     O42933   9.596   7.060   2.836 -0.0602 -0.2528 -0.0802
  319MOL0     C42934   9.475   7.048   2.886  0.4880  0.1083 -0.5869
  319MOL0     C42935   9.447   7.111   3.011 -0.1474  0.5618 -0.4956
  319MOL0     C42936   9.325   7.106   3.075 -0.0301  0.3819 -0.6161
  319MOL0     C42937   9.225   7.033   3.015  0.5977 -0.3561 -0.7041
  319MOL0     O42938   9.104   7.017   3.088  0.2273 -0.4484 -0.0353
  319MOL0     C42939   8.990   6.982   3.005 -0.6177 -0.0132 -0.0723
  319MOL0     C42940   8.868   7.041   3.058 -0.0163 -0.0293 -0.0528
  319MOL0     C42941   8.751   7.017   2.960 -1.0186  0.2151  0.0580
  319MOL0     C42942   8.639   7.119   2.995 -0.3467  0.0763 -0.3333
  319MOL0     C42943   8.531   7.130   2.878  0.0487  0.4291 -0.1283
  319MOL0     C42944   8.432   7.236   2.932 -0.1050 -0.0999  0.1117
  319MOL0     C42945   8.349   7.299   2.823  0.0562 -0.5289  0.4343
  319MOL0     C42946   8.231   7.381   2.889  0.2830  0.8186  0.2219
  319MOL0     N42947   8.122   7.388   2.790 -0.4719 -0.0639 -0.5248
  319MOL0     C42948   8.036   7.286   2.743  0.9071  0.2427  0.2218
  319MOL0     C42949   7.982   7.334   2.629  0.0647 -0.7835  0.2392
  319MOL0     C42950   7.896   7.255   2.534  0.5492  0.5393  0.7417
  319MOL0     C42951   7.742   7.264   2.557  0.2785 -0.0147  0.6813
  319MOL0     C42952   7.708   7.159   2.670 -0.2434 -0.0977 -0.1499
  319MOL0     C42953   7.559   7.179   2.694 -0.8418 -0.2312  0.0509
  319MOL0     O42954   7.548   7.295   2.774 -0.9911 -0.5256 -0.5658
  319MOL0     C42955   7.421   7.338   2.810 -0.7448  0.3468 -0.0253
  319MOL0     C42956   7.302   7.266   2.796 -0.4920  0.8554  0.2170
  319MOL0     C42957   7.173   7.311   2.842 -0.4125  0.7614 -0.4310
  319MOL0     C42958   7.051   7.234   2.792 -0.4816 -0.1097 -0.4052
  319MOL0     C42959   7.168   7.425   2.924 -0.5670  0.1303  1.3061
  319MOL0     C42960   7.045   7.472   2.982 -0.8794  0.4255 -0.0769
  319MOL0     O42961   7.069   7.535   3.100 -0.7592 -0.1961  0.2200
  319MOL0     C42962   6.976   7.627   3.140  0.4618  0.6506  0.0237
  319MOL0     C42963   6.841   7.591   3.159 -0.2460 -0.7232  0.3412
  319MOL0     C42964   6.751   7.682   3.200  0.8625 -0.6090  0.2947
  319MOL0     C42965   6.782   7.813   3.232 -1.4795 -0.2377  0.2193
  319MOL0     O42966   6.691   7.915   3.269 -0.4285 -0.4744  0.1455
  319MOL0     C42967   6.548   7.896   3.238 -0.0183 -0.5562 -0.6112
  319MOL0     C42968   6.473   7.860   3.367 -0.4596 -0.2885 -0.6711
  319MOL0     C42969   6.339   7.810   3.332  0.1275  0.0679  0.3321
  319MOL0     C42970   6.244   7.808   3.450  0.3659 -0.1672 -0.3852
  319MOL0     C42971   6.105   7.749   3.423  0.2676 -0.4332  1.1848
  319MOL0     C42972   6.017   7.831   3.326 -0.0104  0.5664  0.3564
  319MOL0     C42973   5.872   7.789   3.322 -0.3445  0.2455  0.0137
  319MOL0     C42974   5.845   7.643   3.286  0.5092 -0.0073  0.7824
  319MOL0    Cl42975   5.659   7.625   3.267  0.0163 -0.5588 -0.0402
  319MOL0     C42976   6.919   7.845   3.226  0.1541  0.9024 -1.1241
  319MOL0     C42977   7.012   7.752   3.179 -0.0840 -0.3212 -0.1889
  319MOL0     O42978   6.942   7.470   2.914  0.1722 -0.2757 -0.0543
  319MOL0     C42979   7.284   7.499   2.932 -0.4903  0.1271  0.1320
  319MOL0     C42980   7.408   7.463   2.869  1.0350 -0.0069 -0.0754
  319MOL0     N42981   8.017   7.460   2.611  0.3509  0.3849  0.1100
  319MOL0     N42982   8.108   7.489   2.709  0.4411 -0.0900  0.0883
  319MOL0     C42983   9.249   6.963   2.893  0.8755 -0.5274 -0.1692
  319MOL0     C42984   9.371   6.978   2.828 -0.3605 -1.0321  0.1593
  319MOL0     C42985   9.808   6.970   2.796  0.5414 -0.3370 -0.5244
  319MOL0     C42986   9.848   7.107   2.782  0.5884 -0.3149 -0.1372
  319MOL0     C42987   9.984   7.138   2.754 -0.3776  0.1403  0.2905
  319MOL0     C42988  10.082   7.037   2.727 -0.0668 -0.6782 -0.3910
  319MOL0     O42989  10.212   7.065   2.698 -0.4052 -0.7766  0.5960
  319MOL0     C42990  10.242   7.195   2.637  0.3507  0.3330  0.3855
  319MOL0     C42991  10.379   7.201   2.577  0.2765  0.3301  0.1954
  319MOL0     C42992  10.482   7.146   2.672  0.0761 -0.2008  0.2775
  319MOL0     C42993  10.603   7.098   2.588 -0.6900  0.3910  0.6073
  319MOL0     C42994  10.690   7.033   2.687  0.2030 -0.3813  1.1560
  319MOL0     C42995  10.777   7.016   2.762  0.1455  0.0492 -0.1151
  319MOL0     C42996  10.036   6.903   2.737  0.0333 -0.8691 -0.6976
  319MOL0     C42997   9.903   6.871   2.768 -0.8677 -0.2798 -0.8408
  319MOL0     H42998   9.531   7.170   3.047 -1.8071  3.0139 -0.4176
  319MOL0     H42999   9.303   7.166   3.163  0.8530  0.3883 -0.3959
  319MOL0     H43000   9.008   7.019   2.904  0.3339  0.3691  0.2153
  319MOL0     H43001   8.969   6.875   3.003 -1.5992  0.1776 -0.1138
  319MOL0     H43002   8.861   6.987   3.153 -1.1568 -2.8287 -1.6215
  319MOL0     H43003   8.884   7.147   3.081  0.7133 -0.2062  0.2771
  319MOL0     H43004   8.780   7.049   2.859 -0.9816 -0.5903 -0.1967
  319MOL0     H43005   8.722   6.912   2.962 -2.1044  0.4850 -0.5819
  319MOL0     H43006   8.599   7.093   3.093  1.9344  0.0842  0.6563
  319MOL0     H43007   8.682   7.215   3.023 -0.4932  0.0865 -0.1404
  319MOL0     H43008   8.578   7.169   2.787  2.4035  0.3453  0.9828
  319MOL0     H43009   8.486   7.032   2.865 -1.4619  1.0612  0.1427
  319MOL0     H43010   8.371   7.183   3.006  1.7961  0.5680  2.2859
  319MOL0     H43011   8.484   7.318   2.981 -0.0072 -0.2957  0.3397
  319MOL0     H43012   8.404   7.371   2.762 -0.3231 -0.5192  0.1048
  319MOL0     H43013   8.312   7.225   2.751  2.8311 -1.5547 -0.0772
  319MOL0     H43014   8.267   7.480   2.920  0.9357  0.0028  2.2559
  319MOL0     H43015   8.195   7.328   2.978 -2.2495  0.7762 -0.7485
  319MOL0     H43016   8.022   7.181   2.764 -1.6773 -0.2530 -3.1156
  319MOL0     H43017   7.939   7.270   2.435  2.4751 -0.3235  1.3979
  319MOL0     H43018   7.926   7.150   2.538 -1.0764 -0.0488 -0.8620
  319MOL0     H43019   7.691   7.238   2.464 -0.8052  0.1554  1.2127
  319MOL0     H43020   7.716   7.364   2.594  1.5600  0.4753  0.3195
  319MOL0     H43021   7.763   7.187   2.760 -2.7153 -0.3152  1.5146
  319MOL0     H43022   7.722   7.056   2.637 -0.3066 -0.1768  0.0730
  319MOL0     H43023   7.526   7.085   2.739 -1.0001 -1.0995 -1.7564
  319MOL0     H43024   7.496   7.193   2.605  0.6640  0.4552 -0.9638
  319MOL0     H43025   7.303   7.172   2.740  1.1406  0.8268  0.2620
  319MOL0     H43026   7.005   7.288   2.709  1.8796  2.0662 -0.4295
  319MOL0     H43027   7.078   7.134   2.758 -1.0240  0.1415 -1.6173
  319MOL0     H43028   6.978   7.225   2.873 -1.1611  0.5633 -0.9380
  319MOL0     H43029   6.810   7.487   3.153  0.2918 -0.8590 -0.1553
  319MOL0     H43030   6.651   7.643   3.215  0.5644  0.2502  0.5864
  319MOL0     H43031   6.509   7.990   3.199  3.0198  0.9937 -0.2167
  319MOL0     H43032   6.537   7.822   3.158  0.3655 -0.7034 -0.5328
  319MOL0     H43033   6.521   7.784   3.430  0.1931  2.3148  2.2492
  319MOL0     H43034   6.457   7.948   3.431 -2.9693  0.1032 -1.7357
  319MOL0     H43035   6.342   7.703   3.313 -3.8130 -0.1101 -0.1174
  319MOL0     H43036   6.291   7.860   3.247  0.6984 -0.7120 -0.4629
  319MOL0     H43037   6.294   7.750   3.528  0.2638 -0.4408 -0.5208
  319MOL0     H43038   6.231   7.912   3.482  3.5522  1.2201 -2.9923
  319MOL0     H43039   6.044   7.740   3.513 -0.9503 -1.1501  0.3133
  319MOL0     H43040   6.120   7.649   3.381 -2.2419  0.3349 -1.9674
  319MOL0     H43041   6.009   7.930   3.371  0.8900 -0.2437  2.4300
  319MOL0     H43042   6.070   7.837   3.230  1.0573 -2.1799  0.6766
  319MOL0     H43043   5.815   7.848   3.249 -0.7001 -2.5798 -2.1662
  319MOL0     H43044   5.831   7.794   3.423  2.1274  2.0858  1.0194
  319MOL0     H43045   5.888   7.568   3.353 -0.3594 -1.4880 -0.2544
  319MOL0     H43046   5.879   7.620   3.185  1.2277  1.0500  0.7670
  319MOL0     H43047   6.953   7.939   3.269 -0.1838 -0.3747  2.1850
  319MOL0     H43048   7.117   7.776   3.163  0.3168  0.0531  2.6103
  319MOL0     H43049   7.283   7.599   2.975  1.4518  0.7305 -1.1048
  319MOL0     H43050   7.490   7.533   2.877  0.1438  1.1847 -0.9520
  319MOL0     H43051   9.180   6.891   2.850  2.2724 -1.0808 -1.5879
  319MOL0     H43052   9.392   6.919   2.739 -2.7654  1.4997 -2.2913
  319MOL0     H43053   9.781   7.188   2.808  1.7845  0.7422 -0.2177
  319MOL0     H43054  10.029   7.237   2.762 -0.0067 -0.0965  1.4092
  319MOL0     H43055  10.171   7.221   2.559  0.4164 -0.2540  0.1202
  319MOL0     H43056  10.230   7.263   2.722 -1.2419  1.8831 -1.0049
  319MOL0     H43057  10.407   7.300   2.541 -3.4385  1.3098 -0.3846
  319MOL0     H43058  10.371   7.140   2.486 -2.4568  1.8438 -0.6710
  319MOL0     H43059  10.445   7.057   2.724  0.5317 -1.1152 -0.9243
  319MOL0     H43060  10.514   7.226   2.740 -0.8751  1.3860 -1.0659
  319MOL0     H43061  10.650   7.184   2.538 -2.5354  2.1270  1.6904
  319MOL0     H43062  10.567   7.021   2.519  2.6394 -0.2530 -0.5837
  319MOL0     H43063  10.854   7.002   2.835 -0.2650  1.9379  0.7149
  319MOL0     H43064  10.101   6.818   2.719  0.5881 -0.1892 -2.1307
  319MOL0     H43065   9.882   6.765   2.769 -3.0488 -0.0287 -3.9430
  320MOL0     O43066   9.665  10.051   7.370  0.1780 -0.2114 -0.0498
  320MOL0     C43067   9.649   9.938   7.333  0.0712 -0.7140 -0.3444
  320MOL0     O43068   9.532   9.873   7.348 -0.2994  0.0279  0.8362
  320MOL0     C43069   9.410   9.925   7.394  0.1318 -0.0740  0.1884
  320MOL0     C43070   9.301   9.834   7.395  0.2056 -0.1291 -0.8306
  320MOL0     C43071   9.179   9.875   7.427  0.2160  0.5072 -0.0007
  320MOL0     C43072   9.156  10.003   7.476  1.0373 -0.2138  0.2045
  320MOL0     O43073   9.026  10.030   7.516  0.0568 -0.3508  0.2506
  320MOL0     C43074   8.970  10.162   7.477 -0.0760  0.3376 -0.1688
  320MOL0     C43075   8.820  10.151   7.459  0.3565  0.2906  0.2701
  320MOL0     C43076   8.747  10.100   7.585 -1.0033 -0.4240  0.0258
  320MOL0     C43077   8.600  10.069   7.561 -0.8427 -0.6631 -0.2529
  320MOL0     C43078   8.587   9.932   7.516  0.7072  0.6910  0.1510
  320MOL0     C43079   8.455   9.894   7.446 -0.0800 -0.0263 -0.0891
  320MOL0     C43080   8.326   9.948   7.516 -0.1335 -0.4434 -0.1381
  320MOL0     C43081   8.205   9.857   7.491 -0.0192 -0.2622 -1.1655
  320MOL0     N43082   8.101   9.906   7.584 -0.4587 -0.0661  0.1558
  320MOL0     C43083   8.063   9.843   7.699  0.0768  0.6464 -0.0658
  320MOL0     C43084   7.949   9.909   7.730  0.9800  1.0249 -0.2480
  320MOL0     C43085   7.856   9.877   7.845  0.2048 -0.1753  0.4351
  320MOL0     C43086   7.711   9.822   7.824 -0.1957 -0.5758 -0.1305
  320MOL0     C43087   7.596   9.926   7.810  0.0732  0.3636  0.5363
  320MOL0     C43088   7.457   9.851   7.781  0.9522  0.9656 -0.0159
  320MOL0     O43089   7.352   9.938   7.811  0.3949  0.8505  0.8849
  320MOL0     C43090   7.221   9.900   7.806  0.8126  0.0105  0.6980
  320MOL0     C43091   7.138   9.989   7.870 -0.2638 -0.0924 -0.0155
  320MOL0     C43092   7.000   9.988   7.865  0.6119  0.2935 -0.4802
  320MOL0     C43093   6.911  10.100   7.922 -0.5293 -0.2545  0.1888
  320MOL0     C43094   6.946   9.873   7.789 -0.5328 -0.2526 -0.3767
  320MOL0     C43095   6.799   9.837   7.788  0.4895  0.6290 -0.1338
  320MOL0     O43096   6.746   9.764   7.680 -0.0228 -1.1110 -0.4670
  320MOL0     C43097   6.617   9.720   7.702 -0.3557  0.3353 -0.0860
  320MOL0     C43098   6.504   9.807   7.723 -0.7575 -0.1188 -0.2912
  320MOL0     C43099   6.376   9.747   7.736  0.3654  0.3267 -0.3115
  320MOL0     C43100   6.368   9.599   7.741 -0.5954 -0.1516  0.9497
  320MOL0     O43101   6.249   9.535   7.764 -0.1938 -0.0700  0.2427
  320MOL0     C43102   6.134   9.616   7.757 -0.5230  0.2211  1.0304
  320MOL0     C43103   5.999   9.545   7.763 -0.2263  0.0878 -0.9096
  320MOL0     C43104   5.988   9.450   7.876 -0.4863 -1.0436  0.8991
  320MOL0     C43105   5.858   9.376   7.854  0.0532  0.0688 -0.1539
  320MOL0     C43106   5.843   9.262   7.958 -0.4277 -0.5985 -0.1967
  320MOL0     C43107   5.714   9.195   7.936  0.0832 -0.2417 -0.6872
  320MOL0     C43108   5.706   9.091   8.044  0.2463  0.3836  0.6964
  320MOL0     C43109   5.564   9.020   8.042  0.5325 -0.4155 -0.4557
  320MOL0    Cl43110   5.584   8.859   8.117 -0.2565 -0.0610  0.0459
  320MOL0     C43111   6.481   9.518   7.711  0.3018  0.2330  0.2479
  320MOL0     C43112   6.601   9.585   7.702  0.0662 -0.3344  0.6068
  320MOL0     O43113   6.743   9.863   7.893  0.2831  0.8853 -0.3931
  320MOL0     C43114   7.030   9.780   7.721 -0.4712 -0.6269 -0.2982
  320MOL0     C43115   7.170   9.801   7.730  0.4343 -0.6695  0.3003
  320MOL0     N43116   7.935  10.018   7.654  0.7802 -0.6618 -0.1732
  320MOL0     N43117   8.029  10.022   7.572 -0.5032  0.2230  0.7331
  320MOL0     C43118   9.256  10.097   7.480 -1.0926  0.1526 -0.7943
  320MOL0     C43119   9.389  10.059   7.441  0.5529 -0.3853  0.1445
  320MOL0     C43120   9.763   9.869   7.255  0.3358 -0.5372 -0.2357
  320MOL0     C43121   9.846   9.957   7.185  0.1872 -0.2742 -0.1732
  320MOL0     C43122   9.952   9.911   7.110  0.7630 -0.2659  0.5026
  320MOL0     C43123   9.965   9.771   7.092 -0.3028 -0.0536 -0.5647
  320MOL0     O43124  10.047   9.709   7.002 -0.5334 -0.0734 -0.0284
  320MOL0     C43125  10.181   9.693   7.045 -0.7251  0.8876 -0.5157
  320MOL0     C43126  10.258   9.819   7.035  0.1001 -0.1220  0.6704
  320MOL0     C43127  10.392   9.814   7.107  0.5545 -0.7211  0.3446
  320MOL0     C43128  10.495   9.742   7.025 -0.2905 -0.1120  0.5879
  320MOL0     C43129  10.538   9.804   6.903 -0.3869  0.3076 -0.4968
  320MOL0     C43130  10.588   9.859   6.801  0.4480  0.3091 -0.6095
  320MOL0     C43131   9.893   9.683   7.172  0.2355 -0.2846 -0.6521
  320MOL0     C43132   9.785   9.731   7.250 -0.3526  0.6461 -0.3478
  320MOL0     H43133   9.328   9.736   7.357 -1.5041 -0.8076 -0.4112
  320MOL0     H43134   9.100   9.800   7.421  1.9472 -1.3765 -0.1958
  320MOL0     H43135   8.990  10.231   7.559 -1.3435 -0.0589  0.5121
  320MOL0     H43136   9.020  10.205   7.390  0.4441  0.4615  0.1901
  320MOL0     H43137   8.789  10.254   7.446  0.4877 -0.0488 -4.5935
  320MOL0     H43138   8.789  10.095   7.371 -0.4368 -0.0953  0.7798
  320MOL0     H43139   8.793  10.012   7.631  0.1033  0.2964  0.3220
  320MOL0     H43140   8.746  10.187   7.652  0.2317  0.8926 -1.5877
  320MOL0     H43141   8.536  10.089   7.647  0.3003 -1.6673  0.8679
  320MOL0     H43142   8.572  10.138   7.481  1.8116  0.1568 -0.5821
  320MOL0     H43143   8.674   9.913   7.453 -0.6820  1.7857 -2.2676
  320MOL0     H43144   8.583   9.873   7.608 -0.3486  0.8970  0.2479
  320MOL0     H43145   8.460   9.938   7.346 -0.0766 -0.0809 -0.1123
  320MOL0     H43146   8.450   9.785   7.448  1.0943 -0.0973 -0.2963
  320MOL0     H43147   8.341   9.972   7.622  0.1006 -0.9122 -0.0591
  320MOL0     H43148   8.297  10.040   7.465 -4.6060 -0.5110  1.7587
  320MOL0     H43149   8.237   9.754   7.507 -2.2404 -0.5573  2.7687
  320MOL0     H43150   8.157   9.860   7.393 -0.9503  0.7191 -0.7154
  320MOL0     H43151   8.102   9.753   7.745 -0.7580  0.9996  1.4146
  320MOL0     H43152   7.906   9.802   7.908 -0.9017 -0.2576  1.2329
  320MOL0     H43153   7.852   9.966   7.908  1.5370  0.1690  0.0678
  320MOL0     H43154   7.676   9.755   7.904  1.1704 -0.9241  0.1952
  320MOL0     H43155   7.712   9.760   7.734  0.3869  0.2185 -0.6803
  320MOL0     H43156   7.620   9.981   7.718  0.4547  2.3494  1.7556
  320MOL0     H43157   7.590  10.002   7.889 -0.1995  2.5665 -1.4804
  320MOL0     H43158   7.455   9.758   7.838  3.4223  0.1574 -1.1026
  320MOL0     H43159   7.444   9.815   7.678  0.0043 -0.3084  0.5181
  320MOL0     H43160   7.188  10.072   7.919 -2.7829  0.7016  1.3862
  320MOL0     H43161   6.861  10.058   8.010 -1.3267 -2.0412 -1.0537
  320MOL0     H43162   6.976  10.186   7.938 -2.1366  1.0509  0.0142
  320MOL0     H43163   6.836  10.123   7.846  2.7081  1.6594 -2.7159
  320MOL0     H43164   6.513   9.914   7.713  1.2130 -0.4912 -4.6435
  320MOL0     H43165   6.287   9.807   7.747 -0.1477 -0.2799 -1.0656
  320MOL0     H43166   6.135   9.684   7.842  0.1558  1.4903  0.0321
  320MOL0     H43167   6.132   9.676   7.666 -0.3024 -1.5593 -0.2027
  320MOL0     H43168   5.917   9.618   7.764 -0.3774 -0.0798  0.7825
  320MOL0     H43169   5.981   9.487   7.672 -1.6637 -0.2482 -0.4285
  320MOL0     H43170   5.973   9.502   7.972 -4.1670 -0.6125  0.2287
  320MOL0     H43171   6.077   9.387   7.874  0.3776  0.1334 -1.9317
  320MOL0     H43172   5.771   9.440   7.870 -1.4981 -2.2452  1.3556
  320MOL0     H43173   5.856   9.333   7.753  4.3924 -1.3578  0.1622
  320MOL0     H43174   5.855   9.298   8.060 -1.7696  0.9284 -0.5324
  320MOL0     H43175   5.929   9.198   7.935  1.6410  0.8192  2.9011
  320MOL0     H43176   5.634   9.268   7.951  1.9206  1.8535 -0.6607
  320MOL0     H43177   5.706   9.157   7.834  0.1259 -0.8803 -0.4573
  320MOL0     H43178   5.718   9.129   8.145  0.5067 -1.1658  1.2856
  320MOL0     H43179   5.789   9.027   8.011  0.5035  1.4055 -0.7726
  320MOL0     H43180   5.536   9.003   7.937  0.1621 -0.8933 -0.2832
  320MOL0     H43181   5.490   9.087   8.086  0.8231 -0.7325  0.5421
  320MOL0     H43182   6.476   9.409   7.715 -0.1185  0.2022 -0.8302
  320MOL0     H43183   6.693   9.526   7.700 -0.9418 -1.9876 -1.9551
  320MOL0     H43184   6.986   9.698   7.663 -1.2084  2.1189 -4.0206
  320MOL0     H43185   7.232   9.722   7.690  1.2099 -1.1566  2.3221
  320MOL0     H43186   9.241  10.194   7.526  0.6706 -0.0489  0.2886
  320MOL0     H43187   9.467  10.130   7.467 -0.3330  0.7754 -0.3120
  320MOL0     H43188   9.848  10.065   7.196 -0.2780  0.0725 -2.8547
  320MOL0     H43189  10.019   9.975   7.053  2.8760 -1.6587  1.3133
  320MOL0     H43190  10.195   9.652   7.146  0.3199 -0.7410 -1.2850
  320MOL0     H43191  10.233   9.612   6.994 -0.7987 -0.4008  1.3608
  320MOL0     H43192  10.200   9.897   7.086 -2.8049 -0.5855 -1.6270
  320MOL0     H43193  10.279   9.848   6.931  0.0651 -0.8503  0.4527
  320MOL0     H43194  10.379   9.764   7.203  1.2994  0.3175  1.0107
  320MOL0     H43195  10.442   9.910   7.122 -0.9471  0.3268 -0.9648
  320MOL0     H43196  10.446   9.646   7.006 -3.2620  1.3613  0.2586
  320MOL0     H43197  10.587   9.743   7.085 -0.8781 -0.1567  1.5179
  320MOL0     H43198  10.616   9.928   6.725 -1.2455  1.7115 -0.0467
  320MOL0     H43199   9.914   9.578   7.156 -1.4930 -0.7509 -0.0746
  320MOL0     H43200   9.728   9.656   7.304 -2.4534  3.2152  1.2157
  321MOL0     O43201   3.572  10.556   9.887 -0.1620 -0.3900 -0.0277
  321MOL0     C43202   3.594  10.497   9.778 -0.8773  0.2724 -0.1803
  321MOL0     O43203   3.523  10.495   9.664 -0.3029 -0.2898  0.4296
  321MOL0     C43204   3.393  10.532   9.646  0.3982  0.2521  0.1424
  321MOL0     C43205   3.309  10.585   9.748  0.8038  0.2430  0.4160
  321MOL0     C43206   3.183  10.624   9.722  0.2825 -0.8741  0.6287
  321MOL0     C43207   3.134  10.607   9.590 -0.3221 -0.1354 -0.1518
  321MOL0     O43208   3.014  10.645   9.563  0.3421 -0.4656  0.8029
  321MOL0     C43209   2.934  10.558   9.478  0.0787 -0.1526  0.3834
  321MOL0     C43210   2.928  10.603   9.327  0.8367  0.6071 -0.4761
  321MOL0     C43211   2.872  10.745   9.305 -0.1447 -0.0700 -0.7152
  321MOL0     C43212   2.742  10.782   9.397 -0.8058  0.8460 -0.2498
  321MOL0     C43213   2.664  10.903   9.345 -0.0824 -0.1101  0.6754
  321MOL0     C43214   2.767  11.019   9.328 -0.5353  0.1170 -0.2601
  321MOL0     C43215   2.707  11.153   9.290  0.0898  1.4188 -0.1085
  321MOL0     C43216   2.816  11.257   9.287 -0.2516  0.0022  0.3785
  321MOL0     N43217   2.775  11.386   9.234  0.7466  0.3074  0.0089
  321MOL0     C43218   2.720  11.395   9.111 -1.2685 -0.8469  0.5004
  321MOL0     C43219   2.667  11.520   9.106 -0.6115 -0.1945  0.2891
  321MOL0     C43220   2.573  11.584   8.994 -0.7880 -0.6670 -0.7252
  321MOL0     C43221   2.466  11.484   8.965  0.4305 -0.1756  0.2815
  321MOL0     C43222   2.377  11.443   9.086  0.1893 -0.5190  0.3990
  321MOL0     C43223   2.253  11.353   9.043 -0.5951 -0.0370 -0.4521
  321MOL0     O43224   2.157  11.430   8.973  0.1339 -0.5887  0.4186
  321MOL0     C43225   2.067  11.490   9.051 -0.2388 -0.1614  0.1527
  321MOL0     C43226   1.990  11.431   9.148  0.6170  0.2346  0.2279
  321MOL0     C43227   1.880  11.495   9.217 -0.6569  0.9349 -0.3944
  321MOL0     C43228   1.803  11.421   9.317 -0.6833 -0.7378 -0.0861
  321MOL0     C43229   1.861  11.640   9.199 -0.4466  0.9464 -0.0313
  321MOL0     C43230   1.753  11.718   9.257 -0.4300 -0.2151  0.6299
  321MOL0     O43231   1.726  11.841   9.207  0.1649 -0.4450 -0.4333
  321MOL0     C43232   1.640  11.924   9.274  0.2521  0.0693 -0.2599
  321MOL0     C43233   1.680  12.039   9.353 -0.0980 -0.4463  0.2774
  321MOL0     C43234   1.582  12.111   9.421  0.4293 -0.0820 -0.3020
  321MOL0     C43235   1.447  12.112   9.384 -0.6054  0.9489  0.5785
  321MOL0     O43236   1.339  12.181   9.425  0.1603 -0.6050 -0.0366
  321MOL0     C43237   1.369  12.262   9.548 -0.2572  1.0954  0.4409
  321MOL0     C43238   1.269  12.367   9.601 -0.2892 -0.5690  0.1364
  321MOL0     C43239   1.242  12.478   9.498 -0.0968  0.3749  0.2189
  321MOL0     C43240   1.140  12.584   9.547 -0.2222  0.3399 -0.5940
  321MOL0     C43241   1.093  12.681   9.442 -0.3965  0.2189 -0.5526
  321MOL0     C43242   1.016  12.806   9.495 -0.1711  0.1298  0.3829
  321MOL0     C43243   1.086  12.880   9.607  0.0048 -0.6454 -0.0347
  321MOL0     C43244   1.049  13.030   9.610  0.0253 -0.3895  0.1206
  321MOL0    Cl43245   1.118  13.116   9.754 -0.3879 -0.0838 -0.3018
  321MOL0     C43246   1.414  12.013   9.290 -0.0071  0.0682 -0.5524
  321MOL0     C43247   1.505  11.916   9.244  0.6072 -0.5579 -0.1374
  321MOL0     O43248   1.709  11.671   9.361 -0.3416 -0.2148  0.3411
  321MOL0     C43249   1.953  11.700   9.104  1.0086 -0.2658 -0.3471
  321MOL0     C43250   2.040  11.626   9.027 -0.3068 -0.4270 -0.2678
  321MOL0     N43251   2.678  11.582   9.230  0.3795 -0.0462  0.6602
  321MOL0     N43252   2.752  11.504   9.306  0.7665  0.1369  0.2000
  321MOL0     C43253   3.215  10.531   9.498 -0.3919 -0.5787  0.3711
  321MOL0     C43254   3.343  10.511   9.524 -0.6132  0.0959 -0.4323
  321MOL0     C43255   3.728  10.416   9.787 -0.0031  0.0270  0.1099
  321MOL0     C43256   3.764  10.338   9.675  0.3960  0.2471 -0.3266
  321MOL0     C43257   3.860  10.237   9.687  0.2349 -0.0553  0.2490
  321MOL0     C43258   3.933  10.221   9.802 -0.0011 -0.4763  0.3795
  321MOL0     O43259   4.025  10.125   9.795  0.4791 -0.0328  0.2624
  321MOL0     C43260   4.142  10.148   9.871 -0.5611 -0.0660  0.0997
  321MOL0     C43261   4.254  10.059   9.808 -0.2692  0.4813  0.8956
  321MOL0     C43262   4.390  10.063   9.882 -0.3737 -0.2275  0.0339
  321MOL0     C43263   4.496   9.967   9.830  0.4437 -0.2518  0.4361
  321MOL0     C43264   4.631  10.009   9.886  0.2162 -1.0762  0.4056
  321MOL0     C43265   4.730  10.043   9.952 -0.1479 -1.0377  1.3576
  321MOL0     C43266   3.908  10.309   9.913  0.0368 -0.0545  0.0502
  321MOL0     C43267   3.798  10.399   9.909 -0.7706  0.1191 -0.0033
  321MOL0     H43268   3.348  10.588   9.849  2.5651 -1.5892 -0.1447
  321MOL0     H43269   3.121  10.668   9.799 -1.0940 -0.3782 -0.7172
  321MOL0     H43270   2.974  10.455   9.477  2.6266  0.7072 -2.0771
  321MOL0     H43271   2.838  10.565   9.529 -0.0960 -1.1755  0.2157
  321MOL0     H43272   3.015  10.582   9.263  1.2163 -0.9308  0.5047
  321MOL0     H43273   2.844  10.546   9.286  1.1274 -0.8352  0.8474
  321MOL0     H43274   2.958  10.812   9.310  0.6834 -1.0901 -0.7799
  321MOL0     H43275   2.835  10.754   9.202 -4.1390  0.5718  0.6334
  321MOL0     H43276   2.671  10.700   9.387 -0.3507  0.3502  0.4943
  321MOL0     H43277   2.768  10.791   9.503 -2.4785 -1.7033  0.4615
  321MOL0     H43278   2.620  10.887   9.246 -0.5500  0.7691  0.7356
  321MOL0     H43279   2.588  10.925   9.420  1.4093 -2.4813  3.0844
  321MOL0     H43280   2.820  11.037   9.423  1.7714  0.2897 -1.4986
  321MOL0     H43281   2.849  10.989   9.262 -0.7041  0.1435 -0.4807
  321MOL0     H43282   2.666  11.140   9.189  2.8464 -1.3187 -1.0259
  321MOL0     H43283   2.629  11.168   9.366  0.0667  1.7533 -0.1987
  321MOL0     H43284   2.904  11.220   9.235 -0.7809  1.8474 -2.0418
  321MOL0     H43285   2.847  11.268   9.391 -0.1703 -0.3656  0.3922
  321MOL0     H43286   2.707  11.319   9.034  1.1008 -0.0490 -0.7797
  321MOL0     H43287   2.528  11.672   9.040  0.9726 -0.6762  1.1502
  321MOL0     H43288   2.634  11.620   8.911 -0.3971 -1.2239 -0.6893
  321MOL0     H43289   2.517  11.400   8.917  0.1761 -0.1616 -0.0214
  321MOL0     H43290   2.396  11.533   8.896 -0.9998  1.7424  2.9066
  321MOL0     H43291   2.341  11.533   9.136  1.3137  0.2804 -0.1935
  321MOL0     H43292   2.434  11.389   9.163  0.1890  0.6360  1.2242
  321MOL0     H43293   2.217  11.313   9.138  0.6594 -0.4309 -0.1209
  321MOL0     H43294   2.287  11.267   8.983 -0.2312  0.8802 -1.6042
  321MOL0     H43295   2.003  11.325   9.167  1.6367  0.2058 -0.5819
  321MOL0     H43296   1.695  11.432   9.302 -0.7246  1.8985  1.3715
  321MOL0     H43297   1.837  11.318   9.321  2.4230  0.1307 -1.1263
  321MOL0     H43298   1.810  11.452   9.422  1.0705  0.4206 -0.5095
  321MOL0     H43299   1.784  12.059   9.375  0.7680 -1.5192 -2.4944
  321MOL0     H43300   1.612  12.178   9.501 -0.5127 -0.3000  0.2550
  321MOL0     H43301   1.405  12.196   9.628  3.5889 -0.8868 -2.5605
  321MOL0     H43302   1.458  12.322   9.526 -1.2209  2.8098  0.9952
  321MOL0     H43303   1.177  12.317   9.630 -1.3161  0.9169 -0.4461
  321MOL0     H43304   1.312  12.407   9.694 -1.5165 -0.1719  0.5569
  321MOL0     H43305   1.203  12.422   9.413  1.6731 -1.7828  0.7155
  321MOL0     H43306   1.336  12.523   9.465 -0.3656  0.7060 -0.0936
  321MOL0     H43307   1.056  12.527   9.587  0.4127 -0.0689  0.1873
  321MOL0     H43308   1.194  12.640   9.624  2.2158 -0.9848 -1.2257
  321MOL0     H43309   1.032  12.616   9.379  0.5716 -0.7381 -0.5304
  321MOL0     H43310   1.179  12.710   9.381  1.9384 -2.6381  1.0968
  321MOL0     H43311   1.011  12.884   9.418 -2.0360  0.1085  0.4433
  321MOL0     H43312   0.915  12.780   9.527 -0.0664  1.1930  1.6436
  321MOL0     H43313   1.194  12.870   9.591  0.3099 -0.0329  1.4740
  321MOL0     H43314   1.071  12.836   9.706  2.2919  0.7124  0.9969
  321MOL0     H43315   0.940  13.041   9.610  0.0711  1.7203 -3.8839
  321MOL0     H43316   1.082  13.079   9.519 -5.6574  0.1195 -2.0779
  321MOL0     H43317   1.312  12.007   9.254 -0.4819  4.2878 -0.3372
  321MOL0     H43318   1.471  11.841   9.173 -1.0721 -1.6662  1.7097
  321MOL0     H43319   1.952  11.804   9.073 -1.4493 -0.4747 -1.2515
  321MOL0     H43320   2.089  11.677   8.945  1.1395 -1.5600 -0.1408
  321MOL0     H43321   3.185  10.504   9.397 -0.0292 -1.0260  0.3795
  321MOL0     H43322   3.396  10.463   9.442  0.1757  2.3119 -1.2855
  321MOL0     H43323   3.712  10.346   9.579 -2.8986 -1.3007  1.1522
  321MOL0     H43324   3.877  10.175   9.600  0.6397 -0.3134  0.5078
  321MOL0     H43325   4.179  10.250   9.865  2.3401 -0.9498  1.3608
  321MOL0     H43326   4.127  10.117   9.975 -0.2212  0.5929  0.3465
  321MOL0     H43327   4.273  10.093   9.706 -3.2172 -1.5004 -0.4390
  321MOL0     H43328   4.231   9.953   9.798  3.3464 -0.3142 -0.6324
  321MOL0     H43329   4.383  10.050   9.990 -1.0715  4.9765  0.8859
  321MOL0     H43330   4.431  10.164   9.869  2.4019 -1.1279  1.0792
  321MOL0     H43331   4.493   9.970   9.721 -1.8975 -1.6105  0.3942
  321MOL0     H43332   4.473   9.866   9.864  2.1636 -1.5488 -1.9753
  321MOL0     H43333   4.810  10.078  10.014 -0.3109 -1.1345  1.6275
  321MOL0     H43334   3.948  10.288  10.011 -2.1283 -0.9889  0.8018
  321MOL0     H43335   3.758  10.428  10.006 -2.1847 -0.2368 -0.4444
  322MOL0     O43336   1.570   1.674   5.610 -0.3343  0.1721 -0.3315
  322MOL0     C43337   1.633   1.600   5.531  0.0182  0.2791  0.1909
  322MOL0     O43338   1.572   1.514   5.442  0.3920  0.4020 -0.1691
  322MOL0     C43339   1.441   1.496   5.416 -0.1081  0.0891 -0.1000
  322MOL0     C43340   1.338   1.578   5.476 -0.1028 -0.3448 -0.0538
  322MOL0     C43341   1.201   1.545   5.447  0.6097 -0.3113 -0.1788
  322MOL0     C43342   1.168   1.429   5.374 -0.2561 -0.0728 -0.2746
  322MOL0     O43343   1.040   1.393   5.329  0.2991  0.0762  0.1234
  322MOL0     C43344   0.921   1.428   5.392  0.1913 -0.3210 -0.5796
  322MOL0     C43345   0.799   1.373   5.312 -0.4460  0.1696 -0.2525
  322MOL0     C43346   0.671   1.461   5.340 -0.7926  0.1374  0.3805
  322MOL0     C43347   0.560   1.406   5.252  0.3010 -0.2012 -0.0885
  322MOL0     C43348   0.431   1.491   5.248 -0.6873 -0.5082 -0.1466
  322MOL0     C43349   0.319   1.420   5.161 -1.0238 -0.2085 -0.4898
  322MOL0     C43350   0.187   1.492   5.190 -0.2725  0.5009 -0.3459
  322MOL0     C43351   0.060   1.418   5.150  0.3775  0.3441  0.5163
  322MOL0     N43352  -0.062   1.465   5.215 -0.0857  0.3219  0.3634
  322MOL0     C43353  -0.133   1.566   5.165 -1.0358 -0.1237 -0.2134
  322MOL0     C43354  -0.264   1.551   5.224 -0.2983  0.4811 -0.2101
  322MOL0     C43355  -0.387   1.633   5.192 -0.3486 -0.6776  0.0474
  322MOL0     C43356  -0.481   1.558   5.093 -0.5518 -0.2821  0.1214
  322MOL0     C43357  -0.560   1.661   5.020  0.0908  0.1059 -0.0549
  322MOL0     C43358  -0.629   1.761   5.107  0.0494  0.1732  0.0114
  322MOL0     O43359  -0.710   1.718   5.220 -0.2943 -0.2054  0.0004
  322MOL0     C43360  -0.842   1.673   5.203  0.5115  0.0246  0.5308
  322MOL0     C43361  -0.901   1.638   5.320  0.1163  0.6304 -0.4356
  322MOL0     C43362  -1.026   1.582   5.321  0.1945 -1.0208 -0.1818
  322MOL0     C43363  -1.087   1.552   5.459 -0.2741  0.2164 -0.0987
  322MOL0     C43364  -1.111   1.566   5.210 -0.6244  0.0268  0.6653
  322MOL0     C43365  -1.246   1.507   5.204  0.1407  0.0767  0.1158
  322MOL0     O43366  -1.292   1.485   5.078 -0.3052  0.4029 -0.8810
  322MOL0     C43367  -1.413   1.429   5.061 -0.1208 -0.1688 -0.4022
  322MOL0     C43368  -1.477   1.472   4.940 -0.2028  0.0820  0.0022
  322MOL0     C43369  -1.606   1.430   4.910  1.0425  0.7992  0.3791
  322MOL0     C43370  -1.674   1.337   4.993  0.0914 -0.1290  0.0175
  322MOL0     O43371  -1.795   1.300   4.949 -0.1844 -0.1264  0.4798
  322MOL0     C43372  -1.867   1.193   5.012 -0.6876  0.0207  0.3790
  322MOL0     C43373  -2.005   1.184   4.950 -0.2418 -0.4813 -0.4189
  322MOL0     C43374  -2.071   1.050   4.967  1.2923  0.8919  1.0933
  322MOL0     C43375  -2.220   1.060   5.013  0.0643 -0.6366  1.2202
  322MOL0     C43376  -2.297   1.161   4.932 -0.3152  0.6301  0.6696
  322MOL0     C43377  -2.451   1.132   4.943  0.5393  0.1833 -0.5003
  322MOL0     C43378  -2.535   1.252   4.886 -0.8763 -0.1390  0.4947
  322MOL0     C43379  -2.686   1.222   4.870 -0.1146  1.3551  0.4451
  322MOL0    Cl43380  -2.761   1.180   5.031  0.0309  0.1460  0.2975
  322MOL0     C43381  -1.608   1.288   5.109  0.3748  0.5928  0.8088
  322MOL0     C43382  -1.475   1.329   5.137 -0.0133  0.3711  0.1877
  322MOL0     O43383  -1.317   1.524   5.298  0.4673  0.5840 -0.1902
  322MOL0     C43384  -1.041   1.614   5.090 -0.3883  0.2612 -0.4347
  322MOL0     C43385  -0.912   1.663   5.088  0.8528 -0.1586 -0.1400
  322MOL0     N43386  -0.260   1.429   5.293 -0.0301  0.5007  0.1562
  322MOL0     N43387  -0.145   1.386   5.293 -0.4384 -0.1639  0.3267
  322MOL0     C43388   1.272   1.353   5.322  0.3169 -0.3154 -0.2521
  322MOL0     C43389   1.405   1.379   5.343 -0.8505 -0.0804 -0.1482
  322MOL0     C43390   1.785   1.577   5.545  0.4177  0.8378 -0.4795
  322MOL0     C43391   1.851   1.618   5.661  0.5670  1.0680 -0.5041
  322MOL0     C43392   1.979   1.579   5.690  0.2090 -0.6924 -0.1986
  322MOL0     C43393   2.051   1.507   5.594  0.0461 -0.9597  0.1555
  322MOL0     O43394   2.177   1.481   5.633 -1.0022  0.2457  0.4747
  322MOL0     C43395   2.244   1.385   5.555 -0.3758  0.1494  0.6734
  322MOL0     C43396   2.347   1.334   5.648  0.3325 -0.1960  0.4362
  322MOL0     C43397   2.470   1.416   5.656 -0.2871 -0.4963 -0.4085
  322MOL0     C43398   2.573   1.362   5.755  0.5739 -0.4169  0.6741
  322MOL0     C43399   2.699   1.438   5.762 -0.2130  0.5424  0.5014
  322MOL0     C43400   2.800   1.503   5.754 -0.4845 -0.0937  0.1232
  322MOL0     C43401   1.993   1.475   5.475  0.9272 -0.1899 -0.4499
  322MOL0     C43402   1.866   1.516   5.447  0.5987  0.0412  0.1918
  322MOL0     H43403   1.356   1.661   5.544 -2.8914  0.6480 -0.3768
  322MOL0     H43404   1.126   1.610   5.490 -0.0757 -0.3730 -1.2462
  322MOL0     H43405   0.930   1.382   5.491  0.3458 -2.4839 -1.5385
  322MOL0     H43406   0.913   1.537   5.400 -2.5364 -0.3874 -1.4552
  322MOL0     H43407   0.820   1.382   5.206  1.0506  2.4704  0.1583
  322MOL0     H43408   0.777   1.269   5.335 -0.6832  0.6690  2.0939
  322MOL0     H43409   0.653   1.435   5.445  0.5626 -1.1033  0.3510
  322MOL0     H43410   0.686   1.568   5.325  1.4632 -0.1003  0.6042
  322MOL0     H43411   0.604   1.400   5.152  3.2300  0.0249  1.0794
  322MOL0     H43412   0.531   1.309   5.293 -2.3246 -0.4914 -2.3570
  322MOL0     H43413   0.396   1.476   5.350 -1.5067  1.5934 -0.0754
  322MOL0     H43414   0.449   1.590   5.205 -0.1940 -1.7834 -3.1476
  322MOL0     H43415   0.347   1.430   5.056  1.7951 -1.3160  0.0655
  322MOL0     H43416   0.306   1.316   5.193 -1.7611  0.6967  2.4843
  322MOL0     H43417   0.187   1.503   5.299 -0.0477  0.6436 -0.3614
  322MOL0     H43418   0.185   1.593   5.149 -1.3829  1.2184  1.3375
  322MOL0     H43419   0.067   1.313   5.181  1.1658  0.1288 -0.3346
  322MOL0     H43420   0.037   1.415   5.043 -2.2909 -1.1799  1.0370
  322MOL0     H43421  -0.101   1.636   5.088  1.1620 -0.5697  0.2237
  322MOL0     H43422  -0.438   1.662   5.284  0.8457 -1.8096  1.1054
  322MOL0     H43423  -0.335   1.717   5.144 -0.1646 -1.6822 -1.6112
  322MOL0     H43424  -0.546   1.493   5.152 -0.0623 -0.4969  0.4336
  322MOL0     H43425  -0.418   1.502   5.023  2.9859  3.3121  0.0563
  322MOL0     H43426  -0.631   1.597   4.967  0.8794 -0.2499 -0.6952
  322MOL0     H43427  -0.491   1.712   4.952  2.3713 -1.0722  1.2609
  322MOL0     H43428  -0.691   1.821   5.039 -0.5689  3.4857  3.1939
  322MOL0     H43429  -0.559   1.840   5.136  0.2812  0.4305 -1.1588
  322MOL0     H43430  -0.842   1.648   5.411 -0.5172  0.8918 -0.0407
  322MOL0     H43431  -1.119   1.448   5.446 -0.8401  0.5997 -2.1884
  322MOL0     H43432  -1.014   1.557   5.540 -1.4255 -0.1820  0.9916
  322MOL0     H43433  -1.167   1.620   5.488 -1.5390 -1.6427  1.0264
  322MOL0     H43434  -1.424   1.536   4.870 -1.5646  0.8458 -0.3615
  322MOL0     H43435  -1.658   1.466   4.822  1.4095 -1.8455 -1.0053
  322MOL0     H43436  -1.819   1.094   5.008 -3.1143 -1.4983  3.3926
  322MOL0     H43437  -1.887   1.205   5.119  0.4012  0.9728  0.4868
  322MOL0     H43438  -2.065   1.271   4.982 -0.7126 -0.5120 -1.1797
  322MOL0     H43439  -1.996   1.210   4.844  2.6927  0.2877 -0.0543
  322MOL0     H43440  -2.009   0.998   5.042  1.2559  1.4561  1.5244
  322MOL0     H43441  -2.066   0.986   4.879 -1.7039  1.0256  0.7360
  322MOL0     H43442  -2.256   0.957   5.009  0.8145 -0.9468  2.0848
  322MOL0     H43443  -2.220   1.089   5.119  0.2035  1.1390  0.7678
  322MOL0     H43444  -2.258   1.151   4.830 -0.6345 -1.9448  0.7223
  322MOL0     H43445  -2.282   1.262   4.969  0.9909 -0.2029  2.6013
  322MOL0     H43446  -2.484   1.051   4.877 -1.7825  1.3677 -0.9124
  322MOL0     H43447  -2.480   1.098   5.043 -0.8068 -0.0576 -0.9498
  322MOL0     H43448  -2.496   1.292   4.792 -1.2984  2.7784  1.4661
  322MOL0     H43449  -2.514   1.335   4.953  0.7156 -0.5317  0.5185
  322MOL0     H43450  -2.715   1.139   4.806 -3.3551  0.9753  2.2185
  322MOL0     H43451  -2.732   1.309   4.822 -1.0456 -0.0768 -1.3756
  322MOL0     H43452  -1.655   1.218   5.178  4.5658 -1.1855  2.2220
  322MOL0     H43453  -1.416   1.285   5.216  2.1439 -2.5306 -2.7679
  322MOL0     H43454  -1.089   1.612   4.993 -1.1203  1.3402 -0.1164
  322MOL0     H43455  -0.872   1.702   4.995 -2.0287  1.8172 -0.6912
  322MOL0     H43456   1.240   1.260   5.276 -4.6251  1.0754 -0.2264
  322MOL0     H43457   1.477   1.312   5.299  1.2592 -0.1965  3.1131
  322MOL0     H43458   1.796   1.664   5.743  2.5278  2.3313  0.1617
  322MOL0     H43459   2.035   1.596   5.781  0.2346  0.1458 -0.3648
  322MOL0     H43460   2.174   1.305   5.528  1.2878 -0.6299 -1.6495
  322MOL0     H43461   2.295   1.418   5.464  2.5781 -1.7015  1.5111
  322MOL0     H43462   2.377   1.235   5.612  0.4185  0.1837 -0.5658
  322MOL0     H43463   2.300   1.329   5.746  0.6412  0.7865  0.6442
  322MOL0     H43464   2.444   1.516   5.691 -0.5278 -0.9827  0.8823
  322MOL0     H43465   2.517   1.427   5.558  0.4941  1.0694  0.1160
  322MOL0     H43466   2.598   1.257   5.735 -0.1652 -0.8236  1.7886
  322MOL0     H43467   2.528   1.372   5.854  0.7413  2.3732  0.5311
  322MOL0     H43468   2.899   1.544   5.759 -1.4798  2.4193  0.7092
  322MOL0     H43469   2.033   1.413   5.396 -0.0763 -0.6997 -0.5731
  322MOL0     H43470   1.817   1.495   5.353  1.9254 -2.8314  0.0630
  323MOL0     O43471   6.234   1.591   1.748 -0.5385  0.5373 -0.0505
  323MOL0     C43472   6.176   1.537   1.656  0.2704 -0.1831  0.3732
  323MOL0     O43473   6.050   1.553   1.633 -0.4753 -0.7392  0.1320
  323MOL0     C43474   5.966   1.580   1.732 -0.5430  1.0565 -0.8730
  323MOL0     C43475   5.847   1.646   1.694  0.1512 -0.5334 -0.8977
  323MOL0     C43476   5.758   1.699   1.793  0.1709  0.0835 -0.2156
  323MOL0     C43477   5.776   1.669   1.931  0.4744  0.0706 -0.0617
  323MOL0     O43478   5.677   1.710   2.018  0.0595 -0.2267 -0.0170
  323MOL0     C43479   5.604   1.603   2.077  0.1721  0.3100 -0.4954
  323MOL0     C43480   5.510   1.669   2.178  0.8688  0.2409 -0.1402
  323MOL0     C43481   5.394   1.750   2.117 -0.1253 -0.1990 -0.2034
  323MOL0     C43482   5.295   1.657   2.043  0.3931  0.5116  0.5818
  323MOL0     C43483   5.171   1.721   1.982  0.3863 -0.3337 -1.0180
  323MOL0     C43484   5.101   1.790   2.092  0.3931 -0.2501 -0.0557
  323MOL0     C43485   4.948   1.813   2.062 -0.3980  0.3136  0.2977
  323MOL0     C43486   4.867   1.686   2.095 -0.0841 -0.1669 -0.0396
  323MOL0     N43487   4.726   1.719   2.069  0.0874  0.2001  1.1496
  323MOL0     C43488   4.634   1.788   2.142  0.5130 -0.4304 -0.8230
  323MOL0     C43489   4.525   1.779   2.071  0.9557  0.0164  0.1641
  323MOL0     C43490   4.389   1.834   2.113 -0.0398 -0.8961  1.3855
  323MOL0     C43491   4.361   1.970   2.047  0.6945 -0.2192 -0.2407
  323MOL0     C43492   4.210   1.996   2.030  0.2125  0.1097 -0.0061
  323MOL0     C43493   4.168   2.121   2.106  0.1337  0.6662 -0.1712
  323MOL0     O43494   4.032   2.144   2.084  0.4596 -0.1759 -0.0966
  323MOL0     C43495   3.945   2.107   2.186  0.3909 -0.5986  0.3944
  323MOL0     C43496   3.839   2.196   2.214 -0.2681 -0.1360 -0.0910
  323MOL0     C43497   3.742   2.158   2.307  0.4593 -0.2828 -0.0528
  323MOL0     C43498   3.623   2.253   2.300  0.0042 -0.8639  0.1361
  323MOL0     C43499   3.755   2.045   2.390  0.3139  0.6094 -0.4344
  323MOL0     C43500   3.656   1.999   2.500  0.5179  0.3075  0.3485
  323MOL0     O43501   3.535   2.066   2.505 -0.7935  0.2919 -0.4007
  323MOL0     C43502   3.452   2.049   2.617 -0.2181  0.5337  0.4414
  323MOL0     C43503   3.390   1.924   2.644 -0.7248  0.2656 -0.3276
  323MOL0     C43504   3.327   1.890   2.769 -0.5339 -0.9536  0.0525
  323MOL0     C43505   3.317   1.990   2.867 -0.2403 -0.0839 -0.8319
  323MOL0     O43506   3.259   1.978   2.991 -0.5744 -0.5731  0.2049
  323MOL0     C43507   3.136   1.906   2.994  0.4421 -0.1467  0.6887
  323MOL0     C43508   3.019   1.967   2.905  0.4724 -0.5304 -0.4832
  323MOL0     C43509   2.886   1.898   2.935  0.4135  0.4057 -0.7348
  323MOL0     C43510   2.763   1.986   2.916  0.1891  0.1218 -0.8254
  323MOL0     C43511   2.635   1.922   2.971  0.5645  0.2395  0.7025
  323MOL0     C43512   2.511   1.993   2.918 -0.8694 -0.1053  0.6443
  323MOL0     C43513   2.496   1.986   2.768 -0.1052 -0.7455 -0.4520
  323MOL0     C43514   2.380   2.073   2.739 -0.3865 -0.5484  0.0020
  323MOL0    Cl43515   2.453   2.239   2.734  0.0911 -0.0683 -0.6276
  323MOL0     C43516   3.361   2.113   2.837  0.1072 -0.2447 -0.6314
  323MOL0     C43517   3.432   2.147   2.720  0.7528  0.3224 -0.0703
  323MOL0     O43518   3.680   1.893   2.571  0.2016  0.0202 -0.1650
  323MOL0     C43519   3.869   1.968   2.371  0.1383  0.0739  0.7218
  323MOL0     C43520   3.963   1.995   2.264 -0.1464  1.0066 -0.2077
  323MOL0     N43521   4.557   1.706   1.957 -0.5596 -0.4455 -0.1547
  323MOL0     N43522   4.684   1.665   1.951  0.1588  0.4174 -0.0227
  323MOL0     C43523   5.886   1.595   1.964  0.5645  0.0643  0.3042
  323MOL0     C43524   5.981   1.549   1.873  0.1013 -0.1486 -0.2863
  323MOL0     C43525   6.261   1.460   1.558  0.8873 -1.1290 -0.5083
  323MOL0     C43526   6.402   1.461   1.565  0.8683  0.0523 -0.8243
  323MOL0     C43527   6.473   1.393   1.469  0.8347  0.2649 -0.0211
  323MOL0     C43528   6.411   1.328   1.367  0.0530 -0.7339  0.2347
  323MOL0     O43529   6.466   1.244   1.275  0.4970  0.0558  0.6747
  323MOL0     C43530   6.606   1.238   1.250  0.2763 -0.0084  1.1987
  323MOL0     C43531   6.665   1.358   1.176 -0.0643  0.0538 -0.2542
  323MOL0     C43532   6.584   1.389   1.055 -0.2385  0.3838  0.8396
  323MOL0     C43533   6.648   1.504   0.971  0.1121  0.5458  0.3363
  323MOL0     C43534   6.578   1.544   0.848 -0.1842 -0.2877 -0.1656
  323MOL0     C43535   6.519   1.586   0.751  0.3177  0.4018  0.0355
  323MOL0     C43536   6.273   1.339   1.358 -0.0508 -0.4550  1.3186
  323MOL0     C43537   6.193   1.399   1.449  0.0651  0.3494 -0.1843
  323MOL0     H43538   5.828   1.661   1.588 -1.4927 -0.0049 -0.5565
  323MOL0     H43539   5.674   1.758   1.755  1.5723  1.6172 -1.0413
  323MOL0     H43540   5.545   1.532   2.018  3.3773 -4.0542  0.9756
  323MOL0     H43541   5.673   1.549   2.142 -0.7904  2.7331  2.7676
  323MOL0     H43542   5.470   1.590   2.241  0.3135 -0.0801 -0.8865
  323MOL0     H43543   5.580   1.727   2.240  1.1354  1.2367 -1.3202
  323MOL0     H43544   5.346   1.797   2.203  1.4675 -1.9379  1.7479
  323MOL0     H43545   5.433   1.823   2.045 -1.1356  1.2442  0.6514
  323MOL0     H43546   5.344   1.622   1.952  1.1424  1.6579  0.5324
  323MOL0     H43547   5.268   1.576   2.112  0.9907 -0.3187 -0.1351
  323MOL0     H43548   5.203   1.788   1.902  0.4361  1.9355  0.7875
  323MOL0     H43549   5.103   1.645   1.944  1.7282 -1.8024 -0.5729
  323MOL0     H43550   5.097   1.733   2.185  2.4520 -2.2347 -1.0999
  323MOL0     H43551   5.154   1.882   2.118  0.5705  0.3654 -2.3510
  323MOL0     H43552   4.912   1.899   2.121  0.3856 -0.4737  2.0084
  323MOL0     H43553   4.938   1.833   1.955 -1.1587 -0.7479  0.1590
  323MOL0     H43554   4.872   1.642   2.195 -2.6800  0.8943  0.6540
  323MOL0     H43555   4.900   1.609   2.025  0.6914 -1.2295  1.4352
  323MOL0     H43556   4.647   1.833   2.240  1.5879  2.4435 -2.1650
  323MOL0     H43557   4.310   1.761   2.093 -0.3411 -0.7718  2.1036
  323MOL0     H43558   4.384   1.863   2.218 -1.5634 -0.4120  1.1904
  323MOL0     H43559   4.395   1.975   1.943 -2.5017  0.8678 -1.3270
  323MOL0     H43560   4.407   2.046   2.111 -0.4686 -1.0455  1.6260
  323MOL0     H43561   4.158   1.911   2.074 -1.5553  1.9123  1.6052
  323MOL0     H43562   4.197   1.996   1.921  3.9469 -2.7427 -0.6678
  323MOL0     H43563   4.212   2.204   2.049 -0.8896  0.1627 -1.7544
  323MOL0     H43564   4.204   2.117   2.209  3.3087 -0.3463 -1.1925
  323MOL0     H43565   3.827   2.289   2.158 -0.9364  1.0049  1.8666
  323MOL0     H43566   3.563   2.264   2.391 -1.3218  2.0768 -0.9816
  323MOL0     H43567   3.662   2.353   2.281  1.3107 -1.3934 -0.1403
  323MOL0     H43568   3.555   2.218   2.222 -0.2584  1.1327 -0.5826
  323MOL0     H43569   3.396   1.852   2.564 -2.0242 -0.1997 -0.0265
  323MOL0     H43570   3.309   1.785   2.792 -3.1054 -0.4791  0.4114
  323MOL0     H43571   3.152   1.801   2.966  1.2056  0.6545 -2.2077
  323MOL0     H43572   3.117   1.901   3.101 -0.2836 -1.0235  0.5371
  323MOL0     H43573   3.005   2.075   2.920 -2.2215 -0.5487 -2.2102
  323MOL0     H43574   3.038   1.951   2.799 -1.6192  1.8197 -1.3140
  323MOL0     H43575   2.892   1.895   3.044 -1.3785 -0.2966 -0.6235
  323MOL0     H43576   2.883   1.795   2.898 -1.7127  0.1082  0.1354
  323MOL0     H43577   2.775   2.074   2.980 -1.7082 -1.7391  2.3889
  323MOL0     H43578   2.756   2.016   2.811  0.3448 -0.3620 -0.9786
  323MOL0     H43579   2.635   1.931   3.080  1.8799 -0.6754  0.7992
  323MOL0     H43580   2.631   1.815   2.951  1.1772  0.3063  0.1723
  323MOL0     H43581   2.423   1.948   2.965 -1.8785 -0.5732 -1.5202
  323MOL0     H43582   2.531   2.094   2.954  3.9946  0.3842 -2.4820
  323MOL0     H43583   2.474   1.885   2.732 -0.0222 -0.9248 -0.0097
  323MOL0     H43584   2.581   2.025   2.711  0.1987 -0.4840  0.1644
  323MOL0     H43585   2.292   2.061   2.804  0.5330  1.3088  1.7003
  323MOL0     H43586   2.355   2.046   2.636 -3.8296  0.6549  0.3547
  323MOL0     H43587   3.349   2.191   2.912  1.0428  0.2598 -1.0053
  323MOL0     H43588   3.475   2.244   2.697  0.8234  0.2849 -0.0980
  323MOL0     H43589   3.891   1.870   2.411 -0.2738 -0.2164  0.2603
  323MOL0     H43590   4.050   1.931   2.250  0.4103  1.2972  1.5940
  323MOL0     H43591   5.905   1.577   2.070  0.5068  1.2479  0.5371
  323MOL0     H43592   6.071   1.497   1.904 -0.2022 -0.8546 -0.5584
  323MOL0     H43593   6.449   1.512   1.649 -1.1919 -0.4681  0.7501
  323MOL0     H43594   6.581   1.390   1.482  0.9358  2.7126  0.1297
  323MOL0     H43595   6.659   1.224   1.345  1.6913 -2.4812  0.1614
  323MOL0     H43596   6.612   1.142   1.196 -3.5257  0.5535 -0.5416
  323MOL0     H43597   6.765   1.337   1.139  0.0932  0.7752 -0.2585
  323MOL0     H43598   6.682   1.445   1.240  2.1090  0.3983 -1.1948
  323MOL0     H43599   6.488   1.438   1.076 -2.1719 -1.9517 -1.7347
  323MOL0     H43600   6.554   1.299   1.000 -1.3323  2.5505 -2.3461
  323MOL0     H43601   6.752   1.479   0.946 -0.3123  1.9659 -3.4250
  323MOL0     H43602   6.645   1.590   1.038 -0.6096 -0.4047  1.5844
  323MOL0     H43603   6.455   1.622   0.673 -0.9448  0.4331  1.0593
  323MOL0     H43604   6.222   1.281   1.281 -1.5470 -1.5947  3.0827
  323MOL0     H43605   6.085   1.407   1.437 -0.2068 -3.8957 -2.5181
  324MOL0     O43606  10.764   5.262   8.010  0.6523  0.3575  0.6289
  324MOL0     C43607  10.746   5.140   7.991 -0.7738 -0.0369  0.6850
  324MOL0     O43608  10.842   5.044   8.014  0.0879 -1.1123  0.1366
  324MOL0     C43609  10.965   5.088   8.054  0.3222  0.0429 -0.6252
  324MOL0     C43610  10.989   5.088   8.193  0.1764  0.3671 -0.1458
  324MOL0     C43611  11.127   5.099   8.251  0.6812 -0.3844  0.5157
  324MOL0     C43612  11.229   5.123   8.168 -0.2393  0.3408 -0.0986
  324MOL0     O43613  11.362   5.147   8.205  0.0425  0.7821  0.1694
  324MOL0     C43614  11.417   5.079   8.322 -0.8346  0.1385 -0.2056
  324MOL0     C43615  11.566   5.101   8.321  0.4179 -0.2188  0.0908
  324MOL0     C43616  11.631   5.014   8.210  0.1115 -0.9617  1.3464
  324MOL0     C43617  11.756   5.073   8.141  0.0198 -0.0310 -0.1291
  324MOL0     C43618  11.882   5.085   8.234  0.3117  0.8363 -0.1100
  324MOL0     C43619  12.000   5.158   8.158  0.3707  0.1273  0.3390
  324MOL0     C43620  12.098   5.226   8.254  1.1339 -0.1190  0.5218
  324MOL0     C43621  12.213   5.309   8.193  0.1537 -0.5459 -0.0239
  324MOL0     N43622  12.175   5.420   8.107  0.2682 -0.1296  0.7002
  324MOL0     C43623  12.137   5.542   8.151  0.4518 -0.5146 -0.7566
  324MOL0     C43624  12.103   5.613   8.044  0.9828 -0.2303 -0.0919
  324MOL0     C43625  12.028   5.741   8.050  0.2994 -0.3453 -0.7240
  324MOL0     C43626  11.893   5.728   7.983 -0.7312 -0.8847  0.5346
  324MOL0     C43627  11.834   5.870   7.959  0.1481 -0.2822  0.2126
  324MOL0     C43628  11.683   5.872   7.914 -0.8362 -0.2676  0.4510
  324MOL0     O43629  11.662   5.820   7.783 -0.3276 -0.0544 -0.3822
  324MOL0     C43630  11.531   5.816   7.738  0.3545 -0.2566  1.2263
  324MOL0     C43631  11.506   5.744   7.621 -0.1882 -0.4615  0.7498
  324MOL0     C43632  11.381   5.704   7.573  0.2142 -0.4636 -0.5942
  324MOL0     C43633  11.380   5.637   7.438 -0.5947  0.4619 -0.0907
  324MOL0     C43634  11.265   5.753   7.650  0.6273  0.1081  0.5018
  324MOL0     C43635  11.116   5.722   7.619  0.0468  0.0052  0.4854
  324MOL0     O43636  11.031   5.732   7.719  0.1596 -0.4102 -0.8653
  324MOL0     C43637  10.905   5.685   7.712 -0.2896  0.4759 -0.4706
  324MOL0     C43638  10.865   5.586   7.800  0.5662  0.0613  0.7429
  324MOL0     C43639  10.726   5.542   7.802  0.9357  0.8936  0.2309
  324MOL0     C43640  10.633   5.585   7.705  0.6962  0.5414 -0.4614
  324MOL0     O43641  10.497   5.542   7.701 -0.0133 -0.5414  0.2633
  324MOL0     C43642  10.440   5.530   7.570 -0.1570  0.1220 -0.3635
  324MOL0     C43643  10.288   5.510   7.586 -0.5896 -0.8250  1.0535
  324MOL0     C43644  10.219   5.494   7.446  0.2394 -0.3357 -0.4609
  324MOL0     C43645  10.084   5.428   7.447 -0.7405 -0.6405 -1.1928
  324MOL0     C43646  10.002   5.473   7.565 -0.3061  0.7436 -0.0597
  324MOL0     C43647   9.866   5.412   7.546 -0.0711  0.0062  0.2976
  324MOL0     C43648   9.756   5.475   7.629  0.0715 -0.0330 -0.5576
  324MOL0     C43649   9.607   5.421   7.632 -0.7413  0.1317 -0.5223
  324MOL0    Cl43650   9.553   5.405   7.468 -0.3286 -0.1172  0.3297
  324MOL0     C43651  10.683   5.682   7.606  0.7166  0.4542  0.4310
  324MOL0     C43652  10.816   5.729   7.617 -0.4315  0.4763  0.3451
  324MOL0     O43653  11.083   5.678   7.513  0.5855 -0.5947  0.3086
  324MOL0     C43654  11.283   5.833   7.764  0.0076  0.3541  0.3914
  324MOL0     C43655  11.416   5.864   7.811  0.1822  0.1841  0.0778
  324MOL0     N43656  12.124   5.524   7.929  0.0007 -0.0474 -0.0482
  324MOL0     N43657  12.165   5.407   7.974  0.2905  0.4329 -0.3777
  324MOL0     C43658  11.203   5.130   8.030  0.5789 -0.8229 -0.0030
  324MOL0     C43659  11.072   5.114   7.971  0.0340 -0.2876 -0.5956
  324MOL0     C43660  10.627   5.100   7.924 -1.7137  0.6218  0.6268
  324MOL0     C43661  10.593   4.962   7.915  0.1837  0.0706  0.7793
  324MOL0     C43662  10.478   4.923   7.853 -0.3364  0.3385  0.5013
  324MOL0     C43663  10.392   5.018   7.801  0.2052 -0.5755 -0.6547
  324MOL0     O43664  10.279   4.962   7.748 -0.3523  0.2569  0.6271
  324MOL0     C43665  10.176   5.051   7.703 -0.4857 -0.7083  0.5880
  324MOL0     C43666  10.047   4.979   7.671  0.7483  0.3104  0.2888
  324MOL0     C43667   9.991   4.898   7.793  0.1898 -0.2848  0.4005
  324MOL0     C43668   9.938   4.979   7.914 -0.2344 -0.3994  0.0553
  324MOL0     C43669   9.805   5.032   7.864 -0.6465 -0.1902 -0.2855
  324MOL0     C43670   9.707   5.097   7.825 -0.6865 -0.4763 -0.5072
  324MOL0     C43671  10.419   5.157   7.820  0.3928  0.0914  0.1711
  324MOL0     C43672  10.538   5.194   7.881 -0.7153  0.1537  0.1247
  324MOL0     H43673  10.904   5.069   8.258 -1.7414  3.4475 -1.5180
  324MOL0     H43674  11.146   5.093   8.357  0.5253  4.0120  0.9789
  324MOL0     H43675  11.377   5.117   8.416 -1.3008 -0.9185  0.0358
  324MOL0     H43676  11.390   4.973   8.312 -0.4342 -0.1675  1.6566
  324MOL0     H43677  11.599   5.205   8.311  0.9211 -0.5409 -2.6387
  324MOL0     H43678  11.599   5.066   8.419  1.5079 -1.3002 -0.6301
  324MOL0     H43679  11.666   4.921   8.254  0.2944 -0.4855  2.2175
  324MOL0     H43680  11.556   5.002   8.131  0.4934  0.7504  0.6677
  324MOL0     H43681  11.778   5.009   8.055 -2.1243 -3.5164  1.6859
  324MOL0     H43682  11.729   5.173   8.103  0.0309  0.3000  0.7214
  324MOL0     H43683  11.855   5.138   8.325  1.5663  1.2692  0.0184
  324MOL0     H43684  11.897   4.982   8.269 -0.9599  1.0679  1.2179
  324MOL0     H43685  12.052   5.085   8.095 -3.0192 -0.1369 -2.4875
  324MOL0     H43686  11.955   5.236   8.096 -2.2033 -0.6424  1.1254
  324MOL0     H43687  12.037   5.292   8.316 -0.1753 -2.4206  1.8421
  324MOL0     H43688  12.143   5.152   8.320 -1.4606 -2.7318 -0.3816
  324MOL0     H43689  12.275   5.240   8.136 -2.3128 -2.2530 -0.8057
  324MOL0     H43690  12.271   5.343   8.280 -2.1939 -0.4787  1.6071
  324MOL0     H43691  12.120   5.577   8.252 -4.0145 -1.2324 -1.0767
  324MOL0     H43692  12.006   5.778   8.151 -0.9408 -0.5336 -0.9109
  324MOL0     H43693  12.085   5.817   7.995 -2.0112  2.9801  1.1286
  324MOL0     H43694  11.830   5.673   8.053  1.3409 -0.4741  2.8241
  324MOL0     H43695  11.899   5.668   7.892  1.7882  0.5706 -0.3535
  324MOL0     H43696  11.887   5.921   7.879 -1.5961 -1.5464 -1.8606
  324MOL0     H43697  11.844   5.924   8.054  1.6641 -1.1880  0.5979
  324MOL0     H43698  11.651   5.976   7.906  0.3492  0.0907  0.0690
  324MOL0     H43699  11.613   5.832   7.988  1.9044 -0.6587  3.0550
  324MOL0     H43700  11.593   5.717   7.562  1.1270 -4.0064  3.8801
  324MOL0     H43701  11.463   5.566   7.438  0.4554  1.6627  0.1277
  324MOL0     H43702  11.292   5.572   7.428 -1.6542  1.7046  0.8329
  324MOL0     H43703  11.388   5.705   7.352  2.4498  0.1745 -0.1331
  324MOL0     H43704  10.939   5.550   7.871  0.5807  1.1130  1.2692
  324MOL0     H43705  10.690   5.474   7.879 -0.5331 -0.5805 -1.6467
  324MOL0     H43706  10.443   5.621   7.509 -0.0604 -0.5112 -1.3269
  324MOL0     H43707  10.485   5.441   7.525 -1.4641 -0.9102  0.3211
  324MOL0     H43708  10.271   5.419   7.643 -1.1881 -1.3985 -0.0003
  324MOL0     H43709  10.265   5.604   7.636 -0.5206 -0.8392  1.1121
  324MOL0     H43710  10.280   5.424   7.388 -0.6986  1.1033 -3.3992
  324MOL0     H43711  10.205   5.587   7.390 -1.7229 -1.6522 -2.2927
  324MOL0     H43712  10.032   5.461   7.357  0.6310  0.5254 -1.5739
  324MOL0     H43713  10.110   5.323   7.434  0.9346 -0.1857 -1.7031
  324MOL0     H43714   9.991   5.582   7.566 -0.8747  0.7072 -1.3189
  324MOL0     H43715  10.055   5.431   7.652  1.8066 -1.6379 -2.3148
  324MOL0     H43716   9.839   5.435   7.443  0.0824 -0.7871  0.0722
  324MOL0     H43717   9.864   5.304   7.560 -0.0964  0.1139  1.2096
  324MOL0     H43718   9.758   5.579   7.597  3.0231  0.2599  0.2576
  324MOL0     H43719   9.788   5.477   7.734  0.2968 -1.6562 -0.5710
  324MOL0     H43720   9.537   5.492   7.677  0.0498  0.4902  0.1523
  324MOL0     H43721   9.611   5.326   7.685  4.1202  0.4955  0.1883
  324MOL0     H43722  10.627   5.731   7.527  2.4081 -0.0135 -1.1204
  324MOL0     H43723  10.845   5.801   7.542  0.5579 -1.2034 -0.9723
  324MOL0     H43724  11.194   5.861   7.819 -3.4477 -1.3341 -3.8090
  324MOL0     H43725  11.420   5.929   7.897 -0.3829  0.2031  0.0954
  324MOL0     H43726  11.281   5.130   7.955 -1.1401 -1.9674 -1.8880
  324MOL0     H43727  11.059   5.118   7.864  0.4187  1.2959 -0.6060
  324MOL0     H43728  10.653   4.884   7.961 -2.1159 -0.7876  2.5530
  324MOL0     H43729  10.457   4.817   7.857  0.9298 -0.0719 -1.7682
  324MOL0     H43730  10.161   5.139   7.766  2.6323 -0.7937  1.6457
  324MOL0     H43731  10.203   5.096   7.607  0.8409  0.5501  1.4881
  324MOL0     H43732  10.054   4.904   7.592  0.5985  0.3546  0.2321
  324MOL0     H43733   9.973   5.054   7.639  0.3298 -0.9187 -1.8052
  324MOL0     H43734  10.070   4.838   7.838  2.4176  0.1809 -2.6396
  324MOL0     H43735   9.914   4.826   7.762  0.8106  0.2944 -2.7539
  324MOL0     H43736  10.005   5.058   7.947 -0.6906  0.2795 -0.5950
  324MOL0     H43737   9.928   4.899   7.988  2.6153 -1.3015 -0.4144
  324MOL0     H43738   9.636   5.163   7.780  0.7510  0.6227 -1.2245
  324MOL0     H43739  10.345   5.234   7.797 -1.8586 -1.4918  1.6318
  324MOL0     H43740  10.551   5.297   7.911 -3.4863  1.2489 -1.8966
  325MOL0     O43741   2.128   1.506   9.351  0.0263 -0.1705 -0.6478
  325MOL0     C43742   2.195   1.463   9.261  0.4257 -0.2577  0.8335
  325MOL0     O43743   2.168   1.491   9.122  0.2321 -0.2222  0.3501
  325MOL0     C43744   2.058   1.565   9.079  0.2364  0.8631  0.1495
  325MOL0     C43745   1.933   1.560   9.139  0.4982 -0.1270 -0.3151
  325MOL0     C43746   1.825   1.635   9.082 -0.1303 -0.1377  0.6576
  325MOL0     C43747   1.838   1.713   8.970  0.3043  0.2538 -0.4085
  325MOL0     O43748   1.728   1.791   8.933 -0.5544  0.3360  0.2020
  325MOL0     C43749   1.736   1.844   8.801  0.2899  0.2682 -0.2488
  325MOL0     C43750   1.602   1.894   8.755 -0.4491  0.9951 -0.2015
  325MOL0     C43751   1.576   1.852   8.608 -1.0384 -0.1534 -0.3385
  325MOL0     C43752   1.442   1.909   8.560  0.9386 -0.3251 -0.0207
  325MOL0     C43753   1.395   1.844   8.426  0.7654  0.0017 -0.0178
  325MOL0     C43754   1.250   1.805   8.436 -0.8521 -0.2970  0.3450
  325MOL0     C43755   1.216   1.743   8.302  0.0465  0.4508  0.3501
  325MOL0     C43756   1.167   1.838   8.191 -0.6760  0.4001 -0.5480
  325MOL0     N43757   1.112   1.761   8.080 -0.0090  0.3882  0.5071
  325MOL0     C43758   1.163   1.751   7.950 -0.6262  0.3008 -0.1119
  325MOL0     C43759   1.059   1.697   7.873 -0.0274 -0.4782 -0.3802
  325MOL0     C43760   1.065   1.681   7.724 -0.5678 -0.1315 -1.0387
  325MOL0     C43761   1.125   1.546   7.676 -0.7016 -0.5215 -0.7790
  325MOL0     C43762   1.029   1.431   7.697  0.2026 -0.3549 -0.0590
  325MOL0     C43763   0.915   1.444   7.594 -0.1101  0.2370 -0.3092
  325MOL0     O43764   0.886   1.313   7.528 -0.1967  1.0673 -0.8201
  325MOL0     C43765   0.769   1.300   7.447  0.0323  0.8043  0.2863
  325MOL0     C43766   0.717   1.174   7.441  0.6276  0.4782 -0.1080
  325MOL0     C43767   0.613   1.151   7.347 -0.3483 -1.0210 -0.4608
  325MOL0     C43768   0.562   1.023   7.314  0.2397  0.5983  0.0621
  325MOL0     C43769   0.567   1.261   7.269  0.0526 -1.0649 -0.2415
  325MOL0     C43770   0.459   1.251   7.170 -0.2260 -0.1769 -0.3114
  325MOL0     O43771   0.471   1.318   7.055 -0.9867 -0.5834 -0.0893
  325MOL0     C43772   0.378   1.301   6.963 -0.4551  1.3497  0.6751
  325MOL0     C43773   0.254   1.375   6.967 -0.3914 -0.3205 -0.1485
  325MOL0     C43774   0.144   1.333   6.882 -0.1860 -0.0303 -0.5891
  325MOL0     C43775   0.156   1.232   6.788  0.0272 -0.5696  0.5334
  325MOL0     O43776   0.048   1.196   6.713 -0.0854  0.7245  0.0794
  325MOL0     C43777   0.077   1.151   6.575 -0.2552 -0.4993  0.5108
  325MOL0     C43778  -0.046   1.143   6.488  0.2552 -0.5256  0.9539
  325MOL0     C43779  -0.157   1.066   6.561 -0.1727  1.0462 -0.6118
  325MOL0     C43780  -0.262   1.167   6.626 -0.4783  0.0804  0.3186
  325MOL0     C43781  -0.413   1.126   6.631  0.1159  1.0648  1.2619
  325MOL0     C43782  -0.472   1.130   6.488  0.3301 -0.8710 -0.4261
  325MOL0     C43783  -0.635   1.132   6.494  0.7035 -1.1457  0.4729
  325MOL0     C43784  -0.700   1.109   6.357  0.3582  0.0293 -0.0368
  325MOL0    Cl43785  -0.678   1.253   6.256 -0.0055  0.2406 -0.4139
  325MOL0     C43786   0.284   1.178   6.769 -0.1739  0.3225 -0.0688
  325MOL0     C43787   0.398   1.202   6.859  0.5405 -0.2355  0.1699
  325MOL0     O43788   0.363   1.180   7.203  0.5652 -0.2775  0.2211
  325MOL0     C43789   0.627   1.387   7.292  0.4638  0.4217  0.4394
  325MOL0     C43790   0.728   1.406   7.377 -1.0834 -0.0957  0.1846
  325MOL0     N43791   0.951   1.679   7.959  0.1164 -0.0228  0.0647
  325MOL0     N43792   0.988   1.717   8.076 -0.0111 -0.0692 -0.6809
  325MOL0     C43793   1.962   1.710   8.909 -0.3452 -0.4145  0.4464
  325MOL0     C43794   2.069   1.647   8.974 -0.3147 -0.0854  0.0178
  325MOL0     C43795   2.315   1.383   9.292  0.0292  0.1383 -0.5815
  325MOL0     C43796   2.357   1.354   9.420 -0.1814 -0.1886  0.0085
  325MOL0     C43797   2.467   1.284   9.454 -0.8060 -0.1734 -0.0509
  325MOL0     C43798   2.556   1.245   9.357  0.2496 -0.0800 -1.2413
  325MOL0     O43799   2.673   1.183   9.408 -0.0786 -0.5448  0.0490
  325MOL0     C43800   2.781   1.155   9.318  0.7417  0.0751 -0.0354
  325MOL0     C43801   2.913   1.171   9.397 -0.0150 -0.8441  0.3799
  325MOL0     C43802   3.036   1.121   9.319  0.7556 -0.3475  0.0194
  325MOL0     C43803   3.058   0.970   9.313 -0.1649  0.7079 -0.1238
  325MOL0     C43804   3.180   0.936   9.235  0.4197 -0.6883 -0.5382
  325MOL0     C43805   3.276   0.901   9.163  0.1319  0.2756 -0.3756
  325MOL0     C43806   2.511   1.262   9.221  0.1097  0.0819 -0.3676
  325MOL0     C43807   2.395   1.336   9.194  0.8333  0.5259  0.0542
  325MOL0     H43808   1.916   1.493   9.223 -0.0581 -2.0055 -1.8764
  325MOL0     H43809   1.733   1.632   9.140  0.5837 -2.8415  1.8282
  325MOL0     H43810   1.810   1.925   8.802  2.4179 -1.5931  0.9202
  325MOL0     H43811   1.766   1.770   8.727 -2.5111  0.7799 -2.0301
  325MOL0     H43812   1.529   1.859   8.828 -1.1296  3.9100  0.6233
  325MOL0     H43813   1.606   2.003   8.763  6.3662  1.1614 -0.1807
  325MOL0     H43814   1.657   1.898   8.551  0.6506  0.3197  2.2647
  325MOL0     H43815   1.585   1.744   8.590 -0.2507 -0.0582 -0.5607
  325MOL0     H43816   1.377   1.880   8.643  1.3834 -0.9886  0.0975
  325MOL0     H43817   1.435   2.016   8.539 -0.6913 -0.6081 -1.1380
  325MOL0     H43818   1.401   1.914   8.342  0.5659 -1.9701 -1.7634
  325MOL0     H43819   1.456   1.753   8.415  3.2934  1.2535  2.5158
  325MOL0     H43820   1.235   1.723   8.506  2.5082 -0.2430  1.3113
  325MOL0     H43821   1.185   1.892   8.453 -1.6922 -0.3645 -2.1185
  325MOL0     H43822   1.287   1.669   8.264 -3.5063 -1.7660 -2.6526
  325MOL0     H43823   1.131   1.684   8.338  1.0338 -0.4091  1.3201
  325MOL0     H43824   1.259   1.891   8.164  0.2453 -1.2613 -0.7527
  325MOL0     H43825   1.089   1.900   8.238 -1.9109 -1.8568  0.5846
  325MOL0     H43826   1.259   1.773   7.906  0.2539  0.7601  1.9459
  325MOL0     H43827   0.969   1.700   7.675 -1.7910 -1.1689  0.8269
  325MOL0     H43828   1.127   1.765   7.692  0.1666  1.3803  3.5766
  325MOL0     H43829   1.208   1.525   7.744 -0.8097 -1.2230 -0.8607
  325MOL0     H43830   1.169   1.546   7.576  3.6067  0.2279  0.8500
  325MOL0     H43831   0.991   1.432   7.799 -1.3133  0.4962 -0.5968
  325MOL0     H43832   1.084   1.338   7.683  0.5478  0.0331 -1.5232
  325MOL0     H43833   0.959   1.498   7.509 -2.4738  0.2042 -1.6358
  325MOL0     H43834   0.831   1.500   7.636  0.8262 -0.2481  2.4483
  325MOL0     H43835   0.756   1.095   7.505  0.5810  1.9935  1.8981
  325MOL0     H43836   0.455   1.019   7.335  0.0031  1.2338 -0.9684
  325MOL0     H43837   0.595   1.001   7.212  0.4964  0.0330  0.2597
  325MOL0     H43838   0.600   0.941   7.377 -1.8837  0.7126  1.5747
  325MOL0     H43839   0.235   1.461   7.029 -1.9061  1.1797 -2.5488
  325MOL0     H43840   0.048   1.383   6.888 -0.8518 -1.3872  0.8478
  325MOL0     H43841   0.149   1.214   6.521  0.4772 -2.1520 -0.5226
  325MOL0     H43842   0.123   1.052   6.582  1.4318  0.3446  2.4385
  325MOL0     H43843  -0.076   1.245   6.461  1.7594 -0.2875  0.0725
  325MOL0     H43844  -0.019   1.096   6.394  1.9219  0.6090  0.8108
  325MOL0     H43845  -0.114   1.004   6.639  0.0265 -0.3294 -1.7834
  325MOL0     H43846  -0.206   0.987   6.504  0.3134 -2.2043  3.1121
  325MOL0     H43847  -0.232   1.189   6.729  0.1922  3.0288 -0.4101
  325MOL0     H43848  -0.256   1.257   6.564  0.3344 -2.2673 -3.3295
  325MOL0     H43849  -0.469   1.195   6.695 -0.3687 -0.2954  2.3526
  325MOL0     H43850  -0.415   1.023   6.668 -0.9469  0.2289 -0.9433
  325MOL0     H43851  -0.444   1.224   6.440 -1.2922 -0.4238 -0.5754
  325MOL0     H43852  -0.451   1.042   6.427  0.6141 -0.1221 -1.4176
  325MOL0     H43853  -0.664   1.230   6.534  0.5332 -0.8106 -0.4356
  325MOL0     H43854  -0.666   1.054   6.564 -1.1169 -1.0378 -0.1613
  325MOL0     H43855  -0.806   1.085   6.364  0.2171  0.7996  0.6728
  325MOL0     H43856  -0.655   1.023   6.308 -5.9857 -3.3387 -0.9381
  325MOL0     H43857   0.301   1.106   6.690  0.1722 -0.2590  0.5267
  325MOL0     H43858   0.498   1.163   6.847  0.4423 -0.3835 -0.1701
  325MOL0     H43859   0.578   1.474   7.251 -1.8764 -0.5389  1.0484
  325MOL0     H43860   0.771   1.504   7.396  0.8921 -1.1718  1.5259
  325MOL0     H43861   1.982   1.762   8.816  2.5156  1.6094  2.0173
  325MOL0     H43862   2.170   1.651   8.933  0.5242 -1.0385  1.8446
  325MOL0     H43863   2.294   1.389   9.500 -1.5462 -0.0344 -1.1047
  325MOL0     H43864   2.497   1.275   9.558 -2.4577  0.1929  0.4888
  325MOL0     H43865   2.767   1.057   9.272 -0.3140  0.1288  0.1593
  325MOL0     H43866   2.784   1.228   9.237  1.5423  0.0148 -0.0670
  325MOL0     H43867   2.919   1.113   9.490  2.5845  1.4563  1.8141
  325MOL0     H43868   2.921   1.276   9.426  0.7768 -0.4100 -1.3405
  325MOL0     H43869   3.132   1.160   9.354  0.9375 -1.2497  0.5672
  325MOL0     H43870   3.013   1.152   9.216 -1.5108 -1.6813  0.0395
  325MOL0     H43871   2.972   0.919   9.269  1.4559 -2.1247 -0.2650
  325MOL0     H43872   3.072   0.928   9.413 -2.5796  2.4729  1.0424
  325MOL0     H43873   3.356   0.863   9.104  1.3248 -0.6859  1.7648
  325MOL0     H43874   2.574   1.236   9.136  1.0414  0.4751  0.1786
  325MOL0     H43875   2.373   1.366   9.092 -0.8142  0.2392  0.3075
  326MOL0     O43876   3.212   0.363  10.986 -0.6707  1.2134 -0.3512
  326MOL0     C43877   3.268   0.347  11.097 -0.0334  0.0487  1.7262
  326MOL0     O43878   3.227   0.423  11.208 -0.2658  0.6034  0.3236
  326MOL0     C43879   3.167   0.547  11.183  0.1298 -0.4739  0.4259
  326MOL0     C43880   3.246   0.653  11.148 -0.5460 -0.1807  0.5155
  326MOL0     C43881   3.191   0.776  11.122 -0.2044 -0.6313 -0.1141
  326MOL0     C43882   3.053   0.798  11.146  0.3955 -0.2747  0.8315
  326MOL0     O43883   2.986   0.921  11.137  0.0856 -0.6993  1.0015
  326MOL0     C43884   3.045   1.034  11.067 -0.3985 -0.2600  0.4155
  326MOL0     C43885   2.975   1.171  11.099  0.2109 -0.7020  0.3439
  326MOL0     C43886   2.978   1.209  11.250 -0.3707  0.1145 -0.3773
  326MOL0     C43887   2.887   1.333  11.271  0.7266  0.7612  0.2182
  326MOL0     C43888   2.855   1.349  11.420 -0.2319 -0.3496 -0.4278
  326MOL0     C43889   2.731   1.258  11.448  0.1283  0.9549  0.5188
  326MOL0     C43890   2.701   1.270  11.593  0.4578  0.0513  0.2372
  326MOL0     C43891   2.633   1.406  11.631 -0.3067 -0.1068  0.1482
  326MOL0     N43892   2.503   1.397  11.699  0.4119 -0.4568  0.0592
  326MOL0     C43893   2.478   1.377  11.827  0.0729  0.1590  0.1163
  326MOL0     C43894   2.344   1.384  11.838  0.3967  0.4920 -0.5200
  326MOL0     C43895   2.268   1.357  11.966 -0.1345  0.0430 -0.3608
  326MOL0     C43896   2.115   1.341  11.955  0.3630  0.1609 -0.5442
  326MOL0     C43897   2.053   1.246  12.072  0.6941  0.4134  0.1724
  326MOL0     C43898   1.922   1.310  12.138  0.0593 -0.1017 -0.4478
  326MOL0     O43899   1.827   1.320  12.027  0.4062 -0.3543 -0.5605
  326MOL0     C43900   1.692   1.307  12.043 -0.0571 -0.2405 -0.7750
  326MOL0     C43901   1.620   1.284  11.921  0.2919  0.4684 -0.5011
  326MOL0     C43902   1.477   1.274  11.926  0.4152  0.2969 -0.2879
  326MOL0     C43903   1.410   1.256  11.795  1.2232 -0.3034 -0.5122
  326MOL0     C43904   1.408   1.297  12.050 -0.4361  0.1836 -0.8494
  326MOL0     C43905   1.265   1.295  12.067  0.2491 -0.6639 -0.5204
  326MOL0     O43906   1.190   1.220  11.974  0.2282  0.6012  0.1984
  326MOL0     C43907   1.049   1.215  11.984 -0.4784 -0.0321 -0.6558
  326MOL0     C43908   0.965   1.223  11.868 -0.0532 -0.3084 -0.1080
  326MOL0     C43909   0.828   1.235  11.880 -0.4940 -0.6239 -0.1307
  326MOL0     C43910   0.758   1.217  11.997 -0.5664 -0.4559  0.0684
  326MOL0     O43911   0.625   1.205  12.010  1.0762  0.5005 -0.4538
  326MOL0     C43912   0.585   1.082  12.085 -0.7665 -0.2784 -0.2568
  326MOL0     C43913   0.432   1.045  12.081  0.2818  0.1585  0.5577
  326MOL0     C43914   0.356   1.162  12.138 -0.7927  0.2399 -0.1120
  326MOL0     C43915   0.239   1.187  12.046 -0.0297  0.7827  0.8348
  326MOL0     C43916   0.134   1.265  12.129  0.0018  0.5641  0.1925
  326MOL0     C43917   0.028   1.318  12.030 -0.4482 -0.1513 -0.1464
  326MOL0     C43918  -0.108   1.356  12.090 -0.7030 -0.2393 -0.1592
  326MOL0     C43919  -0.199   1.400  11.984 -0.1936 -0.5594  0.4434
  326MOL0    Cl43920  -0.358   1.426  12.060 -0.4930 -0.1616  0.1399
  326MOL0     C43921   0.843   1.205  12.109  0.2979  0.6959 -0.4636
  326MOL0     C43922   0.983   1.208  12.104  0.7516  0.7268  0.4548
  326MOL0     O43923   1.217   1.366  12.159  0.2035 -0.5633 -0.5093
  326MOL0     C43924   1.485   1.311  12.168 -1.1609  0.1648  0.5702
  326MOL0     C43925   1.626   1.320  12.167  0.2609 -0.2113  0.0814
  326MOL0     N43926   2.300   1.386  11.711  0.7082 -0.1444 -0.2912
  326MOL0     N43927   2.393   1.407  11.631  1.0793  0.3050  0.0931
  326MOL0     C43928   2.968   0.695  11.178 -0.7553 -1.0616  0.2033
  326MOL0     C43929   3.026   0.566  11.199  0.2273 -0.3200  0.5549
  326MOL0     C43930   3.389   0.263  11.116  0.7329  1.0357  0.1591
  326MOL0     C43931   3.481   0.243  11.006  0.3042 -0.3825 -0.5260
  326MOL0     C43932   3.598   0.180  11.027  0.9686  0.2544 -0.3771
  326MOL0     C43933   3.633   0.137  11.153 -0.7308  0.0509 -0.2392
  326MOL0     O43934   3.766   0.098  11.169 -0.5810  0.1824  0.4405
  326MOL0     C43935   3.799   0.033  11.292 -1.2750 -0.5372 -0.3878
  326MOL0     C43936   3.952   0.008  11.307  0.5779 -0.1581 -0.2055
  326MOL0     C43937   4.009  -0.074  11.419  0.0270  0.5526 -0.2207
  326MOL0     C43938   3.966  -0.222  11.409 -0.7665  0.3139  0.5631
  326MOL0     C43939   4.040  -0.293  11.313 -0.2085  0.6314  0.3744
  326MOL0     C43940   4.100  -0.371  11.237  0.0025  0.0044 -0.8373
  326MOL0     C43941   3.536   0.148  11.262 -0.4173  0.5441  0.5190
  326MOL0     C43942   3.416   0.209  11.239  0.0033 -0.4963 -0.6424
  326MOL0     H43943   3.354   0.640  11.138 -0.2517  1.7247  0.7876
  326MOL0     H43944   3.251   0.864  11.104  2.0072 -2.1219 -0.3639
  326MOL0     H43945   3.145   1.042  11.110 -0.6516  0.9261  0.8173
  326MOL0     H43946   3.037   1.028  10.958 -0.3078  1.1295  0.3187
  326MOL0     H43947   3.029   1.253  11.050  3.6050 -1.1232  2.9557
  326MOL0     H43948   2.870   1.170  11.068 -0.8152  0.8555  3.3620
  326MOL0     H43949   2.940   1.125  11.308  0.2594  1.0808  1.5182
  326MOL0     H43950   3.081   1.231  11.277  0.5921 -0.0276 -3.5098
  326MOL0     H43951   2.947   1.421  11.246  0.2044  0.8007 -0.9523
  326MOL0     H43952   2.795   1.337  11.211 -0.1048 -0.8995  1.3141
  326MOL0     H43953   2.939   1.316  11.481  0.5195  0.5401 -0.9538
  326MOL0     H43954   2.834   1.455  11.432  1.0133 -0.1212 -0.0764
  326MOL0     H43955   2.643   1.282  11.388 -0.1811  2.4806  1.5320
  326MOL0     H43956   2.762   1.153  11.439 -1.3206  0.5456 -0.0326
  326MOL0     H43957   2.620   1.196  11.604 -2.2101  2.5061 -1.4749
  326MOL0     H43958   2.788   1.241  11.653  0.8116  1.2375  0.3141
  326MOL0     H43959   2.616   1.468  11.542 -1.1526  0.3575  0.6137
  326MOL0     H43960   2.697   1.459  11.702 -1.3105  1.3458  0.0261
  326MOL0     H43961   2.543   1.371  11.914  0.9941 -0.6318 -0.5991
  326MOL0     H43962   2.316   1.269  12.010  1.4655  1.1131  0.1497
  326MOL0     H43963   2.292   1.441  12.032 -3.0147  1.6543 -1.2031
  326MOL0     H43964   2.083   1.292  11.863 -1.3931  0.2292  0.0091
  326MOL0     H43965   2.068   1.440  11.953 -0.2855 -0.1508 -0.8007
  326MOL0     H43966   2.122   1.224  12.153 -1.6387 -0.5851  2.0218
  326MOL0     H43967   2.038   1.148  12.027 -1.7361  0.7081  0.2072
  326MOL0     H43968   1.937   1.409  12.184 -2.0250 -0.6919  1.6805
  326MOL0     H43969   1.883   1.243  12.215 -0.0497 -0.9667 -1.2345
  326MOL0     H43970   1.678   1.272  11.830  0.0272 -2.4265 -0.3688
  326MOL0     H43971   1.349   1.341  11.764  1.8252  0.2780 -0.1290
  326MOL0     H43972   1.494   1.242  11.726  0.3448  0.3021 -1.7248
  326MOL0     H43973   1.356   1.161  11.787  0.3271 -0.1128  2.2263
  326MOL0     H43974   1.011   1.249  11.773 -2.1578  1.0874 -0.8233
  326MOL0     H43975   0.789   1.253  11.780  0.4981  0.4564 -0.3504
  326MOL0     H43976   0.644   0.998  12.046  2.7522  2.0239 -0.3384
  326MOL0     H43977   0.602   1.100  12.191 -2.3669  2.5561 -0.3910
  326MOL0     H43978   0.413   1.028  11.975 -2.8309  2.7992  0.5328
  326MOL0     H43979   0.406   0.954  12.137  0.5007 -1.7013 -2.1713
  326MOL0     H43980   0.427   1.244  12.145  0.2596 -0.4899 -1.6664
  326MOL0     H43981   0.334   1.119  12.236  2.4819 -2.4189 -0.3360
  326MOL0     H43982   0.264   1.239  11.952 -0.1935 -0.7189 -0.0694
  326MOL0     H43983   0.188   1.097  12.010 -1.4844  2.3096 -1.2092
  326MOL0     H43984   0.179   1.344  12.189  0.9592 -2.1502  3.3243
  326MOL0     H43985   0.097   1.198  12.206  1.8351  1.1644  1.6840
  326MOL0     H43986   0.072   1.404  11.977  1.2451 -1.3491 -0.7901
  326MOL0     H43987   0.011   1.230  11.967 -3.3897 -1.0290  1.7046
  326MOL0     H43988  -0.088   1.442  12.155 -0.2440 -0.9333  0.6313
  326MOL0     H43989  -0.145   1.276  12.154  0.3220 -1.3599 -0.9373
  326MOL0     H43990  -0.213   1.320  11.911 -3.8797  0.2871  0.0192
  326MOL0     H43991  -0.165   1.490  11.931  2.2543  0.3605  3.2870
  326MOL0     H43992   0.807   1.185  12.209  1.5629 -3.5221 -0.6581
  326MOL0     H43993   1.046   1.197  12.191  0.1150  0.7021  0.9141
  326MOL0     H43994   1.435   1.323  12.264  1.1408 -1.4528  2.1081
  326MOL0     H43995   1.692   1.338  12.250  1.2990  0.3285 -0.8355
  326MOL0     H43996   2.862   0.714  11.193 -0.6184  0.0880 -0.2110
  326MOL0     H43997   2.957   0.484  11.219 -0.8157 -0.6620 -3.4959
  326MOL0     H43998   3.445   0.279  10.910 -1.9203 -1.4835 -0.1757
  326MOL0     H43999   3.667   0.174  10.944  0.3939 -1.9430 -0.7627
  326MOL0     H44000   3.775   0.102  11.374 -0.4700  0.7975 -1.2437
  326MOL0     H44001   3.754  -0.067  11.293  3.5664 -3.0231 -0.2300
  326MOL0     H44002   4.001   0.106  11.301 -1.2631  0.7201 -3.8089
  326MOL0     H44003   3.984  -0.032  11.210 -0.3458  4.6584 -2.8238
  326MOL0     H44004   3.965  -0.042  11.514 -0.6266  0.7814 -0.5910
  326MOL0     H44005   4.118  -0.077  11.427  0.0482  0.4230 -0.5292
  326MOL0     H44006   3.860  -0.237  11.386 -0.2451 -3.3194 -0.1660
  326MOL0     H44007   3.984  -0.283  11.499  1.3176  0.9194  0.5879
  326MOL0     H44008   4.148  -0.438  11.168 -0.1201  0.8468 -1.7569
  326MOL0     H44009   3.568   0.116  11.361 -1.8341 -1.9877  0.2404
  326MOL0     H44010   3.348   0.211  11.323 -0.3802  0.2045 -0.9513
  327MOL0     O44011   2.119   3.503   0.467  0.0763 -0.1699 -0.4606
  327MOL0     C44012   2.058   3.600   0.425 -0.9397 -0.2545  0.5446
  327MOL0     O44013   1.940   3.608   0.372  0.3436 -0.2952  0.2166
  327MOL0     C44014   1.872   3.502   0.314 -0.0228 -0.3060  0.3824
  327MOL0     C44015   1.934   3.407   0.235 -0.7227  0.2138  0.4463
  327MOL0     C44016   1.860   3.304   0.171  0.1294  0.6623 -0.0401
  327MOL0     C44017   1.723   3.308   0.192  0.0536  1.1067  0.8921
  327MOL0     O44018   1.646   3.210   0.127  0.2883  0.2814 -0.1817
  327MOL0     C44019   1.510   3.233   0.092  0.2379  0.0635 -1.0566
  327MOL0     C44020   1.422   3.160   0.201 -0.3094 -0.4825  0.0379
  327MOL0     C44021   1.275   3.199   0.194 -0.0959  0.3265 -0.3042
  327MOL0     C44022   1.205   3.202   0.062 -0.4050 -0.1788  0.4516
  327MOL0     C44023   1.056   3.191   0.075  0.4130 -0.9379  0.3398
  327MOL0     C44024   0.993   3.133  -0.053  0.3045  0.4983  0.3552
  327MOL0     C44025   0.843   3.141  -0.050  0.5950  0.7256 -0.5911
  327MOL0     C44026   0.795   3.287  -0.059 -0.7559  0.4110  0.8032
  327MOL0     N44027   0.649   3.292  -0.099 -0.8441  0.1364 -1.0369
  327MOL0     C44028   0.555   3.369  -0.042 -1.1354  0.1073 -0.3602
  327MOL0     C44029   0.447   3.345  -0.119 -0.4877  0.4756  0.2550
  327MOL0     C44030   0.317   3.408  -0.094  0.5644  0.0132 -0.4690
  327MOL0     C44031   0.250   3.367   0.034  0.1569  0.1629  0.5769
  327MOL0     C44032   0.195   3.225   0.048 -0.7492 -0.3004  0.0934
  327MOL0     C44033   0.107   3.181  -0.066  0.3804  0.7079  0.2323
  327MOL0     O44034   0.016   3.285  -0.086 -0.0935 -0.6308 -0.0120
  327MOL0     C44035  -0.102   3.266  -0.012 -0.0039 -0.6115 -0.0584
  327MOL0     C44036  -0.183   3.152  -0.023  0.4045  0.5018 -0.3060
  327MOL0     C44037  -0.302   3.129   0.054  1.1697  0.2507 -0.1423
  327MOL0     C44038  -0.364   2.990   0.048 -0.5577  0.2489  0.4232
  327MOL0     C44039  -0.359   3.243   0.122 -0.3336  1.0998 -0.8381
  327MOL0     C44040  -0.480   3.231   0.207 -0.2373 -0.6731 -0.2744
  327MOL0     O44041  -0.492   3.330   0.295 -0.2239  0.5340 -0.2204
  327MOL0     C44042  -0.613   3.324   0.365 -0.4178 -0.0270  0.4436
  327MOL0     C44043  -0.730   3.352   0.300  0.0190  0.1631 -0.4589
  327MOL0     C44044  -0.842   3.342   0.373  0.0908  0.5504  0.4830
  327MOL0     C44045  -0.852   3.299   0.503  0.3449  0.4165 -1.2247
  327MOL0     O44046  -0.975   3.300   0.559 -0.2919  0.2239  0.8501
  327MOL0     C44047  -1.017   3.185   0.631  0.1586 -0.5334  0.4793
  327MOL0     C44048  -1.160   3.192   0.656  0.3106 -0.2531  0.0374
  327MOL0     C44049  -1.206   3.284   0.766  0.2327  0.2732 -0.3481
  327MOL0     C44050  -1.142   3.257   0.911  0.6012  0.3810  0.1474
  327MOL0     C44051  -1.216   3.316   1.027 -0.0499 -0.3122  0.3645
  327MOL0     C44052  -1.132   3.284   1.162 -0.3706 -0.1279 -0.4989
  327MOL0     C44053  -0.999   3.364   1.190 -0.3947  0.2662  0.6626
  327MOL0     C44054  -0.903   3.282   1.274  0.4277 -0.3276 -0.1714
  327MOL0    Cl44055  -0.847   3.141   1.184 -0.1769  0.3246 -0.0779
  327MOL0     C44056  -0.732   3.267   0.563  0.0914 -0.5466  0.4115
  327MOL0     C44057  -0.613   3.291   0.500 -0.4600  0.1785 -0.4351
  327MOL0     O44058  -0.560   3.137   0.179  0.5422  0.0862  0.0239
  327MOL0     C44059  -0.275   3.356   0.133 -0.1474 -0.5773 -1.1893
  327MOL0     C44060  -0.150   3.367   0.071  0.7487 -0.4370 -0.1272
  327MOL0     N44061   0.475   3.254  -0.214 -0.6462  0.0995  0.4727
  327MOL0     N44062   0.599   3.217  -0.205 -0.5206 -0.6221  0.0131
  327MOL0     C44063   1.663   3.408   0.267  0.0805  0.1807 -0.0115
  327MOL0     C44064   1.736   3.494   0.338  0.7374 -0.4129 -0.1116
  327MOL0     C44065   2.143   3.717   0.419 -0.4355 -0.4980 -0.2885
  327MOL0     C44066   2.093   3.840   0.461  0.9048 -0.2872  0.3471
  327MOL0     C44067   2.175   3.957   0.454  0.3489 -0.2672 -1.3427
  327MOL0     C44068   2.299   3.959   0.390  0.4996 -0.2942  0.5335
  327MOL0     O44069   2.368   4.077   0.385 -0.5294 -0.4546  0.2086
  327MOL0     C44070   2.485   4.069   0.304  0.4014  0.4146  0.4648
  327MOL0     C44071   2.587   4.182   0.340  1.2247  0.1997  0.1984
  327MOL0     C44072   2.727   4.161   0.305  0.7158  0.2634  0.5799
  327MOL0     C44073   2.828   4.262   0.367  0.0195  0.3464 -0.0982
  327MOL0     C44074   2.971   4.228   0.341 -0.1304  0.2095 -0.4736
  327MOL0     C44075   3.085   4.196   0.316  0.0820 -0.1043 -0.1072
  327MOL0     C44076   2.339   3.839   0.333 -1.0143  1.1606  0.1272
  327MOL0     C44077   2.259   3.718   0.350 -0.3102 -0.7649 -0.7536
  327MOL0     H44078   2.039   3.413   0.208 -0.5324 -2.1625  0.4038
  327MOL0     H44079   1.911   3.226   0.114 -0.1196 -0.4767  1.2424
  327MOL0     H44080   1.486   3.339   0.106  2.4163  0.5099 -0.3901
  327MOL0     H44081   1.483   3.201  -0.009 -2.6523  0.4392 -0.5021
  327MOL0     H44082   1.445   3.054   0.186  0.3140 -0.5677  1.4409
  327MOL0     H44083   1.473   3.182   0.295 -1.3033 -2.7419  1.2222
  327MOL0     H44084   1.218   3.141   0.267 -1.2759  1.1997 -0.5152
  327MOL0     H44085   1.279   3.303   0.227  2.3201  0.5648 -1.1367
  327MOL0     H44086   1.240   3.280  -0.006 -1.0335 -1.3748 -1.3143
  327MOL0     H44087   1.238   3.110   0.013 -3.7916  0.5687 -3.9116
  327MOL0     H44088   1.028   3.128   0.160 -0.8020 -0.7948  0.0613
  327MOL0     H44089   1.010   3.289   0.088 -1.7519 -2.0661  1.8409
  327MOL0     H44090   1.023   3.188  -0.142  0.6642  0.6253  0.5542
  327MOL0     H44091   1.023   3.031  -0.077  0.2330  0.7087 -0.6559
  327MOL0     H44092   0.816   3.076  -0.133 -0.8394 -2.3383  2.0558
  327MOL0     H44093   0.805   3.098   0.043  2.2810  0.2167 -0.0838
  327MOL0     H44094   0.852   3.336  -0.138 -1.5971  2.0787  1.1887
  327MOL0     H44095   0.803   3.340   0.036 -0.7243 -2.4779  2.5515
  327MOL0     H44096   0.564   3.419   0.054  1.2180 -1.5718  0.3868
  327MOL0     H44097   0.339   3.514  -0.077 -2.1965  0.6265 -0.1263
  327MOL0     H44098   0.254   3.413  -0.183  1.1784 -1.1324 -0.9858
  327MOL0     H44099   0.174   3.443   0.053 -0.8970 -0.8635  0.5790
  327MOL0     H44100   0.325   3.377   0.113 -1.0125  1.5607  1.5565
  327MOL0     H44101   0.132   3.229   0.138 -1.5989 -2.4710 -0.3381
  327MOL0     H44102   0.276   3.153   0.065 -0.0786  0.4808  0.2443
  327MOL0     H44103   0.058   3.085  -0.046 -3.4311  2.3123 -0.6400
  327MOL0     H44104   0.159   3.186  -0.162  0.1618  0.7395  0.1180
  327MOL0     H44105  -0.150   3.062  -0.073 -0.0153 -1.2917  2.4313
  327MOL0     H44106  -0.308   2.920  -0.016 -0.7443  0.3191  0.1829
  327MOL0     H44107  -0.379   2.949   0.149 -2.5196  2.2888  1.0161
  327MOL0     H44108  -0.466   2.998   0.009 -0.6708 -1.4345  0.2661
  327MOL0     H44109  -0.743   3.382   0.196 -1.9267  0.4607 -0.1745
  327MOL0     H44110  -0.939   3.356   0.328  0.2812  1.1394  0.2422
  327MOL0     H44111  -1.016   3.098   0.565 -2.0367  0.0247 -0.3528
  327MOL0     H44112  -0.941   3.169   0.708  2.6478 -2.8082 -2.2200
  327MOL0     H44113  -1.217   3.206   0.564 -1.6715  1.1694  1.3803
  327MOL0     H44114  -1.185   3.095   0.700  0.0164 -0.9318 -1.5964
  327MOL0     H44115  -1.314   3.282   0.784  0.3518  3.0533  1.3773
  327MOL0     H44116  -1.185   3.388   0.738  0.5842  0.1867 -0.4112
  327MOL0     H44117  -1.127   3.150   0.930  0.4741  0.4162  0.4504
  327MOL0     H44118  -1.037   3.289   0.908  1.0718 -1.0377  0.7799
  327MOL0     H44119  -1.319   3.279   1.032 -0.8042  1.6461  0.4089
  327MOL0     H44120  -1.229   3.423   1.006 -0.1281 -0.7903 -2.5809
  327MOL0     H44121  -1.193   3.323   1.244  0.1529  0.2509 -0.2839
  327MOL0     H44122  -1.114   3.176   1.173  0.5482 -0.0410 -1.0397
  327MOL0     H44123  -1.019   3.452   1.253 -0.9779 -1.5547  3.2227
  327MOL0     H44124  -0.955   3.400   1.097  0.0144 -0.3771  0.6011
  327MOL0     H44125  -0.955   3.257   1.367  0.5306 -2.3380 -0.6138
  327MOL0     H44126  -0.823   3.351   1.303  0.0652  0.4609 -1.0028
  327MOL0     H44127  -0.721   3.252   0.670 -0.3242 -0.4149  0.4738
  327MOL0     H44128  -0.517   3.286   0.551  0.1857  2.0851 -1.3823
  327MOL0     H44129  -0.305   3.450   0.179  0.4735  0.1494 -2.2402
  327MOL0     H44130  -0.085   3.451   0.089  1.5994 -1.0685 -0.1827
  327MOL0     H44131   1.556   3.410   0.286  0.3199  2.0728  1.4809
  327MOL0     H44132   1.693   3.574   0.397  1.7793  3.0076 -3.5297
  327MOL0     H44133   1.993   3.838   0.501  0.0850 -0.0910 -1.5955
  327MOL0     H44134   2.126   4.049   0.484 -2.8597 -1.6945 -1.7307
  327MOL0     H44135   2.536   3.979   0.339 -0.5131 -0.7853 -1.1455
  327MOL0     H44136   2.464   4.054   0.198 -2.3329  0.9831  0.8615
  327MOL0     H44137   2.592   4.199   0.448  3.2232 -1.7305  0.4849
  327MOL0     H44138   2.560   4.278   0.294 -0.0319 -0.0954  0.3060
  327MOL0     H44139   2.733   4.173   0.196  0.2872 -0.4620  0.4745
  327MOL0     H44140   2.752   4.058   0.332  0.5146  0.1876  0.4772
  327MOL0     H44141   2.807   4.273   0.473  1.4862  4.0365 -0.0049
  327MOL0     H44142   2.814   4.364   0.329  1.2029  0.5669 -0.0118
  327MOL0     H44143   3.182   4.155   0.297  0.4741  0.6934  0.1500
  327MOL0     H44144   2.431   3.826   0.277  0.7195  1.2883  2.7277
  327MOL0     H44145   2.303   3.628   0.310  0.6379 -1.9000  2.4848
  328MOL0     O44146   5.154   1.790   7.197 -0.6176  0.0770 -0.2033
  328MOL0     C44147   5.262   1.840   7.239 -0.0457  0.6028  0.1184
  328MOL0     O44148   5.279   1.969   7.280 -0.8959 -0.4787  0.0385
  328MOL0     C44149   5.171   2.054   7.276 -0.3044 -0.7311 -0.6016
  328MOL0     C44150   5.047   2.028   7.334 -0.6182  0.5441 -0.3295
  328MOL0     C44151   4.948   2.122   7.325  0.1761  0.3135 -0.2796
  328MOL0     C44152   4.965   2.245   7.259  0.3227  0.8163 -1.0670
  328MOL0     O44153   4.863   2.340   7.260  0.2612 -0.4179 -0.3895
  328MOL0     C44154   4.827   2.392   7.127 -0.2611  0.3107  0.4349
  328MOL0     C44155   4.684   2.411   7.122 -0.0863 -0.4073  0.0250
  328MOL0     C44156   4.630   2.402   6.982 -0.3401 -0.3109  0.2365
  328MOL0     C44157   4.561   2.266   6.942 -0.5625  0.2745 -0.0014
  328MOL0     C44158   4.489   2.284   6.810  0.1385 -0.3265 -0.3522
  328MOL0     C44159   4.398   2.160   6.788 -0.4362  0.4675 -1.0842
  328MOL0     C44160   4.347   2.149   6.645  0.0146  0.4544  0.4164
  328MOL0     C44161   4.260   2.025   6.613 -1.4515 -0.9245  0.8451
  328MOL0     N44162   4.213   2.024   6.475  0.3322  1.0835 -0.4663
  328MOL0     C44163   4.126   2.114   6.408 -0.2495  0.6621 -1.0366
  328MOL0     C44164   4.122   2.074   6.279 -0.4583  1.2194 -0.5703
  328MOL0     C44165   4.044   2.148   6.173 -0.8106 -0.1141 -0.1538
  328MOL0     C44166   3.895   2.154   6.209 -0.4580 -1.0795  0.3063
  328MOL0     C44167   3.828   2.027   6.228  0.0571  0.4375 -0.1617
  328MOL0     C44168   3.821   1.943   6.098  0.0404  0.4168 -0.0327
  328MOL0     O44169   3.751   2.011   5.999  0.3596 -0.1378 -0.0496
  328MOL0     C44170   3.692   1.940   5.903 -0.3178  0.0619  0.6605
  328MOL0     C44171   3.768   1.900   5.791  0.5318 -0.0862  0.0761
  328MOL0     C44172   3.719   1.801   5.706 -0.3092 -0.7695  0.5392
  328MOL0     C44173   3.829   1.755   5.608  0.8117  1.2026  0.0048
  328MOL0     C44174   3.587   1.753   5.708  0.2371  0.6591 -0.3302
  328MOL0     C44175   3.531   1.649   5.619  1.0333  0.1922 -0.3726
  328MOL0     O44176   3.390   1.644   5.619 -0.3403 -0.1641 -0.4712
  328MOL0     C44177   3.317   1.562   5.541  0.0715  0.0400 -0.0132
  328MOL0     C44178   3.341   1.539   5.406  0.2507 -0.0227 -0.1004
  328MOL0     C44179   3.253   1.452   5.332  0.6541 -0.4029 -0.1982
  328MOL0     C44180   3.133   1.399   5.387 -0.1255  0.0920  0.1355
  328MOL0     O44181   3.050   1.337   5.294  0.7789  0.0633  0.0476
  328MOL0     C44182   2.943   1.266   5.353  0.8315  0.6567 -0.6334
  328MOL0     C44183   2.822   1.368   5.374  0.1211  0.4099 -0.6102
  328MOL0     C44184   2.764   1.428   5.251  0.2955  0.2275 -0.0418
  328MOL0     C44185   2.619   1.405   5.225  0.0094  0.2199  0.0469
  328MOL0     C44186   2.578   1.426   5.083  0.1560 -0.7737  0.0987
  328MOL0     C44187   2.420   1.420   5.067  0.1992  0.0846  0.4342
  328MOL0     C44188   2.399   1.436   4.915 -0.5762  0.0694  0.1458
  328MOL0     C44189   2.260   1.482   4.884  0.7830  0.1347  0.4042
  328MOL0    Cl44190   2.229   1.536   4.715  0.1977  0.4313 -0.0794
  328MOL0     C44191   3.107   1.443   5.520 -0.1558  1.0694  0.6160
  328MOL0     C44192   3.194   1.521   5.601  0.1912  0.4666 -0.6366
  328MOL0     O44193   3.600   1.581   5.545 -0.7205  0.6328 -0.3766
  328MOL0     C44194   3.503   1.813   5.806  0.3477 -0.1010  0.0939
  328MOL0     C44195   3.558   1.899   5.903  0.0605 -0.4043 -0.9287
  328MOL0     N44196   4.202   1.960   6.267 -0.5104 -0.0222  0.3712
  328MOL0     N44197   4.261   1.941   6.386  0.2510 -0.1692 -0.1870
  328MOL0     C44198   5.081   2.274   7.200  0.4467  0.5659 -0.6769
  328MOL0     C44199   5.183   2.173   7.208  0.2880 -0.2604  0.2475
  328MOL0     C44200   5.389   1.755   7.233  0.1708 -0.1479  0.1904
  328MOL0     C44201   5.505   1.800   7.300  0.1810 -0.2654  0.0230
  328MOL0     C44202   5.632   1.731   7.283  0.9849  0.6677  0.0140
  328MOL0     C44203   5.634   1.616   7.206 -0.0530 -0.6684  0.5885
  328MOL0     O44204   5.740   1.528   7.202  0.0370 -0.2999  0.1529
  328MOL0     C44205   5.843   1.580   7.117 -0.0748 -0.1681 -0.0849
  328MOL0     C44206   5.860   1.472   7.002 -0.4176  0.0149 -0.2428
  328MOL0     C44207   5.878   1.328   7.053  0.2797 -0.0990  0.4985
  328MOL0     C44208   6.009   1.291   7.133  0.7575  0.4609 -0.1196
  328MOL0     C44209   6.132   1.312   7.049  0.5669 -0.9453 -0.8472
  328MOL0     C44210   6.234   1.336   6.993 -0.2179 -0.0615  0.0688
  328MOL0     C44211   5.520   1.581   7.135  0.4181  0.0428 -0.9280
  328MOL0     C44212   5.401   1.650   7.139 -0.1726  0.5771 -0.2165
  328MOL0     H44213   5.047   1.934   7.388 -1.7617  1.2397  0.9359
  328MOL0     H44214   4.847   2.106   7.363 -0.5625  1.3075 -1.7085
  328MOL0     H44215   4.880   2.487   7.115  3.5340 -1.3788  2.0769
  328MOL0     H44216   4.868   2.325   7.051  3.1668  1.2560  1.3014
  328MOL0     H44217   4.637   2.336   7.185 -1.8629  0.0228 -0.7282
  328MOL0     H44218   4.668   2.510   7.166  0.0758 -0.3270 -0.0931
  328MOL0     H44219   4.551   2.477   6.970 -0.2107  0.1093  1.8576
  328MOL0     H44220   4.717   2.415   6.916 -0.8352 -0.9804 -0.5608
  328MOL0     H44221   4.630   2.184   6.919  2.8730  2.4996  1.5791
  328MOL0     H44222   4.493   2.230   7.019  0.5512 -3.9647 -0.7322
  328MOL0     H44223   4.428   2.374   6.822 -0.3560 -0.8273  1.2179
  328MOL0     H44224   4.566   2.294   6.733  1.1454  3.6276  0.8848
  328MOL0     H44225   4.445   2.066   6.818 -1.1640  0.7804  1.1941
  328MOL0     H44226   4.315   2.158   6.859 -0.6766 -1.9203 -1.3451
  328MOL0     H44227   4.281   2.235   6.629  1.4392  1.4653 -0.2519
  328MOL0     H44228   4.429   2.142   6.573  0.8648 -0.6367  1.4399
  328MOL0     H44229   4.165   2.018   6.667 -0.8215 -1.0074  1.9862
  328MOL0     H44230   4.315   1.932   6.632 -2.2263 -1.8577 -1.2373
  328MOL0     H44231   4.067   2.197   6.444 -0.2126  0.7088 -1.0826
  328MOL0     H44232   4.078   2.251   6.155 -0.8065 -0.2803 -1.1405
  328MOL0     H44233   4.063   2.106   6.074  2.5190  0.1375  0.2795
  328MOL0     H44234   3.837   2.209   6.134 -0.4975 -3.7786 -1.8042
  328MOL0     H44235   3.892   2.201   6.308  0.8382  1.5672 -0.8000
  328MOL0     H44236   3.731   2.038   6.276  0.4210 -0.5046  0.8269
  328MOL0     H44237   3.882   1.980   6.311 -0.9980  0.0023  0.2899
  328MOL0     H44238   3.782   1.843   6.120  0.5027  0.3226  0.4113
  328MOL0     H44239   3.917   1.926   6.049  0.2376  0.2361  0.4065
  328MOL0     H44240   3.871   1.937   5.787  0.3150  0.6142  0.6514
  328MOL0     H44241   3.932   1.777   5.637  1.3872 -0.3767 -0.7713
  328MOL0     H44242   3.818   1.646   5.604 -0.1559  1.2525  0.7354
  328MOL0     H44243   3.817   1.791   5.506  1.0086 -0.1209 -0.5048
  328MOL0     H44244   3.426   1.588   5.360  0.9482 -2.3863 -1.5258
  328MOL0     H44245   3.264   1.433   5.226  2.5925 -2.4407  0.2824
  328MOL0     H44246   2.909   1.178   5.298  1.0357  0.8140 -1.0193
  328MOL0     H44247   2.980   1.230   5.450  2.0364 -0.9760 -1.6399
  328MOL0     H44248   2.750   1.321   5.442  1.4162  1.4357  1.5610
  328MOL0     H44249   2.867   1.453   5.426  1.2591 -0.2000 -0.5777
  328MOL0     H44250   2.830   1.392   5.171  2.2025 -0.2700  1.6668
  328MOL0     H44251   2.776   1.537   5.257 -1.1716  0.5475 -1.9134
  328MOL0     H44252   2.586   1.302   5.244 -1.9443  0.6599 -0.7103
  328MOL0     H44253   2.570   1.477   5.291 -0.0121 -1.3242  1.7902
  328MOL0     H44254   2.614   1.346   5.018 -3.2349 -1.2738 -1.4075
  328MOL0     H44255   2.611   1.524   5.048 -0.1320 -0.7034  0.0164
  328MOL0     H44256   2.372   1.331   5.109 -0.4539  0.4647  0.5064
  328MOL0     H44257   2.366   1.501   5.116  0.4979  0.9114 -0.5658
  328MOL0     H44258   2.424   1.334   4.881  3.3464  0.0638  2.4110
  328MOL0     H44259   2.472   1.508   4.876 -3.1735  2.5010 -0.4860
  328MOL0     H44260   2.245   1.571   4.946  1.9818  1.8845 -1.6759
  328MOL0     H44261   2.191   1.401   4.908  2.0980 -0.8844  0.8673
  328MOL0     H44262   3.017   1.415   5.575  0.8640 -0.7478  1.4352
  328MOL0     H44263   3.175   1.556   5.702 -1.5090 -2.0434  0.0082
  328MOL0     H44264   3.401   1.783   5.825  0.9433 -2.1802  0.3152
  328MOL0     H44265   3.497   1.934   5.985 -0.2437  2.7287 -2.3470
  328MOL0     H44266   5.088   2.366   7.143 -0.3493  0.5262 -0.8404
  328MOL0     H44267   5.271   2.192   7.146  0.1477 -3.1951 -1.0247
  328MOL0     H44268   5.504   1.890   7.360  2.2833  0.0480 -0.3258
  328MOL0     H44269   5.717   1.770   7.337  0.5890 -1.8560  2.7044
  328MOL0     H44270   5.815   1.677   7.076  0.3618 -0.4980 -1.1916
  328MOL0     H44271   5.934   1.602   7.174 -0.2318  1.9362 -0.5945
  328MOL0     H44272   5.937   1.503   6.931 -1.5491  1.3229 -0.9363
  328MOL0     H44273   5.763   1.476   6.952 -0.0844 -2.3751 -1.2541
  328MOL0     H44274   5.879   1.248   6.979  2.4789 -1.2341  1.6452
  328MOL0     H44275   5.797   1.310   7.124  1.5068 -0.8241  1.7557
  328MOL0     H44276   6.010   1.185   7.159  1.9203 -0.1338 -2.2847
  328MOL0     H44277   6.019   1.348   7.226  0.9232  1.0236 -0.4728
  328MOL0     H44278   6.325   1.369   6.948 -0.5159 -0.0295 -0.5105
  328MOL0     H44279   5.528   1.495   7.070 -1.0900 -1.2110  0.4843
  328MOL0     H44280   5.316   1.611   7.085 -1.5157  1.7824  0.9238
  329MOL0     O44281   5.761   1.640   6.048 -0.7782  0.3877  0.2074
  329MOL0     C44282   5.774   1.763   6.070 -0.2722  0.1201  0.3741
  329MOL0     O44283   5.688   1.845   6.129 -0.2588 -0.2718  0.0721
  329MOL0     C44284   5.583   1.795   6.195  0.5527  0.2460  0.2721
  329MOL0     C44285   5.455   1.771   6.135 -0.3870  0.3518 -0.2034
  329MOL0     C44286   5.353   1.707   6.205  0.1604 -0.5060  0.1409
  329MOL0     C44287   5.363   1.670   6.339  0.4973 -0.7058  0.4928
  329MOL0     O44288   5.266   1.600   6.398  0.5000  0.1386 -1.4212
  329MOL0     C44289   5.136   1.597   6.334 -0.2328 -0.4659  0.2230
  329MOL0     C44290   5.025   1.538   6.417  0.6344 -0.1089  0.3130
  329MOL0     C44291   4.967   1.650   6.510  0.9313  0.6918 -0.7248
  329MOL0     C44292   4.846   1.598   6.597 -0.0482  0.5389  0.4847
  329MOL0     C44293   4.739   1.713   6.623 -0.7922  0.1101 -0.8450
  329MOL0     C44294   4.615   1.655   6.682 -0.2111 -0.4528 -0.3288
  329MOL0     C44295   4.497   1.748   6.670 -0.0496  0.6161 -0.3212
  329MOL0     C44296   4.376   1.669   6.732  0.9200  0.1567 -0.3423
  329MOL0     N44297   4.354   1.681   6.881  0.4491 -0.0017  0.3609
  329MOL0     C44298   4.375   1.580   6.968  0.1228 -0.5550  0.3745
  329MOL0     C44299   4.305   1.615   7.071  0.4048  0.4435 -0.4328
  329MOL0     C44300   4.269   1.537   7.202 -0.2975 -0.0736 -0.4448
  329MOL0     C44301   4.372   1.567   7.316  0.3234 -0.9318  0.3573
  329MOL0     C44302   4.323   1.489   7.441  0.3620 -0.3427 -0.2418
  329MOL0     C44303   4.364   1.560   7.569 -0.5126  0.2462 -0.2218
  329MOL0     O44304   4.310   1.695   7.574  0.6116 -0.2159 -0.8803
  329MOL0     C44305   4.183   1.726   7.623 -0.4209  0.5780  0.1237
  329MOL0     C44306   4.119   1.832   7.559  0.3209 -1.4168  0.1587
  329MOL0     C44307   3.984   1.871   7.585 -0.5993 -0.4454  0.4545
  329MOL0     C44308   3.920   1.974   7.490  0.6164  0.6916  0.0297
  329MOL0     C44309   3.908   1.793   7.678 -0.2911  0.5845 -0.2904
  329MOL0     C44310   3.763   1.808   7.692 -0.6858  0.3572  0.6779
  329MOL0     O44311   3.689   1.797   7.582  0.4224 -0.0864 -0.0247
  329MOL0     C44312   3.557   1.781   7.601  0.7088  0.0337 -0.6199
  329MOL0     C44313   3.503   1.686   7.689  0.5320  0.0124  0.4887
  329MOL0     C44314   3.369   1.684   7.708 -1.2608 -0.1494 -0.3587
  329MOL0     C44315   3.289   1.780   7.647  0.4326  0.6400  0.0384
  329MOL0     O44316   3.156   1.790   7.673  0.0324  0.3480 -0.6551
  329MOL0     C44317   3.083   1.667   7.639 -0.5126  0.2018  0.7739
  329MOL0     C44318   2.995   1.631   7.756 -0.1809  0.7451  0.1339
  329MOL0     C44319   2.893   1.515   7.746  0.0509  0.6982 -0.1450
  329MOL0     C44320   2.948   1.392   7.675 -0.1338  0.4693  0.2515
  329MOL0     C44321   2.870   1.266   7.699  0.3578  0.2237  0.1207
  329MOL0     C44322   2.717   1.256   7.659 -0.2593 -0.0500 -0.2629
  329MOL0     C44323   2.711   1.264   7.508  0.3841 -0.4519 -0.1254
  329MOL0     C44324   2.576   1.237   7.451  0.0349  0.5257 -0.1130
  329MOL0    Cl44325   2.450   1.358   7.503  0.2387  0.0811  0.1885
  329MOL0     C44326   3.346   1.872   7.560 -0.0055 -1.0099 -0.3128
  329MOL0     C44327   3.481   1.877   7.534 -0.3715  0.5755 -0.8609
  329MOL0     O44328   3.719   1.830   7.800 -0.4039  0.0730  0.0488
  329MOL0     C44329   3.976   1.694   7.754  0.2288 -0.4233  0.1592
  329MOL0     C44330   4.109   1.657   7.727  0.4005  0.2594 -0.4728
  329MOL0     N44331   4.253   1.746   7.047 -0.3716  0.3978  0.1181
  329MOL0     N44332   4.288   1.784   6.933  0.1476 -0.2380 -0.1282
  329MOL0     C44333   5.491   1.683   6.397 -0.2662  0.0819 -0.2794
  329MOL0     C44334   5.601   1.747   6.331 -0.3360 -0.2152  0.6125
  329MOL0     C44335   5.899   1.817   6.017  0.4989 -0.8711  0.2469
  329MOL0     C44336   6.013   1.741   5.997  0.6029  0.0719 -0.0955
  329MOL0     C44337   6.130   1.795   5.940  0.3212 -0.0458  0.8153
  329MOL0     C44338   6.135   1.933   5.907 -0.3470 -0.6350  0.9333
  329MOL0     O44339   6.252   1.966   5.840 -0.0854 -0.0723 -0.0746
  329MOL0     C44340   6.275   2.114   5.827  0.2937 -0.1574  0.2446
  329MOL0     C44341   6.400   2.131   5.748  0.3131  0.3578 -0.5228
  329MOL0     C44342   6.437   2.280   5.729  0.1589  0.3893  0.2570
  329MOL0     C44343   6.580   2.300   5.683  0.4632 -0.1750  0.2191
  329MOL0     C44344   6.615   2.259   5.547 -0.4110 -1.0881  0.5954
  329MOL0     C44345   6.662   2.229   5.435  0.3868 -0.5507 -0.6649
  329MOL0     C44346   6.019   2.017   5.927  0.1088 -0.5893 -0.7991
  329MOL0     C44347   5.902   1.962   5.984 -0.2938  1.0237 -0.5519
  329MOL0     H44348   5.435   1.780   6.029 -1.6267 -0.9226 -0.0944
  329MOL0     H44349   5.267   1.688   6.142 -0.1503 -1.9675  0.9567
  329MOL0     H44350   5.111   1.696   6.297 -1.4059 -1.1434 -0.8885
  329MOL0     H44351   5.129   1.540   6.241 -2.5409  3.3392 -2.1988
  329MOL0     H44352   4.941   1.517   6.350 -1.7983  0.6915  2.9428
  329MOL0     H44353   5.060   1.448   6.467 -2.8111 -1.1500  1.1033
  329MOL0     H44354   5.042   1.688   6.581  0.0398 -0.2321  0.7658
  329MOL0     H44355   4.940   1.733   6.444 -0.5054  1.4432  0.7542
  329MOL0     H44356   4.792   1.522   6.542  1.2500  0.4468 -0.7215
  329MOL0     H44357   4.882   1.561   6.694  2.0599  3.3086  0.9088
  329MOL0     H44358   4.776   1.791   6.689  1.4440 -0.9943 -0.7023
  329MOL0     H44359   4.715   1.762   6.528 -0.9334  2.2706  0.2429
  329MOL0     H44360   4.583   1.565   6.627 -0.6815 -1.4456  1.4730
  329MOL0     H44361   4.632   1.627   6.787  0.9027 -0.6946 -0.5634
  329MOL0     H44362   4.519   1.832   6.737  0.7076 -1.1852  1.7643
  329MOL0     H44363   4.467   1.780   6.570 -2.2554 -1.7288 -0.5040
  329MOL0     H44364   4.381   1.563   6.702  2.1097  0.0571  0.1761
  329MOL0     H44365   4.284   1.714   6.693  2.0087  1.9235 -0.9428
  329MOL0     H44366   4.416   1.480   6.955 -0.2080 -1.6213  5.5216
  329MOL0     H44367   4.164   1.559   7.221 -1.1165 -3.4720 -0.4522
  329MOL0     H44368   4.276   1.431   7.177  0.0610 -0.0054 -0.6433
  329MOL0     H44369   4.367   1.676   7.323 -1.1668 -0.7021 -2.5183
  329MOL0     H44370   4.473   1.537   7.288  0.0946 -1.2910 -0.0940
  329MOL0     H44371   4.382   1.396   7.437  3.3830  1.4723 -3.0363
  329MOL0     H44372   4.215   1.473   7.440  0.5392 -1.7132  0.4829
  329MOL0     H44373   4.472   1.567   7.579 -0.4733 -1.5837  1.1032
  329MOL0     H44374   4.326   1.501   7.653 -0.9612  0.8947  0.0484
  329MOL0     H44375   4.180   1.895   7.494  0.6262  0.7170  2.3770
  329MOL0     H44376   3.987   1.997   7.407 -0.0516  0.3870 -0.6056
  329MOL0     H44377   3.820   1.948   7.454  0.7396  1.6842 -1.0554
  329MOL0     H44378   3.909   2.068   7.544 -2.6823 -0.4964  1.6902
  329MOL0     H44379   3.556   1.606   7.740  1.9997  1.7568  1.8482
  329MOL0     H44380   3.318   1.616   7.776 -1.3268 -0.0591 -0.3182
  329MOL0     H44381   3.010   1.688   7.561 -0.3246  1.9941  1.0452
  329MOL0     H44382   3.145   1.580   7.612  0.7298  0.1871  3.4089
  329MOL0     H44383   3.059   1.597   7.839 -0.0602  1.6636  0.4272
  329MOL0     H44384   2.942   1.723   7.779  2.3751  2.2344  0.4408
  329MOL0     H44385   2.809   1.554   7.687  0.2358 -0.0070 -0.8855
  329MOL0     H44386   2.847   1.493   7.843 -0.6072  0.4355 -0.5071
  329MOL0     H44387   2.943   1.415   7.568 -3.8861  0.6458  0.3318
  329MOL0     H44388   3.054   1.385   7.697 -0.5611  0.0621  2.3617
  329MOL0     H44389   2.860   1.262   7.807 -0.1023  1.0524  0.1193
  329MOL0     H44390   2.924   1.185   7.649 -0.0231 -1.4645  2.3392
  329MOL0     H44391   2.677   1.164   7.703 -0.2292  0.2089  0.3167
  329MOL0     H44392   2.655   1.337   7.699  0.3105  0.0283  0.4960
  329MOL0     H44393   2.789   1.197   7.474  2.7183  1.8975  0.2596
  329MOL0     H44394   2.749   1.362   7.477 -0.8617  1.4750  3.6924
  329MOL0     H44395   2.552   1.135   7.482  1.3550  0.6302  1.3262
  329MOL0     H44396   2.577   1.233   7.342 -1.2196  0.3719 -0.1319
  329MOL0     H44397   3.280   1.947   7.517  2.4416  2.0745  0.9352
  329MOL0     H44398   3.528   1.951   7.470 -0.0801  1.8493  0.7475
  329MOL0     H44399   3.916   1.643   7.829  0.2869 -0.7348 -0.0048
  329MOL0     H44400   4.163   1.582   7.785 -0.2135  0.0042 -0.2166
  329MOL0     H44401   5.503   1.645   6.498  2.1859  1.5801  0.0846
  329MOL0     H44402   5.697   1.762   6.380  0.2459 -0.7933 -0.3186
  329MOL0     H44403   6.000   1.638   6.028 -1.2689 -0.6335 -2.8309
  329MOL0     H44404   6.217   1.730   5.928  0.1252 -0.1603 -0.0515
  329MOL0     H44405   6.193   2.163   5.773  0.3324 -1.0671 -0.6644
  329MOL0     H44406   6.274   2.165   5.924 -1.7006  1.6694 -0.6310
  329MOL0     H44407   6.386   2.086   5.650  3.6133 -0.6254 -0.6551
  329MOL0     H44408   6.479   2.077   5.801  1.2905  1.4443 -0.8451
  329MOL0     H44409   6.432   2.336   5.823 -3.0164  3.8381 -1.6855
  329MOL0     H44410   6.355   2.324   5.671 -0.1468 -0.1816  0.2375
  329MOL0     H44411   6.644   2.232   5.741 -0.6086  0.3294  2.0485
  329MOL0     H44412   6.615   2.402   5.700 -0.3464  0.4534 -1.6049
  329MOL0     H44413   6.698   2.195   5.340  1.3435  1.3342 -1.0251
  329MOL0     H44414   6.023   2.118   5.887  0.2454  0.1999  1.1141
  329MOL0     H44415   5.820   2.030   6.005  0.9932  2.4516  0.0864
  330MOL0     O44416   5.883   0.432   1.515 -0.2663 -1.5810  0.1329
  330MOL0     C44417   5.952   0.346   1.557 -0.2335  1.0157  0.5258
  330MOL0     O44418   5.920   0.252   1.650  0.8713  0.1812  0.1465
  330MOL0     C44419   5.792   0.209   1.663  0.1786  0.2841  0.6471
  330MOL0     C44420   5.705   0.171   1.556 -0.4704  0.3547 -0.5523
  330MOL0     C44421   5.570   0.139   1.582 -0.3304  0.6019 -0.6051
  330MOL0     C44422   5.522   0.137   1.721 -0.0082 -0.1617  0.2889
  330MOL0     O44423   5.390   0.104   1.752  0.3407 -0.9585 -0.3160
  330MOL0     C44424   5.339  -0.011   1.691  0.4830  0.0524  0.2328
  330MOL0     C44425   5.414  -0.144   1.712 -0.5370 -0.3771 -0.1759
  330MOL0     C44426   5.367  -0.244   1.608 -0.5933  0.0236 -0.3704
  330MOL0     C44427   5.215  -0.258   1.591 -0.2791 -0.4445 -0.3759
  330MOL0     C44428   5.175  -0.401   1.544  0.0852 -0.0549  0.1721
  330MOL0     C44429   5.024  -0.413   1.544 -0.1840 -0.5517 -0.4204
  330MOL0     C44430   4.958  -0.542   1.502 -0.1440  0.0437 -0.0367
  330MOL0     C44431   4.838  -0.584   1.592 -0.3012 -0.1451 -0.0285
  330MOL0     N44432   4.749  -0.671   1.507 -0.3336  0.1368  0.4256
  330MOL0     C44433   4.638  -0.622   1.448 -0.3836  0.4253  0.2729
  330MOL0     C44434   4.575  -0.734   1.398 -0.6261  0.6630 -0.2959
  330MOL0     C44435   4.443  -0.732   1.333  0.9515  0.0106  0.2297
  330MOL0     C44436   4.328  -0.791   1.418 -0.5153 -0.9327 -0.1078
  330MOL0     C44437   4.321  -0.949   1.425 -0.4397 -0.5955  0.2400
  330MOL0     C44438   4.227  -0.981   1.545  0.1087 -0.3965 -0.0426
  330MOL0     O44439   4.103  -0.910   1.503 -0.2602  0.2899 -0.2790
  330MOL0     C44440   3.994  -0.915   1.578  0.1432  0.0812  0.2261
  330MOL0     C44441   3.960  -1.026   1.651 -0.8102  0.6777 -0.3246
  330MOL0     C44442   3.852  -1.029   1.735 -0.1208 -0.5938  0.1160
  330MOL0     C44443   3.814  -1.169   1.785  0.4855 -0.2355  0.1667
  330MOL0     C44444   3.771  -0.916   1.752 -0.2588  0.0430  0.7074
  330MOL0     C44445   3.648  -0.918   1.835 -0.2403  0.9021 -0.4276
  330MOL0     O44446   3.540  -0.859   1.786  0.1248  0.6639  0.7403
  330MOL0     C44447   3.425  -0.880   1.862  0.0718 -0.3606  0.0736
  330MOL0     C44448   3.388  -0.807   1.974 -0.3452  0.2840 -0.3164
  330MOL0     C44449   3.269  -0.839   2.037  0.1900 -0.4686 -0.5547
  330MOL0     C44450   3.185  -0.947   2.007  0.0302  0.1782 -0.5937
  330MOL0     O44451   3.084  -0.979   2.096  0.5608 -0.0842  0.0128
  330MOL0     C44452   2.951  -0.987   2.041 -0.7686  0.0377  0.9574
  330MOL0     C44453   2.906  -0.863   1.966 -0.6636  0.0371  0.1912
  330MOL0     C44454   2.776  -0.887   1.885 -0.3666 -1.1035 -0.3162
  330MOL0     C44455   2.653  -0.884   1.978 -0.0747 -0.3233 -0.0338
  330MOL0     C44456   2.527  -0.916   1.907 -0.2387  0.2530 -0.0447
  330MOL0     C44457   2.481  -0.808   1.803 -0.1636  0.4508 -0.8484
  330MOL0     C44458   2.339  -0.829   1.752  0.8760  0.0299 -0.4200
  330MOL0     C44459   2.234  -0.829   1.865  0.1640 -0.7529  0.3093
  330MOL0    Cl44460   2.077  -0.800   1.781 -0.0482  0.0417  0.0239
  330MOL0     C44461   3.219  -1.016   1.885 -0.4407  0.0433  0.2737
  330MOL0     C44462   3.343  -0.992   1.824  0.0260 -0.3498  0.7566
  330MOL0     O44463   3.660  -0.971   1.947  0.2140  0.8119  0.1350
  330MOL0     C44464   3.795  -0.804   1.659 -1.2814  0.0641 -1.3503
  330MOL0     C44465   3.910  -0.799   1.583 -0.4649  0.4883 -0.7590
  330MOL0     N44466   4.660  -0.845   1.420 -0.7142 -0.2066 -0.1316
  330MOL0     N44467   4.759  -0.803   1.485 -0.0255  0.3955  0.2217
  330MOL0     C44468   5.617   0.154   1.820 -0.5617  0.1923 -0.1519
  330MOL0     C44469   5.747   0.188   1.793 -0.7144 -0.3347  0.9118
  330MOL0     C44470   6.095   0.351   1.537  0.1840  0.7011 -0.8365
  330MOL0     C44471   6.163   0.440   1.456  0.9607 -0.2752  0.1537
  330MOL0     C44472   6.302   0.448   1.451  1.1927  0.4924  0.6085
  330MOL0     C44473   6.379   0.363   1.520  0.6937  0.1271 -0.2854
  330MOL0     O44474   6.520   0.368   1.523  0.6096 -0.1739 -0.1306
  330MOL0     C44475   6.586   0.384   1.401  0.3391  0.2558 -0.2701
  330MOL0     C44476   6.652   0.252   1.359  0.8702  0.3085  0.4376
  330MOL0     C44477   6.741   0.279   1.237  0.7349 -0.0710 -0.4098
  330MOL0     C44478   6.705   0.212   1.100  0.1566  0.0919  0.0936
  330MOL0     C44479   6.580   0.256   1.044  0.3854  0.6887  0.0133
  330MOL0     C44480   6.471   0.281   0.997 -0.5612 -0.6358  0.2205
  330MOL0     C44481   6.322   0.259   1.591  0.1519  0.3272  0.2346
  330MOL0     C44482   6.181   0.263   1.606 -0.2969  0.8941 -0.2497
  330MOL0     H44483   5.750   0.169   1.457  0.2185  1.1492 -0.2726
  330MOL0     H44484   5.507   0.120   1.496  0.7319 -1.7932 -0.9416
  330MOL0     H44485   5.234  -0.018   1.722  0.2715  1.6602 -0.0272
  330MOL0     H44486   5.349  -0.001   1.583 -0.0916 -2.2176 -0.0712
  330MOL0     H44487   5.521  -0.129   1.694 -0.7204  0.2870 -0.7352
  330MOL0     H44488   5.384  -0.188   1.808 -1.2431 -1.3588 -0.8174
  330MOL0     H44489   5.408  -0.217   1.510 -1.2796 -0.1701 -0.7163
  330MOL0     H44490   5.412  -0.340   1.634  0.9632 -0.0432 -2.9717
  330MOL0     H44491   5.168  -0.234   1.687  0.1535  2.5902 -0.8075
  330MOL0     H44492   5.184  -0.177   1.524 -0.5680  1.4709  1.9440
  330MOL0     H44493   5.226  -0.428   1.451  0.5905 -0.3945  0.5466
  330MOL0     H44494   5.209  -0.465   1.626  0.1150  0.3579  0.4860
  330MOL0     H44495   5.003  -0.384   1.648  0.4951 -0.9420 -0.1656
  330MOL0     H44496   4.968  -0.337   1.489 -0.5554  1.7221  2.7539
  330MOL0     H44497   4.922  -0.522   1.400  1.8150 -0.8264 -0.9528
  330MOL0     H44498   5.025  -0.629   1.503  0.6260  0.5408  3.2376
  330MOL0     H44499   4.782  -0.493   1.616 -0.0106  0.3802 -1.2199
  330MOL0     H44500   4.878  -0.623   1.686  2.2411  0.8501 -0.6327
  330MOL0     H44501   4.585  -0.528   1.450 -1.2948 -0.0515 -0.6199
  330MOL0     H44502   4.420  -0.631   1.297  2.5349  0.0187 -0.8414
  330MOL0     H44503   4.447  -0.789   1.240 -1.7275 -1.2115  0.7832
  330MOL0     H44504   4.238  -0.758   1.365  0.0334  1.7187  0.5058
  330MOL0     H44505   4.332  -0.749   1.519  0.0466  1.5050 -1.0637
  330MOL0     H44506   4.417  -0.999   1.446 -1.0075 -1.2837  1.3083
  330MOL0     H44507   4.283  -0.999   1.335  0.1897 -0.4418 -0.1180
  330MOL0     H44508   4.268  -0.939   1.638  0.9083 -2.4762  0.6095
  330MOL0     H44509   4.208  -1.089   1.545  0.4373 -0.4598  0.2953
  330MOL0     H44510   4.022  -1.114   1.638 -3.2045 -1.6612  2.6270
  330MOL0     H44511   3.852  -1.240   1.710  0.1722 -0.4789  0.2361
  330MOL0     H44512   3.873  -1.180   1.877  0.5588  1.0159  0.2826
  330MOL0     H44513   3.708  -1.183   1.808  0.7263  0.1732  1.6466
  330MOL0     H44514   3.446  -0.723   2.012 -0.2076 -0.0801  0.2871
  330MOL0     H44515   3.227  -0.777   2.115  0.5609  0.0034 -0.7235
  330MOL0     H44516   2.947  -1.078   1.980 -0.4936 -0.7935  2.1399
  330MOL0     H44517   2.876  -0.998   2.119 -2.5798 -1.8801 -0.9146
  330MOL0     H44518   2.899  -0.779   2.035  0.3963  1.1950 -1.0586
  330MOL0     H44519   2.980  -0.847   1.887  0.8038 -1.7397  1.1189
  330MOL0     H44520   2.785  -0.983   1.833 -2.1688 -1.8672  0.6961
  330MOL0     H44521   2.765  -0.805   1.814 -1.2216  0.1680  1.2204
  330MOL0     H44522   2.678  -0.952   2.060 -0.7307 -0.5994 -0.0542
  330MOL0     H44523   2.658  -0.778   2.005  1.7679  1.2531 -5.2921
  330MOL0     H44524   2.452  -0.938   1.984  0.5426  0.5125  0.8037
  330MOL0     H44525   2.547  -1.002   1.843  0.8791  0.7246 -0.3419
  330MOL0     H44526   2.480  -0.715   1.861  0.7466 -2.3101  4.2275
  330MOL0     H44527   2.548  -0.799   1.717  0.8753  0.9433 -0.0089
  330MOL0     H44528   2.328  -0.918   1.690 -1.2317  0.0803 -0.1903
  330MOL0     H44529   2.320  -0.742   1.690  1.2854  0.2458 -0.2451
  330MOL0     H44530   2.267  -0.755   1.938  0.6911  0.2033 -0.8657
  330MOL0     H44531   2.229  -0.925   1.917 -0.8673  0.1383  1.9318
  330MOL0     H44532   3.165  -1.108   1.862  3.1141 -3.0681  3.0292
  330MOL0     H44533   3.370  -1.060   1.744 -2.8820  0.2440 -0.8785
  330MOL0     H44534   3.734  -0.714   1.656  0.6035  1.6387  1.9645
  330MOL0     H44535   3.922  -0.710   1.521  0.5362 -0.2410 -1.6669
  330MOL0     H44536   5.582   0.139   1.921  0.6352 -0.9990  0.1061
  330MOL0     H44537   5.807   0.202   1.882 -2.9522 -1.2189  2.6454
  330MOL0     H44538   6.113   0.511   1.391 -3.8047 -0.4126  3.1768
  330MOL0     H44539   6.362   0.520   1.396  0.0664 -0.1452 -1.5278
  330MOL0     H44540   6.513   0.404   1.323 -0.4776  2.4927  0.9696
  330MOL0     H44541   6.655   0.467   1.423  0.4436 -0.2763  1.5474
  330MOL0     H44542   6.576   0.175   1.346 -1.3088  2.6456 -1.8529
  330MOL0     H44543   6.715   0.219   1.442 -1.2377 -1.6733  1.3425
  330MOL0     H44544   6.841   0.248   1.270 -0.1489 -0.2451  2.4129
  330MOL0     H44545   6.745   0.387   1.218 -1.0512  1.7111  6.4723
  330MOL0     H44546   6.716   0.103   1.099 -1.8318 -0.1447 -0.1392
  330MOL0     H44547   6.776   0.262   1.034 -1.2861  4.3330  1.3929
  330MOL0     H44548   6.368   0.305   0.978 -0.3597 -1.5602 -2.3847
  330MOL0     H44549   6.382   0.187   1.647  1.7860  0.1497 -1.6332
  330MOL0     H44550   6.153   0.193   1.684  0.9753  1.4832  0.7887
  331MOL0     O44551   5.039   3.363   2.798  0.1590 -0.4679 -0.0716
  331MOL0     C44552   5.052   3.307   2.688 -0.3774  0.2660  0.4677
  331MOL0     O44553   4.948   3.277   2.605  0.6109 -0.9616  0.0402
  331MOL0     C44554   4.815   3.286   2.648 -0.1174 -0.6497  0.4033
  331MOL0     C44555   4.721   3.305   2.545  0.2410 -0.1056  0.9472
  331MOL0     C44556   4.588   3.320   2.572 -0.2993  0.2224 -0.1361
  331MOL0     C44557   4.544   3.295   2.706 -1.3058  0.4388  0.0341
  331MOL0     O44558   4.413   3.296   2.732  0.4000 -0.2943  0.4738
  331MOL0     C44559   4.375   3.205   2.831 -0.6052  0.5373  0.9324
  331MOL0     C44560   4.231   3.213   2.865  0.4674 -0.6281  0.0591
  331MOL0     C44561   4.207   3.263   3.002 -0.3735 -0.0405  0.2034
  331MOL0     C44562   4.248   3.168   3.114 -0.3179 -0.1938  0.8170
  331MOL0     C44563   4.156   3.184   3.233 -0.3930  0.1369  0.2884
  331MOL0     C44564   4.193   3.103   3.350 -0.1767  0.3275 -1.3559
  331MOL0     C44565   4.220   2.947   3.326  0.1956 -0.3269  0.3935
  331MOL0     C44566   4.214   2.871   3.462 -0.0898 -0.4213 -0.9185
  331MOL0     N44567   4.089   2.793   3.480  0.6833  0.0957  0.1537
  331MOL0     C44568   4.060   2.679   3.406  0.6488 -0.6355  0.4069
  331MOL0     C44569   3.927   2.655   3.430 -0.2109  0.6411 -0.4470
  331MOL0     C44570   3.842   2.560   3.348  0.3310 -0.5271 -0.4607
  331MOL0     C44571   3.917   2.420   3.339 -0.5682  0.3708  0.2387
  331MOL0     C44572   3.962   2.369   3.480 -0.1287 -0.5872  0.3078
  331MOL0     C44573   3.848   2.351   3.582 -0.3379 -0.5390 -0.0313
  331MOL0     O44574   3.743   2.294   3.515  0.6222  0.1638 -0.6814
  331MOL0     C44575   3.652   2.232   3.595 -0.0206  0.4860 -0.6758
  331MOL0     C44576   3.681   2.150   3.705 -0.2860 -0.5735  0.5365
  331MOL0     C44577   3.583   2.102   3.789 -0.2992 -0.2611  0.0428
  331MOL0     C44578   3.630   1.999   3.895 -0.2296 -0.3322 -0.3906
  331MOL0     C44579   3.449   2.138   3.765 -0.2745  0.4867  0.3640
  331MOL0     C44580   3.334   2.087   3.841  0.1088 -0.4291  0.9022
  331MOL0     O44581   3.221   2.157   3.822 -0.4035  0.2562  0.6795
  331MOL0     C44582   3.100   2.112   3.883  0.0664 -0.4111  0.4296
  331MOL0     C44583   3.081   2.026   3.991 -0.2848 -0.5037  0.1378
  331MOL0     C44584   2.950   1.984   4.031 -0.5763  0.9606  0.6085
  331MOL0     C44585   2.833   2.025   3.968 -0.5384 -0.1319 -0.0242
  331MOL0     O44586   2.714   1.966   4.015  0.3482 -0.0138  0.4924
  331MOL0     C44587   2.591   2.033   3.980 -0.1440 -0.1290  0.1127
  331MOL0     C44588   2.463   1.950   4.024  0.2391 -0.3149 -0.2904
  331MOL0     C44589   2.337   2.032   3.988  0.6715 -0.4635  0.0274
  331MOL0     C44590   2.204   1.953   4.020  0.1112 -0.2612 -0.5292
  331MOL0     C44591   2.092   2.031   3.965 -0.4115 -0.6076  0.3272
  331MOL0     C44592   2.065   2.155   4.057  0.7484  0.2059 -0.5745
  331MOL0     C44593   1.928   2.225   4.034  0.6866  0.0518  0.7079
  331MOL0     C44594   1.921   2.283   3.894  0.2006 -0.0548 -0.3090
  331MOL0    Cl44595   1.766   2.394   3.883  0.3899  0.4469  0.4482
  331MOL0     C44596   2.849   2.117   3.857 -0.1525  0.6397 -0.7138
  331MOL0     C44597   2.980   2.152   3.818 -0.4768 -0.1714  0.3749
  331MOL0     O44598   3.343   1.986   3.911  0.1888 -0.7964  0.0993
  331MOL0     C44599   3.426   2.224   3.652  0.4945 -0.5682 -0.1235
  331MOL0     C44600   3.527   2.266   3.571  0.9834 -0.5479  0.3578
  331MOL0     N44601   3.885   2.737   3.525  0.0851 -0.5462  0.1259
  331MOL0     N44602   3.984   2.814   3.560 -0.2872  0.3863 -0.2415
  331MOL0     C44603   4.645   3.267   2.808  0.8069 -0.2117  0.0969
  331MOL0     C44604   4.778   3.263   2.776  0.0152 -0.2500  0.4444
  331MOL0     C44605   5.187   3.285   2.634  0.6981 -0.5741  0.3553
  331MOL0     C44606   5.307   3.309   2.705  0.3610 -0.2515  0.1139
  331MOL0     C44607   5.427   3.291   2.641 -0.1413  0.4441  0.5701
  331MOL0     C44608   5.439   3.250   2.507  0.7770  0.2299 -0.3161
  331MOL0     O44609   5.565   3.240   2.450 -0.1102 -0.7798 -0.7201
  331MOL0     C44610   5.590   3.181   2.331 -0.1116  0.4519  0.7824
  331MOL0     C44611   5.740   3.164   2.319 -0.7295  0.7040  0.0076
  331MOL0     C44612   5.799   3.307   2.328 -0.2605  0.3166  0.3298
  331MOL0     C44613   5.951   3.311   2.300  0.0708  0.0634  0.3878
  331MOL0     C44614   6.006   3.241   2.180 -0.4834  1.1539 -0.2998
  331MOL0     C44615   6.046   3.200   2.072 -1.1941 -0.0855  0.2945
  331MOL0     C44616   5.320   3.247   2.435 -0.2442  0.0753  0.2647
  331MOL0     C44617   5.198   3.255   2.497 -0.6178 -0.2384 -0.7586
  331MOL0     H44618   4.759   3.334   2.448 -2.1570  1.3305  0.3486
  331MOL0     H44619   4.522   3.351   2.492 -0.2091  0.3483 -0.1623
  331MOL0     H44620   4.403   3.107   2.791  1.0593 -0.3194  3.8808
  331MOL0     H44621   4.433   3.229   2.921  5.1698  2.1109 -2.7143
  331MOL0     H44622   4.189   3.292   2.802 -2.2095 -2.2053 -0.2787
  331MOL0     H44623   4.183   3.118   2.841  2.0897 -1.5907  0.4773
  331MOL0     H44624   4.257   3.358   3.023 -0.4498 -0.3188  1.7422
  331MOL0     H44625   4.101   3.286   3.018 -0.4075  0.8478 -1.1007
  331MOL0     H44626   4.241   3.066   3.075  0.0573  0.2808 -0.5582
  331MOL0     H44627   4.356   3.179   3.125  0.6320 -0.6915 -4.8523
  331MOL0     H44628   4.167   3.290   3.256  1.8140 -0.2096  1.0452
  331MOL0     H44629   4.053   3.153   3.210  0.0915 -2.3875  1.2475
  331MOL0     H44630   4.282   3.135   3.406 -0.1326 -1.2371 -0.4424
  331MOL0     H44631   4.113   3.114   3.423  1.4283  1.0456  0.3901
  331MOL0     H44632   4.129   2.912   3.276  0.2842  1.3965 -1.0782
  331MOL0     H44633   4.310   2.927   3.266 -1.2380  0.9337 -2.3156
  331MOL0     H44634   4.239   2.931   3.550  0.2035  2.6174 -2.9522
  331MOL0     H44635   4.297   2.800   3.452  1.0548 -0.5900  5.2825
  331MOL0     H44636   4.120   2.640   3.324 -0.4924 -0.1132 -0.7267
  331MOL0     H44637   3.746   2.540   3.397 -1.6088 -1.2662 -4.1755
  331MOL0     H44638   3.811   2.594   3.249 -0.2581 -0.8350 -0.3838
  331MOL0     H44639   4.000   2.434   3.270 -1.8163  0.4043 -1.2942
  331MOL0     H44640   3.854   2.344   3.292  0.8768  0.5604 -2.1703
  331MOL0     H44641   4.040   2.430   3.525 -1.1762  0.6537  0.4952
  331MOL0     H44642   4.001   2.269   3.460 -0.1817 -0.0606 -3.0375
  331MOL0     H44643   3.818   2.450   3.616 -1.6462 -1.0344  0.3096
  331MOL0     H44644   3.885   2.289   3.664 -1.9047 -1.4737  0.0036
  331MOL0     H44645   3.785   2.124   3.722  0.4056  1.3522 -0.4156
  331MOL0     H44646   3.564   1.912   3.892 -2.2839  1.1327 -3.9444
  331MOL0     H44647   3.737   1.985   3.880  0.9699  4.3433  2.0686
  331MOL0     H44648   3.630   2.046   3.994  2.6980 -1.0764  0.0632
  331MOL0     H44649   3.158   1.985   4.056  0.2138  1.6096  0.9348
  331MOL0     H44650   2.936   1.923   4.120 -3.7406  1.7668  0.7954
  331MOL0     H44651   2.594   2.133   4.025  0.1692  0.4747 -1.2075
  331MOL0     H44652   2.591   2.037   3.871  0.3706 -1.0243  0.0702
  331MOL0     H44653   2.452   1.847   3.989 -2.5067 -0.0356 -0.4455
  331MOL0     H44654   2.476   1.950   4.132 -1.5010 -3.7471  0.0420
  331MOL0     H44655   2.348   2.052   3.881 -1.0150  2.8996  0.3497
  331MOL0     H44656   2.329   2.126   4.044  0.4081  1.8607 -3.5752
  331MOL0     H44657   2.203   1.857   3.966  0.6882  1.0745 -3.0846
  331MOL0     H44658   2.196   1.937   4.128  3.1233 -2.1660 -0.4685
  331MOL0     H44659   2.006   1.963   3.967  0.6112 -2.0666 -1.4327
  331MOL0     H44660   2.119   2.044   3.859  0.4758  3.4399  0.8835
  331MOL0     H44661   2.061   2.130   4.163  0.4904  2.2324 -0.0634
  331MOL0     H44662   2.149   2.224   4.047  1.9308 -1.2310 -1.0206
  331MOL0     H44663   1.910   2.306   4.106 -0.5347  0.3036  0.1554
  331MOL0     H44664   1.849   2.149   4.039  0.4893  0.3382  2.2869
  331MOL0     H44665   1.932   2.204   3.819  1.0478 -1.6896  1.4817
  331MOL0     H44666   2.008   2.348   3.880  0.1589  0.0298 -0.1740
  331MOL0     H44667   2.763   2.153   3.803  0.4994  2.9397 -0.3223
  331MOL0     H44668   2.995   2.216   3.732 -1.0802 -1.4375 -0.7177
  331MOL0     H44669   3.327   2.252   3.619  0.7506  0.5657  0.0301
  331MOL0     H44670   3.508   2.322   3.480  1.7243 -0.6593  0.1309
  331MOL0     H44671   4.620   3.251   2.912 -2.3357  0.5900 -0.4438
  331MOL0     H44672   4.850   3.233   2.851  0.6711 -1.4602 -0.6329
  331MOL0     H44673   5.315   3.334   2.810  3.4094 -0.6996  0.0693
  331MOL0     H44674   5.522   3.302   2.691  1.2829 -2.0917 -1.3161
  331MOL0     H44675   5.551   3.079   2.339  0.9662  0.1210  2.2826
  331MOL0     H44676   5.551   3.234   2.244  1.5907  1.6575  0.6927
  331MOL0     H44677   5.757   3.112   2.224  0.4303 -1.6413  1.3963
  331MOL0     H44678   5.791   3.110   2.399  0.4640  0.1445 -1.1000
  331MOL0     H44679   5.776   3.339   2.430 -1.0111 -1.4443  0.7557
  331MOL0     H44680   5.753   3.377   2.258 -0.7330 -1.6333 -1.4253
  331MOL0     H44681   6.006   3.262   2.381 -3.4549 -2.2442  1.6254
  331MOL0     H44682   5.973   3.418   2.303 -0.1029  0.1533 -0.9699
  331MOL0     H44683   6.106   3.179   1.986  0.9314  3.2793  0.7641
  331MOL0     H44684   5.315   3.236   2.327  0.7218  1.2255  0.0800
  331MOL0     H44685   5.116   3.235   2.428 -0.7826 -4.1393  0.3508
  332MOL0     O44686   8.103   9.890  11.141  0.0926 -1.0251 -0.8647
  332MOL0     C44687   8.208   9.954  11.156  0.9231 -0.1423  0.0033
  332MOL0     O44688   8.229  10.045  11.256  0.2602 -0.3601 -0.2520
  332MOL0     C44689   8.119  10.111  11.298 -0.3669  0.0026 -1.6360
  332MOL0     C44690   8.034  10.072  11.400  0.4581  0.1935  0.4458
  332MOL0     C44691   7.923  10.157  11.436  0.2636  0.2715 -0.0444
  332MOL0     C44692   7.906  10.287  11.396 -0.0536 -0.2556  0.3181
  332MOL0     O44693   7.805  10.357  11.452  0.5195  0.1697 -0.1151
  332MOL0     C44694   7.777  10.488  11.407 -0.7353 -0.4479  1.6574
  332MOL0     C44695   7.672  10.490  11.299 -0.6592  0.0605  1.0959
  332MOL0     C44696   7.555  10.399  11.326 -0.0651  0.6206 -0.9062
  332MOL0     C44697   7.470  10.383  11.201  0.2642  0.6988  0.1898
  332MOL0     C44698   7.370  10.258  11.201 -0.0108 -0.7419 -0.2380
  332MOL0     C44699   7.263  10.274  11.321 -0.7387  0.1381  0.0434
  332MOL0     C44700   7.129  10.339  11.293 -0.3477 -0.1722 -0.3986
  332MOL0     C44701   7.048  10.337  11.420 -0.1792  0.1952  0.0074
  332MOL0     N44702   6.932  10.432  11.423 -0.4646  0.5348  0.0514
  332MOL0     C44703   6.812  10.440  11.350 -0.5374  0.5907 -0.1315
  332MOL0     C44704   6.759  10.561  11.370 -0.4062  0.0262 -0.4565
  332MOL0     C44705   6.631  10.594  11.315 -0.0236 -0.6778 -0.7332
  332MOL0     C44706   6.513  10.558  11.412 -0.4263 -0.8232  0.4616
  332MOL0     C44707   6.514  10.404  11.443  0.0859 -0.2645 -0.8498
  332MOL0     C44708   6.379  10.364  11.500  1.1187 -0.3957  0.0163
  332MOL0     O44709   6.288  10.336  11.393 -1.0654  0.0131  0.1946
  332MOL0     C44710   6.151  10.344  11.417 -0.1281  0.4034 -0.4777
  332MOL0     C44711   6.103  10.358  11.548  0.2572 -0.2305 -0.0315
  332MOL0     C44712   5.961  10.360  11.566 -1.0058  0.0805 -0.2025
  332MOL0     C44713   5.916  10.370  11.711  0.0356  0.2364 -0.1812
  332MOL0     C44714   5.865  10.337  11.460  0.3492 -0.9850 -0.6838
  332MOL0     C44715   5.715  10.313  11.477 -0.3131  0.7254  0.9852
  332MOL0     O44716   5.643  10.272  11.368  0.0842 -0.1309  0.3597
  332MOL0     C44717   5.509  10.261  11.378  0.2723 -0.6629 -0.8805
  332MOL0     C44718   5.451  10.152  11.309 -0.9575  0.2100  0.1455
  332MOL0     C44719   5.313  10.140  11.295  0.1165  0.0779  0.0150
  332MOL0     C44720   5.225  10.236  11.353 -0.9834  0.3010 -0.5873
  332MOL0     O44721   5.086  10.222  11.342  0.4582  0.1191  0.7293
  332MOL0     C44722   5.031  10.090  11.334 -0.1784 -0.5649 -0.3226
  332MOL0     C44723   4.885  10.089  11.393  0.3424  0.7931 -0.2558
  332MOL0     C44724   4.781  10.174  11.317  0.3031  0.1672 -0.5268
  332MOL0     C44725   4.660  10.196  11.402  0.8061  0.2261  0.1758
  332MOL0     C44726   4.540  10.280  11.333 -0.4042  0.3608  0.3161
  332MOL0     C44727   4.408  10.264  11.409 -0.3381  0.1275  0.3170
  332MOL0     C44728   4.294  10.347  11.352 -0.5046 -0.5316 -0.1016
  332MOL0     C44729   4.296  10.476  11.422  0.3661  0.0565  0.5982
  332MOL0    Cl44730   4.191  10.592  11.355  0.5786 -0.2966 -0.3272
  332MOL0     C44731   5.282  10.350  11.409  0.1353 -0.1354 -0.1021
  332MOL0     C44732   5.421  10.369  11.419 -0.3621  0.2803  0.1314
  332MOL0     O44733   5.662  10.330  11.586  0.3770  0.0502 -0.1183
  332MOL0     C44734   5.923  10.340  11.329 -0.0642  0.2723 -0.2603
  332MOL0     C44735   6.061  10.338  11.313 -0.4476  0.4162  0.1229
  332MOL0     N44736   6.836  10.626  11.458 -0.1621  0.5095 -0.0660
  332MOL0     N44737   6.934  10.556  11.485 -0.0392  0.2701 -0.8679
  332MOL0     C44738   7.999  10.329  11.294 -0.2273 -0.3102  0.4890
  332MOL0     C44739   8.100  10.241  11.245  0.4289  0.4961 -0.2169
  332MOL0     C44740   8.312   9.926  11.053  0.1162 -0.2087 -0.0021
  332MOL0     C44741   8.292   9.833  10.953 -0.0487  0.2055 -0.2789
  332MOL0     C44742   8.379   9.832  10.838 -0.0884 -0.3287 -0.5664
  332MOL0     C44743   8.497   9.910  10.845  0.0396  1.0810  0.0042
  332MOL0     O44744   8.602   9.901  10.761  0.4791  0.7774  0.3761
  332MOL0     C44745   8.628   9.786  10.685  0.2654 -0.8471 -0.1362
  332MOL0     C44746   8.708   9.673  10.762  0.2982  0.5518 -0.3871
  332MOL0     C44747   8.724   9.550  10.666 -0.2697  0.3977 -0.3272
  332MOL0     C44748   8.817   9.452  10.739 -0.3083  0.4595 -0.7611
  332MOL0     C44749   8.825   9.325  10.660 -0.2801 -0.7149 -0.2178
  332MOL0     C44750   8.832   9.223  10.591 -0.0159  0.1943 -0.4619
  332MOL0     C44751   8.526   9.989  10.954 -0.3051  0.1683  0.1188
  332MOL0     C44752   8.428  10.002  11.055 -0.3575  0.8970 -0.4097
  332MOL0     H44753   8.034   9.976  11.452 -4.7654  0.4554  1.5411
  332MOL0     H44754   7.844  10.124  11.503  1.1211  0.7919  1.2682
  332MOL0     H44755   7.751  10.555  11.489  3.4226  4.0384 -0.2117
  332MOL0     H44756   7.869  10.539  11.377 -1.5626  0.3335  0.3665
  332MOL0     H44757   7.648  10.597  11.289 -0.0746  0.0338 -1.4064
  332MOL0     H44758   7.712  10.458  11.202  0.3726 -1.1330  1.8919
  332MOL0     H44759   7.589  10.303  11.365  1.0364  1.2418 -0.2739
  332MOL0     H44760   7.498  10.456  11.400  0.5326 -1.0027  0.8902
  332MOL0     H44761   7.420  10.478  11.180  2.3727  1.6899 -0.7111
  332MOL0     H44762   7.542  10.364  11.121  0.3067  1.3718  0.0601
  332MOL0     H44763   7.313  10.260  11.108  0.6368 -0.0137 -0.6217
  332MOL0     H44764   7.427  10.166  11.216 -2.1162 -2.4681 -2.0180
  332MOL0     H44765   7.242  10.168  11.337  1.2076 -0.4573 -1.0097
  332MOL0     H44766   7.320  10.334  11.393  0.6853  0.5508 -1.3533
  332MOL0     H44767   7.135  10.443  11.261  0.8560  0.3145  1.2375
  332MOL0     H44768   7.077  10.289  11.211  1.2452  1.5219 -2.5478
  332MOL0     H44769   7.115  10.368  11.501 -0.1023  0.3877 -0.1312
  332MOL0     H44770   7.023  10.232  11.443  2.5716 -1.1360 -2.4656
  332MOL0     H44771   6.775  10.372  11.275 -0.7771 -0.4889  0.9432
  332MOL0     H44772   6.622  10.702  11.297  2.1295 -0.2517  0.3854
  332MOL0     H44773   6.620  10.545  11.218  1.6944  0.0777 -1.3463
  332MOL0     H44774   6.418  10.591  11.371  0.5956  0.2673 -1.1473
  332MOL0     H44775   6.538  10.614  11.503 -0.1701  3.2969 -1.9049
  332MOL0     H44776   6.592  10.390  11.518 -1.6786  2.9289  1.8868
  332MOL0     H44777   6.537  10.343  11.355 -2.6720 -1.4491 -0.8541
  332MOL0     H44778   6.353  10.435  11.579  2.0647  0.6438 -0.5798
  332MOL0     H44779   6.403  10.269  11.549  0.8346 -0.0746  0.7946
  332MOL0     H44780   6.171  10.375  11.630  1.7056  3.2052 -1.7257
  332MOL0     H44781   5.841  10.300  11.749 -1.0799  0.4321 -1.9299
  332MOL0     H44782   6.004  10.361  11.775 -0.0808 -2.5637 -0.3023
  332MOL0     H44783   5.886  10.474  11.728 -2.6481 -0.1269 -2.0186
  332MOL0     H44784   5.519  10.080  11.266 -0.5652  0.8038 -0.2518
  332MOL0     H44785   5.255  10.071  11.235 -0.2742  0.1289  0.3312
  332MOL0     H44786   5.026  10.072  11.226  0.1000  0.6208 -0.5579
  332MOL0     H44787   5.095  10.021  11.390 -0.6068 -1.0002 -0.3668
  332MOL0     H44788   4.848   9.987  11.385  0.4648  0.7415 -0.1555
  332MOL0     H44789   4.889  10.106  11.501  0.9804 -1.6453  0.1605
  332MOL0     H44790   4.762  10.116  11.226 -0.5551 -2.6962  1.3548
  332MOL0     H44791   4.831  10.269  11.294  1.0592  0.3158  1.5149
  332MOL0     H44792   4.619  10.096  11.421 -0.4205  0.7935  0.5773
  332MOL0     H44793   4.695  10.240  11.495 -2.3062 -0.1737  1.6752
  332MOL0     H44794   4.521  10.242  11.232 -1.4063  0.9427  0.2689
  332MOL0     H44795   4.572  10.385  11.327  0.2188  0.0911 -2.8817
  332MOL0     H44796   4.386  10.157  11.405  1.4419 -0.2669  0.3046
  332MOL0     H44797   4.417  10.280  11.517 -2.5640 -0.7963  0.6957
  332MOL0     H44798   4.198  10.304  11.383  0.5174 -1.6393  1.7158
  332MOL0     H44799   4.301  10.350  11.243 -1.9313 -1.5345 -0.2637
  332MOL0     H44800   4.399  10.513  11.418  0.5650 -0.3946  1.3601
  332MOL0     H44801   4.280  10.456  11.528  0.2033  2.4916  1.0976
  332MOL0     H44802   5.213  10.429  11.439 -1.2243  0.0183 -3.1999
  332MOL0     H44803   5.459  10.454  11.475 -0.6500  0.1068  0.5954
  332MOL0     H44804   5.867  10.334  11.237  1.9239  2.8458 -1.7583
  332MOL0     H44805   6.099  10.323  11.212 -0.7118 -2.0759  0.3310
  332MOL0     H44806   8.005  10.435  11.271 -1.4888 -0.3224  0.0171
  332MOL0     H44807   8.151  10.288  11.161 -2.9152  0.8395 -2.2377
  332MOL0     H44808   8.201   9.773  10.961 -0.5194  0.5687 -2.4556
  332MOL0     H44809   8.368   9.770  10.750  1.3769 -0.4907 -0.6678
  332MOL0     H44810   8.541   9.740  10.637  1.1292 -3.1690  0.3636
  332MOL0     H44811   8.694   9.827  10.608  1.4985  0.0226  1.3311
  332MOL0     H44812   8.646   9.634  10.843  1.8469  1.3097  1.2239
  332MOL0     H44813   8.803   9.702  10.807 -0.4969  1.0586  1.0304
  332MOL0     H44814   8.770   9.585  10.573  0.1159  4.1501  1.1049
  332MOL0     H44815   8.625   9.504  10.655 -0.0376 -1.1924  2.9846
  332MOL0     H44816   8.769   9.426  10.833 -2.1550 -0.6674 -1.9573
  332MOL0     H44817   8.911   9.505  10.761 -0.3805 -0.8456  3.5777
  332MOL0     H44818   8.828   9.125  10.548  0.1228  0.0722 -0.1973
  332MOL0     H44819   8.625  10.034  10.951 -0.4111  0.4870  1.1802
  332MOL0     H44820   8.442  10.070  11.139 -1.7720  0.4804  0.2054
  333MOL0     O44821   8.737   9.359   9.012  0.6530 -0.2711  0.1486
  333MOL0     C44822   8.706   9.472   8.977 -0.9629  0.5267 -0.1829
  333MOL0     O44823   8.601   9.509   8.889 -0.5710  0.0733  0.9584
  333MOL0     C44824   8.513   9.406   8.857  0.2783  0.0643  0.6405
  333MOL0     C44825   8.550   9.290   8.784 -0.1312 -0.3962  0.9288
  333MOL0     C44826   8.457   9.190   8.773  1.0133 -0.3570  0.1027
  333MOL0     C44827   8.327   9.192   8.834 -0.5787 -1.0101  0.2145
  333MOL0     O44828   8.246   9.083   8.814 -0.0586 -0.3896  0.3485
  333MOL0     C44829   8.193   9.067   8.687  0.4827 -0.1402 -1.0144
  333MOL0     C44830   8.179   8.918   8.641  0.4663 -0.5163 -0.1594
  333MOL0     C44831   8.069   8.844   8.726  0.2215 -0.1968  0.0342
  333MOL0     C44832   8.044   8.698   8.678  0.1138 -0.3032 -0.3821
  333MOL0     C44833   7.915   8.646   8.749  0.4950  0.6126 -0.3581
  333MOL0     C44834   7.924   8.631   8.901 -0.4717  0.0705  0.1062
  333MOL0     C44835   7.794   8.581   8.947  0.1198  0.1831 -0.2001
  333MOL0     C44836   7.800   8.580   9.104  0.3021 -0.3852 -0.2154
  333MOL0     N44837   7.662   8.556   9.146 -0.3193 -0.0865  1.0471
  333MOL0     C44838   7.597   8.620   9.250  0.2531 -1.1315  0.4691
  333MOL0     C44839   7.481   8.548   9.257 -0.2634 -0.8152  0.2735
  333MOL0     C44840   7.376   8.580   9.360  0.0579 -0.1882  0.4416
  333MOL0     C44841   7.369   8.478   9.473  0.2991  1.1257 -0.0616
  333MOL0     C44842   7.233   8.479   9.551  0.5341 -0.1674 -0.8017
  333MOL0     C44843   7.213   8.614   9.610  0.0587  0.8502 -0.9729
  333MOL0     O44844   7.110   8.610   9.716 -0.2118  0.3428 -0.6138
  333MOL0     C44845   6.968   8.596   9.684 -0.4399 -0.2143 -0.3638
  333MOL0     C44846   6.914   8.585   9.556  0.6731 -0.0883  0.1891
  333MOL0     C44847   6.770   8.567   9.538  0.7190  0.1170  0.0382
  333MOL0     C44848   6.713   8.565   9.394  0.1500  0.3884 -0.4862
  333MOL0     C44849   6.693   8.551   9.659 -0.1646 -0.8427 -0.2360
  333MOL0     C44850   6.541   8.546   9.655 -0.9735 -0.0438  0.3820
  333MOL0     O44851   6.491   8.616   9.757  0.0443 -0.5589  0.1513
  333MOL0     C44852   6.351   8.626   9.748  0.3479 -0.6824 -0.8485
  333MOL0     C44853   6.278   8.533   9.814  0.2224 -0.6799 -0.9008
  333MOL0     C44854   6.142   8.533   9.819 -0.3708 -0.3936  0.2153
  333MOL0     C44855   6.072   8.634   9.758 -0.2199  0.6919  0.8036
  333MOL0     O44856   5.936   8.625   9.777 -0.6059  0.2116  0.5135
  333MOL0     C44857   5.848   8.724   9.728  0.0292  0.2421  0.2081
  333MOL0     C44858   5.865   8.853   9.816 -1.2877  0.6326 -0.1693
  333MOL0     C44859   5.855   8.978   9.730  0.2199  0.5063  1.6364
  333MOL0     C44860   5.838   9.098   9.820 -0.9531  0.6671  0.1629
  333MOL0     C44861   5.859   9.211   9.724 -0.5267 -0.0050 -0.2335
  333MOL0     C44862   5.911   9.344   9.791  0.4849  0.7340  0.4820
  333MOL0     C44863   5.940   9.451   9.683  0.0178  0.2588  0.2629
  333MOL0     C44864   5.988   9.581   9.756  0.2553 -0.2171  0.2416
  333MOL0    Cl44865   6.009   9.705   9.622 -0.0904  0.0136 -0.1133
  333MOL0     C44866   6.135   8.734   9.688 -0.7096 -0.0189 -0.4315
  333MOL0     C44867   6.279   8.731   9.683  0.1168  0.2726  0.7423
  333MOL0     O44868   6.478   8.486   9.565 -0.3138  0.6479  0.1939
  333MOL0     C44869   6.757   8.548   9.790  0.9808  0.2121  0.9288
  333MOL0     C44870   6.890   8.574   9.802  0.2948  0.0223  0.4852
  333MOL0     N44871   7.473   8.460   9.155  0.3342  0.3082  0.0176
  333MOL0     N44872   7.584   8.466   9.086  0.6542 -0.2622 -0.9210
  333MOL0     C44873   8.296   9.310   8.914 -0.4453  0.7579  0.3347
  333MOL0     C44874   8.388   9.410   8.928 -0.3833  0.3225  0.3135
  333MOL0     C44875   8.817   9.573   8.992  0.4075  0.2957  1.1509
  333MOL0     C44876   8.797   9.710   8.980 -0.1070 -0.4045 -0.2521
  333MOL0     C44877   8.909   9.794   8.988  1.3537 -0.5120 -0.6111
  333MOL0     C44878   9.033   9.757   9.011  0.2798 -0.4536  1.1704
  333MOL0     O44879   9.137   9.849   9.019 -0.0909  0.2293  0.5834
  333MOL0     C44880   9.266   9.784   9.029 -0.6876 -0.3130 -0.3031
  333MOL0     C44881   9.365   9.894   9.039  0.6214 -0.7987  0.0320
  333MOL0     C44882   9.506   9.838   9.028 -0.3871  0.2096  0.1636
  333MOL0     C44883   9.545   9.805   8.880 -0.5419  0.0872  0.2551
  333MOL0     C44884   9.558   9.923   8.797 -0.1958 -0.8549 -0.6755
  333MOL0     C44885   9.566  10.021   8.726  0.1557 -0.1294  0.0120
  333MOL0     C44886   9.054   9.619   9.025  0.7664  0.5846  0.1464
  333MOL0     C44887   8.946   9.530   9.021 -0.3418  0.8220 -0.4531
  333MOL0     H44888   8.650   9.279   8.743 -0.9543 -2.8986 -0.6187
  333MOL0     H44889   8.491   9.105   8.715  1.1414  0.4552 -1.0310
  333MOL0     H44890   8.096   9.117   8.686  0.5196 -0.0522 -1.9655
  333MOL0     H44891   8.261   9.114   8.614  0.7279  0.6238 -0.3117
  333MOL0     H44892   8.152   8.922   8.535  0.6457  2.5086 -0.2025
  333MOL0     H44893   8.268   8.855   8.647  0.0325 -0.9797  2.0712
  333MOL0     H44894   8.104   8.840   8.830 -0.0114  0.0341  0.1239
  333MOL0     H44895   7.988   8.918   8.721  0.4971  0.1194  0.2034
  333MOL0     H44896   8.033   8.690   8.570 -1.1153 -0.6216 -0.2494
  333MOL0     H44897   8.133   8.648   8.718  0.0985 -0.9585 -1.1490
  333MOL0     H44898   7.831   8.713   8.725  0.8125  0.4970 -1.9244
  333MOL0     H44899   7.895   8.547   8.707 -1.4334 -1.1526  4.1287
  333MOL0     H44900   7.991   8.546   8.916 -2.6432 -2.0861 -1.6138
  333MOL0     H44901   7.956   8.726   8.946 -2.6102  1.9192 -1.9987
  333MOL0     H44902   7.719   8.647   8.903  0.8146  0.6484 -0.7064
  333MOL0     H44903   7.780   8.482   8.905  2.7791  0.6553 -2.4780
  333MOL0     H44904   7.830   8.677   9.144  0.0699 -0.4951  0.2339
  333MOL0     H44905   7.870   8.506   9.145 -0.7369 -0.8357  0.8013
  333MOL0     H44906   7.625   8.702   9.315  1.0079 -1.6955  0.8684
  333MOL0     H44907   7.374   8.683   9.399 -1.1280 -1.1497  3.1748
  333MOL0     H44908   7.279   8.571   9.309  0.4580 -1.4421 -0.1220
  333MOL0     H44909   7.452   8.508   9.538 -0.6186 -0.9960  2.2304
  333MOL0     H44910   7.387   8.377   9.435  2.2323  1.7121 -0.8444
  333MOL0     H44911   7.238   8.411   9.637 -0.5225  0.4181 -0.2535
  333MOL0     H44912   7.145   8.452   9.491 -0.7662  0.4019  0.7736
  333MOL0     H44913   7.173   8.679   9.531 -0.7490  1.0829 -0.3802
  333MOL0     H44914   7.307   8.656   9.645 -0.5203  1.2830  0.1003
  333MOL0     H44915   6.977   8.598   9.468  0.7969  0.0475  0.2971
  333MOL0     H44916   6.614   8.613   9.398  0.2852  0.6170  0.1115
  333MOL0     H44917   6.766   8.613   9.311 -0.9793 -1.5675 -2.4527
  333MOL0     H44918   6.703   8.458   9.372 -1.2974  0.5595 -0.8172
  333MOL0     H44919   6.324   8.453   9.870 -1.5833 -1.0353  0.1574
  333MOL0     H44920   6.085   8.457   9.870  0.6169 -1.0367  0.4021
  333MOL0     H44921   5.859   8.759   9.625 -2.8048  6.4203  1.5421
  333MOL0     H44922   5.745   8.688   9.735 -0.1657  0.3288 -1.6388
  333MOL0     H44923   5.793   8.871   9.897  1.0224  2.8333  1.5711
  333MOL0     H44924   5.963   8.848   9.864 -1.3222 -2.1438 -0.2029
  333MOL0     H44925   5.766   8.971   9.667  0.8864 -0.2229  0.7416
  333MOL0     H44926   5.942   8.972   9.664 -0.3762 -2.2799  0.9560
  333MOL0     H44927   5.747   9.096   9.881 -1.1527 -4.1811  0.1190
  333MOL0     H44928   5.916   9.085   9.895 -0.9584  1.2801  0.2761
  333MOL0     H44929   5.764   9.239   9.677 -0.3318  0.5007 -0.3378
  333MOL0     H44930   5.932   9.184   9.647  0.6447 -1.9120  1.4468
  333MOL0     H44931   5.843   9.371   9.873  0.7428 -1.8119  1.6195
  333MOL0     H44932   6.004   9.326   9.847  0.6403  2.1866  0.7380
  333MOL0     H44933   5.849   9.473   9.626  0.7792  1.7538 -0.4361
  333MOL0     H44934   6.011   9.418   9.607  1.0474 -0.7913  1.6410
  333MOL0     H44935   6.084   9.561   9.804  0.8704  0.2176 -0.7964
  333MOL0     H44936   5.919   9.615   9.834 -1.2912  2.2868 -2.0442
  333MOL0     H44937   6.089   8.821   9.644  1.2180  0.5935 -1.3503
  333MOL0     H44938   6.337   8.799   9.623 -1.7462  1.3527  0.0775
  333MOL0     H44939   6.696   8.523   9.877  1.1279  0.8345  1.2158
  333MOL0     H44940   6.942   8.561   9.896 -0.4071 -0.0239  0.8715
  333MOL0     H44941   8.198   9.320   8.960 -0.4462  0.7002  0.3444
  333MOL0     H44942   8.380   9.502   8.984  1.3383  1.0350 -0.5314
  333MOL0     H44943   8.695   9.745   8.973 -0.7763 -1.9496  1.0687
  333MOL0     H44944   8.883   9.900   8.987 -0.2928 -0.8489  1.2203
  333MOL0     H44945   9.273   9.721   9.117 -0.9000  0.7472  0.4949
  333MOL0     H44946   9.280   9.729   8.935 -0.7280  0.9105 -1.0526
  333MOL0     H44947   9.348   9.939   9.138 -0.2048 -0.7479 -0.1260
  333MOL0     H44948   9.338   9.960   8.956  1.2477  0.7042  0.9767
  333MOL0     H44949   9.509   9.748   9.090 -0.0904  0.9299  1.2296
  333MOL0     H44950   9.582   9.907   9.065  0.0846 -0.3649  0.2688
  333MOL0     H44951   9.481   9.737   8.823 -0.3442 -0.2387  0.4185
  333MOL0     H44952   9.645   9.762   8.884  0.2939  1.8672 -0.4111
  333MOL0     H44953   9.582  10.112   8.674 -0.3969  1.5171  2.5224
  333MOL0     H44954   9.154   9.586   9.051  2.0184  3.3360 -0.7700
  333MOL0     H44955   8.970   9.426   9.039 -3.7510  0.1952  1.2932
  334MOL0     O44956  11.147   4.342   6.192 -0.2871 -0.6665  0.1130
  334MOL0     C44957  11.197   4.389   6.291  0.2906  0.2022  0.4359
  334MOL0     O44958  11.125   4.436   6.398 -0.6299 -0.1793  0.0748
  334MOL0     C44959  10.990   4.445   6.394  0.6798  0.1187 -0.3051
  334MOL0     C44960  10.899   4.334   6.394  0.2926  0.0023 -0.1610
  334MOL0     C44961  10.762   4.356   6.412 -0.7809 -0.2319 -0.1835
  334MOL0     C44962  10.713   4.493   6.417  0.0812  0.1940  0.1960
  334MOL0     O44963  10.578   4.492   6.451 -0.1563 -0.3154  0.7331
  334MOL0     C44964  10.523   4.622   6.470  0.5956 -0.5712  0.3111
  334MOL0     C44965  10.369   4.614   6.488 -1.0128 -0.5280 -0.5133
  334MOL0     C44966  10.280   4.725   6.435 -0.5357 -0.2065  0.0813
  334MOL0     C44967  10.130   4.694   6.406  0.2399  1.3596 -0.8037
  334MOL0     C44968  10.069   4.814   6.342 -0.4062 -0.0610 -0.7378
  334MOL0     C44969   9.922   4.808   6.317  0.6936 -0.5951  0.0684
  334MOL0     C44970   9.835   4.863   6.432  0.4921 -0.0301 -0.8427
  334MOL0     C44971   9.694   4.881   6.385  0.3791 -0.8331 -0.6436
  334MOL0     N44972   9.608   4.888   6.495 -0.5762 -0.4319 -0.6484
  334MOL0     C44973   9.567   5.009   6.546  0.2848 -0.2203  0.1239
  334MOL0     C44974   9.474   4.973   6.640  0.6234 -0.0523 -0.1234
  334MOL0     C44975   9.394   5.062   6.722 -0.2355  0.2184 -0.1021
  334MOL0     C44976   9.255   5.068   6.677 -0.4973 -0.7367  0.6593
  334MOL0     C44977   9.158   4.980   6.757  0.5895  0.0373  0.0610
  334MOL0     C44978   9.013   5.015   6.723  0.4011  0.8482 -0.4504
  334MOL0     O44979   8.982   5.010   6.586 -0.5106 -0.3936  0.4890
  334MOL0     C44980   8.859   5.045   6.541 -0.5272  0.3014 -0.5360
  334MOL0     C44981   8.848   5.063   6.403  0.1450  0.9064 -0.2503
  334MOL0     C44982   8.724   5.097   6.342  0.1377  0.4591  0.3443
  334MOL0     C44983   8.726   5.123   6.188  0.3039 -0.4050  0.0123
  334MOL0     C44984   8.609   5.100   6.422  0.3196  0.1579  0.1914
  334MOL0     C44985   8.476   5.137   6.367  0.0189  0.6262  0.4513
  334MOL0     O44986   8.370   5.090   6.438 -0.3959  0.9800 -0.2674
  334MOL0     C44987   8.244   5.118   6.418 -0.2223  0.2434  0.5172
  334MOL0     C44988   8.144   5.021   6.434  0.0930  0.6731  0.8234
  334MOL0     C44989   8.008   5.054   6.408 -0.4694 -0.6018  0.2913
  334MOL0     C44990   7.967   5.186   6.374  0.2533 -0.3828  0.2372
  334MOL0     O44991   7.836   5.229   6.362 -0.9526 -0.1693 -0.2749
  334MOL0     C44992   7.724   5.140   6.381  0.1260  0.3782  0.4586
  334MOL0     C44993   7.589   5.218   6.370 -0.5362 -0.0557 -0.0778
  334MOL0     C44994   7.486   5.150   6.461  0.5600 -0.4172  0.2389
  334MOL0     C44995   7.346   5.220   6.447 -0.2722  0.3861  0.2066
  334MOL0     C44996   7.246   5.196   6.561 -0.1076 -0.1448 -0.1804
  334MOL0     C44997   7.184   5.055   6.559 -0.2196 -0.0204  0.1563
  334MOL0     C44998   7.043   5.056   6.618  0.7711  0.7922 -0.0547
  334MOL0     C44999   6.945   5.095   6.511 -0.1697 -0.0804  0.0099
  334MOL0    Cl45000   6.786   5.096   6.582  0.1186  0.1581  0.4354
  334MOL0     C45001   8.069   5.282   6.361 -0.0742  0.1856 -0.6025
  334MOL0     C45002   8.200   5.244   6.377  0.1334  1.0320 -0.8010
  334MOL0     O45003   8.469   5.214   6.272  0.3576  0.2852  0.1944
  334MOL0     C45004   8.616   5.072   6.555  0.0166 -0.2904 -0.4665
  334MOL0     C45005   8.735   5.051   6.617 -0.3223 -0.4637 -0.0414
  334MOL0     N45006   9.459   4.836   6.642 -0.2067 -0.0341  0.4890
  334MOL0     N45007   9.543   4.786   6.555 -0.0017 -0.4628  0.4824
  334MOL0     C45008  10.801   4.604   6.399  0.6343 -0.0586 -0.0981
  334MOL0     C45009  10.940   4.581   6.392  0.2979 -0.4066  0.4925
  334MOL0     C45010  11.347   4.402   6.293  0.4318  0.2256 -0.4008
  334MOL0     C45011  11.398   4.511   6.367  0.9268  0.0616 -0.7209
  334MOL0     C45012  11.536   4.539   6.378 -0.3197 -0.0135 -0.1049
  334MOL0     C45013  11.626   4.457   6.298 -0.3554  0.1460  0.3147
  334MOL0     O45014  11.766   4.491   6.296 -0.9836 -0.4734 -0.0084
  334MOL0     C45015  11.854   4.398   6.235  0.1110  0.4408 -0.3913
  334MOL0     C45016  12.002   4.445   6.223 -0.7024 -0.1994  0.0957
  334MOL0     C45017  12.082   4.395   6.344 -0.1105  1.0788 -0.6560
  334MOL0     C45018  12.244   4.405   6.321 -0.3510 -0.1389 -0.2244
  334MOL0     C45019  12.295   4.352   6.448  0.1807  0.1972 -0.2912
  334MOL0     C45020  12.327   4.313   6.556  0.3872 -0.4038 -0.7581
  334MOL0     C45021  11.577   4.343   6.224 -1.0142 -0.1959 -0.0743
  334MOL0     C45022  11.440   4.321   6.223  0.7995 -0.3409 -0.6791
  334MOL0     H45023  10.939   4.234   6.378 -1.0008 -0.3977 -1.0656
  334MOL0     H45024  10.683   4.281   6.419 -3.3102  2.2374 -0.6965
  334MOL0     H45025  10.566   4.664   6.562 -2.5667  2.5431  0.5583
  334MOL0     H45026  10.539   4.683   6.381 -0.3336  0.6287  0.9243
  334MOL0     H45027  10.331   4.519   6.450  0.7545 -1.7256  0.5507
  334MOL0     H45028  10.348   4.616   6.595 -0.9279 -0.1002 -0.5047
  334MOL0     H45029  10.294   4.813   6.498  0.1660 -1.4172  1.6928
  334MOL0     H45030  10.326   4.748   6.338  0.6601 -2.1003  0.1482
  334MOL0     H45031  10.116   4.612   6.335 -2.8200  1.1051 -0.0451
  334MOL0     H45032  10.094   4.662   6.504  1.1207 -1.5483 -1.3486
  334MOL0     H45033  10.108   4.902   6.394  2.4842 -1.3268 -0.5469
  334MOL0     H45034  10.117   4.815   6.244  0.7126 -0.2458 -0.2124
  334MOL0     H45035   9.893   4.871   6.232 -2.4242 -2.1124 -0.1272
  334MOL0     H45036   9.884   4.708   6.293 -2.1563  0.8350 -2.0181
  334MOL0     H45037   9.831   4.793   6.516 -0.4511  0.4868 -0.4337
  334MOL0     H45038   9.868   4.963   6.463 -0.5316 -0.1972  0.9448
  334MOL0     H45039   9.655   4.799   6.324  1.2200 -0.2961 -1.9659
  334MOL0     H45040   9.694   4.971   6.323  1.8247 -1.0074 -0.9407
  334MOL0     H45041   9.592   5.109   6.510 -1.1882 -0.0178 -0.3909
  334MOL0     H45042   9.402   5.037   6.828  3.0374  0.7781 -0.1094
  334MOL0     H45043   9.431   5.165   6.715 -0.9480  0.5483  0.8376
  334MOL0     H45044   9.241   5.054   6.569 -1.4309  1.3256  0.4603
  334MOL0     H45045   9.226   5.174   6.683  0.8626 -0.2983 -0.1718
  334MOL0     H45046   9.170   5.007   6.863  1.3575  1.6296 -0.3903
  334MOL0     H45047   9.177   4.872   6.751  0.0748 -0.1575  1.4935
  334MOL0     H45048   8.991   5.113   6.767  1.9753  0.7992  0.5200
  334MOL0     H45049   8.950   4.933   6.760 -1.0594  1.7235 -0.8990
  334MOL0     H45050   8.943   5.057   6.350 -0.2168  0.3181 -0.8622
  334MOL0     H45051   8.811   5.071   6.143 -0.6304 -1.3041 -0.7494
  334MOL0     H45052   8.628   5.099   6.146 -0.2975 -0.6148  1.4602
  334MOL0     H45053   8.739   5.229   6.167 -0.6027 -0.4006 -0.5805
  334MOL0     H45054   8.176   4.922   6.464 -0.9526 -0.7680 -2.4036
  334MOL0     H45055   7.934   4.975   6.402  2.7716 -3.8621 -0.5104
  334MOL0     H45056   7.727   5.063   6.303  2.0055  0.8556  0.0078
  334MOL0     H45057   7.729   5.096   6.482  1.0714  0.9062  0.6524
  334MOL0     H45058   7.601   5.317   6.415  2.1200 -0.8813  1.1946
  334MOL0     H45059   7.570   5.223   6.263  0.5550 -1.8173 -0.3784
  334MOL0     H45060   7.505   5.164   6.568  1.3544 -1.5866  0.2827
  334MOL0     H45061   7.477   5.042   6.446 -0.5550 -0.4311  0.8970
  334MOL0     H45062   7.376   5.325   6.452  2.4370 -0.3333  0.7081
  334MOL0     H45063   7.316   5.194   6.345  3.6585 -1.3253 -0.7059
  334MOL0     H45064   7.171   5.272   6.536  0.8053  1.1285  0.8329
  334MOL0     H45065   7.284   5.228   6.658 -1.0027  1.5883 -0.3551
  334MOL0     H45066   7.187   5.017   6.457 -2.6988  5.1257 -2.1863
  334MOL0     H45067   7.253   4.993   6.618  0.5882 -1.6529 -2.3518
  334MOL0     H45068   7.034   5.121   6.706 -0.7954 -0.2662  0.6128
  334MOL0     H45069   7.032   4.954   6.655  0.6579 -0.5850 -3.5308
  334MOL0     H45070   6.951   5.024   6.428  1.5426 -1.8801  1.5817
  334MOL0     H45071   6.976   5.197   6.485  2.9645 -0.4404  1.8462
  334MOL0     H45072   8.039   5.382   6.330 -0.8876 -0.3898 -1.7583
  334MOL0     H45073   8.253   5.337   6.360 -0.5888  1.5908 -0.0772
  334MOL0     H45074   8.525   5.079   6.615 -0.1160  1.7008 -0.8207
  334MOL0     H45075   8.741   5.037   6.724  0.5159  1.9213  0.2777
  334MOL0     H45076  10.778   4.709   6.407  0.7119 -0.0425 -0.0792
  334MOL0     H45077  11.016   4.659   6.394 -1.1420  1.0294  1.7623
  334MOL0     H45078  11.332   4.569   6.431 -0.4046 -1.6612 -0.4696
  334MOL0     H45079  11.582   4.616   6.439 -0.0782 -0.3742  0.1766
  334MOL0     H45080  11.843   4.301   6.284  1.8609  0.6459  0.4841
  334MOL0     H45081  11.824   4.399   6.130 -0.4985  0.3176 -0.2210
  334MOL0     H45082  12.013   4.553   6.209  1.1465 -0.1287  1.6397
  334MOL0     H45083  12.047   4.393   6.137 -1.5542 -0.3484 -0.2672
  334MOL0     H45084  12.059   4.290   6.367 -0.3670  1.3857  0.5439
  334MOL0     H45085  12.066   4.446   6.439 -2.9904  0.0397 -0.4876
  334MOL0     H45086  12.267   4.510   6.299  0.2406 -0.0496  0.7792
  334MOL0     H45087  12.288   4.341   6.244 -1.6706 -2.6363  0.9836
  334MOL0     H45088  12.354   4.278   6.654  2.1303  0.0427 -1.0497
  334MOL0     H45089  11.638   4.283   6.158  1.8833  0.3884  1.9278
  334MOL0     H45090  11.400   4.243   6.158 -0.1852  0.3207 -0.8741
  335MOL0     O45091   6.100   7.093  10.677 -0.2535  0.0494 -0.2694
  335MOL0     C45092   6.014   7.154  10.620 -0.1359 -0.0368  0.2217
  335MOL0     O45093   6.018   7.182  10.486 -1.0628 -0.6018  0.0140
  335MOL0     C45094   6.121   7.137  10.418  0.0838  1.0366 -0.4385
  335MOL0     C45095   6.245   7.212  10.400 -0.1617  0.0277 -0.2497
  335MOL0     C45096   6.357   7.137  10.347  0.3811 -0.3546  0.1689
  335MOL0     C45097   6.357   7.008  10.313  0.8875 -0.0509 -0.5914
  335MOL0     O45098   6.469   6.944  10.265 -0.3688  0.5165  0.2165
  335MOL0     C45099   6.547   6.871  10.374  0.0643 -0.3074  0.6174
  335MOL0     C45100   6.654   6.785  10.315 -0.3165 -0.4832 -0.4056
  335MOL0     C45101   6.599   6.673  10.236  0.0538  0.8310 -0.1329
  335MOL0     C45102   6.575   6.543  10.317 -0.0023 -0.1398 -0.3886
  335MOL0     C45103   6.523   6.425  10.244 -0.7771  0.6003  0.2089
  335MOL0     C45104   6.368   6.424  10.236 -0.2512 -0.2585  0.0015
  335MOL0     C45105   6.309   6.329  10.137  0.2530  0.3662  0.4207
  335MOL0     C45106   6.329   6.378   9.993 -0.3737 -0.1613 -0.3467
  335MOL0     N45107   6.265   6.273   9.907 -0.1844 -0.5634  0.2990
  335MOL0     C45108   6.134   6.247   9.893 -0.3694  1.1115 -0.0874
  335MOL0     C45109   6.120   6.153   9.798  1.0384 -0.5406 -0.5701
  335MOL0     C45110   6.002   6.092   9.729 -0.1983  0.3998  0.3131
  335MOL0     C45111   5.891   6.059   9.827 -0.2472  0.0783  0.0067
  335MOL0     C45112   5.765   6.016   9.753 -0.2112 -0.1186 -0.2610
  335MOL0     C45113   5.663   6.016   9.867 -0.1356  0.8702 -0.2275
  335MOL0     O45114   5.531   5.979   9.811  0.0679 -0.0897 -0.1981
  335MOL0     C45115   5.428   5.961   9.898 -0.7711  0.3758 -0.1621
  335MOL0     C45116   5.437   5.967  10.036  0.7725  0.0820 -0.4728
  335MOL0     C45117   5.323   5.928  10.113  0.5006 -0.3582  0.3399
  335MOL0     C45118   5.341   5.928  10.267  0.8758 -0.5300  0.3770
  335MOL0     C45119   5.199   5.895  10.047  0.3378  0.4338 -0.4813
  335MOL0     C45120   5.073   5.848  10.121 -0.4315 -0.3120  0.7474
  335MOL0     O45121   4.963   5.805  10.052  0.8607  0.0982 -0.4364
  335MOL0     C45122   4.835   5.797  10.112 -0.3363  0.1928 -0.4195
  335MOL0     C45123   4.809   5.715  10.226 -0.5855 -0.1849 -0.4040
  335MOL0     C45124   4.678   5.711  10.286 -0.0962 -0.2304 -0.2494
  335MOL0     C45125   4.579   5.800  10.245 -0.7717  0.7371 -0.3550
  335MOL0     O45126   4.465   5.832  10.309 -0.1552 -0.4767 -0.2276
  335MOL0     C45127   4.408   5.730  10.401  0.3821 -1.0995  1.0932
  335MOL0     C45128   4.279   5.780  10.473 -0.1779 -0.1187  0.3153
  335MOL0     C45129   4.167   5.796  10.361  0.3728 -0.1501 -0.3569
  335MOL0     C45130   4.056   5.876  10.412  0.2269 -0.0138  0.1335
  335MOL0     C45131   3.931   5.876  10.326 -0.1228 -0.2731 -0.4369
  335MOL0     C45132   3.814   5.956  10.392 -0.5280 -0.6325 -0.8314
  335MOL0     C45133   3.701   5.867  10.440  0.0706 -0.4056 -0.4117
  335MOL0     C45134   3.607   5.942  10.537 -0.8932  0.9188  0.1580
  335MOL0    Cl45135   3.468   5.840  10.591 -0.1599  0.6415 -0.4068
  335MOL0     C45136   4.610   5.887  10.148 -0.4143 -0.3857  0.7377
  335MOL0     C45137   4.729   5.880  10.071 -0.4531  0.0698 -0.0874
  335MOL0     O45138   5.071   5.876  10.242 -0.2966 -0.5298  0.6209
  335MOL0     C45139   5.194   5.902   9.907  0.8515  0.0780 -0.5263
  335MOL0     C45140   5.306   5.933   9.833  0.3477 -0.6456 -0.1782
  335MOL0     N45141   6.248   6.111   9.771 -1.0107  0.4526  0.0050
  335MOL0     N45142   6.334   6.196   9.818 -0.3218 -0.0172 -0.4987
  335MOL0     C45143   6.242   6.934  10.338  0.3542 -0.4328  0.9942
  335MOL0     C45144   6.123   7.002  10.392 -1.2150  0.2385  0.6778
  335MOL0     C45145   5.906   7.213  10.702  0.3372 -0.0994 -0.9444
  335MOL0     C45146   5.910   7.213  10.840 -0.0775  0.0479 -0.6849
  335MOL0     C45147   5.798   7.264  10.914 -0.0375 -0.6189 -1.0582
  335MOL0     C45148   5.684   7.313  10.847  0.3722  0.3251  0.5505
  335MOL0     O45149   5.600   7.371  10.931  0.3601  0.7776 -0.1574
  335MOL0     C45150   5.476   7.423  10.877  0.3399  0.1421 -0.8151
  335MOL0     C45151   5.491   7.577  10.867  0.5465  0.7249 -0.9330
  335MOL0     C45152   5.479   7.631  11.006  1.0718  0.2251  0.3974
  335MOL0     C45153   5.531   7.774  11.000  1.0449 -0.7380 -0.6077
  335MOL0     C45154   5.519   7.843  11.130  0.5844 -0.1118  0.4963
  335MOL0     C45155   5.509   7.880  11.248 -0.1541 -0.7389  0.0680
  335MOL0     C45156   5.687   7.319  10.706  0.6401  0.4086  0.3189
  335MOL0     C45157   5.793   7.266  10.642  0.0228  0.0271  0.0530
  335MOL0     H45158   6.263   7.315  10.426  1.3514 -0.0864 -0.7179
  335MOL0     H45159   6.446   7.188  10.313 -1.2564  2.0041 -0.9180
  335MOL0     H45160   6.587   6.943  10.445 -0.9790 -2.1498  3.2070
  335MOL0     H45161   6.479   6.802  10.425  1.5669 -2.9778 -0.7211
  335MOL0     H45162   6.723   6.852  10.263 -0.0247 -0.9404 -0.6144
  335MOL0     H45163   6.712   6.753  10.403 -0.3838  0.2429 -0.0876
  335MOL0     H45164   6.510   6.709  10.185 -0.6772  1.5848  1.5843
  335MOL0     H45165   6.669   6.635  10.161  1.7789  1.9657  0.8197
  335MOL0     H45166   6.660   6.507  10.376 -0.6514  2.0047  2.0768
  335MOL0     H45167   6.494   6.576  10.383 -0.0251 -0.0411 -0.4652
  335MOL0     H45168   6.572   6.426  10.146 -1.0668 -1.8206 -0.0178
  335MOL0     H45169   6.544   6.328  10.290  0.9701  0.0072 -1.6932
  335MOL0     H45170   6.327   6.412  10.337 -2.5191 -0.4222 -0.8987
  335MOL0     H45171   6.323   6.519  10.205  1.1526  0.0353 -1.2290
  335MOL0     H45172   6.353   6.229  10.149 -0.7399 -0.3319 -1.3274
  335MOL0     H45173   6.201   6.320  10.151 -0.0276  2.8701  0.1945
  335MOL0     H45174   6.432   6.379   9.958  0.0501  1.3533  0.8361
  335MOL0     H45175   6.276   6.470   9.970  0.1432  0.3076  0.2832
  335MOL0     H45176   6.050   6.305   9.931 -0.9138  0.7616 -0.7401
  335MOL0     H45177   5.967   6.167   9.658 -1.8762 -0.3331  0.3330
  335MOL0     H45178   6.025   5.996   9.684  1.2366  0.7081  0.3195
  335MOL0     H45179   5.867   6.146   9.890  0.1173  0.1849  0.0015
  335MOL0     H45180   5.919   5.971   9.885 -3.4406 -1.1656 -0.1613
  335MOL0     H45181   5.780   5.916   9.712 -0.1709 -0.2453  0.0615
  335MOL0     H45182   5.744   6.094   9.678  0.8500 -0.1609 -0.6234
  335MOL0     H45183   5.651   6.116   9.909 -1.2241  1.1061 -1.0583
  335MOL0     H45184   5.693   5.933   9.932 -0.1451  1.2752  0.3020
  335MOL0     H45185   5.532   5.980  10.087 -0.2014  2.2704  0.9602
  335MOL0     H45186   5.274   5.998  10.318 -0.5704  0.2347 -2.3873
  335MOL0     H45187   5.315   5.823  10.286 -0.6273 -0.8110 -2.5883
  335MOL0     H45188   5.442   5.956  10.299  0.1001  0.5582  2.0468
  335MOL0     H45189   4.885   5.652  10.272  0.2888  0.3731 -1.0551
  335MOL0     H45190   4.655   5.657  10.378 -1.3195  3.0211  1.5102
  335MOL0     H45191   4.386   5.647  10.333  1.4336  0.9194 -1.8877
  335MOL0     H45192   4.477   5.700  10.480  1.6992 -0.3776  0.2533
  335MOL0     H45193   4.247   5.711  10.553  0.3608 -0.1597  0.5024
  335MOL0     H45194   4.302   5.876  10.520  2.7781  0.0622 -1.2793
  335MOL0     H45195   4.139   5.703  10.309 -2.4861  1.4505 -1.9434
  335MOL0     H45196   4.191   5.865  10.279 -0.1066  3.9063  2.6366
  335MOL0     H45197   4.040   5.828  10.509 -2.2671  0.6527  0.1267
  335MOL0     H45198   4.085   5.982  10.417 -0.0694  0.1128 -0.6829
  335MOL0     H45199   3.895   5.777  10.296  2.2159 -1.4175  0.2579
  335MOL0     H45200   3.972   5.913  10.232  3.0041 -0.7991  0.5939
  335MOL0     H45201   3.857   6.013  10.474  2.2949 -0.7034 -2.1495
  335MOL0     H45202   3.777   6.026  10.317 -1.8248 -0.7308 -0.3006
  335MOL0     H45203   3.750   5.784  10.492  0.8283 -1.9946 -3.4020
  335MOL0     H45204   3.648   5.821  10.356 -2.1803  0.4773  0.4571
  335MOL0     H45205   3.574   6.035  10.488 -0.6639  0.9374  0.0392
  335MOL0     H45206   3.660   5.956  10.631 -0.6709  0.6193  0.0761
  335MOL0     H45207   4.539   5.955  10.103  0.3351 -1.0091 -1.5178
  335MOL0     H45208   4.755   5.944   9.987  0.8713 -0.6551 -0.2623
  335MOL0     H45209   5.098   5.892   9.857 -0.2756  0.3451  1.4542
  335MOL0     H45210   5.315   5.940   9.725  3.0730  2.0487  0.0579
  335MOL0     H45211   6.255   6.829  10.311  2.1750 -1.0371  3.8869
  335MOL0     H45212   6.030   6.945  10.399  0.1506 -2.2851 -0.4325
  335MOL0     H45213   6.001   7.178  10.889 -0.2642  2.1673  1.2977
  335MOL0     H45214   5.801   7.284  11.020  2.6396  1.5194 -1.4546
  335MOL0     H45215   5.454   7.365  10.787  1.4030 -2.1032  0.2948
  335MOL0     H45216   5.390   7.413  10.944 -0.5348  2.0445 -1.5859
  335MOL0     H45217   5.414   7.618  10.801  1.4794  1.2925 -1.6985
  335MOL0     H45218   5.590   7.607  10.830  0.6347  2.0105  0.2636
  335MOL0     H45219   5.553   7.571  11.059  0.0555 -0.0975  1.5210
  335MOL0     H45220   5.374   7.624  11.038  1.1508  0.6975  0.7756
  335MOL0     H45221   5.485   7.832  10.919  0.7477  1.5403  1.0987
  335MOL0     H45222   5.639   7.766  10.982  1.0588  3.1259 -3.3344
  335MOL0     H45223   5.505   7.920  11.347 -0.4918  0.7533 -0.5029
  335MOL0     H45224   5.621   7.380  10.646  0.6656 -0.2377 -0.3957
  335MOL0     H45225   5.798   7.280  10.535  0.3235 -0.5308 -0.0096
  336MOL0     O45226   6.772   9.392   1.714  0.0083 -0.1993  0.0336
  336MOL0     C45227   6.743   9.504   1.756 -0.3220 -0.2286  0.2762
  336MOL0     O45228   6.656   9.527   1.862 -0.0193 -0.3865  0.1507
  336MOL0     C45229   6.585   9.421   1.912  0.8846 -1.0934 -0.4203
  336MOL0     C45230   6.626   9.350   2.029 -0.5238 -0.5995 -0.3648
  336MOL0     C45231   6.547   9.244   2.077 -0.0312  0.1382  0.4794
  336MOL0     C45232   6.433   9.197   2.007  0.4294  0.4803 -0.3882
  336MOL0     O45233   6.347   9.087   2.052  0.7645 -1.1313 -0.1847
  336MOL0     C45234   6.227   9.039   1.991  0.4944  0.2582  0.4622
  336MOL0     C45235   6.157   8.927   2.073  0.1103 -0.5268 -0.5031
  336MOL0     C45236   6.029   8.877   2.017  0.1059  0.3147  0.2261
  336MOL0     C45237   5.906   8.976   2.026  0.0389 -0.7987  0.1944
  336MOL0     C45238   5.776   8.896   2.050 -0.1330 -0.3951 -0.9096
  336MOL0     C45239   5.738   8.802   1.940 -1.0043  0.4864 -0.0940
  336MOL0     C45240   5.601   8.731   1.951  0.3473 -0.1764 -0.2606
  336MOL0     C45241   5.486   8.824   1.931 -0.1856  0.3553  0.3095
  336MOL0     N45242   5.361   8.747   1.936 -0.0518 -0.0887  0.2580
  336MOL0     C45243   5.284   8.720   1.826 -0.0481  0.0435 -0.3499
  336MOL0     C45244   5.180   8.633   1.869 -0.1671 -0.7365  0.0614
  336MOL0     C45245   5.065   8.567   1.796  0.2819  0.5670 -0.1153
  336MOL0     C45246   4.976   8.668   1.719 -0.3166  0.1387 -0.9348
  336MOL0     C45247   4.889   8.744   1.814 -0.2142 -0.1843  0.1664
  336MOL0     C45248   4.868   8.889   1.768 -0.0208 -0.5664 -0.0642
  336MOL0     O45249   4.780   8.878   1.650 -0.1068 -0.3014  0.0401
  336MOL0     C45250   4.653   8.927   1.666 -0.0943  0.0507  0.1276
  336MOL0     C45251   4.620   9.019   1.568  1.0547 -0.1415 -0.1481
  336MOL0     C45252   4.486   9.065   1.557 -0.2223 -0.1090 -0.2342
  336MOL0     C45253   4.457   9.172   1.447  0.1364 -0.1068  0.1504
  336MOL0     C45254   4.384   9.023   1.649 -0.1511 -0.7164  0.2953
  336MOL0     C45255   4.242   9.065   1.644  0.5385 -0.5521 -0.6505
  336MOL0     O45256   4.192   9.110   1.526  0.2083  0.4276 -0.8014
  336MOL0     C45257   4.080   9.199   1.514 -0.4240  0.6324  0.0552
  336MOL0     C45258   4.073   9.308   1.600  0.3808  0.2780 -0.4468
  336MOL0     C45259   3.970   9.400   1.576  0.2000  0.7383 -0.1510
  336MOL0     C45260   3.860   9.379   1.486 -0.3090 -0.0764  0.1737
  336MOL0     O45261   3.772   9.483   1.462 -0.4501 -0.1878  0.1050
  336MOL0     C45262   3.634   9.463   1.427 -0.0717 -0.6449 -0.2837
  336MOL0     C45263   3.622   9.459   1.275 -0.1195  0.2029 -0.0428
  336MOL0     C45264   3.475   9.459   1.241  0.4461  0.6850 -0.7146
  336MOL0     C45265   3.455   9.452   1.096  0.5808  0.5715  0.2084
  336MOL0     C45266   3.309   9.458   1.071  0.5981  0.1289 -0.4919
  336MOL0     C45267   3.268   9.405   0.936 -0.9677  0.6228 -0.1537
  336MOL0     C45268   3.121   9.425   0.918  0.2851  0.2065  0.0952
  336MOL0     C45269   3.078   9.368   0.783  0.6745  0.8951  0.1157
  336MOL0    Cl45270   3.097   9.188   0.788  0.2340 -0.1173 -0.0041
  336MOL0     C45271   3.872   9.260   1.408  1.4817 -0.6945 -0.0750
  336MOL0     C45272   3.981   9.175   1.421 -0.0735 -0.8182 -0.1142
  336MOL0     O45273   4.173   9.064   1.752 -0.0769  0.1459 -0.0284
  336MOL0     C45274   4.426   8.926   1.752  0.0698 -0.0107  0.0057
  336MOL0     C45275   4.558   8.885   1.756 -0.1918 -0.3402 -0.5754
  336MOL0     N45276   5.207   8.614   2.005  0.0387 -0.4013  0.2822
  336MOL0     N45277   5.298   8.694   2.045  0.6120 -0.7797  0.3694
  336MOL0     C45278   6.402   9.265   1.892 -0.0025 -0.1051  0.8897
  336MOL0     C45279   6.477   9.374   1.834 -0.2258  0.3262 -0.4201
  336MOL0     C45280   6.797   9.618   1.690  1.0543 -0.7602  0.5823
  336MOL0     C45281   6.877   9.616   1.576  0.6576  0.5633  0.5437
  336MOL0     C45282   6.916   9.722   1.492 -0.2842  0.3146  0.2669
  336MOL0     C45283   6.872   9.849   1.529 -0.0680  0.2364 -0.0814
  336MOL0     O45284   6.905   9.958   1.444 -0.2637 -0.0717 -0.7105
  336MOL0     C45285   6.847  10.083   1.470 -0.1868  0.0919 -0.8275
  336MOL0     C45286   6.936  10.175   1.561 -0.1241  0.4916  0.0355
  336MOL0     C45287   7.074  10.172   1.486  0.0469 -0.2733  0.3694
  336MOL0     C45288   7.201  10.241   1.552 -0.1462 -0.0425  0.6563
  336MOL0     C45289   7.332  10.211   1.484  0.0028 -0.2474 -0.1839
  336MOL0     C45290   7.443  10.193   1.448  0.6752 -0.0868 -0.2756
  336MOL0     C45291   6.798   9.861   1.649  0.0073 -0.2401  0.2573
  336MOL0     C45292   6.764   9.750   1.727 -0.4903  0.1878 -0.3906
  336MOL0     H45293   6.712   9.378   2.088 -0.4101  0.3815 -0.9648
  336MOL0     H45294   6.589   9.189   2.160 -0.7210 -0.1443  0.6486
  336MOL0     H45295   6.171   9.132   1.977 -2.2227 -1.3744 -0.4407
  336MOL0     H45296   6.266   8.995   1.899  1.7457  2.1349  0.0443
  336MOL0     H45297   6.232   8.848   2.074  0.3793 -0.2691 -0.4140
  336MOL0     H45298   6.153   8.962   2.176  0.4592 -1.3194 -0.2149
  336MOL0     H45299   6.035   8.842   1.913 -4.4910  0.8298 -0.4144
  336MOL0     H45300   6.008   8.787   2.074  1.5852 -0.4913 -0.4269
  336MOL0     H45301   5.921   9.043   2.111 -0.0420  0.6146 -0.8780
  336MOL0     H45302   5.914   9.041   1.939  1.2772 -1.0760  0.0830
  336MOL0     H45303   5.809   8.847   2.142  2.3941  0.3681 -1.3108
  336MOL0     H45304   5.698   8.968   2.076  0.8709  0.2767  0.4136
  336MOL0     H45305   5.737   8.853   1.843  0.3265 -0.2870 -0.5402
  336MOL0     H45306   5.821   8.732   1.932 -0.9852  0.3716  0.9397
  336MOL0     H45307   5.594   8.640   1.891 -3.0380 -1.3468  1.6259
  336MOL0     H45308   5.593   8.701   2.056  2.1886  2.8134  0.8573
  336MOL0     H45309   5.493   8.882   1.839 -4.9155  0.7941 -0.0052
  336MOL0     H45310   5.481   8.900   2.010  1.1130  0.8177 -0.0330
  336MOL0     H45311   5.300   8.764   1.728  2.6265  1.1885  0.4958
  336MOL0     H45312   5.084   8.485   1.726 -1.2572  2.1132 -2.5222
  336MOL0     H45313   5.008   8.511   1.870  1.6218 -2.6228 -1.3231
  336MOL0     H45314   4.917   8.616   1.643 -0.5240  0.5386 -1.0505
  336MOL0     H45315   5.038   8.746   1.672  1.4887 -0.1421  0.8443
  336MOL0     H45316   4.941   8.760   1.909  3.2660  1.9990 -1.8918
  336MOL0     H45317   4.801   8.680   1.825  0.9218 -2.2440 -1.8414
  336MOL0     H45318   4.955   8.953   1.748 -0.4951  0.6200  1.4976
  336MOL0     H45319   4.823   8.928   1.859  2.1216  2.3256 -0.1253
  336MOL0     H45320   4.697   9.061   1.505  1.0175  1.7817  0.9955
  336MOL0     H45321   4.413   9.120   1.362  0.4492  3.4431 -2.4432
  336MOL0     H45322   4.392   9.254   1.481 -0.4297 -0.9870  1.2565
  336MOL0     H45323   4.548   9.220   1.411 -0.4907  0.7794 -0.2874
  336MOL0     H45324   4.141   9.312   1.684  0.1528  1.9401 -0.3136
  336MOL0     H45325   3.966   9.494   1.631 -1.8532  0.3452  0.4470
  336MOL0     H45326   3.591   9.377   1.481  1.8327  0.2561  2.9600
  336MOL0     H45327   3.574   9.548   1.461  0.5663 -0.0469 -0.6464
  336MOL0     H45328   3.669   9.549   1.234 -0.5492 -0.7346 -2.7834
  336MOL0     H45329   3.671   9.373   1.229 -0.9263 -0.3881  0.1832
  336MOL0     H45330   3.431   9.545   1.292  3.1969  1.9264 -0.2982
  336MOL0     H45331   3.430   9.366   1.277  1.9326 -0.1036 -0.8330
  336MOL0     H45332   3.506   9.537   1.048 -0.1957  0.4259 -0.8978
  336MOL0     H45333   3.509   9.372   1.045  1.4175  0.6513  0.9501
  336MOL0     H45334   3.280   9.562   1.087 -0.3293 -0.0616 -0.8462
  336MOL0     H45335   3.257   9.400   1.147  0.6459 -1.3467 -1.5434
  336MOL0     H45336   3.316   9.462   0.856  2.3893 -2.3127 -0.5131
  336MOL0     H45337   3.304   9.303   0.917  3.2719  2.1977 -1.7704
  336MOL0     H45338   3.094   9.531   0.919  0.4992  0.3945 -3.0582
  336MOL0     H45339   3.073   9.364   0.995  3.2206 -2.4384  0.0490
  336MOL0     H45340   3.137   9.406   0.699 -0.2994 -1.9351 -1.9631
  336MOL0     H45341   2.976   9.405   0.772  0.7645  1.1045 -0.0162
  336MOL0     H45342   3.794   9.226   1.341 -0.9819  2.5787  0.8659
  336MOL0     H45343   3.988   9.091   1.352 -2.0119  0.5501 -2.1207
  336MOL0     H45344   4.358   8.883   1.825  0.2525  2.8071  2.0230
  336MOL0     H45345   4.579   8.817   1.838  0.4112 -0.6662 -0.9975
  336MOL0     H45346   6.311   9.242   1.838  0.3673 -1.0124  0.6367
  336MOL0     H45347   6.443   9.412   1.738 -1.5110  0.1269 -0.0598
  336MOL0     H45348   6.910   9.514   1.556 -2.0611 -0.5698  1.4076
  336MOL0     H45349   6.980   9.706   1.406  1.1644  1.0372  1.1542
  336MOL0     H45350   6.827  10.137   1.376 -0.1334  3.9574  1.1947
  336MOL0     H45351   6.748  10.066   1.513 -0.1183  1.7013  0.0439
  336MOL0     H45352   6.957  10.139   1.662  2.7574  0.0762 -0.6101
  336MOL0     H45353   6.899  10.278   1.571 -2.0039 -0.2254  0.8363
  336MOL0     H45354   7.064  10.206   1.382 -2.7593  1.7456  1.1811
  336MOL0     H45355   7.109  10.069   1.492  1.1954  0.0915  0.1863
  336MOL0     H45356   7.217  10.198   1.651  0.3242  1.8998  1.4592
  336MOL0     H45357   7.180  10.348   1.562 -2.2235 -0.5187  1.9689
  336MOL0     H45358   7.543  10.189   1.409 -0.0360  0.9244 -2.3545
  336MOL0     H45359   6.781   9.958   1.696  0.9546 -0.1945  0.5184
  336MOL0     H45360   6.718   9.770   1.824 -2.5053  2.9179 -1.7730
  337MOL0     O45361   4.842   8.288   1.002  0.2580 -0.0437  0.2098
  337MOL0     C45362   4.798   8.404   0.981 -0.0114  0.4099  0.2789
  337MOL0     O45363   4.666   8.441   0.987 -0.1509  0.1355 -0.5269
  337MOL0     C45364   4.564   8.352   1.009  0.0041  0.2025  0.8516
  337MOL0     C45365   4.544   8.230   0.946 -0.3764 -0.3063  0.2149
  337MOL0     C45366   4.437   8.152   0.987  0.2462  0.3418  0.0206
  337MOL0     C45367   4.347   8.191   1.088  0.6320  0.1513 -0.1524
  337MOL0     O45368   4.243   8.101   1.127  0.2557 -0.8876 -0.3296
  337MOL0     C45369   4.148   8.082   1.024  0.0318 -0.5072  0.3134
  337MOL0     C45370   4.002   8.106   1.077  1.4968  0.0094 -0.2038
  337MOL0     C45371   3.892   8.090   0.969  0.3795 -0.2931 -0.3139
  337MOL0     C45372   3.759   8.125   1.045  0.5827 -0.0406 -0.0717
  337MOL0     C45373   3.652   8.058   0.957  0.6588 -0.2309 -0.3581
  337MOL0     C45374   3.522   8.115   0.997  0.4290 -0.2927  0.2035
  337MOL0     C45375   3.394   8.057   0.927 -0.3594  1.0764 -0.5252
  337MOL0     C45376   3.370   8.118   0.794 -0.0535  0.1605 -0.3062
  337MOL0     N45377   3.357   8.264   0.794 -0.4087  0.4299  0.5154
  337MOL0     C45378   3.457   8.346   0.765 -0.4262  0.0015  0.2769
  337MOL0     C45379   3.409   8.473   0.772 -0.6799 -0.9122  0.2454
  337MOL0     C45380   3.480   8.598   0.753  0.3632  0.3526 -0.3838
  337MOL0     C45381   3.413   8.691   0.650 -0.0997  0.2213  0.5839
  337MOL0     C45382   3.469   8.831   0.652 -0.1429 -1.0254  0.2406
  337MOL0     C45383   3.419   8.926   0.550 -0.1365  0.3189  0.1003
  337MOL0     O45384   3.278   8.952   0.560  0.3838 -0.1925 -0.8248
  337MOL0     C45385   3.193   8.921   0.458  0.3640 -0.4345  0.1401
  337MOL0     C45386   3.226   8.921   0.325  0.3277 -0.6711  0.4571
  337MOL0     C45387   3.121   8.904   0.230 -0.6012 -0.5711 -0.2666
  337MOL0     C45388   3.171   8.886   0.081  0.4474 -0.3162 -0.4072
  337MOL0     C45389   2.986   8.897   0.266  0.1271  0.2675  0.4101
  337MOL0     C45390   2.867   8.895   0.170  0.2894  0.0708  0.0575
  337MOL0     O45391   2.741   8.869   0.221 -0.5914  0.3321  0.3463
  337MOL0     C45392   2.638   8.889   0.130  0.4518 -0.7956  0.8362
  337MOL0     C45393   2.559   8.997   0.127  0.8732  0.0961  0.7204
  337MOL0     C45394   2.465   9.018   0.023 -0.2998  0.2891  0.1558
  337MOL0     C45395   2.452   8.926  -0.083 -0.6899 -0.7382 -0.4495
  337MOL0     O45396   2.355   8.957  -0.177 -0.6799  0.4947  0.1180
  337MOL0     C45397   2.349   8.878  -0.296 -1.5330  0.2260 -0.3156
  337MOL0     C45398   2.289   8.964  -0.410  0.4144  0.1085  0.9875
  337MOL0     C45399   2.142   8.998  -0.374 -0.3168 -0.9749  0.2435
  337MOL0     C45400   2.055   9.017  -0.495  0.1116  0.2757  0.0323
  337MOL0     C45401   1.910   9.054  -0.468 -0.4196 -0.2519  0.4155
  337MOL0     C45402   1.826   9.075  -0.595  0.2340 -0.4931  0.0124
  337MOL0     C45403   1.680   9.102  -0.577  0.3855  0.6863  0.1768
  337MOL0     C45404   1.587   9.002  -0.640  0.3110  0.2173 -0.2451
  337MOL0    Cl45405   1.423   9.073  -0.666  0.3894 -0.2744  0.5297
  337MOL0     C45406   2.517   8.806  -0.070 -0.0662 -0.1481 -0.4094
  337MOL0     C45407   2.607   8.787   0.038 -0.0056 -0.5944 -0.6772
  337MOL0     O45408   2.889   8.914   0.046 -0.0629 -0.4120 -0.4465
  337MOL0     C45409   2.957   8.902   0.400 -0.5156 -0.4202 -0.5129
  337MOL0     C45410   3.059   8.909   0.493 -0.4725  0.2510 -0.7307
  337MOL0     N45411   3.271   8.460   0.796  0.0233  0.4178 -0.0963
  337MOL0     N45412   3.245   8.337   0.804  0.4531 -0.0837 -0.3938
  337MOL0     C45413   4.350   8.319   1.129  0.0143  0.5805 -1.0130
  337MOL0     C45414   4.457   8.402   1.089  0.0091  0.5135 -0.1434
  337MOL0     C45415   4.893   8.510   0.947  0.4000  0.3094  0.5328
  337MOL0     C45416   5.031   8.484   0.950  0.3022  0.5535  0.6215
  337MOL0     C45417   5.118   8.585   0.933 -0.4513  0.1635  0.0140
  337MOL0     C45418   5.076   8.722   0.922  0.2079 -0.4909  0.1147
  337MOL0     O45419   5.156   8.830   0.916 -0.4679  0.0182  0.2678
  337MOL0     C45420   5.288   8.814   0.964  0.3253 -0.0288  1.1082
  337MOL0     C45421   5.368   8.943   0.960 -0.6379 -0.0996  0.3605
  337MOL0     C45422   5.507   8.930   1.009  0.1606 -0.4090 -0.1843
  337MOL0     C45423   5.515   8.906   1.159 -0.0572  1.0614 -0.7126
  337MOL0     C45424   5.650   8.875   1.212  0.3627 -0.8067 -0.3268
  337MOL0     C45425   5.765   8.857   1.249 -0.2556  0.1295  0.1733
  337MOL0     C45426   4.943   8.752   0.907 -0.1264 -0.2395 -0.0109
  337MOL0     C45427   4.855   8.644   0.924  0.5119  0.9605 -0.0586
  337MOL0     H45428   4.608   8.193   0.867 -1.0430  0.6926 -0.8357
  337MOL0     H45429   4.445   8.048   0.957 -1.5466  0.0061  0.5422
  337MOL0     H45430   4.171   8.140   0.935  0.3916 -2.3395 -0.8370
  337MOL0     H45431   4.163   7.977   0.996  0.4007 -0.5248  0.5632
  337MOL0     H45432   3.983   8.043   1.165  1.0562  1.2454  0.6061
  337MOL0     H45433   4.002   8.204   1.124 -1.0598 -0.4609  0.9455
  337MOL0     H45434   3.915   8.151   0.881 -0.8193 -1.3088 -1.3770
  337MOL0     H45435   3.883   7.986   0.937 -0.0174  0.2829 -2.2209
  337MOL0     H45436   3.750   8.081   1.145 -0.8705 -0.0346 -0.1769
  337MOL0     H45437   3.744   8.233   1.041  0.0632 -0.1148 -0.1999
  337MOL0     H45438   3.676   8.066   0.850  4.4505 -2.6100  0.1014
  337MOL0     H45439   3.653   7.950   0.976 -0.8766  0.0033  1.2814
  337MOL0     H45440   3.517   8.100   1.105 -1.3458 -0.0964  0.1750
  337MOL0     H45441   3.530   8.223   0.988 -0.7159 -0.0002  2.1009
  337MOL0     H45442   3.398   7.948   0.919 -1.1637  1.1477 -2.3503
  337MOL0     H45443   3.306   8.067   0.992 -0.8169 -2.1629 -0.4720
  337MOL0     H45444   3.277   8.083   0.748 -1.9014  0.7214  2.7352
  337MOL0     H45445   3.456   8.089   0.733  1.6820  0.6340  1.7835
  337MOL0     H45446   3.562   8.327   0.750  0.3726  1.1381  3.6839
  337MOL0     H45447   3.491   8.654   0.846  0.6137  0.9170 -0.7538
  337MOL0     H45448   3.576   8.576   0.705 -0.0508 -1.2138 -0.5542
  337MOL0     H45449   3.312   8.708   0.687 -0.0098 -0.5688  1.2185
  337MOL0     H45450   3.423   8.644   0.552  0.8055 -1.3800  1.3907
  337MOL0     H45451   3.577   8.819   0.648  0.0509  0.6719 -2.0208
  337MOL0     H45452   3.438   8.860   0.753 -1.2380 -2.0190  0.2079
  337MOL0     H45453   3.446   8.895   0.449  1.1605  0.4802  0.3780
  337MOL0     H45454   3.462   9.023   0.578 -0.9837  0.7184  0.0634
  337MOL0     H45455   3.324   8.949   0.287  0.0596  0.3976  0.5142
  337MOL0     H45456   3.127   8.796   0.038 -0.9512  0.5474 -0.8422
  337MOL0     H45457   3.131   8.968   0.021  0.9638 -1.5649 -2.5584
  337MOL0     H45458   3.280   8.889   0.076  0.7059 -1.0842  2.7855
  337MOL0     H45459   2.573   9.078   0.197  1.2570  0.0907  0.6551
  337MOL0     H45460   2.395   9.100   0.011 -1.3470 -0.2810  1.9032
  337MOL0     H45461   2.446   8.833  -0.320 -0.1809  2.0486  1.4771
  337MOL0     H45462   2.283   8.791  -0.292 -1.1630 -0.1500 -1.7121
  337MOL0     H45463   2.358   9.048  -0.424  1.5328 -0.5208  2.3809
  337MOL0     H45464   2.293   8.894  -0.493 -0.5794  2.1375 -0.8644
  337MOL0     H45465   2.135   9.086  -0.309 -2.5585 -2.0477  1.5587
  337MOL0     H45466   2.101   8.919  -0.312  0.7445 -0.5727  1.5083
  337MOL0     H45467   2.101   9.084  -0.568 -1.6131  0.2614 -1.1298
  337MOL0     H45468   2.044   8.919  -0.541  1.3335  0.2739 -0.2795
  337MOL0     H45469   1.918   9.149  -0.415 -3.0740  0.6139 -0.5687
  337MOL0     H45470   1.861   8.993  -0.391  0.4345  1.7235  2.6596
  337MOL0     H45471   1.868   9.163  -0.645  0.7144  0.0856  1.4013
  337MOL0     H45472   1.843   8.991  -0.665  3.5352 -0.9326  1.1449
  337MOL0     H45473   1.644   9.201  -0.609 -1.2519  0.1831  0.3840
  337MOL0     H45474   1.661   9.090  -0.470 -0.7809  2.0793  0.1494
  337MOL0     H45475   1.578   8.915  -0.574  0.0958  1.2288  1.0859
  337MOL0     H45476   1.626   8.966  -0.736  0.1001  1.2184 -0.7188
  337MOL0     H45477   2.489   8.727  -0.139 -0.0141  1.3540 -2.2178
  337MOL0     H45478   2.663   8.694   0.032 -0.8243 -1.2938  1.6041
  337MOL0     H45479   2.862   8.917   0.450 -0.4467 -2.6276  0.4105
  337MOL0     H45480   3.039   8.910   0.599 -1.2351  1.0273 -0.8704
  337MOL0     H45481   4.268   8.354   1.191 -0.2252  1.7295 -1.9227
  337MOL0     H45482   4.467   8.504   1.126 -2.4669  1.5812 -2.1195
  337MOL0     H45483   5.057   8.380   0.968 -0.7000  0.1545 -0.1142
  337MOL0     H45484   5.224   8.560   0.941 -0.4871 -0.6036 -1.6396
  337MOL0     H45485   5.282   8.782   1.069 -2.3015 -1.5420  0.5811
  337MOL0     H45486   5.337   8.732   0.911 -0.8706 -2.0493  2.9463
  337MOL0     H45487   5.316   9.015   1.024  0.3526  1.8259 -0.9148
  337MOL0     H45488   5.371   8.970   0.854 -0.1170 -0.8978  0.1541
  337MOL0     H45489   5.563   9.022   0.988  3.3992 -2.4122 -1.0262
  337MOL0     H45490   5.561   8.855   0.951 -0.1238 -0.5298 -0.2949
  337MOL0     H45491   5.467   8.813   1.192 -1.3048  2.5749  2.1073
  337MOL0     H45492   5.467   8.990   1.211  2.7546  1.9852  0.5527
  337MOL0     H45493   5.862   8.825   1.281  0.1177  0.7797 -0.2853
  337MOL0     H45494   4.906   8.854   0.897  0.9423  0.4791  2.6142
  337MOL0     H45495   4.748   8.663   0.913  0.5498  3.2639  2.6490
  338MOL0     O45496   8.276   3.155   9.787  0.2501 -0.0673 -0.8595
  338MOL0     C45497   8.355   3.247   9.811 -0.9307 -0.5562  0.5588
  338MOL0     O45498   8.326   3.384   9.817 -0.2873 -0.0851  0.4953
  338MOL0     C45499   8.197   3.423   9.805  0.1958  0.3798 -0.5564
  338MOL0     C45500   8.172   3.536   9.728 -0.0745 -0.3299  0.2024
  338MOL0     C45501   8.046   3.570   9.700  0.5610 -0.2800  0.4679
  338MOL0     C45502   7.939   3.527   9.783 -0.1648  0.4256  0.5878
  338MOL0     O45503   7.810   3.575   9.784  0.1597 -0.6678  0.2672
  338MOL0     C45504   7.773   3.642   9.664 -0.0426  0.3769  0.1082
  338MOL0     C45505   7.634   3.704   9.656 -0.0686  0.0652  0.9907
  338MOL0     C45506   7.518   3.607   9.679 -0.4361  0.5601  0.1425
  338MOL0     C45507   7.386   3.678   9.708  0.2091  0.3441 -0.1059
  338MOL0     C45508   7.258   3.595   9.684  0.7105  0.5156  0.0949
  338MOL0     C45509   7.216   3.568   9.543  0.4729  0.3476  0.0544
  338MOL0     C45510   7.063   3.539   9.544  0.2140  0.1438 -0.0960
  338MOL0     C45511   7.022   3.408   9.619 -0.6419  0.4992  0.6240
  338MOL0     N45512   6.877   3.386   9.618 -0.5841  0.6038 -0.8199
  338MOL0     C45513   6.781   3.435   9.699 -0.5113  0.4405 -0.9505
  338MOL0     C45514   6.668   3.373   9.659 -0.8651 -0.2681  0.6413
  338MOL0     C45515   6.535   3.397   9.709 -0.4073 -0.3374 -0.8790
  338MOL0     C45516   6.462   3.506   9.631 -0.4609 -0.0843 -0.3547
  338MOL0     C45517   6.337   3.554   9.702 -0.3754 -0.3100 -0.1054
  338MOL0     C45518   6.211   3.455   9.687  0.0423  0.4533  0.5429
  338MOL0     O45519   6.092   3.515   9.736  0.5645 -0.3467  0.0289
  338MOL0     C45520   5.973   3.449   9.741  0.8045 -0.1430 -0.3816
  338MOL0     C45521   5.938   3.330   9.676 -0.2164 -0.4600 -0.0852
  338MOL0     C45522   5.803   3.287   9.658 -1.0544  0.7199 -0.0924
  338MOL0     C45523   5.782   3.158   9.580 -0.0056  0.7714  0.1317
  338MOL0     C45524   5.689   3.365   9.707 -0.6945  0.3679  0.0480
  338MOL0     C45525   5.546   3.322   9.711  0.5506 -0.7987 -0.3483
  338MOL0     O45526   5.454   3.413   9.755  0.3107  0.5521  0.2588
  338MOL0     C45527   5.318   3.400   9.757  0.7159 -0.8385 -0.4626
  338MOL0     C45528   5.230   3.300   9.711  0.5669 -0.1485  0.4206
  338MOL0     C45529   5.090   3.303   9.723  0.1460 -0.0870  0.5611
  338MOL0     C45530   5.031   3.412   9.789 -0.4753  0.8620 -0.1078
  338MOL0     O45531   4.896   3.439   9.801  0.0604  0.1085  0.0894
  338MOL0     C45532   4.811   3.323   9.795  0.0422  0.3200 -0.4861
  338MOL0     C45533   4.677   3.359   9.849 -0.3030  0.9133 -0.9091
  338MOL0     C45534   4.576   3.259   9.794  0.5710  0.3905 -0.3954
  338MOL0     C45535   4.447   3.265   9.882 -1.1640 -0.5206  0.1436
  338MOL0     C45536   4.352   3.156   9.854 -0.2748  0.5423  0.3873
  338MOL0     C45537   4.208   3.179   9.900 -0.0184 -0.2692 -0.3490
  338MOL0     C45538   4.124   3.056   9.880  0.7764  0.5513 -0.7009
  338MOL0     C45539   4.065   3.049   9.742  0.2996 -0.3273 -0.3049
  338MOL0    Cl45540   3.940   3.175   9.707 -0.3706 -0.1700  0.2490
  338MOL0     C45541   5.114   3.512   9.845 -0.6481 -0.2672 -0.4806
  338MOL0     C45542   5.251   3.506   9.832  0.0633 -0.1196  0.6150
  338MOL0     O45543   5.518   3.211   9.675 -0.4439  0.8725 -0.0324
  338MOL0     C45544   5.725   3.473   9.791  1.0619  0.6176 -0.7135
  338MOL0     C45545   5.861   3.515   9.812 -0.3342  0.3251  0.3784
  338MOL0     N45546   6.692   3.302   9.551  0.0259  0.9703 -0.0058
  338MOL0     N45547   6.814   3.296   9.530 -0.4142  0.2427  0.2550
  338MOL0     C45548   7.962   3.425   9.873 -0.6341  0.6448 -0.5811
  338MOL0     C45549   8.086   3.367   9.878  0.4756 -0.6791 -0.4267
  338MOL0     C45550   8.492   3.198   9.851 -0.0405  0.0428 -0.0044
  338MOL0     C45551   8.504   3.087   9.940 -0.2060 -0.0937 -0.0670
  338MOL0     C45552   8.626   3.042   9.992 -1.1006 -0.6907 -0.5787
  338MOL0     C45553   8.749   3.100   9.941 -0.2694 -0.5305 -0.0903
  338MOL0     O45554   8.872   3.055   9.980  0.0142  0.7041  0.1188
  338MOL0     C45555   9.000   3.122   9.966  0.6753 -0.4530 -0.6653
  338MOL0     C45556   9.104   3.027  10.026  0.1637 -0.7083  0.8764
  338MOL0     C45557   9.233   3.106  10.035 -0.6129 -0.9858  0.1489
  338MOL0     C45558   9.343   3.027  10.107 -0.5423  0.4208 -0.2231
  338MOL0     C45559   9.480   3.085  10.119 -0.1828  0.5921  0.9052
  338MOL0     C45560   9.586   3.122  10.158 -0.3291  0.5431 -0.2614
  338MOL0     C45561   8.749   3.206   9.855  0.2671 -0.1618  0.5348
  338MOL0     C45562   8.617   3.253   9.812 -0.5410 -0.6826  0.2957
  338MOL0     H45563   8.256   3.579   9.673 -1.2513  1.3988 -0.3182
  338MOL0     H45564   8.039   3.641   9.619  0.6943  0.2582  0.9214
  338MOL0     H45565   7.843   3.725   9.650  1.2718 -0.6505  0.4101
  338MOL0     H45566   7.786   3.563   9.589 -0.1961 -0.8800  1.3720
  338MOL0     H45567   7.628   3.786   9.728 -0.1325  0.3041  0.7150
  338MOL0     H45568   7.626   3.748   9.556 -1.5061 -1.1723  0.5226
  338MOL0     H45569   7.504   3.551   9.587 -1.5546 -0.4765  0.9111
  338MOL0     H45570   7.538   3.544   9.766 -2.7109 -0.0038  0.3154
  338MOL0     H45571   7.392   3.717   9.810 -0.8323  1.1121 -0.3255
  338MOL0     H45572   7.375   3.767   9.644  1.3552 -0.0351 -0.8619
  338MOL0     H45573   7.256   3.504   9.745 -0.1413  0.1882 -0.4048
  338MOL0     H45574   7.184   3.669   9.716  1.8435  1.7825 -0.1288
  338MOL0     H45575   7.240   3.652   9.477 -3.9690  0.5944 -1.6321
  338MOL0     H45576   7.275   3.487   9.500 -3.1244 -0.1449 -4.9011
  338MOL0     H45577   7.005   3.630   9.563 -0.3210  0.3695 -2.5599
  338MOL0     H45578   7.024   3.519   9.444 -1.8124 -0.3522  0.7468
  338MOL0     H45579   7.060   3.418   9.721  0.2167  0.2365  0.3390
  338MOL0     H45580   7.074   3.328   9.566  1.4639  1.2348  1.4765
  338MOL0     H45581   6.799   3.505   9.781  0.8236  1.2033 -1.8553
  338MOL0     H45582   6.486   3.301   9.693  0.9829 -0.6580 -3.7466
  338MOL0     H45583   6.545   3.430   9.813 -3.6893 -0.9055 -0.2864
  338MOL0     H45584   6.448   3.473   9.527  0.1854  0.6365 -0.6785
  338MOL0     H45585   6.519   3.599   9.630 -0.8675  0.1779  0.1936
  338MOL0     H45586   6.315   3.659   9.678  2.1823  0.2602 -0.2144
  338MOL0     H45587   6.345   3.562   9.810 -2.0106 -0.0945  0.0284
  338MOL0     H45588   6.232   3.361   9.738 -0.5248 -2.7685 -4.4066
  338MOL0     H45589   6.206   3.435   9.579 -1.3419 -2.9475  1.1062
  338MOL0     H45590   6.013   3.274   9.621  1.0068  2.7123 -1.9051
  338MOL0     H45591   5.867   3.130   9.518 -1.5638 -2.5971 -0.7364
  338MOL0     H45592   5.763   3.080   9.654  0.4512  0.6519  0.1212
  338MOL0     H45593   5.698   3.158   9.509 -1.8627 -3.8894  1.9233
  338MOL0     H45594   5.278   3.224   9.651 -0.7502  1.0131 -2.2569
  338MOL0     H45595   5.034   3.223   9.678 -1.6780  1.3712  0.0911
  338MOL0     H45596   4.809   3.294   9.689  1.6239 -0.8133 -0.2413
  338MOL0     H45597   4.858   3.236   9.842 -4.4020 -1.5558  1.0261
  338MOL0     H45598   4.684   3.345   9.957  1.0712 -2.1385 -1.2763
  338MOL0     H45599   4.660   3.464   9.823  2.7825  1.5267 -0.8776
  338MOL0     H45600   4.616   3.159   9.810  0.3740  0.6235  1.9744
  338MOL0     H45601   4.547   3.289   9.693 -0.7453  1.6389  0.3248
  338MOL0     H45602   4.472   3.275   9.988  2.9881 -1.8484 -0.5290
  338MOL0     H45603   4.403   3.363   9.860 -1.2453 -0.4560  0.5722
  338MOL0     H45604   4.394   3.072   9.910  2.0976  0.7815 -0.9354
  338MOL0     H45605   4.366   3.132   9.748  1.2301  0.6771  0.5309
  338MOL0     H45606   4.207   3.209  10.005  0.9382  2.1098 -0.9583
  338MOL0     H45607   4.167   3.260   9.839  1.6574  1.4093  0.6607
  338MOL0     H45608   4.036   3.056   9.944  2.5489  1.8321  1.9474
  338MOL0     H45609   4.180   2.967   9.909  2.4471  2.1603  1.3444
  338MOL0     H45610   4.022   2.950   9.727  3.7077 -2.1467  0.8358
  338MOL0     H45611   4.143   3.056   9.666 -2.6952  0.5795 -3.5599
  338MOL0     H45612   5.071   3.587   9.910  0.4582  1.1439 -1.2949
  338MOL0     H45613   5.318   3.585   9.864  0.9471 -0.6034  0.0177
  338MOL0     H45614   5.650   3.531   9.843  1.0182  0.0463 -0.1313
  338MOL0     H45615   5.889   3.605   9.864  1.2137 -0.4750  0.9980
  338MOL0     H45616   7.880   3.386   9.933  0.0426 -1.3196 -0.8954
  338MOL0     H45617   8.102   3.291   9.953  0.6618  0.4829  0.7516
  338MOL0     H45618   8.412   3.045   9.981 -0.9374  1.1710 -0.3587
  338MOL0     H45619   8.630   2.952  10.053 -0.5309  0.0206  0.4718
  338MOL0     H45620   9.027   3.150   9.864  0.8391  1.6929 -0.0740
  338MOL0     H45621   8.997   3.207  10.034 -1.2478 -0.2328 -0.9747
  338MOL0     H45622   9.117   2.942   9.958  1.1020  1.5976 -2.0437
  338MOL0     H45623   9.068   2.989  10.122  0.6978  0.1053  1.4132
  338MOL0     H45624   9.214   3.197  10.093 -0.7910  1.3545 -3.2549
  338MOL0     H45625   9.267   3.134   9.935  3.8275  0.7515  1.9101
  338MOL0     H45626   9.343   2.934  10.050  1.1705 -0.0374  0.4750
  338MOL0     H45627   9.313   3.009  10.211  1.4438 -2.7450 -0.0696
  338MOL0     H45628   9.687   3.143  10.187 -0.7601  0.9769  0.9598
  338MOL0     H45629   8.836   3.261   9.822  1.7454 -2.5210  0.2183
  338MOL0     H45630   8.619   3.342   9.749  0.4890  0.0411  1.3001
  339MOL0     O45631  10.772   8.164   6.808 -0.1127  0.9606  0.2065
  339MOL0     C45632  10.778   8.086   6.716 -0.0245  0.4073 -0.4007
  339MOL0     O45633  10.685   7.995   6.673 -0.0626 -0.2244 -0.0132
  339MOL0     C45634  10.554   7.980   6.716 -0.5767  0.0169 -0.0111
  339MOL0     C45635  10.473   7.895   6.638 -0.0158  0.6346  0.7896
  339MOL0     C45636  10.344   7.865   6.674  0.1069  0.2281  1.3294
  339MOL0     C45637  10.292   7.915   6.795  0.3536 -1.0287  0.1350
  339MOL0     O45638  10.169   7.888   6.833  0.2408  0.2835 -0.7594
  339MOL0     C45639  10.121   7.754   6.822 -0.5050 -0.3786 -0.1179
  339MOL0     C45640   9.971   7.743   6.843 -0.8283 -0.4682  0.3246
  339MOL0     C45641   9.900   7.844   6.751 -0.2141  0.6127  0.3966
  339MOL0     C45642   9.843   7.961   6.837  0.4529 -0.3409  0.1890
  339MOL0     C45643   9.698   7.917   6.873  0.1758 -0.6155  0.8405
  339MOL0     C45644   9.623   8.037   6.935 -0.1969  0.0318  0.3489
  339MOL0     C45645   9.485   8.009   6.993 -0.8932  0.2172  0.2018
  339MOL0     C45646   9.374   8.015   6.891  0.0792 -0.0659 -0.1534
  339MOL0     N45647   9.244   8.031   6.959 -0.9261  1.0762 -0.1379
  339MOL0     C45648   9.199   8.151   7.001 -0.5253 -0.0053 -0.6004
  339MOL0     C45649   9.081   8.132   7.077 -0.6173 -0.2206  0.9427
  339MOL0     C45650   8.997   8.223   7.158  0.4980  0.1904 -0.0527
  339MOL0     C45651   8.847   8.194   7.114 -0.4557 -0.2959  0.1141
  339MOL0     C45652   8.812   8.226   6.975 -0.6307  0.3446  0.5560
  339MOL0     C45653   8.836   8.370   6.933  0.3890 -0.9713  0.0512
  339MOL0     O45654   8.737   8.406   6.837 -0.2180 -0.0011 -0.7252
  339MOL0     C45655   8.609   8.438   6.881  0.1291 -0.3589 -0.8426
  339MOL0     C45656   8.556   8.413   7.011  0.2211 -0.3141 -0.7438
  339MOL0     C45657   8.425   8.465   7.036  0.3226  0.8520 -0.3023
  339MOL0     C45658   8.376   8.424   7.173 -0.3965  0.0767 -0.1231
  339MOL0     C45659   8.348   8.538   6.947 -0.4290 -0.3031 -0.2662
  339MOL0     C45660   8.209   8.584   6.973 -0.1405 -0.7056  0.0604
  339MOL0     O45661   8.146   8.659   6.877 -0.3971 -0.6095  0.9793
  339MOL0     C45662   8.012   8.691   6.907 -0.4150  0.3758  0.1100
  339MOL0     C45663   7.915   8.624   6.840 -0.9487 -0.0684  0.9648
  339MOL0     C45664   7.782   8.655   6.866 -0.4813  1.0809  0.2025
  339MOL0     C45665   7.752   8.745   6.965  0.2466 -0.1571  0.0787
  339MOL0     O45666   7.626   8.752   7.012  0.2977 -0.0696 -0.2728
  339MOL0     C45667   7.511   8.762   6.925 -0.0592 -1.1562  0.2280
  339MOL0     C45668   7.515   8.891   6.842 -0.4531 -0.6477  0.1015
  339MOL0     C45669   7.425   8.878   6.716  0.3345 -0.1575  0.2443
  339MOL0     C45670   7.416   9.013   6.650 -0.0525 -0.5860 -0.1841
  339MOL0     C45671   7.547   9.083   6.623  0.0943  0.0793  0.3385
  339MOL0     C45672   7.524   9.212   6.536  1.1368  0.7157 -0.6229
  339MOL0     C45673   7.648   9.280   6.494  0.7699 -0.2961  0.0852
  339MOL0     C45674   7.606   9.383   6.389 -0.1103  0.5226 -0.2198
  339MOL0    Cl45675   7.507   9.531   6.439 -0.2206 -0.0303 -0.2354
  339MOL0     C45676   7.846   8.820   7.032 -0.2457 -0.3187  0.0904
  339MOL0     C45677   7.981   8.792   7.002 -0.7295 -0.1023  0.1843
  339MOL0     O45678   8.158   8.545   7.072  0.1581 -0.1995  0.1214
  339MOL0     C45679   8.408   8.548   6.818 -0.7282  0.0049  0.5366
  339MOL0     C45680   8.530   8.501   6.784 -0.4833 -0.2038  0.1118
  339MOL0     N45681   9.073   7.992   7.081 -0.4369 -0.6985  0.3393
  339MOL0     N45682   9.165   7.931   7.013 -0.2056 -0.4638  0.8020
  339MOL0     C45683  10.375   7.991   6.881  0.1390  0.2627  0.0326
  339MOL0     C45684  10.507   8.030   6.837 -0.1137  0.0440 -0.3255
  339MOL0     C45685  10.908   8.101   6.636  0.1969  0.3556  0.5417
  339MOL0     C45686  11.007   8.196   6.652 -0.0854 -0.0478  0.1508
  339MOL0     C45687  11.111   8.200   6.562 -0.7094  0.5880  0.2334
  339MOL0     C45688  11.129   8.102   6.465 -0.8278  0.6642  0.2197
  339MOL0     O45689  11.231   8.121   6.372 -0.0798  0.0049  0.7036
  339MOL0     C45690  11.220   8.050   6.246  0.1555 -0.3747  0.5038
  339MOL0     C45691  11.340   8.094   6.165  0.1089  0.1220 -0.2116
  339MOL0     C45692  11.361   8.000   6.042 -0.5027  0.4173 -0.2179
  339MOL0     C45693  11.381   7.850   6.077  0.7767  0.1530 -0.1626
  339MOL0     C45694  11.467   7.816   6.191  0.4050  0.5522 -1.0264
  339MOL0     C45695  11.534   7.801   6.290 -0.4638  0.4119 -0.1795
  339MOL0     C45696  11.035   8.002   6.455 -0.6778  0.1003  1.2138
  339MOL0     C45697  10.926   7.999   6.543 -0.3507 -0.1000 -0.0264
  339MOL0     H45698  10.520   7.847   6.552 -2.5607 -0.7206  0.0333
  339MOL0     H45699  10.293   7.795   6.609  1.2753 -0.4048  1.0613
  339MOL0     H45700  10.147   7.714   6.723  2.7578 -2.1407  1.3095
  339MOL0     H45701  10.170   7.682   6.888  1.1388  1.3952  0.6740
  339MOL0     H45702   9.936   7.642   6.818 -2.2453  0.0008  0.2672
  339MOL0     H45703   9.942   7.756   6.947 -2.4558  0.7142 -0.2193
  339MOL0     H45704   9.969   7.887   6.679 -1.1454  2.7647  0.7173
  339MOL0     H45705   9.821   7.788   6.699  0.5329 -0.2818  0.2077
  339MOL0     H45706   9.909   7.966   6.924  3.2180 -3.3428 -1.4851
  339MOL0     H45707   9.847   8.053   6.777 -1.4411 -1.0987 -1.1794
  339MOL0     H45708   9.638   7.880   6.789 -2.2630  1.6125  1.4485
  339MOL0     H45709   9.705   7.840   6.950  0.0771  0.9065  2.4458
  339MOL0     H45710   9.680   8.074   7.021  0.9851 -0.9368  0.0087
  339MOL0     H45711   9.620   8.118   6.861 -0.3534  0.6351  1.0093
  339MOL0     H45712   9.482   7.908   7.035  1.0324 -0.1273 -0.3828
  339MOL0     H45713   9.472   8.083   7.072  0.8509  0.7011  0.0740
  339MOL0     H45714   9.372   7.928   6.824 -1.0383  0.3630 -0.7131
  339MOL0     H45715   9.391   8.105   6.832 -0.0136 -0.5557 -0.9437
  339MOL0     H45716   9.252   8.243   6.984  1.9563 -1.5751 -1.9525
  339MOL0     H45717   9.001   8.198   7.264 -1.1415  0.7329  0.1699
  339MOL0     H45718   9.018   8.330   7.153 -0.7187  0.3773 -2.4314
  339MOL0     H45719   8.780   8.248   7.182  0.1242  1.5238 -0.6727
  339MOL0     H45720   8.834   8.088   7.136 -2.2216  0.1000  1.1551
  339MOL0     H45721   8.708   8.200   6.956 -1.1864  1.1839  2.2653
  339MOL0     H45722   8.876   8.164   6.911  0.5699  1.3455  0.7367
  339MOL0     H45723   8.939   8.380   6.900 -0.0966  2.7471 -0.7979
  339MOL0     H45724   8.824   8.428   7.025 -1.8415  0.2891 -0.9506
  339MOL0     H45725   8.607   8.367   7.095 -1.0866 -0.8550 -0.2205
  339MOL0     H45726   8.452   8.357   7.213  3.1535  1.9314 -3.1783
  339MOL0     H45727   8.383   8.514   7.235  2.7395  1.2052 -1.8690
  339MOL0     H45728   8.283   8.368   7.167  0.1376 -0.7660 -0.6524
  339MOL0     H45729   7.947   8.556   6.762 -0.2317  0.6514  0.6111
  339MOL0     H45730   7.706   8.604   6.808  0.1331  0.9713 -0.5231
  339MOL0     H45731   7.511   8.670   6.866 -0.0231 -0.3909 -0.9995
  339MOL0     H45732   7.425   8.770   6.992  0.0924 -0.1822  0.3134
  339MOL0     H45733   7.482   8.964   6.918 -1.6770 -0.3686 -0.6732
  339MOL0     H45734   7.618   8.918   6.816 -0.6344 -0.5860 -0.5598
  339MOL0     H45735   7.328   8.838   6.744  0.1196  0.5918  0.5986
  339MOL0     H45736   7.468   8.806   6.646 -2.3063  0.4466 -2.1735
  339MOL0     H45737   7.357   9.007   6.558 -0.3231  1.9753 -0.2345
  339MOL0     H45738   7.365   9.078   6.721  1.1636  0.6420 -0.3893
  339MOL0     H45739   7.617   9.015   6.574 -0.2154  0.1895 -0.2636
  339MOL0     H45740   7.587   9.111   6.721 -0.1803 -0.9461  0.7546
  339MOL0     H45741   7.463   9.186   6.449  0.3476 -0.3823  0.2303
  339MOL0     H45742   7.467   9.284   6.595 -1.9538 -1.2310 -1.0038
  339MOL0     H45743   7.720   9.211   6.449  0.3262 -0.2933 -0.6288
  339MOL0     H45744   7.699   9.328   6.579 -0.5206 -0.8286  1.2004
  339MOL0     H45745   7.565   9.323   6.307  4.7321 -1.2353 -1.7331
  339MOL0     H45746   7.698   9.420   6.344 -0.4461  2.9779  0.9492
  339MOL0     H45747   7.822   8.905   7.095  1.9306  1.1009 -0.8625
  339MOL0     H45748   8.061   8.843   7.056 -0.3772 -0.0250 -0.4009
  339MOL0     H45749   8.355   8.591   6.734 -0.8250  0.2309  0.7139
  339MOL0     H45750   8.563   8.512   6.682  2.7677  2.0206  1.2341
  339MOL0     H45751  10.335   8.026   6.975  1.4186 -1.7359  1.3920
  339MOL0     H45752  10.556   8.084   6.918  2.7265 -2.6412 -0.0513
  339MOL0     H45753  10.988   8.277   6.721 -4.2249 -0.2721 -0.4529
  339MOL0     H45754  11.187   8.277   6.568 -0.2895  0.4748 -2.3683
  339MOL0     H45755  11.243   7.949   6.279  2.5687  0.5304  1.8598
  339MOL0     H45756  11.122   8.066   6.199  0.7330  0.2938 -0.5015
  339MOL0     H45757  11.429   8.092   6.229  0.1012  0.5470 -0.1870
  339MOL0     H45758  11.328   8.196   6.128 -0.3803  0.7209  1.5134
  339MOL0     H45759  11.450   8.042   5.995 -0.6802  1.3969  0.2957
  339MOL0     H45760  11.282   8.014   5.967 -1.0749  1.4126  0.5311
  339MOL0     H45761  11.413   7.806   5.982 -2.5128 -1.4283 -0.7242
  339MOL0     H45762  11.281   7.807   6.093 -0.0575  2.0500  0.0058
  339MOL0     H45763  11.588   7.781   6.380 -0.9290  2.4003  0.5927
  339MOL0     H45764  11.053   7.928   6.378  2.9267  0.3120  1.6618
  339MOL0     H45765  10.847   7.927   6.528 -1.7703  1.6106 -1.1732
  340MOL0     O45766   8.171   1.823   3.146 -0.5025 -0.4675  0.3816
  340MOL0     C45767   8.256   1.890   3.196  0.2384 -0.2924  0.6596
  340MOL0     O45768   8.232   1.988   3.298  0.8267  1.1260 -0.5089
  340MOL0     C45769   8.103   2.037   3.314  0.0931  1.5888  0.4961
  340MOL0     C45770   8.023   2.092   3.218  0.2101  0.8078 -0.0629
  340MOL0     C45771   7.888   2.116   3.248  0.1573  0.1129 -0.4256
  340MOL0     C45772   7.825   2.077   3.369 -0.6917  0.0244 -0.5215
  340MOL0     O45773   7.692   2.104   3.383  0.2999 -0.7274  0.7460
  340MOL0     C45774   7.616   2.066   3.497 -0.0504  0.7161 -0.5396
  340MOL0     C45775   7.491   2.160   3.479 -1.0578 -0.2444 -0.5120
  340MOL0     C45776   7.417   2.153   3.347  0.1448 -0.7755  0.2832
  340MOL0     C45777   7.274   2.092   3.340 -0.1210  0.0127 -0.8947
  340MOL0     C45778   7.216   2.101   3.204 -0.4341 -0.2289  0.0638
  340MOL0     C45779   7.099   2.006   3.174 -0.8914 -0.0406 -0.1996
  340MOL0     C45780   7.058   2.015   3.028  0.5497 -0.1458 -0.2434
  340MOL0     C45781   6.927   1.938   3.007 -0.0027 -0.0257 -0.4878
  340MOL0     N45782   6.926   1.794   3.024 -0.5057  0.4056 -0.2087
  340MOL0     C45783   6.902   1.708   2.915 -0.0149  1.1663  0.2200
  340MOL0     C45784   6.943   1.590   2.956 -0.3241  0.5906 -0.0741
  340MOL0     C45785   6.945   1.464   2.872 -0.3887 -0.0431  0.3961
  340MOL0     C45786   6.850   1.359   2.925 -0.4762 -0.7749 -0.5320
  340MOL0     C45787   6.704   1.385   2.883  0.5998  0.6929 -0.8341
  340MOL0     C45788   6.616   1.459   2.994  0.1274 -0.2186 -0.0426
  340MOL0     O45789   6.476   1.448   2.961 -0.3118 -0.0197 -0.9409
  340MOL0     C45790   6.413   1.569   2.977 -1.0868 -0.0490  0.0023
  340MOL0     C45791   6.288   1.570   3.047 -0.5565 -0.3289 -0.0367
  340MOL0     C45792   6.198   1.677   3.025  0.2976 -0.5899  0.0720
  340MOL0     C45793   6.065   1.657   3.093  0.0756 -0.0705 -0.1876
  340MOL0     C45794   6.228   1.786   2.943  0.6659 -0.5135  0.0119
  340MOL0     C45795   6.126   1.902   2.918  0.8681 -0.2774 -0.1148
  340MOL0     O45796   6.018   1.918   3.007 -0.5199 -0.1459 -0.0861
  340MOL0     C45797   5.910   2.000   2.991  0.9326 -0.7433 -0.5751
  340MOL0     C45798   5.895   2.113   2.911  0.4419  0.0803  0.7242
  340MOL0     C45799   5.775   2.187   2.897 -1.2477  0.0459 -0.7364
  340MOL0     C45800   5.663   2.145   2.967  0.7190  0.1990 -0.5019
  340MOL0     O45801   5.564   2.240   2.960  0.3750  0.6067 -0.5876
  340MOL0     C45802   5.426   2.205   2.995  0.3552  0.0053 -0.8456
  340MOL0     C45803   5.355   2.169   2.858  0.2998 -0.3193 -0.2248
  340MOL0     C45804   5.220   2.113   2.886 -0.3642  0.2231  0.3648
  340MOL0     C45805   5.139   2.055   2.771  0.0873 -0.1243  0.1757
  340MOL0     C45806   5.014   1.970   2.799 -0.8726 -0.9291 -0.1777
  340MOL0     C45807   4.895   2.044   2.863  0.0936 -0.9403 -1.1726
  340MOL0     C45808   4.845   2.005   3.000 -0.1531 -0.0650  0.0364
  340MOL0     C45809   4.731   2.097   3.057 -0.0886  0.2807  0.2233
  340MOL0    Cl45810   4.576   2.080   2.950  0.3130  0.0218 -0.3876
  340MOL0     C45811   5.667   2.022   3.035 -0.7042 -0.1388  0.4987
  340MOL0     C45812   5.792   1.954   3.050  0.5160  0.5277 -0.5506
  340MOL0     O45813   6.142   1.967   2.816  0.4554 -0.4075 -0.4421
  340MOL0     C45814   6.350   1.783   2.870 -0.6550 -0.3709  0.1010
  340MOL0     C45815   6.433   1.672   2.888  0.3287  0.9033 -0.8597
  340MOL0     N45816   6.985   1.605   3.089 -0.0955  0.7950 -0.5546
  340MOL0     N45817   6.969   1.725   3.132  0.5677  0.6692  0.2796
  340MOL0     C45818   7.911   2.013   3.456  0.6117 -0.3707 -0.9933
  340MOL0     C45819   8.049   1.990   3.429  0.0617  0.5854 -0.0436
  340MOL0     C45820   8.399   1.847   3.190 -0.1357  0.6816  0.1531
  340MOL0     C45821   8.491   1.925   3.262  0.1794  0.3617 -0.3562
  340MOL0     C45822   8.628   1.888   3.282  0.1449  0.9888 -0.3337
  340MOL0     C45823   8.674   1.774   3.218 -0.7946 -0.1721 -0.3764
  340MOL0     O45824   8.802   1.726   3.221  0.3500 -0.6339 -0.1111
  340MOL0     C45825   8.905   1.824   3.250 -0.5223  0.0487  0.0396
  340MOL0     C45826   8.957   1.808   3.389 -0.1469 -0.4245 -0.4184
  340MOL0     C45827   9.062   1.913   3.428 -0.1401  0.1765  0.4642
  340MOL0     C45828   9.002   2.053   3.461  0.7318  0.5212 -0.5026
  340MOL0     C45829   9.102   2.157   3.479  0.4119 -0.1113 -0.8995
  340MOL0     C45830   9.186   2.235   3.500  0.4627 -0.4065  0.9373
  340MOL0     C45831   8.577   1.695   3.137  1.0109  0.0313 -0.3009
  340MOL0     C45832   8.445   1.728   3.131 -0.2703  0.2589  0.6450
  340MOL0     H45833   8.057   2.111   3.117  1.6828 -1.1652 -0.0132
  340MOL0     H45834   7.821   2.173   3.185 -1.0185 -0.4933  0.2328
  340MOL0     H45835   7.581   1.964   3.513  0.5703  0.7112  0.8740
  340MOL0     H45836   7.678   2.093   3.583 -0.2866  1.0375 -0.4642
  340MOL0     H45837   7.419   2.117   3.550 -3.8229  0.6309 -2.6179
  340MOL0     H45838   7.524   2.261   3.506  1.7412 -1.1965 -0.0985
  340MOL0     H45839   7.420   2.256   3.313  2.1355 -1.0027 -0.3419
  340MOL0     H45840   7.477   2.102   3.270  0.6161  1.9326 -1.2589
  340MOL0     H45841   7.284   1.987   3.369 -1.5837  0.1424  0.2132
  340MOL0     H45842   7.211   2.135   3.419  0.0843 -1.6982  0.2692
  340MOL0     H45843   7.185   2.206   3.192  2.2167  0.6746  0.3765
  340MOL0     H45844   7.293   2.091   3.127  0.9171  2.7937  0.8719
  340MOL0     H45845   7.136   1.905   3.193 -1.1660  0.1129  1.2218
  340MOL0     H45846   7.008   2.026   3.231 -0.0628  2.4002  0.4054
  340MOL0     H45847   7.042   2.119   3.000  2.2555  0.4062  0.7105
  340MOL0     H45848   7.131   1.974   2.958  0.5037 -0.7824  0.0762
  340MOL0     H45849   6.880   1.944   2.908 -0.5676  0.5827 -0.1910
  340MOL0     H45850   6.860   1.986   3.079  0.9663  1.7025 -0.6754
  340MOL0     H45851   6.860   1.734   2.818 -0.7536  0.6835  0.4047
  340MOL0     H45852   6.922   1.480   2.767 -1.5592 -2.9626  0.0987
  340MOL0     H45853   7.046   1.421   2.863  0.6845  2.4481 -0.2388
  340MOL0     H45854   6.859   1.341   3.033  1.7489  1.4896 -0.2670
  340MOL0     H45855   6.874   1.261   2.882 -0.6616 -0.5383 -1.1873
  340MOL0     H45856   6.666   1.282   2.878 -1.0400  1.2132 -0.0109
  340MOL0     H45857   6.697   1.433   2.785  0.4575  0.0489 -1.1436
  340MOL0     H45858   6.654   1.559   3.018 -0.3702 -0.3403  1.3543
  340MOL0     H45859   6.625   1.411   3.092 -1.7393 -0.4955  0.0311
  340MOL0     H45860   6.276   1.483   3.111  0.4558 -3.3735 -3.6087
  340MOL0     H45861   6.047   1.738   3.165 -2.7736 -0.3187 -0.5391
  340MOL0     H45862   5.992   1.651   3.012 -3.1836 -0.4878  2.5519
  340MOL0     H45863   6.060   1.562   3.146  0.7314  0.1828  0.3554
  340MOL0     H45864   5.983   2.151   2.860  1.1334  0.5690  2.2253
  340MOL0     H45865   5.765   2.280   2.843  1.3332  0.8905  0.0962
  340MOL0     H45866   5.398   2.140   3.078 -1.3243  2.5974  0.7777
  340MOL0     H45867   5.376   2.297   3.027 -3.1765 -2.0251  0.0286
  340MOL0     H45868   5.350   2.246   2.781 -3.2436 -1.6112 -1.5118
  340MOL0     H45869   5.410   2.082   2.822  1.1173 -0.2325  0.7523
  340MOL0     H45870   5.166   2.187   2.945 -1.4951 -0.4021  0.1288
  340MOL0     H45871   5.257   2.030   2.947  3.8341 -0.1630 -2.2623
  340MOL0     H45872   5.107   2.147   2.722  0.3568 -0.2946 -0.3189
  340MOL0     H45873   5.199   2.002   2.697 -1.2246  0.6628 -1.5260
  340MOL0     H45874   5.051   1.885   2.856  1.3677  0.6201  0.8130
  340MOL0     H45875   4.986   1.936   2.698 -2.8196  1.4984 -0.5527
  340MOL0     H45876   4.930   2.147   2.875  2.8020 -1.8651 -0.2593
  340MOL0     H45877   4.817   2.035   2.787 -0.5817 -1.7889 -0.4118
  340MOL0     H45878   4.929   2.003   3.070 -0.8442 -1.9205  0.8608
  340MOL0     H45879   4.806   1.903   3.002  1.7960 -0.8393  2.3212
  340MOL0     H45880   4.766   2.199   3.040 -0.6020  0.1499 -2.0266
  340MOL0     H45881   4.705   2.072   3.160 -0.9551 -0.9926 -0.2742
  340MOL0     H45882   5.576   1.983   3.079  0.8752 -0.6470  3.5753
  340MOL0     H45883   5.801   1.860   3.103 -1.2640 -0.2232 -1.4951
  340MOL0     H45884   6.362   1.857   2.792 -0.9435  0.1320  0.5274
  340MOL0     H45885   6.513   1.666   2.815  1.5630  0.1754  0.4825
  340MOL0     H45886   7.864   1.975   3.546 -2.8593  1.5964 -1.7513
  340MOL0     H45887   8.104   1.930   3.501  2.6506  1.5952 -1.0514
  340MOL0     H45888   8.463   2.014   3.318 -1.2987  0.6604 -1.5052
  340MOL0     H45889   8.693   1.948   3.345  2.7896 -2.2041  0.2747
  340MOL0     H45890   8.992   1.824   3.183  0.1927  0.1398  0.9468
  340MOL0     H45891   8.862   1.922   3.228  0.8572 -0.1710 -4.6848
  340MOL0     H45892   8.997   1.706   3.389  0.7383 -0.0888 -1.2864
  340MOL0     H45893   8.866   1.806   3.450 -0.1685 -3.8675 -0.3493
  340MOL0     H45894   9.123   1.930   3.339 -0.0356  0.3579  0.5704
  340MOL0     H45895   9.106   1.882   3.523 -1.3627  2.8090  2.0297
  340MOL0     H45896   8.938   2.046   3.549 -1.3483 -1.6053 -2.0405
  340MOL0     H45897   8.920   2.079   3.393 -1.3865 -0.1510  1.6746
  340MOL0     H45898   9.263   2.309   3.490 -1.3381  1.3387 -1.7508
  340MOL0     H45899   8.608   1.608   3.078  0.9669  1.2201 -2.1536
  340MOL0     H45900   8.378   1.671   3.068 -0.6341  0.8911  0.4476
  341MOL0     O45901   4.210   5.110   1.881 -0.7894  0.3370 -0.3846
  341MOL0     C45902   4.263   5.079   1.985 -0.9091  1.5043 -0.5083
  341MOL0     O45903   4.204   5.061   2.110 -0.0595 -0.7894 -0.1075
  341MOL0     C45904   4.067   5.087   2.116 -0.2765  1.0072 -0.4036
  341MOL0     C45905   3.974   4.981   2.134 -0.1279 -1.2796  0.3623
  341MOL0     C45906   3.844   5.017   2.176  0.5127 -0.0890  0.3122
  341MOL0     C45907   3.800   5.153   2.186 -0.2263  0.0968 -0.5726
  341MOL0     O45908   3.668   5.182   2.206  0.4458  0.2319  0.2990
  341MOL0     C45909   3.607   5.118   2.322 -0.1005 -0.1075  1.0502
  341MOL0     C45910   3.474   5.193   2.341 -1.0531 -0.2330  0.3053
  341MOL0     C45911   3.378   5.139   2.441  0.6954  0.0185  0.4439
  341MOL0     C45912   3.227   5.184   2.424 -0.2158 -0.0890 -0.3682
  341MOL0     C45913   3.146   5.155   2.552 -0.3366 -0.3177 -0.0749
  341MOL0     C45914   3.024   5.237   2.542 -0.1486  0.1639 -0.1759
  341MOL0     C45915   2.912   5.174   2.627  0.0665  0.1892 -0.4741
  341MOL0     C45916   2.772   5.218   2.614  0.3760 -0.7787  0.4803
  341MOL0     N45917   2.777   5.359   2.625  0.4406  0.3944 -0.3722
  341MOL0     C45918   2.768   5.451   2.523  0.4495 -0.5920  0.1316
  341MOL0     C45919   2.767   5.573   2.573  0.4648 -0.0937  0.1653
  341MOL0     C45920   2.742   5.704   2.505  0.3840 -0.1070 -0.1805
  341MOL0     C45921   2.595   5.723   2.461 -1.0444 -0.4059  0.0006
  341MOL0     C45922   2.574   5.836   2.362  0.0916 -0.1911 -0.2412
  341MOL0     C45923   2.572   5.976   2.437  0.0744  0.9206  0.3953
  341MOL0     O45924   2.435   6.003   2.480 -0.1188  0.2239 -0.2354
  341MOL0     C45925   2.330   6.020   2.395 -0.1097  0.2289  0.3229
  341MOL0     C45926   2.347   6.021   2.253  0.9176  0.1621  0.2417
  341MOL0     C45927   2.236   6.014   2.163 -0.6478  0.0731 -0.5463
  341MOL0     C45928   2.265   6.015   2.012 -0.2293 -0.7536  0.3638
  341MOL0     C45929   2.107   6.020   2.225 -0.1048 -0.6247 -0.3776
  341MOL0     C45930   1.984   6.046   2.145 -0.6148 -0.0894  0.3159
  341MOL0     O45931   1.887   6.128   2.198 -0.1129  0.1466 -0.7961
  341MOL0     C45932   1.774   6.161   2.131  0.3277  0.3953 -0.2723
  341MOL0     C45933   1.660   6.174   2.201  1.1569 -0.7601  0.0374
  341MOL0     C45934   1.543   6.202   2.127 -0.3333 -0.4731 -0.1743
  341MOL0     C45935   1.534   6.236   1.996 -0.3077 -0.4704 -0.2512
  341MOL0     O45936   1.421   6.267   1.920  1.1217 -0.2970  0.2131
  341MOL0     C45937   1.335   6.364   1.985 -0.0272 -0.2433  1.2776
  341MOL0     C45938   1.228   6.414   1.887 -0.3093  0.1071 -0.4677
  341MOL0     C45939   1.100   6.451   1.967 -0.2523 -0.2142 -0.1264
  341MOL0     C45940   0.989   6.508   1.876 -0.3135  0.4859  0.4880
  341MOL0     C45941   0.867   6.556   1.964 -0.6476 -0.2572  0.7607
  341MOL0     C45942   0.744   6.599   1.885 -0.3728  0.2480 -0.4671
  341MOL0     C45943   0.633   6.672   1.976  0.3511 -0.2329  1.2197
  341MOL0     C45944   0.500   6.678   1.907  0.0418  0.3847  0.1949
  341MOL0    Cl45945   0.518   6.774   1.750 -0.2587  0.3515 -0.3957
  341MOL0     C45946   1.655   6.228   1.930 -0.1260 -0.9318  0.1711
  341MOL0     C45947   1.774   6.191   1.989 -0.3668 -0.5536 -0.4540
  341MOL0     O45948   1.976   5.996   2.026 -0.8701 -0.7419 -0.4760
  341MOL0     C45949   2.096   6.032   2.359 -0.2074  0.2255  0.0745
  341MOL0     C45950   2.207   6.030   2.448  0.4398 -0.1794 -0.3325
  341MOL0     N45951   2.789   5.564   2.707 -0.2721 -0.1323  0.2856
  341MOL0     N45952   2.789   5.436   2.742  0.2888  0.8192  0.3600
  341MOL0     C45953   3.893   5.254   2.143  0.1303 -0.7153  0.3679
  341MOL0     C45954   4.018   5.221   2.117 -1.2522 -0.0292 -1.0846
  341MOL0     C45955   4.409   5.047   1.974 -0.7673  0.2703 -0.4034
  341MOL0     C45956   4.475   5.062   1.856  0.0011  0.3604  0.3519
  341MOL0     C45957   4.621   5.042   1.847  0.4005 -1.0735 -1.0477
  341MOL0     C45958   4.689   5.009   1.967  0.1950  0.2282 -0.5718
  341MOL0     O45959   4.824   4.993   1.972  0.5627  0.6059  0.3131
  341MOL0     C45960   4.898   4.991   1.847 -0.5515 -0.0558 -0.5039
  341MOL0     C45961   5.031   4.930   1.870  0.1651 -0.4450  1.0032
  341MOL0     C45962   5.111   4.914   1.741  0.4180 -0.2673  0.3998
  341MOL0     C45963   5.273   4.937   1.765 -0.2495  0.2119  0.0200
  341MOL0     C45964   5.312   5.074   1.806 -0.8203 -1.2517  0.6622
  341MOL0     C45965   5.336   5.175   1.863 -0.1589 -0.6197  0.3966
  341MOL0     C45966   4.616   4.989   2.086  0.1511 -0.9449 -0.0039
  341MOL0     C45967   4.475   5.010   2.093  0.0624 -1.0453  0.3988
  341MOL0     H45968   4.011   4.880   2.118  0.8770 -1.5090  3.4968
  341MOL0     H45969   3.776   4.934   2.189 -2.3160  1.9593 -0.6350
  341MOL0     H45970   3.586   5.011   2.310 -1.9472 -0.2905  4.4223
  341MOL0     H45971   3.673   5.132   2.408 -1.3118  1.9880  1.7311
  341MOL0     H45972   3.494   5.296   2.370 -2.4443  1.0643 -2.9382
  341MOL0     H45973   3.427   5.218   2.246  0.1578 -0.4462 -0.3600
  341MOL0     H45974   3.395   5.032   2.427  2.4245  0.5873 -3.0768
  341MOL0     H45975   3.410   5.159   2.543  0.0952  0.7197  0.5048
  341MOL0     H45976   3.236   5.293   2.425  1.7131 -0.2222  0.7394
  341MOL0     H45977   3.176   5.152   2.332  3.0388 -0.7004 -2.1032
  341MOL0     H45978   3.132   5.047   2.557  1.6783 -0.5773  0.9082
  341MOL0     H45979   3.202   5.188   2.640  0.3259  1.8341 -1.2237
  341MOL0     H45980   3.044   5.340   2.573  1.5498 -0.1051 -0.2788
  341MOL0     H45981   2.988   5.226   2.439  1.3819 -2.6102 -0.5182
  341MOL0     H45982   2.908   5.066   2.610 -1.3927  0.5370 -2.8034
  341MOL0     H45983   2.935   5.182   2.733  0.4706 -1.3739 -0.4175
  341MOL0     H45984   2.717   5.163   2.690  4.2134 -3.2154  1.8064
  341MOL0     H45985   2.729   5.193   2.516  1.3727  0.3713 -0.2894
  341MOL0     H45986   2.740   5.422   2.423 -3.3356  0.6239  0.6657
  341MOL0     H45987   2.768   5.784   2.574 -2.3849  1.7867 -1.1745
  341MOL0     H45988   2.814   5.706   2.422  3.8814 -0.1049  2.6373
  341MOL0     H45989   2.535   5.737   2.551 -0.0929  2.6701  0.2769
  341MOL0     H45990   2.571   5.635   2.401  2.2490  0.9944 -3.9471
  341MOL0     H45991   2.482   5.811   2.307 -0.1639 -2.6587  1.1870
  341MOL0     H45992   2.658   5.836   2.292 -0.3924 -1.2568 -0.8510
  341MOL0     H45993   2.624   6.051   2.376 -0.8248  0.7489 -0.6036
  341MOL0     H45994   2.621   5.952   2.532 -0.3214 -0.7723  0.1938
  341MOL0     H45995   2.446   6.029   2.208 -0.7406 -1.7784 -4.3815
  341MOL0     H45996   2.219   5.928   1.966  0.4346 -0.2503 -1.3509
  341MOL0     H45997   2.214   6.106   1.977  2.0295  0.1228 -0.8790
  341MOL0     H45998   2.370   6.031   1.985 -1.0176  1.1063 -1.9718
  341MOL0     H45999   1.641   6.160   2.307  2.2397 -0.2228  0.3092
  341MOL0     H46000   1.448   6.203   2.179  0.3105  2.3512  1.1726
  341MOL0     H46001   1.282   6.311   2.064 -2.2185  0.7440  0.5451
  341MOL0     H46002   1.404   6.446   2.004  2.1021 -1.4529 -0.6473
  341MOL0     H46003   1.269   6.498   1.831 -0.8271  1.0324  0.4899
  341MOL0     H46004   1.204   6.330   1.822  2.0314 -0.6543 -0.4290
  341MOL0     H46005   1.133   6.523   2.043 -0.5605 -0.5429  0.3213
  341MOL0     H46006   1.065   6.364   2.022  4.2140 -1.8153  0.5521
  341MOL0     H46007   1.032   6.597   1.831 -0.6590  0.2951 -0.2431
  341MOL0     H46008   0.964   6.432   1.800  0.2218  1.4051 -0.6336
  341MOL0     H46009   0.907   6.634   2.030  1.0662 -0.1035 -0.4026
  341MOL0     H46010   0.835   6.474   2.028 -2.3020  1.6046  2.4716
  341MOL0     H46011   0.778   6.673   1.811  0.5208  1.9676  1.5372
  341MOL0     H46012   0.695   6.516   1.833 -0.5379  0.4479 -0.6336
  341MOL0     H46013   0.664   6.771   2.010  0.0899 -0.1951  1.3478
  341MOL0     H46014   0.609   6.608   2.062 -0.2928 -2.9750 -0.8462
  341MOL0     H46015   0.422   6.723   1.970  0.1661  0.8153  0.0418
  341MOL0     H46016   0.462   6.580   1.877 -1.4890  1.4645 -1.6316
  341MOL0     H46017   1.649   6.255   1.825 -0.0702 -1.9942 -0.1201
  341MOL0     H46018   1.854   6.197   1.916  0.5435  0.6198  0.6176
  341MOL0     H46019   1.999   6.045   2.404 -0.2329 -0.1019  0.1171
  341MOL0     H46020   2.182   6.039   2.554 -0.3369 -2.5924 -0.2670
  341MOL0     H46021   3.859   5.357   2.146  1.2848 -0.2983 -0.4614
  341MOL0     H46022   4.090   5.302   2.106 -0.9004 -0.2931 -0.7675
  341MOL0     H46023   4.415   5.091   1.769  1.3119  2.1456  0.0027
  341MOL0     H46024   4.666   5.063   1.751  4.0524  2.7170  1.1325
  341MOL0     H46025   4.849   4.932   1.770  0.8358 -1.6370 -0.2312
  341MOL0     H46026   4.915   5.089   1.801 -1.0977 -0.4899 -1.6801
  341MOL0     H46027   5.008   4.832   1.912 -2.8311 -0.0337  0.5194
  341MOL0     H46028   5.086   4.994   1.940 -0.4153  2.4509 -1.0120
  341MOL0     H46029   5.080   4.981   1.661  1.3383  3.5624  2.9677
  341MOL0     H46030   5.097   4.814   1.698  0.7356 -0.8366  1.5568
  341MOL0     H46031   5.325   4.897   1.678 -2.1766 -3.8061  0.4658
  341MOL0     H46032   5.303   4.877   1.851  0.7213  3.3861  2.0650
  341MOL0     H46033   5.362   5.254   1.931 -1.8994  0.0967  0.2811
  341MOL0     H46034   4.685   4.964   2.166  0.8618  1.8762  0.3450
  341MOL0     H46035   4.417   5.004   2.184  0.0086 -0.8394  0.3791
  342MOL0     O46036   1.430   7.024   1.795  1.3015 -0.4043  0.1320
  342MOL0     C46037   1.414   6.918   1.854  0.0898 -0.1635  0.4854
  342MOL0     O46038   1.294   6.860   1.879  0.0648  0.0999 -0.0418
  342MOL0     C46039   1.176   6.925   1.856  0.1607  0.7282  1.3014
  342MOL0     C46040   1.148   7.024   1.758  0.4336 -0.1936  0.1095
  342MOL0     C46041   1.022   7.086   1.750 -0.6452  1.1298  0.4705
  342MOL0     C46042   0.917   7.041   1.830  0.3312  0.2031  0.4954
  342MOL0     O46043   0.799   7.102   1.800 -0.3313  0.1917  0.0501
  342MOL0     C46044   0.693   7.080   1.888  0.1384  0.6883  0.2059
  342MOL0     C46045   0.561   7.142   1.841  0.0412  0.0874  0.4450
  342MOL0     C46046   0.449   7.101   1.929 -0.2665 -0.4054 -0.0874
  342MOL0     C46047   0.329   7.183   1.882  0.0738 -0.5026 -0.1043
  342MOL0     C46048   0.203   7.153   1.966  0.3032 -0.3298 -0.1932
  342MOL0     C46049   0.142   7.010   1.953 -0.4629 -0.6298 -0.1314
  342MOL0     C46050   0.054   6.975   1.844  0.5800 -0.4496  0.4872
  342MOL0     C46051   0.117   6.877   1.743  0.0649  0.6285  0.2727
  342MOL0     N46052   0.037   6.828   1.630 -0.3757 -0.6800 -0.1984
  342MOL0     C46053  -0.086   6.774   1.625  0.7410  0.3108 -0.2407
  342MOL0     C46054  -0.112   6.760   1.496  0.7548  0.1745 -0.1349
  342MOL0     C46055  -0.244   6.699   1.444  0.0368  0.3477  1.1942
  342MOL0     C46056  -0.380   6.743   1.499 -0.6744 -0.5883 -0.3365
  342MOL0     C46057  -0.489   6.656   1.446  0.2680 -0.3151 -0.1768
  342MOL0     C46058  -0.639   6.697   1.463  0.3468 -0.4307  0.5447
  342MOL0     O46059  -0.658   6.731   1.606  0.8459 -0.1775  0.3868
  342MOL0     C46060  -0.784   6.794   1.616  0.5273  0.1199  0.8777
  342MOL0     C46061  -0.792   6.895   1.708 -0.0063 -0.1295  0.7161
  342MOL0     C46062  -0.910   6.952   1.754  0.2752 -0.0103  0.8564
  342MOL0     C46063  -0.907   7.049   1.867 -0.6567 -0.3360  0.9953
  342MOL0     C46064  -1.036   6.904   1.697  0.5110  0.4700 -0.5338
  342MOL0     C46065  -1.173   6.949   1.735  0.4496  0.0940 -0.0312
  342MOL0     O46066  -1.266   6.918   1.644  0.5544 -0.6230 -0.3448
  342MOL0     C46067  -1.400   6.957   1.672  0.1981 -0.9247  0.2205
  342MOL0     C46068  -1.439   7.094   1.680 -0.4411 -0.2147 -0.0044
  342MOL0     C46069  -1.578   7.126   1.709  0.1753 -0.7486  0.4129
  342MOL0     C46070  -1.670   7.027   1.726  0.9467  0.2702 -0.8593
  342MOL0     O46071  -1.802   7.054   1.756  0.8610  0.2759  0.4444
  342MOL0     C46072  -1.854   7.168   1.691 -0.1323 -0.2434 -0.1144
  342MOL0     C46073  -2.003   7.155   1.682 -0.9013  0.3385  0.0069
  342MOL0     C46074  -2.068   7.155   1.821 -0.3371  0.0278  0.8024
  342MOL0     C46075  -2.216   7.145   1.809  0.1898 -0.8884 -0.8903
  342MOL0     C46076  -2.273   7.154   1.947  0.1361  0.5623 -0.1923
  342MOL0     C46077  -2.419   7.191   1.941  0.4161 -0.6454 -0.4923
  342MOL0     C46078  -2.484   7.157   2.073  0.1267 -0.6998 -0.3168
  342MOL0     C46079  -2.635   7.219   2.075 -0.3935 -0.2966  0.1222
  342MOL0    Cl46080  -2.646   7.390   2.121  0.3072  0.4354  0.6541
  342MOL0     C46081  -1.625   6.896   1.721  0.9318  0.0380 -1.7049
  342MOL0     C46082  -1.499   6.859   1.703 -0.8457 -0.7578 -0.3838
  342MOL0     O46083  -1.188   7.008   1.837 -0.4045 -0.6710  0.5218
  342MOL0     C46084  -1.028   6.795   1.613 -0.8494  0.3141 -0.7253
  342MOL0     C46085  -0.903   6.749   1.572 -0.3465 -0.0143 -0.9352
  342MOL0     N46086  -0.006   6.790   1.421 -0.5500  1.2155 -0.0908
  342MOL0     N46087   0.084   6.837   1.500  0.1046  1.2178 -0.3941
  342MOL0     C46088   0.940   6.940   1.930  0.1498  0.4465 -0.5364
  342MOL0     C46089   1.072   6.890   1.940 -0.1023 -0.1451  0.1837
  342MOL0     C46090   1.534   6.844   1.913  0.3244 -0.3528  0.4280
  342MOL0     C46091   1.517   6.753   2.018  0.7078  0.6663 -0.4648
  342MOL0     C46092   1.619   6.664   2.062 -0.2682 -0.8542  1.0758
  342MOL0     C46093   1.751   6.701   2.028  0.5456  0.3029 -0.0933
  342MOL0     O46094   1.865   6.655   2.084 -0.1397  0.3475  0.4510
  342MOL0     C46095   1.853   6.558   2.185 -0.4379 -0.3357 -0.2523
  342MOL0     C46096   1.985   6.548   2.266  0.8089 -0.7524 -0.2053
  342MOL0     C46097   2.095   6.510   2.177 -0.0675 -0.3286 -1.3332
  342MOL0     C46098   2.204   6.462   2.276 -0.4289 -0.4989  0.0525
  342MOL0     C46099   2.332   6.455   2.206 -0.9306  0.1844  0.7185
  342MOL0     C46100   2.434   6.438   2.146 -0.8159 -1.0252  0.2338
  342MOL0     C46101   1.770   6.806   1.933 -0.3937  0.0546 -0.1325
  342MOL0     C46102   1.665   6.870   1.875 -0.6732 -0.3608  0.0702
  342MOL0     H46103   1.215   7.068   1.685 -2.0427  0.4763 -1.9077
  342MOL0     H46104   0.995   7.166   1.682  0.0037 -0.6141 -1.9806
  342MOL0     H46105   0.679   6.972   1.888  0.4187  0.6384 -0.9111
  342MOL0     H46106   0.716   7.111   1.990  1.9954 -0.8540  0.3227
  342MOL0     H46107   0.571   7.249   1.825  0.6250 -0.4233 -3.8830
  342MOL0     H46108   0.536   7.103   1.742 -1.9968  0.4628  0.7612
  342MOL0     H46109   0.427   6.995   1.921 -1.7514 -0.0272 -1.5915
  342MOL0     H46110   0.475   7.130   2.032  1.3170  0.5120 -0.7143
  342MOL0     H46111   0.345   7.290   1.895 -2.5785 -0.2006  1.4838
  342MOL0     H46112   0.310   7.172   1.775 -0.3754 -0.0741 -0.0729
  342MOL0     H46113   0.219   7.162   2.073  2.1469 -2.1930 -0.2647
  342MOL0     H46114   0.134   7.234   1.938  0.2551 -0.4642 -0.4722
  342MOL0     H46115   0.225   6.938   1.943 -1.4654 -2.5180  3.5131
  342MOL0     H46116   0.086   6.979   2.042  0.0142 -0.3195  0.2799
  342MOL0     H46117  -0.042   6.938   1.882 -1.8028  3.4058 -1.1649
  342MOL0     H46118   0.039   7.068   1.788 -1.4214 -0.9579  0.0798
  342MOL0     H46119   0.147   6.791   1.803  0.6132 -0.1490 -1.0726
  342MOL0     H46120   0.214   6.907   1.700 -0.0982  0.5299 -0.1634
  342MOL0     H46121  -0.153   6.762   1.709 -2.1305  1.3110 -2.2361
  342MOL0     H46122  -0.231   6.734   1.341  2.1415  2.1855  1.9826
  342MOL0     H46123  -0.242   6.590   1.450  1.0556  0.3344  0.8390
  342MOL0     H46124  -0.403   6.839   1.451 -3.2448 -0.5215  0.9240
  342MOL0     H46125  -0.384   6.759   1.607 -1.2037 -0.4802 -0.3700
  342MOL0     H46126  -0.480   6.561   1.499 -0.2178 -0.3581 -0.1627
  342MOL0     H46127  -0.473   6.641   1.338  0.3441 -0.9300 -0.0853
  342MOL0     H46128  -0.712   6.635   1.409 -2.6657  5.6712 -3.5758
  342MOL0     H46129  -0.650   6.786   1.401 -1.4295 -0.2566  1.0574
  342MOL0     H46130  -0.693   6.925   1.740 -0.8260  1.0488  2.2992
  342MOL0     H46131  -0.805   7.086   1.880 -0.0426 -0.7029 -1.9498
  342MOL0     H46132  -0.969   7.135   1.842  0.6444  0.4808  0.5174
  342MOL0     H46133  -0.951   6.999   1.954 -1.0863 -2.2597 -0.2499
  342MOL0     H46134  -1.372   7.178   1.668  0.6809 -1.2109 -0.8873
  342MOL0     H46135  -1.601   7.232   1.717  1.2070 -0.1714 -2.8985
  342MOL0     H46136  -1.835   7.259   1.750  0.8625  0.5086 -1.5360
  342MOL0     H46137  -1.801   7.184   1.597  0.0333  0.2332  0.0557
  342MOL0     H46138  -2.047   7.243   1.635  0.2604  2.2158  2.2371
  342MOL0     H46139  -2.030   7.064   1.627 -0.8921 -0.0026  0.5518
  342MOL0     H46140  -2.043   7.248   1.872  2.6177 -1.2825  1.9616
  342MOL0     H46141  -2.026   7.072   1.878 -0.9461  1.1240  2.9453
  342MOL0     H46142  -2.262   7.232   1.761  1.5657  0.6792  0.4884
  342MOL0     H46143  -2.251   7.050   1.767  1.7771 -3.6930  3.5104
  342MOL0     H46144  -2.215   7.226   2.006 -0.6380  1.0593 -0.0314
  342MOL0     H46145  -2.263   7.054   1.989 -1.9534  0.0852 -0.7418
  342MOL0     H46146  -2.429   7.298   1.922 -1.3148 -0.6577  0.2393
  342MOL0     H46147  -2.467   7.130   1.864 -2.6869 -0.7246  1.3501
  342MOL0     H46148  -2.432   7.194   2.162  1.2638 -0.6893 -0.9609
  342MOL0     H46149  -2.494   7.049   2.084 -0.8803 -0.5595  0.2186
  342MOL0     H46150  -2.695   7.162   2.147  1.4556 -0.8503  1.2937
  342MOL0     H46151  -2.679   7.210   1.975 -0.9901 -2.7632  0.5497
  342MOL0     H46152  -1.706   6.825   1.734  2.6720 -2.2762 -2.6694
  342MOL0     H46153  -1.466   6.756   1.698 -1.7275 -1.0462 -0.3988
  342MOL0     H46154  -1.118   6.757   1.565  0.8159 -4.1397 -0.7624
  342MOL0     H46155  -0.890   6.674   1.494 -1.0567 -0.7604 -0.3629
  342MOL0     H46156   0.864   6.891   1.990  0.8136 -1.0264 -0.8460
  342MOL0     H46157   1.086   6.805   2.005 -3.2719 -1.4114 -0.6245
  342MOL0     H46158   1.424   6.733   2.069 -0.0798  0.2226 -2.0140
  342MOL0     H46159   1.588   6.575   2.115 -1.3040 -2.5681 -2.1231
  342MOL0     H46160   1.775   6.596   2.252 -1.9107 -1.1553 -1.4385
  342MOL0     H46161   1.824   6.460   2.147  0.4825 -2.1277  3.2771
  342MOL0     H46162   1.966   6.475   2.346  2.2372 -1.6390 -0.6305
  342MOL0     H46163   1.995   6.643   2.321  0.3162 -1.6093  1.4428
  342MOL0     H46164   2.135   6.603   2.135  1.4272  0.6675  1.9076
  342MOL0     H46165   2.069   6.430   2.108  1.3603 -0.1351 -2.1347
  342MOL0     H46166   2.185   6.361   2.313 -2.9960 -0.4464 -0.8982
  342MOL0     H46167   2.221   6.527   2.362  1.7634 -1.1256  0.1462
  342MOL0     H46168   2.526   6.407   2.102  1.2096 -1.0023  4.0154
  342MOL0     H46169   1.873   6.828   1.909  0.1140 -1.7624  0.2331
  342MOL0     H46170   1.688   6.954   1.810 -3.3262  1.7807  1.6755
  343MOL0     O46171   9.221   1.004   1.505  0.0302  0.1408 -0.1828
  343MOL0     C46172   9.281   1.080   1.430 -0.4662  0.6641  0.2119
  343MOL0     O46173   9.229   1.168   1.341 -0.3251  0.4221 -0.3523
  343MOL0     C46174   9.103   1.214   1.367 -0.2019 -0.9852 -0.5622
  343MOL0     C46175   9.062   1.253   1.494  0.5391 -0.3812  0.0828
  343MOL0     C46176   8.928   1.293   1.511 -0.1164  0.3286 -0.2620
  343MOL0     C46177   8.836   1.311   1.407 -0.0401  0.2811  0.5959
  343MOL0     O46178   8.713   1.366   1.435 -0.0683 -0.2999  0.1307
  343MOL0     C46179   8.615   1.377   1.334 -0.8011 -0.1939 -0.2437
  343MOL0     C46180   8.508   1.466   1.403 -0.2767  0.3825  0.1037
  343MOL0     C46181   8.378   1.462   1.329 -0.3866  0.2991  0.7956
  343MOL0     C46182   8.279   1.566   1.379  0.2553 -0.2546 -0.3679
  343MOL0     C46183   8.159   1.561   1.288  0.9081  0.9224  0.1932
  343MOL0     C46184   8.043   1.640   1.349  0.3774  0.2324  0.0012
  343MOL0     C46185   7.911   1.612   1.266 -0.1613  0.7631 -0.4699
  343MOL0     C46186   7.801   1.705   1.322  0.9329 -0.8416 -0.7512
  343MOL0     N46187   7.691   1.659   1.235  0.3347 -1.1602  0.3236
  343MOL0     C46188   7.595   1.571   1.274  0.7171 -0.2623  0.3297
  343MOL0     C46189   7.507   1.561   1.171  0.7390  0.3028 -0.3294
  343MOL0     C46190   7.381   1.476   1.177 -1.0357 -0.2513 -0.2300
  343MOL0     C46191   7.305   1.487   1.035  0.8603 -0.2938  0.2100
  343MOL0     C46192   7.192   1.385   1.036 -0.5536  0.6250 -0.0915
  343MOL0     C46193   7.088   1.412   0.928 -0.4141  0.6130 -0.0383
  343MOL0     O46194   7.005   1.296   0.915  0.0555 -0.5086  0.2660
  343MOL0     C46195   6.912   1.282   0.814  0.4013 -0.2246  0.1544
  343MOL0     C46196   6.897   1.364   0.699  0.1550 -0.1562 -0.3320
  343MOL0     C46197   6.780   1.365   0.618  0.8608  0.0150  0.1119
  343MOL0     C46198   6.784   1.457   0.497  0.4161 -0.0445 -0.4239
  343MOL0     C46199   6.669   1.286   0.655  0.0826 -0.1042 -0.1798
  343MOL0     C46200   6.528   1.287   0.597  0.3295 -0.5877 -0.7321
  343MOL0     O46201   6.440   1.187   0.628 -0.4990 -0.0555 -0.7680
  343MOL0     C46202   6.303   1.196   0.596  0.5031 -0.3549 -1.0022
  343MOL0     C46203   6.243   1.083   0.547  0.0731 -0.0326  0.5425
  343MOL0     C46204   6.117   1.090   0.490  0.6978  0.3747  0.4427
  343MOL0     C46205   6.037   1.208   0.497  0.3641  0.1872  0.2255
  343MOL0     O46206   5.910   1.214   0.440  0.0055 -0.1357 -0.0498
  343MOL0     C46207   5.884   1.334   0.360 -0.1672  0.1413 -0.1078
  343MOL0     C46208   5.740   1.318   0.302 -0.5564  0.4472 -0.1244
  343MOL0     C46209   5.637   1.300   0.410 -1.0129 -0.1591 -0.4495
  343MOL0     C46210   5.499   1.272   0.340 -0.1330 -0.4909 -0.1396
  343MOL0     C46211   5.380   1.247   0.436  0.5278  0.5885  0.4093
  343MOL0     C46212   5.268   1.169   0.364 -0.2378 -0.0811  0.1304
  343MOL0     C46213   5.136   1.166   0.439 -0.3844  1.1975  0.0126
  343MOL0     C46214   5.067   1.291   0.466  0.0316 -0.2771 -0.4960
  343MOL0    Cl46215   4.929   1.252   0.560  0.3162 -0.0974 -0.0842
  343MOL0     C46216   6.097   1.321   0.553  0.8803  1.0095 -0.0473
  343MOL0     C46217   6.227   1.322   0.602 -0.1885  0.0791 -0.2973
  343MOL0     O46218   6.508   1.375   0.513 -0.5196 -0.4979 -0.0436
  343MOL0     C46219   6.686   1.199   0.762 -1.1232  0.7080 -0.5609
  343MOL0     C46220   6.800   1.198   0.843 -0.4899  0.1729  0.7133
  343MOL0     N46221   7.551   1.651   1.076  0.3163 -0.4293 -0.4563
  343MOL0     N46222   7.657   1.708   1.115  0.0587 -0.4574  0.2092
  343MOL0     C46223   8.880   1.277   1.275 -0.5573  0.1292 -0.0410
  343MOL0     C46224   9.013   1.234   1.262 -0.4090  0.5560 -0.4395
  343MOL0     C46225   9.429   1.088   1.447  0.4253  0.9923  0.6800
  343MOL0     C46226   9.509   1.173   1.365  0.0471  0.0567 -0.3485
  343MOL0     C46227   9.651   1.165   1.382 -0.3851  0.9078  0.3166
  343MOL0     C46228   9.712   1.061   1.466 -0.0813  0.3941  0.0003
  343MOL0     O46229   9.852   1.050   1.467 -0.4355 -0.2619 -0.3872
  343MOL0     C46230   9.921   0.937   1.527  0.4377 -0.5832 -0.0283
  343MOL0     C46231  10.067   0.990   1.537  0.8273 -0.0353 -0.5409
  343MOL0     C46232  10.161   0.882   1.587 -0.5556 -0.3488 -0.2265
  343MOL0     C46233  10.304   0.927   1.548 -0.4863 -0.7138  0.2431
  343MOL0     C46234  10.396   0.823   1.594 -0.3777  0.3419 -0.7119
  343MOL0     C46235  10.462   0.731   1.652 -0.2995 -0.5087  1.1669
  343MOL0     C46236   9.630   0.963   1.525  0.2830  0.0853  0.6500
  343MOL0     C46237   9.488   0.983   1.523 -0.4185 -0.4811 -0.7814
  343MOL0     H46238   9.132   1.252   1.577 -0.0997  0.4063  0.6397
  343MOL0     H46239   8.899   1.319   1.612  0.7356 -0.5154  0.2204
  343MOL0     H46240   8.654   1.427   1.245 -3.5704  2.4811 -0.0984
  343MOL0     H46241   8.586   1.275   1.307 -1.1145 -0.0163 -0.5845
  343MOL0     H46242   8.490   1.410   1.495  0.9073  0.2306  0.2572
  343MOL0     H46243   8.542   1.568   1.423  0.2838  0.0927  0.6724
  343MOL0     H46244   8.390   1.496   1.226  0.0876 -1.7961  0.0987
  343MOL0     H46245   8.335   1.362   1.343  1.2667 -0.0925  4.2308
  343MOL0     H46246   8.238   1.542   1.478 -1.0132 -0.2236 -0.8673
  343MOL0     H46247   8.326   1.664   1.381  0.1722 -0.2147 -0.3892
  343MOL0     H46248   8.184   1.601   1.190  2.4359 -0.6888 -0.1474
  343MOL0     H46249   8.116   1.461   1.276 -0.4799  1.4897  0.2858
  343MOL0     H46250   8.024   1.617   1.454  0.5241  0.0668 -0.0080
  343MOL0     H46251   8.067   1.746   1.341 -0.5234  0.5874  1.5861
  343MOL0     H46252   7.926   1.627   1.159  3.6865 -1.6762 -0.4645
  343MOL0     H46253   7.883   1.506   1.270  3.0448 -0.1763 -0.4262
  343MOL0     H46254   7.824   1.810   1.301  0.9324 -0.7903 -0.4949
  343MOL0     H46255   7.775   1.690   1.427 -0.5153  1.5280 -0.6964
  343MOL0     H46256   7.584   1.529   1.373  0.1810  1.3199  0.9826
  343MOL0     H46257   7.396   1.373   1.211  1.2059  0.3534  0.7790
  343MOL0     H46258   7.317   1.511   1.258  1.2824  0.1701  1.5206
  343MOL0     H46259   7.376   1.462   0.955  0.5898  2.0390 -0.8457
  343MOL0     H46260   7.268   1.589   1.020 -0.3415 -0.5912  1.0468
  343MOL0     H46261   7.150   1.381   1.137  2.1443  3.6502  1.3074
  343MOL0     H46262   7.237   1.285   1.033  1.0358  1.1922  2.1282
  343MOL0     H46263   7.150   1.423   0.839 -0.6177 -2.8799 -0.7335
  343MOL0     H46264   7.013   1.491   0.938 -1.2102 -0.2876  1.4292
  343MOL0     H46265   6.967   1.445   0.681 -0.5054  0.5269  0.1233
  343MOL0     H46266   6.722   1.545   0.514  0.9401 -0.1859  2.9033
  343MOL0     H46267   6.885   1.493   0.471 -0.7059  2.7581 -1.2838
  343MOL0     H46268   6.746   1.393   0.417  1.8985 -1.2333 -0.2456
  343MOL0     H46269   6.293   0.987   0.549 -1.4885 -0.8844  0.6022
  343MOL0     H46270   6.075   1.004   0.439  2.2272  0.0319 -0.2747
  343MOL0     H46271   5.890   1.426   0.419  2.1798 -0.9070  1.4473
  343MOL0     H46272   5.958   1.346   0.280  0.4177  0.9969  0.5440
  343MOL0     H46273   5.726   1.403   0.234  1.6886  0.9058 -0.1012
  343MOL0     H46274   5.735   1.225   0.245 -0.7219  0.2796  0.1592
  343MOL0     H46275   5.640   1.389   0.473 -0.3175 -0.1174 -0.5354
  343MOL0     H46276   5.655   1.217   0.479  1.2234 -0.5628 -1.4205
  343MOL0     H46277   5.480   1.361   0.280 -0.3424  0.7514  1.6691
  343MOL0     H46278   5.509   1.180   0.281 -0.6540  0.8194 -2.3554
  343MOL0     H46279   5.361   1.347   0.475  2.5708  0.6872  1.2705
  343MOL0     H46280   5.412   1.178   0.515 -0.7311 -0.5615 -0.0518
  343MOL0     H46281   5.240   1.203   0.264  1.2304  2.7956  0.5887
  343MOL0     H46282   5.297   1.065   0.349  0.9745  0.1715  0.6044
  343MOL0     H46283   5.151   1.117   0.536  0.8584 -1.4436 -1.3871
  343MOL0     H46284   5.083   1.095   0.374  0.7686 -0.5359  0.8740
  343MOL0     H46285   5.037   1.330   0.369  0.4658 -2.4004 -1.5461
  343MOL0     H46286   5.135   1.362   0.514 -0.2327  0.7026 -1.5180
  343MOL0     H46287   6.027   1.403   0.563 -0.0762  0.1127  0.8577
  343MOL0     H46288   6.263   1.414   0.647  1.1105  0.1202 -1.3688
  343MOL0     H46289   6.606   1.128   0.781 -1.1831  0.8093 -0.4315
  343MOL0     H46290   6.809   1.129   0.927 -1.3543  0.1654  0.8053
  343MOL0     H46291   8.812   1.289   1.192  1.4991  0.7623 -1.7194
  343MOL0     H46292   9.054   1.217   1.163  0.0771 -0.5329 -0.0623
  343MOL0     H46293   9.477   1.248   1.292 -1.4638 -0.0298  0.1919
  343MOL0     H46294   9.720   1.232   1.331 -0.7684  0.2628 -1.0738
  343MOL0     H46295   9.877   0.906   1.623 -0.1975 -1.7993 -0.6845
  343MOL0     H46296   9.923   0.843   1.471  0.4319  0.0436 -1.0977
  343MOL0     H46297  10.075   1.088   1.585 -0.6870 -0.5268  0.8324
  343MOL0     H46298  10.086   1.007   1.430  1.7187 -0.4594 -0.4603
  343MOL0     H46299  10.142   0.781   1.548  0.1430 -0.8542  0.6936
  343MOL0     H46300  10.157   0.873   1.696  2.3316 -1.6279 -0.1482
  343MOL0     H46301  10.332   1.024   1.589 -0.6612 -0.1438 -0.9417
  343MOL0     H46302  10.305   0.934   1.439 -1.6517  2.1138  0.3139
  343MOL0     H46303  10.495   0.641   1.700 -2.8489 -1.5620  1.1253
  343MOL0     H46304   9.682   0.886   1.581  2.1346  0.9450  0.1860
  343MOL0     H46305   9.426   0.916   1.582 -1.8692 -0.8033 -2.5974
  344MOL0     O46306   4.569  10.203   8.210 -0.7516  0.5858  0.5702
  344MOL0     C46307   4.598  10.276   8.305  0.6598  0.0098  0.0334
  344MOL0     O46308   4.532  10.390   8.338  0.2834  0.0297  0.7153
  344MOL0     C46309   4.403  10.400   8.311  0.0789 -0.6399  0.9276
  344MOL0     C46310   4.347  10.516   8.250 -0.1486 -0.3326 -0.0463
  344MOL0     C46311   4.210  10.548   8.240 -0.3897  0.2872  0.6184
  344MOL0     C46312   4.119  10.442   8.279  0.3239 -0.9747  1.1552
  344MOL0     O46313   3.987  10.465   8.302  0.2860 -0.2298 -0.0065
  344MOL0     C46314   3.933  10.567   8.215  1.4414 -0.1324  0.4142
  344MOL0     C46315   3.790  10.606   8.265  0.3871  0.4259 -0.5488
  344MOL0     C46316   3.685  10.495   8.251  0.3267  0.2267  0.9748
  344MOL0     C46317   3.538  10.538   8.275 -0.0250  0.6502 -0.3575
  344MOL0     C46318   3.451  10.407   8.283  0.2901 -0.4832 -0.2208
  344MOL0     C46319   3.298  10.439   8.275 -0.3419  0.4107  0.2103
  344MOL0     C46320   3.244  10.475   8.411 -0.1769  0.2940 -0.6693
  344MOL0     C46321   3.100  10.519   8.391  0.2710 -0.0336 -0.1212
  344MOL0     N46322   3.030  10.562   8.515  0.8432  0.3028 -0.0291
  344MOL0     C46323   3.044  10.515   8.640  0.3281 -0.0431 -0.5238
  344MOL0     C46324   2.964  10.594   8.715 -0.5590 -0.5435 -0.2272
  344MOL0     C46325   2.963  10.610   8.865  0.2361 -0.3196 -0.6661
  344MOL0     C46326   2.838  10.530   8.917  0.1485 -0.3298 -0.0165
  344MOL0     C46327   2.864  10.383   8.921  0.3315 -0.4298  0.0482
  344MOL0     C46328   2.749  10.298   8.976  1.8666  0.1404 -0.6701
  344MOL0     O46329   2.748  10.326   9.118  0.3195 -0.3500  0.5529
  344MOL0     C46330   2.632  10.371   9.175  0.5134  0.1054 -0.7199
  344MOL0     C46331   2.548  10.465   9.115  0.3231  1.0005  0.3970
  344MOL0     C46332   2.423  10.486   9.176  0.9031 -0.6057  0.0409
  344MOL0     C46333   2.334  10.595   9.118  0.5208  0.1562  0.7739
  344MOL0     C46334   2.373  10.409   9.283 -0.0992 -0.1232  0.6453
  344MOL0     C46335   2.235  10.429   9.333  0.0047  0.5118  0.7746
  344MOL0     O46336   2.193  10.554   9.377 -0.1871  0.9230  0.4844
  344MOL0     C46337   2.060  10.548   9.410  0.1406  0.5735 -0.4775
  344MOL0     C46338   2.026  10.524   9.543  0.2199 -0.2462  0.1627
  344MOL0     C46339   1.891  10.528   9.579 -0.4805  0.0611 -0.0927
  344MOL0     C46340   1.786  10.559   9.491 -0.1877  0.2131  0.2218
  344MOL0     O46341   1.649  10.552   9.534 -0.1613 -0.1222  0.3124
  344MOL0     C46342   1.539  10.522   9.444  0.8542 -0.3122 -0.7603
  344MOL0     C46343   1.404  10.572   9.502  0.9893 -0.8295 -0.2224
  344MOL0     C46344   1.283  10.545   9.408 -0.4319 -0.3758  0.0235
  344MOL0     C46345   1.158  10.592   9.470  0.2107  0.5384 -0.9150
  344MOL0     C46346   1.050  10.624   9.367  0.2544 -0.3791 -0.3737
  344MOL0     C46347   0.910  10.654   9.425  0.0579 -0.1512  1.0539
  344MOL0     C46348   0.806  10.633   9.316  0.0767 -0.3447  0.5737
  344MOL0     C46349   0.677  10.702   9.340  0.3631  0.5269 -0.2992
  344MOL0    Cl46350   0.553  10.656   9.210 -0.4739 -0.1512  0.1110
  344MOL0     C46351   1.826  10.603   9.363 -0.0928  0.4092  0.4826
  344MOL0     C46352   1.962  10.599   9.318  0.7162 -0.4066 -0.0855
  344MOL0     O46353   2.173  10.319   9.340  0.4851  0.6515  0.0378
  344MOL0     C46354   2.458  10.321   9.347 -0.8487  0.9261 -1.1276
  344MOL0     C46355   2.588  10.295   9.288  0.7639  0.0953 -0.0879
  344MOL0     N46356   2.895  10.676   8.633 -0.1057 -0.4091  0.1965
  344MOL0     N46357   2.938  10.656   8.518  0.4341  0.3390 -0.3171
  344MOL0     C46358   4.167  10.323   8.324 -0.1730 -0.4293 -0.6651
  344MOL0     C46359   4.304  10.302   8.342  0.5674  1.1002  0.4304
  344MOL0     C46360   4.728  10.242   8.377  1.6946 -0.1231  0.4900
  344MOL0     C46361   4.826  10.154   8.337 -0.9511  0.7314  0.8519
  344MOL0     C46362   4.941  10.119   8.411  0.5023  0.4609  0.7841
  344MOL0     C46363   4.960  10.179   8.535  0.7665 -0.0360  0.6216
  344MOL0     O46364   5.073  10.144   8.606 -0.6152 -0.1307 -0.5423
  344MOL0     C46365   5.066  10.183   8.740  0.4780  0.2898 -0.2495
  344MOL0     C46366   5.186  10.114   8.827  1.3260 -0.2956 -0.3935
  344MOL0     C46367   5.324  10.139   8.776 -0.5750 -0.1330 -0.6828
  344MOL0     C46368   5.423  10.053   8.853 -0.6396 -0.1450  0.2879
  344MOL0     C46369   5.560  10.088   8.825 -0.6318  0.6889 -0.0497
  344MOL0     C46370   5.679  10.121   8.823 -0.0267  0.3549  0.3454
  344MOL0     C46371   4.868  10.275   8.567  0.3357 -0.1162  0.0092
  344MOL0     C46372   4.753  10.306   8.497  0.1523  0.4406 -0.8503
  344MOL0     H46373   4.420  10.594   8.229 -0.4443 -0.6390 -2.5832
  344MOL0     H46374   4.175  10.649   8.221  0.1408  0.0711 -1.9606
  344MOL0     H46375   3.995  10.658   8.218  1.0823  0.1107  0.5897
  344MOL0     H46376   3.926  10.534   8.111 -2.0010 -0.8278  0.7667
  344MOL0     H46377   3.798  10.629   8.372  2.9229  1.0028 -0.8121
  344MOL0     H46378   3.751  10.692   8.210  0.2817  0.3156 -0.6478
  344MOL0     H46379   3.686  10.460   8.148  0.3245  1.0441  0.6928
  344MOL0     H46380   3.710  10.414   8.321 -1.3652 -1.0640  0.1529
  344MOL0     H46381   3.527  10.589   8.370  1.7916  2.1692 -0.9075
  344MOL0     H46382   3.511  10.617   8.205  2.1137  1.4114 -0.3932
  344MOL0     H46383   3.466  10.342   8.195  1.1433 -0.1892 -0.3079
  344MOL0     H46384   3.478  10.347   8.370 -1.0155  0.7539  1.0833
  344MOL0     H46385   3.279  10.521   8.205 -1.0104  1.2578  1.3383
  344MOL0     H46386   3.238  10.354   8.245  2.6876 -2.1100  0.7525
  344MOL0     H46387   3.247  10.386   8.476 -1.1654  1.0221  0.4213
  344MOL0     H46388   3.309  10.549   8.458  0.0275 -0.2432 -0.0839
  344MOL0     H46389   3.040  10.434   8.356  1.2891 -0.2640 -1.3566
  344MOL0     H46390   3.105  10.592   8.310  2.2407  0.2661  0.2211
  344MOL0     H46391   3.103  10.434   8.682 -0.6741 -0.4933  0.0613
  344MOL0     H46392   3.058  10.576   8.907  0.7412  0.0033 -1.5070
  344MOL0     H46393   2.953  10.716   8.891 -0.9183 -0.4513 -0.5290
  344MOL0     H46394   2.752  10.542   8.850  0.5715 -2.7942 -1.0992
  344MOL0     H46395   2.820  10.569   9.018  2.0412  1.2472 -0.2192
  344MOL0     H46396   2.948  10.359   8.986  0.1980  0.1361  0.4428
  344MOL0     H46397   2.884  10.355   8.818  2.4366 -1.5767  0.7062
  344MOL0     H46398   2.762  10.190   8.964 -0.4478 -0.0169 -2.4225
  344MOL0     H46399   2.653  10.320   8.929  2.1430 -1.2544 -1.9699
  344MOL0     H46400   2.577  10.521   9.027  0.7259  2.4811  1.4232
  344MOL0     H46401   2.308  10.674   9.190 -2.0134 -0.6215  0.7955
  344MOL0     H46402   2.381  10.646   9.033 -0.5271 -1.3141 -0.7449
  344MOL0     H46403   2.241  10.553   9.080  1.3152 -1.2556  0.3448
  344MOL0     H46404   2.102  10.486   9.610  1.7824  0.3644 -1.1716
  344MOL0     H46405   1.862  10.513   9.682 -5.0260 -1.8816 -1.3942
  344MOL0     H46406   1.563  10.566   9.347  1.8465 -2.8556 -1.7330
  344MOL0     H46407   1.535  10.413   9.435  0.4192 -0.4623  0.9063
  344MOL0     H46408   1.373  10.541   9.603 -1.4608  1.7110 -0.0796
  344MOL0     H46409   1.409  10.681   9.512 -2.6772 -0.6127  0.7090
  344MOL0     H46410   1.279  10.438   9.386  0.3933 -0.3155 -0.4653
  344MOL0     H46411   1.302  10.596   9.313 -0.4785  0.6372  0.5488
  344MOL0     H46412   1.134  10.523   9.551 -0.8781  0.1443 -1.5535
  344MOL0     H46413   1.187  10.685   9.520  2.1585 -0.4200 -0.1647
  344MOL0     H46414   1.048  10.546   9.291 -1.3033 -0.9432  0.1912
  344MOL0     H46415   1.079  10.709   9.304  2.7295 -0.8068  0.0870
  344MOL0     H46416   0.880  10.576   9.496 -2.1318 -1.3606 -1.0609
  344MOL0     H46417   0.904  10.750   9.476 -2.7077  0.6420 -0.6223
  344MOL0     H46418   0.785  10.526   9.308 -2.1088  0.1023 -0.3468
  344MOL0     H46419   0.842  10.655   9.215  0.2050 -2.9340 -0.0180
  344MOL0     H46420   0.681  10.811   9.345 -0.4153  0.6178 -1.4527
  344MOL0     H46421   0.632  10.674   9.436  0.5782  5.9859  1.7773
  344MOL0     H46422   1.749  10.635   9.293  0.2498 -2.0726 -1.1414
  344MOL0     H46423   1.991  10.642   9.223  0.0246  2.4666  0.9067
  344MOL0     H46424   2.423  10.264   9.433  0.3419 -1.4717 -2.1366
  344MOL0     H46425   2.666  10.234   9.332 -0.3161 -1.7740 -0.6763
  344MOL0     H46426   4.104  10.240   8.356  2.0878 -2.4265 -1.0397
  344MOL0     H46427   4.347  10.208   8.376 -0.2558  1.0334  1.3193
  344MOL0     H46428   4.804  10.104   8.243 -2.4110  0.8751  1.0896
  344MOL0     H46429   5.004  10.037   8.378 -1.2688 -1.3757  1.7441
  344MOL0     H46430   5.063  10.290   8.763 -0.4240 -0.1549  2.0083
  344MOL0     H46431   4.976  10.148   8.792  0.1386  2.6804  0.8902
  344MOL0     H46432   5.165  10.007   8.826  2.5076 -0.5666  1.0500
  344MOL0     H46433   5.171  10.153   8.928  0.4004 -2.2830  0.2865
  344MOL0     H46434   5.354  10.242   8.797  1.4179 -1.0072  1.1408
  344MOL0     H46435   5.342  10.123   8.670 -0.2932  0.1467 -0.6786
  344MOL0     H46436   5.403   9.947   8.833 -1.4275 -0.3054  1.7503
  344MOL0     H46437   5.410  10.059   8.962 -2.0314 -2.5797  0.3457
  344MOL0     H46438   5.784  10.142   8.828  0.1956 -0.5429 -0.1940
  344MOL0     H46439   4.889  10.328   8.659  3.8982 -1.9217  0.3878
  344MOL0     H46440   4.688  10.382   8.539 -0.0519  0.0369 -0.4235
  345MOL0     O46441   8.855   4.716  10.730 -0.4710 -0.6247  0.0456
  345MOL0     C46442   8.897   4.831  10.761 -0.2464  0.5192 -0.5435
  345MOL0     O46443   8.824   4.932  10.838  0.4641  0.3359  0.3828
  345MOL0     C46444   8.688   4.905  10.853  0.3781  0.3036  0.6356
  345MOL0     C46445   8.632   4.794  10.925  0.1497 -0.0309  0.2883
  345MOL0     C46446   8.494   4.767  10.915  0.1779 -0.3305  0.0689
  345MOL0     C46447   8.413   4.854  10.845 -1.2879 -0.2013 -0.3266
  345MOL0     O46448   8.278   4.820  10.841 -0.4645 -0.6658 -0.2682
  345MOL0     C46449   8.191   4.926  10.814 -0.5922  0.7102  0.3336
  345MOL0     C46450   8.060   4.862  10.817 -0.0418 -0.1014  0.2097
  345MOL0     C46451   7.944   4.956  10.785 -0.2299  0.5182 -0.2034
  345MOL0     C46452   7.910   5.059  10.900  0.0710  0.7192 -0.3566
  345MOL0     C46453   7.776   5.130  10.866 -0.5321 -0.5995 -0.5922
  345MOL0     C46454   7.729   5.228  10.967  0.4343 -0.6948 -1.0221
  345MOL0     C46455   7.752   5.173  11.108  0.1586 -0.3099  0.5389
  345MOL0     C46456   7.686   5.256  11.215  0.2011  0.7259 -0.2165
  345MOL0     N46457   7.543   5.230  11.195  0.0359 -0.0094 -0.9175
  345MOL0     C46458   7.470   5.121  11.237 -0.6007  0.8781 -0.0499
  345MOL0     C46459   7.352   5.168  11.222  0.0512 -0.1963 -0.3403
  345MOL0     C46460   7.228   5.077  11.236 -0.6237  0.4841 -0.1663
  345MOL0     C46461   7.106   5.143  11.308  0.0377 -0.5680 -0.1255
  345MOL0     C46462   6.972   5.073  11.303 -0.3704  0.8893 -0.1015
  345MOL0     C46463   6.857   5.177  11.317  0.0748  0.1764  0.4788
  345MOL0     O46464   6.744   5.092  11.336 -0.2733 -0.4331  0.4096
  345MOL0     C46465   6.628   5.158  11.329 -0.0345 -0.4218 -0.4074
  345MOL0     C46466   6.601   5.294  11.330  0.1871  0.1370  0.8524
  345MOL0     C46467   6.463   5.343  11.321  0.4925  0.2903  0.1803
  345MOL0     C46468   6.453   5.493  11.304  0.3014 -0.0806 -0.0306
  345MOL0     C46469   6.354   5.250  11.333  0.4936 -0.0156 -0.1751
  345MOL0     C46470   6.212   5.286  11.321  0.1095 -0.2391 -0.3365
  345MOL0     O46471   6.132   5.186  11.288  0.4435 -0.1520  0.8084
  345MOL0     C46472   6.002   5.210  11.292  0.1180 -0.0159 -0.3191
  345MOL0     C46473   5.923   5.266  11.193  0.4754 -0.2825  0.3206
  345MOL0     C46474   5.783   5.277  11.216 -0.6269 -0.6438 -0.2849
  345MOL0     C46475   5.725   5.218  11.325 -0.2018 -0.4968  0.1018
  345MOL0     O46476   5.592   5.228  11.334 -0.2948  0.2103  0.4784
  345MOL0     C46477   5.518   5.176  11.445  1.0661  0.8201 -0.3952
  345MOL0     C46478   5.373   5.221  11.452 -0.1744 -0.2885 -0.1940
  345MOL0     C46479   5.291   5.173  11.326  0.8763 -0.1923 -0.4093
  345MOL0     C46480   5.150   5.203  11.348  0.6660 -0.2948 -0.5544
  345MOL0     C46481   5.055   5.180  11.231  1.0700  0.2894  0.2683
  345MOL0     C46482   4.905   5.191  11.260 -0.5610 -0.1579  0.2547
  345MOL0     C46483   4.868   5.300  11.372  0.4945 -0.1182 -0.1669
  345MOL0     C46484   4.718   5.323  11.383  0.8931 -0.1009  0.1030
  345MOL0    Cl46485   4.624   5.177  11.439 -0.3823  0.2879 -0.2565
  345MOL0     C46486   5.810   5.149  11.420  0.6920 -0.5045  0.9565
  345MOL0     C46487   5.946   5.155  11.403  0.2816  0.1422  0.0613
  345MOL0     O46488   6.172   5.400  11.347  0.3481  0.0290 -0.2111
  345MOL0     C46489   6.386   5.110  11.339  0.7888 -0.0995 -0.2793
  345MOL0     C46490   6.516   5.073  11.334 -0.1681  0.5055 -0.7576
  345MOL0     N46491   7.347   5.298  11.167  0.3509 -0.4473  0.6390
  345MOL0     N46492   7.468   5.327  11.142 -0.5086 -0.4771 -0.1247
  345MOL0     C46493   8.470   4.959  10.764  0.8799 -0.2085 -0.6248
  345MOL0     C46494   8.604   4.990  10.778 -0.2084  0.2439 -0.3556
  345MOL0     C46495   9.034   4.871  10.716  0.1821  1.6165  0.7398
  345MOL0     C46496   9.101   4.956  10.795  1.3357  0.4066 -0.1320
  345MOL0     C46497   9.231   5.006  10.754  0.3237 -0.1699  0.5317
  345MOL0     C46498   9.290   4.958  10.639 -0.0115  1.0761  0.8167
  345MOL0     O46499   9.418   4.989  10.626  0.1043 -0.0606  0.3775
  345MOL0     C46500   9.494   4.920  10.524  0.7139 -0.0317  0.4713
  345MOL0     C46501   9.616   5.003  10.511 -0.9085  0.1884  0.5376
  345MOL0     C46502   9.703   4.945  10.406  0.8475 -0.0669  0.7262
  345MOL0     C46503   9.844   5.002  10.416 -0.1070 -1.1072 -0.2796
  345MOL0     C46504   9.924   5.019  10.291 -0.1035  0.5661  0.0733
  345MOL0     C46505   9.971   5.032  10.182  0.1391 -0.0175  0.2923
  345MOL0     C46506   9.216   4.861  10.566  0.0401  0.4217  0.3396
  345MOL0     C46507   9.089   4.819  10.608 -0.9308  0.0518  1.3297
  345MOL0     H46508   8.694   4.722  10.978  1.5192  0.4169 -0.6505
  345MOL0     H46509   8.440   4.683  10.958 -0.4423  0.2532  0.4514
  345MOL0     H46510   8.199   5.003  10.892  1.0869 -1.5667  2.6036
  345MOL0     H46511   8.210   4.960  10.712 -1.6564 -1.5499 -0.6716
  345MOL0     H46512   8.066   4.786  10.738  0.4422  0.7313 -0.5721
  345MOL0     H46513   8.034   4.824  10.916 -2.7882  4.8288  1.7500
  345MOL0     H46514   7.964   5.001  10.688  2.1232  0.0792  0.0025
  345MOL0     H46515   7.857   4.893  10.768  2.7644 -3.0658 -4.5496
  345MOL0     H46516   7.912   4.999  10.991  2.1717 -1.5523 -1.7484
  345MOL0     H46517   7.991   5.132  10.909  0.2701  0.3520  1.0371
  345MOL0     H46518   7.784   5.179  10.768 -1.4304  1.3267  0.2363
  345MOL0     H46519   7.703   5.049  10.864 -0.4830 -0.6328 -1.0487
  345MOL0     H46520   7.778   5.326  10.966 -2.1515  0.7676  1.1980
  345MOL0     H46521   7.627   5.259  10.939  0.2342  0.7077  1.0164
  345MOL0     H46522   7.707   5.074  11.119  2.8188 -1.4827  1.6809
  345MOL0     H46523   7.860   5.177  11.122  0.3186 -0.5458 -0.5308
  345MOL0     H46524   7.715   5.360  11.199  1.9054  0.3971  0.5048
  345MOL0     H46525   7.723   5.221  11.312 -0.3244 -2.0841 -0.9241
  345MOL0     H46526   7.510   5.029  11.279 -4.2915 -2.7093 -3.4865
  345MOL0     H46527   7.194   5.048  11.136 -2.2964  2.1783 -0.1544
  345MOL0     H46528   7.244   4.985  11.294 -0.3386 -0.6499 -1.9362
  345MOL0     H46529   7.099   5.238  11.254  1.7018 -1.2822 -1.6910
  345MOL0     H46530   7.129   5.166  11.413 -1.4491  3.4962 -0.5159
  345MOL0     H46531   6.978   5.005  11.389 -2.0026  3.0248  1.8209
  345MOL0     H46532   6.952   5.022  11.208 -1.5502  0.9549  0.0985
  345MOL0     H46533   6.856   5.245  11.232 -0.1846  0.0622  0.3884
  345MOL0     H46534   6.871   5.237  11.407  0.4106  2.2760 -0.9163
  345MOL0     H46535   6.679   5.367  11.347  1.9919 -1.4618 -0.1084
  345MOL0     H46536   6.552   5.539  11.297  0.2160 -0.0015 -0.8606
  345MOL0     H46537   6.399   5.514  11.211  1.4928  0.5240 -0.6153
  345MOL0     H46538   6.401   5.541  11.388  2.6905  0.2071  1.3667
  345MOL0     H46539   5.960   5.307  11.100 -0.9852 -1.2057 -0.7189
  345MOL0     H46540   5.722   5.334  11.146  0.4404  3.9300  2.1064
  345MOL0     H46541   5.520   5.067  11.436  0.0262  0.6508  1.1599
  345MOL0     H46542   5.562   5.214  11.538 -3.5249  0.7498  2.0697
  345MOL0     H46543   5.334   5.192  11.550  0.2969 -1.6694 -0.3969
  345MOL0     H46544   5.366   5.330  11.449 -0.7488 -0.2781 -4.1663
  345MOL0     H46545   5.308   5.067  11.304  2.2156 -0.0495 -0.1555
  345MOL0     H46546   5.327   5.239  11.247 -0.4823 -0.2879 -1.1286
  345MOL0     H46547   5.115   5.142  11.432 -0.8390  2.5482  1.0594
  345MOL0     H46548   5.154   5.307  11.383  0.5513  0.6721 -3.1775
  345MOL0     H46549   5.067   5.083  11.183 -0.6651  0.0780  0.1928
  345MOL0     H46550   5.079   5.260  11.160 -0.3376  2.4412  2.0848
  345MOL0     H46551   4.847   5.210  11.168  1.6601 -0.0239 -1.1936
  345MOL0     H46552   4.875   5.092  11.293  0.1648 -1.4510 -2.6093
  345MOL0     H46553   4.926   5.388  11.342 -0.5165 -0.1099 -2.2940
  345MOL0     H46554   4.909   5.265  11.467 -1.3412 -0.2571  0.6185
  345MOL0     H46555   4.670   5.361  11.292 -0.8016  1.2004  1.4585
  345MOL0     H46556   4.709   5.407  11.452 -1.5771  0.7140 -1.0808
  345MOL0     H46557   5.772   5.098  11.508  0.8491  0.4916  1.6157
  345MOL0     H46558   6.007   5.107  11.478  0.6404 -0.0314 -0.3334
  345MOL0     H46559   6.304   5.039  11.346 -0.3028  1.1848  0.6125
  345MOL0     H46560   6.525   4.965  11.340 -0.4652  0.5358  0.6913
  345MOL0     H46561   8.416   5.031  10.702 -1.4167 -0.9948  0.3577
  345MOL0     H46562   8.655   5.068  10.723 -2.1032  2.8582  1.3717
  345MOL0     H46563   9.066   5.002  10.887 -2.9792 -0.9328 -0.8633
  345MOL0     H46564   9.269   5.084  10.819  0.4498 -0.2010  0.4976
  345MOL0     H46565   9.516   4.820  10.563 -0.8015  1.1058  4.8318
  345MOL0     H46566   9.435   4.912  10.432 -0.1401  0.2860  0.9779
  345MOL0     H46567   9.665   5.013  10.608 -0.1555  1.6890  0.0454
  345MOL0     H46568   9.583   5.101  10.476  2.0408  0.5492 -1.6601
  345MOL0     H46569   9.659   4.961  10.307  1.4734  0.2810  0.4950
  345MOL0     H46570   9.706   4.836  10.412 -1.5354 -0.2436 -0.2251
  345MOL0     H46571   9.905   4.936  10.479 -1.9054  0.6901  3.6715
  345MOL0     H46572   9.836   5.095  10.473 -3.1999 -0.9080 -0.8851
  345MOL0     H46573  10.011   5.054  10.085 -0.0564  0.5154  0.3280
  345MOL0     H46574   9.253   4.806  10.481  0.7985  1.3246  0.0726
  345MOL0     H46575   9.041   4.747  10.543  2.3905 -1.5725  0.4607
  346MOL0     O46576  10.932   5.569   6.026 -0.5592  0.7577 -0.0948
  346MOL0     C46577  10.883   5.482   5.955 -0.6742 -1.0716  0.1330
  346MOL0     O46578  10.801   5.499   5.839  0.1364 -0.2491 -0.7099
  346MOL0     C46579  10.761   5.627   5.821  0.2019  0.3530  0.2765
  346MOL0     C46580  10.632   5.656   5.849 -0.3633  0.1650 -0.8893
  346MOL0     C46581  10.582   5.779   5.808 -0.1740 -0.5047  0.4875
  346MOL0     C46582  10.661   5.881   5.756 -0.5730 -0.4354  1.0868
  346MOL0     O46583  10.600   5.999   5.757  0.6516 -0.1485  0.5706
  346MOL0     C46584  10.686   6.103   5.710  0.4705 -0.9818 -0.0105
  346MOL0     C46585  10.685   6.126   5.566  0.4816 -0.3217  0.3914
  346MOL0     C46586  10.553   6.176   5.498  0.5192  0.2847  0.2889
  346MOL0     C46587  10.584   6.188   5.349 -0.2103  0.2951 -0.9521
  346MOL0     C46588  10.457   6.237   5.280  0.7494 -0.2135  0.1494
  346MOL0     C46589  10.460   6.233   5.137  0.4743 -0.5334 -0.1200
  346MOL0     C46590  10.451   6.092   5.078  0.3784  0.1352  0.1351
  346MOL0     C46591  10.436   6.099   4.926 -0.5927  0.1607 -0.7258
  346MOL0     N46592  10.310   6.155   4.884 -0.1118  0.1301  0.2727
  346MOL0     C46593  10.187   6.100   4.913  0.3355  0.6511  0.3256
  346MOL0     C46594  10.110   6.204   4.874  0.0469  0.6076  0.3480
  346MOL0     C46595   9.963   6.212   4.884  0.6442  0.7526  0.0632
  346MOL0     C46596   9.885   6.227   4.751 -0.8932  0.1502 -0.1409
  346MOL0     C46597   9.959   6.164   4.631 -1.1253 -0.0168 -0.1188
  346MOL0     C46598   9.877   6.159   4.501  0.2280 -0.4853 -0.1985
  346MOL0     O46599   9.798   6.042   4.485 -0.3819 -0.5127 -0.8262
  346MOL0     C46600   9.682   6.047   4.413 -0.3738 -0.7738 -0.8845
  346MOL0     C46601   9.660   6.112   4.292  0.5590  0.3462  0.3429
  346MOL0     C46602   9.530   6.128   4.242  0.1168 -0.5536 -0.0869
  346MOL0     C46603   9.518   6.206   4.113  0.3755 -0.0455 -0.9688
  346MOL0     C46604   9.417   6.069   4.300 -0.2293  0.3576  0.0386
  346MOL0     C46605   9.269   6.074   4.257 -0.2058  0.5506 -0.2020
  346MOL0     O46606   9.185   6.001   4.337  0.1368  0.0291  0.0531
  346MOL0     C46607   9.050   5.993   4.319 -0.5914 -0.3191 -0.4126
  346MOL0     C46608   8.971   6.109   4.297  0.0184 -0.0587 -0.0385
  346MOL0     C46609   8.832   6.096   4.285  0.3536 -0.3704 -0.5797
  346MOL0     C46610   8.762   5.976   4.314  0.3383 -0.5901  0.9032
  346MOL0     O46611   8.625   5.962   4.309  0.3223  0.3891 -0.0089
  346MOL0     C46612   8.546   6.080   4.296 -0.2345  0.1502 -0.4010
  346MOL0     C46613   8.399   6.052   4.289  0.6389 -0.1625  0.3602
  346MOL0     C46614   8.356   5.970   4.163 -0.1893  0.3572 -0.0036
  346MOL0     C46615   8.211   5.923   4.167 -0.7486  0.7793 -0.0105
  346MOL0     C46616   8.198   5.834   4.050  0.0711 -0.3685  0.5443
  346MOL0     C46617   8.049   5.796   4.033 -0.5926 -0.3735 -0.2368
  346MOL0     C46618   7.976   5.741   4.158 -0.1282 -0.1291 -0.0800
  346MOL0     C46619   7.856   5.648   4.137 -0.8019 -0.5449 -0.5995
  346MOL0    Cl46620   7.756   5.603   4.279 -0.1708 -0.1544  0.0358
  346MOL0     C46621   8.841   5.858   4.334  0.4150 -0.0714  0.0134
  346MOL0     C46622   8.983   5.867   4.330 -0.0363  0.3103  0.0409
  346MOL0     O46623   9.234   6.144   4.157  0.5093  0.0218  0.9333
  346MOL0     C46624   9.452   5.998   4.417  0.7535  0.6608  0.6697
  346MOL0     C46625   9.575   5.984   4.478 -0.0476  0.6938  0.6863
  346MOL0     N46626  10.178   6.319   4.836 -0.6021 -0.0090 -0.0670
  346MOL0     N46627  10.301   6.287   4.831 -0.5651 -0.7324  0.1039
  346MOL0     C46628  10.793   5.845   5.728  0.5534  0.1305  0.3153
  346MOL0     C46629  10.843   5.714   5.751 -0.4882  0.1556  0.3321
  346MOL0     C46630  10.924   5.350   5.989  0.2706  0.1604 -0.4412
  346MOL0     C46631  10.895   5.239   5.905 -0.1509 -0.3014  0.5326
  346MOL0     C46632  10.961   5.121   5.916 -0.1833 -0.5215  0.4857
  346MOL0     C46633  11.062   5.103   6.011  0.3429 -0.3506  0.3038
  346MOL0     O46634  11.131   4.986   5.998 -0.2684  0.2345  0.7694
  346MOL0     C46635  11.251   4.963   6.074 -0.0833 -0.2861  0.0039
  346MOL0     C46636  11.330   4.842   6.038 -0.4526  0.8129  0.0798
  346MOL0     C46637  11.266   4.705   6.077  0.8126  0.2627  0.3692
  346MOL0     C46638  11.321   4.590   5.989  0.2618 -0.2389 -0.4344
  346MOL0     C46639  11.470   4.582   5.986 -0.8219 -0.4881  0.2043
  346MOL0     C46640  11.586   4.591   5.991 -1.3477  0.0883  0.4824
  346MOL0     C46641  11.083   5.199   6.107 -0.1318  0.3433 -0.1605
  346MOL0     C46642  11.018   5.327   6.088  0.2761  1.0969  0.7995
  346MOL0     H46643  10.566   5.574   5.876 -1.1434  1.1646  0.3890
  346MOL0     H46644  10.476   5.788   5.828  0.1007  1.1908  1.3035
  346MOL0     H46645  10.650   6.194   5.759  1.1359 -2.2022  2.9249
  346MOL0     H46646  10.785   6.090   5.754  0.0813 -1.3151  0.7841
  346MOL0     H46647  10.748   6.213   5.548 -0.8491  1.1641  2.4296
  346MOL0     H46648  10.734   6.044   5.512  0.7616  1.0650 -1.5676
  346MOL0     H46649  10.469   6.109   5.516  0.6728  0.9430  4.4173
  346MOL0     H46650  10.544   6.276   5.541  0.3441  0.1645  0.5294
  346MOL0     H46651  10.664   6.261   5.336 -1.2094  2.2863  2.8078
  346MOL0     H46652  10.625   6.091   5.318  1.4147  0.6240  0.0410
  346MOL0     H46653  10.375   6.173   5.316  2.0285 -1.6962  0.5457
  346MOL0     H46654  10.461   6.344   5.302  4.5408 -0.0165 -0.7299
  346MOL0     H46655  10.380   6.295   5.094  1.1766  0.7625  0.3676
  346MOL0     H46656  10.546   6.284   5.093  0.4392 -0.4234 -0.0657
  346MOL0     H46657  10.545   6.043   5.106  1.5815  1.7077 -0.9306
  346MOL0     H46658  10.367   6.036   5.120  1.0328 -0.5898  0.5081
  346MOL0     H46659  10.460   6.005   4.876  1.9606  0.8776 -1.0137
  346MOL0     H46660  10.513   6.168   4.889 -0.2187  0.9449  1.3533
  346MOL0     H46661  10.156   6.001   4.944 -0.8314  1.4295  1.8070
  346MOL0     H46662   9.931   6.116   4.925  4.2073 -0.2455  0.8317
  346MOL0     H46663   9.930   6.294   4.949  0.0310  0.4784  0.1119
  346MOL0     H46664   9.860   6.329   4.720 -2.1999 -0.4912 -1.3140
  346MOL0     H46665   9.795   6.167   4.768 -1.7867  1.5325  0.1992
  346MOL0     H46666   9.984   6.063   4.666  3.1358  0.3064 -1.6842
  346MOL0     H46667  10.054   6.209   4.602  0.6002 -3.1518  0.1777
  346MOL0     H46668   9.949   6.170   4.420 -0.3780  2.8094 -0.4450
  346MOL0     H46669   9.818   6.251   4.497 -0.6142 -0.9675  0.5201
  346MOL0     H46670   9.744   6.165   4.248 -0.6498  2.2795  0.2167
  346MOL0     H46671   9.453   6.155   4.041  1.6347  0.9705 -2.9139
  346MOL0     H46672   9.476   6.306   4.126  1.1938  0.1481  0.3741
  346MOL0     H46673   9.618   6.210   4.069 -0.4359 -1.5483 -3.1352
  346MOL0     H46674   9.012   6.209   4.299 -2.4584  1.0325 -0.3249
  346MOL0     H46675   8.774   6.187   4.274 -1.9024 -1.2209  2.8439
  346MOL0     H46676   8.566   6.144   4.382 -1.0603 -2.3162  1.7489
  346MOL0     H46677   8.576   6.134   4.205 -0.0842  1.2956  0.3152
  346MOL0     H46678   8.367   5.991   4.374 -0.9091  0.1016 -0.0001
  346MOL0     H46679   8.346   6.148   4.291  0.2680 -0.2432 -2.0495
  346MOL0     H46680   8.421   5.882   4.165 -0.7495 -0.0777  2.5757
  346MOL0     H46681   8.383   6.025   4.072 -0.5129  1.4365  0.5475
  346MOL0     H46682   8.199   5.875   4.265  1.1931 -0.8010 -0.4865
  346MOL0     H46683   8.140   6.006   4.165  0.2392  1.6353 -0.9899
  346MOL0     H46684   8.255   5.741   4.047 -1.4606 -1.3306  0.0816
  346MOL0     H46685   8.230   5.879   3.955  0.2105 -1.3559  0.1096
  346MOL0     H46686   7.981   5.873   3.996 -1.8384 -0.2964  2.0218
  346MOL0     H46687   8.046   5.713   3.962 -1.1909 -0.7415  0.2076
  346MOL0     H46688   7.943   5.830   4.214  0.8255 -0.7192  1.4939
  346MOL0     H46689   8.049   5.680   4.212  2.1165 -1.0600 -3.7883
  346MOL0     H46690   7.887   5.557   4.084  0.3431 -2.9094  3.7010
  346MOL0     H46691   7.799   5.711   4.068 -2.1276  1.6064  2.2827
  346MOL0     H46692   8.787   5.766   4.353 -3.4107  2.3420  2.1230
  346MOL0     H46693   9.025   5.768   4.344  0.2347  0.1809 -1.5021
  346MOL0     H46694   9.375   5.946   4.474 -0.2606 -1.1833 -2.1188
  346MOL0     H46695   9.581   5.928   4.571  1.7418 -1.4241 -0.6072
  346MOL0     H46696  10.869   5.912   5.689  1.8242 -0.6422  1.3935
  346MOL0     H46697  10.946   5.689   5.729 -0.7635 -2.3083  1.5438
  346MOL0     H46698  10.814   5.236   5.833  1.3090  2.2082 -1.3816
  346MOL0     H46699  10.944   5.039   5.846 -1.6337 -2.1439  2.6215
  346MOL0     H46700  11.321   5.045   6.059  1.1833 -1.6328 -1.8372
  346MOL0     H46701  11.217   4.956   6.178  0.7790 -1.6422  0.2193
  346MOL0     H46702  11.429   4.848   6.083  0.1711 -0.9288 -0.9881
  346MOL0     H46703  11.355   4.840   5.932  3.7348 -1.7711  0.8715
  346MOL0     H46704  11.158   4.711   6.067  0.8380  2.9584  0.8855
  346MOL0     H46705  11.275   4.681   6.183  0.2731 -0.4619  0.2547
  346MOL0     H46706  11.292   4.614   5.886  0.3071  1.3004 -0.1176
  346MOL0     H46707  11.284   4.493   6.021  1.9006 -1.4186 -1.9249
  346MOL0     H46708  11.692   4.606   6.005 -0.9341 -2.6921  0.9461
  346MOL0     H46709  11.163   5.189   6.180 -1.4357 -3.1289  0.9914
  346MOL0     H46710  11.047   5.407   6.154 -0.5984 -0.7580  3.6011
  347MOL0     O46711   5.707   9.753   0.354  0.7209  0.7322 -0.1849
  347MOL0     C46712   5.738   9.856   0.297 -0.2563 -0.2972 -0.2729
  347MOL0     O46713   5.657   9.964   0.276  0.4334 -0.1930 -0.6081
  347MOL0     C46714   5.521   9.962   0.306 -0.6063 -0.1356  0.1809
  347MOL0     C46715   5.468  10.074   0.376  0.5694 -0.2887  0.9623
  347MOL0     C46716   5.332  10.084   0.403  0.1591 -0.1638  0.1309
  347MOL0     C46717   5.250   9.971   0.376  0.2269  0.3932 -0.7960
  347MOL0     O46718   5.123   9.949   0.415  1.1809  0.0643 -0.2005
  347MOL0     C46719   5.068  10.046   0.503 -0.2478 -0.2150 -0.5559
  347MOL0     C46720   4.916  10.012   0.527 -0.2195 -0.6921 -0.3723
  347MOL0     C46721   4.849  10.142   0.593 -0.2405  0.0655  0.0709
  347MOL0     C46722   4.785  10.239   0.495 -0.2458 -0.2065 -0.1340
  347MOL0     C46723   4.721  10.363   0.561  0.7214 -0.3600  0.5112
  347MOL0     C46724   4.689  10.471   0.452  0.5789 -0.2188 -0.7158
  347MOL0     C46725   4.639  10.600   0.513 -1.4290 -0.1787 -0.5046
  347MOL0     C46726   4.493  10.637   0.478 -1.1946  0.6988  0.0326
  347MOL0     N46727   4.407  10.544   0.549 -0.0187 -0.1837 -0.0521
  347MOL0     C46728   4.332  10.570   0.656 -0.3633  0.5645 -0.6698
  347MOL0     C46729   4.248  10.468   0.684 -0.4523  0.1653 -1.0929
  347MOL0     C46730   4.136  10.445   0.781 -0.8067  0.7223  0.0337
  347MOL0     C46731   4.007  10.517   0.734  0.7233 -0.4242 -0.4471
  347MOL0     C46732   3.886  10.477   0.818  0.5182 -0.1634  0.4515
  347MOL0     C46733   3.753  10.522   0.767  1.0467 -0.1288 -0.1944
  347MOL0     O46734   3.641  10.461   0.829  1.0630  0.2708 -0.4587
  347MOL0     C46735   3.521  10.470   0.769  0.0781  0.5073 -0.0751
  347MOL0     C46736   3.410  10.415   0.838  0.7873 -0.7947  0.6298
  347MOL0     C46737   3.274  10.426   0.794 -0.3899  0.3067 -0.0115
  347MOL0     C46738   3.170  10.374   0.889  0.5293 -0.3682  0.3318
  347MOL0     C46739   3.243  10.499   0.675 -0.8625 -0.2310  0.3653
  347MOL0     C46740   3.104  10.520   0.626  0.6894  0.4231 -0.6567
  347MOL0     O46741   3.109  10.549   0.494  0.1746  0.1705 -0.1008
  347MOL0     C46742   3.008  10.599   0.410 -0.5376  0.2728 -0.3865
  347MOL0     C46743   3.048  10.620   0.275  0.1870  0.5626 -0.4182
  347MOL0     C46744   2.960  10.661   0.176 -0.3593 -0.8173 -0.2583
  347MOL0     C46745   2.827  10.685   0.209  0.1757  0.2942 -0.1335
  347MOL0     O46746   2.739  10.715   0.105 -0.4787  0.2643  0.0806
  347MOL0     C46747   2.600  10.681   0.123 -0.4875 -0.8693 -0.1433
  347MOL0     C46748   2.531  10.671  -0.012 -0.2323  0.7501 -0.0557
  347MOL0     C46749   2.587  10.776  -0.119  1.3430  0.7936 -0.7821
  347MOL0     C46750   2.492  10.771  -0.243 -0.1015 -0.7573 -0.5657
  347MOL0     C46751   2.371  10.864  -0.221 -0.0201  0.5826  0.6221
  347MOL0     C46752   2.294  10.900  -0.346  0.3785 -0.4845  0.4669
  347MOL0     C46753   2.169  10.976  -0.296 -0.1913 -0.4284 -0.1876
  347MOL0     C46754   2.071  11.019  -0.404 -1.0234 -0.1896  0.0606
  347MOL0    Cl46755   2.156  11.096  -0.546 -0.2647  0.5860 -0.1948
  347MOL0     C46756   2.790  10.670   0.349  1.0043 -0.2969 -0.0911
  347MOL0     C46757   2.878  10.624   0.446 -0.2514  0.7659  0.6265
  347MOL0     O46758   3.007  10.516   0.700 -0.8757  0.5355  0.0321
  347MOL0     C46759   3.358  10.551   0.610 -0.0241 -0.3844 -0.4661
  347MOL0     C46760   3.485  10.538   0.658  0.3520 -0.4406 -0.5399
  347MOL0     N46761   4.273  10.370   0.590 -0.4554  0.0562 -0.1477
  347MOL0     N46762   4.372  10.417   0.514 -0.2303 -0.2613 -0.7039
  347MOL0     C46763   5.305   9.861   0.322  0.2051  0.5056 -0.1463
  347MOL0     C46764   5.441   9.855   0.278 -0.3630 -0.0789 -0.2112
  347MOL0     C46765   5.877   9.867   0.254  0.6572  0.2155  0.5633
  347MOL0     C46766   5.921   9.971   0.166  0.3496 -0.5790  0.6103
  347MOL0     C46767   6.047   9.975   0.110  0.8868  0.1931 -0.8487
  347MOL0     C46768   6.146   9.882   0.135  0.2015 -0.2148  1.0462
  347MOL0     O46769   6.272   9.907   0.081  0.3428 -0.3285  0.0597
  347MOL0     C46770   6.371   9.813   0.117  0.4061  0.0577  0.4344
  347MOL0     C46771   6.501   9.860   0.076  0.4324 -1.0362 -0.5202
  347MOL0     C46772   6.533  10.005   0.140 -0.2432 -0.1306 -0.5077
  347MOL0     C46773   6.677  10.040   0.123  0.7694  0.4537 -0.7240
  347MOL0     C46774   6.709  10.055  -0.014  0.6939 -0.6859  0.4836
  347MOL0     C46775   6.733  10.042  -0.138 -0.2683  0.3011  0.3152
  347MOL0     C46776   6.110   9.786   0.228  0.5961  1.0925 -0.5982
  347MOL0     C46777   5.980   9.777   0.285  0.8551 -0.1577  0.2043
  347MOL0     H46778   5.530  10.158   0.403  2.0715 -0.6463 -1.0990
  347MOL0     H46779   5.297  10.172   0.455  1.8029  1.4753 -1.3574
  347MOL0     H46780   5.125  10.032   0.596  0.1508  0.8502 -0.6326
  347MOL0     H46781   5.083  10.147   0.463  2.2718 -0.0907  0.4654
  347MOL0     H46782   4.878   9.982   0.428 -0.2022  1.0911 -0.9494
  347MOL0     H46783   4.897   9.927   0.594  0.2466 -1.1992 -0.8640
  347MOL0     H46784   4.768  10.118   0.663 -0.0719  1.5569  0.8208
  347MOL0     H46785   4.916  10.202   0.656 -1.2688  0.5665  0.7126
  347MOL0     H46786   4.865  10.269   0.427 -0.9881 -2.9296 -2.4342
  347MOL0     H46787   4.723  10.182   0.424  1.6124 -1.7242 -0.6293
  347MOL0     H46788   4.623  10.339   0.604 -0.0702 -0.0752 -1.0805
  347MOL0     H46789   4.782  10.401   0.644  2.1959  0.9009 -1.0736
  347MOL0     H46790   4.775  10.499   0.389  0.8306 -0.8325 -0.6514
  347MOL0     H46791   4.615  10.419   0.391  0.9432 -0.0759 -1.2930
  347MOL0     H46792   4.654  10.596   0.621  0.1389 -2.0164 -0.7242
  347MOL0     H46793   4.711  10.672   0.472  1.6911 -1.0691  2.8804
  347MOL0     H46794   4.481  10.638   0.370  2.4518  0.4360 -0.4954
  347MOL0     H46795   4.472  10.738   0.515  2.2475  0.4550  3.2533
  347MOL0     H46796   4.334  10.670   0.697  1.2666 -0.0239  0.8264
  347MOL0     H46797   4.125  10.336   0.786  0.3655  0.6367  3.4137
  347MOL0     H46798   4.160  10.464   0.886 -0.2593  0.9115 -0.1205
  347MOL0     H46799   3.992  10.481   0.632  0.1021 -0.3618 -0.3819
  347MOL0     H46800   4.025  10.625   0.726  0.4791 -0.3014  0.4757
  347MOL0     H46801   3.900  10.519   0.918  1.0616  1.8147 -0.4083
  347MOL0     H46802   3.897  10.369   0.830  4.6551 -0.1857 -1.9034
  347MOL0     H46803   3.742  10.482   0.666 -2.6335  3.2511 -1.4061
  347MOL0     H46804   3.745  10.631   0.770  1.7742 -0.0782  0.5452
  347MOL0     H46805   3.434  10.346   0.918 -1.7280 -0.4239  1.8119
  347MOL0     H46806   3.223  10.316   0.965  0.3786 -0.9923 -0.0292
  347MOL0     H46807   3.109  10.454   0.932  2.5245  3.1631 -2.8167
  347MOL0     H46808   3.108  10.302   0.836  1.5870 -0.2145 -1.1689
  347MOL0     H46809   3.141  10.573   0.244 -1.5681 -2.9060 -0.9757
  347MOL0     H46810   2.995  10.662   0.073  2.3604 -0.7543  0.5955
  347MOL0     H46811   2.591  10.587   0.178 -0.8244 -3.0766 -3.6967
  347MOL0     H46812   2.546  10.760   0.175 -1.3546 -1.9730  0.6822
  347MOL0     H46813   2.556  10.570  -0.046 -1.4208 -0.0509  1.3430
  347MOL0     H46814   2.426  10.696   0.002 -0.6328 -0.8201 -0.1136
  347MOL0     H46815   2.691  10.756  -0.144  1.1462 -3.7646  1.1160
  347MOL0     H46816   2.598  10.878  -0.079  3.5351  1.8558 -3.7835
  347MOL0     H46817   2.547  10.817  -0.325  1.6455 -2.0790 -0.1866
  347MOL0     H46818   2.461  10.669  -0.265  1.4842 -1.2644 -0.6055
  347MOL0     H46819   2.407  10.956  -0.174 -2.4073  2.1677 -0.4514
  347MOL0     H46820   2.311  10.817  -0.143  1.9111  0.4696  2.1133
  347MOL0     H46821   2.346  10.970  -0.411  1.0510 -0.6762  0.7974
  347MOL0     H46822   2.278  10.810  -0.406  1.3177 -1.6071  1.8388
  347MOL0     H46823   2.195  11.064  -0.236 -2.2733 -0.5529  0.9945
  347MOL0     H46824   2.121  10.905  -0.228 -4.3427  2.7442  0.6372
  347MOL0     H46825   2.009  11.099  -0.364  2.2212  1.3110  2.5775
  347MOL0     H46826   2.019  10.928  -0.437 -3.9816 -0.2476  4.1232
  347MOL0     H46827   2.688  10.697   0.376  0.6706 -2.4129  1.0116
  347MOL0     H46828   2.844  10.611   0.549 -2.3098  0.2363 -0.0707
  347MOL0     H46829   3.349  10.621   0.528 -0.1235  2.1493  1.5897
  347MOL0     H46830   3.545  10.605   0.596 -0.1466  1.2187  0.7041
  347MOL0     H46831   5.242   9.773   0.310  1.2264 -0.2283 -0.2640
  347MOL0     H46832   5.492   9.773   0.228  0.9657  0.5931 -0.0108
  347MOL0     H46833   5.852  10.053   0.150  0.5598 -0.3293  0.9793
  347MOL0     H46834   6.085  10.058   0.052  4.5828 -0.4318  0.4632
  347MOL0     H46835   6.369   9.799   0.225 -1.3807 -1.7143  0.2454
  347MOL0     H46836   6.344   9.727   0.055 -1.4388 -0.3211  1.6667
  347MOL0     H46837   6.516   9.858  -0.032  0.9253 -0.7904 -0.4583
  347MOL0     H46838   6.566   9.782   0.116 -0.0440 -1.2863 -0.2248
  347MOL0     H46839   6.495  10.007   0.242 -3.2842 -0.9854 -1.5028
  347MOL0     H46840   6.474  10.080   0.087 -3.9344 -1.8904  0.7915
  347MOL0     H46841   6.734   9.959   0.169  0.3606  0.7136  0.2770
  347MOL0     H46842   6.702  10.127   0.184 -0.5789  0.8348 -0.6717
  347MOL0     H46843   6.751  10.031  -0.243 -5.2044 -1.1497 -0.6487
  347MOL0     H46844   6.180   9.713   0.267 -1.7339 -0.2264  1.3587
  347MOL0     H46845   5.958   9.685   0.338  1.5460 -0.8549 -0.6782
  348MOL0     O46846   9.226   0.537   4.572 -0.3622  0.7449  0.2879
  348MOL0     C46847   9.273   0.640   4.522  0.5537 -0.3937 -0.4809
  348MOL0     O46848   9.210   0.761   4.503  0.5043 -0.0847 -0.0756
  348MOL0     C46849   9.086   0.776   4.547  0.3966 -0.3988 -0.0799
  348MOL0     C46850   8.989   0.815   4.451  0.5710 -0.5550  0.2721
  348MOL0     C46851   8.862   0.848   4.492  0.4220 -0.5258  0.3144
  348MOL0     C46852   8.818   0.847   4.622  0.2053 -0.5207 -0.2935
  348MOL0     O46853   8.696   0.900   4.656  0.3358  0.4079  0.1086
  348MOL0     C46854   8.604   0.823   4.738  0.1775  0.4170 -0.2152
  348MOL0     C46855   8.460   0.849   4.701  0.2241  0.3629  0.0083
  348MOL0     C46856   8.413   0.763   4.588  0.3665 -0.3321  0.1641
  348MOL0     C46857   8.267   0.781   4.547  1.2088 -1.0500  0.0941
  348MOL0     C46858   8.198   0.923   4.566  0.7769 -0.0762  0.6379
  348MOL0     C46859   8.066   0.953   4.494  0.8682  0.2336 -0.3228
  348MOL0     C46860   7.958   0.861   4.541  0.4903  0.3070  0.0049
  348MOL0     C46861   7.818   0.907   4.475 -0.7129 -0.4401  0.6617
  348MOL0     N46862   7.700   0.838   4.519  0.4267 -0.6777 -0.0686
  348MOL0     C46863   7.667   0.707   4.503 -0.6503 -0.3427  0.1622
  348MOL0     C46864   7.537   0.695   4.546 -0.0766 -0.2126 -0.0704
  348MOL0     C46865   7.451   0.573   4.557 -1.0353  0.3187 -0.1076
  348MOL0     C46866   7.354   0.554   4.452 -0.5543 -1.0054  0.8246
  348MOL0     C46867   7.224   0.627   4.470  0.6305 -0.5795  0.0805
  348MOL0     C46868   7.149   0.653   4.331 -0.7837  0.8916 -0.3639
  348MOL0     O46869   7.023   0.589   4.325  0.2899 -0.2276 -0.6394
  348MOL0     C46870   6.921   0.653   4.379  0.4581 -0.5470  0.4205
  348MOL0     C46871   6.919   0.767   4.459 -0.0088  0.2739  0.4249
  348MOL0     C46872   6.801   0.844   4.491  0.0446 -0.2293 -0.0767
  348MOL0     C46873   6.817   0.986   4.557  0.0773  0.2594  0.0513
  348MOL0     C46874   6.674   0.790   4.449 -0.1162 -1.3944  0.2082
  348MOL0     C46875   6.544   0.841   4.488  0.2843  0.6693  0.5400
  348MOL0     O46876   6.441   0.774   4.418  0.1453 -0.1798 -0.8482
  348MOL0     C46877   6.306   0.814   4.424  0.3095  0.4175 -0.8523
  348MOL0     C46878   6.225   0.821   4.307  1.4141 -0.2803  0.3732
  348MOL0     C46879   6.089   0.850   4.316  1.4429  0.1627  0.5402
  348MOL0     C46880   6.028   0.877   4.440  0.8410 -0.3720  0.3847
  348MOL0     O46881   5.893   0.913   4.439  0.0374  0.6371  0.5354
  348MOL0     C46882   5.815   0.934   4.555  0.1316 -0.2828  0.0226
  348MOL0     C46883   5.663   0.953   4.525 -0.1293  0.5177  0.2925
  348MOL0     C46884   5.641   1.063   4.434  0.0620 -0.1169  0.5335
  348MOL0     C46885   5.484   1.064   4.417  0.1281 -0.9756 -0.1729
  348MOL0     C46886   5.421   1.173   4.333 -0.2777 -0.0928 -0.0623
  348MOL0     C46887   5.269   1.178   4.347  0.2186 -0.4177  0.5711
  348MOL0     C46888   5.227   1.316   4.320 -0.7624 -0.1222  0.0704
  348MOL0     C46889   5.265   1.364   4.181 -0.8463  0.0996  0.2066
  348MOL0    Cl46890   5.195   1.530   4.182 -0.0585 -0.0615 -0.5044
  348MOL0     C46891   6.111   0.890   4.553 -0.0276  0.0576 -0.3453
  348MOL0     C46892   6.251   0.867   4.544  0.1010 -0.1493  0.4848
  348MOL0     O46893   6.530   0.922   4.581 -0.2744  0.3009 -0.0028
  348MOL0     C46894   6.684   0.676   4.369  0.2203  0.8464  0.5441
  348MOL0     C46895   6.799   0.615   4.332  0.1806  0.4552  0.4455
  348MOL0     N46896   7.496   0.817   4.583  0.2937 -0.2952 -0.5461
  348MOL0     N46897   7.589   0.906   4.560  1.1878  0.1650  0.5699
  348MOL0     C46898   8.911   0.805   4.716 -0.8640 -0.1376 -0.2553
  348MOL0     C46899   9.044   0.767   4.678  0.1984 -0.4072  0.4268
  348MOL0     C46900   9.407   0.621   4.471 -0.0214 -0.6830  0.3218
  348MOL0     C46901   9.487   0.524   4.517 -0.8551 -0.0941  0.5987
  348MOL0     C46902   9.621   0.509   4.470  0.5230 -0.6341 -0.2794
  348MOL0     C46903   9.668   0.594   4.370  0.3054 -1.2613 -0.6112
  348MOL0     O46904   9.804   0.595   4.339 -0.2589 -0.7287  0.1924
  348MOL0     C46905   9.887   0.491   4.377  0.3684 -0.3078  0.5290
  348MOL0     C46906  10.015   0.513   4.294  0.8620 -0.0806 -0.7487
  348MOL0     C46907  10.112   0.395   4.310 -0.5155  0.4835  0.3525
  348MOL0     C46908  10.219   0.402   4.200  0.4985  0.2874  1.2349
  348MOL0     C46909  10.331   0.323   4.230 -0.6900  0.0191  0.4777
  348MOL0     C46910  10.437   0.272   4.257  0.3545 -0.3117  0.3731
  348MOL0     C46911   9.587   0.704   4.323  0.6613  1.1562  0.3540
  348MOL0     C46912   9.453   0.711   4.370 -0.6331 -0.2684  0.5154
  348MOL0     H46913   9.019   0.803   4.347  2.7240 -1.8074  0.9705
  348MOL0     H46914   8.783   0.871   4.421  0.2645  0.2558  0.7344
  348MOL0     H46915   8.633   0.718   4.748  1.9764  0.8787 -0.2373
  348MOL0     H46916   8.613   0.874   4.834  0.2391 -0.0854  0.0471
  348MOL0     H46917   8.399   0.833   4.791  0.2047  3.1760  0.5682
  348MOL0     H46918   8.451   0.955   4.676 -0.0622  0.3638  0.1099
  348MOL0     H46919   8.479   0.798   4.507  1.9116  1.1664  1.9685
  348MOL0     H46920   8.439   0.659   4.608 -0.7132 -0.9408 -1.3402
  348MOL0     H46921   8.247   0.739   4.448 -1.9867 -0.5087  0.4044
  348MOL0     H46922   8.206   0.718   4.612  0.3034  3.9207  4.8570
  348MOL0     H46923   8.173   0.941   4.671 -1.1072  1.4324 -0.0098
  348MOL0     H46924   8.268   1.001   4.535 -1.4309  0.5603 -3.5753
  348MOL0     H46925   8.035   1.057   4.505 -2.9328 -0.8943  0.9924
  348MOL0     H46926   8.085   0.943   4.386  0.4776 -1.2371 -0.2800
  348MOL0     H46927   7.975   0.754   4.525 -0.6401  0.0314  0.5620
  348MOL0     H46928   7.940   0.868   4.648  2.1305  0.0073  0.3164
  348MOL0     H46929   7.833   0.893   4.368  1.1344  2.1115  0.4952
  348MOL0     H46930   7.803   1.015   4.486  0.1698 -0.2738  0.2436
  348MOL0     H46931   7.729   0.628   4.462  1.2561  0.0751  2.0530
  348MOL0     H46932   7.527   0.494   4.556  3.0767  3.8775 -1.7312
  348MOL0     H46933   7.398   0.577   4.653  1.2751 -0.3212  1.2961
  348MOL0     H46934   7.327   0.451   4.430 -1.2723  0.0070 -4.2244
  348MOL0     H46935   7.396   0.581   4.355 -0.5767 -2.5565  0.3702
  348MOL0     H46936   7.242   0.721   4.524  0.7950  0.1765 -1.2392
  348MOL0     H46937   7.161   0.557   4.526 -4.2753  3.0784 -0.1958
  348MOL0     H46938   7.205   0.621   4.243 -1.9481 -0.6391 -0.5960
  348MOL0     H46939   7.135   0.760   4.316  1.3626  1.3253  0.2959
  348MOL0     H46940   7.013   0.806   4.497  0.9155 -1.3333 -0.1252
  348MOL0     H46941   6.827   0.975   4.665  0.7188  0.8600  0.0590
  348MOL0     H46942   6.900   1.048   4.522 -1.4140  2.2966 -0.0632
  348MOL0     H46943   6.725   1.042   4.540 -0.8191 -0.7109  1.4599
  348MOL0     H46944   6.277   0.802   4.214  2.0559 -3.0425  1.2211
  348MOL0     H46945   6.016   0.846   4.236 -1.2807  1.2055  2.7979
  348MOL0     H46946   5.833   0.843   4.613  0.9430 -0.2682 -0.1983
  348MOL0     H46947   5.851   1.017   4.617 -4.6744  1.8933  0.3265
  348MOL0     H46948   5.626   0.865   4.471  1.0103  1.5837 -2.4030
  348MOL0     H46949   5.611   0.970   4.620 -2.9762  0.8682 -1.2436
  348MOL0     H46950   5.692   1.051   4.338 -1.3504  0.5811 -0.3353
  348MOL0     H46951   5.672   1.158   4.478  0.0286  0.1736 -0.0583
  348MOL0     H46952   5.448   0.967   4.383 -0.0983 -1.5198  1.5420
  348MOL0     H46953   5.452   1.089   4.519  1.0791 -2.1219  0.4285
  348MOL0     H46954   5.453   1.170   4.229 -0.9384  1.5785 -0.3556
  348MOL0     H46955   5.459   1.269   4.369  1.2881 -1.2311  1.4945
  348MOL0     H46956   5.221   1.112   4.275 -0.0450  1.9308 -1.5429
  348MOL0     H46957   5.233   1.155   4.448 -0.3000  3.9308  1.5868
  348MOL0     H46958   5.274   1.383   4.393 -3.2849  2.5588 -0.5385
  348MOL0     H46959   5.120   1.336   4.336 -0.8455 -0.4570 -0.0632
  348MOL0     H46960   5.214   1.301   4.109 -1.2338 -0.1430  0.6895
  348MOL0     H46961   5.371   1.361   4.151 -0.9874  0.9967 -0.4329
  348MOL0     H46962   6.072   0.931   4.646 -0.4994 -0.4095 -0.3289
  348MOL0     H46963   6.299   0.881   4.641 -2.3801  1.4029  1.5885
  348MOL0     H46964   6.589   0.626   4.354 -0.4111  1.6601  1.6091
  348MOL0     H46965   6.802   0.525   4.271 -2.2264  0.5496  0.1008
  348MOL0     H46966   8.886   0.813   4.821  0.3614 -0.3148  0.0670
  348MOL0     H46967   9.120   0.751   4.753  3.1524  3.0467 -1.5139
  348MOL0     H46968   9.459   0.456   4.597 -2.2238  1.3376  1.3794
  348MOL0     H46969   9.688   0.438   4.518  1.7701  0.5534 -0.2171
  348MOL0     H46970   9.910   0.488   4.484  3.5674  1.3524  0.0043
  348MOL0     H46971   9.853   0.396   4.336  0.5741  0.3890 -1.3349
  348MOL0     H46972  10.068   0.603   4.326 -1.5277  0.2231  2.9305
  348MOL0     H46973   9.985   0.527   4.190 -2.6402 -0.3073  0.1184
  348MOL0     H46974  10.057   0.301   4.312 -2.2966  1.3190 -2.6498
  348MOL0     H46975  10.168   0.403   4.403  4.3881  0.5838 -2.2491
  348MOL0     H46976  10.249   0.507   4.193  1.3629  0.0495  1.3500
  348MOL0     H46977  10.181   0.383   4.100 -0.2567  0.5628  1.4572
  348MOL0     H46978  10.533   0.232   4.281  2.1731  2.1290 -2.1501
  348MOL0     H46979   9.628   0.785   4.263  0.9018 -0.0395 -1.1422
  348MOL0     H46980   9.392   0.793   4.334  0.4215  0.1489 -0.4096
  349MOL0     O46981   0.329   3.919   6.192  0.0349 -0.0748 -0.7408
  349MOL0     C46982   0.399   3.992   6.125 -0.7461  0.4291  1.0275
  349MOL0     O46983   0.359   4.077   6.023 -0.0352 -0.2217 -0.2518
  349MOL0     C46984   0.225   4.067   5.985 -0.4567 -0.3800 -0.2837
  349MOL0     C46985   0.180   4.185   5.922 -0.7305 -0.2573  0.6181
  349MOL0     C46986   0.056   4.195   5.862  0.9584  0.3958  0.6671
  349MOL0     C46987  -0.021   4.074   5.855 -0.5518  0.2019  1.0131
  349MOL0     O46988  -0.138   4.057   5.790 -0.2752  0.3985  0.2313
  349MOL0     C46989  -0.230   4.164   5.751 -0.0666  0.6670 -0.0523
  349MOL0     C46990  -0.367   4.118   5.717  0.5995  0.0670 -0.2292
  349MOL0     C46991  -0.422   4.013   5.822  0.0515 -0.1131  0.1395
  349MOL0     C46992  -0.564   3.979   5.779  0.4845  0.3627  0.0490
  349MOL0     C46993  -0.631   3.876   5.869 -0.0260  0.5767  0.4231
  349MOL0     C46994  -0.785   3.892   5.853  0.4825 -0.6869  1.1815
  349MOL0     C46995  -0.864   3.786   5.931 -0.0797 -0.2426 -0.1593
  349MOL0     C46996  -0.852   3.815   6.086  0.2729  0.2413 -0.4002
  349MOL0     N46997  -0.950   3.736   6.167  0.2237 -0.1532  0.0933
  349MOL0     C46998  -1.083   3.747   6.166  0.3030 -1.2182 -0.6159
  349MOL0     C46999  -1.132   3.673   6.270  1.2547 -0.0051 -0.2711
  349MOL0     C47000  -1.274   3.659   6.312  0.0755  0.8713  0.2623
  349MOL0     C47001  -1.370   3.601   6.198  0.3751  0.9819  0.2654
  349MOL0     C47002  -1.525   3.597   6.230 -0.3528 -0.3835 -0.7143
  349MOL0     C47003  -1.607   3.668   6.129  0.6570 -0.0673 -0.3369
  349MOL0     O47004  -1.750   3.647   6.153 -0.3352 -0.0097  0.1818
  349MOL0     C47005  -1.815   3.549   6.085  0.6538 -0.5578  0.5245
  349MOL0     C47006  -1.749   3.441   6.021  0.0338 -0.1603  0.0292
  349MOL0     C47007  -1.821   3.331   5.970 -0.5085 -0.0539 -0.8243
  349MOL0     C47008  -1.735   3.218   5.920  0.3483 -0.9685 -0.4864
  349MOL0     C47009  -1.961   3.330   5.969  0.1695  0.0371  0.2947
  349MOL0     C47010  -2.055   3.218   5.916  0.3181 -1.0332  0.2901
  349MOL0     O47011  -2.193   3.249   5.909 -0.2622 -0.3071  0.0896
  349MOL0     C47012  -2.284   3.146   5.878 -0.9630 -0.1453  0.6784
  349MOL0     C47013  -2.284   3.023   5.947 -0.1243  0.1247 -0.3167
  349MOL0     C47014  -2.373   2.925   5.911 -0.0853 -0.0590 -0.3912
  349MOL0     C47015  -2.459   2.937   5.800 -0.5370  0.6108 -0.0087
  349MOL0     O47016  -2.566   2.857   5.776  0.0992  0.4871  0.2230
  349MOL0     C47017  -2.576   2.740   5.858  0.4483 -0.5052 -0.1989
  349MOL0     C47018  -2.703   2.661   5.809  0.2124 -0.5197 -0.0418
  349MOL0     C47019  -2.832   2.747   5.810 -0.5083 -0.4667  0.6730
  349MOL0     C47020  -2.963   2.674   5.779  0.2493  0.2640  0.0983
  349MOL0     C47021  -3.082   2.769   5.803  1.0203  0.0818 -0.4071
  349MOL0     C47022  -3.204   2.681   5.760 -0.0330  0.4668  0.5089
  349MOL0     C47023  -3.326   2.749   5.799 -0.2691 -0.7304 -0.3590
  349MOL0     C47024  -3.449   2.661   5.769  0.4030  0.0400 -0.2149
  349MOL0    Cl47025  -3.595   2.747   5.827  0.3278 -0.2594  0.2221
  349MOL0     C47026  -2.467   3.064   5.740  0.8797  0.6212 -0.5995
  349MOL0     C47027  -2.380   3.169   5.775 -0.0445 -0.1633 -0.7301
  349MOL0     O47028  -2.005   3.106   5.892 -0.6752 -1.1266  0.1407
  349MOL0     C47029  -2.028   3.443   6.026  0.0400  0.2489 -0.7101
  349MOL0     C47030  -1.958   3.550   6.083 -0.3613 -0.4824 -0.2928
  349MOL0     N47031  -1.027   3.604   6.327  0.2841 -0.2086  0.1001
  349MOL0     N47032  -0.921   3.644   6.261 -0.8840  0.1574 -0.7611
  349MOL0     C47033   0.023   3.951   5.906 -0.3688 -0.7925  0.1894
  349MOL0     C47034   0.151   3.951   5.971 -0.1738  0.6692  0.4964
  349MOL0     C47035   0.542   4.002   6.157  0.3579  0.3421 -0.1221
  349MOL0     C47036   0.598   3.948   6.268  0.1661 -0.4537  0.3898
  349MOL0     C47037   0.728   3.953   6.298  0.2035 -0.4013 -0.5240
  349MOL0     C47038   0.823   4.020   6.222  0.2030 -0.0014 -0.4304
  349MOL0     O47039   0.959   4.028   6.247 -0.0026  0.8248  0.1289
  349MOL0     C47040   1.015   3.989   6.378 -0.3264 -0.1882  0.4210
  349MOL0     C47041   1.165   4.027   6.381 -0.0117  0.0884  0.2318
  349MOL0     C47042   1.241   3.946   6.499  0.1746  0.4472  0.5102
  349MOL0     C47043   1.192   4.001   6.623 -0.3531  0.2754 -0.4017
  349MOL0     C47044   1.263   3.937   6.740  0.0459 -0.2776 -0.0466
  349MOL0     C47045   1.320   3.903   6.839  0.3570 -0.2842 -0.4094
  349MOL0     C47046   0.772   4.066   6.102 -0.5368 -0.5912  0.0832
  349MOL0     C47047   0.632   4.063   6.070 -0.7739  0.9877 -0.2069
  349MOL0     H47048   0.246   4.271   5.912 -0.2265 -0.3524  2.6570
  349MOL0     H47049   0.030   4.289   5.814 -0.7760 -0.0769  0.6233
  349MOL0     H47050  -0.227   4.237   5.833 -2.0279  1.3823 -0.5467
  349MOL0     H47051  -0.195   4.214   5.660  0.7585  0.1114 -0.0513
  349MOL0     H47052  -0.434   4.204   5.712  0.3213 -0.1929 -1.2898
  349MOL0     H47053  -0.366   4.075   5.616 -0.2785 -0.0021 -0.2156
  349MOL0     H47054  -0.368   3.919   5.837 -1.7507 -0.7907  3.3678
  349MOL0     H47055  -0.406   4.060   5.920  1.3331 -0.6006  0.1868
  349MOL0     H47056  -0.621   4.071   5.788  1.5676  0.9701  0.9023
  349MOL0     H47057  -0.567   3.942   5.676 -0.7969 -0.0732  0.2341
  349MOL0     H47058  -0.602   3.773   5.847  0.8480  0.9626 -0.2812
  349MOL0     H47059  -0.601   3.906   5.970 -1.7731  2.5880  0.4238
  349MOL0     H47060  -0.818   3.995   5.869  1.0699  0.4170 -3.1978
  349MOL0     H47061  -0.805   3.884   5.745  0.4624 -0.3177  1.1564
  349MOL0     H47062  -0.966   3.814   5.903  0.3336 -0.1302 -1.6543
  349MOL0     H47063  -0.837   3.682   5.913 -3.5771 -1.2362 -0.2563
  349MOL0     H47064  -0.856   3.923   6.098  0.2932  0.1454  0.5167
  349MOL0     H47065  -0.756   3.783   6.127 -1.9651 -3.0873  3.0027
  349MOL0     H47066  -1.133   3.818   6.101 -1.3868  0.3756  2.2094
  349MOL0     H47067  -1.275   3.588   6.395 -0.4565 -2.3751 -2.3199
  349MOL0     H47068  -1.306   3.758   6.348  0.0309 -0.2901  3.8473
  349MOL0     H47069  -1.329   3.504   6.171  0.7448  0.8035  1.4184
  349MOL0     H47070  -1.363   3.663   6.107  1.4742 -1.6263 -1.5496
  349MOL0     H47071  -1.542   3.643   6.327 -0.9321  1.9896 -1.8768
  349MOL0     H47072  -1.548   3.490   6.237 -3.2651  0.2053 -0.4467
  349MOL0     H47073  -1.575   3.649   6.027 -1.0790  1.3632 -1.2045
  349MOL0     H47074  -1.591   3.775   6.146  0.2288 -0.3201  2.0500
  349MOL0     H47075  -1.642   3.450   6.007  0.6663 -2.7711  2.3863
  349MOL0     H47076  -1.766   3.198   5.817 -1.7803 -0.7946  0.0720
  349MOL0     H47077  -1.630   3.249   5.914 -0.0854  0.4490 -1.5019
  349MOL0     H47078  -1.742   3.135   5.989 -0.4526  0.4136  1.1713
  349MOL0     H47079  -2.224   3.013   6.037 -0.9113 -1.8557  0.0479
  349MOL0     H47080  -2.371   2.839   5.978  1.1538  0.8896  0.8736
  349MOL0     H47081  -2.490   2.673   5.848 -0.4222 -1.3389 -3.4855
  349MOL0     H47082  -2.593   2.771   5.961 -0.8364 -0.2361 -0.4717
  349MOL0     H47083  -2.681   2.625   5.708  0.1673  0.1646 -0.3029
  349MOL0     H47084  -2.702   2.567   5.865  0.3593 -1.3280 -1.3536
  349MOL0     H47085  -2.808   2.839   5.755 -1.8170 -0.9857 -0.8350
  349MOL0     H47086  -2.855   2.772   5.915  1.0806 -0.8070  1.1265
  349MOL0     H47087  -2.967   2.636   5.676 -1.5951  3.8655 -1.3504
  349MOL0     H47088  -2.973   2.588   5.846  0.2294  0.6438  0.5865
  349MOL0     H47089  -3.082   2.862   5.746 -0.3143  1.0409  1.0734
  349MOL0     H47090  -3.105   2.798   5.906 -1.3227 -0.5718 -0.6862
  349MOL0     H47091  -3.209   2.661   5.653  0.7878 -1.1986  0.7425
  349MOL0     H47092  -3.199   2.585   5.812  0.1876  0.8467  1.2080
  349MOL0     H47093  -3.339   2.839   5.738  0.6713 -0.1815  0.2343
  349MOL0     H47094  -3.318   2.766   5.907 -1.3075  0.6658 -0.4702
  349MOL0     H47095  -3.429   2.570   5.824  0.7922 -0.4175 -1.0894
  349MOL0     H47096  -3.463   2.644   5.662 -1.2825  4.3418 -0.9003
  349MOL0     H47097  -2.543   3.080   5.663  0.1379 -0.4398 -0.1097
  349MOL0     H47098  -2.369   3.262   5.718  2.0396  0.6297  0.8474
  349MOL0     H47099  -2.136   3.451   6.015  0.1538  0.5737 -1.6733
  349MOL0     H47100  -2.007   3.636   6.127 -0.0527  0.1427 -1.1392
  349MOL0     H47101  -0.044   3.866   5.908 -1.3736 -0.0052  1.8358
  349MOL0     H47102   0.192   3.854   5.996  2.3222  0.7744 -2.5902
  349MOL0     H47103   0.537   3.887   6.333  1.1363 -0.9348  0.8781
  349MOL0     H47104   0.770   3.903   6.385  1.4297  2.4436  0.6808
  349MOL0     H47105   0.959   4.037   6.458 -3.6554 -1.4301 -1.0078
  349MOL0     H47106   0.997   3.884   6.402 -1.2735  0.2468  1.7255
  349MOL0     H47107   1.183   4.134   6.366 -1.1999  0.1021 -1.4013
  349MOL0     H47108   1.204   3.985   6.288 -0.4503  0.5719 -0.1730
  349MOL0     H47109   1.345   3.977   6.486 -0.6621  4.2714  1.4808
  349MOL0     H47110   1.220   3.840   6.488 -0.4324  0.4756  1.2664
  349MOL0     H47111   1.085   3.982   6.633 -0.3561 -0.1169 -1.1271
  349MOL0     H47112   1.201   4.109   6.637 -1.8207  0.1487  2.2124
  349MOL0     H47113   1.387   3.866   6.915 -0.8582  1.8865  1.8832
  349MOL0     H47114   0.841   4.109   6.030 -2.8033 -2.9473 -3.8449
  349MOL0     H47115   0.602   4.113   5.978  1.8540  1.5863 -0.8196
  350MOL0     O47116   3.296   5.423   4.765  0.3978 -0.4063 -0.1896
  350MOL0     C47117   3.327   5.441   4.650 -0.1466  0.1158  0.4196
  350MOL0     O47118   3.239   5.465   4.549  0.3788 -0.1449 -0.0330
  350MOL0     C47119   3.112   5.508   4.591 -0.1535  0.2457 -0.2355
  350MOL0     C47120   3.075   5.641   4.591  0.5165  0.3163  0.0757
  350MOL0     C47121   2.946   5.687   4.628  0.2344 -0.0728 -1.0669
  350MOL0     C47122   2.847   5.594   4.662  1.0842 -0.7260 -0.4149
  350MOL0     O47123   2.708   5.632   4.677  0.3198  0.4224 -0.2227
  350MOL0     C47124   2.658   5.757   4.726 -0.3091  0.4702 -0.0460
  350MOL0     C47125   2.508   5.763   4.695 -0.1635 -0.2354 -0.1177
  350MOL0     C47126   2.482   5.854   4.569 -0.5730  0.2525 -0.4769
  350MOL0     C47127   2.340   5.828   4.518 -0.4956  0.0230 -0.9686
  350MOL0     C47128   2.287   5.937   4.432  0.0640 -0.0519  0.3933
  350MOL0     C47129   2.155   5.909   4.350  0.5830 -0.7233  0.1313
  350MOL0     C47130   2.101   6.041   4.278 -0.4556  0.9701  0.2873
  350MOL0     C47131   2.014   6.129   4.369  0.0792  0.1198  0.5945
  350MOL0     N47132   1.933   6.222   4.290 -0.5119  0.1292  0.0927
  350MOL0     C47133   1.875   6.195   4.172  0.1081 -0.1832  0.2781
  350MOL0     C47134   1.788   6.291   4.151  0.5173 -1.2925 -0.2704
  350MOL0     C47135   1.680   6.297   4.051  0.0100 -0.0592 -0.2308
  350MOL0     C47136   1.542   6.267   4.123 -0.0955 -0.7429  0.6523
  350MOL0     C47137   1.427   6.267   4.015  0.2291 -1.2266 -0.6230
  350MOL0     C47138   1.286   6.235   4.072  0.2128  0.4251  0.0773
  350MOL0     O47139   1.196   6.258   3.973 -0.0045  0.0404 -0.0792
  350MOL0     C47140   1.066   6.257   4.015  0.6367  0.0397  0.0046
  350MOL0     C47141   1.008   6.204   4.131 -0.3940  0.0774 -0.2816
  350MOL0     C47142   0.866   6.188   4.145 -0.1309  0.1177  0.1447
  350MOL0     C47143   0.810   6.146   4.283 -0.1146  0.4138  0.9278
  350MOL0     C47144   0.782   6.233   4.044 -0.2301 -1.5531  0.0409
  350MOL0     C47145   0.631   6.213   4.038 -0.8513  0.0359 -0.2646
  350MOL0     O47146   0.577   6.220   3.910  0.2593 -0.2111  0.4307
  350MOL0     C47147   0.440   6.204   3.897  0.1709 -0.0168  0.3954
  350MOL0     C47148   0.391   6.080   3.883 -0.2672  0.7885  0.0989
  350MOL0     C47149   0.252   6.055   3.877 -0.1907 -0.2673  0.3406
  350MOL0     C47150   0.166   6.161   3.894 -0.1446  0.1386  0.5051
  350MOL0     O47151   0.029   6.144   3.889 -0.8313  0.2055 -0.5268
  350MOL0     C47152  -0.032   6.018   3.935  0.3149 -0.4572 -0.0408
  350MOL0     C47153  -0.169   6.012   3.894  0.4068  0.8027  0.0135
  350MOL0     C47154  -0.232   5.882   3.936  0.3248 -0.0175 -0.3735
  350MOL0     C47155  -0.379   5.889   3.895 -0.3662  1.6064 -0.4307
  350MOL0     C47156  -0.463   5.762   3.943 -0.3840 -0.4590  0.1361
  350MOL0     C47157  -0.612   5.796   3.934  0.0948  0.5459 -0.6385
  350MOL0     C47158  -0.712   5.689   3.978  0.3553 -0.2322 -0.6368
  350MOL0     C47159  -0.711   5.673   4.126 -0.4156 -0.2661 -0.2088
  350MOL0    Cl47160  -0.762   5.820   4.206  0.3067 -0.0673  0.2415
  350MOL0     C47161   0.217   6.286   3.917 -0.5215 -0.4256  0.1415
  350MOL0     C47162   0.354   6.319   3.920 -0.4378 -0.1333  0.3052
  350MOL0     O47163   0.571   6.191   4.144  0.1484 -0.1788 -0.2673
  350MOL0     C47164   0.847   6.296   3.935 -0.1933 -0.0186  0.2740
  350MOL0     C47165   0.978   6.302   3.916 -1.2585  0.6526  0.0132
  350MOL0     N47166   1.792   6.380   4.255 -0.0507 -0.0113 -0.5769
  350MOL0     N47167   1.876   6.332   4.345  0.0238  0.0455  0.5016
  350MOL0     C47168   2.884   5.459   4.668 -0.3743 -0.3176 -0.4113
  350MOL0     C47169   3.015   5.422   4.650  0.4911 -0.3270  0.2406
  350MOL0     C47170   3.465   5.446   4.617  0.2864  0.2957 -0.9446
  350MOL0     C47171   3.558   5.469   4.719 -0.3260  0.3173 -0.2567
  350MOL0     C47172   3.691   5.476   4.699 -0.7515  0.0923  0.1657
  350MOL0     C47173   3.751   5.444   4.575 -0.5944 -0.7944 -0.2545
  350MOL0     O47174   3.885   5.440   4.570  0.5424  0.4570 -0.0404
  350MOL0     C47175   3.934   5.384   4.449 -1.1630  0.3207 -0.8279
  350MOL0     C47176   4.090   5.374   4.464  0.1497  0.2448  0.1587
  350MOL0     C47177   4.123   5.237   4.526 -0.2725  0.3601  0.0188
  350MOL0     C47178   4.272   5.230   4.554 -0.1334  0.1175 -0.4431
  350MOL0     C47179   4.318   5.326   4.651 -0.5427 -0.9603 -0.9089
  350MOL0     C47180   4.371   5.396   4.735 -0.3232 -0.4657 -0.1380
  350MOL0     C47181   3.657   5.415   4.472  0.5710  0.0990  0.2748
  350MOL0     C47182   3.520   5.431   4.491  0.4110  0.8260  0.1021
  350MOL0     H47183   3.133   5.718   4.542 -0.6440  1.0479 -0.2009
  350MOL0     H47184   2.926   5.794   4.636  0.1538 -0.2164  1.2220
  350MOL0     H47185   2.677   5.761   4.834  1.0415  0.6559 -0.2652
  350MOL0     H47186   2.705   5.849   4.691  2.3247 -0.2029  1.4088
  350MOL0     H47187   2.467   5.663   4.677  1.7898 -0.8405 -1.5067
  350MOL0     H47188   2.467   5.818   4.781  1.3764 -1.8444  1.7563
  350MOL0     H47189   2.502   5.957   4.599  0.3991  0.1495 -0.7258
  350MOL0     H47190   2.560   5.828   4.497 -0.3900 -2.5757  0.5919
  350MOL0     H47191   2.351   5.734   4.462  0.6583 -0.9333  0.7682
  350MOL0     H47192   2.270   5.821   4.601 -2.2445  1.2623 -2.2886
  350MOL0     H47193   2.265   6.019   4.501  2.5433 -0.4144  1.7326
  350MOL0     H47194   2.360   5.966   4.356 -0.5496  1.9416  0.5059
  350MOL0     H47195   2.176   5.829   4.279  0.4531 -1.0359  0.4445
  350MOL0     H47196   2.077   5.886   4.423  0.2236 -0.0232 -0.0205
  350MOL0     H47197   2.181   6.099   4.233 -0.8756  0.1286 -1.6460
  350MOL0     H47198   2.043   6.005   4.193  2.5733 -2.9914 -0.3923
  350MOL0     H47199   2.072   6.184   4.443  2.8255  1.9982 -2.6568
  350MOL0     H47200   1.940   6.058   4.406 -1.1787  1.1694  0.1645
  350MOL0     H47201   1.887   6.113   4.102 -2.2848  0.6500 -1.2493
  350MOL0     H47202   1.662   6.399   4.016 -0.8907 -1.2590 -3.7462
  350MOL0     H47203   1.707   6.232   3.966  0.5986 -0.6572  0.4027
  350MOL0     H47204   1.524   6.342   4.201 -1.8365  1.6521 -1.8308
  350MOL0     H47205   1.546   6.169   4.171 -1.6606 -0.7839  0.7471
  350MOL0     H47206   1.454   6.188   3.944  0.4377 -0.3417 -1.5475
  350MOL0     H47207   1.424   6.362   3.961  1.1972 -2.3464 -2.7447
  350MOL0     H47208   1.272   6.302   4.158  1.4914  1.2718 -0.3388
  350MOL0     H47209   1.279   6.130   4.102  1.9447  0.5242  0.9647
  350MOL0     H47210   1.076   6.172   4.209 -1.5321 -0.5282  0.5016
  350MOL0     H47211   0.720   6.203   4.306 -0.8360  0.4904 -1.7282
  350MOL0     H47212   0.779   6.042   4.274  1.8303 -0.3086  1.9872
  350MOL0     H47213   0.880   6.152   4.367  0.6970 -0.6917  0.3672
  350MOL0     H47214   0.460   5.997   3.884  0.4929  1.3420 -1.6900
  350MOL0     H47215   0.216   5.959   3.843  1.3369 -0.6697 -0.2005
  350MOL0     H47216   0.017   5.938   3.877 -1.2434 -3.0362  2.0147
  350MOL0     H47217  -0.026   6.011   4.044  0.5270 -0.7169 -0.0668
  350MOL0     H47218  -0.216   6.096   3.947  0.0900 -0.1540  1.2812
  350MOL0     H47219  -0.188   6.028   3.787 -0.1752  1.5292  0.2166
  350MOL0     H47220  -0.220   5.878   4.045 -1.6598 -1.2464 -0.1492
  350MOL0     H47221  -0.188   5.795   3.886  1.2704  1.5119 -2.3275
  350MOL0     H47222  -0.419   5.985   3.930 -0.3491  1.2986  0.4452
  350MOL0     H47223  -0.375   5.893   3.786  0.5321  2.2454 -0.3854
  350MOL0     H47224  -0.437   5.727   4.043 -1.2647  0.5962  0.7627
  350MOL0     H47225  -0.437   5.682   3.873 -0.7344 -0.0922 -0.4341
  350MOL0     H47226  -0.628   5.892   3.985 -0.2105 -1.5075  3.5672
  350MOL0     H47227  -0.631   5.821   3.829 -1.1009 -0.9473 -0.8038
  350MOL0     H47228  -0.689   5.593   3.930  1.0143 -0.2306 -0.3375
  350MOL0     H47229  -0.812   5.722   3.949  0.5300 -0.0244 -1.0220
  350MOL0     H47230  -0.613   5.638   4.158  0.1478  0.8650 -0.6182
  350MOL0     H47231  -0.783   5.595   4.151 -2.4428  1.4981 -0.2665
  350MOL0     H47232   0.154   6.373   3.933 -1.7958 -1.1187 -0.8698
  350MOL0     H47233   0.391   6.416   3.952 -1.7504 -0.4884  3.2257
  350MOL0     H47234   0.790   6.327   3.848  1.0985 -1.4910 -1.1564
  350MOL0     H47235   1.030   6.345   3.832  2.4184 -2.2033  0.6072
  350MOL0     H47236   2.808   5.384   4.687  0.6476 -0.9127  1.5026
  350MOL0     H47237   3.044   5.319   4.671  0.0722 -0.5633 -0.2933
  350MOL0     H47238   3.530   5.508   4.817  0.0910  1.4677 -0.5710
  350MOL0     H47239   3.763   5.504   4.775  1.5169 -1.2923 -1.3392
  350MOL0     H47240   3.883   5.290   4.430  0.0179 -0.1310 -1.9722
  350MOL0     H47241   3.920   5.449   4.362 -1.1189  0.1354 -0.9729
  350MOL0     H47242   4.122   5.452   4.535  0.8749 -2.4004  2.9828
  350MOL0     H47243   4.138   5.383   4.367 -2.2780  1.5467 -1.0200
  350MOL0     H47244   4.079   5.152   4.472 -1.0270  2.1913 -2.4328
  350MOL0     H47245   4.074   5.232   4.624 -0.3683  0.8371 -0.0016
  350MOL0     H47246   4.335   5.247   4.466 -0.5875  1.2001 -0.5694
  350MOL0     H47247   4.283   5.131   4.598 -0.9755  0.6367  0.9767
  350MOL0     H47248   4.416   5.451   4.816  0.8507  0.3261 -1.2809
  350MOL0     H47249   3.696   5.383   4.376 -0.6279  1.7272 -0.7956
  350MOL0     H47250   3.440   5.427   4.417  1.8200  3.0542 -1.6913
  351MOL0     O47251   1.892   1.739  10.081 -0.1713  0.3938 -0.4113
  351MOL0     C47252   1.950   1.806  10.164  0.3726 -0.3001 -0.4727
  351MOL0     O47253   1.895   1.844  10.283 -0.3990  0.4240  0.3953
  351MOL0     C47254   1.760   1.813  10.296  1.0523 -0.0406 -0.1634
  351MOL0     C47255   1.718   1.690  10.329 -0.6131 -0.8779 -0.0402
  351MOL0     C47256   1.589   1.659  10.365  0.1253 -0.2899  0.6584
  351MOL0     C47257   1.491   1.761  10.362 -0.1068 -0.6189 -0.5220
  351MOL0     O47258   1.358   1.741  10.398 -0.0760  0.0907 -0.4725
  351MOL0     C47259   1.322   1.629  10.474 -0.0471  0.4267  0.0887
  351MOL0     C47260   1.201   1.646  10.563 -0.1841  0.4390 -0.5915
  351MOL0     C47261   1.076   1.672  10.476  0.3525  1.5198  0.9157
  351MOL0     C47262   1.018   1.530  10.449  0.2765  1.1184 -0.3971
  351MOL0     C47263   0.886   1.529  10.372 -0.7375  0.6245 -0.0242
  351MOL0     C47264   0.835   1.381  10.348  0.0448 -0.1942  0.1207
  351MOL0     C47265   0.688   1.380  10.293 -0.5503  0.1886 -0.2674
  351MOL0     C47266   0.573   1.417  10.390 -0.8805 -0.4311 -0.0367
  351MOL0     N47267   0.437   1.414  10.331  0.2985 -0.6911 -0.5766
  351MOL0     C47268   0.312   1.388  10.393 -0.2310 -0.1423  0.0622
  351MOL0     C47269   0.215   1.379  10.303 -0.4476 -0.0991 -0.5138
  351MOL0     C47270   0.069   1.330  10.318  0.2831 -0.2476 -0.7077
  351MOL0     C47271  -0.003   1.443  10.383  0.5404 -0.0912  0.0260
  351MOL0     C47272  -0.139   1.393  10.437 -0.6482 -0.2225 -0.9399
  351MOL0     C47273  -0.218   1.519  10.498 -0.9908  0.5300 -0.2281
  351MOL0     O47274  -0.287   1.483  10.623 -0.3564 -0.4385  0.2179
  351MOL0     C47275  -0.390   1.398  10.621  0.0769 -0.3015  1.0730
  351MOL0     C47276  -0.452   1.365  10.741  0.5216 -0.7795  0.3881
  351MOL0     C47277  -0.562   1.284  10.747  0.1975  0.5909 -0.6899
  351MOL0     C47278  -0.620   1.270  10.886  0.5606 -0.0392 -0.5897
  351MOL0     C47279  -0.602   1.210  10.637  0.4149 -0.3043  0.8822
  351MOL0     C47280  -0.719   1.115  10.637 -0.7719  0.2202 -0.4335
  351MOL0     O47281  -0.768   1.090  10.519  0.5025 -0.3276  0.0799
  351MOL0     C47282  -0.865   0.995  10.504 -0.2098  0.7839 -1.0638
  351MOL0     C47283  -0.984   0.987  10.586 -0.1895 -0.6791 -0.1022
  351MOL0     C47284  -1.088   0.898  10.554 -0.8756 -0.7260  0.0057
  351MOL0     C47285  -1.080   0.805  10.453 -0.5033  0.2187 -0.1859
  351MOL0     O47286  -1.190   0.726  10.444 -0.5590  0.6541  0.1702
  351MOL0     C47287  -1.225   0.657  10.319 -0.0224  0.4222 -0.3331
  351MOL0     C47288  -1.261   0.755  10.206  0.0868 -0.3459 -0.4278
  351MOL0     C47289  -1.311   0.674  10.087 -0.6408  0.3452 -0.0918
  351MOL0     C47290  -1.460   0.627  10.098  0.8153  0.4219  0.1885
  351MOL0     C47291  -1.489   0.544   9.974  0.6589  0.1754  0.1428
  351MOL0     C47292  -1.648   0.533   9.957 -0.0881 -0.2815  0.1256
  351MOL0     C47293  -1.688   0.416   9.868 -0.6965 -0.3437  0.5924
  351MOL0     C47294  -1.825   0.421   9.810  0.0156  0.4484  0.7133
  351MOL0    Cl47295  -1.849   0.579   9.724  0.0632  0.1485 -0.2207
  351MOL0     C47296  -0.964   0.806  10.376 -0.2456 -0.1721 -0.7427
  351MOL0     C47297  -0.859   0.900  10.401  0.8007  1.1323 -0.0218
  351MOL0     O47298  -0.754   1.073  10.747 -0.2077  0.0864 -0.4021
  351MOL0     C47299  -0.538   1.247  10.516  0.9979  0.3839 -0.6814
  351MOL0     C47300  -0.443   1.345  10.498 -0.5987  0.0416 -0.2115
  351MOL0     N47301   0.278   1.416  10.184 -0.5538 -0.0577  0.2246
  351MOL0     N47302   0.397   1.450  10.201  0.6755  0.4175 -0.1601
  351MOL0     C47303   1.527   1.893  10.322 -0.3809 -0.4005  0.1374
  351MOL0     C47304   1.664   1.921  10.278 -0.3221  0.2615  0.0435
  351MOL0     C47305   2.081   1.863  10.136 -0.5992 -0.4369  0.8807
  351MOL0     C47306   2.167   1.813  10.042 -0.8150  0.1499  0.7969
  351MOL0     C47307   2.298   1.872  10.009 -0.2528  0.2781  0.1959
  351MOL0     C47308   2.348   1.975  10.088 -0.1487  0.3279  0.9146
  351MOL0     O47309   2.477   2.012  10.074 -0.0404 -0.2648  0.6168
  351MOL0     C47310   2.573   1.952   9.989  0.4368  0.4380  0.3880
  351MOL0     C47311   2.708   2.013  10.039 -0.0553  0.0180 -0.0471
  351MOL0     C47312   2.819   1.961   9.948 -0.3783  0.4184  0.2034
  351MOL0     C47313   2.956   2.022  10.001  0.1315  0.1627 -0.1233
  351MOL0     C47314   3.066   1.986   9.909  0.4996  0.5891  0.4975
  351MOL0     C47315   3.152   1.961   9.823  0.1612 -0.2521 -0.2842
  351MOL0     C47316   2.261   2.035  10.180 -0.7034 -0.3695  0.0450
  351MOL0     C47317   2.129   1.987  10.195  0.3091  1.0366 -0.4790
  351MOL0     H47318   1.797   1.615  10.335  0.3935  0.1959  0.6156
  351MOL0     H47319   1.561   1.557  10.390  2.9709 -1.3171  0.1126
  351MOL0     H47320   1.295   1.550  10.404 -2.1465  1.9886 -0.9629
  351MOL0     H47321   1.407   1.614  10.541  0.2990  1.6234 -0.0532
  351MOL0     H47322   1.189   1.563  10.632 -1.8553  1.7020  0.7045
  351MOL0     H47323   1.221   1.738  10.619 -6.1349  3.3915 -2.4066
  351MOL0     H47324   1.001   1.736  10.522 -2.2325 -2.1896  2.3225
  351MOL0     H47325   1.099   1.723  10.382  3.3956 -1.0810  0.0641
  351MOL0     H47326   1.084   1.478  10.379  1.4803  1.6676  0.2952
  351MOL0     H47327   1.003   1.467  10.537 -1.9354 -0.3732 -1.7495
  351MOL0     H47328   0.817   1.580  10.440  0.0554  0.7000  0.7612
  351MOL0     H47329   0.885   1.579  10.275 -0.8952 -3.6980 -2.4625
  351MOL0     H47330   0.897   1.340  10.268 -1.3736 -0.9372 -0.6349
  351MOL0     H47331   0.851   1.327  10.442 -2.0977 -0.7788  0.2021
  351MOL0     H47332   0.687   1.449  10.208 -0.3645  1.2778  0.5921
  351MOL0     H47333   0.667   1.281  10.251 -1.7813  0.0713  0.5736
  351MOL0     H47334   0.597   1.517  10.428  1.2228 -1.1358  0.6228
  351MOL0     H47335   0.574   1.356  10.481 -2.5581  0.3364  0.5453
  351MOL0     H47336   0.281   1.356  10.492 -1.6611 -2.4561 -1.0354
  351MOL0     H47337   0.036   1.289  10.222 -3.5928 -2.8720  1.4704
  351MOL0     H47338   0.065   1.243  10.384 -1.0154  0.1296 -0.2655
  351MOL0     H47339  -0.018   1.532  10.321  2.2073  2.0677  2.4828
  351MOL0     H47340   0.057   1.475  10.469  0.3186  2.3017 -0.6359
  351MOL0     H47341  -0.128   1.316  10.513  2.9313  1.5982  0.6335
  351MOL0     H47342  -0.210   1.361  10.360 -1.5899  2.6866 -1.4346
  351MOL0     H47343  -0.278   1.570  10.422 -0.3593 -1.7261 -2.3765
  351MOL0     H47344  -0.143   1.595  10.521  1.8650 -1.2012 -2.9420
  351MOL0     H47345  -0.411   1.406  10.833 -0.0524  1.9577 -0.4607
  351MOL0     H47346  -0.594   1.170  10.923  2.5821  0.3121 -0.9423
  351MOL0     H47347  -0.566   1.338  10.952 -0.3732  1.5597 -1.4210
  351MOL0     H47348  -0.729   1.279  10.889  0.3545 -2.1457  0.7739
  351MOL0     H47349  -1.006   1.053  10.670  0.6909 -2.1436  1.3265
  351MOL0     H47350  -1.180   0.907  10.611  0.1129 -0.6001  1.6431
  351MOL0     H47351  -1.141   0.600  10.278  0.7285  0.3470  1.2024
  351MOL0     H47352  -1.306   0.588  10.342  0.4366 -0.2493 -0.6788
  351MOL0     H47353  -1.326   0.829  10.254  1.3451  0.2142  0.4416
  351MOL0     H47354  -1.173   0.811  10.173 -0.3412  0.6238  0.0406
  351MOL0     H47355  -1.248   0.585  10.073 -2.6975 -1.1608 -0.3457
  351MOL0     H47356  -1.310   0.737   9.998 -1.5375  0.6399  0.0963
  351MOL0     H47357  -1.480   0.578  10.194 -0.9405 -1.4045 -1.0196
  351MOL0     H47358  -1.529   0.712  10.094  0.6768  0.3258  0.4843
  351MOL0     H47359  -1.448   0.444   9.989  0.2411 -0.5202 -2.7620
  351MOL0     H47360  -1.450   0.577   9.878 -0.6613 -2.4094 -1.4013
  351MOL0     H47361  -1.703   0.521  10.051  1.0101 -1.7755  0.6121
  351MOL0     H47362  -1.689   0.622   9.908 -1.8696 -1.2283 -0.1816
  351MOL0     H47363  -1.662   0.323   9.919 -1.4735  0.1861  2.0112
  351MOL0     H47364  -1.619   0.416   9.783  1.0479 -2.4512  1.9231
  351MOL0     H47365  -1.894   0.427   9.894 -0.7362  0.3732  0.1111
  351MOL0     H47366  -1.837   0.338   9.740 -0.5905  0.5678  0.6737
  351MOL0     H47367  -0.959   0.725  10.304  1.7505 -0.1021 -0.7186
  351MOL0     H47368  -0.770   0.895  10.339  0.6944  0.7171 -0.1441
  351MOL0     H47369  -0.579   1.194  10.431 -0.2699 -0.6190  0.4924
  351MOL0     H47370  -0.404   1.367  10.399  3.6038 -1.2002  0.9287
  351MOL0     H47371   1.459   1.978  10.316 -0.6674 -0.6788 -0.6462
  351MOL0     H47372   1.691   2.019  10.242 -0.4569 -0.8465 -3.4436
  351MOL0     H47373   2.138   1.723   9.989 -5.5343  1.2578  1.0742
  351MOL0     H47374   2.346   1.823   9.925  4.1292  3.6744  0.2798
  351MOL0     H47375   2.563   1.844   9.996 -3.0260  0.5589 -1.0278
  351MOL0     H47376   2.544   1.989   9.890 -1.8357 -0.6597  0.5980
  351MOL0     H47377   2.724   1.980  10.141  0.4631  0.7146  0.1029
  351MOL0     H47378   2.697   2.122  10.038 -0.6509 -0.0381 -0.3944
  351MOL0     H47379   2.795   1.996   9.847  0.5855  4.4907  1.2104
  351MOL0     H47380   2.815   1.851   9.945  0.9395  0.3101  1.3233
  351MOL0     H47381   2.982   1.978  10.098  1.2706  1.6074  0.2471
  351MOL0     H47382   2.956   2.131  10.003 -0.2074  0.1767  1.9434
  351MOL0     H47383   3.231   1.929   9.757 -1.5375  0.7398 -2.9295
  351MOL0     H47384   2.287   2.122  10.238  1.1036  0.5623 -2.0350
  351MOL0     H47385   2.064   2.043  10.261 -0.0413 -0.9369  0.9444
  352MOL0     O47386   7.110   5.038   6.212 -0.2216 -0.2376  0.4337
  352MOL0     C47387   7.118   5.075   6.094  0.6514  0.3707 -0.4845
  352MOL0     O47388   7.013   5.103   6.017 -0.3273  0.1893 -0.7691
  352MOL0     C47389   6.888   5.102   6.071 -0.2662  0.3811 -0.8219
  352MOL0     C47390   6.793   5.007   6.021  0.5118  0.3994  0.0085
  352MOL0     C47391   6.667   4.996   6.067  0.3600 -0.4831 -0.3306
  352MOL0     C47392   6.629   5.086   6.174  0.0477  0.0528  0.4830
  352MOL0     O47393   6.503   5.076   6.236 -1.0278  0.8220  0.3768
  352MOL0     C47394   6.405   4.983   6.216  0.2886  0.1542  0.0473
  352MOL0     C47395   6.320   4.975   6.341 -0.3664  0.8778 -0.3185
  352MOL0     C47396   6.239   4.849   6.354  1.0184 -0.9674 -0.1632
  352MOL0     C47397   6.112   4.886   6.441 -0.5227  0.1436 -0.5573
  352MOL0     C47398   5.996   4.941   6.357 -0.1463 -0.5561 -0.6479
  352MOL0     C47399   5.859   4.908   6.409  0.2335 -0.3904 -0.1446
  352MOL0     C47400   5.739   4.964   6.325 -1.8990 -0.2455 -0.3531
  352MOL0     C47401   5.725   5.115   6.346 -0.4753  0.9914  0.7110
  352MOL0     N47402   5.584   5.148   6.321  0.1935 -0.0595 -0.5915
  352MOL0     C47403   5.536   5.154   6.193 -0.7674  0.3614  1.1639
  352MOL0     C47404   5.403   5.133   6.201 -0.4824 -1.1449 -0.3735
  352MOL0     C47405   5.301   5.123   6.085 -0.7770  0.1984 -0.2250
  352MOL0     C47406   5.206   5.234   6.068  0.1420  0.4481 -0.2569
  352MOL0     C47407   5.088   5.178   5.992  0.4736  0.6882 -0.8380
  352MOL0     C47408   4.957   5.205   6.077  0.1400  0.5059  0.5308
  352MOL0     O47409   4.843   5.168   6.007 -0.3143 -0.1454  0.3178
  352MOL0     C47410   4.722   5.227   6.032 -0.2568 -0.4670  0.5403
  352MOL0     C47411   4.625   5.247   5.931  0.0497  0.5249 -0.4595
  352MOL0     C47412   4.496   5.304   5.954 -0.2870 -0.0258 -0.0302
  352MOL0     C47413   4.406   5.306   5.834  0.9951 -0.1608  0.3199
  352MOL0     C47414   4.461   5.340   6.085 -0.3778 -0.6794 -0.1918
  352MOL0     C47415   4.333   5.409   6.125  0.1282  0.8776  1.1575
  352MOL0     O47416   4.347   5.518   6.210  0.8893  0.2427 -0.3661
  352MOL0     C47417   4.233   5.588   6.227  0.1520 -0.1829  0.7616
  352MOL0     C47418   4.183   5.655   6.109  0.1260 -0.2281  0.0894
  352MOL0     C47419   4.065   5.736   6.127 -0.5090  0.1093  0.3999
  352MOL0     C47420   4.010   5.748   6.256  0.2226 -0.0801  0.7895
  352MOL0     O47421   3.901   5.823   6.289  0.4109 -0.0063 -0.5210
  352MOL0     C47422   3.902   5.954   6.230 -0.2488  0.1153 -0.4869
  352MOL0     C47423   3.855   6.056   6.334 -0.4467  0.1654  0.4443
  352MOL0     C47424   3.864   6.192   6.264  0.2181 -0.1133  0.0270
  352MOL0     C47425   3.891   6.312   6.365 -0.5028 -0.8954  0.2237
  352MOL0     C47426   3.796   6.313   6.485  0.5622 -0.0372 -0.2835
  352MOL0     C47427   3.648   6.332   6.435 -0.4060  0.1384 -0.2386
  352MOL0     C47428   3.560   6.400   6.536  0.3743  0.5728 -0.1936
  352MOL0     C47429   3.430   6.465   6.483  0.1928  0.5284 -0.1263
  352MOL0    Cl47430   3.458   6.585   6.344  0.0994 -0.3548 -0.0969
  352MOL0     C47431   4.058   5.673   6.364  0.6606 -0.3128  0.0879
  352MOL0     C47432   4.169   5.594   6.350  0.5784  0.0832  1.0388
  352MOL0     O47433   4.228   5.370   6.071 -1.5793  0.0571 -1.0479
  352MOL0     C47434   4.554   5.311   6.186  0.4634  0.5662 -0.2557
  352MOL0     C47435   4.677   5.260   6.162  0.1509  0.3888 -0.3259
  352MOL0     N47436   5.381   5.117   6.342  0.5097 -0.7036  0.4402
  352MOL0     N47437   5.485   5.125   6.410 -0.5022 -0.9868  0.4823
  352MOL0     C47438   6.715   5.182   6.225 -0.3965  0.5331 -0.0341
  352MOL0     C47439   6.844   5.195   6.172 -0.9028  0.5707  0.2534
  352MOL0     C47440   7.249   5.079   6.030  0.4476  0.2774 -0.7775
  352MOL0     C47441   7.278   5.139   5.903 -0.7389 -0.1679  0.3864
  352MOL0     C47442   7.411   5.153   5.862 -0.0861  0.3220  0.2460
  352MOL0     C47443   7.521   5.118   5.945 -0.0636 -0.4673 -0.2057
  352MOL0     O47444   7.644   5.138   5.889 -0.0564 -0.1818 -0.3439
  352MOL0     C47445   7.770   5.096   5.942 -0.5549  0.9005 -0.5072
  352MOL0     C47446   7.830   5.204   6.021 -1.0375  0.2081 -0.2863
  352MOL0     C47447   7.865   5.333   5.945  0.0843 -0.7952  0.1505
  352MOL0     C47448   7.997   5.342   5.876 -0.6473 -0.4244 -0.0981
  352MOL0     C47449   8.107   5.344   5.967 -0.0259 -0.6356  0.3337
  352MOL0     C47450   8.197   5.333   6.053  0.6823 -0.4830  0.0564
  352MOL0     C47451   7.488   5.051   6.063  1.0216 -0.6554 -0.9646
  352MOL0     C47452   7.358   5.033   6.100  0.5333  0.1083 -0.8691
  352MOL0     H47453   6.818   4.926   5.953  1.4490 -1.2805  2.2146
  352MOL0     H47454   6.596   4.927   6.022 -1.5034  1.6738 -0.8616
  352MOL0     H47455   6.357   5.035   6.133 -1.4496 -1.3515  0.0343
  352MOL0     H47456   6.450   4.890   6.179  1.4964  0.6748  0.1778
  352MOL0     H47457   6.377   4.988   6.433 -2.1704  0.2192  0.9365
  352MOL0     H47458   6.257   5.065   6.336 -1.2440  0.2081 -2.5146
  352MOL0     H47459   6.203   4.817   6.255 -2.0392  0.3987  0.3932
  352MOL0     H47460   6.289   4.764   6.402 -0.9830 -0.9752  2.0695
  352MOL0     H47461   6.082   4.791   6.486 -0.3534  0.4055  0.1186
  352MOL0     H47462   6.136   4.958   6.519  2.1150 -0.6898 -0.5000
  352MOL0     H47463   6.009   5.049   6.349 -1.5925 -0.2622  0.5728
  352MOL0     H47464   5.997   4.896   6.257  1.7016 -0.0780 -0.8798
  352MOL0     H47465   5.847   4.800   6.426 -0.9551  0.1584  3.3001
  352MOL0     H47466   5.850   4.946   6.511  0.1372  1.5819 -0.8559
  352MOL0     H47467   5.758   4.949   6.218 -0.5849 -0.8808 -0.0462
  352MOL0     H47468   5.650   4.907   6.353 -1.0287 -1.8415 -0.7672
  352MOL0     H47469   5.783   5.186   6.286 -1.3035  1.3691  0.3359
  352MOL0     H47470   5.747   5.133   6.452  1.0903 -1.0317  0.7888
  352MOL0     H47471   5.588   5.160   6.098  0.6357  2.3439  1.9894
  352MOL0     H47472   5.352   5.119   5.988 -1.9013 -2.8637 -0.8175
  352MOL0     H47473   5.252   5.029   6.114  1.1640 -0.3084  1.7116
  352MOL0     H47474   5.254   5.313   6.009 -0.2954 -0.2243 -1.5599
  352MOL0     H47475   5.177   5.276   6.165 -3.4680  1.5071 -1.6161
  352MOL0     H47476   5.110   5.075   5.962 -1.1412 -0.2664  1.0346
  352MOL0     H47477   5.078   5.232   5.897  3.2894  0.7343 -1.1732
  352MOL0     H47478   4.956   5.313   6.097  0.2921  0.4198  1.0295
  352MOL0     H47479   4.959   5.170   6.181 -0.5000  2.4538  1.2569
  352MOL0     H47480   4.654   5.218   5.831  1.0033 -1.1238  0.2636
  352MOL0     H47481   4.311   5.262   5.865  0.7808  0.7173  0.9547
  352MOL0     H47482   4.374   5.404   5.798 -0.6499 -1.0923 -0.9379
  352MOL0     H47483   4.449   5.252   5.749  0.9553  0.2781  0.0175
  352MOL0     H47484   4.219   5.642   6.008 -0.4788 -0.5117 -0.0883
  352MOL0     H47485   4.012   5.787   6.046 -0.9036  1.4528  1.4627
  352MOL0     H47486   4.005   5.985   6.209 -0.3699 -0.0273 -1.3479
  352MOL0     H47487   3.835   5.961   6.143 -0.1052 -0.9029 -0.6884
  352MOL0     H47488   3.762   6.032   6.387 -1.0375 -1.4494 -1.2233
  352MOL0     H47489   3.935   6.056   6.409  0.5399 -0.9109 -0.5448
  352MOL0     H47490   3.771   6.213   6.211 -0.2764 -2.7818 -0.3112
  352MOL0     H47491   3.948   6.201   6.194 -0.4271  0.4297 -0.7005
  352MOL0     H47492   3.988   6.295   6.412 -0.0994  2.5658  0.8648
  352MOL0     H47493   3.899   6.401   6.303 -1.7427 -1.3175 -0.5937
  352MOL0     H47494   3.820   6.396   6.551 -0.3247 -2.3881  3.2885
  352MOL0     H47495   3.798   6.222   6.546  0.8705 -0.8528 -1.4656
  352MOL0     H47496   3.651   6.388   6.342  3.2985 -1.1516 -1.0594
  352MOL0     H47497   3.604   6.235   6.412 -0.8886  0.5230 -0.9666
  352MOL0     H47498   3.616   6.489   6.568  0.1340  0.9572 -0.8286
  352MOL0     H47499   3.551   6.337   6.625  0.7904 -0.4560 -0.8636
  352MOL0     H47500   3.372   6.514   6.561 -1.3069 -0.6468 -0.4479
  352MOL0     H47501   3.367   6.385   6.443  1.2733 -0.4737  0.1121
  352MOL0     H47502   4.002   5.684   6.456 -1.5671  1.3993 -1.3873
  352MOL0     H47503   4.208   5.543   6.437  0.8478 -0.3986  0.6403
  352MOL0     H47504   4.525   5.324   6.290 -1.5698  1.0426 -0.8398
  352MOL0     H47505   4.736   5.238   6.251 -2.4193 -1.2576  1.0909
  352MOL0     H47506   6.681   5.242   6.308  1.2998  0.2984  0.8620
  352MOL0     H47507   6.922   5.263   6.206  0.0160  0.6602 -1.8474
  352MOL0     H47508   7.203   5.180   5.837  0.7980  2.2536  0.0145
  352MOL0     H47509   7.431   5.193   5.763  2.8784 -0.5142  0.4390
  352MOL0     H47510   7.755   5.008   6.005  0.0579 -0.3734 -2.0578
  352MOL0     H47511   7.839   5.056   5.867  1.7626 -0.4158  2.1451
  352MOL0     H47512   7.919   5.160   6.067 -0.8173  0.5978 -0.3360
  352MOL0     H47513   7.753   5.232   6.093 -0.9425 -0.5085  0.1019
  352MOL0     H47514   7.853   5.419   6.012  1.9828 -1.2571  1.1608
  352MOL0     H47515   7.783   5.339   5.873 -1.8196  0.2070  2.2527
  352MOL0     H47516   7.992   5.440   5.828 -0.5044 -0.7525 -0.7830
  352MOL0     H47517   8.006   5.268   5.796 -0.0184  1.0006 -1.3828
  352MOL0     H47518   8.279   5.312   6.119 -0.2998 -0.4642  1.3039
  352MOL0     H47519   7.567   5.010   6.125  0.0770 -0.0584  0.7158
  352MOL0     H47520   7.354   4.982   6.196  0.8909  1.4275 -0.1222
  353MOL0     O47521   6.614   5.706  10.979 -0.0869  0.0532  0.6177
  353MOL0     C47522   6.667   5.811  10.950 -0.0240 -0.3792  0.1575
  353MOL0     O47523   6.630   5.933  11.000 -0.2231  0.0537 -0.5108
  353MOL0     C47524   6.545   5.915  11.105 -0.5580 -0.2729  0.0771
  353MOL0     C47525   6.407   5.941  11.080 -0.8591 -0.5549 -0.4455
  353MOL0     C47526   6.312   5.931  11.179 -0.5307 -0.0576 -0.3113
  353MOL0     C47527   6.351   5.883  11.301  0.0246 -0.1727  0.2887
  353MOL0     O47528   6.260   5.860  11.404 -0.1983  0.1205  0.8046
  353MOL0     C47529   6.136   5.928  11.410 -0.2258 -0.3819 -0.4174
  353MOL0     C47530   6.083   5.920  11.553 -0.1570  0.6017 -0.3151
  353MOL0     C47531   5.985   6.032  11.570 -0.9079 -0.4071  0.6659
  353MOL0     C47532   5.938   6.051  11.716 -0.2888 -0.3818 -0.4983
  353MOL0     C47533   5.851   6.179  11.731 -0.2982 -0.4890  0.7040
  353MOL0     C47534   5.789   6.189  11.871 -0.0689 -0.0740  0.0413
  353MOL0     C47535   5.655   6.112  11.887 -0.4508 -0.9225 -0.3758
  353MOL0     C47536   5.597   6.117  12.025 -0.1033  0.7129  0.1779
  353MOL0     N47537   5.480   6.041  12.043 -0.0160  0.1106  0.0419
  353MOL0     C47538   5.359   6.084  11.994  0.7811  1.1502 -0.3275
  353MOL0     C47539   5.277   5.977  12.035 -0.7822 -0.1651  0.1670
  353MOL0     C47540   5.138   5.958  11.990 -0.2756  0.7021  0.3842
  353MOL0     C47541   5.067   6.078  11.924 -0.0947 -0.1374  0.4123
  353MOL0     C47542   4.919   6.047  11.869  0.6874  0.2941 -0.4009
  353MOL0     C47543   4.835   5.958  11.965 -0.5047 -0.0855 -0.4313
  353MOL0     O47544   4.692   5.960  11.943  0.3820  0.9061  0.6570
  353MOL0     C47545   4.606   6.034  12.020  0.3795 -0.6897  0.4159
  353MOL0     C47546   4.634   6.121  12.129 -0.5176  0.1704 -0.2745
  353MOL0     C47547   4.534   6.214  12.176  0.9428 -0.1579 -0.1340
  353MOL0     C47548   4.577   6.305  12.289 -0.1343  0.1382  0.5135
  353MOL0     C47549   4.407   6.224  12.121  0.2791  0.1209 -0.1584
  353MOL0     C47550   4.296   6.316  12.170 -0.0822  0.0962 -0.4408
  353MOL0     O47551   4.176   6.284  12.124 -0.5171  0.4976  0.2475
  353MOL0     C47552   4.053   6.331  12.165 -0.1611 -0.6887 -0.7175
  353MOL0     C47553   4.030   6.447  12.241 -0.8922  0.1958 -0.2987
  353MOL0     C47554   3.903   6.496  12.274 -0.3180 -0.5382  0.8061
  353MOL0     C47555   3.795   6.424  12.231  0.4934 -0.4239  0.1671
  353MOL0     O47556   3.665   6.475  12.240 -0.3725 -0.0180 -0.1174
  353MOL0     C47557   3.639   6.598  12.307 -0.2801 -1.1045  0.8315
  353MOL0     C47558   3.488   6.615  12.311 -0.1818 -0.3439  0.2014
  353MOL0     C47559   3.422   6.629  12.172  0.0277  0.4493  0.8349
  353MOL0     C47560   3.274   6.681  12.191 -0.0542 -0.6861  0.2028
  353MOL0     C47561   3.219   6.731  12.062 -0.1605 -0.9689  0.4438
  353MOL0     C47562   3.068   6.732  12.057 -0.0624 -0.0505 -0.5359
  353MOL0     C47563   2.996   6.598  12.063  0.4526 -0.3684 -0.5702
  353MOL0     C47564   2.855   6.587  11.994  0.6845 -0.0431 -0.6487
  353MOL0    Cl47565   2.737   6.686  12.082  0.1692 -0.4777  0.1588
  353MOL0     C47566   3.810   6.311  12.160  0.3509 -0.1297 -0.5830
  353MOL0     C47567   3.941   6.271  12.118  0.2045 -0.0937  0.0918
  353MOL0     O47568   4.333   6.409  12.238  0.5123 -0.4941 -0.2596
  353MOL0     C47569   4.388   6.131  12.022 -0.2626  0.0989  0.3282
  353MOL0     C47570   4.483   6.054  11.970 -0.0079 -0.1812  0.1079
  353MOL0     N47571   5.348   5.881  12.108 -0.3811 -0.1046  0.6735
  353MOL0     N47572   5.470   5.919  12.112 -0.2967 -0.3485  0.2512
  353MOL0     C47573   6.479   5.846  11.324 -0.5154  0.1058  0.5439
  353MOL0     C47574   6.588   5.864  11.234 -0.0131  0.3578  0.6652
  353MOL0     C47575   6.779   5.802  10.858  0.3632 -0.9989 -0.5163
  353MOL0     C47576   6.822   5.920  10.783  0.3042  0.0915  0.1103
  353MOL0     C47577   6.921   5.898  10.686 -0.6676  0.4233 -0.0176
  353MOL0     C47578   6.991   5.778  10.662  0.1546  0.4564  0.0599
  353MOL0     O47579   7.084   5.767  10.564 -0.0639  0.3747  0.5167
  353MOL0     C47580   7.163   5.642  10.543  0.4555 -0.1864 -0.7295
  353MOL0     C47581   7.115   5.575  10.416  0.8620 -0.0919  0.1293
  353MOL0     C47582   6.971   5.531  10.428 -0.2057  0.1127 -0.3082
  353MOL0     C47583   6.925   5.446  10.307 -0.7034 -0.9864  0.2025
  353MOL0     C47584   6.779   5.422  10.304  0.6809 -0.2233  0.3535
  353MOL0     C47585   6.659   5.399  10.287  1.1158 -0.2438 -0.1348
  353MOL0     C47586   6.945   5.675  10.745  0.4839  0.7561 -0.5712
  353MOL0     C47587   6.844   5.687  10.844  0.2060 -0.5948  0.2133
  353MOL0     H47588   6.385   5.980  10.981 -0.3455  1.5196  0.2030
  353MOL0     H47589   6.206   5.948  11.165 -0.5733  0.2408  0.3191
  353MOL0     H47590   6.150   6.033  11.380  4.7170 -0.8491 -0.6018
  353MOL0     H47591   6.057   5.876  11.355 -4.3622  0.5616  3.9750
  353MOL0     H47592   6.045   5.819  11.567 -0.4136  0.9642  1.8969
  353MOL0     H47593   6.165   5.942  11.622 -0.9690  0.4220  0.7295
  353MOL0     H47594   6.040   6.125  11.551 -0.7921 -0.8062 -1.1976
  353MOL0     H47595   5.902   6.027  11.498 -0.3240 -0.0978 -0.0455
  353MOL0     H47596   5.883   5.962  11.749  0.6707 -0.8166 -0.0386
  353MOL0     H47597   6.032   6.067  11.770  0.9561  3.3943 -3.3191
  353MOL0     H47598   5.914   6.267  11.714 -0.5690 -0.0220  2.0170
  353MOL0     H47599   5.773   6.187  11.656  0.8749 -0.4524 -0.5498
  353MOL0     H47600   5.865   6.158  11.943 -1.4276 -0.9940  1.1569
  353MOL0     H47601   5.761   6.293  11.890  0.6939  0.4019 -1.3357
  353MOL0     H47602   5.576   6.155  11.825 -0.4250  0.4947  0.5341
  353MOL0     H47603   5.672   6.006  11.861 -0.6640 -0.5545 -2.1562
  353MOL0     H47604   5.595   6.221  12.059  1.9747  1.3280 -1.4039
  353MOL0     H47605   5.668   6.072  12.095  2.3843 -0.5257 -2.9028
  353MOL0     H47606   5.339   6.185  11.960 -1.0446  0.2214 -2.2301
  353MOL0     H47607   5.141   5.884  11.910 -0.7702  0.8305  0.2412
  353MOL0     H47608   5.075   5.926  12.073  1.7236  2.4352  2.6979
  353MOL0     H47609   5.128   6.114  11.840 -0.2545  0.5143  0.5679
  353MOL0     H47610   5.061   6.156  12.000 -0.8740  1.4320 -1.1602
  353MOL0     H47611   4.922   5.992  11.774  0.5681  0.6433 -0.6107
  353MOL0     H47612   4.873   6.146  11.860  0.6086  0.4320  1.3317
  353MOL0     H47613   4.855   5.986  12.069 -0.3777 -2.5676  0.2769
  353MOL0     H47614   4.873   5.855  11.963 -0.9129 -0.2423 -0.2295
  353MOL0     H47615   4.730   6.108  12.178 -0.6509  0.4683  0.0681
  353MOL0     H47616   4.652   6.263  12.357 -0.5200  0.4345  1.1428
  353MOL0     H47617   4.620   6.400  12.256  0.4446 -0.5880 -0.8870
  353MOL0     H47618   4.494   6.321  12.359 -0.2480 -0.6780  0.5771
  353MOL0     H47619   4.110   6.512  12.275 -1.3444  0.5035  0.1790
  353MOL0     H47620   3.895   6.588  12.333 -1.7955 -1.0642  1.4832
  353MOL0     H47621   3.684   6.603  12.406  2.9770  0.3907 -0.5557
  353MOL0     H47622   3.678   6.683  12.250 -1.9045  0.7697  2.3887
  353MOL0     H47623   3.443   6.527  12.359 -2.1008 -0.8152 -2.2060
  353MOL0     H47624   3.469   6.700  12.376 -0.2025 -2.6312  3.4254
  353MOL0     H47625   3.430   6.531  12.123 -0.2739  1.1799 -0.7397
  353MOL0     H47626   3.493   6.696  12.122  2.9269 -2.5613  0.5864
  353MOL0     H47627   3.213   6.593  12.212 -1.0066  0.0673  0.7114
  353MOL0     H47628   3.263   6.751  12.275 -1.0744 -1.1858  0.4994
  353MOL0     H47629   3.258   6.674  11.977 -1.3591 -2.5812  0.9236
  353MOL0     H47630   3.247   6.836  12.052 -0.9345 -0.8250 -0.2996
  353MOL0     H47631   3.025   6.802  12.129 -1.3596  2.1547 -3.2923
  353MOL0     H47632   3.047   6.783  11.962  0.5854 -2.2777 -1.9511
  353MOL0     H47633   2.974   6.582  12.169 -0.5314  3.1262 -0.1355
  353MOL0     H47634   3.063   6.525  12.016  0.8464 -0.7876  0.6010
  353MOL0     H47635   2.823   6.483  12.001  0.3079  0.1866  2.5204
  353MOL0     H47636   2.867   6.622  11.891  2.0582 -0.9473 -0.8189
  353MOL0     H47637   3.715   6.261  12.141 -1.4941  2.9891 -0.2209
  353MOL0     H47638   3.968   6.180  12.064 -1.3781 -2.5129  3.0770
  353MOL0     H47639   4.287   6.135  11.983 -0.8167  0.0652  1.6931
  353MOL0     H47640   4.446   5.999  11.884 -2.3825  1.7139 -0.2210
  353MOL0     H47641   6.507   5.802  11.419  0.2056 -2.0034 -0.5929
  353MOL0     H47642   6.686   5.821  11.253  0.3813  0.8704 -0.1797
  353MOL0     H47643   6.768   6.014  10.782  1.8978  1.0464  0.2816
  353MOL0     H47644   6.952   5.984  10.628 -1.0945  0.3100 -0.4186
  353MOL0     H47645   7.266   5.664  10.517  0.5092 -0.5771 -0.8596
  353MOL0     H47646   7.157   5.571  10.627  0.6354  1.2533  0.5338
  353MOL0     H47647   7.173   5.483  10.400 -0.2162 -0.8428  0.3933
  353MOL0     H47648   7.134   5.632  10.325 -2.3978 -0.8278 -1.1309
  353MOL0     H47649   6.909   5.620  10.444  0.5696  0.3219  2.0522
  353MOL0     H47650   6.955   5.473  10.520 -0.3854 -0.2438 -0.5618
  353MOL0     H47651   6.976   5.350  10.303 -1.0375 -1.1327 -2.3158
  353MOL0     H47652   6.952   5.500  10.216  0.2448 -0.6633  0.6717
  353MOL0     H47653   6.553   5.389  10.297  1.4339 -3.2847  1.5746
  353MOL0     H47654   6.984   5.573  10.747  2.6199  1.5247  1.6162
  353MOL0     H47655   6.822   5.599  10.903 -0.0712  0.9748  2.5992
  354MOL0     O47656   6.824  10.770   8.161  0.7275 -0.2314 -0.2044
  354MOL0     C47657   6.834  10.889   8.130  0.8029 -0.0613  0.3505
  354MOL0     O47658   6.740  10.980   8.162 -0.7329 -0.9684  0.4973
  354MOL0     C47659   6.626  10.935   8.219 -0.1010  1.0282  0.6406
  354MOL0     C47660   6.629  10.915   8.357 -0.0549 -0.2029  0.9621
  354MOL0     C47661   6.510  10.877   8.426  0.0874 -0.9110 -0.6922
  354MOL0     C47662   6.395  10.851   8.352  0.7032 -0.0395  0.0046
  354MOL0     O47663   6.273  10.838   8.416  0.2659 -0.5745  0.1932
  354MOL0     C47664   6.154  10.834   8.343  0.1996 -0.2340  0.5269
  354MOL0     C47665   6.120  10.689   8.306  1.0433 -0.3039  0.4388
  354MOL0     C47666   6.015  10.692   8.188 -0.6882 -0.4249 -0.0319
  354MOL0     C47667   5.944  10.556   8.163  0.3378 -0.2994 -0.0014
  354MOL0     C47668   5.841  10.558   8.053  0.6360 -0.1185 -0.1495
  354MOL0     C47669   5.698  10.575   8.107 -0.4212 -0.1285  0.1944
  354MOL0     C47670   5.596  10.590   7.990 -0.7370 -0.2002  0.3277
  354MOL0     C47671   5.447  10.565   8.037  0.1036  0.4215  0.3846
  354MOL0     N47672   5.341  10.636   7.966 -1.5757 -0.1400 -0.0226
  354MOL0     C47673   5.307  10.617   7.836 -0.0314 -0.8250  1.0449
  354MOL0     C47674   5.200  10.698   7.815 -0.2648 -0.4583 -0.4794
  354MOL0     C47675   5.134  10.717   7.682 -0.2778 -0.4925  0.1087
  354MOL0     C47676   4.985  10.691   7.689  0.8455  0.0938  0.4531
  354MOL0     C47677   4.916  10.767   7.581 -0.8197  1.0232  0.2625
  354MOL0     C47678   4.766  10.757   7.604  0.2685 -0.2888  0.1819
  354MOL0     O47679   4.694  10.868   7.537 -0.7307  1.6762 -0.3995
  354MOL0     C47680   4.556  10.864   7.531  1.5459 -0.1281 -0.5289
  354MOL0     C47681   4.487  10.969   7.461 -0.1121 -0.0031 -1.1670
  354MOL0     C47682   4.346  10.971   7.454  0.0412  0.2154 -0.0213
  354MOL0     C47683   4.288  11.093   7.385 -0.1010 -0.5909 -0.0756
  354MOL0     C47684   4.265  10.862   7.507 -0.0873  0.5576  0.8163
  354MOL0     C47685   4.114  10.857   7.511 -0.3177 -0.0767  0.3066
  354MOL0     O47686   4.047  10.943   7.442  0.4572 -0.3228 -0.0281
  354MOL0     C47687   3.912  10.968   7.461 -0.0086 -0.1595  0.0576
  354MOL0     C47688   3.836  10.943   7.574 -0.0688  0.2396  0.5434
  354MOL0     C47689   3.705  10.987   7.592 -0.2755  0.5271  0.3828
  354MOL0     C47690   3.639  11.048   7.490 -0.2485 -0.7818 -0.1068
  354MOL0     O47691   3.509  11.092   7.477  0.3038 -0.0115  0.4426
  354MOL0     C47692   3.419  11.046   7.581 -0.2673  0.3956  0.3694
  354MOL0     C47693   3.385  11.157   7.680 -0.0397 -0.3303  0.2342
  354MOL0     C47694   3.275  11.252   7.621 -0.4508  0.0588 -0.4014
  354MOL0     C47695   3.235  11.378   7.702 -0.0703 -0.2913  0.8886
  354MOL0     C47696   3.116  11.462   7.661  0.5504 -0.1764 -0.2451
  354MOL0     C47697   2.976  11.395   7.695 -0.6840 -1.0379 -0.0102
  354MOL0     C47698   2.874  11.466   7.611  0.0225  0.0277  0.1454
  354MOL0     C47699   2.740  11.398   7.610  0.0462 -0.0267  0.3472
  354MOL0    Cl47700   2.704  11.294   7.460 -0.1446  0.0764  0.1957
  354MOL0     C47701   3.714  11.072   7.373 -0.6431 -0.0179 -0.9664
  354MOL0     C47702   3.849  11.035   7.358  0.1287  0.4230  0.4155
  354MOL0     O47703   4.071  10.757   7.563  0.5716 -0.6517  0.2657
  354MOL0     C47704   4.338  10.768   7.573 -0.2452  0.5896 -0.0813
  354MOL0     C47705   4.477  10.765   7.584  0.0647  1.1328 -0.4834
  354MOL0     N47706   5.175  10.766   7.936 -0.1241  0.5623 -0.7809
  354MOL0     N47707   5.260  10.723   8.022 -0.1815  0.0142  0.1167
  354MOL0     C47708   6.403  10.864   8.214  0.9927 -0.2387  0.5440
  354MOL0     C47709   6.515  10.905   8.145  0.5092  0.5996 -0.7594
  354MOL0     C47710   6.940  10.925   8.033  0.5237 -0.1560  0.0605
  354MOL0     C47711   6.947  11.060   7.987 -0.6148  0.7963 -0.4033
  354MOL0     C47712   7.043  11.090   7.889 -0.3856  0.4497  0.5342
  354MOL0     C47713   7.132  10.991   7.843  0.2446 -0.1249  1.6974
  354MOL0     O47714   7.221  11.035   7.748 -0.1276 -0.4120 -0.2342
  354MOL0     C47715   7.354  10.974   7.741 -0.1779  0.5657 -0.2506
  354MOL0     C47716   7.434  10.996   7.868  0.8183  0.8820 -0.0930
  354MOL0     C47717   7.565  10.915   7.875 -0.1578  0.3838  0.1114
  354MOL0     C47718   7.545  10.776   7.927  0.4746  0.7772 -0.1382
  354MOL0     C47719   7.676  10.718   7.954 -0.0777  0.1577 -0.0943
  354MOL0     C47720   7.782  10.662   7.976  0.0601 -0.5094  0.2342
  354MOL0     C47721   7.133  10.867   7.898  0.0093  0.2248  0.4178
  354MOL0     C47722   7.039  10.831   7.989 -0.3926  0.6879 -0.5489
  354MOL0     H47723   6.719  10.938   8.412  0.8232 -1.9619  0.3441
  354MOL0     H47724   6.501  10.859   8.533 -0.2995  0.4149 -0.4870
  354MOL0     H47725   6.067  10.871   8.399  0.2000 -1.6478  1.5170
  354MOL0     H47726   6.159  10.903   8.259 -3.1185  1.4155  1.5082
  354MOL0     H47727   6.210  10.639   8.269  0.5001 -1.4077  0.5635
  354MOL0     H47728   6.077  10.645   8.397  0.5200  0.0084  0.3469
  354MOL0     H47729   5.939  10.769   8.204  0.3975  0.6912 -0.1536
  354MOL0     H47730   6.059  10.723   8.093  0.7635  0.9785  1.0560
  354MOL0     H47731   6.013  10.474   8.143  0.0796 -0.6050  0.3442
  354MOL0     H47732   5.888  10.534   8.255 -0.4995  3.0128  0.4028
  354MOL0     H47733   5.860  10.649   7.996  2.1103  0.6520  1.4779
  354MOL0     H47734   5.833  10.461   8.003 -2.0521 -0.5642  0.9412
  354MOL0     H47735   5.674  10.492   8.174 -1.7877 -1.7380 -2.1790
  354MOL0     H47736   5.696  10.672   8.159  0.6670  0.1627 -0.2787
  354MOL0     H47737   5.593  10.689   7.944 -2.8159 -1.9129 -3.6408
  354MOL0     H47738   5.622  10.518   7.912 -0.4270  0.0090  0.2372
  354MOL0     H47739   5.440  10.584   8.144  1.9177  0.9701  0.4308
  354MOL0     H47740   5.421  10.459   8.024  2.8386 -0.1528 -1.0185
  354MOL0     H47741   5.362  10.555   7.767  1.4498 -0.5095  1.8904
  354MOL0     H47742   5.149  10.820   7.650 -0.9479 -0.1347  0.9097
  354MOL0     H47743   5.183  10.664   7.600 -0.5630  0.2598 -0.5519
  354MOL0     H47744   4.951  10.713   7.790 -0.4921 -1.6857  0.4221
  354MOL0     H47745   4.974  10.584   7.673  0.6301  0.2727 -0.7425
  354MOL0     H47746   4.946  10.742   7.479 -1.0763  0.6715  0.2751
  354MOL0     H47747   4.945  10.872   7.594  2.3033  0.1971  0.9515
  354MOL0     H47748   4.750  10.768   7.712  1.0296 -0.1923  0.2876
  354MOL0     H47749   4.731  10.662   7.564  0.1685  0.6709 -2.1377
  354MOL0     H47750   4.543  11.050   7.414  1.7733 -0.6658 -0.1525
  354MOL0     H47751   4.375  11.152   7.354 -0.0670 -0.2571  0.6436
  354MOL0     H47752   4.223  11.066   7.301 -1.9186  3.0430 -0.0706
  354MOL0     H47753   4.223  11.146   7.455 -0.2011 -1.8578  0.8109
  354MOL0     H47754   3.885  10.889   7.654 -1.4185 -1.9880 -0.0508
  354MOL0     H47755   3.656  10.971   7.687  1.9016  0.0151  1.4748
  354MOL0     H47756   3.333  11.016   7.522  0.2398 -1.8318  0.6743
  354MOL0     H47757   3.456  10.971   7.651 -0.3135  0.5046  0.5118
  354MOL0     H47758   3.364  11.114   7.778  0.1286 -2.4231 -0.6094
  354MOL0     H47759   3.473  11.222   7.685  0.0740 -0.0800 -2.7637
  354MOL0     H47760   3.183  11.199   7.595 -1.5035  1.2424  0.7993
  354MOL0     H47761   3.310  11.281   7.522 -0.8456 -1.6181 -1.0729
  354MOL0     H47762   3.227  11.356   7.809  0.5291  3.6126  1.8876
  354MOL0     H47763   3.325  11.440   7.694  0.5200 -1.0724  1.3204
  354MOL0     H47764   3.133  11.488   7.557 -0.6866  0.0992 -0.4003
  354MOL0     H47765   3.119  11.559   7.711 -0.7905 -0.1692 -0.1284
  354MOL0     H47766   2.989  11.287   7.678  2.0197 -0.5286 -1.8702
  354MOL0     H47767   2.949  11.401   7.801  0.3406  0.1856  0.2113
  354MOL0     H47768   2.907  11.472   7.506 -2.5771  0.3266 -0.7250
  354MOL0     H47769   2.869  11.563   7.660 -0.8238 -0.5419  1.2155
  354MOL0     H47770   2.674  11.485   7.603  0.5927  0.4338  0.8321
  354MOL0     H47771   2.714  11.357   7.708  0.3813  1.0636  0.9067
  354MOL0     H47772   3.675  11.128   7.288  1.5011 -0.9643 -2.6950
  354MOL0     H47773   3.897  11.065   7.265 -0.2718  4.4776  1.3590
  354MOL0     H47774   4.290  10.684   7.621  1.4142 -1.0136 -1.1102
  354MOL0     H47775   4.531  10.683   7.631  2.4555  3.4468  1.0592
  354MOL0     H47776   6.311  10.859   8.157  1.3801  0.2336 -0.1391
  354MOL0     H47777   6.514  10.917   8.037  2.9465 -0.7238 -1.0106
  354MOL0     H47778   6.884  11.137   8.030 -0.0929 -0.2940  2.5426
  354MOL0     H47779   7.043  11.185   7.837  3.3058 -1.3812 -3.3950
  354MOL0     H47780   7.344  10.868   7.718  1.5378  0.4199 -0.4353
  354MOL0     H47781   7.413  11.023   7.662 -1.5156 -1.4476 -2.6545
  354MOL0     H47782   7.379  10.963   7.957  1.9894 -2.3533 -0.4225
  354MOL0     H47783   7.453  11.102   7.881 -0.5522  0.8017  4.0626
  354MOL0     H47784   7.627  10.975   7.941  0.0385  2.5174 -1.8810
  354MOL0     H47785   7.619  10.916   7.780 -1.2142  1.4571 -0.4994
  354MOL0     H47786   7.498  10.717   7.848 -0.1171 -1.2785  1.6482
  354MOL0     H47787   7.475  10.774   8.011  1.2584  0.2647  0.5114
  354MOL0     H47788   7.872  10.607   7.995 -0.7300 -1.7397  0.5689
  354MOL0     H47789   7.194  10.783   7.866  0.2367  1.9274 -4.3952
  354MOL0     H47790   7.038  10.727   8.019  0.4435  1.6112  3.1704
  355MOL0     O47791   5.944   9.642   8.371  0.3148  0.0064  0.5985
  355MOL0     C47792   5.934   9.681   8.250  0.4767 -0.1028 -0.5041
  355MOL0     O47793   5.826   9.656   8.167 -0.1791  0.9681 -0.1690
  355MOL0     C47794   5.725   9.570   8.196 -0.4506  0.0435  0.3979
  355MOL0     C47795   5.750   9.443   8.246 -0.0842  0.1186  0.4633
  355MOL0     C47796   5.632   9.365   8.264  0.7435 -0.4754  0.0223
  355MOL0     C47797   5.501   9.415   8.247  0.0190 -0.2427 -0.5801
  355MOL0     O47798   5.374   9.362   8.284 -0.3015 -0.0876  0.2422
  355MOL0     C47799   5.382   9.256   8.375  0.1409  0.3205 -0.7718
  355MOL0     C47800   5.234   9.220   8.393  0.5909 -0.1541 -0.2057
  355MOL0     C47801   5.224   9.106   8.493 -1.0002 -0.3098 -0.1702
  355MOL0     C47802   5.091   9.082   8.556  0.0130  0.2523 -0.1578
  355MOL0     C47803   5.092   8.944   8.628 -1.4260 -0.0623 -0.9331
  355MOL0     C47804   4.958   8.915   8.692 -0.8952  0.5887  0.6841
  355MOL0     C47805   4.946   8.769   8.733 -0.5875  1.2285 -0.1222
  355MOL0     C47806   5.035   8.731   8.845 -0.0176  0.4357  0.2997
  355MOL0     N47807   5.015   8.814   8.958 -0.1214 -0.0355 -0.1662
  355MOL0     C47808   4.903   8.817   9.036 -0.2329 -0.6977 -0.4910
  355MOL0     C47809   4.943   8.878   9.153 -0.5530 -0.0939 -0.4126
  355MOL0     C47810   4.853   8.872   9.277 -0.3203  0.1199  0.5302
  355MOL0     C47811   4.867   8.987   9.374  0.2729  0.3269 -0.0779
  355MOL0     C47812   4.835   9.123   9.296 -0.3577 -0.5281 -0.2445
  355MOL0     C47813   4.692   9.144   9.250  0.7524 -0.1174 -0.1759
  355MOL0     O47814   4.608   9.118   9.361 -0.0168  0.4105 -0.1738
  355MOL0     C47815   4.471   9.129   9.336  0.4133 -0.2358 -0.5326
  355MOL0     C47816   4.415   9.200   9.228  0.9854 -0.5151 -0.0154
  355MOL0     C47817   4.278   9.221   9.222  0.3292  0.2012  0.2843
  355MOL0     C47818   4.232   9.318   9.117 -0.6843  1.0580  0.7665
  355MOL0     C47819   4.188   9.166   9.310  0.2216  0.8056 -0.4655
  355MOL0     C47820   4.040   9.175   9.293  0.0133 -0.2956  0.1358
  355MOL0     O47821   3.969   9.062   9.322 -0.0122 -0.7414 -0.3085
  355MOL0     C47822   3.833   9.057   9.333 -0.0806  0.3402  0.4798
  355MOL0     C47823   3.775   8.992   9.436 -0.0697  0.1770 -0.8698
  355MOL0     C47824   3.639   9.001   9.458  0.1388 -0.3944  0.2801
  355MOL0     C47825   3.551   9.061   9.368  0.2219  0.2772 -0.2364
  355MOL0     O47826   3.415   9.063   9.381 -0.2174 -0.5230  0.0808
  355MOL0     C47827   3.355   9.043   9.511  0.0604 -0.0740 -0.0467
  355MOL0     C47828   3.209   9.096   9.507  0.1267  0.8409 -0.3532
  355MOL0     C47829   3.126   9.016   9.413  0.3890  0.9325 -0.0723
  355MOL0     C47830   2.988   9.065   9.389 -0.7118 -0.0597  0.0525
  355MOL0     C47831   2.904   8.975   9.294  0.2294 -0.1121  0.9145
  355MOL0     C47832   2.776   9.041   9.245  1.0061  0.2195 -0.3431
  355MOL0     C47833   2.715   8.970   9.119  0.0018  0.4356  0.0703
  355MOL0     C47834   2.563   9.001   9.118 -0.0789  0.6523 -0.6705
  355MOL0    Cl47835   2.535   9.171   9.075  0.1194 -0.3036 -0.6181
  355MOL0     C47836   3.608   9.122   9.257  0.3131  0.1276  0.0006
  355MOL0     C47837   3.749   9.125   9.246  0.1424 -0.1660  0.2299
  355MOL0     O47838   3.992   9.283   9.264 -0.1651 -0.1488  0.0818
  355MOL0     C47839   4.243   9.089   9.416  0.5953  1.2138 -0.6321
  355MOL0     C47840   4.386   9.074   9.433 -0.0336 -0.6652  0.1826
  355MOL0     N47841   5.084   8.904   9.148 -0.0478 -0.8167  0.0238
  355MOL0     N47842   5.121   8.871   9.028  0.3126  0.1330  0.3404
  355MOL0     C47843   5.480   9.547   8.195 -0.7001 -0.7332  0.8139
  355MOL0     C47844   5.597   9.626   8.177 -0.5615 -0.5676  0.3304
  355MOL0     C47845   6.044   9.753   8.200 -1.2350 -0.2478 -0.1897
  355MOL0     C47846   6.172   9.751   8.261 -0.2674 -0.7808 -0.0636
  355MOL0     C47847   6.276   9.834   8.211 -0.2901  0.2544  0.6360
  355MOL0     C47848   6.263   9.903   8.094 -0.9479 -0.8296  0.4567
  355MOL0     O47849   6.365   9.983   8.037 -0.5083 -0.4608 -1.1380
  355MOL0     C47850   6.496   9.996   8.094  0.2978  0.2686  0.2549
  355MOL0     C47851   6.498  10.077   8.223  0.7657  0.3953  0.7595
  355MOL0     C47852   6.633  10.069   8.299  0.4277  0.3970 -1.3936
  355MOL0     C47853   6.638  10.149   8.438  0.4529  0.7756  0.4711
  355MOL0     C47854   6.593  10.287   8.423 -0.2064 -0.1583 -0.3159
  355MOL0     C47855   6.558  10.403   8.405  0.1379 -0.1059  0.3585
  355MOL0     C47856   6.142   9.898   8.036 -0.0122 -0.5222  0.3027
  355MOL0     C47857   6.033   9.825   8.082 -0.0668 -0.7088 -0.8623
  355MOL0     H47858   5.853   9.418   8.268  0.4311  2.1620  0.6197
  355MOL0     H47859   5.656   9.270   8.310  0.5420  0.0880  1.3240
  355MOL0     H47860   5.441   9.173   8.335  0.3246  0.1463 -0.1381
  355MOL0     H47861   5.436   9.283   8.465  0.6435 -0.9402 -0.6773
  355MOL0     H47862   5.179   9.309   8.428 -0.5873 -1.7145  2.2110
  355MOL0     H47863   5.194   9.193   8.295 -0.8581  1.1004 -0.0076
  355MOL0     H47864   5.255   9.021   8.432  1.1201  1.3318 -1.5202
  355MOL0     H47865   5.294   9.124   8.576 -1.0327  1.1448 -0.4453
  355MOL0     H47866   5.054   9.161   8.621  0.8565 -0.2832  1.0057
  355MOL0     H47867   5.017   9.054   8.480  1.4405 -2.6957 -0.6273
  355MOL0     H47868   5.119   8.863   8.559 -0.7146  0.0826 -0.8340
  355MOL0     H47869   5.166   8.948   8.708 -1.3842  0.1613 -0.9818
  355MOL0     H47870   4.938   8.979   8.779  1.2387  0.4221  1.3560
  355MOL0     H47871   4.873   8.939   8.627 -1.4549 -1.8379  0.4013
  355MOL0     H47872   4.846   8.748   8.772 -0.1298  3.2987  2.4338
  355MOL0     H47873   4.964   8.702   8.649 -1.5177  0.4621  0.2707
  355MOL0     H47874   5.131   8.769   8.808  0.2597  0.9253  1.4633
  355MOL0     H47875   5.035   8.624   8.867 -2.1056 -0.0450 -1.7118
  355MOL0     H47876   4.810   8.768   9.010 -1.1858  0.9188 -0.2640
  355MOL0     H47877   4.749   8.876   9.243 -0.4669  0.7468  1.0288
  355MOL0     H47878   4.880   8.778   9.326  0.8513 -1.0336 -2.1262
  355MOL0     H47879   4.965   8.991   9.423 -1.0281 -0.0892  2.7253
  355MOL0     H47880   4.797   8.958   9.453  0.8662  0.4943  0.5190
  355MOL0     H47881   4.897   9.149   9.210  0.2096 -0.9095  0.0465
  355MOL0     H47882   4.851   9.199   9.372 -0.2982 -3.2131  2.6404
  355MOL0     H47883   4.667   9.083   9.162 -1.7935 -0.2053  0.5321
  355MOL0     H47884   4.678   9.248   9.219 -0.4781 -0.2895 -0.2214
  355MOL0     H47885   4.486   9.222   9.150  0.3275  1.3538 -0.1358
  355MOL0     H47886   4.322   9.360   9.071 -0.6500 -1.2860 -1.5078
  355MOL0     H47887   4.181   9.269   9.033 -1.6534  1.3233  1.1834
  355MOL0     H47888   4.175   9.408   9.145 -1.6957  1.0796 -1.1847
  355MOL0     H47889   3.830   8.934   9.509 -1.6333 -1.3527 -0.8534
  355MOL0     H47890   3.601   8.955   9.550 -1.3322 -1.2549 -0.7109
  355MOL0     H47891   3.351   8.936   9.535  2.4068  0.2225  2.0606
  355MOL0     H47892   3.418   9.090   9.587 -1.3309 -1.0227  1.7848
  355MOL0     H47893   3.160   9.099   9.605  1.3262  0.8122  0.2714
  355MOL0     H47894   3.215   9.198   9.468 -3.0504  1.1315 -0.3814
  355MOL0     H47895   3.126   8.912   9.448  0.4019  1.2276  0.8267
  355MOL0     H47896   3.168   9.019   9.311 -2.9012  1.2580 -1.5364
  355MOL0     H47897   2.937   9.076   9.485  0.1878  2.5590  0.3282
  355MOL0     H47898   2.990   9.165   9.343 -3.2519 -0.3711 -0.8877
  355MOL0     H47899   2.882   8.884   9.350  1.0057  0.0109  1.4402
  355MOL0     H47900   2.970   8.952   9.210 -1.4843  3.8869 -1.8281
  355MOL0     H47901   2.709   9.027   9.330 -1.5091 -1.4314 -2.4399
  355MOL0     H47902   2.785   9.148   9.228  0.2429  0.3061 -0.2276
  355MOL0     H47903   2.733   8.865   9.141 -1.8039 -0.1809 -1.1637
  355MOL0     H47904   2.775   9.000   9.032  1.8493 -2.3471  0.2741
  355MOL0     H47905   2.509   8.993   9.213 -1.5817 -0.1757 -1.5528
  355MOL0     H47906   2.510   8.933   9.051 -0.4391  0.8463 -0.5870
  355MOL0     H47907   3.551   9.174   9.181 -0.6940 -0.4363  0.3475
  355MOL0     H47908   3.789   9.184   9.165 -0.0530 -0.2926  0.0397
  355MOL0     H47909   4.175   9.046   9.489 -0.1793  0.6127 -1.6782
  355MOL0     H47910   4.427   9.026   9.522 -0.8392 -1.5365  0.0917
  355MOL0     H47911   5.383   9.594   8.184  0.1360  0.6071 -1.7881
  355MOL0     H47912   5.597   9.729   8.143 -0.2003 -0.6296  0.1296
  355MOL0     H47913   6.193   9.684   8.343  1.8172 -3.1466 -2.3117
  355MOL0     H47914   6.373   9.833   8.260 -1.0991  3.7354  2.7023
  355MOL0     H47915   6.555   9.905   8.104  1.0124  0.8187  1.3078
  355MOL0     H47916   6.551  10.062   8.026 -0.5433  2.4778  1.5777
  355MOL0     H47917   6.415  10.045   8.286 -0.2244 -0.4856 -0.9069
  355MOL0     H47918   6.482  10.183   8.200  0.7544  0.1088 -0.6867
  355MOL0     H47919   6.712  10.101   8.231 -0.4661  0.8296 -2.2586
  355MOL0     H47920   6.654   9.965   8.325 -1.0102  1.0528  3.3741
  355MOL0     H47921   6.742  10.137   8.470  0.7369 -1.3030 -0.9999
  355MOL0     H47922   6.581  10.109   8.522  0.0743  2.1477  0.8911
  355MOL0     H47923   6.523  10.501   8.381  2.1225  0.0927 -2.2524
  355MOL0     H47924   6.135   9.959   7.946 -3.2447 -1.2810 -0.0990
  355MOL0     H47925   5.938   9.842   8.033 -0.1496  0.5461 -0.3302
  356MOL0     O47926   2.199   6.760   8.132  0.0241  0.1626  0.3156
  356MOL0     C47927   2.134   6.655   8.118  0.2632  0.5632 -0.8102
  356MOL0     O47928   2.047   6.619   8.015 -0.0451 -0.8194  0.3017
  356MOL0     C47929   2.066   6.684   7.893 -0.3337  0.3866  0.0444
  356MOL0     C47930   2.009   6.802   7.853  0.1246 -0.3902 -0.4458
  356MOL0     C47931   2.033   6.876   7.738  0.2966  0.4070  0.0746
  356MOL0     C47932   2.119   6.814   7.641  0.3588  0.4535 -0.6159
  356MOL0     O47933   2.128   6.878   7.520 -0.1104  0.4172  0.9257
  356MOL0     C47934   2.210   6.820   7.423 -0.3740 -0.0294 -0.5235
  356MOL0     C47935   2.202   6.891   7.294  0.5894  0.6015  0.5751
  356MOL0     C47936   2.064   6.892   7.213  0.0129 -0.7026 -0.3722
  356MOL0     C47937   2.054   6.819   7.075  0.5108 -0.4194 -0.2080
  356MOL0     C47938   1.909   6.783   7.023 -0.3322 -0.1783 -0.2357
  356MOL0     C47939   1.814   6.909   7.027 -0.2909 -0.2260  0.3532
  356MOL0     C47940   1.668   6.868   7.022 -0.3730  0.1570 -0.4668
  356MOL0     C47941   1.571   6.988   7.029  0.7487  0.7119  0.2961
  356MOL0     N47942   1.584   7.063   6.905 -0.3470 -0.2429 -0.0377
  356MOL0     C47943   1.537   7.028   6.774  0.4200  0.0378 -0.1741
  356MOL0     C47944   1.545   7.147   6.709 -0.5719  0.3485  1.1752
  356MOL0     C47945   1.478   7.183   6.579 -0.2151  0.4369 -0.2587
  356MOL0     C47946   1.339   7.127   6.575  0.1843 -0.4558  0.2025
  356MOL0     C47947   1.264   7.172   6.448 -0.7195 -0.2178  0.0720
  356MOL0     C47948   1.115   7.145   6.459 -1.2720  0.1217  0.0051
  356MOL0     O47949   1.091   7.007   6.472 -0.0202  0.7869  0.9870
  356MOL0     C47950   0.960   6.965   6.487 -1.0264  0.0438  0.8736
  356MOL0     C47951   0.939   6.830   6.519  0.2506 -0.9171  0.0163
  356MOL0     C47952   0.807   6.771   6.519  0.1851 -0.1582  0.4437
  356MOL0     C47953   0.799   6.618   6.556 -0.3254  0.1294  0.0104
  356MOL0     C47954   0.697   6.856   6.481  0.2652  0.4485  0.5411
  356MOL0     C47955   0.563   6.800   6.477  0.8167 -0.2394  1.6558
  356MOL0     O47956   0.489   6.866   6.380 -0.0554  0.1323  0.5784
  356MOL0     C47957   0.354   6.853   6.396  0.1886 -0.7446  0.1098
  356MOL0     C47958   0.279   6.746   6.333  0.1852 -0.7854  0.1214
  356MOL0     C47959   0.140   6.740   6.356 -0.8980 -0.3177 -0.2851
  356MOL0     C47960   0.078   6.832   6.444 -0.4368  0.5022  0.3528
  356MOL0     O47961  -0.058   6.815   6.451 -0.1718 -0.4403 -0.2255
  356MOL0     C47962  -0.136   6.911   6.523 -0.1925 -0.3700  0.0808
  356MOL0     C47963  -0.276   6.873   6.544  0.7498 -0.1813 -0.0173
  356MOL0     C47964  -0.359   6.895   6.420 -0.2906 -0.2281 -0.0784
  356MOL0     C47965  -0.404   7.039   6.396 -0.2841 -0.1271 -0.7951
  356MOL0     C47966  -0.530   7.074   6.482 -0.0497  0.0348  0.4188
  356MOL0     C47967  -0.656   6.995   6.449  0.0987  0.3215  0.0546
  356MOL0     C47968  -0.690   6.977   6.298 -0.1103  0.0988 -1.1313
  356MOL0     C47969  -0.809   6.882   6.277  0.1414 -0.5486 -0.5486
  356MOL0    Cl47970  -0.959   6.975   6.323 -0.1573  0.2377  0.1870
  356MOL0     C47971   0.150   6.933   6.508  0.0526  0.1097 -0.2537
  356MOL0     C47972   0.286   6.948   6.480 -0.3774  0.5562  0.6834
  356MOL0     O47973   0.534   6.694   6.530  0.1700 -0.3736 -0.1732
  356MOL0     C47974   0.719   6.995   6.465 -0.0652  0.2841 -0.0224
  356MOL0     C47975   0.850   7.044   6.467 -0.3282 -0.1146 -0.2690
  356MOL0     N47976   1.616   7.233   6.785 -0.0113  0.3851 -0.2681
  356MOL0     N47977   1.631   7.188   6.906  0.0135 -0.5072  0.0210
  356MOL0     C47978   2.189   6.700   7.677 -0.7680 -0.0505 -0.2906
  356MOL0     C47979   2.158   6.634   7.803  0.4381  0.0903  0.2357
  356MOL0     C47980   2.150   6.559   8.227  0.7197  0.0371 -0.4807
  356MOL0     C47981   2.204   6.596   8.349  0.4049 -0.9383  0.0440
  356MOL0     C47982   2.242   6.506   8.443  0.7851  0.8048 -0.2845
  356MOL0     C47983   2.191   6.374   8.436 -0.6371 -0.3020  0.4883
  356MOL0     O47984   2.193   6.278   8.537 -0.1637 -0.6530  0.1360
  356MOL0     C47985   2.211   6.339   8.668 -0.1372  0.1573  0.1840
  356MOL0     C47986   2.149   6.245   8.766  0.2561  0.7893 -0.9739
  356MOL0     C47987   2.218   6.109   8.791  0.9117 -0.1882  0.5501
  356MOL0     C47988   2.207   6.060   8.931 -0.2684  0.2932  0.1543
  356MOL0     C47989   2.070   6.034   8.986  0.2876  0.4591 -1.2437
  356MOL0     C47990   1.955   6.026   9.027  0.4716 -0.4884 -0.3704
  356MOL0     C47991   2.133   6.335   8.318  0.0291 -1.1886 -0.6141
  356MOL0     C47992   2.112   6.427   8.213  0.0074  0.2222 -0.8769
  356MOL0     H47993   1.942   6.847   7.926 -1.2953 -0.8044 -1.4681
  356MOL0     H47994   1.987   6.969   7.706 -1.2771 -1.5667 -4.1144
  356MOL0     H47995   2.312   6.817   7.463 -0.9110 -1.9395  0.8960
  356MOL0     H47996   2.181   6.715   7.410 -0.4569 -0.0439 -0.2244
  356MOL0     H47997   2.221   6.996   7.319 -1.8114  0.4399  3.7727
  356MOL0     H47998   2.273   6.848   7.223 -1.7283 -2.6070 -0.0264
  356MOL0     H47999   1.991   6.845   7.280 -0.0639 -0.6322 -0.4064
  356MOL0     H48000   2.048   6.999   7.198  0.9843 -0.3921  0.6735
  356MOL0     H48001   2.107   6.888   7.007 -0.7027  3.3542  2.3252
  356MOL0     H48002   2.111   6.726   7.082  3.3020  0.9845 -2.1844
  356MOL0     H48003   1.917   6.740   6.923  2.0947  3.2405 -1.7169
  356MOL0     H48004   1.864   6.699   7.077 -2.3590  1.3132  0.4887
  356MOL0     H48005   1.827   6.963   7.121 -2.8081  0.6487  0.2853
  356MOL0     H48006   1.829   6.981   6.946 -4.2362 -1.4623 -1.7304
  356MOL0     H48007   1.644   6.805   6.936 -2.0264 -1.0180  0.7903
  356MOL0     H48008   1.643   6.802   7.106 -2.1410  0.4463 -0.7302
  356MOL0     H48009   1.578   7.043   7.124 -1.0810  0.9949  0.3068
  356MOL0     H48010   1.468   6.951   7.025  0.4965  1.1254  2.0400
  356MOL0     H48011   1.493   6.937   6.737 -1.0754 -0.8114  3.3096
  356MOL0     H48012   1.471   7.290   6.559  1.2087  0.4354 -0.8653
  356MOL0     H48013   1.524   7.142   6.488 -1.3204  0.2782 -0.7590
  356MOL0     H48014   1.290   7.163   6.666  0.0896  1.2367 -0.4798
  356MOL0     H48015   1.354   7.019   6.572  3.1946 -0.1208 -0.0528
  356MOL0     H48016   1.315   7.112   6.372 -0.9427 -1.0777  0.5849
  356MOL0     H48017   1.277   7.274   6.411 -1.2164  0.0526  0.6179
  356MOL0     H48018   1.061   7.186   6.373 -1.2625 -0.7699 -0.4444
  356MOL0     H48019   1.078   7.195   6.549  0.0734  0.5503  0.3371
  356MOL0     H48020   1.030   6.773   6.537  0.8653 -0.4299 -1.3982
  356MOL0     H48021   0.732   6.569   6.485  0.4207  1.2689 -1.5500
  356MOL0     H48022   0.899   6.575   6.545  0.0638  0.8414  0.6608
  356MOL0     H48023   0.767   6.607   6.660  1.7901 -0.1247  0.6808
  356MOL0     H48024   0.327   6.675   6.267  1.8565  0.2051  0.2030
  356MOL0     H48025   0.087   6.655   6.315 -0.8350 -0.2241 -0.5629
  356MOL0     H48026  -0.092   6.909   6.623 -1.7081  1.5387  0.8474
  356MOL0     H48027  -0.132   7.010   6.477 -2.9180 -1.4358 -2.8449
  356MOL0     H48028  -0.276   6.767   6.570  3.2825  0.0182  1.1359
  356MOL0     H48029  -0.329   6.933   6.619 -1.4907  2.6481 -3.4924
  356MOL0     H48030  -0.441   6.823   6.414  0.2704 -0.7515 -1.9721
  356MOL0     H48031  -0.290   6.874   6.338  0.3138  0.7383  0.1598
  356MOL0     H48032  -0.322   7.103   6.431  2.3822 -2.5747 -2.0917
  356MOL0     H48033  -0.406   7.070   6.291 -2.7970  0.0380 -0.7529
  356MOL0     H48034  -0.536   7.182   6.466  1.0495  0.0016 -0.3325
  356MOL0     H48035  -0.516   7.054   6.589 -0.2112  0.0068  0.4354
  356MOL0     H48036  -0.645   6.892   6.483 -2.1842  0.9304  3.0896
  356MOL0     H48037  -0.739   7.041   6.504  1.7593  1.2025  1.9405
  356MOL0     H48038  -0.602   6.929   6.254  0.5173 -0.7026  0.8700
  356MOL0     H48039  -0.704   7.075   6.253 -0.2465 -0.8911 -3.3727
  356MOL0     H48040  -0.787   6.781   6.313  1.7114 -0.5874 -1.5096
  356MOL0     H48041  -0.823   6.861   6.170 -0.8319 -1.3156 -0.2786
  356MOL0     H48042   0.103   7.000   6.580 -1.0589 -0.4780 -0.4135
  356MOL0     H48043   0.334   7.030   6.532  0.5010 -0.2505  1.1803
  356MOL0     H48044   0.633   7.060   6.467  0.7206  1.3533  0.3003
  356MOL0     H48045   0.861   7.151   6.450 -2.5057  0.5683  1.9510
  356MOL0     H48046   2.257   6.647   7.610  0.5653 -0.2270  1.1441
  356MOL0     H48047   2.215   6.546   7.831  2.4905  0.9884 -0.9043
  356MOL0     H48048   2.232   6.699   8.371  0.3913 -1.1558  1.1497
  356MOL0     H48049   2.298   6.538   8.530  1.3528  0.3650 -0.4808
  356MOL0     H48050   2.315   6.356   8.695 -0.2593 -1.3793  1.8323
  356MOL0     H48051   2.153   6.431   8.677  1.9803  1.5057  0.6222
  356MOL0     H48052   2.045   6.225   8.740  0.9181 -1.6161 -2.0393
  356MOL0     H48053   2.139   6.294   8.863 -3.9368 -2.4257  0.5502
  356MOL0     H48054   2.322   6.124   8.763  0.1022  0.3741 -2.5591
  356MOL0     H48055   2.181   6.045   8.710 -0.2358  3.1498 -1.7990
  356MOL0     H48056   2.256   6.134   8.994 -0.5285  2.0144 -1.5632
  356MOL0     H48057   2.264   5.968   8.944 -1.5689 -1.0512 -2.6973
  356MOL0     H48058   1.857   6.009   9.066 -0.4682  2.4428 -1.2291
  356MOL0     H48059   2.109   6.230   8.302  1.3552 -1.1576 -3.4396
  356MOL0     H48060   2.077   6.383   8.120 -0.1983  1.5271 -1.4416
  357MOL0     O48061   3.988   1.867   5.312  0.2706  0.0692  0.1938
  357MOL0     C48062   4.006   1.958   5.237 -0.8314  0.0774  0.5390
  357MOL0     O48063   3.919   2.009   5.145 -0.1603  0.2755  0.5372
  357MOL0     C48064   3.789   1.969   5.152  0.6412 -0.5046 -0.4283
  357MOL0     C48065   3.696   2.073   5.168 -0.0680 -0.1844 -0.4145
  357MOL0     C48066   3.552   2.041   5.179 -0.7010 -0.1398  0.0299
  357MOL0     C48067   3.514   1.908   5.173  0.2220  0.2612  0.1318
  357MOL0     O48068   3.382   1.873   5.178  0.2714  0.6662  0.1225
  357MOL0     C48069   3.286   1.961   5.120 -0.4913  0.8382  0.0914
  357MOL0     C48070   3.162   1.882   5.103  0.3889  0.6155  0.2432
  357MOL0     C48071   3.108   1.848   5.246  0.3227  1.1121  0.6014
  357MOL0     C48072   2.977   1.756   5.241  0.0766 -1.0885  0.3115
  357MOL0     C48073   2.853   1.831   5.179 -0.0750 -0.1189  0.1339
  357MOL0     C48074   2.816   1.955   5.269 -0.3236  1.1351  1.0837
  357MOL0     C48075   2.671   1.998   5.225 -0.2476 -0.2491 -0.3703
  357MOL0     C48076   2.624   2.101   5.326 -0.7502 -0.4598  0.2833
  357MOL0     N48077   2.487   2.162   5.298 -0.0453 -0.0436  0.6795
  357MOL0     C48078   2.366   2.126   5.361  0.8053 -0.3682 -0.8391
  357MOL0     C48079   2.272   2.205   5.306 -0.1963 -0.6065 -0.1111
  357MOL0     C48080   2.131   2.200   5.338  0.5884 -0.1543 -0.7069
  357MOL0     C48081   2.044   2.233   5.219 -0.9059 -0.2531  0.4396
  357MOL0     C48082   2.027   2.391   5.193 -0.4764 -0.3084 -0.4713
  357MOL0     C48083   1.903   2.427   5.117 -0.0022  0.6652 -0.1319
  357MOL0     O48084   1.917   2.397   4.977 -0.5772  0.6717  0.0610
  357MOL0     C48085   1.825   2.460   4.892 -0.0333 -0.5438 -0.0385
  357MOL0     C48086   1.822   2.600   4.871 -0.2561 -0.0605 -0.2146
  357MOL0     C48087   1.735   2.677   4.790  0.0262 -0.0549 -0.4013
  357MOL0     C48088   1.766   2.827   4.789  0.1553 -0.5307  0.4262
  357MOL0     C48089   1.631   2.603   4.725 -0.0772  0.7036 -0.6687
  357MOL0     C48090   1.522   2.672   4.659 -0.9624  0.3986  0.2334
  357MOL0     O48091   1.528   2.803   4.661 -0.7789 -0.7952 -0.1357
  357MOL0     C48092   1.435   2.884   4.607 -0.8406  0.5844  1.0033
  357MOL0     C48093   1.466   2.972   4.502 -0.4631 -0.9499  0.2279
  357MOL0     C48094   1.374   3.048   4.434  0.3590 -0.8165  0.4260
  357MOL0     C48095   1.237   3.047   4.462 -0.6145  0.0905  0.0128
  357MOL0     O48096   1.153   3.133   4.391 -0.8353 -0.2208  0.5680
  357MOL0     C48097   1.014   3.106   4.399 -0.5902 -0.0048 -0.8013
  357MOL0     C48098   0.937   3.200   4.307 -0.4460 -0.4423 -0.3805
  357MOL0     C48099   0.965   3.350   4.335  0.4851 -1.3172 -0.3045
  357MOL0     C48100   0.897   3.430   4.235  0.4673 -1.2791 -0.6602
  357MOL0     C48101   0.927   3.583   4.235 -0.3309  0.3548  0.0058
  357MOL0     C48102   0.838   3.647   4.132  0.6102  0.4214 -0.7465
  357MOL0     C48103   0.837   3.795   4.146 -0.6890 -0.1453  0.3298
  357MOL0     C48104   0.964   3.844   4.071  0.0690  0.3105 -0.1394
  357MOL0    Cl48105   0.983   3.815   3.890 -0.4154 -0.6500  0.0617
  357MOL0     C48106   1.205   2.963   4.575  0.6088  0.3370  0.5321
  357MOL0     C48107   1.302   2.888   4.638  0.5708  0.1890  0.2331
  357MOL0     O48108   1.434   2.605   4.614 -0.3857 -0.2703 -0.3053
  357MOL0     C48109   1.639   2.461   4.731 -0.2527  0.0653 -0.2653
  357MOL0     C48110   1.734   2.397   4.812 -0.2859  0.1921  0.2692
  357MOL0     N48111   2.333   2.287   5.208  0.3013 -0.0968  0.2640
  357MOL0     N48112   2.463   2.257   5.209  0.2656 -0.2001 -0.1064
  357MOL0     C48113   3.610   1.810   5.154 -0.7747  0.3291 -0.0106
  357MOL0     C48114   3.748   1.840   5.149  0.6583  0.6645  0.0895
  357MOL0     C48115   4.146   2.012   5.240  0.6866 -0.0279  0.2387
  357MOL0     C48116   4.225   2.002   5.354 -0.3788  0.3323 -0.4072
  357MOL0     C48117   4.355   2.039   5.353 -1.1748 -1.6175 -0.0571
  357MOL0     C48118   4.412   2.115   5.246  0.4191  0.7176  0.5708
  357MOL0     O48119   4.547   2.147   5.248 -0.0892 -0.2133  0.5899
  357MOL0     C48120   4.615   2.154   5.125 -0.3799 -0.5657 -0.0899
  357MOL0     C48121   4.770   2.112   5.132  0.0873 -0.2193  0.3357
  357MOL0     C48122   4.824   2.113   4.989 -0.2480  0.6345 -0.1150
  357MOL0     C48123   4.967   2.065   4.982 -0.3527 -0.1258 -0.6534
  357MOL0     C48124   4.998   2.041   4.844 -0.2756  0.2726  0.6126
  357MOL0     C48125   5.012   2.034   4.720 -0.3988 -0.9050 -0.8933
  357MOL0     C48126   4.328   2.138   5.135  0.0855 -0.2426 -0.3508
  357MOL0     C48127   4.193   2.087   5.122 -0.6095 -0.3879 -0.0378
  357MOL0     H48128   3.734   2.174   5.162  1.4328 -0.6936 -0.0141
  357MOL0     H48129   3.488   2.128   5.191  3.0998  2.9722 -0.5869
  357MOL0     H48130   3.269   2.040   5.194 -3.8986 -1.2405  1.7795
  357MOL0     H48131   3.318   2.005   5.025  1.9445  0.8627  0.8688
  357MOL0     H48132   3.086   1.936   5.046 -1.1006 -1.9866 -0.4004
  357MOL0     H48133   3.173   1.788   5.049  0.0146  1.7815 -1.9748
  357MOL0     H48134   3.178   1.781   5.296  0.8170 -1.4604 -3.1707
  357MOL0     H48135   3.083   1.940   5.301 -0.3335  1.3315 -0.0442
  357MOL0     H48136   3.004   1.665   5.189  0.0862  0.6640 -2.9932
  357MOL0     H48137   2.946   1.731   5.343 -2.2253  4.9650  1.5790
  357MOL0     H48138   2.867   1.847   5.072  0.6242  0.9074  0.3630
  357MOL0     H48139   2.768   1.763   5.194  0.4679 -0.7264  0.5546
  357MOL0     H48140   2.816   1.924   5.374 -0.1704 -2.2464  0.2039
  357MOL0     H48141   2.883   2.039   5.249  0.1377  0.5432  0.0901
  357MOL0     H48142   2.675   2.047   5.127  1.1386 -0.1458 -0.2713
  357MOL0     H48143   2.608   1.910   5.215 -0.0156 -0.8632  2.7353
  357MOL0     H48144   2.691   2.188   5.319  0.0010 -0.9609  1.1625
  357MOL0     H48145   2.637   2.064   5.428  2.8319  1.1050  0.5522
  357MOL0     H48146   2.354   2.051   5.438  1.8887 -0.1422 -0.4293
  357MOL0     H48147   2.108   2.099   5.373 -0.6386  0.2038 -0.4569
  357MOL0     H48148   2.099   2.270   5.415 -2.2552 -1.5390 -0.5040
  357MOL0     H48149   1.944   2.188   5.224 -0.2060 -1.8030  1.4745
  357MOL0     H48150   2.086   2.185   5.131  0.2110  0.7450  0.4008
  357MOL0     H48151   2.116   2.430   5.141  0.8150  1.5118  2.7612
  357MOL0     H48152   2.027   2.447   5.287  3.2062  0.2233 -0.6187
  357MOL0     H48153   1.887   2.535   5.127  1.3735  0.9511 -0.8021
  357MOL0     H48154   1.810   2.378   5.148  0.1676 -1.9968 -3.3547
  357MOL0     H48155   1.884   2.659   4.938 -3.2172  3.1644 -0.0054
  357MOL0     H48156   1.728   2.877   4.699 -4.1879 -1.3676  1.5711
  357MOL0     H48157   1.718   2.876   4.874  0.9139  0.6928  0.1735
  357MOL0     H48158   1.873   2.849   4.798 -0.2231  2.9217 -1.6765
  357MOL0     H48159   1.571   2.981   4.475 -0.2836  1.6536  1.5246
  357MOL0     H48160   1.420   3.125   4.371 -2.7743  0.5063 -0.4131
  357MOL0     H48161   0.992   3.003   4.368  0.2733 -0.1479 -0.9620
  357MOL0     H48162   0.977   3.117   4.501 -2.2553 -1.6381 -1.1679
  357MOL0     H48163   0.968   3.179   4.204  2.3608  1.4616 -0.0477
  357MOL0     H48164   0.834   3.176   4.332  0.4100 -1.8965  2.1574
  357MOL0     H48165   1.070   3.381   4.331  0.2573 -0.3540  0.6655
  357MOL0     H48166   0.940   3.368   4.440 -1.3597  0.7699 -1.0163
  357MOL0     H48167   0.918   3.393   4.135  1.9789  1.0590 -1.2995
  357MOL0     H48168   0.791   3.416   4.255 -0.1761  0.9267 -2.2082
  357MOL0     H48169   1.033   3.600   4.216  0.3891 -0.9560  2.4154
  357MOL0     H48170   0.907   3.616   4.338  1.7369  0.0367  0.5417
  357MOL0     H48171   0.848   3.599   4.034 -0.1354 -0.0124 -0.6196
  357MOL0     H48172   0.734   3.620   4.151  0.5947  0.4779 -0.7499
  357MOL0     H48173   0.841   3.814   4.254 -1.9200  2.6955 -0.0353
  357MOL0     H48174   0.748   3.830   4.093  1.1084 -0.7142 -3.4602
  357MOL0     H48175   1.052   3.824   4.132  0.9869  1.9755 -0.8481
  357MOL0     H48176   0.955   3.953   4.080 -1.9408  0.2014 -0.3723
  357MOL0     H48177   1.100   2.944   4.593  0.7193 -0.4485  0.4219
  357MOL0     H48178   1.269   2.816   4.712 -1.3742  0.4139 -0.3512
  357MOL0     H48179   1.564   2.397   4.686  0.3913  1.6391 -3.8848
  357MOL0     H48180   1.739   2.289   4.814  2.0054  0.2408  0.5401
  357MOL0     H48181   3.591   1.704   5.167  0.1971  0.3271  1.7716
  357MOL0     H48182   3.823   1.763   5.131  0.9902  0.3707  2.4127
  357MOL0     H48183   4.186   1.950   5.441 -0.7499  0.7293 -0.3344
  357MOL0     H48184   4.409   2.014   5.443  1.1418  1.8255 -0.3240
  357MOL0     H48185   4.577   2.088   5.046 -1.6957 -0.9450  0.8199
  357MOL0     H48186   4.602   2.254   5.082 -1.7299 -0.3299  0.7978
  357MOL0     H48187   4.775   2.016   5.185  1.8171 -0.5562 -0.3864
  357MOL0     H48188   4.824   2.186   5.193  1.8320  0.9137 -2.3970
  357MOL0     H48189   4.817   2.218   4.956 -0.0946  0.1857 -1.6727
  357MOL0     H48190   4.755   2.050   4.932 -1.5677  2.9218 -1.1845
  357MOL0     H48191   4.973   1.973   5.040  0.9130 -1.0301 -2.1315
  357MOL0     H48192   5.029   2.145   5.024 -3.3823  1.5841  0.8982
  357MOL0     H48193   5.010   2.030   4.613 -2.1163  0.9805 -1.0030
  357MOL0     H48194   4.367   2.200   5.054  0.3311  1.9409  1.3543
  357MOL0     H48195   4.128   2.105   5.037  0.7082  1.5018 -0.7054
  358MOL0     O48196   0.300   8.868   6.886 -0.4988  0.3062 -0.0683
  358MOL0     C48197   0.376   8.770   6.864  0.2533  0.9983 -0.0745
  358MOL0     O48198   0.330   8.644   6.810  0.0610 -0.5800 -0.7065
  358MOL0     C48199   0.196   8.634   6.810  0.8440 -0.1445  0.3513
  358MOL0     C48200   0.143   8.568   6.917  0.0148  0.1800  0.2275
  358MOL0     C48201   0.009   8.546   6.939  1.1865  0.4335 -0.0692
  358MOL0     C48202  -0.086   8.586   6.846  0.7237 -0.9716 -0.3366
  358MOL0     O48203  -0.225   8.562   6.864  0.1482 -0.3060 -0.4429
  358MOL0     C48204  -0.319   8.649   6.804 -0.3283  0.7212  0.4445
  358MOL0     C48205  -0.465   8.593   6.813 -0.3440 -0.2822 -0.8473
  358MOL0     C48206  -0.575   8.666   6.736  0.0847 -0.0339 -0.1311
  358MOL0     C48207  -0.546   8.693   6.589 -0.7290 -0.5206 -0.5026
  358MOL0     C48208  -0.669   8.757   6.532 -0.6411  0.4148 -0.0851
  358MOL0     C48209  -0.685   8.773   6.371  0.7099  1.2574  0.0824
  358MOL0     C48210  -0.563   8.847   6.305  0.5977  0.5564  0.7429
  358MOL0     C48211  -0.583   8.858   6.153 -0.0045 -0.5780  0.1084
  358MOL0     N48212  -0.705   8.934   6.127  0.0897  0.8380  0.6575
  358MOL0     C48213  -0.821   8.891   6.080  0.4324 -0.0668  0.1989
  358MOL0     C48214  -0.892   9.005   6.034  0.7208  0.4070 -0.4876
  358MOL0     C48215  -1.025   9.008   5.956  0.1189 -0.0025 -0.0059
  358MOL0     C48216  -1.132   8.913   6.016 -0.5716 -0.1331 -0.0504
  358MOL0     C48217  -1.152   8.950   6.170  0.0203 -0.4665 -0.6212
  358MOL0     C48218  -1.258   8.854   6.227 -1.0438 -0.5010 -0.3132
  358MOL0     O48219  -1.285   8.883   6.366  0.6262  0.4943  0.0688
  358MOL0     C48220  -1.356   8.993   6.412 -0.8175 -0.0384 -0.9067
  358MOL0     C48221  -1.423   9.085   6.334 -0.2172  0.1442 -0.6765
  358MOL0     C48222  -1.486   9.198   6.386 -0.1946 -0.4677  0.6697
  358MOL0     C48223  -1.551   9.285   6.276  0.5045  0.6432  0.9902
  358MOL0     C48224  -1.483   9.224   6.526 -0.0101  0.0897  0.4322
  358MOL0     C48225  -1.548   9.334   6.600  0.1231  0.1269  0.5854
  358MOL0     O48226  -1.562   9.305   6.733  0.5360 -0.3867 -0.2212
  358MOL0     C48227  -1.640   9.393   6.806  0.0572 -1.1288  0.0381
  358MOL0     C48228  -1.591   9.500   6.878 -0.2171 -0.0433  0.9890
  358MOL0     C48229  -1.685   9.569   6.963 -0.1832 -0.3581  0.8130
  358MOL0     C48230  -1.822   9.542   6.953 -0.2871  0.3892 -0.4799
  358MOL0     O48231  -1.901   9.633   7.026  0.1381 -0.5330  0.0739
  358MOL0     C48232  -2.018   9.687   6.956 -0.3458  0.1026 -0.0669
  358MOL0     C48233  -2.101   9.739   7.070 -0.5835 -0.2607 -0.3422
  358MOL0     C48234  -2.238   9.794   7.013 -0.6175  0.5194 -0.5482
  358MOL0     C48235  -2.347   9.700   7.038 -0.1095  0.0273 -0.1993
  358MOL0     C48236  -2.481   9.773   7.005  0.6108  0.1491 -0.0164
  358MOL0     C48237  -2.593   9.663   6.995  0.5265 -0.7423  0.3119
  358MOL0     C48238  -2.648   9.636   7.143 -0.6736  1.0070  0.9156
  358MOL0     C48239  -2.780   9.548   7.130 -0.1586 -0.6088  0.3145
  358MOL0    Cl48240  -2.723   9.389   7.116  0.0059 -0.0092 -0.1876
  358MOL0     C48241  -1.867   9.441   6.870 -0.2042 -0.9217 -0.4624
  358MOL0     C48242  -1.781   9.367   6.802 -1.3963  0.2302 -0.5429
  358MOL0     O48243  -1.582   9.436   6.542  0.8674  0.1198 -1.0614
  358MOL0     C48244  -1.418   9.132   6.602 -0.0437  0.6035 -0.4232
  358MOL0     C48245  -1.347   9.020   6.547 -0.3978  0.1999 -0.7441
  358MOL0     N48246  -0.812   9.114   6.047 -0.2351  0.3160  1.0190
  358MOL0     N48247  -0.705   9.072   6.109 -0.9730 -0.3448 -0.3739
  358MOL0     C48248  -0.038   8.649   6.726 -0.7469  0.2969  0.1867
  358MOL0     C48249   0.102   8.682   6.713 -0.4013  0.3715  0.3008
  358MOL0     C48250   0.526   8.795   6.871  0.1230 -0.2033 -0.5842
  358MOL0     C48251   0.575   8.929   6.903  0.2984  1.0358  0.3127
  358MOL0     C48252   0.710   8.943   6.920 -0.1522 -0.3687 -0.5001
  358MOL0     C48253   0.803   8.833   6.919  0.3152  0.1889  0.1714
  358MOL0     O48254   0.939   8.873   6.920  0.6310 -0.5002 -0.0048
  358MOL0     C48255   1.048   8.781   6.893  0.5498  0.6181 -0.2004
  358MOL0     C48256   1.169   8.866   6.915 -0.0130 -0.7073 -0.1818
  358MOL0     C48257   1.295   8.778   6.920  1.2972  0.3525  0.0005
  358MOL0     C48258   1.415   8.867   6.965  0.4068 -0.0024  0.0938
  358MOL0     C48259   1.533   8.792   6.987 -0.5541 -0.1939 -0.1925
  358MOL0     C48260   1.636   8.730   7.015  0.2440 -0.3768 -0.0360
  358MOL0     C48261   0.759   8.707   6.882  0.0632 -0.1736 -0.2928
  358MOL0     C48262   0.619   8.692   6.852  0.5135  0.3269  0.0262
  358MOL0     H48263   0.222   8.544   6.988  0.5237 -0.6070 -0.5815
  358MOL0     H48264  -0.027   8.499   7.031  1.9374 -0.2142 -0.0952
  358MOL0     H48265  -0.309   8.746   6.855  1.5316  0.4494  0.6667
  358MOL0     H48266  -0.301   8.671   6.698  2.5145  1.6857  1.0310
  358MOL0     H48267  -0.441   8.493   6.777  4.6997  1.4185 -3.1884
  358MOL0     H48268  -0.491   8.588   6.919  0.8070 -0.2560 -0.5448
  358MOL0     H48269  -0.660   8.600   6.752 -0.0875  0.7847  2.8421
  358MOL0     H48270  -0.601   8.752   6.798  1.3472  0.3907 -0.1565
  358MOL0     H48271  -0.469   8.770   6.581 -2.2908  1.4945  2.0644
  358MOL0     H48272  -0.528   8.601   6.533  0.5469 -1.9269  2.0379
  358MOL0     H48273  -0.758   8.696   6.553 -1.6439  1.5841 -0.7840
  358MOL0     H48274  -0.688   8.850   6.586 -0.5279 -0.3573  1.3493
  358MOL0     H48275  -0.693   8.676   6.321 -3.4066  1.9397 -0.9660
  358MOL0     H48276  -0.771   8.834   6.343  0.6140  0.5204 -1.3543
  358MOL0     H48277  -0.546   8.944   6.352  3.0921  0.1236  0.8682
  358MOL0     H48278  -0.474   8.785   6.314 -0.8629 -2.4968 -3.0124
  358MOL0     H48279  -0.595   8.763   6.101 -0.4812  0.3623 -1.5872
  358MOL0     H48280  -0.497   8.915   6.116 -0.5855  1.5656  1.7995
  358MOL0     H48281  -0.846   8.785   6.069  0.9844 -0.0730 -1.1273
  358MOL0     H48282  -1.062   9.110   5.944 -0.0990  0.0808  1.2337
  358MOL0     H48283  -0.998   8.975   5.855  2.4891  1.7211 -0.0198
  358MOL0     H48284  -1.114   8.805   6.015 -4.6440 -0.9536  0.3339
  358MOL0     H48285  -1.226   8.928   5.962 -1.6700 -0.9508  1.5529
  358MOL0     H48286  -1.180   9.055   6.176  0.6021 -0.3788  1.1118
  358MOL0     H48287  -1.066   8.936   6.237 -1.5106  1.6224  1.9914
  358MOL0     H48288  -1.221   8.751   6.226  0.7997  0.0932  1.0477
  358MOL0     H48289  -1.346   8.877   6.166  1.4052  2.3128 -3.1314
  358MOL0     H48290  -1.425   9.068   6.227  1.1687  0.9372 -0.8571
  358MOL0     H48291  -1.479   9.353   6.230  3.1899 -1.3603  1.9482
  358MOL0     H48292  -1.591   9.218   6.199  0.0032  0.4279  1.4286
  358MOL0     H48293  -1.638   9.339   6.315  0.4128 -0.8854  3.1081
  358MOL0     H48294  -1.485   9.522   6.876 -0.4927  1.5556  1.8463
  358MOL0     H48295  -1.662   9.652   7.030 -1.0319  1.3837 -0.9795
  358MOL0     H48296  -1.992   9.759   6.878 -2.8191 -0.3081 -1.3612
  358MOL0     H48297  -2.074   9.607   6.908 -0.7682  1.0887 -1.2663
  358MOL0     H48298  -2.115   9.665   7.149 -2.8984 -0.2859 -0.7289
  358MOL0     H48299  -2.046   9.826   7.107 -2.1297  1.6452 -2.2613
  358MOL0     H48300  -2.237   9.829   6.910  3.7842  1.0424 -0.5405
  358MOL0     H48301  -2.262   9.881   7.075  0.3306  0.3846  0.0285
  358MOL0     H48302  -2.330   9.611   6.975  0.0603  1.1291 -1.7753
  358MOL0     H48303  -2.348   9.678   7.145 -1.1678  1.4475  0.1115
  358MOL0     H48304  -2.467   9.820   6.907  1.1280  1.4495  0.6485
  358MOL0     H48305  -2.502   9.846   7.084 -1.0267 -0.9603  0.6314
  358MOL0     H48306  -2.677   9.702   6.938 -0.0947 -1.8643  0.4307
  358MOL0     H48307  -2.554   9.569   6.953  0.4000 -0.1772 -1.1192
  358MOL0     H48308  -2.671   9.735   7.182 -0.5393  1.1891  0.5298
  358MOL0     H48309  -2.578   9.592   7.215  0.3702  1.0742 -0.0374
  358MOL0     H48310  -2.838   9.571   7.041 -0.2065 -0.2928  0.4258
  358MOL0     H48311  -2.842   9.553   7.219 -0.5544  1.9119 -0.0213
  358MOL0     H48312  -1.972   9.419   6.850  0.5865 -2.5415 -3.4331
  358MOL0     H48313  -1.814   9.284   6.739  0.9739 -1.6057  0.4476
  358MOL0     H48314  -1.387   9.158   6.703  0.1988  0.5114 -0.4725
  358MOL0     H48315  -1.284   8.959   6.611 -0.7797  0.7568  0.1848
  358MOL0     H48316  -0.106   8.682   6.649 -0.8689 -0.2428  0.0573
  358MOL0     H48317   0.133   8.741   6.626  3.3362 -0.1332  1.0941
  358MOL0     H48318   0.511   9.016   6.909 -0.5898  0.3462  1.0732
  358MOL0     H48319   0.754   9.042   6.923  1.2692 -0.9938  0.3303
  358MOL0     H48320   1.045   8.704   6.970 -1.2512  0.6564 -0.2005
  358MOL0     H48321   1.042   8.732   6.795  1.0986 -2.9903  1.4177
  358MOL0     H48322   1.160   8.926   7.006  1.0315  0.8103 -1.0395
  358MOL0     H48323   1.172   8.938   6.833  0.3561 -1.4845 -0.8720
  358MOL0     H48324   1.312   8.734   6.821 -0.0958 -0.2489  0.0217
  358MOL0     H48325   1.295   8.691   6.987 -2.8256  0.0005 -0.2061
  358MOL0     H48326   1.396   8.935   7.049 -0.4525 -1.1832  0.8866
  358MOL0     H48327   1.427   8.937   6.882 -2.0221 -0.0799 -0.4124
  358MOL0     H48328   1.715   8.659   7.030  0.5628 -0.9569 -3.5803
  358MOL0     H48329   0.824   8.621   6.867  0.8942  0.3347  0.3471
  358MOL0     H48330   0.574   8.604   6.808  0.5035  0.9757 -1.3355
  359MOL0     O48331   3.653   7.295   0.194 -0.8328 -0.0684 -0.1152
  359MOL0     C48332   3.711   7.234   0.282 -0.3844 -0.3788  0.9581
  359MOL0     O48333   3.656   7.212   0.413 -0.0685  0.4751  0.9603
  359MOL0     C48334   3.521   7.220   0.446  0.0575  0.1107  0.7203
  359MOL0     C48335   3.493   7.182   0.581  0.7587 -0.8046 -0.0333
  359MOL0     C48336   3.363   7.192   0.631 -0.0247 -0.7562  0.9219
  359MOL0     C48337   3.253   7.205   0.537  0.3600  0.0377 -0.3238
  359MOL0     O48338   3.122   7.232   0.575 -0.3461 -0.4297  0.6894
  359MOL0     C48339   3.079   7.186   0.699 -0.0728 -0.2347 -0.0834
  359MOL0     C48340   2.925   7.215   0.716 -0.3186  0.0760  0.8613
  359MOL0     C48341   2.835   7.142   0.612  0.9467  0.0331  0.4986
  359MOL0     C48342   2.690   7.171   0.635 -0.2883  0.4552  0.2921
  359MOL0     C48343   2.598   7.057   0.588 -0.4512 -0.9460 -0.3421
  359MOL0     C48344   2.450   7.088   0.631 -0.9146  0.1543  0.2026
  359MOL0     C48345   2.415   7.006   0.759  0.3768  0.0949 -0.3018
  359MOL0     C48346   2.393   6.857   0.726  0.7473 -0.2312  0.3015
  359MOL0     N48347   2.289   6.835   0.619 -0.2930 -0.5448  0.0883
  359MOL0     C48348   2.165   6.895   0.618  0.4883  0.3590 -0.1924
  359MOL0     C48349   2.098   6.835   0.514  0.1295 -0.0973  0.3728
  359MOL0     C48350   1.952   6.867   0.490 -0.2774 -0.6223 -0.3526
  359MOL0     C48351   1.867   6.749   0.544  0.0564  0.1979 -0.1131
  359MOL0     C48352   1.719   6.800   0.567  0.6410 -0.6583 -0.1511
  359MOL0     C48353   1.640   6.828   0.440 -0.2341 -0.4747  0.1636
  359MOL0     O48354   1.587   6.960   0.466 -0.4619 -0.0530  0.4387
  359MOL0     C48355   1.454   6.983   0.444 -0.5372  0.0130 -0.0495
  359MOL0     C48356   1.357   6.900   0.500  0.3649 -0.7155 -0.0129
  359MOL0     C48357   1.220   6.932   0.500  0.7401  0.5266 -0.2921
  359MOL0     C48358   1.136   6.850   0.603 -0.1591  0.4915 -0.4397
  359MOL0     C48359   1.171   7.034   0.416 -0.9612  0.5448  0.3709
  359MOL0     C48360   1.031   7.075   0.408  0.2613 -0.2083  0.0898
  359MOL0     O48361   0.938   6.976   0.401 -0.3498  0.1870  0.2529
  359MOL0     C48362   0.808   7.010   0.417  0.7949  0.4802  0.5958
  359MOL0     C48363   0.726   6.902   0.363 -0.0267 -0.3355 -0.0708
  359MOL0     C48364   0.585   6.913   0.376 -0.1084 -0.3388 -0.0073
  359MOL0     C48365   0.527   7.026   0.443 -0.6326  0.6287 -0.2679
  359MOL0     O48366   0.393   7.018   0.443 -0.6829  0.1780 -0.2975
  359MOL0     C48367   0.312   7.113   0.525 -0.8290 -0.1147  0.8171
  359MOL0     C48368   0.180   7.053   0.573  0.2338 -0.3802  0.5574
  359MOL0     C48369   0.118   7.155   0.670 -0.3073  0.5818  0.3444
  359MOL0     C48370  -0.039   7.144   0.655 -0.0115  0.0079 -1.5730
  359MOL0     C48371  -0.091   7.022   0.712 -0.3519  0.3608 -0.3078
  359MOL0     C48372  -0.231   6.974   0.673 -0.2253  0.0115 -0.0835
  359MOL0     C48373  -0.350   7.062   0.716  0.3961 -0.2295 -0.4669
  359MOL0     C48374  -0.482   7.015   0.644 -0.0626 -0.0095  0.0449
  359MOL0    Cl48375  -0.492   6.837   0.619  0.4058 -0.2476  0.1893
  359MOL0     C48376   0.610   7.126   0.489  0.0111  0.0869  0.5854
  359MOL0     C48377   0.744   7.117   0.474 -0.1473  0.2226 -0.4307
  359MOL0     O48378   1.010   7.199   0.400  0.3951 -0.3398 -0.0440
  359MOL0     C48379   1.270   7.121   0.370 -0.1531  0.0918  0.1075
  359MOL0     C48380   1.409   7.098   0.386  0.7416 -0.6268  0.9351
  359MOL0     N48381   2.188   6.760   0.445  0.8535  0.6264  0.0527
  359MOL0     N48382   2.294   6.752   0.518 -0.1745 -0.0319 -0.4200
  359MOL0     C48383   3.283   7.236   0.403  0.4510 -0.6174 -0.2407
  359MOL0     C48384   3.414   7.251   0.363 -0.0829  0.4149  1.0054
  359MOL0     C48385   3.859   7.194   0.264 -0.4116  0.2522 -0.2857
  359MOL0     C48386   3.930   7.127   0.366  1.1865 -0.7195 -0.6626
  359MOL0     C48387   4.063   7.093   0.348  0.8156 -0.2823 -0.1388
  359MOL0     C48388   4.126   7.127   0.231  0.5879  0.1472 -0.1054
  359MOL0     O48389   4.257   7.079   0.207 -0.2326 -0.7502  0.2444
  359MOL0     C48390   4.260   6.957   0.134 -0.0640 -0.2919 -0.9840
  359MOL0     C48391   4.401   6.905   0.122 -0.1059 -0.1953  0.0055
  359MOL0     C48392   4.476   7.009   0.039  0.4431 -0.6772  0.3195
  359MOL0     C48393   4.613   6.958  -0.001 -1.2769  0.7074 -0.1074
  359MOL0     C48394   4.618   6.828  -0.077 -0.1132 -0.4313 -0.9448
  359MOL0     C48395   4.607   6.720  -0.136 -0.8191 -0.7287  0.1328
  359MOL0     C48396   4.062   7.210   0.133 -0.0697 -0.5506 -0.2157
  359MOL0     C48397   3.927   7.229   0.149  0.0842  0.1128  0.0607
  359MOL0     H48398   3.580   7.163   0.644  0.5086  0.2950  0.6807
  359MOL0     H48399   3.344   7.172   0.736 -1.3722 -2.8103  0.3659
  359MOL0     H48400   3.121   7.086   0.710  2.5361  0.8145  0.3217
  359MOL0     H48401   3.121   7.250   0.777  0.4525  0.1230 -0.6462
  359MOL0     H48402   2.905   7.182   0.818  3.1980  3.4479  2.8942
  359MOL0     H48403   2.911   7.323   0.709 -0.1285  0.1333  1.3771
  359MOL0     H48404   2.864   7.172   0.511 -1.2936  3.3025  0.6543
  359MOL0     H48405   2.861   7.036   0.615 -2.6773 -1.1705 -2.6200
  359MOL0     H48406   2.667   7.190   0.740 -1.3818 -1.0100  0.3513
  359MOL0     H48407   2.675   7.264   0.579  2.4257  0.3676 -0.7629
  359MOL0     H48408   2.597   7.038   0.481 -1.5237  0.3890 -0.6022
  359MOL0     H48409   2.637   6.972   0.645  2.6994  0.3261 -0.4144
  359MOL0     H48410   2.436   7.196   0.639  2.0038  0.7487 -1.4824
  359MOL0     H48411   2.397   7.050   0.543  0.7894 -2.1106  0.0677
  359MOL0     H48412   2.486   7.018   0.842 -1.2123  1.1088  0.9558
  359MOL0     H48413   2.325   7.048   0.804  1.3494  2.1655 -0.1776
  359MOL0     H48414   2.361   6.807   0.819 -2.6260  1.2517  0.0718
  359MOL0     H48415   2.487   6.809   0.697 -1.4737 -3.7914 -1.8145
  359MOL0     H48416   2.122   6.971   0.683  0.6521 -0.0523  0.4001
  359MOL0     H48417   1.929   6.958   0.545  0.2127 -0.2029 -0.8288
  359MOL0     H48418   1.954   6.890   0.383  1.3793 -2.4364 -0.7820
  359MOL0     H48419   1.900   6.714   0.642  0.2081 -2.2495 -0.9846
  359MOL0     H48420   1.878   6.668   0.472  0.6054  0.7658 -0.6778
  359MOL0     H48421   1.734   6.889   0.628  0.5791 -0.9778  0.3324
  359MOL0     H48422   1.666   6.727   0.629  1.5993 -1.6307 -0.4193
  359MOL0     H48423   1.554   6.761   0.428 -2.5412  2.4442 -1.0207
  359MOL0     H48424   1.705   6.836   0.353 -0.8838 -1.7013 -0.4681
  359MOL0     H48425   1.381   6.820   0.569 -0.0319  0.6615  1.7943
  359MOL0     H48426   1.051   6.800   0.557 -2.7641  2.0931  2.3231
  359MOL0     H48427   1.181   6.770   0.662 -2.7001  1.1131  2.5986
  359MOL0     H48428   1.103   6.908   0.690  0.3909 -0.5661  0.5043
  359MOL0     H48429   0.767   6.816   0.313  1.3356  0.5812 -0.5803
  359MOL0     H48430   0.522   6.837   0.332 -2.2076  1.7180 -0.7331
  359MOL0     H48431   0.376   7.131   0.611 -0.4686  0.4067  0.4467
  359MOL0     H48432   0.301   7.210   0.476 -1.5962 -0.6516 -0.1286
  359MOL0     H48433   0.121   7.024   0.486  2.4281  1.4478 -1.6459
  359MOL0     H48434   0.199   6.959   0.627 -0.8344  0.0495  1.7469
  359MOL0     H48435   0.151   7.256   0.646  0.7004 -0.1311 -1.4970
  359MOL0     H48436   0.152   7.135   0.772  0.7714  2.1477  0.3318
  359MOL0     H48437  -0.080   7.228   0.711  1.1161  0.7575 -1.8431
  359MOL0     H48438  -0.072   7.153   0.551 -3.4152 -0.5971 -0.6774
  359MOL0     H48439  -0.068   7.021   0.819  4.3844 -0.5063 -1.1035
  359MOL0     H48440  -0.026   6.944   0.672 -3.2819 -1.1340 -2.5327
  359MOL0     H48441  -0.240   6.965   0.564 -1.5504  5.0463 -0.6162
  359MOL0     H48442  -0.243   6.876   0.721 -0.4022  0.3168  0.4970
  359MOL0     H48443  -0.340   7.168   0.690 -0.8469 -0.4243 -1.8259
  359MOL0     H48444  -0.373   7.050   0.823 -0.9247 -4.9935 -1.0532
  359MOL0     H48445  -0.482   7.054   0.541 -0.8743  2.1273  0.8083
  359MOL0     H48446  -0.567   7.052   0.701 -0.9121 -1.9718  0.1144
  359MOL0     H48447   0.573   7.220   0.530 -0.4350  0.5745 -0.8657
  359MOL0     H48448   0.802   7.203   0.508  0.4611 -0.4211  0.1877
  359MOL0     H48449   1.229   7.208   0.319  1.7605 -0.3708 -2.4347
  359MOL0     H48450   1.484   7.166   0.346 -0.6955 -0.0013 -0.8308
  359MOL0     H48451   3.211   7.249   0.323  0.2403  1.0861  0.1921
  359MOL0     H48452   3.423   7.280   0.258  1.5552 -1.8961  0.4218
  359MOL0     H48453   3.880   7.101   0.458 -0.6983  0.3376 -1.3213
  359MOL0     H48454   4.106   7.018   0.413 -0.5478 -1.0238 -0.0597
  359MOL0     H48455   4.213   6.876   0.189  0.0958 -0.4355 -1.0562
  359MOL0     H48456   4.221   6.965   0.032  0.0636  0.8530 -0.9517
  359MOL0     H48457   4.398   6.815   0.059  0.7574 -1.3652  1.5846
  359MOL0     H48458   4.445   6.871   0.216 -1.7350 -1.2614  0.4228
  359MOL0     H48459   4.492   7.106   0.087  3.7731 -0.4912 -0.9379
  359MOL0     H48460   4.410   7.022  -0.047 -0.1205  0.4121  0.8944
  359MOL0     H48461   4.672   6.944   0.090 -1.2902  1.5200  0.0372
  359MOL0     H48462   4.665   7.032  -0.063  1.5146 -0.0050  1.2048
  359MOL0     H48463   4.600   6.633  -0.198 -0.1659  0.3152 -1.4696
  359MOL0     H48464   4.122   7.240   0.047 -0.8281  1.6936 -0.0248
  359MOL0     H48465   3.882   7.286   0.069  0.8238  0.5047 -0.0777
  360MOL0     O48466   4.052   9.655  10.770  0.1744  0.4040 -0.3638
  360MOL0     C48467   4.027   9.679  10.649 -0.1057 -0.2681  0.3076
  360MOL0     O48468   4.127   9.695  10.549  0.1798  0.5480  0.3355
  360MOL0     C48469   4.261   9.691  10.584  0.2519 -0.3826 -0.1615
  360MOL0     C48470   4.359   9.632  10.509 -0.6144 -0.4715  0.1826
  360MOL0     C48471   4.493   9.629  10.542 -0.4987  0.0828  0.3556
  360MOL0     C48472   4.538   9.697  10.658 -0.1449 -0.2144  0.2358
  360MOL0     O48473   4.670   9.689  10.704  0.1517 -0.1076  0.1702
  360MOL0     C48474   4.769   9.656  10.604 -0.2995 -0.2948 -0.1355
  360MOL0     C48475   4.902   9.662  10.664  0.0953  0.3947 -0.1831
  360MOL0     C48476   4.915   9.577  10.800 -0.5563 -1.0965 -0.7869
  360MOL0     C48477   5.060   9.522  10.820  0.5155 -1.0203 -0.2044
  360MOL0     C48478   5.089   9.428  10.938  0.4978  0.4387 -0.3954
  360MOL0     C48479   5.014   9.299  10.912 -0.2825  0.3295  0.5771
  360MOL0     C48480   5.027   9.187  11.014 -0.4325  0.1776 -0.4488
  360MOL0     C48481   4.950   9.058  10.977  0.2168 -0.5564 -0.6134
  360MOL0     N48482   4.999   8.944  11.065  0.3776 -0.5478  0.4553
  360MOL0     C48483   4.950   8.923  11.188 -0.0383  0.5117  0.0976
  360MOL0     C48484   5.023   8.821  11.224 -0.7817  0.0085 -0.6325
  360MOL0     C48485   5.004   8.742  11.351 -0.0135 -1.3921 -1.2862
  360MOL0     C48486   4.877   8.657  11.337 -0.2774  1.1001 -0.7855
  360MOL0     C48487   4.889   8.560  11.224 -0.2359 -0.3988  0.0313
  360MOL0     C48488   4.747   8.496  11.197 -0.2020 -0.0780  0.1517
  360MOL0     O48489   4.675   8.473  11.310 -0.4614  0.7750  0.9874
  360MOL0     C48490   4.538   8.463  11.298 -0.2247  0.6156 -0.4339
  360MOL0     C48491   4.472   8.440  11.419  0.2109  0.4087  0.1079
  360MOL0     C48492   4.331   8.431  11.424 -0.2658 -0.0556  0.1233
  360MOL0     C48493   4.255   8.407  11.556  0.6177  0.0565  0.3779
  360MOL0     C48494   4.260   8.446  11.301 -0.9387 -0.2681  0.1526
  360MOL0     C48495   4.110   8.448  11.294 -0.0259  0.2233 -0.6726
  360MOL0     O48496   4.067   8.509  11.185  0.2128  0.0099  0.4844
  360MOL0     C48497   3.944   8.508  11.143  0.1861 -0.7795  0.0993
  360MOL0     C48498   3.834   8.546  11.222  0.0509  0.8951  1.4152
  360MOL0     C48499   3.708   8.546  11.167  0.9647 -0.5250 -0.8424
  360MOL0     C48500   3.677   8.528  11.036  0.1191 -0.0225 -0.2627
  360MOL0     O48501   3.556   8.541  10.978 -0.4848  0.8717 -0.0786
  360MOL0     C48502   3.434   8.531  11.061  0.2210 -0.6385 -0.8372
  360MOL0     C48503   3.311   8.555  10.978 -0.0122  0.5877  0.7154
  360MOL0     C48504   3.180   8.543  11.052  0.1877  0.3728 -0.4312
  360MOL0     C48505   3.061   8.495  10.971  0.5981 -0.0782 -0.0476
  360MOL0     C48506   2.945   8.550  11.054 -0.2768 -0.2023  1.7612
  360MOL0     C48507   2.814   8.493  10.986 -0.2510  0.0735 -0.1524
  360MOL0     C48508   2.694   8.504  11.072 -0.0506  0.0362  0.0595
  360MOL0     C48509   2.596   8.393  11.036 -1.0052  0.2181 -0.2232
  360MOL0    Cl48510   2.438   8.439  11.106 -0.0225  0.4364 -0.2609
  360MOL0     C48511   3.792   8.522  10.950  0.5902 -0.4485 -0.1938
  360MOL0     C48512   3.921   8.505  11.003  0.5522  0.2660  0.0700
  360MOL0     O48513   4.034   8.391  11.379 -0.0228  0.3534  0.7981
  360MOL0     C48514   4.328   8.439  11.179 -1.1510  0.0082  0.2346
  360MOL0     C48515   4.465   8.444  11.180 -0.4619 -0.3436  0.0489
  360MOL0     N48516   5.111   8.787  11.126  0.5984  0.2109  0.0917
  360MOL0     N48517   5.096   8.863  11.029  0.5929 -0.2525 -0.2544
  360MOL0     C48518   4.440   9.773  10.734 -1.0191 -0.4974 -0.1774
  360MOL0     C48519   4.303   9.774  10.689 -0.0716  0.3583  0.6249
  360MOL0     C48520   3.895   9.704  10.600 -0.4144 -0.5892  0.4512
  360MOL0     C48521   3.869   9.712  10.462 -0.8708 -0.8092 -0.4491
  360MOL0     C48522   3.733   9.751  10.421 -0.6049 -0.1899 -0.2868
  360MOL0     C48523   3.624   9.758  10.509 -0.1177 -0.0281 -0.9353
  360MOL0     O48524   3.503   9.794  10.446  0.1993  0.1960 -0.4125
  360MOL0     C48525   3.396   9.822  10.538  0.6088 -0.7917  0.1761
  360MOL0     C48526   3.269   9.858  10.467  0.0772  0.1322  0.3545
  360MOL0     C48527   3.177   9.918  10.566  0.3352  0.2585  0.3036
  360MOL0     C48528   3.027   9.921  10.522  0.0124  0.0263 -0.3883
  360MOL0     C48529   2.953   9.993  10.626 -0.1952 -0.0564  1.2833
  360MOL0     C48530   2.891  10.060  10.707 -0.6468 -0.7058 -0.5142
  360MOL0     C48531   3.652   9.734  10.648 -0.5372  0.8532  0.2890
  360MOL0     C48532   3.787   9.705  10.688 -0.6074 -0.8616 -0.2296
  360MOL0     H48533   4.338   9.593  10.409 -2.2962  0.6066  0.0718
  360MOL0     H48534   4.554   9.577  10.469  3.7391  1.0524  2.8872
  360MOL0     H48535   4.753   9.556  10.564  0.9807 -0.0007 -1.4950
  360MOL0     H48536   4.758   9.737  10.531  0.3955  0.4287  0.5421
  360MOL0     H48537   4.974   9.644  10.583 -0.2419  1.7389 -0.8124
  360MOL0     H48538   4.924   9.762  10.702  2.0304 -0.3840  0.8395
  360MOL0     H48539   4.887   9.647  10.879 -1.6666 -0.6504 -1.5516
  360MOL0     H48540   4.848   9.491  10.789 -0.6720 -1.3017  1.1713
  360MOL0     H48541   5.098   9.473  10.730 -0.8049  0.1151 -1.4372
  360MOL0     H48542   5.124   9.607  10.843 -3.3306  1.6111  1.7592
  360MOL0     H48543   5.197   9.416  10.948  0.8756  2.7384 -1.1108
  360MOL0     H48544   5.060   9.461  11.038  0.3079  0.5642 -0.4907
  360MOL0     H48545   4.908   9.322  10.899  0.2626  1.9212 -1.6351
  360MOL0     H48546   5.058   9.265  10.818 -1.2390 -0.1598  0.2988
  360MOL0     H48547   5.130   9.154  11.029 -1.5884 -2.7647  2.0241
  360MOL0     H48548   4.978   9.224  11.105 -0.8520 -1.1110 -0.1317
  360MOL0     H48549   4.975   9.033  10.873 -3.8152  1.6709 -2.3426
  360MOL0     H48550   4.844   9.084  10.978  0.7098  1.6475 -0.5988
  360MOL0     H48551   4.873   8.979  11.239 -2.4261  0.3341 -2.9431
  360MOL0     H48552   5.088   8.674  11.371  1.0618  0.1435 -0.3656
  360MOL0     H48553   5.003   8.811  11.435 -0.5137 -0.0779 -2.3464
  360MOL0     H48554   4.790   8.724  11.337  0.1607  1.7401  1.1746
  360MOL0     H48555   4.873   8.596  11.428  0.7657  1.2664 -0.6208
  360MOL0     H48556   4.958   8.482  11.257  1.2993  0.9875  0.2589
  360MOL0     H48557   4.924   8.605  11.130  1.0775  1.8143  1.4747
  360MOL0     H48558   4.768   8.410  11.132  4.9018 -0.2989  1.6376
  360MOL0     H48559   4.696   8.573  11.139  2.1815  1.0357 -0.6118
  360MOL0     H48560   4.524   8.441  11.515  0.8764 -0.1950 -0.2404
  360MOL0     H48561   4.219   8.304  11.569  1.1580 -0.2527 -0.4798
  360MOL0     H48562   4.323   8.437  11.636  2.6022  1.9828 -1.8586
  360MOL0     H48563   4.173   8.480  11.563 -0.9893 -1.4570 -1.2210
  360MOL0     H48564   3.853   8.574  11.325 -1.2095  2.1901  1.3262
  360MOL0     H48565   3.623   8.563  11.232 -0.2600  1.3630 -2.8183
  360MOL0     H48566   3.426   8.433  11.109  0.0815  0.7158  2.1384
  360MOL0     H48567   3.422   8.616  11.128  0.9943 -0.9598 -0.2821
  360MOL0     H48568   3.311   8.653  10.930 -0.2376  0.5998  0.7394
  360MOL0     H48569   3.308   8.483  10.895  1.6668  1.8154 -0.4797
  360MOL0     H48570   3.160   8.634  11.108 -0.0583 -0.8990  1.6422
  360MOL0     H48571   3.195   8.465  11.127 -1.2562 -0.2254 -0.7155
  360MOL0     H48572   3.059   8.543  10.873  0.0960  2.2123  1.0324
  360MOL0     H48573   3.052   8.386  10.961 -3.9784 -0.0248  1.3959
  360MOL0     H48574   2.943   8.658  11.038 -0.0752 -0.6898 -3.4102
  360MOL0     H48575   2.952   8.529  11.161 -0.4988  0.4821  1.9150
  360MOL0     H48576   2.795   8.547  10.893  1.4046  0.6604 -0.1870
  360MOL0     H48577   2.831   8.390  10.954  0.6306  0.3202 -0.5010
  360MOL0     H48578   2.654   8.605  11.055  1.6570  0.6799 -0.3834
  360MOL0     H48579   2.718   8.492  11.179  2.2733 -1.1498 -0.5365
  360MOL0     H48580   2.626   8.293  11.066  2.1192  0.7271 -1.2896
  360MOL0     H48581   2.593   8.392  10.926  0.9096 -0.5535 -0.3067
  360MOL0     H48582   3.778   8.518  10.843 -0.5070 -0.7689 -0.0536
  360MOL0     H48583   4.007   8.494  10.938 -1.1272 -1.9270 -1.9547
  360MOL0     H48584   4.286   8.444  11.079 -0.7150  3.1372  0.1078
  360MOL0     H48585   4.514   8.448  11.084 -2.0202 -4.3900 -1.1466
  360MOL0     H48586   4.465   9.829  10.823  0.7569 -1.2700 -0.1470
  360MOL0     H48587   4.229   9.837  10.737  1.0313  0.2207  2.5804
  360MOL0     H48588   3.949   9.711  10.388  0.3092 -0.4243  0.7808
  360MOL0     H48589   3.717   9.769  10.315 -0.3708 -2.0644 -0.6759
  360MOL0     H48590   3.369   9.738  10.602 -0.6924  0.1554  0.9037
  360MOL0     H48591   3.426   9.904  10.603  0.3726  0.0105 -0.7036
  360MOL0     H48592   3.226   9.773  10.414  0.3217  1.4744 -2.1343
  360MOL0     H48593   3.292   9.925  10.384 -1.4272 -3.0170 -2.8628
  360MOL0     H48594   3.209  10.019  10.595  0.4871  0.0018  1.0518
  360MOL0     H48595   3.188   9.850  10.651  4.7640 -2.1236 -1.8237
  360MOL0     H48596   2.987   9.819  10.517 -1.0137  0.3688  0.3679
  360MOL0     H48597   3.014   9.974  10.428  3.0877  0.3524 -0.7257
  360MOL0     H48598   2.831  10.110  10.781  1.0395 -0.5729  0.8339
  360MOL0     H48599   3.567   9.731  10.716 -1.6409  0.1488 -1.0719
  360MOL0     H48600   3.801   9.683  10.794  0.2859 -2.8009 -0.6955
  361MOL0     O48601   9.093   1.648   4.157 -0.5885 -0.1891  0.2843
  361MOL0     C48602   9.175   1.711   4.084  0.3612  1.2946 -0.3173
  361MOL0     O48603   9.144   1.809   3.990 -0.2363  0.1530 -0.1931
  361MOL0     C48604   9.034   1.803   3.906  0.1255  0.1187 -0.0067
  361MOL0     C48605   8.974   1.681   3.883  0.2155  0.2426  0.7227
  361MOL0     C48606   8.864   1.663   3.794  0.8783 -0.0459  0.0837
  361MOL0     C48607   8.816   1.776   3.736 -0.2460 -0.2823  0.1717
  361MOL0     O48608   8.718   1.767   3.640  0.6590  0.1037 -0.3372
  361MOL0     C48609   8.667   1.635   3.593 -1.0245  0.4130  0.0867
  361MOL0     C48610   8.536   1.665   3.535  0.6174  0.5090 -0.2013
  361MOL0     C48611   8.470   1.541   3.464 -0.6779 -0.3168 -0.2700
  361MOL0     C48612   8.323   1.583   3.417  0.2141  0.3866 -0.0212
  361MOL0     C48613   8.273   1.493   3.308  0.4923  0.2975  0.2183
  361MOL0     C48614   8.245   1.347   3.362  0.5035 -0.3518  0.5040
  361MOL0     C48615   8.200   1.259   3.247  0.5170  0.2449 -0.5750
  361MOL0     C48616   8.143   1.127   3.311  0.1421  0.5782  0.0709
  361MOL0     N48617   8.042   1.055   3.234 -0.3679 -0.0730 -0.1357
  361MOL0     C48618   8.064   0.993   3.117  0.1613 -0.2070 -0.3316
  361MOL0     C48619   7.949   0.975   3.050  0.0760 -0.0396 -0.5001
  361MOL0     C48620   7.913   0.917   2.922  0.5761  0.0036  0.9663
  361MOL0     C48621   8.012   0.951   2.810  0.7488 -0.3724  0.3403
  361MOL0     C48622   7.967   0.929   2.666 -0.2037 -0.0327 -0.9117
  361MOL0     C48623   7.868   1.037   2.618  0.7204  0.3209 -0.7545
  361MOL0     O48624   7.795   0.989   2.503 -0.4010  0.6057 -0.5250
  361MOL0     C48625   7.702   1.076   2.454 -0.7617  0.4583  0.2201
  361MOL0     C48626   7.570   1.039   2.439 -0.3355 -0.2014  0.3600
  361MOL0     C48627   7.474   1.118   2.379 -1.6339 -0.1143 -0.3735
  361MOL0     C48628   7.338   1.053   2.365  0.3588  0.4853 -0.1046
  361MOL0     C48629   7.514   1.242   2.334  0.2323  0.4055  0.3408
  361MOL0     C48630   7.430   1.346   2.264 -0.1546  0.5150  0.9726
  361MOL0     O48631   7.309   1.298   2.222 -0.7268 -0.2500  0.5768
  361MOL0     C48632   7.208   1.363   2.160 -0.4015 -0.4259  0.4178
  361MOL0     C48633   7.182   1.501   2.170 -0.8540 -0.4504  0.2722
  361MOL0     C48634   7.079   1.566   2.110 -1.0123  0.1610  0.4293
  361MOL0     C48635   7.004   1.494   2.021  0.7813 -0.7930  0.6303
  361MOL0     O48636   6.916   1.576   1.955 -0.8193 -0.5930  0.3043
  361MOL0     C48637   6.829   1.515   1.863 -0.3816  0.0386 -0.4634
  361MOL0     C48638   6.736   1.617   1.795  0.1021 -0.4054  0.0502
  361MOL0     C48639   6.622   1.661   1.899 -0.1625  0.2724  0.1885
  361MOL0     C48640   6.539   1.767   1.852  0.3670  0.2278 -0.8710
  361MOL0     C48641   6.420   1.784   1.956  0.0227  0.4227  0.5197
  361MOL0     C48642   6.292   1.859   1.904 -0.3063 -0.0285 -0.1377
  361MOL0     C48643   6.164   1.835   1.993 -0.8221 -0.0193 -0.4980
  361MOL0     C48644   6.048   1.911   1.935  0.1853  0.3510 -0.1198
  361MOL0    Cl48645   6.051   2.077   1.984  0.2418 -0.4708  0.2229
  361MOL0     C48646   7.021   1.357   2.000 -0.0971  1.6523  0.4573
  361MOL0     C48647   7.122   1.287   2.077 -0.0307  0.5921 -0.9218
  361MOL0     O48648   7.458   1.463   2.270  0.6416 -0.0254  0.3002
  361MOL0     C48649   7.642   1.288   2.365  0.0711 -0.3161 -0.1104
  361MOL0     C48650   7.735   1.206   2.426  0.6605 -0.1972  0.1058
  361MOL0     N48651   7.858   1.036   3.131 -0.0167 -0.7177  0.4584
  361MOL0     N48652   7.908   1.087   3.238  0.4459 -0.2036  0.3677
  361MOL0     C48653   8.859   1.908   3.775 -0.1884 -0.0505 -1.5299
  361MOL0     C48654   8.978   1.918   3.851 -0.4349 -0.4357  0.0243
  361MOL0     C48655   9.312   1.664   4.101 -0.3319 -0.7495 -0.4828
  361MOL0     C48656   9.353   1.587   4.210 -0.0269  0.7267 -0.8908
  361MOL0     C48657   9.488   1.558   4.232 -0.2987 -0.0144  1.0500
  361MOL0     C48658   9.592   1.608   4.149  1.0625  0.5425  0.4510
  361MOL0     O48659   9.721   1.580   4.178  0.0777 -0.0522 -0.6415
  361MOL0     C48660   9.797   1.674   4.251 -0.1048 -0.4341 -0.3983
  361MOL0     C48661   9.952   1.642   4.245  0.2278 -0.1539 -0.0990
  361MOL0     C48662  10.036   1.756   4.305  0.2291  0.7660  0.7995
  361MOL0     C48663  10.031   1.893   4.227  0.8349  0.8736  0.2982
  361MOL0     C48664  10.015   1.895   4.076  0.3696 -0.1433  0.7913
  361MOL0     C48665  10.004   1.898   3.953 -0.4824 -0.3071  0.1535
  361MOL0     C48666   9.546   1.688   4.045  0.5487 -0.1843 -0.5012
  361MOL0     C48667   9.412   1.704   4.009  0.0524  0.0484  0.2383
  361MOL0     H48668   9.011   1.595   3.938 -0.7160 -0.4002  0.3616
  361MOL0     H48669   8.837   1.558   3.784  1.8072 -0.1994 -0.9736
  361MOL0     H48670   8.737   1.577   3.532 -1.2335  0.3957 -0.1356
  361MOL0     H48671   8.650   1.565   3.676  1.4013 -0.3673  0.0058
  361MOL0     H48672   8.457   1.684   3.608 -0.4115 -2.5209 -0.3768
  361MOL0     H48673   8.542   1.751   3.468 -0.1986 -0.1374 -1.1218
  361MOL0     H48674   8.523   1.509   3.374  2.7440 -2.1249  2.1657
  361MOL0     H48675   8.472   1.458   3.535  1.0004  0.4880  0.6898
  361MOL0     H48676   8.254   1.564   3.500  0.3878  0.9331  0.2466
  361MOL0     H48677   8.322   1.690   3.397 -1.8739  0.9082  2.3603
  361MOL0     H48678   8.177   1.534   3.278 -1.0286 -1.3033  2.5144
  361MOL0     H48679   8.342   1.493   3.223  1.1312 -0.9837  0.6963
  361MOL0     H48680   8.335   1.310   3.411  0.1750  1.9584  3.0978
  361MOL0     H48681   8.173   1.353   3.444  0.4463 -1.0880  0.5153
  361MOL0     H48682   8.121   1.305   3.186  0.9072 -1.8137 -2.8137
  361MOL0     H48683   8.284   1.229   3.184  1.6336  3.0572 -0.5565
  361MOL0     H48684   8.097   1.150   3.408 -0.4215 -1.1393  0.2437
  361MOL0     H48685   8.234   1.071   3.331  0.6421  2.0806  2.5546
  361MOL0     H48686   8.157   0.975   3.065  1.2493  2.8596  0.3013
  361MOL0     H48687   7.905   0.808   2.923  0.5114 -0.1986 -3.0093
  361MOL0     H48688   7.816   0.962   2.903  0.3898  0.0625  2.0375
  361MOL0     H48689   8.099   0.886   2.823  0.6847 -0.8352 -1.2613
  361MOL0     H48690   8.050   1.053   2.819 -0.2187  0.0761 -0.5273
  361MOL0     H48691   7.932   0.825   2.660 -2.1562  0.6092 -1.3980
  361MOL0     H48692   8.050   0.939   2.596 -0.1656  1.4868 -0.6677
  361MOL0     H48693   7.933   1.121   2.592 -0.8694  0.5276 -4.8119
  361MOL0     H48694   7.798   1.060   2.699  0.3487  2.2244 -1.5685
  361MOL0     H48695   7.536   0.940   2.471 -2.9759 -0.4581 -2.6478
  361MOL0     H48696   7.324   0.971   2.435  3.0695 -2.2384 -2.4831
  361MOL0     H48697   7.257   1.126   2.378  2.5284  3.1326 -0.4038
  361MOL0     H48698   7.317   1.009   2.267  0.5183  0.2462 -0.0321
  361MOL0     H48699   7.236   1.565   2.239 -0.1726 -1.1903  0.4451
  361MOL0     H48700   7.072   1.674   2.125 -1.8839  0.0442  0.9051
  361MOL0     H48701   6.886   1.461   1.787 -0.0370 -1.6276  0.9323
  361MOL0     H48702   6.776   1.438   1.920 -1.0503  1.6510  1.2036
  361MOL0     H48703   6.797   1.703   1.765 -0.4770 -0.6055 -1.8686
  361MOL0     H48704   6.701   1.567   1.704  2.8290  0.4658 -1.5990
  361MOL0     H48705   6.667   1.676   1.997 -1.0720 -2.5678  1.1565
  361MOL0     H48706   6.556   1.574   1.911  0.0038  0.0111 -0.7208
  361MOL0     H48707   6.606   1.854   1.849  0.6427  0.0322 -0.5699
  361MOL0     H48708   6.508   1.741   1.751 -0.7081 -4.0529  0.3611
  361MOL0     H48709   6.464   1.843   2.037  0.2274  1.0015  0.0009
  361MOL0     H48710   6.392   1.682   1.983 -1.4207  0.8720  0.7864
  361MOL0     H48711   6.308   1.967   1.898 -0.3297  0.1584  2.1966
  361MOL0     H48712   6.275   1.824   1.801  2.4488 -0.4659 -0.5290
  361MOL0     H48713   6.183   1.874   2.093 -0.2106  5.0944 -2.2905
  361MOL0     H48714   6.147   1.727   1.988 -1.3523  0.0662 -0.6449
  361MOL0     H48715   5.961   1.860   1.979  1.0394 -0.2794  0.8880
  361MOL0     H48716   6.043   1.896   1.827 -0.3417  1.0266 -0.1947
  361MOL0     H48717   6.956   1.304   1.931  2.5098  1.5465 -2.0737
  361MOL0     H48718   7.120   1.179   2.066 -0.9339 -0.0362  3.4343
  361MOL0     H48719   7.685   1.386   2.349 -0.0402 -0.4674 -1.4189
  361MOL0     H48720   7.834   1.233   2.461 -0.8894  2.8047  2.7288
  361MOL0     H48721   8.813   2.002   3.747 -0.4270  0.4703  0.4528
  361MOL0     H48722   9.010   2.014   3.890  3.1778 -1.0722 -0.9525
  361MOL0     H48723   9.277   1.543   4.274 -0.9608  0.5710 -2.0855
  361MOL0     H48724   9.519   1.483   4.304  1.4027  1.0673  1.5197
  361MOL0     H48725   9.777   1.770   4.203  0.9132 -0.6752 -1.3434
  361MOL0     H48726   9.762   1.684   4.354 -0.6318 -0.3090 -0.5856
  361MOL0     H48727   9.975   1.614   4.142 -2.4681 -1.0231 -0.5513
  361MOL0     H48728   9.977   1.554   4.306 -3.1404  0.1152  1.9584
  361MOL0     H48729  10.139   1.720   4.307 -0.3297 -0.8746  1.2655
  361MOL0     H48730  10.006   1.772   4.409  1.2393  1.7248  0.9656
  361MOL0     H48731  10.123   1.948   4.251  0.2274  1.7074  0.7606
  361MOL0     H48732   9.945   1.951   4.261  0.1423  0.3098 -0.4354
  361MOL0     H48733  10.003   1.893   3.846 -1.5159  1.2408  0.0658
  361MOL0     H48734   9.623   1.721   3.975  0.6330  3.8644  1.2076
  361MOL0     H48735   9.382   1.759   3.921 -2.4338  0.2125  1.1317
  362MOL0     O48736   7.719   3.566   2.949 -0.5096 -0.6745 -0.4211
  362MOL0     C48737   7.813   3.561   2.869 -0.3830  0.4308  0.0233
  362MOL0     O48738   7.801   3.496   2.747 -0.2402 -0.0019  0.3274
  362MOL0     C48739   7.685   3.420   2.725  0.5015 -0.1157 -0.4395
  362MOL0     C48740   7.694   3.277   2.730 -0.4981  0.1325  0.0441
  362MOL0     C48741   7.585   3.195   2.707 -0.0708  0.0710 -0.1180
  362MOL0     C48742   7.460   3.248   2.687 -0.4177  0.6153 -0.0519
  362MOL0     O48743   7.357   3.167   2.660  0.1369 -0.0883 -0.0034
  362MOL0     C48744   7.297   3.187   2.534  0.6067  0.0319  0.0009
  362MOL0     C48745   7.183   3.086   2.523 -0.4628 -0.0027  0.1270
  362MOL0     C48746   7.104   3.102   2.396  0.0896  0.2858 -0.0630
  362MOL0     C48747   6.982   3.004   2.403  0.9090 -0.1954 -0.5823
  362MOL0     C48748   6.898   3.014   2.286 -0.1820 -0.1477  0.1533
  362MOL0     C48749   6.758   2.951   2.302  0.1317 -0.6742 -0.2932
  362MOL0     C48750   6.763   2.812   2.352 -0.1880  0.3509 -0.2566
  362MOL0     C48751   6.651   2.727   2.288  0.2574  1.3798 -0.1236
  362MOL0     N48752   6.524   2.792   2.268 -0.7768 -0.2293 -0.0217
  362MOL0     C48753   6.454   2.836   2.377 -1.3308  0.0206  0.9866
  362MOL0     C48754   6.347   2.903   2.329  0.0046  0.2519  0.4476
  362MOL0     C48755   6.244   2.953   2.414  0.3387 -0.5632 -0.2517
  362MOL0     C48756   6.135   2.849   2.432  0.0311 -0.2799 -0.3075
  362MOL0     C48757   6.018   2.911   2.505  0.2678  0.7654  0.1321
  362MOL0     C48758   5.891   2.828   2.466 -0.7838  0.4614  0.7782
  362MOL0     O48759   5.786   2.861   2.562  0.3210 -0.5970 -0.0080
  362MOL0     C48760   5.657   2.835   2.526  1.3252  0.4948  0.4781
  362MOL0     C48761   5.609   2.718   2.464  0.3839  0.3927 -0.5103
  362MOL0     C48762   5.471   2.704   2.431  0.2788 -0.6210 -1.0152
  362MOL0     C48763   5.426   2.582   2.357  0.2790 -0.5471 -0.4522
  362MOL0     C48764   5.379   2.813   2.449 -0.4415  0.0357 -0.4756
  362MOL0     C48765   5.235   2.829   2.413  0.2921  0.4896 -0.4791
  362MOL0     O48766   5.173   2.944   2.441  0.2243  0.3386 -0.7216
  362MOL0     C48767   5.049   2.961   2.395 -0.3275 -0.4227  0.8293
  362MOL0     C48768   5.030   3.017   2.268 -0.2430  0.2904  0.4459
  362MOL0     C48769   4.895   3.033   2.216  0.1212  0.1661 -0.4887
  362MOL0     C48770   4.790   3.001   2.300  1.3886  0.7877  0.2115
  362MOL0     O48771   4.660   3.014   2.250 -0.3895 -0.8004 -0.3254
  362MOL0     C48772   4.567   2.925   2.307  0.6909 -0.4877  0.0181
  362MOL0     C48773   4.474   3.016   2.388  0.0257 -0.3087  0.0271
  362MOL0     C48774   4.351   2.955   2.445  0.3700 -0.0983  0.4148
  362MOL0     C48775   4.385   2.853   2.549 -1.8081  0.8144 -0.7068
  362MOL0     C48776   4.259   2.826   2.634  0.0950  0.1843  0.2817
  362MOL0     C48777   4.293   2.742   2.756 -0.0303 -0.1192 -0.2564
  362MOL0     C48778   4.161   2.693   2.819  0.0987 -0.3949  0.6671
  362MOL0     C48779   4.178   2.630   2.957  0.0493  0.7555 -0.2620
  362MOL0    Cl48780   4.223   2.756   3.075 -0.4919 -0.1740  0.4879
  362MOL0     C48781   4.821   2.961   2.431  0.6232 -1.0263 -0.0077
  362MOL0     C48782   4.946   2.941   2.477  0.2148 -0.0858 -0.0668
  362MOL0     O48783   5.181   2.737   2.358  0.6284  0.1789  0.4714
  362MOL0     C48784   5.430   2.916   2.526  0.1960  0.0027  0.4261
  362MOL0     C48785   5.565   2.937   2.563  0.6001 -0.3327  0.3839
  362MOL0     N48786   6.350   2.893   2.190  0.0952 -1.0089 -0.4730
  362MOL0     N48787   6.458   2.827   2.151 -0.4748 -0.2874  0.0631
  362MOL0     C48788   7.435   3.385   2.704  0.2824  0.4225 -0.6913
  362MOL0     C48789   7.548   3.466   2.711  0.2241 -0.6204 -0.4508
  362MOL0     C48790   7.945   3.609   2.909  0.1860 -0.1412 -0.1835
  362MOL0     C48791   7.965   3.677   3.030 -0.2289  0.9636  0.5578
  362MOL0     C48792   8.078   3.736   3.059 -1.2801  1.0647 -0.1019
  362MOL0     C48793   8.189   3.722   2.973 -0.2389 -0.1375 -0.9587
  362MOL0     O48794   8.304   3.786   3.019 -0.1601  0.4990 -0.5742
  362MOL0     C48795   8.436   3.722   2.994  0.8466  0.4055 -0.2053
  362MOL0     C48796   8.504   3.683   3.133  0.0909  0.5760  0.0545
  362MOL0     C48797   8.458   3.553   3.194 -0.4469  0.2334  0.4893
  362MOL0     C48798   8.508   3.421   3.128 -0.4549  0.6348  0.2488
  362MOL0     C48799   8.653   3.424   3.111  0.1005  0.5806 -0.4566
  362MOL0     C48800   8.772   3.409   3.100  1.2211 -0.1084  0.3714
  362MOL0     C48801   8.174   3.647   2.860  0.0833  0.6074  0.3182
  362MOL0     C48802   8.053   3.585   2.829 -0.9723  0.7221  0.8359
  362MOL0     H48803   7.786   3.225   2.754 -1.2998 -0.4490  2.1390
  362MOL0     H48804   7.605   3.089   2.710 -0.0991  0.0832  0.8858
  362MOL0     H48805   7.253   3.287   2.534  1.1496  0.2914  1.0779
  362MOL0     H48806   7.366   3.179   2.450 -0.4536  0.0444 -0.8891
  362MOL0     H48807   7.235   2.990   2.520 -1.1653 -0.3722 -2.1712
  362MOL0     H48808   7.111   3.083   2.606 -0.3293 -0.1617  0.2375
  362MOL0     H48809   7.068   3.204   2.382 -0.2122  0.2204  0.2193
  362MOL0     H48810   7.171   3.072   2.315  1.6780 -0.1059  1.3440
  362MOL0     H48811   6.996   2.896   2.415 -5.5226 -1.3655  0.5002
  362MOL0     H48812   6.925   3.026   2.494  0.0072  0.5942 -1.3170
  362MOL0     H48813   6.869   3.116   2.262 -0.6764 -0.4654 -0.6749
  362MOL0     H48814   6.951   2.964   2.204 -0.6329 -1.5154  0.6580
  362MOL0     H48815   6.691   3.012   2.364  0.3216 -0.3609 -0.3931
  362MOL0     H48816   6.715   2.951   2.201 -2.1834 -1.6895  0.6181
  362MOL0     H48817   6.860   2.773   2.322 -1.4821 -0.4099 -4.0227
  362MOL0     H48818   6.771   2.808   2.461  0.3070  2.9255 -0.1316
  362MOL0     H48819   6.634   2.632   2.338  0.1860  1.0616 -0.7434
  362MOL0     H48820   6.700   2.705   2.192  0.5230  3.6004 -0.5528
  362MOL0     H48821   6.493   2.824   2.478  1.4761  2.6843  0.3401
  362MOL0     H48822   6.280   2.975   2.514 -0.0435  2.7522 -0.7071
  362MOL0     H48823   6.200   3.046   2.375  0.8027  0.0876  0.7288
  362MOL0     H48824   6.170   2.768   2.496  1.3630  0.4648 -0.0464
  362MOL0     H48825   6.108   2.816   2.331 -1.8610  1.4537 -0.4224
  362MOL0     H48826   5.999   3.011   2.466 -2.5511  0.0859 -0.4520
  362MOL0     H48827   6.027   2.908   2.614 -4.1550  1.1695  0.6802
  362MOL0     H48828   5.917   2.722   2.475  1.1664  0.5934 -1.9994
  362MOL0     H48829   5.858   2.842   2.363 -0.0967  1.5341  0.6968
  362MOL0     H48830   5.677   2.633   2.461 -0.5128 -0.5226  2.0026
  362MOL0     H48831   5.505   2.507   2.346  0.2035 -0.6595 -0.2415
  362MOL0     H48832   5.350   2.545   2.427 -0.8178  0.6510 -0.9780
  362MOL0     H48833   5.377   2.603   2.262 -0.2142 -1.9828 -0.5484
  362MOL0     H48834   5.114   3.036   2.202 -1.1612  0.6243 -0.6364
  362MOL0     H48835   4.877   3.067   2.114  2.4720  3.5604  0.0693
  362MOL0     H48836   4.509   2.877   2.228 -1.5939  0.0577  1.2495
  362MOL0     H48837   4.612   2.842   2.363 -0.0675 -0.2324  1.0312
  362MOL0     H48838   4.521   3.061   2.476 -0.8247 -1.2905  1.0109
  362MOL0     H48839   4.449   3.108   2.336 -1.6401 -0.7895 -0.0965
  362MOL0     H48840   4.281   2.912   2.372 -1.9263  1.1691  1.7610
  362MOL0     H48841   4.298   3.033   2.500  0.5446 -1.3517  2.4857
  362MOL0     H48842   4.415   2.767   2.489 -1.1763  1.2053 -0.9519
  362MOL0     H48843   4.471   2.900   2.596 -0.8922  0.9347 -2.4308
  362MOL0     H48844   4.179   2.779   2.575 -0.5185  2.3140 -0.7111
  362MOL0     H48845   4.222   2.922   2.672  0.2217  0.0408  0.7651
  362MOL0     H48846   4.347   2.652   2.726  2.4641  1.5995 -1.2510
  362MOL0     H48847   4.361   2.795   2.823 -0.1215 -1.5398  0.9995
  362MOL0     H48848   4.108   2.624   2.753 -0.3825 -0.3588  1.0130
  362MOL0     H48849   4.100   2.784   2.829 -0.4756 -0.5265 -1.1633
  362MOL0     H48850   4.251   2.550   2.941 -2.2625 -1.2035 -1.7122
  362MOL0     H48851   4.086   2.586   2.996  0.7952  0.7526  1.6107
  362MOL0     H48852   4.742   2.932   2.499 -0.9765 -0.7101 -1.6519
  362MOL0     H48853   4.977   2.915   2.577  2.1789 -0.3101 -0.6978
  362MOL0     H48854   5.360   2.993   2.558 -1.6513 -1.9777  1.3679
  362MOL0     H48855   5.608   3.024   2.611  2.2865 -0.8829 -0.0490
  362MOL0     H48856   7.332   3.418   2.702  0.2510  0.3155 -1.0709
  362MOL0     H48857   7.529   3.573   2.708 -0.5647 -0.6921  1.0122
  362MOL0     H48858   7.882   3.692   3.098 -1.1939  0.5033 -0.4699
  362MOL0     H48859   8.089   3.793   3.151  1.6570  0.2048  0.1989
  362MOL0     H48860   8.423   3.626   2.944 -1.6977 -0.9206  2.6613
  362MOL0     H48861   8.493   3.790   2.930  0.4874 -0.7224 -1.7743
  362MOL0     H48862   8.479   3.765   3.201 -1.3280 -0.2556  0.5736
  362MOL0     H48863   8.613   3.688   3.124 -0.1260  2.4996 -2.7353
  362MOL0     H48864   8.349   3.544   3.200 -0.4449  0.2009  0.4787
  362MOL0     H48865   8.484   3.555   3.301  1.9883 -0.1050 -0.0459
  362MOL0     H48866   8.457   3.407   3.032  0.9395  1.5561 -0.6553
  362MOL0     H48867   8.487   3.342   3.201  1.7579  1.1110  1.4914
  362MOL0     H48868   8.874   3.391   3.072  0.8594  1.0235 -1.8986
  362MOL0     H48869   8.258   3.639   2.792 -1.8179  1.7994 -2.3258
  362MOL0     H48870   8.052   3.524   2.740  0.3530  0.6095  0.8772
  363MOL0     O48871  11.073  10.534   4.178  0.1998 -0.5135  0.5675
  363MOL0     C48872  11.054  10.571   4.057 -0.0224  0.3810  0.2912
  363MOL0     O48873  10.986  10.679   4.012 -0.0622 -0.6644 -0.5344
  363MOL0     C48874  10.910  10.748   4.099 -0.7434  0.3088  0.6782
  363MOL0     C48875  10.951  10.800   4.223 -0.5641  0.5633 -0.2818
  363MOL0     C48876  10.864  10.865   4.312 -0.0039  0.1718  0.3076
  363MOL0     C48877  10.736  10.889   4.279  0.8806 -0.0401  0.4841
  363MOL0     O48878  10.651  10.974   4.350 -0.0687 -0.0018  0.1825
  363MOL0     C48879  10.705  11.058   4.457 -0.9616 -0.0291 -0.4314
  363MOL0     C48880  10.587  11.106   4.539  0.1221  0.0926  0.2918
  363MOL0     C48881  10.508  11.216   4.463 -0.6052  0.0525  0.0344
  363MOL0     C48882  10.377  11.223   4.543  0.0112  0.5570 -0.1022
  363MOL0     C48883  10.276  11.312   4.480  0.4457 -0.6817  0.8382
  363MOL0     C48884  10.209  11.286   4.342  0.3114  0.7929 -0.0496
  363MOL0     C48885  10.149  11.145   4.328 -0.2366  1.0429 -0.0820
  363MOL0     C48886  10.060  11.099   4.439 -0.2467 -0.9672  0.6459
  363MOL0     N48887   9.917  11.133   4.404 -0.9152 -0.1262 -0.6811
  363MOL0     C48888   9.839  11.053   4.327  0.8528  0.2357 -0.2890
  363MOL0     C48889   9.736  11.134   4.286 -0.2536  0.4148 -0.8182
  363MOL0     C48890   9.638  11.093   4.182  0.3892  0.4147 -1.0887
  363MOL0     C48891   9.510  11.045   4.256 -0.0947  0.0523  1.7373
  363MOL0     C48892   9.419  11.164   4.289 -0.0092 -0.5367  0.6099
  363MOL0     C48893   9.292  11.116   4.355 -0.1286  0.0929  0.0346
  363MOL0     O48894   9.216  11.232   4.409 -0.6184 -0.2110 -0.8099
  363MOL0     C48895   9.089  11.217   4.446  0.3437  0.2219 -0.2135
  363MOL0     C48896   9.007  11.102   4.442 -0.2474  0.1723 -0.3790
  363MOL0     C48897   8.874  11.105   4.475  0.1225  0.5220 -0.0390
  363MOL0     C48898   8.791  10.982   4.445  0.0050 -0.4295 -0.0184
  363MOL0     C48899   8.813  11.225   4.513  0.7468  0.4002  0.1005
  363MOL0     C48900   8.670  11.232   4.526 -0.1962 -0.8828  0.7710
  363MOL0     O48901   8.592  11.312   4.449  0.4123  0.2079  0.3618
  363MOL0     C48902   8.457  11.289   4.468 -0.2688 -0.0360 -0.0384
  363MOL0     C48903   8.389  11.391   4.529  0.5380 -0.7778  0.5154
  363MOL0     C48904   8.253  11.374   4.563  0.6555 -0.7002 -0.1360
  363MOL0     C48905   8.183  11.257   4.520 -0.3564  0.3776  0.2123
  363MOL0     O48906   8.047  11.246   4.538 -0.4059 -0.1141  0.2786
  363MOL0     C48907   7.973  11.366   4.550 -0.3347 -0.8002 -0.2017
  363MOL0     C48908   7.825  11.342   4.548 -0.1721 -0.3277 -0.4813
  363MOL0     C48909   7.763  11.257   4.437  0.5192  0.0073  1.2962
  363MOL0     C48910   7.614  11.230   4.460 -0.2192 -0.1377  0.0427
  363MOL0     C48911   7.569  11.138   4.350 -0.5432 -0.3624  0.9192
  363MOL0     C48912   7.420  11.124   4.351  0.1631  0.1216 -0.5108
  363MOL0     C48913   7.375  11.084   4.208 -0.8338 -0.2878  0.4403
  363MOL0     C48914   7.224  11.048   4.206  0.6063 -0.1312  0.2778
  363MOL0    Cl48915   7.135  11.173   4.291 -0.3151 -0.2999  0.2395
  363MOL0     C48916   8.256  11.166   4.452  0.2907 -0.0430  0.4626
  363MOL0     C48917   8.395  11.172   4.434 -0.4398 -1.0629  0.1232
  363MOL0     O48918   8.631  11.169   4.626  0.0556  1.0109 -0.2079
  363MOL0     C48919   8.894  11.338   4.533  0.3207 -0.2548 -0.5021
  363MOL0     C48920   9.027  11.336   4.491 -0.0666  0.2420 -0.2576
  363MOL0     N48921   9.741  11.248   4.365 -0.5588 -0.2903 -0.4057
  363MOL0     N48922   9.851  11.240   4.438  0.1042 -0.0162  0.1735
  363MOL0     C48923  10.695  10.851   4.153 -0.3380 -0.2914 -0.1089
  363MOL0     C48924  10.777  10.781   4.057 -0.2529 -0.3191 -0.4148
  363MOL0     C48925  11.127  10.495   3.954  0.4089  0.7876 -0.2196
  363MOL0     C48926  11.111  10.516   3.813 -0.2212 -0.2918 -0.2845
  363MOL0     C48927  11.186  10.445   3.716  0.0926  0.2655 -0.1105
  363MOL0     C48928  11.254  10.332   3.757  1.1349 -0.6776  0.1497
  363MOL0     O48929  11.310  10.242   3.667 -0.2772 -0.0964 -0.1995
  363MOL0     C48930  11.240  10.207   3.543  0.2377  0.2236 -0.3452
  363MOL0     C48931  11.309  10.277   3.429 -0.0805 -0.0548  0.8130
  363MOL0     C48932  11.447  10.217   3.401  0.2796 -0.2172  0.2252
  363MOL0     C48933  11.528  10.268   3.284  0.1439 -0.0542 -0.5253
  363MOL0     C48934  11.660  10.198   3.270 -0.4171  0.2934  0.4919
  363MOL0     C48935  11.769  10.147   3.269  0.1078 -0.1060 -0.0974
  363MOL0     C48936  11.250  10.295   3.892 -0.7082  0.2922  0.2593
  363MOL0     C48937  11.197  10.374   3.989 -0.3126  0.0680  0.1958
  363MOL0     H48938  11.052  10.783   4.258 -0.9530 -0.8001  0.2616
  363MOL0     H48939  10.895  10.882   4.415 -0.2532 -0.6017  0.5174
  363MOL0     H48940  10.777  11.015   4.528 -0.4431  0.2527 -0.7869
  363MOL0     H48941  10.764  11.135   4.407 -0.5612 -0.4721 -0.6445
  363MOL0     H48942  10.516  11.024   4.550 -0.0407 -0.3384 -2.8274
  363MOL0     H48943  10.631  11.149   4.629 -0.6070  4.5794 -1.2516
  363MOL0     H48944  10.562  11.310   4.476 -0.2152 -0.1769  0.0720
  363MOL0     H48945  10.497  11.191   4.357  0.4953 -0.1461 -0.0449
  363MOL0     H48946  10.338  11.121   4.551  1.0333  0.1084 -0.6423
  363MOL0     H48947  10.404  11.249   4.646  1.6650 -2.8552  0.4479
  363MOL0     H48948  10.194  11.323   4.552 -0.3917  0.9018 -0.2834
  363MOL0     H48949  10.319  11.413   4.474 -1.1173 -0.0164  0.2813
  363MOL0     H48950  10.121  11.350   4.331 -2.2251 -2.6761 -1.8608
  363MOL0     H48951  10.284  11.313   4.267  4.3180  3.9139  4.5017
  363MOL0     H48952  10.094  11.140   4.234  0.8731 -2.3600 -0.6710
  363MOL0     H48953  10.234  11.078   4.314 -0.3750  0.4816  1.5883
  363MOL0     H48954  10.087  11.142   4.536  2.9228 -2.6012  0.5968
  363MOL0     H48955  10.053  10.992   4.462 -3.9965 -0.8218  0.8369
  363MOL0     H48956   9.862  10.956   4.285  3.0800 -0.5005  2.3034
  363MOL0     H48957   9.618  11.180   4.118 -0.0022  2.9014  2.1966
  363MOL0     H48958   9.678  11.009   4.123 -0.8259 -0.6781 -0.4068
  363MOL0     H48959   9.544  10.990   4.343  1.8985 -0.5808  0.6170
  363MOL0     H48960   9.466  10.975   4.184 -0.2433  0.4686  1.4172
  363MOL0     H48961   9.387  11.229   4.207  0.0170 -1.4402 -0.1377
  363MOL0     H48962   9.465  11.236   4.357 -1.4595  1.5586 -0.5284
  363MOL0     H48963   9.315  11.046   4.437 -1.8491 -0.0168  0.4545
  363MOL0     H48964   9.232  11.050   4.291  0.2831  0.6279 -0.9126
  363MOL0     H48965   9.057  11.007   4.428  1.5411  0.5119  2.6779
  363MOL0     H48966   8.852  10.922   4.377  2.9643  0.6297  1.5152
  363MOL0     H48967   8.795  10.928   4.540  3.5887  1.6570  1.2444
  363MOL0     H48968   8.688  10.986   4.407 -0.7852 -1.0617  1.9513
  363MOL0     H48969   8.443  11.482   4.552  1.0156 -0.0560 -2.9310
  363MOL0     H48970   8.209  11.456   4.618  0.1582 -0.1230 -1.3631
  363MOL0     H48971   7.996  11.393   4.654  2.1808 -0.7707 -0.6946
  363MOL0     H48972   8.009  11.438   4.477  3.6274 -0.7475  1.5200
  363MOL0     H48973   7.796  11.292   4.642  0.1722  1.9512  0.9090
  363MOL0     H48974   7.774  11.438   4.538  0.3325 -0.0776 -0.6669
  363MOL0     H48975   7.811  11.160   4.446  0.4939 -0.0813  0.5163
  363MOL0     H48976   7.791  11.299   4.340  2.1464 -0.1330  1.6817
  363MOL0     H48977   7.594  11.189   4.559 -0.8562  0.3142  0.1028
  363MOL0     H48978   7.548  11.317   4.457 -3.1323 -2.2480 -0.8543
  363MOL0     H48979   7.611  11.041   4.376  0.3110 -1.4707 -3.7066
  363MOL0     H48980   7.601  11.155   4.247 -0.7495 -4.6542 -0.0520
  363MOL0     H48981   7.388  11.059   4.432 -0.7359 -1.8972 -2.3918
  363MOL0     H48982   7.379  11.224   4.366  1.1666  0.5241 -0.3328
  363MOL0     H48983   7.438  11.002   4.171 -0.5514 -0.3138  0.9710
  363MOL0     H48984   7.396  11.173   4.148  0.3331 -2.3654 -2.4745
  363MOL0     H48985   7.206  10.953   4.258 -0.6512  0.8228  1.6633
  363MOL0     H48986   7.195  11.030   4.102 -2.1922  0.1910  0.9236
  363MOL0     H48987   8.201  11.076   4.422 -2.0662  0.5882  2.5751
  363MOL0     H48988   8.445  11.087   4.390 -0.6765 -0.8818 -0.5123
  363MOL0     H48989   8.862  11.427   4.587  0.5631  0.8718 -2.1191
  363MOL0     H48990   9.084  11.427   4.503 -1.4814  1.1785 -0.4722
  363MOL0     H48991  10.591  10.874   4.131 -1.1410 -2.2364  1.3542
  363MOL0     H48992  10.744  10.756   3.957 -2.7712  0.0599  0.2631
  363MOL0     H48993  11.056  10.604   3.781 -1.4793 -1.1929 -0.6631
  363MOL0     H48994  11.176  10.480   3.614 -0.7525  2.6457  0.7190
  363MOL0     H48995  11.248  10.099   3.524  1.2670  0.1269  0.5178
  363MOL0     H48996  11.138  10.244   3.545  0.1460 -0.0378  0.6033
  363MOL0     H48997  11.313  10.386   3.441  2.5283  0.3360 -2.3007
  363MOL0     H48998  11.248  10.258   3.340 -0.1544 -0.6389  0.9842
  363MOL0     H48999  11.430  10.110   3.383 -1.9959  0.2404 -0.6557
  363MOL0     H49000  11.512  10.230   3.488  0.3536  1.5925 -0.0620
  363MOL0     H49001  11.538  10.376   3.294  1.4196  0.0099 -1.9728
  363MOL0     H49002  11.469  10.256   3.193  0.6492 -1.0570 -0.7410
  363MOL0     H49003  11.860  10.092   3.286 -1.1739 -1.5725  2.4566
  363MOL0     H49004  11.283  10.194   3.916  0.2972 -0.0768 -2.3188
  363MOL0     H49005  11.206  10.351   4.095 -0.7155  0.0628  0.2298
  364MOL0     O49006   4.507   7.937   6.071  0.0826  0.2129 -0.0331
  364MOL0     C49007   4.481   7.837   6.138  0.8334 -0.3267 -0.1094
  364MOL0     O49008   4.357   7.801   6.195  0.1137 -0.5657 -0.0054
  364MOL0     C49009   4.256   7.891   6.224 -0.3320 -0.3788  0.8173
  364MOL0     C49010   4.248   8.033   6.216 -0.5281  0.3693 -0.1056
  364MOL0     C49011   4.134   8.096   6.257  0.1876 -1.1046  0.4605
  364MOL0     C49012   4.022   8.020   6.290 -0.2199  0.1591 -0.5547
  364MOL0     O49013   3.914   8.091   6.336 -0.5100 -0.4728  0.0805
  364MOL0     C49014   3.892   8.230   6.286 -0.7420 -0.4481 -0.4363
  364MOL0     C49015   3.773   8.305   6.344 -0.1581  0.5306 -0.0616
  364MOL0     C49016   3.648   8.277   6.277 -0.2907 -0.1657  0.3894
  364MOL0     C49017   3.526   8.323   6.353 -0.3528  0.4215  0.1250
  364MOL0     C49018   3.419   8.338   6.247  0.0582 -0.5749 -0.1085
  364MOL0     C49019   3.288   8.406   6.302 -0.3975  0.2290  0.7148
  364MOL0     C49020   3.185   8.414   6.191 -0.0986  0.5933 -0.0710
  364MOL0     C49021   3.180   8.285   6.101  0.1499  0.2229  1.5910
  364MOL0     N49022   3.051   8.292   6.013 -0.6602 -0.2780  0.4990
  364MOL0     C49023   2.934   8.225   6.042  0.4159  0.1760  0.2856
  364MOL0     C49024   2.839   8.271   5.959 -0.2041  0.0580  0.2634
  364MOL0     C49025   2.695   8.224   5.976  0.8059  0.3084  0.4678
  364MOL0     C49026   2.678   8.081   5.915 -0.8571  0.1639 -0.8355
  364MOL0     C49027   2.540   8.015   5.960  0.1111 -0.4467 -0.2989
  364MOL0     C49028   2.538   7.867   5.983  0.4349  0.1033  0.1165
  364MOL0     O49029   2.618   7.840   6.098 -0.6426  0.3491  0.0482
  364MOL0     C49030   2.720   7.749   6.082  0.4208  0.2324 -0.1747
  364MOL0     C49031   2.684   7.621   6.052  0.3516  0.0992  0.8454
  364MOL0     C49032   2.782   7.522   6.027  0.1112 -0.2159  0.5265
  364MOL0     C49033   2.728   7.373   6.012 -0.3772 -0.3364 -0.8843
  364MOL0     C49034   2.917   7.546   6.042  0.6369  1.0433 -0.7772
  364MOL0     C49035   3.024   7.441   6.029 -0.0261  0.0032  0.4140
  364MOL0     O49036   3.156   7.482   6.055  0.3691  0.4841  0.3897
  364MOL0     C49037   3.262   7.420   6.005 -0.3041  0.5271 -0.4521
  364MOL0     C49038   3.298   7.295   6.053  0.6363  0.7039  0.2261
  364MOL0     C49039   3.410   7.230   6.010  0.4257 -0.1278  0.3191
  364MOL0     C49040   3.503   7.298   5.926  0.5626 -0.2968 -0.5822
  364MOL0     O49041   3.594   7.226   5.866 -1.1302  0.2333  0.7150
  364MOL0     C49042   3.682   7.163   5.963 -0.3884 -0.2521  0.7457
  364MOL0     C49043   3.813   7.120   5.903  0.1021  0.3081 -1.2494
  364MOL0     C49044   3.894   7.040   6.007 -0.0650  0.9521 -0.1456
  364MOL0     C49045   4.016   6.977   5.949  0.1252 -0.8077 -0.5659
  364MOL0     C49046   4.093   6.896   6.060 -0.1624  0.5081  0.6938
  364MOL0     C49047   4.222   6.842   5.995  0.3021 -0.2297  0.1263
  364MOL0     C49048   4.320   6.821   6.099  0.1832  0.4170  0.4911
  364MOL0     C49049   4.435   6.734   6.040  0.2815 -0.3128 -0.2091
  364MOL0    Cl49050   4.557   6.836   5.961  0.1043  0.4798 -0.1182
  364MOL0     C49051   3.463   7.423   5.872  0.2145  0.0658 -0.3846
  364MOL0     C49052   3.348   7.483   5.917  0.0538  0.7566 -0.0325
  364MOL0     O49053   2.996   7.334   5.977  0.6699  0.4071  0.1865
  364MOL0     C49054   2.955   7.672   6.079 -0.3258 -0.3682  0.5360
  364MOL0     C49055   2.861   7.779   6.103  0.5388 -0.1569  0.0188
  364MOL0     N49056   2.895   8.374   5.883  0.4107  0.5382  0.6174
  364MOL0     N49057   3.023   8.376   5.908  0.5700  0.5019 -0.3853
  364MOL0     C49058   4.022   7.882   6.276  0.4750  1.3941 -1.0863
  364MOL0     C49059   4.144   7.820   6.253 -0.0365  0.0476 -0.6391
  364MOL0     C49060   4.581   7.731   6.162 -0.2951 -0.1993  0.1440
  364MOL0     C49061   4.707   7.752   6.101 -0.3121 -0.2543  0.0949
  364MOL0     C49062   4.807   7.662   6.104 -0.6076 -0.3629  0.3961
  364MOL0     C49063   4.780   7.534   6.156  0.6127 -0.1582  0.2991
  364MOL0     O49064   4.860   7.424   6.144 -0.4594 -0.2909 -0.0863
  364MOL0     C49065   4.999   7.444   6.112 -0.9716  0.3881  0.4752
  364MOL0     C49066   5.012   7.402   5.970 -0.9273 -0.5897 -0.5128
  364MOL0     C49067   5.161   7.388   5.931 -0.2224 -0.0249 -0.1331
  364MOL0     C49068   5.180   7.355   5.783 -0.4332  0.2006  0.0417
  364MOL0     C49069   5.168   7.479   5.701  0.3935  0.8749 -0.0048
  364MOL0     C49070   5.158   7.575   5.633  0.3154 -0.2270 -0.0917
  364MOL0     C49071   4.661   7.511   6.224  0.5321  0.1367 -0.5569
  364MOL0     C49072   4.562   7.612   6.233  0.9631  0.0563  0.3570
  364MOL0     H49073   4.334   8.092   6.186 -0.5262 -0.9081 -2.9349
  364MOL0     H49074   4.141   8.204   6.247  0.8487 -1.3602 -4.4371
  364MOL0     H49075   3.978   8.292   6.314  2.1169 -3.5475 -1.7304
  364MOL0     H49076   3.880   8.222   6.178 -0.9730 -2.3850 -0.2951
  364MOL0     H49077   3.754   8.286   6.450 -2.2187  2.2123 -0.0751
  364MOL0     H49078   3.799   8.411   6.336  0.9315  0.2245 -0.7653
  364MOL0     H49079   3.648   8.321   6.177 -3.8050  0.2969  0.4861
  364MOL0     H49080   3.643   8.173   6.245  1.4998  0.1147 -0.9906
  364MOL0     H49081   3.510   8.268   6.447  2.7100  0.8128  0.9829
  364MOL0     H49082   3.548   8.423   6.390  0.2066  0.4116 -0.1687
  364MOL0     H49083   3.446   8.389   6.154  2.9298  1.6092  1.7473
  364MOL0     H49084   3.394   8.235   6.219  1.4421 -0.3438 -2.4292
  364MOL0     H49085   3.249   8.357   6.392 -0.1833  0.5260  0.9697
  364MOL0     H49086   3.322   8.500   6.345 -0.1434 -0.3149  1.7416
  364MOL0     H49087   3.085   8.423   6.233 -0.5389  1.4433 -1.2342
  364MOL0     H49088   3.197   8.502   6.126 -0.8258 -0.0157 -1.0633
  364MOL0     H49089   3.186   8.188   6.152  0.5109 -2.2738 -2.7531
  364MOL0     H49090   3.261   8.281   6.028 -0.4895  1.5978  0.7840
  364MOL0     H49091   2.917   8.147   6.115  1.9673 -0.6431 -0.1928
  364MOL0     H49092   2.665   8.245   6.079 -0.6779  2.0014 -0.2644
  364MOL0     H49093   2.638   8.286   5.906 -0.5492 -0.7970  0.5537
  364MOL0     H49094   2.756   8.013   5.950 -1.9825  0.1089  1.7713
  364MOL0     H49095   2.698   8.093   5.808  1.2173  1.5918 -0.3539
  364MOL0     H49096   2.471   8.060   5.888  0.8027  0.5571 -0.3595
  364MOL0     H49097   2.506   8.056   6.056  0.3990 -0.3594 -0.2346
  364MOL0     H49098   2.590   7.815   5.902  3.2206  3.3099 -0.3469
  364MOL0     H49099   2.437   7.826   5.989  0.8051 -0.6790  2.0962
  364MOL0     H49100   2.578   7.604   6.033  0.3114 -2.2392  2.7337
  364MOL0     H49101   2.756   7.315   5.924 -2.8620 -1.0801 -1.2567
  364MOL0     H49102   2.772   7.329   6.102 -0.1153  1.9481  0.1937
  364MOL0     H49103   2.619   7.376   6.023 -0.3908 -0.0928 -1.0786
  364MOL0     H49104   3.228   7.242   6.116 -0.8625  2.1718 -0.1495
  364MOL0     H49105   3.422   7.127   6.043  0.3772 -0.1414  0.2954
  364MOL0     H49106   3.712   7.235   6.040  0.8380  0.2029 -0.1208
  364MOL0     H49107   3.635   7.078   6.015 -1.2546 -0.3245 -0.1325
  364MOL0     H49108   3.775   7.048   5.829  1.4583 -2.7685  0.8192
  364MOL0     H49109   3.867   7.205   5.861  1.0719  0.1085 -0.4473
  364MOL0     H49110   3.831   6.956   6.038 -1.3485  1.8724 -0.2022
  364MOL0     H49111   3.922   7.088   6.102 -2.1474 -1.0571  1.5902
  364MOL0     H49112   3.995   6.910   5.866  1.3334 -3.1079  0.8852
  364MOL0     H49113   4.084   7.056   5.915  0.0462 -1.3323 -1.9955
  364MOL0     H49114   4.021   6.818   6.086 -2.7397  2.0059 -1.3245
  364MOL0     H49115   4.116   6.955   6.149 -1.7063  1.9576  0.1777
  364MOL0     H49116   4.196   6.754   5.936 -1.9329  1.3990 -1.4867
  364MOL0     H49117   4.264   6.915   5.927 -1.3571 -0.1804 -0.8944
  364MOL0     H49118   4.281   6.783   6.194  0.3109 -0.6563  0.1297
  364MOL0     H49119   4.364   6.915   6.134  0.8556  0.9302 -1.5948
  364MOL0     H49120   4.404   6.670   5.957 -0.2502  0.6269 -0.7533
  364MOL0     H49121   4.487   6.682   6.121  0.7387  1.4071  0.6381
  364MOL0     H49122   3.533   7.482   5.814 -0.4495  2.2953  0.9844
  364MOL0     H49123   3.331   7.579   5.869 -1.9967  0.3919 -0.1270
  364MOL0     H49124   3.058   7.689   6.106 -0.4773 -0.1846  1.0150
  364MOL0     H49125   2.911   7.870   6.135  1.8261 -1.3533  1.6620
  364MOL0     H49126   3.930   7.825   6.280  0.0983  1.9596 -1.5137
  364MOL0     H49127   4.143   7.713   6.269 -0.5261  0.2414  0.7190
  364MOL0     H49128   4.727   7.847   6.053 -1.0373  0.6703  1.5372
  364MOL0     H49129   4.897   7.691   6.051 -0.9824 -0.8917 -0.5587
  364MOL0     H49130   5.031   7.546   6.137 -3.5192  1.1203  1.0750
  364MOL0     H49131   5.038   7.368   6.180  0.6644 -0.0996 -0.9444
  364MOL0     H49132   4.970   7.480   5.906  0.4670 -1.9454 -3.2474
  364MOL0     H49133   4.958   7.308   5.967  2.9618 -3.0759  0.1233
  364MOL0     H49134   5.189   7.295   5.980  0.3721 -1.2171 -2.6066
  364MOL0     H49135   5.227   7.471   5.959  0.5382 -1.0909  1.3336
  364MOL0     H49136   5.110   7.279   5.748 -1.5906 -0.5144  3.5707
  364MOL0     H49137   5.282   7.322   5.762 -1.3041 -1.2197 -2.3579
  364MOL0     H49138   5.161   7.667   5.580  2.5496 -0.0600  0.2341
  364MOL0     H49139   4.628   7.418   6.268 -1.8126  0.1793 -2.0239
  364MOL0     H49140   4.472   7.592   6.291  1.8331 -2.3498  1.0148
  365MOL0     O49141   7.216   0.733   3.076  0.3020  0.3777  0.1525
  365MOL0     C49142   7.285   0.707   3.178 -0.3650  0.3285  0.2026
  365MOL0     O49143   7.381   0.787   3.221 -0.0227  0.3424  0.3604
  365MOL0     C49144   7.384   0.917   3.181 -0.0998 -0.8168  0.3275
  365MOL0     C49145   7.269   0.995   3.163  0.0386 -1.2221  0.3514
  365MOL0     C49146   7.285   1.131   3.130 -0.6560  0.1261 -1.3378
  365MOL0     C49147   7.411   1.195   3.122  0.0004 -0.4970 -0.7351
  365MOL0     O49148   7.428   1.331   3.101 -0.5857  0.2436 -0.4020
  365MOL0     C49149   7.310   1.412   3.072  0.0403  0.1261  0.2069
  365MOL0     C49150   7.352   1.554   3.046 -0.3885  0.2810 -0.4403
  365MOL0     C49151   7.419   1.625   3.172  0.1260  0.1023  0.2820
  365MOL0     C49152   7.491   1.754   3.128 -0.4770  0.0698 -0.4495
  365MOL0     C49153   7.557   1.817   3.253  0.1400  0.7460 -0.1730
  365MOL0     C49154   7.676   1.739   3.306 -0.0080  0.0280 -0.3695
  365MOL0     C49155   7.785   1.709   3.209  0.0239 -0.8091  0.3037
  365MOL0     C49156   7.906   1.633   3.258  0.5545  0.5608  0.0379
  365MOL0     N49157   7.877   1.521   3.349 -0.7749  0.1262 -0.3175
  365MOL0     C49158   7.797   1.413   3.313  0.2698 -0.3350  0.2648
  365MOL0     C49159   7.779   1.347   3.434  0.4798  0.1035  0.3576
  365MOL0     C49160   7.673   1.232   3.458 -0.7526 -0.1776  0.5463
  365MOL0     C49161   7.531   1.293   3.448  0.4127 -0.3140  0.3085
  365MOL0     C49162   7.436   1.192   3.501 -0.0521 -0.1744  0.1193
  365MOL0     C49163   7.307   1.256   3.557  0.5161 -0.1787 -0.9357
  365MOL0     O49164   7.232   1.339   3.459 -0.1991 -0.2943  0.7248
  365MOL0     C49165   7.097   1.358   3.473  0.4011 -0.3329 -0.6182
  365MOL0     C49166   7.016   1.287   3.567  0.2107  0.6415  0.5985
  365MOL0     C49167   6.877   1.291   3.560  0.2694 -0.0413  0.0210
  365MOL0     C49168   6.799   1.211   3.660  0.3464 -0.0012 -0.7618
  365MOL0     C49169   6.813   1.363   3.464  0.0300  0.6870  0.0338
  365MOL0     C49170   6.658   1.357   3.442  0.2496 -0.9463  0.8382
  365MOL0     O49171   6.593   1.244   3.459  0.7433 -0.1068  0.6246
  365MOL0     C49172   6.456   1.247   3.427  0.6286  0.0009  0.0474
  365MOL0     C49173   6.356   1.267   3.523 -0.3381  0.3917 -0.9000
  365MOL0     C49174   6.225   1.273   3.485 -0.3281 -0.6078 -0.0291
  365MOL0     C49175   6.182   1.255   3.356 -0.3709 -0.2011  0.6485
  365MOL0     O49176   6.050   1.262   3.320 -0.4483 -0.9778 -0.7219
  365MOL0     C49177   5.969   1.361   3.389  0.0068 -0.0408 -0.4813
  365MOL0     C49178   5.846   1.397   3.311  0.3080 -0.5494 -0.2509
  365MOL0     C49179   5.744   1.481   3.389 -0.7152  0.0453 -0.4783
  365MOL0     C49180   5.641   1.546   3.299 -0.3361  0.9290  0.0368
  365MOL0     C49181   5.546   1.626   3.379  0.2293  0.0421  0.6700
  365MOL0     C49182   5.408   1.662   3.313 -0.3817  0.4209  0.1998
  365MOL0     C49183   5.437   1.757   3.187 -0.5638  0.4168  0.0867
  365MOL0     C49184   5.323   1.757   3.099  0.9338  0.5082  0.5771
  365MOL0    Cl49185   5.168   1.777   3.191  0.6427 -0.2757  0.0322
  365MOL0     C49186   6.282   1.243   3.257 -0.0077 -0.0557 -0.4262
  365MOL0     C49187   6.415   1.233   3.292 -0.2639  0.8484 -0.5077
  365MOL0     O49188   6.605   1.463   3.411  0.4914  0.4684  0.0171
  365MOL0     C49189   6.889   1.445   3.376 -0.0310 -0.1897  0.7360
  365MOL0     C49190   7.029   1.446   3.386  0.2302  0.2000 -0.3269
  365MOL0     N49191   7.846   1.416   3.534  0.3295 -0.3322 -0.7779
  365MOL0     N49192   7.897   1.521   3.482 -0.2314 -0.2690 -0.3498
  365MOL0     C49193   7.523   1.115   3.145 -0.6676  0.4715  0.4124
  365MOL0     C49194   7.510   0.977   3.175  0.0164 -0.1917 -0.0837
  365MOL0     C49195   7.241   0.604   3.268 -0.8044 -0.7656  1.0167
  365MOL0     C49196   7.104   0.571   3.285  0.3478  0.9731 -0.0388
  365MOL0     C49197   7.069   0.468   3.374 -0.4880 -0.7600 -0.3243
  365MOL0     C49198   7.166   0.406   3.456 -0.6705 -0.4029  0.7929
  365MOL0     O49199   7.121   0.310   3.545  0.9126  0.1056 -0.1870
  365MOL0     C49200   7.205   0.255   3.639 -0.0854  0.2826  0.1235
  365MOL0     C49201   7.140   0.135   3.719  0.3953  0.1962 -0.0656
  365MOL0     C49202   7.235   0.061   3.812 -0.0156 -0.6863  0.2859
  365MOL0     C49203   7.188  -0.079   3.840  1.0913 -0.3449 -0.2230
  365MOL0     C49204   7.062  -0.088   3.911 -0.5077  0.1483  0.6792
  365MOL0     C49205   6.962  -0.115   3.975  0.4656 -1.0927 -0.1150
  365MOL0     C49206   7.302   0.442   3.442 -0.8257  0.0413  0.0005
  365MOL0     C49207   7.335   0.545   3.347  0.1427  0.3377 -0.2412
  365MOL0     H49208   7.168   0.956   3.168  0.1170 -1.8185 -1.7641
  365MOL0     H49209   7.196   1.193   3.126 -1.0068 -0.3875 -1.7087
  365MOL0     H49210   7.249   1.380   2.987 -0.2824  0.6975  0.2165
  365MOL0     H49211   7.238   1.414   3.154  0.9727  1.0877  1.0363
  365MOL0     H49212   7.417   1.538   2.959 -1.5312 -2.6572 -0.8680
  365MOL0     H49213   7.270   1.619   3.014 -1.1069  0.0301  0.8032
  365MOL0     H49214   7.341   1.670   3.234  0.8558 -0.2079  1.4580
  365MOL0     H49215   7.477   1.553   3.230 -0.3541 -1.0025 -0.5725
  365MOL0     H49216   7.563   1.721   3.052 -0.2456 -1.5698  0.4402
  365MOL0     H49217   7.411   1.822   3.097  0.5605  3.0877  2.8514
  365MOL0     H49218   7.585   1.920   3.227  0.0508  0.5645 -1.0367
  365MOL0     H49219   7.481   1.826   3.331 -0.0725  0.9001 -0.3971
  365MOL0     H49220   7.713   1.786   3.398  2.9965 -2.8897  0.1175
  365MOL0     H49221   7.650   1.639   3.341  1.2081 -0.5972 -1.1811
  365MOL0     H49222   7.743   1.657   3.122 -0.6352  0.9763 -0.5026
  365MOL0     H49223   7.824   1.802   3.165 -1.4469 -1.2936 -2.2384
  365MOL0     H49224   7.974   1.699   3.313 -2.3939  2.0830  2.0961
  365MOL0     H49225   7.949   1.584   3.170 -2.0506  0.4772 -1.2824
  365MOL0     H49226   7.747   1.383   3.221  0.5078 -2.1568  0.6785
  365MOL0     H49227   7.693   1.153   3.385 -0.3879  1.2366 -0.9254
  365MOL0     H49228   7.699   1.183   3.553  0.6885 -1.0336 -0.2704
  365MOL0     H49229   7.492   1.316   3.349  1.7005 -0.9665 -0.3735
  365MOL0     H49230   7.537   1.386   3.504  1.4326 -0.3514  0.2747
  365MOL0     H49231   7.480   1.135   3.584 -0.8966  0.6129  1.1341
  365MOL0     H49232   7.407   1.126   3.419  2.3290 -0.2065 -0.7834
  365MOL0     H49233   7.330   1.324   3.639  0.5432 -0.5295 -0.6480
  365MOL0     H49234   7.249   1.174   3.599  0.3944 -0.6539 -2.0023
  365MOL0     H49235   7.052   1.213   3.638  1.9441 -0.6297 -1.4548
  365MOL0     H49236   6.717   1.269   3.704 -1.1376 -3.6099  1.7539
  365MOL0     H49237   6.761   1.118   3.616  0.9892  1.1241 -3.9732
  365MOL0     H49238   6.849   1.186   3.753 -0.8870 -3.3479 -0.8784
  365MOL0     H49239   6.392   1.265   3.625 -0.8985  0.0054 -0.7098
  365MOL0     H49240   6.148   1.295   3.559 -0.5833  1.2348 -0.7815
  365MOL0     H49241   5.936   1.306   3.478  0.7379 -2.2995 -1.5179
  365MOL0     H49242   6.015   1.453   3.427 -0.3504 -1.0099  2.5847
  365MOL0     H49243   5.866   1.457   3.222  2.7510  0.8802  1.1555
  365MOL0     H49244   5.795   1.303   3.286 -0.0381 -1.3313  2.9474
  365MOL0     H49245   5.797   1.560   3.444 -0.3492 -0.1800 -0.5024
  365MOL0     H49246   5.693   1.415   3.460  1.4808 -1.0377  0.1931
  365MOL0     H49247   5.687   1.618   3.230  1.0285  1.9644  1.9275
  365MOL0     H49248   5.585   1.471   3.243  0.9053  0.3447 -0.4636
  365MOL0     H49249   5.582   1.726   3.403  1.4437  0.3227 -1.9061
  365MOL0     H49250   5.528   1.580   3.476 -2.6590 -0.1580  0.1169
  365MOL0     H49251   5.362   1.570   3.276  1.3753 -1.2331  1.8809
  365MOL0     H49252   5.338   1.699   3.387 -0.6232 -0.9718  0.7071
  365MOL0     H49253   5.521   1.722   3.126 -0.5170  1.6285 -0.5669
  365MOL0     H49254   5.470   1.857   3.216  0.7417  0.2329 -0.6631
  365MOL0     H49255   5.316   1.665   3.040  1.0152 -0.1152  1.5295
  365MOL0     H49256   5.327   1.841   3.029  0.2749  0.0779  0.0114
  365MOL0     H49257   6.262   1.235   3.151  2.6906 -2.0467 -0.8684
  365MOL0     H49258   6.492   1.224   3.217  0.0953  2.4943 -0.3692
  365MOL0     H49259   6.834   1.507   3.306 -0.6163  2.9465  3.6678
  365MOL0     H49260   7.087   1.504   3.314 -0.5622  1.1817 -0.2037
  365MOL0     H49261   7.616   1.166   3.126 -1.1178  0.7111 -1.2913
  365MOL0     H49262   7.595   0.910   3.169  0.7043  0.6881 -0.3120
  365MOL0     H49263   7.028   0.618   3.224 -0.2034  0.0683 -0.0698
  365MOL0     H49264   6.966   0.444   3.398 -0.6513  1.1858  1.0925
  365MOL0     H49265   7.285   0.204   3.584  1.9444  0.7507  2.4765
  365MOL0     H49266   7.259   0.328   3.699 -0.8957  1.9402 -1.0933
  365MOL0     H49267   7.119   0.059   3.643  2.7372 -1.9269  1.2726
  365MOL0     H49268   7.047   0.163   3.770  0.4952 -0.0821  0.2656
  365MOL0     H49269   7.255   0.113   3.906  0.9878 -0.4218 -0.0577
  365MOL0     H49270   7.336   0.059   3.769  0.0612  1.4405  0.2396
  365MOL0     H49271   7.268  -0.121   3.903  0.1116  1.4611  2.4185
  365MOL0     H49272   7.188  -0.142   3.751  2.5727  1.2378 -1.4301
  365MOL0     H49273   6.881  -0.125   4.044  0.4058 -0.4094 -0.0741
  365MOL0     H49274   7.384   0.401   3.499 -0.1463  2.4912  0.9148
  365MOL0     H49275   7.442   0.564   3.339  0.0203  0.6312 -1.3007
  366MOL0     O49276   6.615   2.357   1.383 -0.2927 -0.3908  0.2236
  366MOL0     C49277   6.649   2.293   1.482  0.2552 -0.1848  0.7424
  366MOL0     O49278   6.566   2.219   1.562 -0.2253  0.1678 -0.0152
  366MOL0     C49279   6.439   2.253   1.577  0.4084  0.3121 -0.3123
  366MOL0     C49280   6.366   2.153   1.647  0.1895  0.4283 -0.0053
  366MOL0     C49281   6.234   2.166   1.687  0.0370  0.9537 -0.0175
  366MOL0     C49282   6.170   2.275   1.643  0.7715  0.2960 -0.5087
  366MOL0     O49283   6.041   2.292   1.698 -0.5406 -0.5860 -0.4766
  366MOL0     C49284   5.969   2.413   1.671  0.9148 -0.5868  0.3217
  366MOL0     C49285   5.822   2.398   1.680  0.4293  0.6556  0.5691
  366MOL0     C49286   5.752   2.534   1.664 -0.0266 -0.0890  0.1400
  366MOL0     C49287   5.605   2.518   1.615  0.6993 -0.2674 -0.1946
  366MOL0     C49288   5.539   2.651   1.577 -1.0792 -0.3123  0.1608
  366MOL0     C49289   5.387   2.637   1.523  0.3168 -0.5210 -0.6830
  366MOL0     C49290   5.289   2.586   1.630 -0.3748 -0.8999  0.3824
  366MOL0     C49291   5.273   2.683   1.748 -0.6528  0.2336  0.3082
  366MOL0     N49292   5.159   2.639   1.833 -0.1493 -0.5494  0.5468
  366MOL0     C49293   5.156   2.649   1.970  0.4896  1.0120 -0.9161
  366MOL0     C49294   5.028   2.644   2.000  0.3622  0.7027  0.3643
  366MOL0     C49295   4.974   2.659   2.140 -0.6573 -0.8077  0.6820
  366MOL0     C49296   4.838   2.606   2.158  0.4383  0.4174 -1.4817
  366MOL0     C49297   4.809   2.604   2.308  0.0167  0.1389 -0.0408
  366MOL0     C49298   4.681   2.529   2.335  0.3873 -0.1033 -0.1181
  366MOL0     O49299   4.637   2.546   2.470  0.2842 -0.5959  0.4790
  366MOL0     C49300   4.528   2.472   2.515 -0.5214 -0.6357 -0.3279
  366MOL0     C49301   4.414   2.447   2.435  0.5821 -0.6619 -0.2822
  366MOL0     C49302   4.301   2.382   2.489  0.0373  0.3600 -0.8526
  366MOL0     C49303   4.188   2.363   2.395  0.8368  0.2747  0.1274
  366MOL0     C49304   4.304   2.335   2.624  0.6025  0.2920 -0.0393
  366MOL0     C49305   4.189   2.258   2.700  0.2513 -0.6723  0.9911
  366MOL0     O49306   4.192   2.257   2.842 -0.0797 -0.1965 -0.4468
  366MOL0     C49307   4.101   2.181   2.914  0.0906 -0.1218  0.1155
  366MOL0     C49308   4.010   2.075   2.872  0.6875 -0.8893  0.8577
  366MOL0     C49309   3.933   2.010   2.968 -0.5998  0.5077  0.6171
  366MOL0     C49310   3.947   2.018   3.105  0.3374 -0.0568  0.5948
  366MOL0     O49311   3.869   1.932   3.184  0.0724 -0.2957 -0.0151
  366MOL0     C49312   3.849   1.991   3.317 -0.3149  0.1745  0.2032
  366MOL0     C49313   3.739   1.918   3.390 -0.4110  0.1464  0.4557
  366MOL0     C49314   3.601   1.936   3.327 -0.0385  0.2699 -0.8658
  366MOL0     C49315   3.493   1.866   3.417  0.5557 -0.9450  0.2819
  366MOL0     C49316   3.362   1.851   3.334 -0.1259 -0.8474 -0.5074
  366MOL0     C49317   3.262   1.766   3.412  0.2690  0.0524 -0.8403
  366MOL0     C49318   3.122   1.777   3.355  1.2877  0.4330 -0.0817
  366MOL0     C49319   3.017   1.721   3.452 -0.1190 -0.4620  1.4021
  366MOL0    Cl49320   2.852   1.690   3.381  0.1393 -0.6662  0.1018
  366MOL0     C49321   4.048   2.103   3.140  0.3660 -0.5403 -0.8897
  366MOL0     C49322   4.117   2.188   3.052 -0.5697 -0.1897  0.2967
  366MOL0     O49323   4.103   2.206   2.629 -0.2088 -0.0007 -0.0978
  366MOL0     C49324   4.419   2.364   2.704  0.9166  1.1573 -0.5159
  366MOL0     C49325   4.524   2.427   2.648 -0.1867  0.7975  0.2543
  366MOL0     N49326   4.954   2.619   1.887 -0.1672 -0.5123  0.5165
  366MOL0     N49327   5.030   2.622   1.781  0.0840 -0.3994  0.3279
  366MOL0     C49328   6.228   2.374   1.568  0.1681  0.4766 -0.2261
  366MOL0     C49329   6.368   2.372   1.546 -0.6639  0.9434  0.6667
  366MOL0     C49330   6.794   2.273   1.489  0.2156 -0.0786  0.1707
  366MOL0     C49331   6.850   2.236   1.614  0.8693 -0.9754  0.5233
  366MOL0     C49332   6.992   2.220   1.639  0.1544 -0.1771 -0.3550
  366MOL0     C49333   7.082   2.254   1.539  0.1531 -0.0871 -0.2119
  366MOL0     O49334   7.217   2.232   1.540 -0.3772  0.0584  0.5525
  366MOL0     C49335   7.264   2.113   1.607  0.1677 -0.8096 -0.0629
  366MOL0     C49336   7.403   2.089   1.557 -0.3889 -0.3491  0.6177
  366MOL0     C49337   7.455   1.977   1.633 -0.3801  1.1346  0.2883
  366MOL0     C49338   7.569   1.895   1.559  0.1806  0.1712  0.2812
  366MOL0     C49339   7.673   1.978   1.499  0.6672 -0.7567 -0.9216
  366MOL0     C49340   7.765   2.040   1.454 -0.1359  0.3906  0.2132
  366MOL0     C49341   7.023   2.296   1.415 -0.1545 -0.1969  0.8525
  366MOL0     C49342   6.888   2.314   1.390  0.6020  1.2103  0.7294
  366MOL0     H49343   6.414   2.057   1.669  1.9886  1.1994 -0.3265
  366MOL0     H49344   6.185   2.087   1.743  3.3700 -0.3823  1.2754
  366MOL0     H49345   5.994   2.491   1.743 -0.1574 -0.1747  0.2610
  366MOL0     H49346   5.987   2.447   1.568  0.4095 -0.8286  0.1494
  366MOL0     H49347   5.788   2.339   1.594  0.9015  3.0969 -1.4182
  366MOL0     H49348   5.795   2.341   1.769 -3.2783  0.0226 -0.7859
  366MOL0     H49349   5.748   2.588   1.760  3.0870  2.1512 -0.8100
  366MOL0     H49350   5.809   2.597   1.594 -0.5847 -0.9845 -1.1459
  366MOL0     H49351   5.603   2.443   1.535  2.7462  0.5722 -1.1107
  366MOL0     H49352   5.539   2.476   1.691  0.5344 -1.5034 -0.9886
  366MOL0     H49353   5.536   2.728   1.655 -2.3207  1.6199 -1.6668
  366MOL0     H49354   5.593   2.694   1.493 -0.5018 -1.5200 -0.1073
  366MOL0     H49355   5.368   2.739   1.490  0.8214 -0.1860  0.0268
  366MOL0     H49356   5.377   2.573   1.434  0.9750 -0.9631 -0.4515
  366MOL0     H49357   5.189   2.580   1.586 -0.2065  0.5985 -0.2683
  366MOL0     H49358   5.323   2.486   1.656  2.3665 -0.4441 -1.1053
  366MOL0     H49359   5.255   2.780   1.700  0.7847  1.5052  2.1958
  366MOL0     H49360   5.368   2.678   1.802 -0.2114  1.2377 -0.3409
  366MOL0     H49361   5.223   2.670   2.053 -1.9559  0.4013  1.3398
  366MOL0     H49362   5.050   2.601   2.193  4.6898  0.3698 -4.5305
  366MOL0     H49363   4.954   2.759   2.180 -0.2059  0.2976 -1.6305
  366MOL0     H49364   4.817   2.506   2.119  1.6024 -1.4361  2.1775
  366MOL0     H49365   4.765   2.674   2.112 -1.4339  0.3758  1.1974
  366MOL0     H49366   4.793   2.705   2.347  0.9025  0.9082 -1.5433
  366MOL0     H49367   4.893   2.564   2.366  1.1488  1.4314 -0.7174
  366MOL0     H49368   4.692   2.423   2.310 -3.5270 -1.2716  2.2963
  366MOL0     H49369   4.600   2.565   2.271 -0.2660 -0.0947  0.7015
  366MOL0     H49370   4.417   2.476   2.331  0.9481 -0.4049 -0.2029
  366MOL0     H49371   4.195   2.437   2.315 -1.5144  0.1582 -0.2757
  366MOL0     H49372   4.183   2.266   2.345  0.4501 -0.1996  1.0484
  366MOL0     H49373   4.095   2.372   2.453  2.0246  2.8239  1.8000
  366MOL0     H49374   3.991   2.051   2.768  0.1079 -1.1022  1.0072
  366MOL0     H49375   3.860   1.938   2.932  0.0579 -0.4940  1.2243
  366MOL0     H49376   3.946   1.978   3.367 -1.0540  0.2940  1.6988
  366MOL0     H49377   3.830   2.099   3.313 -0.2634  0.1712 -0.2129
  366MOL0     H49378   3.760   1.811   3.391  4.9880  0.8721 -1.2515
  366MOL0     H49379   3.718   1.959   3.489 -4.0175 -1.9979  0.7623
  366MOL0     H49380   3.589   1.892   3.228  0.6290 -0.4380 -0.6435
  366MOL0     H49381   3.577   2.042   3.318  0.9599  1.2062  4.1740
  366MOL0     H49382   3.514   1.764   3.452 -0.9157 -1.2397  0.3470
  366MOL0     H49383   3.477   1.919   3.511  2.5391 -2.1709  1.3946
  366MOL0     H49384   3.386   1.804   3.239 -0.1769  0.5433 -1.2357
  366MOL0     H49385   3.330   1.949   3.299  3.7287  0.2197 -1.5382
  366MOL0     H49386   3.294   1.664   3.435 -2.4913 -0.3562  1.8682
  366MOL0     H49387   3.249   1.813   3.510 -1.5278  0.7342 -1.3550
  366MOL0     H49388   3.112   1.727   3.258 -0.3914  0.8761 -0.1700
  366MOL0     H49389   3.094   1.880   3.332 -1.4110 -0.2944 -0.3280
  366MOL0     H49390   3.004   1.791   3.535 -3.2790 -0.7224  1.2505
  366MOL0     H49391   3.050   1.627   3.498  2.0532 -0.1123  0.6531
  366MOL0     H49392   4.062   2.117   3.246 -1.7580  1.8407 -0.8158
  366MOL0     H49393   4.196   2.253   3.089 -0.1481 -1.6716  2.1249
  366MOL0     H49394   4.410   2.340   2.810 -0.1057  2.9888 -0.1544
  366MOL0     H49395   4.608   2.449   2.714  0.3115  1.3070 -0.5259
  366MOL0     H49396   6.189   2.465   1.523 -2.6662 -0.7979 -0.5177
  366MOL0     H49397   6.420   2.455   1.500 -0.0259  0.4631  0.4995
  366MOL0     H49398   6.783   2.216   1.697  1.3981 -0.9360  0.9644
  366MOL0     H49399   7.025   2.181   1.735 -1.5541 -1.8305 -0.3779
  366MOL0     H49400   7.246   2.122   1.715  1.0219  1.9921 -0.0785
  366MOL0     H49401   7.205   2.024   1.584 -2.4852  0.1037  2.5798
  366MOL0     H49402   7.467   2.178   1.558 -1.2281  0.2889 -0.2071
  366MOL0     H49403   7.397   2.058   1.452  0.5317  1.9958 -0.2101
  366MOL0     H49404   7.376   1.905   1.658  0.1651 -0.6020 -2.5807
  366MOL0     H49405   7.490   2.003   1.733  0.1571  1.3547  0.0468
  366MOL0     H49406   7.525   1.843   1.474  1.1775 -0.1789 -0.0344
  366MOL0     H49407   7.613   1.823   1.629  1.5156 -0.1323 -0.8346
  366MOL0     H49408   7.842   2.100   1.412 -1.8040  0.0764 -3.6751
  366MOL0     H49409   7.099   2.338   1.350 -0.0297  0.7084  1.5719
  366MOL0     H49410   6.876   2.351   1.289  1.3284 -0.8343 -0.1637
  367MOL0     O49411   1.465   9.555   9.043  0.0424 -0.2840  0.5728
  367MOL0     C49412   1.567   9.631   9.047  0.1058  0.0060  0.0487
  367MOL0     O49413   1.572   9.758   9.081 -0.2098 -0.5231  0.1893
  367MOL0     C49414   1.449   9.818   9.079  0.1474 -0.7906 -0.0150
  367MOL0     C49415   1.374   9.825   9.193 -0.9146  0.4223 -0.6092
  367MOL0     C49416   1.240   9.870   9.203 -0.3371 -0.0905 -0.1432
  367MOL0     C49417   1.175   9.913   9.085  0.0915  0.5577 -0.5879
  367MOL0     O49418   1.044   9.961   9.075  0.0940 -0.7496  1.1166
  367MOL0     C49419   0.949   9.931   9.172  0.1036  0.1943 -0.2469
  367MOL0     C49420   0.797   9.958   9.144  0.3692  1.1223  0.6213
  367MOL0     C49421   0.735   9.847   9.062 -0.3300 -1.3339  0.2102
  367MOL0     C49422   0.615   9.919   8.995  0.0390  0.7428  0.9058
  367MOL0     C49423   0.529   9.818   8.910 -0.5751  0.5252 -0.5834
  367MOL0     C49424   0.454   9.708   8.970 -0.4755 -0.1042 -0.2471
  367MOL0     C49425   0.423   9.728   9.122 -0.1765  0.3886 -0.3190
  367MOL0     C49426   0.321   9.843   9.161  0.1024 -0.4553  0.3925
  367MOL0     N49427   0.184   9.795   9.139 -0.5052  0.5801  0.3454
  367MOL0     C49428   0.124   9.715   9.237  0.3364 -0.3721  0.7090
  367MOL0     C49429  -0.003   9.701   9.183 -0.0418 -0.2611 -0.1174
  367MOL0     C49430  -0.118   9.636   9.256  0.1286 -0.3631 -0.0734
  367MOL0     C49431  -0.254   9.705   9.237  0.3440 -0.0380  0.1445
  367MOL0     C49432  -0.350   9.663   9.343 -0.2013 -0.6375 -0.1765
  367MOL0     C49433  -0.494   9.720   9.321  0.3843 -0.2567  0.4343
  367MOL0     O49434  -0.582   9.686   9.432 -0.1426 -0.9319  0.3258
  367MOL0     C49435  -0.704   9.746   9.426  0.3740  0.2081 -0.2996
  367MOL0     C49436  -0.824   9.673   9.398  0.4020 -0.6844  0.2192
  367MOL0     C49437  -0.946   9.731   9.397  0.7972  0.2030  0.2490
  367MOL0     C49438  -1.068   9.661   9.331 -0.9250 -0.8853  0.7091
  367MOL0     C49439  -0.963   9.856   9.449 -0.2450  0.0108 -0.5826
  367MOL0     C49440  -1.098   9.922   9.461 -0.8123 -0.1591  0.1835
  367MOL0     O49441  -1.209   9.843   9.501  0.0184  0.6701 -0.0220
  367MOL0     C49442  -1.324   9.906   9.543  0.1272 -0.9178 -0.9797
  367MOL0     C49443  -1.334   9.944   9.672  0.0603  0.6789 -0.8633
  367MOL0     C49444  -1.454   9.992   9.735  0.0056 -0.2342 -0.0167
  367MOL0     C49445  -1.567  10.018   9.655 -0.1960 -0.1795 -0.2370
  367MOL0     O49446  -1.683  10.080   9.692 -0.0784 -0.0741 -0.4221
  367MOL0     C49447  -1.692  10.090   9.836 -0.0288 -0.1757 -0.7655
  367MOL0     C49448  -1.825  10.136   9.888 -0.0698  0.0771  0.9904
  367MOL0     C49449  -1.832  10.129  10.045  0.7256  0.2821  0.3932
  367MOL0     C49450  -1.947  10.208  10.094  0.4496  0.5816  0.5498
  367MOL0     C49451  -1.970  10.180  10.245  0.3898 -0.7208 -0.2783
  367MOL0     C49452  -2.100  10.250  10.283 -0.9526  0.4154 -0.6448
  367MOL0     C49453  -2.143  10.222  10.429  0.2721 -0.0520  0.3378
  367MOL0     C49454  -2.267  10.306  10.454 -0.1452  0.5411  0.9168
  367MOL0    Cl49455  -2.367  10.225  10.586  0.2084  0.3932 -0.0749
  367MOL0     C49456  -1.557   9.979   9.517 -0.7799 -0.1067 -0.7957
  367MOL0     C49457  -1.438   9.921   9.464 -0.1518 -0.4947  0.5280
  367MOL0     O49458  -1.097  10.043   9.420  0.1232  0.0213 -0.2694
  367MOL0     C49459  -0.841   9.929   9.482  0.1047  0.7882  0.2624
  367MOL0     C49460  -0.716   9.875   9.463  0.6201 -0.4190 -0.6831
  367MOL0     N49461  -0.021   9.780   9.067 -0.0023  0.5259  0.4752
  367MOL0     N49462   0.098   9.838   9.041  0.1358  0.8133 -0.3359
  367MOL0     C49463   1.260   9.917   8.967 -0.4231  0.4382 -0.0759
  367MOL0     C49464   1.393   9.869   8.964  0.3949 -0.1579  0.5314
  367MOL0     C49465   1.701   9.569   9.052  0.6275  0.0958 -0.1754
  367MOL0     C49466   1.722   9.439   9.016 -1.0824  0.0609  0.3133
  367MOL0     C49467   1.851   9.369   9.030 -0.3052 -0.0087 -0.0427
  367MOL0     C49468   1.961   9.437   9.085  0.5914 -0.2542  0.5519
  367MOL0     O49469   2.090   9.402   9.109 -0.2584  0.4897 -0.1259
  367MOL0     C49470   2.134   9.272   9.092 -0.4020  0.6079  0.1838
  367MOL0     C49471   2.071   9.183   9.198  0.0643 -0.4903  0.5980
  367MOL0     C49472   2.123   9.197   9.342 -0.0526 -0.6546 -0.4866
  367MOL0     C49473   2.040   9.109   9.432  0.1837  0.4865 -0.1635
  367MOL0     C49474   2.080   9.133   9.572  0.3627  0.8063 -0.0692
  367MOL0     C49475   2.118   9.178   9.678 -0.2223 -0.5569 -0.0198
  367MOL0     C49476   1.937   9.571   9.119  0.5424 -0.2098 -0.0767
  367MOL0     C49477   1.810   9.634   9.102 -0.2762 -0.4960 -0.9664
  367MOL0     H49478   1.428   9.786   9.278  1.5871 -1.5370 -2.9183
  367MOL0     H49479   1.188   9.869   9.298  1.9265  0.3774  1.1919
  367MOL0     H49480   0.960   9.829   9.209 -1.5027  0.0652 -0.0417
  367MOL0     H49481   0.969  10.002   9.253  0.8582  1.1847 -1.2764
  367MOL0     H49482   0.751   9.974   9.242  0.8839 -1.3464  1.3229
  367MOL0     H49483   0.781  10.055   9.096  1.0450  1.6876  1.4906
  367MOL0     H49484   0.805   9.803   8.990  1.8252 -0.1455  1.4710
  367MOL0     H49485   0.714   9.764   9.130  1.6591 -3.1615 -1.2445
  367MOL0     H49486   0.553   9.961   9.075 -1.0325 -0.4360  0.7276
  367MOL0     H49487   0.649   9.999   8.929 -1.4736 -2.2813 -4.0946
  367MOL0     H49488   0.462   9.872   8.843 -1.3785  0.1390 -0.1113
  367MOL0     H49489   0.592   9.772   8.833  1.1694 -1.6757  1.9429
  367MOL0     H49490   0.362   9.693   8.914 -1.2018  0.9913  0.6055
  367MOL0     H49491   0.511   9.615   8.956 -0.6563 -0.2148 -0.2524
  367MOL0     H49492   0.382   9.638   9.170 -1.3643  0.5135 -1.0515
  367MOL0     H49493   0.518   9.727   9.176  0.2397 -1.9248 -0.9941
  367MOL0     H49494   0.338   9.922   9.087  1.1735 -2.3514 -1.4969
  367MOL0     H49495   0.349   9.881   9.260  2.0454 -2.2081  0.5809
  367MOL0     H49496   0.157   9.658   9.323 -1.7854 -4.4685 -0.9093
  367MOL0     H49497  -0.134   9.530   9.233 -0.9619 -0.4814  1.1087
  367MOL0     H49498  -0.079   9.628   9.358  2.1428 -0.5556 -0.8156
  367MOL0     H49499  -0.306   9.682   9.143  0.3578 -0.8612  0.3350
  367MOL0     H49500  -0.247   9.814   9.226 -2.4999  0.0521 -2.1002
  367MOL0     H49501  -0.319   9.701   9.441 -2.5269 -2.0955  1.2101
  367MOL0     H49502  -0.352   9.554   9.338 -0.5729 -0.6876  0.9342
  367MOL0     H49503  -0.539   9.672   9.234 -1.0342 -0.1006  1.0585
  367MOL0     H49504  -0.473   9.827   9.312  0.9880 -0.4555 -0.6159
  367MOL0     H49505  -0.822   9.571   9.362 -0.7792 -0.0583 -1.7616
  367MOL0     H49506  -1.111   9.593   9.406 -0.1550 -0.0615  1.9285
  367MOL0     H49507  -1.147   9.731   9.304 -0.0912 -0.5446 -1.0243
  367MOL0     H49508  -1.038   9.610   9.239  0.0063  3.5194 -1.7173
  367MOL0     H49509  -1.250   9.922   9.737 -0.2053  0.5726 -0.5464
  367MOL0     H49510  -1.466  10.012   9.841  0.3376  0.0503 -0.0324
  367MOL0     H49511  -1.667   9.992   9.877 -1.4847 -0.7619 -1.2391
  367MOL0     H49512  -1.620  10.158   9.883  0.4327 -1.1376 -0.0276
  367MOL0     H49513  -1.847  10.234   9.844 -0.3157 -1.1130 -1.7463
  367MOL0     H49514  -1.890  10.057   9.849  0.1957  0.0517  0.5916
  367MOL0     H49515  -1.738  10.158  10.092  2.4594  0.5936 -2.9718
  367MOL0     H49516  -1.844  10.022  10.064  1.7652 -0.1179 -1.0738
  367MOL0     H49517  -1.935  10.314  10.071 -2.1637  0.5724 -1.1927
  367MOL0     H49518  -2.035  10.176  10.039  1.3267 -2.9201  0.9464
  367MOL0     H49519  -1.886  10.214  10.307  0.5205  1.2446 -1.4518
  367MOL0     H49520  -1.990  10.073  10.259 -1.7375 -0.3137  0.0565
  367MOL0     H49521  -2.080  10.357  10.271 -1.8506  0.3757 -2.9740
  367MOL0     H49522  -2.181  10.230  10.212 -2.7584  0.2395  1.3948
  367MOL0     H49523  -2.076  10.245  10.513 -0.1128 -0.3130  0.7199
  367MOL0     H49524  -2.176  10.118  10.432  0.1087 -0.0193  3.8134
  367MOL0     H49525  -2.323  10.314  10.360  1.8270  0.7929 -0.3112
  367MOL0     H49526  -2.230  10.402  10.491 -1.1538  1.4054 -0.2459
  367MOL0     H49527  -1.635   9.998   9.444  0.7269  0.6535 -2.2788
  367MOL0     H49528  -1.439   9.903   9.357  0.6400  0.3013  0.3729
  367MOL0     H49529  -0.836  10.036   9.501 -1.4131  0.8019  0.7456
  367MOL0     H49530  -0.633   9.945   9.472 -0.7985  1.5703 -2.0705
  367MOL0     H49531   1.222   9.971   8.881  0.8153  0.9199 -0.3314
  367MOL0     H49532   1.453   9.853   8.875 -0.5013  0.2059 -0.1503
  367MOL0     H49533   1.639   9.385   8.971  0.4932 -1.9433 -0.3486
  367MOL0     H49534   1.869   9.268   8.996  0.6275 -0.3336  1.2947
  367MOL0     H49535   2.105   9.248   8.990  4.9243  0.9359 -1.7031
  367MOL0     H49536   2.242   9.285   9.103 -0.0732 -2.2058  1.0241
  367MOL0     H49537   2.083   9.080   9.163  0.5491 -0.0673 -0.5226
  367MOL0     H49538   1.964   9.205   9.194 -0.3393 -2.4510 -2.3107
  367MOL0     H49539   2.123   9.305   9.358 -1.2873 -0.5324 -1.2440
  367MOL0     H49540   2.227   9.172   9.367 -0.4067 -0.0192  1.8373
  367MOL0     H49541   2.058   9.002   9.413 -0.6146  0.4247 -0.5948
  367MOL0     H49542   1.932   9.122   9.430 -0.4816 -2.7686  3.2217
  367MOL0     H49543   2.161   9.214   9.769  2.1855  6.1872 -3.2106
  367MOL0     H49544   2.015   9.628   9.169 -0.8186  1.3538  0.3679
  367MOL0     H49545   1.804   9.736   9.139  0.6485 -1.5675  2.6003
  368MOL0     O49546   9.537   5.407   0.289 -0.2408 -0.7120  0.0439
  368MOL0     C49547   9.560   5.394   0.172 -0.5475  0.1240 -0.8068
  368MOL0     O49548   9.490   5.440   0.068  0.1656 -0.3634 -0.4567
  368MOL0     C49549   9.357   5.483   0.093 -0.1272  0.1102 -0.2725
  368MOL0     C49550   9.255   5.399   0.143  0.3340 -0.0894 -0.5464
  368MOL0     C49551   9.126   5.445   0.161 -0.2872  0.5839 -0.4451
  368MOL0     C49552   9.093   5.578   0.133 -0.0814 -0.7928 -0.1650
  368MOL0     O49553   8.965   5.634   0.146  0.3186 -0.2884  0.7218
  368MOL0     C49554   8.853   5.543   0.134 -0.4591 -1.0704 -0.7031
  368MOL0     C49555   8.731   5.618   0.111 -0.8348  0.0754  0.5324
  368MOL0     C49556   8.738   5.720  -0.006 -0.3609  0.4636  0.7171
  368MOL0     C49557   8.607   5.808   0.008  0.5513 -0.0127  0.3217
  368MOL0     C49558   8.578   5.882  -0.123  0.7575 -0.8187  0.8564
  368MOL0     C49559   8.681   5.981  -0.165 -0.2708 -1.0033  0.3198
  368MOL0     C49560   8.616   6.084  -0.267  0.3196 -0.4050  0.2869
  368MOL0     C49561   8.582   6.027  -0.405  0.1469 -0.3012  0.8450
  368MOL0     N49562   8.486   6.109  -0.485  0.0551 -0.7155 -0.5245
  368MOL0     C49563   8.347   6.103  -0.477 -0.6010  0.9463  0.2840
  368MOL0     C49564   8.307   6.190  -0.569 -0.1267  0.0681  0.5904
  368MOL0     C49565   8.162   6.205  -0.603 -1.1444 -0.7903  0.0242
  368MOL0     C49566   8.108   6.078  -0.672 -0.7931  0.1580 -0.1385
  368MOL0     C49567   7.957   6.066  -0.665 -0.0082  0.1595 -0.0319
  368MOL0     C49568   7.914   5.983  -0.786  0.3916  0.0812  0.7891
  368MOL0     O49569   7.767   5.964  -0.778  0.6811  0.3192 -0.1406
  368MOL0     C49570   7.703   5.879  -0.869 -0.2717 -0.2580  0.3524
  368MOL0     C49571   7.769   5.820  -0.976  0.2217 -0.7503 -0.8048
  368MOL0     C49572   7.706   5.727  -1.062  0.2367 -0.2129  0.8315
  368MOL0     C49573   7.788   5.680  -1.190 -0.2454 -0.2074  0.0776
  368MOL0     C49574   7.572   5.688  -1.046  0.1416  0.1341 -0.2546
  368MOL0     C49575   7.498   5.589  -1.137 -0.3074 -0.2727 -1.1534
  368MOL0     O49576   7.364   5.586  -1.125 -0.2783 -0.3556 -0.0354
  368MOL0     C49577   7.298   5.487  -1.188  0.1118 -0.0707  0.0638
  368MOL0     C49578   7.212   5.534  -1.288 -0.4958 -0.2817 -0.8377
  368MOL0     C49579   7.141   5.444  -1.363  0.3335  0.2034 -0.5321
  368MOL0     C49580   7.148   5.305  -1.335  1.3526  0.2300  0.0069
  368MOL0     O49581   7.103   5.209  -1.415  0.2236  0.0643  0.0618
  368MOL0     C49582   6.982   5.239  -1.481 -0.6055  0.0062 -0.2625
  368MOL0     C49583   6.862   5.279  -1.394  0.3370  0.2243  0.7973
  368MOL0     C49584   6.736   5.257  -1.473  0.4609  0.5453  0.2918
  368MOL0     C49585   6.612   5.307  -1.401 -0.4564  0.5100  0.2507
  368MOL0     C49586   6.482   5.282  -1.475 -0.6255 -0.0339 -0.0868
  368MOL0     C49587   6.476   5.389  -1.588  0.4454  0.6577 -0.6295
  368MOL0     C49588   6.327   5.390  -1.650 -0.9403 -0.0234 -0.4561
  368MOL0     C49589   6.346   5.365  -1.802 -0.7280  0.4758  0.1119
  368MOL0    Cl49590   6.203   5.416  -1.904  0.0251 -0.2141 -0.4974
  368MOL0     C49591   7.240   5.259  -1.242 -0.1788 -0.6016 -0.5274
  368MOL0     C49592   7.312   5.349  -1.163  0.0967 -0.4633 -0.0447
  368MOL0     O49593   7.564   5.493  -1.177 -0.4355 -0.3293  0.1143
  368MOL0     C49594   7.505   5.752  -0.944 -0.4601 -0.7877  0.2996
  368MOL0     C49595   7.571   5.844  -0.857  0.0582  0.6493  0.7633
  368MOL0     N49596   8.412   6.238  -0.645  0.2427  0.0104  0.7788
  368MOL0     N49597   8.521   6.197  -0.584  0.7127  0.0593 -0.5345
  368MOL0     C49598   9.200   5.660   0.094  0.8410 -0.0111  0.2424
  368MOL0     C49599   9.328   5.615   0.071 -0.1314 -0.8205  0.2474
  368MOL0     C49600   9.671   5.306   0.129  0.4318 -0.4732  0.0100
  368MOL0     C49601   9.776   5.280   0.214 -0.1592  0.4147 -0.3336
  368MOL0     C49602   9.879   5.200   0.175 -0.4703  0.2695  0.1974
  368MOL0     C49603   9.878   5.136   0.049 -0.0254  0.6684  0.4186
  368MOL0     O49604   9.972   5.050  -0.011  0.5261 -0.3927 -0.5318
  368MOL0     C49605  10.107   5.069   0.045 -0.2597 -0.0604  0.0653
  368MOL0     C49606  10.203   4.990  -0.053 -0.6179 -0.0065 -0.3804
  368MOL0     C49607  10.349   5.032  -0.035 -0.1994  0.7876  0.0594
  368MOL0     C49608  10.448   4.950  -0.116 -0.4096 -1.0308 -0.4048
  368MOL0     C49609  10.581   4.952  -0.050 -0.7122 -0.2290  0.0809
  368MOL0     C49610  10.683   4.946   0.012 -0.3781 -0.0205  0.3828
  368MOL0     C49611   9.765   5.161  -0.036  0.0187  0.3766  1.1301
  368MOL0     C49612   9.670   5.249  -0.002  0.1712  0.2375 -0.0884
  368MOL0     H49613   9.278   5.301   0.183 -0.6836 -0.4067 -0.6932
  368MOL0     H49614   9.043   5.387   0.200  0.2755 -0.4764 -0.8055
  368MOL0     H49615   8.873   5.474   0.052  2.7827  0.0138 -0.9843
  368MOL0     H49616   8.842   5.485   0.226  0.5529  2.8080  2.1186
  368MOL0     H49617   8.662   5.537   0.084  0.8695 -1.6733  1.2270
  368MOL0     H49618   8.703   5.674   0.201  1.7619  0.6620  1.0471
  368MOL0     H49619   8.833   5.773  -0.013 -0.3966  0.5183  0.6532
  368MOL0     H49620   8.727   5.658  -0.095  0.3278 -0.9067  1.5332
  368MOL0     H49621   8.516   5.751   0.029  0.8321 -0.2371  0.9570
  368MOL0     H49622   8.621   5.869   0.098 -1.9288 -0.8229  1.3390
  368MOL0     H49623   8.552   5.806  -0.197  0.4219 -0.7235  0.8759
  368MOL0     H49624   8.486   5.939  -0.106 -0.5201 -1.5109 -2.8844
  368MOL0     H49625   8.704   6.039  -0.075  0.1328  0.1137 -0.4699
  368MOL0     H49626   8.766   5.923  -0.202 -0.1977 -0.2614 -0.7470
  368MOL0     H49627   8.526   6.133  -0.228 -0.2613 -0.0933 -1.3375
  368MOL0     H49628   8.687   6.167  -0.271 -1.7001  1.3705 -1.5342
  368MOL0     H49629   8.551   5.922  -0.401 -0.0519 -0.2586  0.4963
  368MOL0     H49630   8.674   6.017  -0.464 -1.3500  0.2820 -1.7600
  368MOL0     H49631   8.293   6.031  -0.417  0.8420 -1.9650 -1.6411
  368MOL0     H49632   8.109   6.244  -0.516 -0.1386  2.3488 -0.6368
  368MOL0     H49633   8.168   6.273  -0.689  2.2181 -1.5693 -0.5153
  368MOL0     H49634   8.148   5.991  -0.618  0.6615  0.3133 -0.9014
  368MOL0     H49635   8.158   6.076  -0.770 -0.1185 -5.1464  0.0239
  368MOL0     H49636   7.913   6.165  -0.684  1.9576  0.9020 -0.9654
  368MOL0     H49637   7.930   6.015  -0.572  1.0601  0.7366  0.6195
  368MOL0     H49638   7.973   5.892  -0.779  0.4447  0.1060  0.6721
  368MOL0     H49639   7.939   6.032  -0.881 -2.3565  0.8317  0.3620
  368MOL0     H49640   7.873   5.837  -1.002  0.3674 -1.8736 -1.0052
  368MOL0     H49641   7.883   5.734  -1.199 -0.1790 -0.2728  0.3735
  368MOL0     H49642   7.816   5.575  -1.180  0.0738 -0.0478  0.9427
  368MOL0     H49643   7.725   5.696  -1.278 -0.7889 -0.7609  0.3650
  368MOL0     H49644   7.215   5.638  -1.317  0.5555 -0.5478 -1.7340
  368MOL0     H49645   7.080   5.486  -1.443 -1.5957  2.1794  1.8138
  368MOL0     H49646   7.001   5.319  -1.553  0.9277  2.6126  2.7756
  368MOL0     H49647   6.959   5.151  -1.542 -1.0199  1.0846 -1.7099
  368MOL0     H49648   6.862   5.217  -1.304 -1.8973 -0.9505  0.0775
  368MOL0     H49649   6.881   5.382  -1.362 -0.5057  0.0949  1.7361
  368MOL0     H49650   6.721   5.151  -1.499  1.2858  0.9691 -2.2552
  368MOL0     H49651   6.756   5.308  -1.568  2.8673 -0.4216  0.1909
  368MOL0     H49652   6.598   5.255  -1.306  0.1715 -1.0245 -0.4534
  368MOL0     H49653   6.637   5.411  -1.381  1.5971  0.1574 -0.2139
  368MOL0     H49654   6.405   5.303  -1.400  0.6911  0.7977  1.0773
  368MOL0     H49655   6.477   5.177  -1.506  4.5424 -0.0389 -1.8734
  368MOL0     H49656   6.502   5.486  -1.545  1.9907 -0.1011  0.1923
  368MOL0     H49657   6.544   5.371  -1.672 -1.1207  0.7156 -1.9649
  368MOL0     H49658   6.301   5.494  -1.629 -1.0064 -0.5338  2.3335
  368MOL0     H49659   6.254   5.322  -1.606  1.0039 -1.9616 -0.0039
  368MOL0     H49660   6.360   5.257  -1.808 -3.6953  0.0720 -1.5610
  368MOL0     H49661   6.437   5.415  -1.838 -1.7010  0.2121 -2.9858
  368MOL0     H49662   7.257   5.152  -1.229 -1.3245 -0.8114 -0.6518
  368MOL0     H49663   7.391   5.313  -1.097 -0.2616 -0.7461  0.2303
  368MOL0     H49664   7.398   5.744  -0.928 -0.8623 -1.9298 -2.3895
  368MOL0     H49665   7.520   5.891  -0.773  0.1961  0.1527  1.1254
  368MOL0     H49666   9.178   5.764   0.074  0.2815  0.4467  2.9144
  368MOL0     H49667   9.409   5.676   0.034  1.0287 -0.6609  2.8206
  368MOL0     H49668   9.785   5.322   0.314 -1.7697 -1.0078  0.4636
  368MOL0     H49669   9.957   5.184   0.249 -0.8411 -3.0939  0.0303
  368MOL0     H49670  10.126   5.175   0.063  0.6422  0.0861 -1.5552
  368MOL0     H49671  10.103   5.014   0.140 -2.8316  0.7728  0.5378
  368MOL0     H49672  10.172   5.025  -0.152 -0.3071  0.4815 -0.3090
  368MOL0     H49673  10.190   4.882  -0.040  1.0745  0.0233  2.1582
  368MOL0     H49674  10.378   5.031   0.071 -0.9227  1.1857  0.2675
  368MOL0     H49675  10.347   5.138  -0.062  2.9250  1.2513  1.2338
  368MOL0     H49676  10.453   5.005  -0.210 -0.4830  0.5573  0.4914
  368MOL0     H49677  10.403   4.851  -0.133 -0.2014 -1.1177 -0.4473
  368MOL0     H49678  10.779   4.946   0.062  0.9122  0.7434 -1.9421
  368MOL0     H49679   9.765   5.112  -0.133 -1.9818  0.2075  1.1672
  368MOL0     H49680   9.582   5.257  -0.065  0.7033  0.0154 -0.8756
  369MOL0     O49681   9.066   8.083   3.895  0.0135 -0.2549  0.6211
  369MOL0     C49682   9.005   8.002   3.832 -0.2522  0.1270 -0.0917
  369MOL0     O49683   8.888   7.931   3.869  0.7457 -0.2103 -0.2082
  369MOL0     C49684   8.829   7.946   3.995 -0.0110  0.4150  0.2268
  369MOL0     C49685   8.889   7.986   4.113  1.1033 -0.1010  0.8392
  369MOL0     C49686   8.817   7.986   4.232  0.1411  0.3234 -0.3077
  369MOL0     C49687   8.685   7.941   4.244  0.0052  0.6370 -0.2926
  369MOL0     O49688   8.639   7.913   4.368 -0.9320 -0.0225  0.5331
  369MOL0     C49689   8.495   7.935   4.396 -0.5852  0.3928  0.2053
  369MOL0     C49690   8.432   7.797   4.438  0.2346 -0.8271  0.0451
  369MOL0     C49691   8.281   7.810   4.437  0.3825 -0.2411 -0.3147
  369MOL0     C49692   8.228   7.665   4.467 -0.0613 -1.2153  0.0254
  369MOL0     C49693   8.079   7.671   4.469 -0.2045  0.1374 -0.6462
  369MOL0     C49694   8.016   7.535   4.506 -0.7936 -0.0297  0.5852
  369MOL0     C49695   7.875   7.534   4.561 -0.1888 -1.0367 -0.6361
  369MOL0     C49696   7.772   7.579   4.453 -0.3204  0.7860  0.0340
  369MOL0     N49697   7.739   7.464   4.360 -0.7293  0.4437 -0.3014
  369MOL0     C49698   7.693   7.340   4.388 -0.0313 -0.4785 -0.1127
  369MOL0     C49699   7.710   7.270   4.273  0.1761 -0.2087  0.0574
  369MOL0     C49700   7.699   7.125   4.250 -0.5140 -0.8176 -0.3221
  369MOL0     C49701   7.564   7.065   4.276  0.3412 -0.1578  0.2136
  369MOL0     C49702   7.451   7.128   4.187  0.7173  0.1049  0.4276
  369MOL0     C49703   7.317   7.091   4.247  0.1535 -0.2021  0.0532
  369MOL0     O49704   7.309   6.951   4.264 -0.0510  0.7529  0.0500
  369MOL0     C49705   7.185   6.884   4.257  0.9292  1.1998 -0.4688
  369MOL0     C49706   7.062   6.934   4.280  0.1880 -0.1180  0.3294
  369MOL0     C49707   6.941   6.864   4.258 -0.6282 -0.8002 -0.3184
  369MOL0     C49708   6.822   6.934   4.273 -0.1647 -0.9908 -0.1070
  369MOL0     C49709   6.946   6.727   4.209  0.0365  0.1361  0.6813
  369MOL0     C49710   6.826   6.645   4.160  0.2116  0.0983  0.3569
  369MOL0     O49711   6.837   6.507   4.144 -0.8168 -0.0783  0.3601
  369MOL0     C49712   6.713   6.447   4.147  0.3487 -0.7097  1.0985
  369MOL0     C49713   6.655   6.412   4.269 -0.4476  0.4121 -0.4802
  369MOL0     C49714   6.530   6.354   4.279  0.2394 -0.1426 -0.2618
  369MOL0     C49715   6.463   6.327   4.161 -0.1043 -0.5975 -0.7291
  369MOL0     O49716   6.332   6.303   4.170  0.0811  0.9383 -0.1098
  369MOL0     C49717   6.254   6.375   4.081 -0.6366 -0.3083  0.4242
  369MOL0     C49718   6.106   6.313   4.095 -0.6960 -0.3105  0.1008
  369MOL0     C49719   5.994   6.403   4.043 -0.0164 -1.0130 -0.5766
  369MOL0     C49720   5.860   6.328   4.054  0.3417 -0.2076 -0.7126
  369MOL0     C49721   5.750   6.438   4.037 -0.0341  0.2971  0.1917
  369MOL0     C49722   5.621   6.377   4.072  0.0199  0.4264  0.4998
  369MOL0     C49723   5.506   6.488   4.074 -0.1048  0.5947  0.8485
  369MOL0     C49724   5.526   6.592   4.177  0.5175 -0.6740  1.0295
  369MOL0    Cl49725   5.387   6.694   4.210 -0.1350  0.2199 -0.0480
  369MOL0     C49726   6.525   6.355   4.035 -0.6826  0.3580  0.1118
  369MOL0     C49727   6.649   6.406   4.030 -1.1489  0.5200 -0.4548
  369MOL0     O49728   6.728   6.705   4.117  0.1061  1.0819  0.6885
  369MOL0     C49729   7.079   6.675   4.195 -0.2756  0.1361 -0.3270
  369MOL0     C49730   7.189   6.751   4.218  0.5311  0.5336 -0.0866
  369MOL0     N49731   7.751   7.354   4.181  0.3372 -0.0873  0.0042
  369MOL0     N49732   7.780   7.465   4.231 -0.0635 -0.6074 -0.0039
  369MOL0     C49733   8.619   7.899   4.127  0.3949 -0.2240  0.6019
  369MOL0     C49734   8.691   7.902   4.003  0.1120 -0.1126  0.0982
  369MOL0     C49735   9.071   7.949   3.712  0.3062  0.3598 -0.5429
  369MOL0     C49736   9.054   7.815   3.671 -0.7447 -0.2069 -0.0238
  369MOL0     C49737   9.119   7.769   3.553 -0.1059  0.4690  0.3750
  369MOL0     C49738   9.207   7.848   3.477  0.4940  0.5092 -0.2162
  369MOL0     O49739   9.282   7.792   3.374  0.4057  0.1300 -0.2818
  369MOL0     C49740   9.225   7.700   3.281 -0.1534  0.3062 -0.1697
  369MOL0     C49741   9.335   7.652   3.194  0.0144 -0.0910 -0.0242
  369MOL0     C49742   9.284   7.568   3.066 -0.1799 -0.2865  1.0350
  369MOL0     C49743   9.402   7.515   2.977  0.1490  0.1769 -0.3479
  369MOL0     C49744   9.345   7.443   2.861 -0.0136 -0.2970  1.1793
  369MOL0     C49745   9.317   7.378   2.764  0.4157  0.5377  0.7987
  369MOL0     C49746   9.234   7.969   3.530  0.9325 -1.0202 -0.1496
  369MOL0     C49747   9.171   8.024   3.645 -0.3996 -0.0656 -0.2827
  369MOL0     H49748   8.995   8.010   4.108  1.1924 -0.6845 -0.8642
  369MOL0     H49749   8.865   7.995   4.329  0.6617 -1.4362 -0.3684
  369MOL0     H49750   8.474   8.004   4.479 -1.8879  1.7294 -1.1736
  369MOL0     H49751   8.447   7.985   4.311  0.1750  3.0734  1.2604
  369MOL0     H49752   8.478   7.721   4.376 -0.4998 -0.4505 -0.9872
  369MOL0     H49753   8.477   7.782   4.537  0.6130 -0.1348 -0.0133
  369MOL0     H49754   8.238   7.884   4.506 -2.3854 -2.9570  1.1164
  369MOL0     H49755   8.249   7.834   4.336  0.6755 -1.1319 -0.6274
  369MOL0     H49756   8.261   7.608   4.380  2.0988 -2.8800  1.8228
  369MOL0     H49757   8.281   7.619   4.550  2.3550 -0.3542 -0.9431
  369MOL0     H49758   8.039   7.740   4.544 -2.4069 -1.1015 -0.5798
  369MOL0     H49759   8.049   7.714   4.373 -0.3605  0.6306 -0.3781
  369MOL0     H49760   8.006   7.465   4.422  0.2915 -3.3511  3.0042
  369MOL0     H49761   8.084   7.484   4.574  1.6864  0.6023 -1.2713
  369MOL0     H49762   7.851   7.431   4.589 -1.1863 -0.5039  0.5824
  369MOL0     H49763   7.870   7.597   4.651  1.5521 -1.5056 -0.1619
  369MOL0     H49764   7.816   7.656   4.390  1.3662 -1.4888 -1.7878
  369MOL0     H49765   7.683   7.613   4.506  2.6262  4.8475  2.9542
  369MOL0     H49766   7.669   7.298   4.485 -0.0941  0.7891  0.4301
  369MOL0     H49767   7.715   7.129   4.141 -1.6308 -0.3131 -0.4767
  369MOL0     H49768   7.783   7.067   4.288  2.0470  0.2174 -3.8732
  369MOL0     H49769   7.531   7.067   4.380 -2.0448 -3.6223 -0.3026
  369MOL0     H49770   7.585   6.962   4.246  1.2617  0.0105  0.2516
  369MOL0     H49771   7.470   7.084   4.088 -2.4987 -1.0840  0.2245
  369MOL0     H49772   7.449   7.237   4.175 -3.7552  0.1389 -0.1059
  369MOL0     H49773   7.241   7.128   4.178  1.2691 -0.0430 -1.1320
  369MOL0     H49774   7.318   7.130   4.349  6.1744  1.2773 -0.2138
  369MOL0     H49775   7.046   7.032   4.324 -0.2164  0.6231 -1.3952
  369MOL0     H49776   6.841   7.030   4.321  1.6825 -2.5340  2.5225
  369MOL0     H49777   6.780   6.957   4.175  1.2153  2.6335  0.0154
  369MOL0     H49778   6.752   6.878   4.337 -0.6534  0.5919  0.8017
  369MOL0     H49779   6.714   6.421   4.360 -0.2823  1.4600 -0.6706
  369MOL0     H49780   6.474   6.335   4.370  1.3313  2.1300  0.9884
  369MOL0     H49781   6.243   6.478   4.118  0.2013 -0.3177  0.7221
  369MOL0     H49782   6.284   6.369   3.976 -1.0928  2.2842  0.0650
  369MOL0     H49783   6.096   6.211   4.057 -3.1968  0.7060 -2.3513
  369MOL0     H49784   6.089   6.299   4.202  0.8519 -1.2152  0.2416
  369MOL0     H49785   6.015   6.436   3.940  3.4800 -0.4671  0.1963
  369MOL0     H49786   5.985   6.494   4.104 -2.4123 -0.8645 -1.0524
  369MOL0     H49787   5.851   6.256   3.972  1.4933  0.1936 -1.2107
  369MOL0     H49788   5.861   6.266   4.144  0.4225 -1.6859 -1.6867
  369MOL0     H49789   5.748   6.491   3.942 -1.0832  1.4730  0.8438
  369MOL0     H49790   5.770   6.520   4.107 -0.8177  0.5138  0.1673
  369MOL0     H49791   5.596   6.298   4.000  1.6545 -0.5821  0.9581
  369MOL0     H49792   5.632   6.326   4.169 -1.3248 -0.7128  0.0816
  369MOL0     H49793   5.404   6.449   4.065  0.2670 -0.2031 -0.1724
  369MOL0     H49794   5.526   6.539   3.979  4.4517 -0.6853  0.8826
  369MOL0     H49795   5.613   6.657   4.163 -0.3716  0.5502  1.0570
  369MOL0     H49796   5.538   6.552   4.278 -1.4854  0.0323  1.5786
  369MOL0     H49797   6.479   6.329   3.940  1.2686 -1.8268 -0.3393
  369MOL0     H49798   6.696   6.416   3.932 -1.1869  0.2772 -0.4997
  369MOL0     H49799   7.081   6.577   4.147 -1.2489  0.4260 -1.0098
  369MOL0     H49800   7.283   6.704   4.192  1.4388  3.1550 -1.8973
  369MOL0     H49801   8.513   7.874   4.128 -0.3114  2.4144  1.5590
  369MOL0     H49802   8.639   7.869   3.914 -2.8554 -0.6111  1.8783
  369MOL0     H49803   9.001   7.743   3.733  2.2011 -2.4418  0.1302
  369MOL0     H49804   9.091   7.670   3.517  0.2450  0.7501 -0.7318
  369MOL0     H49805   9.170   7.616   3.325 -0.5701  1.0182  0.7001
  369MOL0     H49806   9.144   7.752   3.228  0.4887  1.3872 -0.1258
  369MOL0     H49807   9.397   7.585   3.253 -1.2469 -1.5032 -0.2512
  369MOL0     H49808   9.398   7.734   3.158 -1.3308  1.7255  1.5307
  369MOL0     H49809   9.202   7.619   3.014 -0.6748 -1.8171  0.2670
  369MOL0     H49810   9.238   7.477   3.104  0.1224 -1.7266 -1.7459
  369MOL0     H49811   9.455   7.443   3.039 -0.1404  0.8009  0.6444
  369MOL0     H49812   9.466   7.593   2.934  0.6122  0.1777  0.3417
  369MOL0     H49813   9.271   7.331   2.679 -0.7120  1.5371  0.8304
  369MOL0     H49814   9.307   8.030   3.476  0.0478  1.7629  1.5678
  369MOL0     H49815   9.200   8.122   3.682 -2.6746  0.9644 -0.9901
  370MOL0     O49816   2.280   3.126   9.984  1.6201 -0.6483 -0.7464
  370MOL0     C49817   2.328   3.191  10.081 -0.0239  0.1422  0.8404
  370MOL0     O49818   2.254   3.254  10.175  0.7600 -0.1382  0.6526
  370MOL0     C49819   2.111   3.249  10.168 -0.2812  0.2547  0.5451
  370MOL0     C49820   2.035   3.131  10.179 -1.0086  0.2716 -0.0661
  370MOL0     C49821   1.899   3.129  10.158  0.1531 -0.3716  0.1134
  370MOL0     C49822   1.832   3.251  10.118  0.2453  0.0267  0.4733
  370MOL0     O49823   1.697   3.257  10.100  0.0051  0.2625 -1.0298
  370MOL0     C49824   1.613   3.157  10.172  0.6137 -0.0112 -0.1161
  370MOL0     C49825   1.474   3.207  10.208 -0.5255  0.7358  0.5107
  370MOL0     C49826   1.386   3.232  10.081  0.2011 -0.2734 -0.3872
  370MOL0     C49827   1.259   3.299  10.133  0.2174  0.4241 -0.7478
  370MOL0     C49828   1.153   3.198  10.179 -0.9122 -0.6014  0.3093
  370MOL0     C49829   1.031   3.271  10.240  0.2254 -0.5584 -0.7852
  370MOL0     C49830   0.937   3.312  10.126 -0.9887  0.2707 -0.9389
  370MOL0     C49831   0.866   3.447  10.154  0.0535 -0.3581 -0.3523
  370MOL0     N49832   0.777   3.448  10.273 -0.5234  0.9699  0.7747
  370MOL0     C49833   0.776   3.538  10.370  0.8424  0.0396  0.3409
  370MOL0     C49834   0.688   3.494  10.458  0.2184 -0.8236  1.3646
  370MOL0     C49835   0.653   3.556  10.590 -0.1361 -0.6128 -0.0140
  370MOL0     C49836   0.728   3.692  10.620  0.2275  0.4540  0.0224
  370MOL0     C49837   0.652   3.817  10.568 -0.4796  0.2512 -0.1479
  370MOL0     C49838   0.503   3.826  10.556 -0.4322 -0.3421 -0.1365
  370MOL0     O49839   0.462   3.756  10.444  0.6344  0.9300 -0.4340
  370MOL0     C49840   0.334   3.704  10.444 -0.2783  0.1034 -0.0631
  370MOL0     C49841   0.336   3.583  10.368  0.1133  0.2066  0.3603
  370MOL0     C49842   0.213   3.516  10.341 -0.8287 -0.8346 -0.2728
  370MOL0     C49843   0.242   3.390  10.259  0.7762  0.5057  0.1138
  370MOL0     C49844   0.089   3.573  10.391 -0.3497  0.5022 -0.7801
  370MOL0     C49845  -0.045   3.510  10.384 -0.1967  1.1489  1.0966
  370MOL0     O49846  -0.148   3.569  10.444 -0.2102  0.1434  0.5356
  370MOL0     C49847  -0.278   3.521  10.445 -1.1408 -0.2703 -0.1588
  370MOL0     C49848  -0.380   3.610  10.440 -0.0473 -0.7676 -0.0919
  370MOL0     C49849  -0.511   3.558  10.439  0.2278  0.7382 -0.9313
  370MOL0     C49850  -0.543   3.428  10.463 -0.5446 -0.7531  0.3496
  370MOL0     O49851  -0.677   3.404  10.484 -0.4909  0.5536  0.1252
  370MOL0     C49852  -0.735   3.267  10.472  0.7118 -0.9140  0.2257
  370MOL0     C49853  -0.794   3.222  10.611  0.4651  0.1160 -0.1572
  370MOL0     C49854  -0.671   3.185  10.705 -0.3804  0.9306 -1.0047
  370MOL0     C49855  -0.609   3.056  10.671  0.2560  0.0528  0.6821
  370MOL0     C49856  -0.512   3.016  10.779 -0.2819  0.0159  0.7892
  370MOL0     C49857  -0.431   2.885  10.745 -0.3545 -0.0528  0.4056
  370MOL0     C49858  -0.332   2.835  10.852  0.0773 -0.0894  0.6995
  370MOL0     C49859  -0.226   2.944  10.898  0.2371  0.6718  0.3223
  370MOL0    Cl49860  -0.135   2.868  11.030  0.2020 -0.2830  0.1745
  370MOL0     C49861  -0.435   3.338  10.477 -0.3221  0.6803  0.6478
  370MOL0     C49862  -0.305   3.385  10.463  0.1238  0.1356 -0.2551
  370MOL0     O49863  -0.057   3.412  10.308 -0.4569  0.1628 -0.0385
  370MOL0     C49864   0.093   3.703  10.453 -0.3144  0.1849 -0.0130
  370MOL0     C49865   0.220   3.762  10.485 -0.8475  0.0125  0.0015
  370MOL0     N49866   0.624   3.384  10.409 -0.4628  0.3947 -0.4624
  370MOL0     N49867   0.673   3.359  10.293  0.5608 -0.6529  0.1717
  370MOL0     C49868   1.906   3.366  10.094 -0.0457 -0.1212 -1.3722
  370MOL0     C49869   2.043   3.365  10.120 -0.6100 -0.3766  0.8909
  370MOL0     C49870   2.477   3.202  10.084  0.0161 -0.3149  0.3241
  370MOL0     C49871   2.555   3.220  10.196  0.5214 -0.1794 -0.2838
  370MOL0     C49872   2.693   3.234  10.186  0.2146 -0.1041  0.3793
  370MOL0     C49873   2.763   3.208  10.068  0.3126 -0.5999  0.2471
  370MOL0     O49874   2.895   3.214  10.060  0.0690 -0.2769 -0.4574
  370MOL0     C49875   2.961   3.159   9.947 -0.0107 -0.3782 -0.5653
  370MOL0     C49876   3.113   3.162   9.971  0.7502 -0.1226 -0.6511
  370MOL0     C49877   3.185   3.148   9.834 -0.0113  0.1551  0.0825
  370MOL0     C49878   3.339   3.129   9.847  0.1789 -0.7668  0.0158
  370MOL0     C49879   3.421   3.126   9.728  0.7569 -0.4208  0.7154
  370MOL0     C49880   3.505   3.121   9.642  0.6538 -0.1064  0.9465
  370MOL0     C49881   2.682   3.175   9.957  0.0503 -0.9023  0.1981
  370MOL0     C49882   2.548   3.177   9.962  0.2832 -0.0999 -0.3867
  370MOL0     H49883   2.075   3.036  10.214  0.6083  1.3066  1.0805
  370MOL0     H49884   1.845   3.038  10.183  1.5568 -0.6903  2.3195
  370MOL0     H49885   1.599   3.073  10.104  0.8659 -2.5406  2.7387
  370MOL0     H49886   1.670   3.128  10.261 -0.6565 -0.7981  0.4679
  370MOL0     H49887   1.430   3.131  10.274 -2.1480  1.2415  0.0661
  370MOL0     H49888   1.482   3.298  10.267 -0.1497 -0.7569  2.9136
  370MOL0     H49889   1.436   3.302  10.014 -0.5596  1.3007  0.6037
  370MOL0     H49890   1.364   3.140  10.026  1.6461  1.0773 -3.4658
  370MOL0     H49891   1.285   3.360  10.221  0.9659  0.2631 -0.8502
  370MOL0     H49892   1.211   3.358  10.054 -1.8016 -0.6729 -0.3970
  370MOL0     H49893   1.112   3.135  10.100 -1.6258  0.1763  0.0391
  370MOL0     H49894   1.198   3.118  10.238  1.3453 -1.3225 -2.1849
  370MOL0     H49895   0.984   3.195  10.303  2.0346 -2.1604 -1.3053
  370MOL0     H49896   1.069   3.354  10.300 -1.9732  0.0664 -0.1385
  370MOL0     H49897   1.009   3.323  10.044  1.1496  0.5993  0.8759
  370MOL0     H49898   0.866   3.232  10.102 -0.5571 -1.8354  3.7135
  370MOL0     H49899   0.796   3.476  10.074  0.3408 -1.5716 -1.0607
  370MOL0     H49900   0.942   3.524  10.166 -1.1283  0.5268  2.2044
  370MOL0     H49901   0.852   3.616  10.371  3.4493 -2.2815 -1.8108
  370MOL0     H49902   0.544   3.565  10.596  0.1199  3.0366  2.5364
  370MOL0     H49903   0.670   3.486  10.673 -2.1885 -0.1076  0.8909
  370MOL0     H49904   0.832   3.683  10.590  0.6709  2.6303  0.7529
  370MOL0     H49905   0.740   3.704  10.728  1.5510  0.1386 -0.0737
  370MOL0     H49906   0.695   3.842  10.471 -0.8365 -1.7695 -0.8763
  370MOL0     H49907   0.688   3.899  10.631 -0.3303 -0.9710  1.4346
  370MOL0     H49908   0.484   3.932  10.539  1.0841 -0.2205 -1.2364
  370MOL0     H49909   0.444   3.796  10.644 -1.5608 -0.1450 -0.8010
  370MOL0     H49910   0.424   3.546  10.317 -0.1784  1.0853 -0.8406
  370MOL0     H49911   0.188   3.400  10.164  1.6311 -0.1192 -0.4548
  370MOL0     H49912   0.347   3.377  10.231  0.4453  0.1554 -1.0213
  370MOL0     H49913   0.212   3.299  10.312 -0.8469  1.6375  1.2319
  370MOL0     H49914  -0.360   3.715  10.421  1.5529 -0.9264  0.5968
  370MOL0     H49915  -0.592   3.621  10.402 -0.6449 -0.6703 -1.5022
  370MOL0     H49916  -0.813   3.279  10.397  0.0391  0.5454  1.1111
  370MOL0     H49917  -0.663   3.196  10.429 -0.1187 -1.7139  0.1057
  370MOL0     H49918  -0.846   3.308  10.654  0.7904 -0.2288  0.9453
  370MOL0     H49919  -0.866   3.140  10.611 -0.9322  1.3054  0.1319
  370MOL0     H49920  -0.706   3.167  10.807  0.6033 -2.7630 -1.1792
  370MOL0     H49921  -0.600   3.269  10.707  0.8858 -0.0789 -1.8694
  370MOL0     H49922  -0.688   2.980  10.666  0.5593 -0.2701  0.8787
  370MOL0     H49923  -0.563   3.061  10.572  3.7906  4.0161  2.2096
  370MOL0     H49924  -0.572   2.993  10.868 -2.2529 -1.5177 -0.8460
  370MOL0     H49925  -0.441   3.098  10.791 -0.8639  1.1868 -2.6098
  370MOL0     H49926  -0.498   2.799  10.734 -0.3324  0.0228 -0.3084
  370MOL0     H49927  -0.386   2.892  10.646 -1.1534  0.0069  0.0384
  370MOL0     H49928  -0.272   2.755  10.808  1.3872  0.7469  0.8937
  370MOL0     H49929  -0.381   2.779  10.932 -0.3133 -0.6987  0.0360
  370MOL0     H49930  -0.266   3.041  10.929 -2.5213  0.2494 -1.6165
  370MOL0     H49931  -0.153   2.961  10.818  1.3719  0.6565  1.3124
  370MOL0     H49932  -0.457   3.234  10.501 -0.4389  0.7041  0.6425
  370MOL0     H49933  -0.226   3.311  10.464 -1.4996 -1.6695 -0.1120
  370MOL0     H49934   0.002   3.756  10.475 -1.7007 -1.2063 -2.0461
  370MOL0     H49935   0.219   3.852  10.547 -0.5684 -0.9911  1.5167
  370MOL0     H49936   1.860   3.453  10.049 -1.2665 -1.1003 -2.1135
  370MOL0     H49937   2.107   3.449  10.097  1.4502 -1.5411  2.0576
  370MOL0     H49938   2.508   3.228  10.293 -1.8160  1.0255 -1.4263
  370MOL0     H49939   2.746   3.252  10.279 -1.0421  3.5059  0.5393
  370MOL0     H49940   2.927   3.059   9.921  0.0316 -0.4451 -0.3675
  370MOL0     H49941   2.938   3.218   9.858 -1.1674  1.6678  0.9962
  370MOL0     H49942   3.150   3.087  10.042  1.0097  0.6691  0.0758
  370MOL0     H49943   3.141   3.261  10.010 -0.9524 -0.4063  1.5388
  370MOL0     H49944   3.151   3.218   9.757 -2.3179 -1.4743 -0.5008
  370MOL0     H49945   3.152   3.053   9.791  1.7703  0.0179 -1.1099
  370MOL0     H49946   3.353   3.028   9.888 -0.2264 -0.7839  0.1151
  370MOL0     H49947   3.371   3.209   9.915 -2.9784  1.4553 -0.9208
  370MOL0     H49948   3.583   3.123   9.569  1.4932 -2.2766  1.6996
  370MOL0     H49949   2.729   3.166   9.860 -0.9098  0.7627 -0.4760
  370MOL0     H49950   2.495   3.137   9.877  3.1537 -4.5641 -0.3799
  371MOL0     O49951   7.195   0.476  10.168  0.4882  0.3937 -0.8198
  371MOL0     C49952   7.173   0.562  10.257 -0.8028  0.3224  0.2312
  371MOL0     O49953   7.048   0.599  10.317  0.4679 -0.2668  0.0125
  371MOL0     C49954   6.939   0.522  10.289  0.1071 -0.2959 -0.5194
  371MOL0     C49955   6.886   0.510  10.160 -0.1988  0.2625 -0.8300
  371MOL0     C49956   6.783   0.410  10.132  0.2650 -0.3707  0.5905
  371MOL0     C49957   6.713   0.350  10.230 -0.5784  0.2852 -0.1278
  371MOL0     O49958   6.607   0.280  10.190  0.3011  0.5204 -0.4722
  371MOL0     C49959   6.494   0.265  10.276  0.4221  0.5767 -0.3132
  371MOL0     C49960   6.400   0.158  10.217 -1.0554 -0.1670  0.3432
  371MOL0     C49961   6.336   0.200  10.079  0.2395 -0.9127  0.1207
  371MOL0     C49962   6.410   0.133   9.958  0.5570 -0.1977 -0.3798
  371MOL0     C49963   6.310   0.068   9.861  0.3846  0.5691 -0.0535
  371MOL0     C49964   6.213  -0.028   9.934 -0.0989  0.1413 -0.1093
  371MOL0     C49965   6.277  -0.153  10.000 -0.3726 -0.4099 -0.3487
  371MOL0     C49966   6.177  -0.273   9.990 -0.3915 -0.0366 -1.1168
  371MOL0     N49967   6.126  -0.309  10.130 -0.2076 -0.0516  0.5997
  371MOL0     C49968   6.187  -0.397  10.210 -0.2160 -2.0332  0.1272
  371MOL0     C49969   6.118  -0.404  10.330  0.5301 -0.5024 -0.4703
  371MOL0     C49970   6.181  -0.478  10.449  1.5060  0.0168  0.0309
  371MOL0     C49971   6.078  -0.539  10.551  0.7674  0.5210 -0.2329
  371MOL0     C49972   5.974  -0.626  10.476 -0.4560  0.1749 -0.2521
  371MOL0     C49973   5.887  -0.698  10.573 -0.5269  0.0799 -0.2282
  371MOL0     O49974   5.791  -0.608  10.625 -0.8669 -0.2356 -0.8038
  371MOL0     C49975   5.663  -0.665  10.643  0.1493 -0.0900  0.3347
  371MOL0     C49976   5.645  -0.791  10.702  0.5659  0.7896 -0.1228
  371MOL0     C49977   5.516  -0.843  10.727 -0.2859  0.0327  0.2642
  371MOL0     C49978   5.519  -0.984  10.790  0.0674 -0.0833 -0.1809
  371MOL0     C49979   5.406  -0.770  10.694  0.7289 -0.0628 -0.3364
  371MOL0     C49980   5.271  -0.814  10.724 -0.2951  0.8410 -0.5176
  371MOL0     O49981   5.241  -0.807  10.849  0.1024 -0.0632 -0.6370
  371MOL0     C49982   5.104  -0.815  10.891 -0.4181 -0.0509 -0.2360
  371MOL0     C49983   5.005  -0.734  10.833  0.2103  0.4874  0.1707
  371MOL0     C49984   4.875  -0.735  10.882  0.9606  0.2753 -0.4132
  371MOL0     C49985   4.837  -0.827  10.983 -0.7664 -0.5081 -0.0635
  371MOL0     O49986   4.709  -0.843  11.027  0.0983  0.1396  0.2628
  371MOL0     C49987   4.606  -0.757  10.970 -0.1313 -0.4489  0.1908
  371MOL0     C49988   4.476  -0.796  11.031  1.0780  0.8120  0.2300
  371MOL0     C49989   4.350  -0.727  10.970  0.2807 -0.3999 -0.3045
  371MOL0     C49990   4.354  -0.576  10.983  0.1830  0.8478 -0.3776
  371MOL0     C49991   4.383  -0.510  10.841  0.4027 -0.0947 -0.1230
  371MOL0     C49992   4.355  -0.355  10.857 -0.4256  0.2879 -0.0598
  371MOL0     C49993   4.358  -0.277  10.719 -0.1593 -0.2820 -0.8030
  371MOL0     C49994   4.470  -0.330  10.620  1.2787  0.5579 -0.1946
  371MOL0    Cl49995   4.633  -0.270  10.652 -0.5288  0.0092  0.4072
  371MOL0     C49996   4.932  -0.912  11.035  1.1758  0.5727  0.6090
  371MOL0     C49997   5.067  -0.896  10.999 -0.4502  0.9227  0.6048
  371MOL0     O49998   5.191  -0.818  10.627 -0.3780  0.3733 -0.5341
  371MOL0     C49999   5.424  -0.645  10.635  1.1261  0.4942  0.5564
  371MOL0     C50000   5.551  -0.590  10.609  1.0604  0.4993  0.2897
  371MOL0     N50001   6.019  -0.310  10.314  0.2648 -0.0625 -0.0734
  371MOL0     N50002   6.013  -0.262  10.192  0.2815 -0.6528 -0.6282
  371MOL0     C50003   6.765   0.363  10.357 -0.2472 -0.1154  0.1666
  371MOL0     C50004   6.878   0.446  10.391  0.8526 -0.4228  0.8679
  371MOL0     C50005   7.300   0.629  10.307  0.1525  0.6839 -0.3530
  371MOL0     C50006   7.421   0.636  10.223  0.1229  0.7399 -0.6745
  371MOL0     C50007   7.535   0.699  10.266 -0.2214 -0.2694 -0.0487
  371MOL0     C50008   7.533   0.764  10.390  0.2949  0.1661 -0.8475
  371MOL0     O50009   7.647   0.811  10.448  0.0020  0.7618  0.1992
  371MOL0     C50010   7.685   0.941  10.400 -0.3928 -0.0641  0.3670
  371MOL0     C50011   7.637   1.043  10.497  0.1479  1.1185 -0.1667
  371MOL0     C50012   7.492   1.092  10.463 -0.4010 -0.4840  0.0451
  371MOL0     C50013   7.478   1.168  10.329  0.1372 -0.1129 -0.5823
  371MOL0     C50014   7.533   1.306  10.345 -0.1526  0.0082 -0.2252
  371MOL0     C50015   7.568   1.424  10.362 -0.8225  0.0769 -0.0773
  371MOL0     C50016   7.422   0.753  10.469 -0.0665  0.6122 -0.9047
  371MOL0     C50017   7.303   0.684  10.434 -0.0546  0.2811  0.0946
  371MOL0     H50018   6.924   0.579  10.087  3.0420  1.5837  1.8335
  371MOL0     H50019   6.760   0.397  10.027  0.4345 -0.8373  0.6070
  371MOL0     H50020   6.524   0.238  10.378  2.7387  0.4071 -0.9810
  371MOL0     H50021   6.440   0.360  10.285 -1.1694 -0.0327 -2.6133
  371MOL0     H50022   6.454   0.064  10.208 -1.3210 -0.2387 -0.5914
  371MOL0     H50023   6.325   0.142  10.296  1.5688  0.4689  3.1460
  371MOL0     H50024   6.231   0.174  10.095 -0.0460 -0.1035 -0.3602
  371MOL0     H50025   6.338   0.309  10.072 -0.2012 -0.9973 -1.9162
  371MOL0     H50026   6.455   0.215   9.901 -1.8398  0.5343 -1.3451
  371MOL0     H50027   6.481   0.055   9.987 -1.5837 -2.2915 -0.5213
  371MOL0     H50028   6.255   0.149   9.811  0.2557 -0.5122 -1.7447
  371MOL0     H50029   6.364   0.017   9.781  2.0514  2.0032  0.0902
  371MOL0     H50030   6.152   0.022  10.010  0.8999 -0.0278  0.8223
  371MOL0     H50031   6.139  -0.059   9.859  0.8283 -2.8943  0.1119
  371MOL0     H50032   6.373  -0.175   9.952  1.6403 -1.3647  3.7197
  371MOL0     H50033   6.300  -0.121  10.102  1.1126 -0.1006 -0.7632
  371MOL0     H50034   6.224  -0.357   9.938  1.6878  0.5333 -0.2332
  371MOL0     H50035   6.097  -0.238   9.925 -1.0630 -1.6035 -1.1881
  371MOL0     H50036   6.282  -0.444  10.188  0.1689 -0.9198 -0.6972
  371MOL0     H50037   6.265  -0.547  10.439  2.0012  0.0548  2.9626
  371MOL0     H50038   6.227  -0.396  10.505  1.1406 -1.0450  1.9945
  371MOL0     H50039   6.026  -0.455  10.599 -2.1459  0.7792 -3.4342
  371MOL0     H50040   6.135  -0.589  10.629 -0.8139  2.8658  2.6641
  371MOL0     H50041   6.026  -0.695  10.410 -2.5945  1.4173 -3.4605
  371MOL0     H50042   5.913  -0.561  10.412  2.3560  2.2188 -1.0574
  371MOL0     H50043   5.945  -0.740  10.655 -0.1856  1.5486  0.3195
  371MOL0     H50044   5.856  -0.788  10.519 -0.0504  0.9475 -2.0538
  371MOL0     H50045   5.733  -0.847  10.733  0.6502  1.5629  1.0685
  371MOL0     H50046   5.416  -1.020  10.799  0.6675 -1.7766  0.3438
  371MOL0     H50047   5.574  -1.052  10.724 -1.2894  0.6259 -2.1360
  371MOL0     H50048   5.566  -0.977  10.888  0.8609  2.1835 -0.6508
  371MOL0     H50049   5.026  -0.663  10.753  0.3714  1.9826  1.5048
  371MOL0     H50050   4.806  -0.663  10.840 -2.0153 -2.2155 -0.1354
  371MOL0     H50051   4.632  -0.652  10.989 -1.0758  0.1146 -1.4296
  371MOL0     H50052   4.596  -0.775  10.863 -1.5540 -0.4453  0.3036
  371MOL0     H50053   4.454  -0.902  11.020 -1.5700  1.2465  0.6167
  371MOL0     H50054   4.472  -0.760  11.135  1.4294  2.0749 -0.1709
  371MOL0     H50055   4.261  -0.761  11.024 -0.5715  2.4550  0.2306
  371MOL0     H50056   4.338  -0.769  10.869  0.7043 -1.5152  0.0871
  371MOL0     H50057   4.254  -0.550  11.017  0.3801 -0.3635  1.2466
  371MOL0     H50058   4.426  -0.551  11.061  0.2145 -0.0640 -0.0955
  371MOL0     H50059   4.325  -0.562  10.765  1.5175  0.5210 -1.4287
  371MOL0     H50060   4.486  -0.524  10.809  0.3415 -2.1503  0.4102
  371MOL0     H50061   4.262  -0.337  10.911 -0.8636 -1.7365 -0.0590
  371MOL0     H50062   4.435  -0.320  10.923 -2.1819  0.6399  1.9953
  371MOL0     H50063   4.380  -0.172  10.740  1.2621 -0.7504  0.2501
  371MOL0     H50064   4.261  -0.291  10.670 -0.3994  1.9170 -1.0237
  371MOL0     H50065   4.441  -0.313  10.516  0.7691  3.3729  0.3310
  371MOL0     H50066   4.476  -0.439  10.632  1.0268  0.5658  0.0194
  371MOL0     H50067   4.904  -0.987  11.108  0.0506 -1.5462 -1.8459
  371MOL0     H50068   5.142  -0.956  11.048 -3.3853 -1.8685  2.0694
  371MOL0     H50069   5.338  -0.583  10.611 -0.0118 -1.6767 -1.2543
  371MOL0     H50070   5.540  -0.492  10.563 -1.1189 -0.2353 -0.9096
  371MOL0     H50071   6.715   0.309  10.436  1.3027  1.0828  2.0476
  371MOL0     H50072   6.923   0.434  10.489  0.6126 -0.7917  0.9357
  371MOL0     H50073   7.416   0.612  10.117  0.5739  3.1522 -1.2944
  371MOL0     H50074   7.623   0.717  10.206  0.3910 -0.2009  0.8532
  371MOL0     H50075   7.793   0.954  10.406 -0.4166 -0.2930  1.6288
  371MOL0     H50076   7.649   0.969  10.301  0.6537  1.0389  0.2730
  371MOL0     H50077   7.704   1.130  10.498  1.5561  0.1077 -1.9819
  371MOL0     H50078   7.627   0.999  10.597  2.4937  0.6237 -0.1010
  371MOL0     H50079   7.460   1.156  10.545  2.1283  0.6912  0.2094
  371MOL0     H50080   7.414   1.016  10.463 -0.6761 -0.2026  0.2479
  371MOL0     H50081   7.371   1.173  10.306 -0.3359 -3.6463  0.2059
  371MOL0     H50082   7.513   1.120  10.237 -3.1941 -1.2142 -1.4078
  371MOL0     H50083   7.601   1.521  10.391 -0.0559  0.0740 -0.8903
  371MOL0     H50084   7.420   0.798  10.568  0.5663 -0.3508 -0.4385
  371MOL0     H50085   7.219   0.690  10.503  0.9325  1.9824  1.2256
  372MOL0     O50086   5.888   6.282  10.181  0.4503 -0.3253  0.2077
  372MOL0     C50087   5.813   6.188  10.178  0.2724  0.8477  0.4974
  372MOL0     O50088   5.675   6.209  10.187 -0.5685  0.5134 -0.2025
  372MOL0     C50089   5.607   6.318  10.207 -0.0130 -0.3879 -0.1708
  372MOL0     C50090   5.648   6.458  10.215 -0.2894  0.2573 -0.1976
  372MOL0     C50091   5.558   6.564  10.237  0.1621 -0.6223  0.4426
  372MOL0     C50092   5.424   6.535  10.255  0.0015 -0.2382  0.0342
  372MOL0     O50093   5.339   6.644  10.271 -0.5306  0.8668  0.1040
  372MOL0     C50094   5.200   6.636  10.253 -0.1385 -0.2001  0.1827
  372MOL0     C50095   5.134   6.771  10.294 -0.1947 -0.4645  0.0544
  372MOL0     C50096   5.151   6.793  10.440  0.7257  0.0897  0.2306
  372MOL0     C50097   5.046   6.710  10.517  0.2411  0.0388 -0.6060
  372MOL0     C50098   5.074   6.721  10.665  0.6036  0.0779 -0.4064
  372MOL0     C50099   4.985   6.622  10.739 -0.1584  0.8653  0.2601
  372MOL0     C50100   4.839   6.648  10.712  0.3130  0.9038 -0.0064
  372MOL0     C50101   4.761   6.551  10.797  0.3515  0.0286 -0.0211
  372MOL0     N50102   4.615   6.561  10.768  0.6105  0.0825  0.2397
  372MOL0     C50103   4.561   6.573  10.648  0.5624  0.0111 -0.0859
  372MOL0     C50104   4.431   6.615  10.664 -0.0378  0.2925 -0.0419
  372MOL0     C50105   4.330   6.658  10.556  0.1594 -0.1784  0.1842
  372MOL0     C50106   4.186   6.645  10.588  0.0523  0.9509  0.0322
  372MOL0     C50107   4.096   6.702  10.484 -0.3154  0.5887  0.4031
  372MOL0     C50108   3.947   6.664  10.506  0.5484  0.0943 -0.3917
  372MOL0     O50109   3.908   6.680  10.648  0.1334 -0.0486  0.4710
  372MOL0     C50110   3.774   6.713  10.669 -1.0396 -0.3433 -0.3037
  372MOL0     C50111   3.755   6.795  10.772 -0.4464 -0.3346  0.0395
  372MOL0     C50112   3.632   6.845  10.813 -0.8144  0.8385  0.6363
  372MOL0     C50113   3.623   6.921  10.945  0.1650 -0.4023  0.1668
  372MOL0     C50114   3.520   6.816  10.734 -0.4918  0.4356  0.2534
  372MOL0     C50115   3.387   6.873  10.757  0.3713  0.5849 -0.5486
  372MOL0     O50116   3.281   6.813  10.685 -0.1738  0.3747 -0.0870
  372MOL0     C50117   3.151   6.851  10.704  0.1461 -0.7713  0.0953
  372MOL0     C50118   3.114   6.989  10.698  0.5868 -0.2783  0.4297
  372MOL0     C50119   2.981   7.032  10.725 -0.2248 -0.2927 -0.4346
  372MOL0     C50120   2.890   6.934  10.768 -0.6870  0.0951  0.0304
  372MOL0     O50121   2.766   6.954  10.798  0.6792  0.6304  0.4506
  372MOL0     C50122   2.733   7.077  10.856  0.8516 -0.6510 -0.3596
  372MOL0     C50123   2.587   7.068  10.925 -0.3812  0.0415  0.7061
  372MOL0     C50124   2.547   7.207  10.973  0.1714 -0.5744  0.4524
  372MOL0     C50125   2.469   7.279  10.866 -0.6768 -0.5512  0.0412
  372MOL0     C50126   2.431   7.404  10.942 -0.2724 -0.6794 -1.1548
  372MOL0     C50127   2.334   7.492  10.857 -0.2592 -0.5757  0.6788
  372MOL0     C50128   2.290   7.618  10.945  0.3039  1.0982 -0.1120
  372MOL0     C50129   2.174   7.685  10.881  0.1990 -0.2753 -0.1021
  372MOL0    Cl50130   2.108   7.807  10.994 -0.0326  0.4067  0.1156
  372MOL0     C50131   2.928   6.802  10.765  0.3277 -0.3122  0.5190
  372MOL0     C50132   3.057   6.763  10.744 -0.0071  0.0169  0.4148
  372MOL0     O50133   3.382   6.974  10.827 -0.1861 -0.2638 -0.2806
  372MOL0     C50134   3.535   6.730  10.623 -0.3592 -0.2960  0.0630
  372MOL0     C50135   3.666   6.688  10.583  0.9317 -0.1294  0.1170
  372MOL0     N50136   4.421   6.634  10.805 -0.6769  0.0110  0.3728
  372MOL0     N50137   4.529   6.596  10.864  0.6544 -0.4777 -0.4749
  372MOL0     C50138   5.385   6.399  10.274  0.9612  0.1650  0.8157
  372MOL0     C50139   5.478   6.297  10.246  1.1405 -0.1581  0.8337
  372MOL0     C50140   5.869   6.042  10.185 -0.4098 -0.2924 -0.1813
  372MOL0     C50141   6.005   6.024  10.147 -0.0880  1.2412 -0.3028
  372MOL0     C50142   6.057   5.892  10.171  0.1282 -0.1220  0.1158
  372MOL0     C50143   5.991   5.790  10.229 -0.0890  1.1555  0.9230
  372MOL0     O50144   6.056   5.664  10.247 -0.0348 -0.0601 -0.2193
  372MOL0     C50145   5.979   5.556  10.304  0.5917  0.3578  0.1860
  372MOL0     C50146   6.055   5.426  10.317  1.2076 -0.0762  0.8183
  372MOL0     C50147   6.171   5.432  10.418  0.2774 -0.1757 -0.7722
  372MOL0     C50148   6.219   5.287  10.460 -0.0870 -0.0731  0.6105
  372MOL0     C50149   6.351   5.304  10.520 -0.5662 -0.2788  0.0159
  372MOL0     C50150   6.460   5.321  10.571 -0.1477  0.3550 -0.5883
  372MOL0     C50151   5.858   5.810  10.264  0.3700  1.0741 -0.6025
  372MOL0     C50152   5.800   5.933  10.239 -0.1073  0.3480  0.3168
  372MOL0     H50153   5.748   6.490  10.190 -0.1670 -0.7555 -1.0941
  372MOL0     H50154   5.586   6.669  10.235  0.9106 -0.8198 -0.5713
  372MOL0     H50155   5.177   6.621  10.147 -1.5187 -0.5195  0.5018
  372MOL0     H50156   5.145   6.561  10.311  0.7677  0.2484  1.6877
  372MOL0     H50157   5.197   6.841  10.238  0.4811 -1.4420 -0.4336
  372MOL0     H50158   5.031   6.765  10.258 -0.3936  1.4396  0.2000
  372MOL0     H50159   5.250   6.764  10.477  1.6469  1.7513 -0.7824
  372MOL0     H50160   5.145   6.900  10.460 -1.3371 -0.2803  1.8694
  372MOL0     H50161   4.950   6.759  10.499  0.2056  0.3921  0.4627
  372MOL0     H50162   5.040   6.603  10.493  1.5250 -0.0722 -0.5281
  372MOL0     H50163   5.180   6.698  10.684  0.6832 -0.0764 -1.0452
  372MOL0     H50164   5.056   6.825  10.695 -0.6860 -0.1390 -0.3742
  372MOL0     H50165   5.008   6.521  10.705 -2.4206  0.0906  0.8513
  372MOL0     H50166   5.012   6.639  10.843 -1.0557 -0.4342  0.7201
  372MOL0     H50167   4.805   6.746  10.749 -2.3041 -0.4347  1.4000
  372MOL0     H50168   4.812   6.639  10.607  1.6698  0.8116 -0.3729
  372MOL0     H50169   4.778   6.558  10.905 -3.2419  0.2624  0.6603
  372MOL0     H50170   4.795   6.452  10.767 -2.7785 -0.9594 -0.7733
  372MOL0     H50171   4.610   6.565  10.552  2.6292  2.1226  0.7043
  372MOL0     H50172   4.353   6.763  10.535 -1.5693 -0.1015 -1.5713
  372MOL0     H50173   4.345   6.602  10.464  0.0911 -0.6908  0.4783
  372MOL0     H50174   4.164   6.692  10.684 -0.6742 -0.2598  0.4763
  372MOL0     H50175   4.163   6.538  10.592  0.1844  0.9335  0.2986
  372MOL0     H50176   4.138   6.679  10.386  2.0327 -0.9199  1.6857
  372MOL0     H50177   4.106   6.811  10.496  1.2986  0.6625 -1.2117
  372MOL0     H50178   3.940   6.557  10.485  0.9546 -0.2707  1.2131
  372MOL0     H50179   3.885   6.726  10.441  1.9199  3.3393  1.1508
  372MOL0     H50180   3.843   6.824  10.829  0.2571  2.3277 -2.1475
  372MOL0     H50181   3.532   6.896  11.000 -1.2423  1.5004 -1.1847
  372MOL0     H50182   3.707   6.901  11.012  1.3265  0.1341 -1.0846
  372MOL0     H50183   3.635   7.029  10.928 -1.4534 -0.1674  0.3902
  372MOL0     H50184   3.188   7.062  10.669 -1.4076  1.2044 -1.2651
  372MOL0     H50185   2.957   7.137  10.727  1.2330  0.2140  4.7446
  372MOL0     H50186   2.807   7.114  10.927  2.1440  0.1224 -2.0424
  372MOL0     H50187   2.724   7.150  10.775  1.1070 -0.4580 -0.2153
  372MOL0     H50188   2.501   7.033  10.869  1.3725 -0.2539 -1.9603
  372MOL0     H50189   2.594   7.003  11.013  0.5351 -2.1037 -0.8642
  372MOL0     H50190   2.636   7.268  10.996  0.4467 -0.7010 -0.2704
  372MOL0     H50191   2.483   7.202  11.062  0.1619 -0.7325  0.4370
  372MOL0     H50192   2.535   7.306  10.784 -0.2915  4.4145  1.6849
  372MOL0     H50193   2.381   7.228  10.824 -2.2865  1.7475  0.4532
  372MOL0     H50194   2.519   7.465  10.966 -1.2722  0.0529  0.8498
  372MOL0     H50195   2.378   7.379  11.035  0.2375  1.1216 -0.3289
  372MOL0     H50196   2.381   7.535  10.768 -2.1579  0.8588  0.2990
  372MOL0     H50197   2.249   7.425  10.841 -1.4424 -0.3265  4.8961
  372MOL0     H50198   2.378   7.684  10.940  1.4608 -0.4600 -4.0631
  372MOL0     H50199   2.259   7.592  11.046 -1.3584  2.5368 -0.2124
  372MOL0     H50200   2.101   7.611  10.848  0.5945 -0.0737 -1.4711
  372MOL0     H50201   2.202   7.732  10.787 -2.2656  0.4004 -0.5820
  372MOL0     H50202   2.853   6.726  10.785 -0.8361  0.6963  0.1013
  372MOL0     H50203   3.093   6.661  10.757  2.0954  0.5062 -1.1382
  372MOL0     H50204   3.462   6.700  10.548  2.7826 -2.4272 -2.4240
  372MOL0     H50205   3.677   6.642  10.485 -2.1100 -0.7000 -0.0485
  372MOL0     H50206   5.280   6.380  10.292  1.0299 -1.9684 -0.7662
  372MOL0     H50207   5.431   6.199  10.246  4.6946 -2.0720 -1.7171
  372MOL0     H50208   6.074   6.102  10.119 -1.3764  2.2327 -0.8127
  372MOL0     H50209   6.156   5.883  10.128  0.7204  2.0696  0.9174
  372MOL0     H50210   5.952   5.587  10.405  1.7772  2.1771 -0.0055
  372MOL0     H50211   5.893   5.538  10.239  0.1049  0.3794  0.8161
  372MOL0     H50212   6.083   5.396  10.216 -0.7649 -1.2383  0.5606
  372MOL0     H50213   5.986   5.348  10.351 -0.1066  0.9017  0.4516
  372MOL0     H50214   6.131   5.484  10.505  0.0276  1.4114 -1.8095
  372MOL0     H50215   6.251   5.494  10.376  0.8530 -2.0400 -2.5862
  372MOL0     H50216   6.225   5.236  10.363 -1.1852  0.7117  0.1002
  372MOL0     H50217   6.140   5.232  10.512 -0.3803  0.6052  0.8991
  372MOL0     H50218   6.537   5.346  10.641 -1.8941  1.4193  1.0449
  372MOL0     H50219   5.799   5.732  10.311  0.6601  1.7109  0.8452
  372MOL0     H50220   5.695   5.953  10.262 -0.4260 -1.7864  1.0079
  373MOL0     O50221   3.332   3.229   3.643 -0.1098 -0.0411 -0.7514
  373MOL0     C50222   3.218   3.250   3.652 -0.2305  0.0201  0.5433
  373MOL0     O50223   3.136   3.282   3.551 -0.3654  0.1896 -0.2239
  373MOL0     C50224   3.196   3.298   3.431 -0.0445  0.7254  0.5915
  373MOL0     C50225   3.252   3.422   3.393 -0.3772 -0.4863 -0.2814
  373MOL0     C50226   3.331   3.426   3.279 -0.7552 -0.2974  0.0563
  373MOL0     C50227   3.361   3.318   3.197 -0.9729 -0.7450  0.0538
  373MOL0     O50228   3.438   3.341   3.088 -1.0288 -1.0803  0.5747
  373MOL0     C50229   3.447   3.239   2.986  0.4797 -0.7818 -0.9480
  373MOL0     C50230   3.527   3.276   2.858 -0.0014  0.4747  0.8878
  373MOL0     C50231   3.432   3.355   2.763 -0.5115  0.3624 -0.5475
  373MOL0     C50232   3.499   3.357   2.624  0.4193  0.1722 -0.1482
  373MOL0     C50233   3.436   3.454   2.526  0.6480  0.7571  0.7088
  373MOL0     C50234   3.498   3.422   2.381 -0.1931  0.4601  0.5133
  373MOL0     C50235   3.422   3.473   2.269  0.4631 -0.9910  0.5790
  373MOL0     C50236   3.457   3.420   2.132  0.4130  1.0120  0.5374
  373MOL0     N50237   3.345   3.361   2.053  0.3903 -0.0252 -0.3189
  373MOL0     C50238   3.283   3.241   2.078  0.1757 -0.5283 -0.1342
  373MOL0     C50239   3.186   3.231   1.985 -0.2930  0.6399 -0.0477
  373MOL0     C50240   3.090   3.116   1.978 -0.7006 -0.9657 -0.0993
  373MOL0     C50241   2.970   3.160   1.893 -0.1830 -0.8976 -0.1728
  373MOL0     C50242   2.867   3.056   1.874 -0.4795  0.6183 -0.1408
  373MOL0     C50243   2.742   3.104   1.801  0.4559  0.0889 -0.3193
  373MOL0     O50244   2.648   3.181   1.879  0.0011 -0.4041  0.5439
  373MOL0     C50245   2.560   3.119   1.956 -0.3764 -0.0939  0.4750
  373MOL0     C50246   2.453   3.207   1.997  0.5550  0.0083 -0.3209
  373MOL0     C50247   2.359   3.172   2.088  1.0647 -0.6093 -0.6678
  373MOL0     C50248   2.249   3.273   2.121  0.2242 -0.2243 -0.8821
  373MOL0     C50249   2.363   3.042   2.140 -1.3509 -0.2253 -0.0705
  373MOL0     C50250   2.266   2.977   2.235  0.8059  0.9196 -0.0280
  373MOL0     O50251   2.252   2.836   2.224 -0.1700 -0.4111 -0.5917
  373MOL0     C50252   2.156   2.776   2.305  0.3441  0.5632 -0.4087
  373MOL0     C50253   2.144   2.797   2.441 -0.4436  0.7767 -0.9251
  373MOL0     C50254   2.041   2.741   2.520 -0.0098  0.6064 -0.7722
  373MOL0     C50255   1.951   2.649   2.463 -0.0571 -0.7769  0.0362
  373MOL0     O50256   1.853   2.580   2.533  0.4385 -0.1731 -0.0662
  373MOL0     C50257   1.854   2.578   2.675  0.2889  1.1951 -0.3366
  373MOL0     C50258   1.972   2.494   2.735  0.5196  0.3443 -0.1250
  373MOL0     C50259   1.933   2.342   2.743 -0.1479  0.0928  0.1717
  373MOL0     C50260   2.044   2.261   2.812  0.1281  0.9852 -0.0277
  373MOL0     C50261   2.058   2.286   2.964  0.3482  0.6574 -0.3795
  373MOL0     C50262   2.184   2.236   3.035 -0.2354 -0.1441 -0.3616
  373MOL0     C50263   2.185   2.227   3.188  0.4187 -0.6358  0.0521
  373MOL0     C50264   2.303   2.153   3.255 -0.9045  0.1861 -0.2404
  373MOL0    Cl50265   2.456   2.234   3.195 -0.2061  0.4152  0.1834
  373MOL0     C50266   1.971   2.620   2.327  0.9466 -0.1311 -1.3728
  373MOL0     C50267   2.072   2.679   2.250  0.3852  0.4473 -0.3485
  373MOL0     O50268   2.202   3.045   2.311  0.5161 -0.1523 -0.6518
  373MOL0     C50269   2.461   2.949   2.086 -0.8268 -0.0721  0.3197
  373MOL0     C50270   2.566   2.990   1.995 -0.0016  0.1158 -0.2514
  373MOL0     N50271   3.196   3.337   1.897  0.1268 -0.1901  0.2351
  373MOL0     N50272   3.290   3.412   1.940 -0.0929 -0.5110  0.3821
  373MOL0     C50273   3.309   3.193   3.237  0.1701  0.3825 -0.5038
  373MOL0     C50274   3.241   3.183   3.357  0.3892 -0.2258 -0.2927
  373MOL0     C50275   3.156   3.266   3.787 -0.5605 -0.3331  0.0721
  373MOL0     C50276   3.028   3.319   3.812 -0.1185  0.2115  0.2707
  373MOL0     C50277   2.983   3.335   3.943 -0.7065  0.2683 -0.8785
  373MOL0     C50278   3.068   3.315   4.051  0.3821  0.5004  1.0867
  373MOL0     O50279   3.035   3.337   4.184  0.3977  0.1819  0.0871
  373MOL0     C50280   2.912   3.402   4.227  0.4457 -1.0995 -0.5643
  373MOL0     C50281   2.931   3.549   4.193  0.7181 -0.1343 -1.1800
  373MOL0     C50282   2.972   3.627   4.320  0.2525  0.3818 -0.8679
  373MOL0     C50283   3.050   3.754   4.281 -0.6059  0.2469 -0.8336
  373MOL0     C50284   3.121   3.818   4.404 -0.2754 -0.4231 -0.4717
  373MOL0     C50285   3.187   3.874   4.498  0.1313  1.1383 -0.4385
  373MOL0     C50286   3.195   3.255   4.030 -0.1300 -0.6346  1.1743
  373MOL0     C50287   3.240   3.236   3.895  0.3091 -0.4935 -1.4607
  373MOL0     H50288   3.236   3.506   3.461  0.7113 -0.0262 -0.5712
  373MOL0     H50289   3.396   3.512   3.263  1.6621 -2.3468 -2.0293
  373MOL0     H50290   3.505   3.160   3.035  2.7937  0.6534 -1.2217
  373MOL0     H50291   3.353   3.197   2.952 -1.2164  2.8350 -1.2278
  373MOL0     H50292   3.619   3.331   2.881  1.8126 -1.2633 -1.6080
  373MOL0     H50293   3.560   3.188   2.802  0.8593  0.9517  0.6195
  373MOL0     H50294   3.331   3.313   2.757 -1.4505  2.2134  1.1857
  373MOL0     H50295   3.423   3.457   2.801 -1.1904 -0.1738  0.7844
  373MOL0     H50296   3.607   3.378   2.628  0.9404 -2.2783  0.1964
  373MOL0     H50297   3.489   3.258   2.578  1.4067 -0.4153  0.8288
  373MOL0     H50298   3.328   3.439   2.519  1.2567 -5.4011 -0.4685
  373MOL0     H50299   3.462   3.558   2.552 -1.6883  2.7969 -3.8665
  373MOL0     H50300   3.592   3.477   2.371  0.3818  0.1761  3.2973
  373MOL0     H50301   3.514   3.314   2.373  3.5192  0.6991  2.3095
  373MOL0     H50302   3.313   3.476   2.274  0.1457  3.2963 -2.9389
  373MOL0     H50303   3.441   3.580   2.269 -2.0086 -0.5054 -0.0485
  373MOL0     H50304   3.526   3.336   2.144 -1.1822 -0.9744 -2.7881
  373MOL0     H50305   3.508   3.500   2.077  1.8187  0.4156  0.9260
  373MOL0     H50306   3.292   3.174   2.162 -1.4758 -0.2786  0.2804
  373MOL0     H50307   3.144   3.033   1.932  3.8690 -0.1003  3.0065
  373MOL0     H50308   3.053   3.089   2.078 -1.1526  5.1033  1.8139
  373MOL0     H50309   2.999   3.206   1.798  0.1427 -0.9411 -0.0947
  373MOL0     H50310   2.911   3.240   1.938  1.8626 -0.1182  1.2707
  373MOL0     H50311   2.835   3.025   1.974  1.4901 -1.1965 -0.0064
  373MOL0     H50312   2.902   2.966   1.824 -0.7043  0.4567 -0.0117
  373MOL0     H50313   2.696   3.016   1.754  0.0330  0.0360  0.1721
  373MOL0     H50314   2.764   3.165   1.714 -1.3401 -0.4598 -1.2120
  373MOL0     H50315   2.456   3.311   1.965  2.3371 -0.3482 -1.4720
  373MOL0     H50316   2.246   3.352   2.046 -0.9156  0.4258 -0.1912
  373MOL0     H50317   2.152   3.224   2.132  1.3459 -2.2219  1.2450
  373MOL0     H50318   2.269   3.328   2.214  0.2452  1.1216 -1.6678
  373MOL0     H50319   2.226   2.857   2.482 -0.3699  0.2265 -0.2500
  373MOL0     H50320   2.045   2.764   2.626 -3.0947  2.6842 -0.9741
  373MOL0     H50321   1.847   2.682   2.705 -1.4616  1.3432 -1.0922
  373MOL0     H50322   1.759   2.530   2.703  1.3482 -1.4168 -0.9070
  373MOL0     H50323   2.060   2.521   2.676 -0.0051  1.0622 -0.6005
  373MOL0     H50324   1.983   2.527   2.838 -0.1259 -0.5920  0.2543
  373MOL0     H50325   1.920   2.315   2.637 -1.6122  3.2626 -0.5752
  373MOL0     H50326   1.839   2.306   2.786 -0.7350  0.4511 -0.7659
  373MOL0     H50327   2.044   2.154   2.794  0.3641  1.0917 -0.6733
  373MOL0     H50328   2.139   2.290   2.768  1.7285 -2.9164  0.4616
  373MOL0     H50329   1.974   2.242   3.020  0.1684 -0.5967 -1.5878
  373MOL0     H50330   2.045   2.395   2.969  3.0582  1.0214  0.3078
  373MOL0     H50331   2.212   2.139   2.991  2.6644  1.5191 -2.5374
  373MOL0     H50332   2.266   2.306   3.016  1.0309 -1.2078  0.8685
  373MOL0     H50333   2.091   2.193   3.232 -1.5991  0.5102 -3.0697
  373MOL0     H50334   2.195   2.330   3.222  1.6522 -0.2645 -1.2974
  373MOL0     H50335   2.296   2.047   3.228 -0.7659 -0.5673  2.4277
  373MOL0     H50336   2.297   2.155   3.364  3.1860 -1.4004  0.1827
  373MOL0     H50337   1.906   2.540   2.293 -0.3357 -0.0424  0.6788
  373MOL0     H50338   2.093   2.646   2.148  1.4482  2.1557 -0.7212
  373MOL0     H50339   2.472   2.842   2.102  0.9687 -0.0672 -0.6221
  373MOL0     H50340   2.629   2.907   1.965 -3.6455 -2.7603 -0.7157
  373MOL0     H50341   3.313   3.107   3.171  1.5435  0.4672 -0.5538
  373MOL0     H50342   3.210   3.083   3.387 -1.2905  0.6653  1.1425
  373MOL0     H50343   2.958   3.354   3.738  0.8095  0.5476 -0.4698
  373MOL0     H50344   2.882   3.372   3.951 -1.3252 -1.0447 -2.1643
  373MOL0     H50345   2.822   3.377   4.170 -1.6538  1.0089  1.5865
  373MOL0     H50346   2.888   3.384   4.332  1.6872  2.6113  0.4907
  373MOL0     H50347   2.837   3.592   4.157  0.5761  0.6092  0.0296
  373MOL0     H50348   3.010   3.561   4.118  2.6957 -0.4366  0.7562
  373MOL0     H50349   3.035   3.563   4.383 -0.9126  0.5065  0.4899
  373MOL0     H50350   2.883   3.659   4.376 -0.9028 -2.3359 -0.9601
  373MOL0     H50351   2.991   3.828   4.225  0.6746  1.1407 -1.0448
  373MOL0     H50352   3.125   3.724   4.208 -1.4975 -2.2781 -0.8139
  373MOL0     H50353   3.237   3.919   4.582  0.7926 -0.1021 -0.1363
  373MOL0     H50354   3.259   3.234   4.115  0.5251  0.2405  0.9101
  373MOL0     H50355   3.340   3.198   3.879 -0.3150 -3.3977  0.6939
  374MOL0     O50356   5.312   2.714  10.235  0.0179 -0.4682  0.3185
  374MOL0     C50357   5.341   2.600  10.235  0.2632 -0.1435  0.5060
  374MOL0     O50358   5.264   2.489  10.206 -0.9010 -0.3916 -0.4364
  374MOL0     C50359   5.133   2.527  10.189 -0.1140  0.3991  0.7350
  374MOL0     C50360   5.045   2.535  10.295  0.0051  0.1149 -0.8260
  374MOL0     C50361   4.908   2.545  10.264 -1.1041 -0.1236 -0.0140
  374MOL0     C50362   4.865   2.547  10.133  0.0467  0.3797  0.4294
  374MOL0     O50363   4.737   2.540  10.097 -0.2030 -0.5077  0.2468
  374MOL0     C50364   4.635   2.471  10.178 -0.2333 -0.5717 -0.5777
  374MOL0     C50365   4.531   2.413  10.084 -0.8028 -0.9378 -0.0044
  374MOL0     C50366   4.597   2.320   9.983  0.0620  0.3306 -0.6453
  374MOL0     C50367   4.487   2.298   9.866  0.0614  0.7056  0.0980
  374MOL0     C50368   4.518   2.179   9.772 -0.6855 -0.2806  0.1901
  374MOL0     C50369   4.622   2.222   9.670  0.7369  0.3376 -0.1884
  374MOL0     C50370   4.609   2.135   9.544  0.0446 -0.2835  0.0542
  374MOL0     C50371   4.689   2.002   9.554 -0.7003  0.2628 -0.2156
  374MOL0     N50372   4.834   2.022   9.531  0.8419 -0.5632  0.3692
  374MOL0     C50373   4.891   2.042   9.413  0.7862  0.3472  0.3559
  374MOL0     C50374   5.022   2.051   9.433  0.0903 -0.4477  0.3106
  374MOL0     C50375   5.114   2.084   9.318 -0.1005 -0.6402  0.1922
  374MOL0     C50376   5.118   1.992   9.194 -0.1465 -0.1772  0.1671
  374MOL0     C50377   5.242   2.022   9.112  0.0409 -0.3429 -0.1971
  374MOL0     C50378   5.208   2.026   8.959  0.3776  0.7531  0.0002
  374MOL0     O50379   5.311   1.970   8.876  0.4095  0.3102 -1.0973
  374MOL0     C50380   5.421   2.043   8.835  0.8845 -0.9226 -1.3703
  374MOL0     C50381   5.455   2.160   8.904 -0.3119  0.3669  0.2425
  374MOL0     C50382   5.557   2.246   8.853 -0.8891 -0.8070  0.1146
  374MOL0     C50383   5.594   2.370   8.927  0.2822 -0.0656 -0.2075
  374MOL0     C50384   5.632   2.201   8.731 -0.0263  0.4460 -0.0041
  374MOL0     C50385   5.745   2.285   8.672  0.0792  0.0954  0.2986
  374MOL0     O50386   5.814   2.224   8.572 -0.1406  0.2204 -0.2064
  374MOL0     C50387   5.928   2.285   8.515  0.6778 -0.0389  0.8950
  374MOL0     C50388   5.980   2.230   8.390 -0.4415 -0.4926  0.8295
  374MOL0     C50389   6.106   2.270   8.339 -0.6971 -0.1002 -0.2824
  374MOL0     C50390   6.171   2.378   8.393 -0.4745 -0.5591  0.7680
  374MOL0     O50391   6.289   2.413   8.331 -0.3637  0.0093 -0.0706
  374MOL0     C50392   6.383   2.492   8.409 -0.1230  0.1842  0.1147
  374MOL0     C50393   6.527   2.506   8.349 -0.0175 -0.1443 -0.0777
  374MOL0     C50394   6.596   2.366   8.319 -1.0837  0.4573 -0.7935
  374MOL0     C50395   6.734   2.396   8.265  0.5778 -0.0736  0.0841
  374MOL0     C50396   6.818   2.272   8.243  0.1746  0.1312 -0.3987
  374MOL0     C50397   6.896   2.245   8.365 -0.1246 -0.0807 -1.0065
  374MOL0     C50398   6.948   2.098   8.349  0.1677  0.4644  0.1587
  374MOL0     C50399   6.847   1.979   8.371  0.5082 -0.3690  0.7020
  374MOL0    Cl50400   6.784   1.998   8.533  0.1517  0.0440  0.0578
  374MOL0     C50401   6.117   2.445   8.502 -0.7706 -1.2833  0.8206
  374MOL0     C50402   5.999   2.398   8.558 -0.9803 -0.0601  0.4220
  374MOL0     O50403   5.748   2.397   8.701 -0.4859 -0.5975 -0.4816
  374MOL0     C50404   5.597   2.072   8.669  1.0120 -0.4679 -0.1521
  374MOL0     C50405   5.494   2.001   8.728 -0.4967  0.1242  0.0979
  374MOL0     N50406   5.052   2.050   9.565  0.3309 -0.0105 -0.9677
  374MOL0     N50407   4.937   2.030   9.623  0.2204  0.4578  0.0283
  374MOL0     C50408   4.960   2.540  10.023  1.4622 -0.8380 -0.8672
  374MOL0     C50409   5.094   2.532  10.054 -1.1949 -0.1018 -0.6742
  374MOL0     C50410   5.480   2.576  10.276 -0.0865 -0.6731 -0.3540
  374MOL0     C50411   5.574   2.676  10.257 -0.1641  0.2099 -0.3876
  374MOL0     C50412   5.711   2.649  10.277 -0.5977 -0.3198  0.1919
  374MOL0     C50413   5.760   2.537  10.344  0.1944 -0.0353  0.5754
  374MOL0     O50414   5.898   2.528  10.369  0.0044  0.5239 -0.6361
  374MOL0     C50415   5.949   2.436  10.462  0.0420 -0.1384 -0.3819
  374MOL0     C50416   6.004   2.318  10.384 -0.9030  0.8513  0.7660
  374MOL0     C50417   6.143   2.347  10.327 -0.1479  0.2510  0.3649
  374MOL0     C50418   6.133   2.441  10.197 -0.1490 -0.5140  0.2599
  374MOL0     C50419   6.177   2.581  10.195  0.0694  0.2542 -0.1517
  374MOL0     C50420   6.220   2.695  10.194 -0.7139 -0.2881  0.1657
  374MOL0     C50421   5.665   2.439  10.375  0.4477  0.5618 -0.2755
  374MOL0     C50422   5.528   2.458  10.336 -0.1795  0.3956 -0.2512
  374MOL0     H50423   5.073   2.526  10.400  0.9742 -0.9141 -1.1550
  374MOL0     H50424   4.836   2.549  10.345 -1.8249 -0.6482 -0.6110
  374MOL0     H50425   4.682   2.391  10.235  0.4594 -0.0394 -0.3877
  374MOL0     H50426   4.593   2.535  10.256  2.6456 -0.1943  0.8030
  374MOL0     H50427   4.463   2.350  10.143 -0.4534  0.3982  1.9046
  374MOL0     H50428   4.472   2.494  10.039 -1.7299 -0.5830  1.7503
  374MOL0     H50429   4.683   2.373   9.939 -0.1761  1.5419  0.2840
  374MOL0     H50430   4.630   2.227  10.030 -2.9137  0.7610  2.6623
  374MOL0     H50431   4.393   2.279   9.919 -0.8023  1.5102 -1.1144
  374MOL0     H50432   4.479   2.392   9.811 -1.2269  0.0464 -0.8804
  374MOL0     H50433   4.562   2.092   9.822  0.7188  0.2741 -0.0185
  374MOL0     H50434   4.426   2.140   9.728 -0.8855  0.1240  0.2439
  374MOL0     H50435   4.600   2.326   9.644  2.6523  0.8216 -0.0322
  374MOL0     H50436   4.723   2.222   9.712  0.2033 -1.3355  1.1682
  374MOL0     H50437   4.502   2.116   9.531 -1.1024  0.9461  5.4243
  374MOL0     H50438   4.639   2.193   9.456 -0.7199  0.4192  0.2538
  374MOL0     H50439   4.656   1.941   9.469  2.7753 -0.1549 -1.4364
  374MOL0     H50440   4.660   1.957   9.650  1.4825  0.8412  0.7595
  374MOL0     H50441   4.835   2.045   9.320  0.9428  0.0080  0.2514
  374MOL0     H50442   5.081   2.181   9.280  2.0167 -0.2727 -0.8874
  374MOL0     H50443   5.218   2.094   9.354 -0.3062  3.4953  0.0459
  374MOL0     H50444   5.024   1.997   9.138  0.1555 -1.3949 -0.4920
  374MOL0     H50445   5.110   1.885   9.217  0.1173 -0.1217  0.5066
  374MOL0     H50446   5.314   1.944   9.138 -1.2047 -1.4994 -0.1081
  374MOL0     H50447   5.285   2.117   9.145  0.0632 -1.3225  2.8729
  374MOL0     H50448   5.174   2.122   8.920 -1.7428  0.6693  1.4874
  374MOL0     H50449   5.120   1.963   8.941  0.5123  0.0806  1.4966
  374MOL0     H50450   5.407   2.198   8.994 -0.0958  1.9891 -0.2835
  374MOL0     H50451   5.702   2.384   8.936 -0.0616  1.9543  2.0099
  374MOL0     H50452   5.554   2.456   8.872  2.4285  1.5047  0.5411
  374MOL0     H50453   5.557   2.357   9.029  0.4058 -0.7124 -0.2447
  374MOL0     H50454   5.925   2.152   8.338  0.1394 -0.7166  0.5384
  374MOL0     H50455   6.163   2.222   8.260 -0.7768 -0.6204 -0.0271
  374MOL0     H50456   6.356   2.598   8.413  1.1187  0.5211  0.0527
  374MOL0     H50457   6.394   2.449   8.509 -1.9003  0.2526  0.3761
  374MOL0     H50458   6.527   2.572   8.262  1.2369  0.8058  0.6167
  374MOL0     H50459   6.593   2.554   8.421  0.8593 -0.2227 -0.8067
  374MOL0     H50460   6.536   2.297   8.259 -2.3583 -0.1169  1.0868
  374MOL0     H50461   6.603   2.310   8.412 -0.3557  0.0739 -1.0677
  374MOL0     H50462   6.728   2.444   8.167 -0.5221  1.9582  1.0789
  374MOL0     H50463   6.778   2.465   8.338  0.1883  1.6300 -1.2246
  374MOL0     H50464   6.897   2.295   8.171 -0.5584 -0.1212 -1.3109
  374MOL0     H50465   6.757   2.198   8.189 -2.7705  2.8898 -1.2184
  374MOL0     H50466   6.980   2.314   8.366 -1.7049  2.0429  1.8899
  374MOL0     H50467   6.847   2.266   8.460  1.0440 -2.1813  0.1185
  374MOL0     H50468   7.030   2.087   8.421  0.7404  0.8003 -0.4319
  374MOL0     H50469   6.991   2.083   8.250  2.1950  0.7902  0.9496
  374MOL0     H50470   6.897   1.884   8.352  1.3913  0.4603 -1.4347
  374MOL0     H50471   6.768   1.996   8.297  0.0356 -1.4587  0.9386
  374MOL0     H50472   6.168   2.531   8.545  1.0557 -1.4763 -0.7773
  374MOL0     H50473   5.975   2.449   8.650 -1.2366 -0.8609  0.8082
  374MOL0     H50474   5.661   2.042   8.587  1.8626  0.0606  0.2996
  374MOL0     H50475   5.461   1.908   8.681  0.3738  0.4982 -1.2943
  374MOL0     H50476   4.934   2.537   9.918 -1.2990  0.4336 -0.3087
  374MOL0     H50477   5.171   2.514   9.979 -0.3833  1.1648 -0.1920
  374MOL0     H50478   5.545   2.772  10.217  1.2656  0.5305 -0.7154
  374MOL0     H50479   5.783   2.724  10.248 -1.0243 -0.6110 -1.8002
  374MOL0     H50480   6.028   2.479  10.525  0.8724  0.4288 -1.7524
  374MOL0     H50481   5.872   2.408  10.534  0.5391 -0.3794  0.0578
  374MOL0     H50482   5.934   2.279  10.309  0.0091 -3.0949  1.7055
  374MOL0     H50483   6.017   2.226  10.443 -1.6401 -2.2133 -3.3809
  374MOL0     H50484   6.188   2.251  10.299 -0.2063  0.7471 -1.5950
  374MOL0     H50485   6.215   2.386  10.400 -2.3147  0.7705  2.3371
  374MOL0     H50486   6.031   2.449  10.158  0.4044  1.5141 -0.9086
  374MOL0     H50487   6.200   2.401  10.121  0.6264 -0.1791  0.7643
  374MOL0     H50488   6.256   2.795  10.188 -1.1622 -0.1921 -3.6051
  374MOL0     H50489   5.682   2.338  10.408  0.5377  0.3483 -0.9581
  374MOL0     H50490   5.465   2.374  10.361  1.0676 -0.2683  0.7809
  375MOL0     O50491   5.499   9.306   6.571  0.3086  0.9480  0.2001
  375MOL0     C50492   5.520   9.284   6.454 -0.7147 -1.0799 -0.7435
  375MOL0     O50493   5.435   9.314   6.355  0.2014 -0.5237  0.9862
  375MOL0     C50494   5.315   9.374   6.401 -0.0713  0.1891  0.2484
  375MOL0     C50495   5.280   9.494   6.353 -0.1385 -0.1091  0.0850
  375MOL0     C50496   5.167   9.565   6.383 -0.3023  0.5128  0.4176
  375MOL0     C50497   5.060   9.495   6.453  0.0825  0.1337  0.2117
  375MOL0     O50498   4.946   9.551   6.500  0.0839 -0.0592 -0.1578
  375MOL0     C50499   4.885   9.652   6.422  0.4104  0.7709  0.5748
  375MOL0     C50500   4.748   9.691   6.491  0.4143  0.0035 -0.0789
  375MOL0     C50501   4.638   9.589   6.437  0.5325  0.0386 -0.1038
  375MOL0     C50502   4.524   9.578   6.530  1.3313  0.6347 -0.0894
  375MOL0     C50503   4.410   9.690   6.521 -0.1868  0.2130  0.2411
  375MOL0     C50504   4.313   9.672   6.636 -0.3071 -1.1003  0.8430
  375MOL0     C50505   4.221   9.800   6.657 -0.6969  0.0378  0.1231
  375MOL0     C50506   4.117   9.766   6.772 -0.8108  0.0463  0.1257
  375MOL0     N50507   4.017   9.683   6.722  0.3364 -0.3005  0.6813
  375MOL0     C50508   4.018   9.550   6.706 -0.4642 -0.1488 -0.3264
  375MOL0     C50509   3.913   9.516   6.621  0.1459  0.4164  0.4147
  375MOL0     C50510   3.890   9.380   6.556  0.4451 -0.6836  1.2154
  375MOL0     C50511   3.736   9.344   6.542  0.0432 -0.2710  0.0478
  375MOL0     C50512   3.664   9.344   6.678  0.2099  0.6440  0.1295
  375MOL0     C50513   3.515   9.315   6.653 -0.1063  0.6075  0.2725
  375MOL0     O50514   3.452   9.287   6.782  0.2387 -0.0522 -0.0843
  375MOL0     C50515   3.401   9.389   6.858 -0.5440  0.0773  0.5633
  375MOL0     C50516   3.427   9.528   6.832  0.5881 -0.2356 -1.0773
  375MOL0     C50517   3.373   9.624   6.909  0.5366  0.0208  0.0230
  375MOL0     C50518   3.399   9.764   6.865 -0.2385  0.6028 -0.3995
  375MOL0     C50519   3.278   9.590   7.010 -0.0177 -0.8641  0.2772
  375MOL0     C50520   3.218   9.686   7.100  0.6088 -0.0695 -0.0217
  375MOL0     O50521   3.194   9.810   7.049 -0.0424  0.3242 -0.0405
  375MOL0     C50522   3.162   9.910   7.138  0.2466 -0.2279 -0.1841
  375MOL0     C50523   3.250   9.981   7.210 -0.5349  0.3452  0.0456
  375MOL0     C50524   3.212  10.083   7.295  0.0459  0.5160 -0.0023
  375MOL0     C50525   3.079  10.118   7.321 -0.1476 -0.7316 -0.6640
  375MOL0     O50526   3.044  10.227   7.416  0.5904 -0.2388 -0.1427
  375MOL0     C50527   2.908  10.240   7.461  0.1944 -1.3328 -0.6670
  375MOL0     C50528   2.895  10.376   7.544 -0.1967  0.4812  0.0239
  375MOL0     C50529   2.763  10.390   7.634 -0.1531 -0.5459  0.4758
  375MOL0     C50530   2.674  10.492   7.575  0.8660  0.3710  0.2805
  375MOL0     C50531   2.554  10.531   7.667  0.0652  0.7192  0.6916
  375MOL0     C50532   2.431  10.444   7.641 -0.2135 -0.1761  0.0730
  375MOL0     C50533   2.310  10.502   7.711 -0.1354  0.0271 -1.0904
  375MOL0     C50534   2.173  10.441   7.677  0.1028 -0.3997  0.1173
  375MOL0    Cl50535   2.054  10.493   7.798 -0.2257  0.0781 -0.0017
  375MOL0     C50536   2.985  10.043   7.247 -0.0630  0.1652  0.0047
  375MOL0     C50537   3.019   9.945   7.151  0.0978 -0.4030 -0.5017
  375MOL0     O50538   3.205   9.648   7.221 -0.1371 -0.2632 -0.3706
  375MOL0     C50539   3.252   9.456   7.033 -0.4764 -0.5546  0.3966
  375MOL0     C50540   3.317   9.353   6.961  0.5722 -0.1921 -0.4236
  375MOL0     N50541   3.845   9.632   6.592 -0.1139  0.1598 -0.0964
  375MOL0     N50542   3.918   9.730   6.638 -0.5419 -0.3666 -0.2171
  375MOL0     C50543   5.094   9.367   6.497 -0.1311 -0.1255  1.0230
  375MOL0     C50544   5.218   9.302   6.474 -0.5839 -0.2273  0.3791
  375MOL0     C50545   5.633   9.196   6.428 -0.0635  0.0898 -0.2025
  375MOL0     C50546   5.707   9.196   6.302  0.3182  0.3443 -0.4391
  375MOL0     C50547   5.822   9.118   6.289 -0.2164  0.4802 -0.2960
  375MOL0     C50548   5.876   9.049   6.399  0.0877 -0.4995 -0.0669
  375MOL0     O50549   5.996   8.994   6.379 -0.8591  0.0289  0.5061
  375MOL0     C50550   6.104   9.095   6.388 -0.0695 -0.1939  0.3325
  375MOL0     C50551   6.227   9.031   6.331  0.7937  0.0510 -0.5460
  375MOL0     C50552   6.297   8.939   6.439  0.8190  0.7256  0.5396
  375MOL0     C50553   6.429   8.883   6.388 -0.1336 -0.3412  1.0195
  375MOL0     C50554   6.542   8.962   6.438  0.0475  0.1733 -0.3323
  375MOL0     C50555   6.642   9.025   6.466 -0.0621 -0.2426 -0.3890
  375MOL0     C50556   5.804   9.047   6.514  0.4662  0.4257 -0.0253
  375MOL0     C50557   5.680   9.115   6.531  0.9900  0.2012  0.4233
  375MOL0     H50558   5.357   9.550   6.301  0.4578  2.2046  3.1864
  375MOL0     H50559   5.155   9.669   6.353  0.3630 -0.0003 -1.7614
  375MOL0     H50560   4.957   9.734   6.424 -0.8360  1.8807  1.6326
  375MOL0     H50561   4.869   9.615   6.320  0.8150 -0.8792  1.0772
  375MOL0     H50562   4.761   9.693   6.599 -1.2688 -2.2392  0.2290
  375MOL0     H50563   4.730   9.794   6.459  0.6706  0.1205  0.1467
  375MOL0     H50564   4.582   9.625   6.350 -0.6104 -3.3258 -0.9163
  375MOL0     H50565   4.680   9.492   6.411  0.9084  0.2753 -0.3959
  375MOL0     H50566   4.481   9.481   6.504  0.3227  1.0655 -0.0733
  375MOL0     H50567   4.556   9.574   6.635  0.3927 -2.9703  0.1602
  375MOL0     H50568   4.460   9.788   6.518  0.1839  0.0003 -0.5267
  375MOL0     H50569   4.364   9.661   6.427  2.9387 -0.9178 -1.0812
  375MOL0     H50570   4.249   9.586   6.617  1.6081 -2.1317 -1.4953
  375MOL0     H50571   4.371   9.654   6.727  1.5518 -1.2086 -0.3208
  375MOL0     H50572   4.283   9.886   6.683 -2.1083  1.0370  0.2732
  375MOL0     H50573   4.167   9.827   6.566 -0.0540  0.6965 -0.0639
  375MOL0     H50574   4.067   9.862   6.787  0.5825  1.5295 -3.5515
  375MOL0     H50575   4.169   9.722   6.858 -2.2656 -0.7636  0.6152
  375MOL0     H50576   4.097   9.485   6.741 -2.6382 -1.7385  2.0000
  375MOL0     H50577   3.934   9.384   6.456 -1.5346  0.6607  0.3421
  375MOL0     H50578   3.935   9.293   6.605  0.0203 -1.6163  0.0116
  375MOL0     H50579   3.717   9.249   6.491 -1.3128  0.3533 -0.6608
  375MOL0     H50580   3.690   9.423   6.483 -0.4062 -0.2722  0.3968
  375MOL0     H50581   3.673   9.442   6.726  0.3941  0.7058 -0.0274
  375MOL0     H50582   3.706   9.273   6.749 -1.0942 -2.0368 -1.6219
  375MOL0     H50583   3.496   9.228   6.589  0.8877  0.7919 -0.3065
  375MOL0     H50584   3.476   9.404   6.602  1.6981  1.3858  0.1715
  375MOL0     H50585   3.494   9.556   6.752 -0.8046 -0.4170 -2.3526
  375MOL0     H50586   3.476   9.771   6.787  2.7371  0.1542  2.3046
  375MOL0     H50587   3.304   9.808   6.832  0.6588  0.4979 -3.4177
  375MOL0     H50588   3.442   9.818   6.949  0.3955 -0.2218 -0.1759
  375MOL0     H50589   3.350   9.940   7.203 -0.1576  1.3676 -0.7955
  375MOL0     H50590   3.285  10.144   7.347  1.1844  0.1521 -1.1325
  375MOL0     H50591   2.831  10.258   7.385 -0.7866  0.2423  0.6465
  375MOL0     H50592   2.876  10.157   7.526 -0.0531 -0.4190  0.4065
  375MOL0     H50593   2.980  10.371   7.613  1.5344 -0.4692 -2.0379
  375MOL0     H50594   2.917  10.460   7.478  1.2909  1.3752  1.5741
  375MOL0     H50595   2.810  10.432   7.723 -1.6615  0.1087  0.9922
  375MOL0     H50596   2.716  10.293   7.652 -0.1577 -0.3969  1.3160
  375MOL0     H50597   2.738  10.580   7.561  0.6408  0.5327  0.2675
  375MOL0     H50598   2.630  10.460   7.480 -2.0449  0.3785  1.5329
  375MOL0     H50599   2.537  10.638   7.654  3.9435  1.3977  0.0871
  375MOL0     H50600   2.592  10.522   7.769  0.9094 -1.8503  0.2402
  375MOL0     H50601   2.401  10.439   7.536 -1.4661  2.8693  0.1921
  375MOL0     H50602   2.448  10.342   7.677 -0.4772 -0.3956 -0.4111
  375MOL0     H50603   2.298  10.604   7.673  1.6830  0.4051 -0.7686
  375MOL0     H50604   2.337  10.505   7.817  1.8795 -3.3831 -1.3800
  375MOL0     H50605   2.181  10.332   7.677 -2.1263 -0.6104  1.7792
  375MOL0     H50606   2.137  10.471   7.578 -2.3051  1.1939  1.3953
  375MOL0     H50607   2.882  10.076   7.251  0.5273  2.6101 -2.4587
  375MOL0     H50608   2.947   9.886   7.095 -1.2532 -0.1496  0.9181
  375MOL0     H50609   3.180   9.427   7.109 -1.8233  1.6866  0.0537
  375MOL0     H50610   3.312   9.245   6.972  3.5079 -0.5473 -1.5420
  375MOL0     H50611   5.013   9.317   6.548 -0.6887 -3.5120 -2.7421
  375MOL0     H50612   5.242   9.201   6.505 -0.9537 -0.9220 -1.4364
  375MOL0     H50613   5.682   9.255   6.214  1.8852  1.7358  0.0005
  375MOL0     H50614   5.871   9.118   6.192 -0.4478  0.4103 -0.4129
  375MOL0     H50615   6.089   9.189   6.336 -1.5151 -0.3161  0.4946
  375MOL0     H50616   6.124   9.116   6.494  0.7219  1.1578 -0.0711
  375MOL0     H50617   6.289   9.119   6.310  1.7244 -0.5852 -0.5483
  375MOL0     H50618   6.196   8.980   6.238 -3.0620 -0.4908  0.8587
  375MOL0     H50619   6.232   8.853   6.461  0.4220  0.8838  0.0059
  375MOL0     H50620   6.309   9.000   6.529 -3.7458  0.5441  1.5571
  375MOL0     H50621   6.427   8.867   6.280 -2.4264  0.3023  0.9300
  375MOL0     H50622   6.444   8.786   6.436  0.5967  0.2167  1.9645
  375MOL0     H50623   6.733   9.081   6.473  0.1648 -0.7926  1.6622
  375MOL0     H50624   5.836   9.003   6.608 -3.6514 -0.4696  1.1694
  375MOL0     H50625   5.631   9.119   6.628  2.9463  0.7298  1.4566
  376MOL0     O50626   9.111   8.138   4.362 -0.2826 -0.0720 -0.0872
  376MOL0     C50627   9.209   8.214   4.357  0.4035 -0.0285  0.3747
  376MOL0     O50628   9.201   8.344   4.313  0.0776  0.1378 -0.0975
  376MOL0     C50629   9.075   8.393   4.276 -0.7689 -0.8076  0.3280
  376MOL0     C50630   9.018   8.348   4.158  0.1105 -0.3060  0.0024
  376MOL0     C50631   8.901   8.406   4.098 -0.3300 -0.1333 -0.6704
  376MOL0     C50632   8.851   8.526   4.146  0.1945  0.6569  0.2506
  376MOL0     O50633   8.744   8.580   4.090  0.1337 -0.6588  0.6872
  376MOL0     C50634   8.736   8.726   4.093 -0.2672  0.6641  0.7692
  376MOL0     C50635   8.605   8.754   4.017 -0.1434 -0.4648  0.0651
  376MOL0     C50636   8.572   8.900   3.960  0.4683 -0.3620  0.0456
  376MOL0     C50637   8.438   8.908   3.884 -0.1350  0.6156 -0.0832
  376MOL0     C50638   8.411   9.050   3.829 -0.0202  0.6027 -0.5867
  376MOL0     C50639   8.274   9.037   3.757  0.5290  0.0599  0.5190
  376MOL0     C50640   8.251   9.180   3.693  0.5302  0.1578  0.1316
  376MOL0     C50641   8.114   9.183   3.617 -0.3360  0.2266  0.1088
  376MOL0     N50642   7.995   9.197   3.694  0.2179 -0.4783  0.5343
  376MOL0     C50643   7.973   9.268   3.813  1.1725 -0.7352  0.1729
  376MOL0     C50644   7.838   9.267   3.833  0.8923  0.5018  0.4688
  376MOL0     C50645   7.755   9.321   3.949 -0.2541 -0.2433  0.8005
  376MOL0     C50646   7.768   9.208   4.058  0.8610 -0.5187  0.5063
  376MOL0     C50647   7.672   9.217   4.176  0.2427 -0.0061 -0.0316
  376MOL0     C50648   7.522   9.228   4.139  0.6292 -0.3741  0.5083
  376MOL0     O50649   7.437   9.197   4.252  0.0215 -0.4161  0.2662
  376MOL0     C50650   7.308   9.238   4.243  0.5482  0.2826 -0.2466
  376MOL0     C50651   7.233   9.213   4.351 -0.5604  0.3550 -0.1037
  376MOL0     C50652   7.093   9.222   4.349  0.5005 -0.9394 -0.0986
  376MOL0     C50653   7.015   9.212   4.478  0.5825 -0.4474  0.6539
  376MOL0     C50654   7.033   9.285   4.234  0.0301  0.4750  0.1478
  376MOL0     C50655   6.887   9.303   4.216 -0.0970 -0.2645  1.3071
  376MOL0     O50656   6.805   9.203   4.252  0.1328 -0.1600 -0.4341
  376MOL0     C50657   6.671   9.239   4.255  0.1654  1.0104  0.4211
  376MOL0     C50658   6.619   9.246   4.384  0.1055  0.4886  0.5768
  376MOL0     C50659   6.485   9.267   4.397 -0.0987  0.4183 -0.0263
  376MOL0     C50660   6.400   9.277   4.293  0.9728 -0.3735 -0.6476
  376MOL0     O50661   6.265   9.272   4.315 -0.9807  0.9171  0.1729
  376MOL0     C50662   6.177   9.326   4.210  0.3302 -0.0244  0.6931
  376MOL0     C50663   6.036   9.355   4.271 -1.3301  0.8763  0.0887
  376MOL0     C50664   6.035   9.465   4.366 -0.6278  0.0836  0.0732
  376MOL0     C50665   5.896   9.505   4.413  0.3525 -0.6510 -0.5432
  376MOL0     C50666   5.829   9.416   4.520 -0.3066 -0.9917 -0.3921
  376MOL0     C50667   5.718   9.493   4.597 -0.9264  0.0133  0.4247
  376MOL0     C50668   5.647   9.434   4.714 -0.7329 -0.9495  0.1634
  376MOL0     C50669   5.519   9.364   4.674  0.2808 -0.9033 -0.0392
  376MOL0    Cl50670   5.459   9.262   4.806 -0.3104  0.3913 -0.1740
  376MOL0     C50671   6.459   9.297   4.167 -0.4910  0.1137 -0.4073
  376MOL0     C50672   6.589   9.269   4.146 -0.0374  0.0348  0.4730
  376MOL0     O50673   6.853   9.417   4.180 -0.3240  0.4877  0.2575
  376MOL0     C50674   7.112   9.319   4.124  0.0455  0.3135  0.0250
  376MOL0     C50675   7.246   9.284   4.120 -0.0556 -0.5759 -0.6642
  376MOL0     N50676   7.787   9.181   3.739 -0.1481 -0.1375  0.6451
  376MOL0     N50677   7.876   9.142   3.657 -0.1752 -0.1116 -0.5768
  376MOL0     C50678   8.914   8.574   4.266 -0.3410  0.0162  0.0877
  376MOL0     C50679   9.023   8.515   4.326  0.0153 -0.3155  0.3920
  376MOL0     C50680   9.335   8.154   4.405  0.0140  0.5998  0.8795
  376MOL0     C50681   9.452   8.223   4.398  0.2100  0.2713 -0.3269
  376MOL0     C50682   9.562   8.177   4.465 -0.4346  0.2186  0.3666
  376MOL0     C50683   9.561   8.052   4.526  0.6228 -0.3153  0.8899
  376MOL0     O50684   9.664   7.999   4.602  0.4112  0.6306  0.0423
  376MOL0     C50685   9.800   8.041   4.569  0.1406 -0.4436  0.3771
  376MOL0     C50686   9.906   7.930   4.591  0.2042 -0.5270  0.8774
  376MOL0     C50687  10.050   7.973   4.595  0.5761  0.7968 -0.6923
  376MOL0     C50688  10.093   8.085   4.509 -0.3626  0.1355 -0.0799
  376MOL0     C50689  10.068   8.059   4.362 -1.0102 -0.1133 -0.5796
  376MOL0     C50690  10.041   8.033   4.247 -0.5115  0.2088  0.1079
  376MOL0     C50691   9.446   7.975   4.513 -0.4945 -0.2984  0.2017
  376MOL0     C50692   9.334   8.023   4.462  0.0954 -0.4024  0.3194
  376MOL0     H50693   9.063   8.261   4.111  1.2235 -0.1122  0.6660
  376MOL0     H50694   8.862   8.363   4.006  0.8461  1.2801 -1.8734
  376MOL0     H50695   8.736   8.765   4.195  4.1809  2.5698  0.2752
  376MOL0     H50696   8.816   8.776   4.036 -0.9876 -0.6256 -1.5171
  376MOL0     H50697   8.591   8.683   3.934  3.5264  0.0194 -1.1850
  376MOL0     H50698   8.529   8.741   4.094 -2.7663  1.7031 -1.9609
  376MOL0     H50699   8.554   8.961   4.049 -2.3135  0.7716 -1.1684
  376MOL0     H50700   8.647   8.935   3.888  0.5375 -2.7978 -1.1657
  376MOL0     H50701   8.433   8.843   3.797 -1.1773 -2.7708  2.3294
  376MOL0     H50702   8.362   8.872   3.953  1.7505 -0.5643  1.4995
  376MOL0     H50703   8.399   9.125   3.907 -2.3572  0.2288 -0.5270
  376MOL0     H50704   8.492   9.074   3.759  1.1390  0.2310  0.5869
  376MOL0     H50705   8.271   8.955   3.685  0.9084  1.3730 -1.0534
  376MOL0     H50706   8.193   9.018   3.829 -1.3933  0.9628 -1.2851
  376MOL0     H50707   8.257   9.259   3.768  3.4028 -0.3659  0.5615
  376MOL0     H50708   8.330   9.210   3.624  0.1676 -1.6057 -1.0948
  376MOL0     H50709   8.105   9.100   3.546 -1.5295 -0.1441  0.6673
  376MOL0     H50710   8.122   9.269   3.550  1.0572 -1.0527 -1.4592
  376MOL0     H50711   8.045   9.329   3.866  1.5219  1.6514 -2.7369
  376MOL0     H50712   7.789   9.417   3.987 -0.1038 -0.9968  2.6304
  376MOL0     H50713   7.652   9.337   3.914 -0.1183  0.1199  0.5566
  376MOL0     H50714   7.871   9.212   4.096  0.7304  0.6596  0.7822
  376MOL0     H50715   7.754   9.112   4.008 -0.0439 -0.3148  0.3491
  376MOL0     H50716   7.704   9.305   4.233  4.5763  0.6566 -2.9801
  376MOL0     H50717   7.688   9.130   4.240  1.5975 -0.4970 -1.0129
  376MOL0     H50718   7.492   9.170   4.051 -0.9322  0.1432  0.6538
  376MOL0     H50719   7.501   9.333   4.115  2.2564 -0.3188 -0.8712
  376MOL0     H50720   7.284   9.177   4.440  1.0767 -0.4059 -1.2915
  376MOL0     H50721   7.074   9.224   4.569  1.9182  2.2379 -0.4632
  376MOL0     H50722   6.928   9.279   4.476  1.3987  0.6555 -1.4440
  376MOL0     H50723   6.963   9.116   4.478 -1.1482  0.4458  0.9624
  376MOL0     H50724   6.677   9.227   4.474  1.7455 -1.8478 -0.8716
  376MOL0     H50725   6.441   9.264   4.497 -0.7236  1.6277 -0.2381
  376MOL0     H50726   6.218   9.417   4.167  2.3829 -1.1449  0.1544
  376MOL0     H50727   6.177   9.252   4.129  1.3182  1.4702 -0.7371
  376MOL0     H50728   5.955   9.374   4.200  0.5710 -0.1241 -2.5571
  376MOL0     H50729   6.013   9.255   4.309 -1.3339 -0.5316 -3.2665
  376MOL0     H50730   6.089   9.556   4.337 -1.1728  0.6923  0.9193
  376MOL0     H50731   6.082   9.437   4.461 -1.7159  1.7260  1.1356
  376MOL0     H50732   5.914   9.607   4.447 -1.4364 -0.0411 -1.2861
  376MOL0     H50733   5.820   9.517   4.335 -1.5635  0.9332  1.4440
  376MOL0     H50734   5.897   9.380   4.598 -2.1630 -1.6251  1.0146
  376MOL0     H50735   5.801   9.325   4.467  0.2807 -0.6736 -1.2708
  376MOL0     H50736   5.773   9.573   4.647  0.1664 -1.5197  1.7833
  376MOL0     H50737   5.641   9.522   4.525 -1.4439 -0.0455  0.9522
  376MOL0     H50738   5.624   9.520   4.778  0.4255 -2.0209  2.1016
  376MOL0     H50739   5.715   9.374   4.774 -0.1137 -0.8735 -0.4510
  376MOL0     H50740   5.552   9.309   4.585 -0.1383 -1.7430  0.3153
  376MOL0     H50741   5.442   9.429   4.632  1.9091  1.1740  0.0400
  376MOL0     H50742   6.408   9.328   4.076 -1.1630  2.4566  0.6794
  376MOL0     H50743   6.655   9.266   4.060  1.5902 -0.2211  1.6912
  376MOL0     H50744   7.063   9.339   4.029 -1.7316  1.4290  1.1264
  376MOL0     H50745   7.305   9.294   4.030 -0.5333  2.6772 -0.7395
  376MOL0     H50746   8.880   8.659   4.325 -0.2278 -0.3278  0.6497
  376MOL0     H50747   9.055   8.558   4.421 -1.3699  1.4833  0.0978
  376MOL0     H50748   9.460   8.322   4.355  1.3190 -0.3843 -1.6775
  376MOL0     H50749   9.659   8.225   4.459  1.3603 -3.3072 -4.7254
  376MOL0     H50750   9.798   8.069   4.463 -1.8520  0.1239  0.5421
  376MOL0     H50751   9.821   8.134   4.622 -1.8518  1.6409 -2.1886
  376MOL0     H50752   9.894   7.868   4.502  0.4495  0.7391 -0.0527
  376MOL0     H50753   9.883   7.875   4.683 -1.6852 -1.4859 -0.1203
  376MOL0     H50754  10.104   7.881   4.572 -0.9330 -0.2451 -0.2354
  376MOL0     H50755  10.070   8.001   4.699 -1.6054 -1.7635  0.5214
  376MOL0     H50756  10.198   8.100   4.532 -0.8647  0.0413  2.6295
  376MOL0     H50757  10.034   8.174   4.536 -1.7301 -1.3627  2.2602
  376MOL0     H50758  10.001   8.014   4.150 -0.6378 -1.9589  0.5464
  376MOL0     H50759   9.456   7.881   4.566  1.4476 -1.2565 -1.7226
  376MOL0     H50760   9.248   7.957   4.472  0.5978 -0.6928  6.0208
  377MOL0     O50761   7.933   1.772   6.804  0.0579  0.3773  0.0753
  377MOL0     C50762   8.012   1.680   6.827  0.2889 -0.1109 -0.2835
  377MOL0     O50763   7.987   1.541   6.798  0.7241  0.2873 -0.1433
  377MOL0     C50764   7.871   1.506   6.739 -0.4793  1.1077  0.2470
  377MOL0     C50765   7.764   1.499   6.831 -0.1872 -0.3002  0.1444
  377MOL0     C50766   7.642   1.452   6.782 -0.9899 -0.2818 -0.6371
  377MOL0     C50767   7.629   1.417   6.643 -0.1711  0.7180 -0.6131
  377MOL0     O50768   7.501   1.392   6.598 -0.2260  1.2100 -0.2085
  377MOL0     C50769   7.483   1.351   6.463 -0.1542 -0.2208  0.1751
  377MOL0     C50770   7.339   1.313   6.418  0.7520  0.0604  0.2411
  377MOL0     C50771   7.277   1.213   6.521  0.6355 -1.4044  0.1812
  377MOL0     C50772   7.137   1.168   6.472 -0.5693  0.6729 -0.0103
  377MOL0     C50773   7.075   1.076   6.571 -0.2551  0.4988 -0.0459
  377MOL0     C50774   6.936   1.039   6.527  0.1939 -0.4458 -0.2179
  377MOL0     C50775   6.873   0.945   6.630  0.8172  0.4826  0.5366
  377MOL0     C50776   6.734   0.898   6.586  0.3925  0.5595 -0.2392
  377MOL0     N50777   6.652   0.871   6.700  0.2140  0.0066  0.1030
  377MOL0     C50778   6.516   0.882   6.712  0.2285  0.1176 -0.4825
  377MOL0     C50779   6.484   0.853   6.840 -0.7346 -0.0296 -0.2524
  377MOL0     C50780   6.355   0.869   6.912  0.1985  0.2122  0.7320
  377MOL0     C50781   6.299   0.728   6.932 -0.3114 -0.2780 -0.8792
  377MOL0     C50782   6.149   0.734   6.952  0.1550  0.2934 -0.1026
  377MOL0     C50783   6.108   0.587   6.964  0.1026  0.7111 -0.0342
  377MOL0     O50784   5.970   0.585   6.939 -0.7654  0.0831 -0.3962
  377MOL0     C50785   5.895   0.496   7.014 -0.6908 -0.0141  0.8277
  377MOL0     C50786   5.942   0.366   7.041  0.0920 -0.8506  0.9083
  377MOL0     C50787   5.865   0.268   7.107 -0.9901 -0.4619 -0.0575
  377MOL0     C50788   5.931   0.138   7.124  0.2531 -0.2925  0.0226
  377MOL0     C50789   5.742   0.299   7.161 -0.3066  0.2872 -0.5357
  377MOL0     C50790   5.662   0.206   7.239  0.2058 -0.4725 -0.5802
  377MOL0     O50791   5.531   0.235   7.243 -0.5670 -0.4195 -0.3442
  377MOL0     C50792   5.454   0.160   7.335  0.1762  0.9696 -0.4015
  377MOL0     C50793   5.345   0.085   7.288 -0.0788 -0.2352  0.0114
  377MOL0     C50794   5.262   0.007   7.367  0.0931 -0.2315  0.4997
  377MOL0     C50795   5.275   0.018   7.508  0.2769  0.3146  0.1920
  377MOL0     O50796   5.184  -0.047   7.584 -0.3436  0.5647  0.6811
  377MOL0     C50797   5.136   0.012   7.708  0.1822 -0.4202  0.0068
  377MOL0     C50798   4.982  -0.011   7.733 -0.4505 -0.2312 -0.2168
  377MOL0     C50799   4.903  -0.024   7.604  0.2030 -0.1066 -0.3138
  377MOL0     C50800   4.864   0.111   7.548  0.0449 -0.0633 -0.1884
  377MOL0     C50801   4.719   0.099   7.480  0.6808 -0.3089  0.2553
  377MOL0     C50802   4.599   0.092   7.581 -0.4329  0.4120  0.2981
  377MOL0     C50803   4.604   0.218   7.686  0.4963 -0.2670  0.1004
  377MOL0     C50804   4.457   0.236   7.743 -0.3923 -0.1294  0.2360
  377MOL0    Cl50805   4.358   0.288   7.599 -0.2431 -0.0875  0.0024
  377MOL0     C50806   5.386   0.082   7.562 -0.4527 -0.6170 -0.8319
  377MOL0     C50807   5.474   0.158   7.472 -0.1371  0.1927  0.8818
  377MOL0     O50808   5.717   0.119   7.309  0.3566 -0.0638 -0.5958
  377MOL0     C50809   5.692   0.418   7.115  0.2863 -0.2656 -0.4583
  377MOL0     C50810   5.764   0.515   7.049  0.6973  0.2510  0.0680
  377MOL0     N50811   6.598   0.800   6.902  0.0143  0.5789  0.2718
  377MOL0     N50812   6.694   0.810   6.821  0.1563 -0.8233 -0.2056
  377MOL0     C50813   7.741   1.436   6.557  0.0376 -0.0254 -0.6005
  377MOL0     C50814   7.862   1.482   6.601  0.1231  0.6899 -0.1893
  377MOL0     C50815   8.152   1.705   6.886  0.3754  0.2797  0.2882
  377MOL0     C50816   8.206   1.830   6.891 -0.4438  0.0070  0.3074
  377MOL0     C50817   8.329   1.854   6.961 -0.5785  0.1586 -0.2426
  377MOL0     C50818   8.402   1.754   7.024  0.4155  0.0951  0.3461
  377MOL0     O50819   8.521   1.787   7.081  0.3775 -0.2286  0.1966
  377MOL0     C50820   8.618   1.846   6.989 -1.0821  0.4520 -0.1589
  377MOL0     C50821   8.675   1.746   6.892 -0.3256 -0.6421  0.4985
  377MOL0     C50822   8.758   1.821   6.789 -0.0785 -0.3636  0.6379
  377MOL0     C50823   8.805   1.708   6.690 -0.1411 -0.0717 -0.0728
  377MOL0     C50824   8.892   1.772   6.591 -0.4731  1.0302 -0.0114
  377MOL0     C50825   8.967   1.804   6.502 -0.1983  0.6764  0.5358
  377MOL0     C50826   8.348   1.628   7.019 -0.3718 -0.9029 -0.7353
  377MOL0     C50827   8.227   1.600   6.954  0.0397  0.0310 -0.3676
  377MOL0     H50828   7.777   1.527   6.935  0.2404 -1.8720  0.5434
  377MOL0     H50829   7.554   1.446   6.845  0.0378 -0.0288  0.8797
  377MOL0     H50830   7.508   1.440   6.404  0.1688 -1.0519 -0.9748
  377MOL0     H50831   7.555   1.274   6.434 -1.5703 -0.4583 -3.1584
  377MOL0     H50832   7.273   1.400   6.414  1.0716  0.2814 -0.3163
  377MOL0     H50833   7.333   1.268   6.318 -1.8911 -1.3494  0.9392
  377MOL0     H50834   7.342   1.125   6.522 -0.7410 -2.4635 -0.6849
  377MOL0     H50835   7.276   1.252   6.624  0.3521  0.3696 -0.4700
  377MOL0     H50836   7.066   1.244   6.439  0.5792  0.5664 -3.1400
  377MOL0     H50837   7.158   1.126   6.373  3.2736  0.5043  0.7108
  377MOL0     H50838   7.140   0.991   6.593  0.6374  1.1030 -0.2482
  377MOL0     H50839   7.064   1.125   6.669 -1.3864  3.6092 -1.5895
  377MOL0     H50840   6.883   1.135   6.517  4.4658  2.7338  3.4711
  377MOL0     H50841   6.929   0.980   6.436  2.4738 -0.5565 -0.3820
  377MOL0     H50842   6.942   0.862   6.649 -0.0625 -0.4122 -0.0895
  377MOL0     H50843   6.854   0.999   6.724  1.0142  0.0103  0.8519
  377MOL0     H50844   6.747   0.818   6.513  2.1313 -1.3023  1.9497
  377MOL0     H50845   6.682   0.971   6.524 -0.3260 -1.4902 -2.1691
  377MOL0     H50846   6.450   0.905   6.629 -0.8035  1.2439  0.6188
  377MOL0     H50847   6.365   0.922   7.008 -1.8248  2.1504 -0.0608
  377MOL0     H50848   6.291   0.926   6.845  1.2607  0.3244 -0.2081
  377MOL0     H50849   6.341   0.689   7.025  0.2238  1.2361 -0.4507
  377MOL0     H50850   6.329   0.662   6.851 -0.3956 -0.2253 -0.9533
  377MOL0     H50851   6.113   0.795   6.868  0.8912  0.7955 -0.0557
  377MOL0     H50852   6.117   0.794   7.038  0.5818  0.6904 -0.2198
  377MOL0     H50853   6.135   0.573   7.069 -0.6068 -0.0964  0.0537
  377MOL0     H50854   6.157   0.515   6.899  0.3306 -1.7000  2.6064
  377MOL0     H50855   6.035   0.344   6.990 -2.0887 -0.8065 -3.7052
  377MOL0     H50856   5.974   0.126   7.224  1.0076  0.8978 -0.1395
  377MOL0     H50857   5.876   0.043   7.120  1.0347 -0.7373 -0.3818
  377MOL0     H50858   6.010   0.126   7.049  0.1679 -0.5655 -0.0240
  377MOL0     H50859   5.332   0.080   7.180 -1.1266 -0.4017  0.1318
  377MOL0     H50860   5.183  -0.045   7.313 -0.0349  0.7912 -0.3349
  377MOL0     H50861   5.194  -0.031   7.790  2.6917 -2.0274 -2.4164
  377MOL0     H50862   5.145   0.120   7.719 -0.4256 -0.6108  3.3087
  377MOL0     H50863   4.978  -0.105   7.790  4.3246 -0.5706 -0.1189
  377MOL0     H50864   4.949   0.067   7.803  1.0924 -0.7084  1.0986
  377MOL0     H50865   4.812  -0.075   7.636 -0.7813  0.4691 -2.0331
  377MOL0     H50866   4.937  -0.089   7.523 -1.4087  2.9225 -3.7175
  377MOL0     H50867   4.873   0.198   7.614 -0.7225 -0.3135  0.2493
  377MOL0     H50868   4.939   0.129   7.471  1.1089 -0.2061  0.7840
  377MOL0     H50869   4.723   0.012   7.413 -2.9403 -0.4028 -0.0399
  377MOL0     H50870   4.689   0.180   7.414  0.5505  0.2501  0.9846
  377MOL0     H50871   4.510   0.092   7.518 -1.5521  2.1784  1.7832
  377MOL0     H50872   4.597  -0.001   7.640 -1.3619  0.0016 -0.3543
  377MOL0     H50873   4.627   0.306   7.626 -0.1909 -0.5322 -0.5626
  377MOL0     H50874   4.676   0.216   7.769 -1.6493 -1.6015  2.0535
  377MOL0     H50875   4.458   0.303   7.830 -1.6968 -1.1589  1.0828
  377MOL0     H50876   4.414   0.143   7.781 -0.0009 -1.2032 -1.8028
  377MOL0     H50877   5.413   0.088   7.667  1.4118 -1.6268 -1.1991
  377MOL0     H50878   5.544   0.233   7.508 -0.0454  1.0247 -0.9409
  377MOL0     H50879   5.589   0.448   7.134  0.8402  0.6527  1.2895
  377MOL0     H50880   5.717   0.611   7.033 -1.6567 -0.5883  1.3456
  377MOL0     H50881   7.748   1.416   6.451  1.6877  0.4076 -0.5998
  377MOL0     H50882   7.942   1.489   6.528  0.1316  1.8045 -0.0909
  377MOL0     H50883   8.145   1.915   6.863 -0.9640 -0.5414 -0.2501
  377MOL0     H50884   8.355   1.959   6.971 -0.6908 -0.0514  3.8494
  377MOL0     H50885   8.568   1.927   6.935 -0.6467 -0.0407 -1.3311
  377MOL0     H50886   8.692   1.891   7.055  0.9260 -0.7559 -1.4872
  377MOL0     H50887   8.595   1.683   6.850 -0.3101 -1.5591  1.7912
  377MOL0     H50888   8.741   1.674   6.941 -0.3455  0.5680  2.4267
  377MOL0     H50889   8.842   1.867   6.841  0.2968  0.2598 -0.4740
  377MOL0     H50890   8.701   1.903   6.744 -1.2283 -1.3114  0.3113
  377MOL0     H50891   8.722   1.657   6.639  0.7593  3.2323 -5.7451
  377MOL0     H50892   8.862   1.640   6.754  1.6252  1.4205  0.0201
  377MOL0     H50893   9.026   1.823   6.415 -0.0868 -0.3205  0.3798
  377MOL0     H50894   8.409   1.545   7.053  0.6176  1.0601  2.6765
  377MOL0     H50895   8.192   1.498   6.961  1.4689 -0.4592  0.0283
  378MOL0     O50896   5.669   1.779   9.960  0.3957  0.9408 -0.9760
  378MOL0     C50897   5.568   1.785   9.893 -0.6440  0.0799 -0.0595
  378MOL0     O50898   5.566   1.824   9.767  0.1839  0.3771  0.5624
  378MOL0     C50899   5.686   1.854   9.701  0.2918 -0.0265 -0.4374
  378MOL0     C50900   5.684   1.957   9.608  0.1932  0.5555 -0.2321
  378MOL0     C50901   5.801   1.992   9.538 -0.3028 -0.3794 -0.1589
  378MOL0     C50902   5.912   1.915   9.544 -1.0302  0.4073 -0.2244
  378MOL0     O50903   6.037   1.930   9.489  0.2813  0.8558 -0.8515
  378MOL0     C50904   6.061   2.025   9.395 -0.5336 -0.1179 -0.2411
  378MOL0     C50905   6.209   2.066   9.384  0.4743 -0.9468  0.4396
  378MOL0     C50906   6.246   2.188   9.300 -0.2696  0.3315 -0.2389
  378MOL0     C50907   6.395   2.199   9.302 -0.1112 -0.0817  0.0402
  378MOL0     C50908   6.446   2.304   9.196 -0.0313  0.2489 -0.2757
  378MOL0     C50909   6.364   2.435   9.187 -0.4196 -1.0682 -0.7659
  378MOL0     C50910   6.435   2.547   9.112 -0.8848 -0.7924  0.0034
  378MOL0     C50911   6.352   2.670   9.091  0.1277 -0.8169 -0.2778
  378MOL0     N50912   6.243   2.661   8.993  0.1361 -0.7528 -0.3218
  378MOL0     C50913   6.112   2.686   9.029 -0.0747  0.5463  0.4506
  378MOL0     C50914   6.037   2.650   8.921  0.3046 -0.0007 -0.8375
  378MOL0     C50915   5.894   2.638   8.893  0.7131 -0.7920 -0.2412
  378MOL0     C50916   5.816   2.757   8.947 -0.8948  0.8369 -0.4857
  378MOL0     C50917   5.671   2.747   8.895 -0.1770  0.4270  0.3534
  378MOL0     C50918   5.600   2.874   8.868 -0.0534  0.4262  0.2911
  378MOL0     O50919   5.473   2.834   8.819  0.2258  0.4722  0.6066
  378MOL0     C50920   5.374   2.924   8.835 -0.4972 -0.3295 -0.0990
  378MOL0     C50921   5.247   2.887   8.877  0.0881  0.1243 -0.3782
  378MOL0     C50922   5.137   2.978   8.882 -0.3124  0.0687 -0.1450
  378MOL0     C50923   5.011   2.929   8.950  0.3797 -0.2485 -1.8648
  378MOL0     C50924   5.149   3.115   8.841  0.0865 -0.5903  0.4067
  378MOL0     C50925   5.045   3.223   8.851 -0.0356  0.3102 -0.0719
  378MOL0     O50926   4.919   3.190   8.884 -0.3168  0.5202  0.4888
  378MOL0     C50927   4.819   3.279   8.901 -0.1625 -0.4407  0.8424
  378MOL0     C50928   4.688   3.245   8.864 -0.2223  0.3412 -0.3113
  378MOL0     C50929   4.579   3.330   8.897 -0.2663 -0.0545  0.5957
  378MOL0     C50930   4.599   3.452   8.958  0.6390  1.0901 -0.9576
  378MOL0     O50931   4.502   3.549   8.976 -0.2899  0.2458  0.3550
  378MOL0     C50932   4.376   3.505   9.022 -0.1005  0.3524 -0.1245
  378MOL0     C50933   4.306   3.631   9.073 -0.3074 -0.1575 -0.2566
  378MOL0     C50934   4.196   3.593   9.174 -0.4477  0.2269 -0.5154
  378MOL0     C50935   4.102   3.708   9.185  0.2260  1.0407  1.3478
  378MOL0     C50936   3.997   3.710   9.069 -0.3160  0.1804  0.4112
  378MOL0     C50937   3.892   3.817   9.075 -0.2048  0.0119 -0.0457
  378MOL0     C50938   3.764   3.779   8.984  0.4395 -0.0776 -0.7230
  378MOL0     C50939   3.667   3.902   8.983 -0.2403 -0.1136  0.2685
  378MOL0    Cl50940   3.748   4.038   8.903  0.4348 -0.5705 -0.2130
  378MOL0     C50941   4.726   3.494   8.991  0.9716 -0.2141 -0.9468
  378MOL0     C50942   4.838   3.404   8.959  0.0935  1.4722 -0.5386
  378MOL0     O50943   5.091   3.340   8.836 -0.4453  0.1498 -0.3386
  378MOL0     C50944   5.275   3.150   8.791  0.5739 -0.3800 -0.1424
  378MOL0     C50945   5.388   3.060   8.796 -0.3679  0.5981  0.0303
  378MOL0     N50946   6.131   2.627   8.821  0.0068 -0.7105 -0.2833
  378MOL0     N50947   6.249   2.640   8.862  0.0621  0.0384 -0.3340
  378MOL0     C50948   5.906   1.803   9.634 -0.3355 -0.5954 -0.2664
  378MOL0     C50949   5.801   1.774   9.712 -0.5094 -0.7363  0.9591
  378MOL0     C50950   5.439   1.756   9.962  0.6448 -0.0407 -0.9588
  378MOL0     C50951   5.316   1.797   9.910  0.0565 -0.1797 -0.2883
  378MOL0     C50952   5.198   1.769   9.980 -0.2076 -0.3135 -0.0803
  378MOL0     C50953   5.200   1.716  10.103  0.6430 -0.5216  0.2895
  378MOL0     O50954   5.079   1.708  10.177 -0.3541 -0.6619 -0.2587
  378MOL0     C50955   5.006   1.587  10.140 -0.7168  0.2642  0.2409
  378MOL0     C50956   5.016   1.493  10.261  0.4065 -0.3756 -0.1422
  378MOL0     C50957   4.938   1.363  10.239  0.0308  0.4174  0.1732
  378MOL0     C50958   4.790   1.370  10.260 -0.4788 -0.3186 -0.3906
  378MOL0     C50959   4.736   1.388  10.390 -0.2502  0.0245 -0.4301
  378MOL0     C50960   4.673   1.418  10.481  0.0521  0.7251 -1.0470
  378MOL0     C50961   5.323   1.694  10.162 -0.3046  0.0028 -0.1581
  378MOL0     C50962   5.445   1.707  10.096 -0.1708  0.0047 -0.9310
  378MOL0     H50963   5.589   2.010   9.594  0.4141  0.8383 -0.7151
  378MOL0     H50964   5.807   2.074   9.468 -0.8530  0.0420  0.2861
  378MOL0     H50965   6.025   1.998   9.295 -1.3980 -1.0752  0.3176
  378MOL0     H50966   6.010   2.117   9.426 -2.5955 -1.0357 -0.7359
  378MOL0     H50967   6.235   2.089   9.488 -1.3572  2.0415  0.3673
  378MOL0     H50968   6.258   1.977   9.343  0.0288 -0.6033 -0.8762
  378MOL0     H50969   6.216   2.171   9.196 -1.4732  1.4268 -0.1028
  378MOL0     H50970   6.196   2.281   9.331  0.0836  0.5223 -0.2429
  378MOL0     H50971   6.423   2.236   9.401 -0.2366  2.3684 -0.7794
  378MOL0     H50972   6.444   2.102   9.289 -0.0383 -0.1771  0.9645
  378MOL0     H50973   6.550   2.336   9.208 -0.3133  1.4642 -0.8444
  378MOL0     H50974   6.445   2.249   9.101 -3.9715  0.2724 -0.3840
  378MOL0     H50975   6.260   2.417   9.158 -1.1186  0.5529  0.5862
  378MOL0     H50976   6.348   2.484   9.283 -0.8804  4.8946 -3.4452
  378MOL0     H50977   6.521   2.576   9.173 -0.1151 -1.4358 -0.7459
  378MOL0     H50978   6.467   2.509   9.014 -1.1112 -1.8418  0.3238
  378MOL0     H50979   6.411   2.760   9.071  1.2686 -1.7920 -1.3985
  378MOL0     H50980   6.311   2.702   9.188 -0.1477  0.4497 -0.7839
  378MOL0     H50981   6.071   2.717   9.125 -2.0118 -0.2049 -0.0715
  378MOL0     H50982   5.882   2.633   8.784 -1.4992 -0.5621 -0.0468
  378MOL0     H50983   5.857   2.546   8.938 -2.0423  0.3338  0.0020
  378MOL0     H50984   5.869   2.842   8.902  0.2362  0.0299 -0.7053
  378MOL0     H50985   5.833   2.764   9.055  1.2797 -0.9014 -0.6553
  378MOL0     H50986   5.621   2.699   8.979 -1.2542  2.0486  0.6861
  378MOL0     H50987   5.661   2.682   8.807 -0.8267 -1.4178  1.7434
  378MOL0     H50988   5.656   2.942   8.803 -0.2969 -0.3018 -0.7041
  378MOL0     H50989   5.587   2.930   8.961 -1.6384  0.5527  0.0300
  378MOL0     H50990   5.251   2.783   8.909  0.0654  0.5550  1.0686
  378MOL0     H50991   5.003   2.975   9.049 -1.0925  0.1040 -2.1275
  378MOL0     H50992   4.917   2.952   8.898  0.4568  1.8332 -1.1935
  378MOL0     H50993   5.016   2.824   8.977 -1.9139 -0.3133 -1.5489
  378MOL0     H50994   4.680   3.152   8.810 -1.3797  0.7801 -0.9437
  378MOL0     H50995   4.487   3.317   8.842  0.0400  1.2310 -0.2532
  378MOL0     H50996   4.321   3.446   8.947  0.8207 -3.4146  1.8970
  378MOL0     H50997   4.387   3.434   9.104 -2.4056  1.2389  1.0170
  378MOL0     H50998   4.367   3.699   9.132 -1.1655 -1.3025  2.0855
  378MOL0     H50999   4.259   3.686   8.991 -0.9501 -0.9286 -0.4193
  378MOL0     H51000   4.236   3.567   9.273  1.1389 -3.0556 -1.8484
  378MOL0     H51001   4.135   3.517   9.126 -1.7213  2.6578 -2.9978
  378MOL0     H51002   4.056   3.704   9.284  0.9905 -0.8110  1.6820
  378MOL0     H51003   4.171   3.793   9.175  0.7908  0.5089  0.4964
  378MOL0     H51004   3.934   3.621   9.075 -1.7735  1.2554  1.8458
  378MOL0     H51005   4.046   3.716   8.971  0.3291  1.5234  0.7876
  378MOL0     H51006   3.846   3.823   9.174  0.4562  3.3382  0.1706
  378MOL0     H51007   3.929   3.916   9.047  1.8828 -0.5129  0.6839
  378MOL0     H51008   3.716   3.697   9.037 -0.1164  0.7945  0.1567
  378MOL0     H51009   3.798   3.744   8.886  1.5652 -0.4457 -0.2237
  378MOL0     H51010   3.635   3.924   9.085 -0.5318 -1.1300  0.4062
  378MOL0     H51011   3.576   3.868   8.934 -0.3025 -0.4481  0.6171
  378MOL0     H51012   4.731   3.591   9.041 -0.7346 -0.9998  0.9022
  378MOL0     H51013   4.940   3.428   8.986 -0.0248  1.1005  0.2587
  378MOL0     H51014   5.294   3.254   8.766 -0.9030  0.2544  1.2175
  378MOL0     H51015   5.487   3.092   8.764  0.8327 -2.1287  0.7444
  378MOL0     H51016   5.991   1.737   9.650  0.1359 -0.3328 -1.6116
  378MOL0     H51017   5.794   1.679   9.762  1.4117 -2.2162 -1.3538
  378MOL0     H51018   5.312   1.828   9.806  0.2342  0.5218 -0.0881
  378MOL0     H51019   5.103   1.783   9.931 -1.2585  1.0293  2.1809
  378MOL0     H51020   4.898   1.602  10.127 -1.3515 -2.0998  2.0638
  378MOL0     H51021   5.048   1.538  10.051 -1.6803  0.0271 -0.0933
  378MOL0     H51022   4.970   1.540  10.348 -2.9167  1.5814 -2.7364
  378MOL0     H51023   5.125   1.483  10.265  0.5493  0.9984  3.6389
  378MOL0     H51024   4.979   1.286  10.305  0.8706 -1.9222 -2.8444
  378MOL0     H51025   4.955   1.326  10.138  0.0227 -1.9440  0.9607
  378MOL0     H51026   4.748   1.277  10.220  0.0530 -0.5414 -0.4400
  378MOL0     H51027   4.754   1.448  10.192 -0.0403  0.2114 -0.0232
  378MOL0     H51028   4.623   1.457  10.568  3.1227 -0.3277  1.3861
  378MOL0     H51029   5.313   1.663  10.265 -0.0150 -1.8306 -0.6421
  378MOL0     H51030   5.533   1.701  10.160 -1.7312  0.4970  1.3856
  379MOL0     O51031   0.552   6.363   8.254 -0.7242  0.0886 -0.3095
  379MOL0     C51032   0.614   6.277   8.178 -0.6346  0.6921 -0.2082
  379MOL0     O51033   0.550   6.202   8.085 -0.2856  0.7953  0.0617
  379MOL0     C51034   0.421   6.228   8.067 -0.1606 -0.0424 -0.0652
  379MOL0     C51035   0.388   6.327   7.979 -0.0718  0.7325  0.3278
  379MOL0     C51036   0.254   6.353   7.939 -0.0377 -0.1710 -0.4640
  379MOL0     C51037   0.148   6.276   7.997  0.6642 -0.0729  0.2068
  379MOL0     O51038   0.021   6.302   7.956 -0.9153 -0.4603 -0.3639
  379MOL0     C51039  -0.082   6.337   8.051 -1.0229 -0.5628  0.4272
  379MOL0     C51040  -0.215   6.272   8.029 -0.2932 -0.3674  0.3236
  379MOL0     C51041  -0.222   6.141   7.947  0.1815 -0.1536  0.3370
  379MOL0     C51042  -0.373   6.111   7.963 -0.5590 -0.0379  0.3093
  379MOL0     C51043  -0.421   5.980   7.892  0.3386  0.1444 -0.8012
  379MOL0     C51044  -0.571   5.935   7.920 -0.1748 -0.2052  0.0548
  379MOL0     C51045  -0.658   5.988   7.803 -0.7585  0.6423 -0.2270
  379MOL0     C51046  -0.796   5.923   7.807 -0.5354 -0.5489  0.0280
  379MOL0     N51047  -0.872   5.979   7.694  0.0551 -0.1484 -0.4560
  379MOL0     C51048  -0.971   6.073   7.703  1.0829  0.0730  0.2664
  379MOL0     C51049  -1.040   6.064   7.587 -0.4053  0.2549 -0.4278
  379MOL0     C51050  -1.156   6.146   7.548  0.0883  0.1569  0.8107
  379MOL0     C51051  -1.288   6.081   7.595 -0.0390 -0.3287 -0.0990
  379MOL0     C51052  -1.415   6.161   7.545 -0.2004  0.4589 -1.5485
  379MOL0     C51053  -1.554   6.105   7.575  0.2039  0.6674  0.4925
  379MOL0     O51054  -1.552   5.965   7.597  0.3456 -0.3671 -0.1793
  379MOL0     C51055  -1.671   5.929   7.663 -0.3910  0.0361  0.5640
  379MOL0     C51056  -1.658   5.854   7.777  0.6518  0.2084  0.8664
  379MOL0     C51057  -1.771   5.812   7.847  0.4743 -0.0593 -0.7774
  379MOL0     C51058  -1.764   5.738   7.976 -0.3439 -0.4145 -0.9597
  379MOL0     C51059  -1.900   5.829   7.779 -0.5196  0.4924 -0.3169
  379MOL0     C51060  -2.026   5.777   7.826 -0.1616 -0.1658 -0.7145
  379MOL0     O51061  -2.120   5.749   7.725 -0.2613  0.4106 -0.1276
  379MOL0     C51062  -2.248   5.702   7.735 -0.0918 -0.4452  0.4093
  379MOL0     C51063  -2.333   5.753   7.643  0.0850  0.9625 -0.1136
  379MOL0     C51064  -2.468   5.718   7.643 -0.3877 -0.1660 -0.2438
  379MOL0     C51065  -2.513   5.633   7.745 -0.1509 -0.2820  0.1070
  379MOL0     O51066  -2.647   5.602   7.727 -0.2669 -0.1179  0.1633
  379MOL0     C51067  -2.706   5.527   7.842 -0.4056  0.9260  0.0001
  379MOL0     C51068  -2.846   5.474   7.800  0.4519  0.3753 -0.4056
  379MOL0     C51069  -2.839   5.368   7.693 -0.6021 -0.2607 -0.7376
  379MOL0     C51070  -2.971   5.317   7.627  0.0352 -0.0474  0.5485
  379MOL0     C51071  -3.057   5.246   7.731  0.4793 -0.5393 -0.9919
  379MOL0     C51072  -3.184   5.180   7.682 -0.3029 -0.7714  0.3906
  379MOL0     C51073  -3.299   5.280   7.653 -0.0952 -0.4977  1.0446
  379MOL0     C51074  -3.436   5.206   7.640  0.4199 -0.7713 -0.1406
  379MOL0    Cl51075  -3.428   5.079   7.512 -0.0298  0.4352 -0.0254
  379MOL0     C51076  -2.423   5.593   7.847  0.2798  1.1747 -0.0657
  379MOL0     C51077  -2.288   5.613   7.832 -0.2666  0.1022 -0.0839
  379MOL0     O51078  -2.047   5.763   7.948 -0.6223 -0.1395 -0.1542
  379MOL0     C51079  -1.914   5.910   7.668 -0.2629 -0.7639  0.0936
  379MOL0     C51080  -1.795   5.949   7.608  0.3350 -0.0253  0.1537
  379MOL0     N51081  -0.966   5.975   7.511  0.6629  0.0418 -0.1685
  379MOL0     N51082  -0.870   5.917   7.579 -0.1474  0.1650  0.7277
  379MOL0     C51083   0.189   6.176   8.083  0.1759  0.1375  1.0971
  379MOL0     C51084   0.316   6.152   8.118 -0.3228  0.4599  0.2426
  379MOL0     C51085   0.759   6.256   8.184  0.0355 -0.6131  0.3435
  379MOL0     C51086   0.842   6.338   8.260  0.3040  0.7390 -0.1390
  379MOL0     C51087   0.982   6.334   8.268 -0.2521 -0.7154 -0.4356
  379MOL0     C51088   1.042   6.226   8.193 -0.2520  0.0154  0.2044
  379MOL0     O51089   1.181   6.208   8.180 -0.1463  0.2597 -0.0020
  379MOL0     C51090   1.275   6.285   8.260 -0.3283 -1.1672 -0.1532
  379MOL0     C51091   1.390   6.181   8.284 -0.1605 -0.1272  0.5258
  379MOL0     C51092   1.520   6.252   8.333 -0.2539 -0.0917  0.1101
  379MOL0     C51093   1.587   6.175   8.455  1.1713 -0.4364 -0.6282
  379MOL0     C51094   1.729   6.198   8.456 -0.4055  0.2365 -0.1090
  379MOL0     C51095   1.848   6.197   8.463  0.3575 -0.4315 -0.8392
  379MOL0     C51096   0.961   6.154   8.112 -0.2295  0.2665 -0.0606
  379MOL0     C51097   0.825   6.161   8.108  0.0840 -0.4203 -0.1940
  379MOL0     H51098   0.472   6.373   7.928  0.9684  0.9814  2.2084
  379MOL0     H51099   0.231   6.430   7.866  2.3731  2.9888  1.8175
  379MOL0     H51100  -0.037   6.304   8.145  1.0581 -1.9086 -0.9424
  379MOL0     H51101  -0.107   6.443   8.050  0.6491 -0.1081 -1.7728
  379MOL0     H51102  -0.253   6.251   8.129 -0.9007  0.8336  0.3603
  379MOL0     H51103  -0.283   6.347   7.987  2.4746  1.9138 -0.3971
  379MOL0     H51104  -0.197   6.170   7.845 -0.8752  1.1277  0.4213
  379MOL0     H51105  -0.150   6.063   7.976 -0.9737 -1.3488  0.0668
  379MOL0     H51106  -0.408   6.105   8.066 -2.8648 -0.2601 -0.4199
  379MOL0     H51107  -0.423   6.201   7.928  0.8060  1.4586  2.0483
  379MOL0     H51108  -0.402   5.979   7.784 -2.5148 -1.3537 -1.3646
  379MOL0     H51109  -0.365   5.894   7.930 -1.1915 -0.3299  0.4759
  379MOL0     H51110  -0.567   5.826   7.923  1.4699 -0.1381  1.7905
  379MOL0     H51111  -0.606   5.970   8.018 -0.2880 -2.2450  0.7848
  379MOL0     H51112  -0.680   6.095   7.814 -3.3291  0.0168  1.7955
  379MOL0     H51113  -0.611   5.958   7.709  1.9648 -2.6932  1.9546
  379MOL0     H51114  -0.832   5.954   7.906  1.4276 -1.7394  1.2013
  379MOL0     H51115  -0.786   5.815   7.794  0.7533 -0.3129 -1.2938
  379MOL0     H51116  -1.013   6.116   7.794 -0.4393 -1.6877  0.4475
  379MOL0     H51117  -1.153   6.247   7.589  3.2258 -0.2644  1.8996
  379MOL0     H51118  -1.163   6.155   7.439  1.7057  1.9642  0.8055
  379MOL0     H51119  -1.299   6.067   7.703  0.6607  2.2553  0.3761
  379MOL0     H51120  -1.290   5.985   7.543 -0.2189  1.2440 -3.2371
  379MOL0     H51121  -1.409   6.161   7.436  1.1706  1.0876 -1.5043
  379MOL0     H51122  -1.420   6.265   7.579  0.1264 -0.1631  0.5716
  379MOL0     H51123  -1.613   6.132   7.487  3.4560 -1.6818 -2.7383
  379MOL0     H51124  -1.584   6.162   7.663  1.5457  1.5692  0.4008
  379MOL0     H51125  -1.555   5.829   7.800 -0.0979 -2.9501  1.2724
  379MOL0     H51126  -1.830   5.789   8.046 -0.0168 -0.7431 -0.3979
  379MOL0     H51127  -1.808   5.638   7.968 -2.1506 -0.5791  5.3868
  379MOL0     H51128  -1.660   5.744   8.010 -1.5159  1.4342  2.8448
  379MOL0     H51129  -2.310   5.827   7.568  0.6787  0.2745 -0.6221
  379MOL0     H51130  -2.531   5.754   7.563 -0.0332 -0.4939 -0.6700
  379MOL0     H51131  -2.648   5.438   7.868  2.1972  2.5904  0.2977
  379MOL0     H51132  -2.719   5.590   7.930  1.0071  0.6554  0.4368
  379MOL0     H51133  -2.896   5.430   7.887  0.3927 -1.2314 -1.2196
  379MOL0     H51134  -2.904   5.563   7.774  0.6854  1.4797  2.4593
  379MOL0     H51135  -2.793   5.280   7.739 -2.5134 -1.6144 -1.2543
  379MOL0     H51136  -2.777   5.403   7.611 -1.1983  0.4319 -0.8952
  379MOL0     H51137  -3.030   5.388   7.570 -0.5343 -1.8172 -1.1600
  379MOL0     H51138  -2.935   5.243   7.555  2.7522  2.9721 -1.4417
  379MOL0     H51139  -3.082   5.328   7.799  2.6595 -1.0942  0.6044
  379MOL0     H51140  -3.011   5.173   7.798 -0.9685 -0.8833 -0.3419
  379MOL0     H51141  -3.157   5.125   7.591 -0.2296 -1.0950  0.6050
  379MOL0     H51142  -3.217   5.108   7.757  0.0594  0.5474  1.8554
  379MOL0     H51143  -3.270   5.337   7.565  0.1187  0.5666  1.7876
  379MOL0     H51144  -3.310   5.353   7.733 -1.7242  1.2205 -0.6354
  379MOL0     H51145  -3.520   5.269   7.607  0.2765 -0.4617  0.7697
  379MOL0     H51146  -3.476   5.156   7.729  0.1543 -3.0253 -1.4612
  379MOL0     H51147  -2.451   5.532   7.933 -1.7680  1.2139 -0.6673
  379MOL0     H51148  -2.215   5.584   7.906 -3.1962 -0.8240  2.6531
  379MOL0     H51149  -2.008   5.932   7.620 -1.2901 -1.1997  1.8223
  379MOL0     H51150  -1.803   6.004   7.515 -0.9939  4.1035  2.4647
  379MOL0     H51151   0.124   6.113   8.143 -1.6866 -1.3596 -2.2106
  379MOL0     H51152   0.342   6.065   8.176 -2.5700 -0.3734  0.0928
  379MOL0     H51153   0.809   6.425   8.317  2.3062  0.3910  1.6566
  379MOL0     H51154   1.036   6.408   8.326 -1.1627 -0.0827 -0.3816
  379MOL0     H51155   1.319   6.373   8.211  0.7415 -1.6567 -0.0958
  379MOL0     H51156   1.233   6.303   8.359 -1.1171 -0.1992 -0.6354
  379MOL0     H51157   1.423   6.130   8.194 -0.3763  0.6038  0.0207
  379MOL0     H51158   1.356   6.108   8.358  1.4315 -0.2686  1.1637
  379MOL0     H51159   1.493   6.353   8.364 -3.1081 -0.3973 -1.0416
  379MOL0     H51160   1.592   6.270   8.252 -0.0595  0.1537  0.3376
  379MOL0     H51161   1.567   6.067   8.446 -0.6594 -0.1622 -0.3577
  379MOL0     H51162   1.546   6.220   8.546 -0.4910  1.3928 -2.1915
  379MOL0     H51163   1.954   6.198   8.477  0.3381  1.6714 -0.4319
  379MOL0     H51164   1.016   6.084   8.051 -0.2981  2.0971 -2.3362
  379MOL0     H51165   0.768   6.106   8.034 -1.1499  1.1897 -0.5057
  380MOL0     O51166   0.179   5.482  10.559 -0.1319  0.3268  0.3819
  380MOL0     C51167   0.182   5.545  10.662  0.3019 -0.7843  0.3933
  380MOL0     O51168   0.089   5.550  10.753 -0.4085  0.3139 -0.4382
  380MOL0     C51169  -0.044   5.521  10.729  0.8907 -0.1506  0.2674
  380MOL0     C51170  -0.098   5.394  10.710 -0.6985 -0.4158 -0.1518
  380MOL0     C51171  -0.233   5.371  10.691  0.0562 -0.3039 -0.4170
  380MOL0     C51172  -0.320   5.484  10.684  0.4887  1.4061  0.0075
  380MOL0     O51173  -0.448   5.467  10.637 -0.7621  0.1485 -0.5365
  380MOL0     C51174  -0.463   5.370  10.531 -0.0101  0.1013  0.5151
  380MOL0     C51175  -0.544   5.420  10.406  0.4725 -0.1814 -0.1137
  380MOL0     C51176  -0.664   5.501  10.456 -0.3509 -0.0284 -0.1650
  380MOL0     C51177  -0.787   5.481  10.370 -0.5768 -0.5624 -0.2341
  380MOL0     C51178  -0.910   5.521  10.457 -0.0392 -0.3922  0.0238
  380MOL0     C51179  -1.049   5.513  10.386 -0.0397  0.0183 -0.4119
  380MOL0     C51180  -1.089   5.364  10.368 -0.8177  0.1551  0.0669
  380MOL0     C51181  -1.236   5.342  10.344 -0.6792  0.5276  0.0321
  380MOL0     N51182  -1.326   5.387  10.446 -0.2060  0.3098 -0.0785
  380MOL0     C51183  -1.330   5.315  10.564  0.0578 -0.8466 -0.1586
  380MOL0     C51184  -1.417   5.390  10.641 -0.5291 -1.0667 -0.1926
  380MOL0     C51185  -1.435   5.374  10.791  0.4095 -0.2955 -0.1296
  380MOL0     C51186  -1.523   5.256  10.840  0.0362  0.0964 -0.4143
  380MOL0     C51187  -1.677   5.272  10.796 -0.6266  0.4716 -0.9607
  380MOL0     C51188  -1.739   5.391  10.871  0.2910 -0.9872  0.3049
  380MOL0     O51189  -1.879   5.389  10.847 -0.3101 -0.2948  0.3259
  380MOL0     C51190  -1.943   5.491  10.907 -0.1379 -0.5244  0.4815
  380MOL0     C51191  -2.079   5.494  10.866  0.2038 -0.2132  0.2191
  380MOL0     C51192  -2.169   5.587  10.934 -0.2515 -1.0024 -0.8268
  380MOL0     C51193  -2.319   5.571  10.935  0.1772 -0.0161  0.0974
  380MOL0     C51194  -2.114   5.693  11.015 -0.1056  0.1168 -0.4027
  380MOL0     C51195  -2.193   5.804  11.085 -0.2888  0.5700 -0.4204
  380MOL0     O51196  -2.131   5.892  11.162  0.1757  0.3575  0.3378
  380MOL0     C51197  -2.173   6.026  11.170 -0.8412  0.4723  0.0641
  380MOL0     C51198  -2.180   6.075  11.295 -0.0173 -0.7429  0.5435
  380MOL0     C51199  -2.257   6.195  11.305 -0.1513  0.4323  0.2458
  380MOL0     C51200  -2.309   6.263  11.191 -0.1627 -0.2450  0.5330
  380MOL0     O51201  -2.372   6.385  11.187  0.0110 -0.9667  0.1968
  380MOL0     C51202  -2.517   6.379  11.224  0.0150 -0.4227 -0.1325
  380MOL0     C51203  -2.541   6.432  11.365 -0.3912  0.6054  0.3611
  380MOL0     C51204  -2.529   6.578  11.377 -0.2483 -0.5376  0.6395
  380MOL0     C51205  -2.503   6.605  11.525 -0.0296  0.1662  0.0248
  380MOL0     C51206  -2.499   6.763  11.542 -0.0062 -0.4050 -0.1918
  380MOL0     C51207  -2.487   6.808  11.689  0.4771  0.1143 -0.6355
  380MOL0     C51208  -2.462   6.959  11.711  0.0556  0.4789  0.4583
  380MOL0     C51209  -2.471   6.982  11.859 -0.2653  0.2866  0.8337
  380MOL0    Cl51210  -2.642   6.983  11.902  0.4386 -0.1289 -0.2366
  380MOL0     C51211  -2.285   6.207  11.063 -0.1766  0.4978 -0.4699
  380MOL0     C51212  -2.214   6.091  11.054 -0.1414 -0.2672  0.3763
  380MOL0     O51213  -2.312   5.800  11.069  0.1134  0.0897  0.2219
  380MOL0     C51214  -1.981   5.689  11.052  0.0841 -0.2093 -0.7676
  380MOL0     C51215  -1.899   5.591  10.999  0.8615 -0.3564 -0.1192
  380MOL0     N51216  -1.466   5.499  10.570  0.5034 -0.3983  0.9629
  380MOL0     N51217  -1.412   5.495  10.457 -0.6857 -0.2946  0.3511
  380MOL0     C51218  -0.269   5.612  10.704  1.2535  0.1933  0.0506
  380MOL0     C51219  -0.137   5.628  10.739 -0.3267  0.1919 -0.6675
  380MOL0     C51220   0.303   5.631  10.684 -0.2270  0.0186  0.1050
  380MOL0     C51221   0.321   5.725  10.786  0.4087  0.3989 -0.3321
  380MOL0     C51222   0.438   5.798  10.801 -0.1668 -0.8091 -0.1363
  380MOL0     C51223   0.543   5.780  10.717 -0.1072  0.2567  0.4337
  380MOL0     O51224   0.674   5.836  10.713  0.2665  0.1916 -0.1365
  380MOL0     C51225   0.719   5.929  10.816  0.5145 -0.4823  0.5135
  380MOL0     C51226   0.873   5.921  10.832  0.3268 -0.2661  0.3655
  380MOL0     C51227   0.945   5.964  10.705  0.4474 -0.5033 -0.6316
  380MOL0     C51228   1.095   5.993  10.736 -0.4885  0.7473 -0.0707
  380MOL0     C51229   1.169   5.867  10.771  0.1953 -0.2165 -0.2683
  380MOL0     C51230   1.227   5.768  10.811 -0.1069 -0.8357 -0.0180
  380MOL0     C51231   0.528   5.682  10.613 -0.7132  0.2647  0.6465
  380MOL0     C51232   0.414   5.612  10.602  0.0514 -0.0170 -0.4960
  380MOL0     H51233  -0.029   5.312  10.725 -0.2815  0.3680  2.8759
  380MOL0     H51234  -0.271   5.274  10.660  1.4883 -1.1326  0.3339
  380MOL0     H51235  -0.372   5.323  10.491  0.0167  0.5491  0.0509
  380MOL0     H51236  -0.513   5.286  10.581 -2.3291  1.5228  0.7330
  380MOL0     H51237  -0.477   5.484  10.348  0.3551 -0.6164 -0.7361
  380MOL0     H51238  -0.573   5.336  10.343 -0.9851  0.5494 -0.4647
  380MOL0     H51239  -0.675   5.464  10.559  1.2460 -1.0675 -0.3268
  380MOL0     H51240  -0.644   5.607  10.469 -0.3348 -0.1930  1.3232
  380MOL0     H51241  -0.784   5.546  10.283 -2.8089 -0.8692 -0.5812
  380MOL0     H51242  -0.799   5.377  10.337 -3.0373  0.1173 -1.7159
  380MOL0     H51243  -0.898   5.471  10.554  0.4906  0.3188  0.3320
  380MOL0     H51244  -0.893   5.624  10.489 -0.8793 -0.0426 -0.6366
  380MOL0     H51245  -1.125   5.562  10.448 -1.6630  1.4987 -3.3402
  380MOL0     H51246  -1.043   5.556  10.286  2.6332  0.6645 -0.0373
  380MOL0     H51247  -1.031   5.319  10.287 -1.6036 -0.5748 -0.1106
  380MOL0     H51248  -1.056   5.317  10.461  0.8759  0.0169 -0.5748
  380MOL0     H51249  -1.248   5.236  10.320  0.5356  0.4329 -0.1904
  380MOL0     H51250  -1.251   5.409  10.259  1.1303  2.2207  0.9558
  380MOL0     H51251  -1.271   5.226  10.582 -1.0938 -2.5808 -3.9308
  380MOL0     H51252  -1.333   5.367  10.831 -0.5843 -0.3600  2.5866
  380MOL0     H51253  -1.472   5.469  10.830  1.2028  0.2617 -0.6868
  380MOL0     H51254  -1.510   5.254  10.948  0.5128  0.7469 -0.4579
  380MOL0     H51255  -1.489   5.154  10.818 -0.5337 -0.9159  2.8657
  380MOL0     H51256  -1.731   5.182  10.826  0.5725  0.6141  1.9074
  380MOL0     H51257  -1.698   5.284  10.689  0.1744  2.9433 -0.8919
  380MOL0     H51258  -1.696   5.490  10.855  1.8150 -0.8700  4.1849
  380MOL0     H51259  -1.717   5.362  10.974  2.5151  0.0970  0.1937
  380MOL0     H51260  -2.118   5.419  10.798 -0.4809  0.6496 -0.3567
  380MOL0     H51261  -2.357   5.651  10.872  1.5201  0.4047 -0.2121
  380MOL0     H51262  -2.343   5.473  10.892  0.3797  0.1427 -0.3751
  380MOL0     H51263  -2.360   5.562  11.036 -1.2202 -3.9563 -0.6457
  380MOL0     H51264  -2.133   6.040  11.387  2.3676  0.3936 -0.1686
  380MOL0     H51265  -2.264   6.226  11.409  1.0239 -3.1070  1.5131
  380MOL0     H51266  -2.579   6.429  11.149 -1.1087 -1.2667  0.1915
  380MOL0     H51267  -2.557   6.277  11.215 -0.8307 -0.0850 -0.2989
  380MOL0     H51268  -2.643   6.412  11.401 -0.9488  0.5451 -1.1783
  380MOL0     H51269  -2.461   6.382  11.420 -0.0928  0.1130 -0.5033
  380MOL0     H51270  -2.621   6.626  11.341  0.2463 -0.0313  0.0284
  380MOL0     H51271  -2.446   6.620  11.319 -1.8750  0.5139 -1.0540
  380MOL0     H51272  -2.586   6.565  11.583  0.9489 -0.3222  1.1292
  380MOL0     H51273  -2.408   6.558  11.552  0.1207  0.9121  0.8292
  380MOL0     H51274  -2.588   6.798  11.489 -0.4373 -3.3946 -1.6500
  380MOL0     H51275  -2.406   6.801  11.497  0.6792  1.8414  2.8275
  380MOL0     H51276  -2.579   6.784  11.743  1.0953 -0.3427  0.2476
  380MOL0     H51277  -2.402   6.747  11.720  0.4001 -1.1081 -2.7067
  380MOL0     H51278  -2.531   7.017  11.650 -0.9762 -1.7510 -0.6266
  380MOL0     H51279  -2.359   6.981  11.681 -0.2091 -0.9204 -1.6477
  380MOL0     H51280  -2.429   7.079  11.886 -0.3397 -0.0803  2.3714
  380MOL0     H51281  -2.405   6.924  11.924  0.0520  0.7331  0.9125
  380MOL0     H51282  -2.313   6.267  10.977 -0.0493  1.8918  0.4262
  380MOL0     H51283  -2.210   6.056  10.951 -1.8555  1.6560 -0.4075
  380MOL0     H51284  -1.946   5.759  11.128  1.2980  0.1678 -1.6556
  380MOL0     H51285  -1.801   5.586  11.044  1.5013  1.2511 -1.2287
  380MOL0     H51286  -0.342   5.692  10.703 -2.4237 -2.8851  0.7215
  380MOL0     H51287  -0.088   5.722  10.759  0.1391 -0.0651 -0.5948
  380MOL0     H51288   0.247   5.739  10.863 -0.7022 -1.1670 -1.0506
  380MOL0     H51289   0.452   5.855  10.893 -1.2222 -2.4108  1.0725
  380MOL0     H51290   0.688   6.027  10.778  0.0723 -0.9401 -0.3424
  380MOL0     H51291   0.671   5.903  10.911 -0.7931  0.1677  0.0467
  380MOL0     H51292   0.899   5.820  10.864  1.2510 -0.1489  0.0125
  380MOL0     H51293   0.908   5.989  10.911 -0.0206  1.0532 -0.5850
  380MOL0     H51294   0.900   6.055  10.664  0.4734 -0.7629 -1.2563
  380MOL0     H51295   0.933   5.886  10.629  2.0928 -0.3747 -1.0718
  380MOL0     H51296   1.113   6.058  10.822  2.7435 -0.3324  0.2035
  380MOL0     H51297   1.140   6.044  10.650 -0.9459  0.7552 -0.3127
  380MOL0     H51298   1.273   5.681  10.855  2.6393  0.2922 -0.4512
  380MOL0     H51299   0.614   5.663  10.551 -1.0325  0.2403  0.2093
  380MOL0     H51300   0.423   5.531  10.530 -1.3498  0.1694 -0.9070
  381MOL0     O51301   5.546   8.546   1.035  0.6706  0.5567 -0.2989
  381MOL0     C51302   5.604   8.553   1.142  0.4852 -0.9224  0.9787
  381MOL0     O51303   5.548   8.557   1.266  0.7046 -0.1580 -0.2873
  381MOL0     C51304   5.414   8.534   1.275 -0.7398  0.5437  0.0478
  381MOL0     C51305   5.350   8.610   1.378  0.1297 -0.0733  0.4132
  381MOL0     C51306   5.219   8.594   1.412  0.1712  0.6173  1.1030
  381MOL0     C51307   5.141   8.496   1.350 -0.0884  0.7430 -0.4415
  381MOL0     O51308   5.014   8.491   1.390 -0.1999  0.3635 -0.2059
  381MOL0     C51309   4.961   8.359   1.395 -0.8287  0.2385 -0.5148
  381MOL0     C51310   4.825   8.373   1.463 -0.1267 -0.0086 -0.0776
  381MOL0     C51311   4.732   8.472   1.399 -0.2269 -0.3732 -0.8576
  381MOL0     C51312   4.634   8.509   1.500 -0.0138 -0.3179 -0.3906
  381MOL0     C51313   4.513   8.592   1.454  0.8125  0.0774  0.3535
  381MOL0     C51314   4.390   8.568   1.546 -0.5839 -0.3776 -0.1845
  381MOL0     C51315   4.272   8.649   1.483 -0.4850 -0.1505 -0.7029
  381MOL0     C51316   4.153   8.650   1.574  0.4669  0.0372 -0.2186
  381MOL0     N51317   4.029   8.696   1.517  0.1902 -0.5995  0.1815
  381MOL0     C51318   3.954   8.789   1.580  0.2024 -1.2647  0.6790
  381MOL0     C51319   3.866   8.833   1.486 -0.0960 -0.2590 -0.9010
  381MOL0     C51320   3.741   8.925   1.500 -0.3222  0.0169 -0.2030
  381MOL0     C51321   3.619   8.850   1.562  0.0453  0.4825  0.4882
  381MOL0     C51322   3.508   8.938   1.613 -0.3608 -0.0110 -0.3347
  381MOL0     C51323   3.458   9.055   1.524 -0.1535  0.1135 -0.2561
  381MOL0     O51324   3.359   9.116   1.610 -0.6982 -0.4267  0.1890
  381MOL0     C51325   3.295   9.220   1.552 -0.4292  0.0606  0.2868
  381MOL0     C51326   3.310   9.353   1.586 -0.1230 -0.5313 -0.3672
  381MOL0     C51327   3.246   9.458   1.516  0.4140  0.2033  0.9974
  381MOL0     C51328   3.292   9.590   1.558 -0.3978  0.7617 -0.7622
  381MOL0     C51329   3.146   9.427   1.416 -0.4839 -0.1459 -0.6426
  381MOL0     C51330   3.063   9.539   1.352  0.3204 -0.5709  0.3107
  381MOL0     O51331   2.954   9.493   1.274 -0.9181 -0.0764 -0.1251
  381MOL0     C51332   2.871   9.589   1.221  0.7403  0.0164 -0.3032
  381MOL0     C51333   2.733   9.591   1.262  0.3095 -0.5088  0.1501
  381MOL0     C51334   2.648   9.687   1.218  0.0443 -0.4973 -0.5963
  381MOL0     C51335   2.691   9.783   1.125  0.4195 -0.4428  0.7397
  381MOL0     O51336   2.612   9.887   1.095  0.4311  0.4916  0.2052
  381MOL0     C51337   2.608   9.927   0.958  0.6956 -0.8672  0.5449
  381MOL0     C51338   2.471   9.972   0.916 -0.2432 -0.0683  0.1901
  381MOL0     C51339   2.376   9.858   0.871 -0.3215  0.0808 -1.0656
  381MOL0     C51340   2.297   9.804   0.994 -0.0844 -0.1678  0.4296
  381MOL0     C51341   2.194   9.694   0.972 -0.8283  0.4420  0.1359
  381MOL0     C51342   2.063   9.750   0.919  0.0896  0.3589  0.3381
  381MOL0     C51343   1.941   9.657   0.934  0.4337 -0.4811 -0.1190
  381MOL0     C51344   1.813   9.731   0.887  0.8593 -0.5718 -0.4544
  381MOL0    Cl51345   1.678   9.621   0.913  0.0975 -0.0251 -0.0067
  381MOL0     C51346   2.824   9.787   1.098  0.2731 -0.8140  0.4065
  381MOL0     C51347   2.912   9.694   1.141 -0.4843  0.7427 -0.1703
  381MOL0     O51348   3.100   9.657   1.352 -0.4738 -0.0918 -0.2739
  381MOL0     C51349   3.125   9.290   1.389  0.1157 -0.7546  0.3315
  381MOL0     C51350   3.198   9.192   1.452 -1.0160  0.5963 -0.0818
  381MOL0     N51351   3.913   8.783   1.366  0.2769  0.0602 -0.3528
  381MOL0     N51352   4.014   8.701   1.384  0.3956  0.3710 -0.6356
  381MOL0     C51353   5.203   8.418   1.249  1.1008  0.1409 -0.7004
  381MOL0     C51354   5.337   8.431   1.209  0.3767 -0.2735  0.5895
  381MOL0     C51355   5.748   8.574   1.118 -0.4010  0.4465  0.0401
  381MOL0     C51356   5.846   8.542   1.224 -0.3069 -0.2699  0.3526
  381MOL0     C51357   5.984   8.558   1.209  0.3217  0.0311 -0.0576
  381MOL0     C51358   6.039   8.607   1.099  0.0122  0.5701  0.5992
  381MOL0     O51359   6.173   8.633   1.082 -0.6010 -0.4306  0.0272
  381MOL0     C51360   6.222   8.724   0.982  0.4028 -0.0386  0.5079
  381MOL0     C51361   6.377   8.749   0.981  0.1596  0.4364  0.8057
  381MOL0     C51362   6.425   8.775   1.121  0.2462 -0.4664  0.1114
  381MOL0     C51363   6.575   8.762   1.127  0.6319 -0.1349 -0.0176
  381MOL0     C51364   6.631   8.823   1.238 -0.1968  0.1616  0.8186
  381MOL0     C51365   6.676   8.873   1.337 -1.3162 -0.0642 -0.2038
  381MOL0     C51366   5.945   8.633   0.989  0.1314  0.0100 -0.1702
  381MOL0     C51367   5.806   8.617   1.002  0.2776  0.1011  0.3731
  381MOL0     H51368   5.400   8.693   1.426 -0.7172  1.1079 -0.6873
  381MOL0     H51369   5.168   8.657   1.483 -0.0575  1.6882  0.0307
  381MOL0     H51370   4.954   8.307   1.299 -1.3571  1.4436 -1.1524
  381MOL0     H51371   5.027   8.291   1.450  0.9184  1.5602 -0.8815
  381MOL0     H51372   4.785   8.271   1.468  0.1859 -0.0740  3.0383
  381MOL0     H51373   4.838   8.403   1.568 -0.1915  1.8604 -0.5682
  381MOL0     H51374   4.779   8.563   1.361 -1.1497 -0.1103 -1.4049
  381MOL0     H51375   4.682   8.413   1.321 -2.0795 -1.6896  1.2133
  381MOL0     H51376   4.603   8.425   1.562 -2.3568  0.7838  0.0512
  381MOL0     H51377   4.673   8.567   1.584 -0.4930 -1.3577  0.5801
  381MOL0     H51378   4.539   8.698   1.465 -0.2721  0.4714 -0.7232
  381MOL0     H51379   4.482   8.567   1.353 -2.0554 -1.1535  1.4352
  381MOL0     H51380   4.366   8.461   1.547  0.7400 -0.7933 -2.7971
  381MOL0     H51381   4.423   8.600   1.645  0.0657  0.5856 -0.7073
  381MOL0     H51382   4.309   8.751   1.463  1.8081 -0.1713  2.5655
  381MOL0     H51383   4.242   8.611   1.385 -2.0931 -2.1688  0.4922
  381MOL0     H51384   4.187   8.692   1.669  0.3932  1.4811 -0.8066
  381MOL0     H51385   4.132   8.546   1.600  0.8758  0.4174  1.8401
  381MOL0     H51386   3.942   8.803   1.687 -3.0019  2.5385  0.0589
  381MOL0     H51387   3.776   9.016   1.551 -0.0945 -0.0920 -0.1602
  381MOL0     H51388   3.720   8.965   1.400  2.0630 -1.0184 -1.2160
  381MOL0     H51389   3.651   8.781   1.640  1.9292  0.7067 -0.0284
  381MOL0     H51390   3.577   8.782   1.487 -2.7278  0.8997  1.5550
  381MOL0     H51391   3.535   8.982   1.709  3.7628  1.7691 -2.0713
  381MOL0     H51392   3.418   8.878   1.624 -1.8271  2.4208  2.1278
  381MOL0     H51393   3.403   9.017   1.437 -0.5578 -0.2282  0.1395
  381MOL0     H51394   3.541   9.120   1.496  0.9607 -0.6041  1.2362
  381MOL0     H51395   3.366   9.376   1.676 -3.0921  1.0626  1.2301
  381MOL0     H51396   3.205   9.654   1.577  1.0834  3.6062 -2.8460
  381MOL0     H51397   3.356   9.596   1.646 -1.1146 -1.1953 -0.0644
  381MOL0     H51398   3.337   9.635   1.469  0.3754  4.2011  1.1682
  381MOL0     H51399   2.697   9.508   1.322 -1.7805 -1.2956 -2.0588
  381MOL0     H51400   2.547   9.687   1.260  0.6224 -0.8307  0.8644
  381MOL0     H51401   2.667  10.018   0.939 -2.8568  1.6105  0.3954
  381MOL0     H51402   2.634   9.852   0.883  0.3689  0.6419 -1.1582
  381MOL0     H51403   2.430  10.035   0.996 -1.4086  1.9968 -1.9121
  381MOL0     H51404   2.493  10.033   0.827  1.0347  0.0299  0.5443
  381MOL0     H51405   2.432   9.774   0.830  0.0085 -0.2368 -0.0177
  381MOL0     H51406   2.317   9.887   0.784  0.4375 -0.6243 -1.8338
  381MOL0     H51407   2.364   9.762   1.069  1.8148  0.2015 -0.9933
  381MOL0     H51408   2.260   9.886   1.057  1.1641  2.1436 -1.6686
  381MOL0     H51409   2.180   9.638   1.064  0.7435  0.6425  0.5110
  381MOL0     H51410   2.225   9.620   0.897 -0.6798  0.8130 -0.1781
  381MOL0     H51411   2.036   9.843   0.969  0.8942  1.1050 -0.5680
  381MOL0     H51412   2.078   9.780   0.814  0.7069  0.6801  0.5136
  381MOL0     H51413   1.929   9.624   1.038  3.3293  2.5423  1.3594
  381MOL0     H51414   1.941   9.569   0.868 -0.9059 -0.2637 -0.4401
  381MOL0     H51415   1.820   9.744   0.779  2.4878 -3.5721 -0.8143
  381MOL0     H51416   1.799   9.827   0.938 -4.2848 -1.6712  0.6685
  381MOL0     H51417   2.869   9.859   1.031  1.0561 -1.6080  0.0482
  381MOL0     H51418   3.017   9.692   1.113 -0.2653 -1.9136  0.6062
  381MOL0     H51419   3.044   9.255   1.326  1.1541 -0.0914 -1.4221
  381MOL0     H51420   3.181   9.086   1.441  0.6581 -0.0380  2.5976
  381MOL0     H51421   5.141   8.340   1.205 -2.3245  1.7651  0.7951
  381MOL0     H51422   5.379   8.372   1.128 -2.9350  1.1915 -2.4751
  381MOL0     H51423   5.787   8.516   1.312 -0.3934 -0.4827  0.2316
  381MOL0     H51424   6.052   8.538   1.291  1.1984  0.9847 -0.5440
  381MOL0     H51425   6.194   8.679   0.886  2.1971 -2.1138  0.8826
  381MOL0     H51426   6.181   8.820   1.014  0.6390  0.1254  0.3242
  381MOL0     H51427   6.402   8.836   0.920  0.9509 -0.1766  0.2284
  381MOL0     H51428   6.424   8.659   0.939 -0.5929 -0.7381  2.3775
  381MOL0     H51429   6.386   8.704   1.195  0.3678  0.4181  1.0390
  381MOL0     H51430   6.393   8.873   1.156  2.3452 -0.8313  3.4443
  381MOL0     H51431   6.630   8.798   1.039  1.7843  0.0012  0.7254
  381MOL0     H51432   6.602   8.656   1.124  1.6648  0.1307 -0.8440
  381MOL0     H51433   6.695   8.930   1.426 -3.4780  2.3705 -1.1891
  381MOL0     H51434   5.987   8.657   0.892  1.4107  0.6155  0.5082
  381MOL0     H51435   5.749   8.632   0.911  1.1376  0.4680 -0.1137
  382MOL0     O51436   6.000   6.362   7.920  0.2541 -0.0483 -0.3107
  382MOL0     C51437   6.005   6.459   7.993  0.4232 -0.7581 -0.1610
  382MOL0     O51438   5.891   6.524   8.034  1.2178 -0.2378  1.2141
  382MOL0     C51439   5.777   6.451   8.011  1.2844  0.3426 -0.7626
  382MOL0     C51440   5.745   6.324   8.073  0.5896 -0.9642  0.2140
  382MOL0     C51441   5.624   6.262   8.044 -0.6804  0.3912  0.2776
  382MOL0     C51442   5.532   6.316   7.946 -0.2028  0.3014  0.0705
  382MOL0     O51443   5.408   6.268   7.895  0.1142 -0.0947 -0.7906
  382MOL0     C51444   5.366   6.146   7.974  0.6093 -0.4631  0.2273
  382MOL0     C51445   5.224   6.153   8.032 -0.1672 -0.1808  0.0840
  382MOL0     C51446   5.121   6.215   7.939 -1.1686 -0.1645 -0.2552
  382MOL0     C51447   4.986   6.164   7.958 -0.5242  1.0740 -0.6814
  382MOL0     C51448   4.877   6.181   7.846  0.6137 -0.2638  0.2218
  382MOL0     C51449   4.872   6.319   7.789 -0.0073  0.0874 -0.3857
  382MOL0     C51450   4.750   6.348   7.704  0.5013  0.8536 -0.4207
  382MOL0     C51451   4.746   6.482   7.630 -0.2933 -0.0605 -0.2185
  382MOL0     N51452   4.766   6.596   7.721 -0.4166  0.4393  0.5607
  382MOL0     C51453   4.697   6.641   7.824  0.1088  0.1899  0.2520
  382MOL0     C51454   4.777   6.729   7.893  0.1817 -0.6167  0.4966
  382MOL0     C51455   4.742   6.809   8.019 -0.8586 -0.2336  0.0758
  382MOL0     C51456   4.661   6.928   7.983 -0.5105  0.5051 -0.0307
  382MOL0     C51457   4.654   7.028   8.095 -0.8772  0.4474  0.2642
  382MOL0     C51458   4.596   7.158   8.059  0.3732 -0.6267  1.5350
  382MOL0     O51459   4.452   7.142   8.052 -0.4888 -0.6051 -0.6031
  382MOL0     C51460   4.378   7.234   7.986  0.5455  0.0333 -0.2969
  382MOL0     C51461   4.423   7.357   7.925  0.1225  0.0910  0.8504
  382MOL0     C51462   4.341   7.437   7.839  0.5863 -0.6669 -0.3397
  382MOL0     C51463   4.397   7.557   7.759  0.3354  0.2563  0.0626
  382MOL0     C51464   4.200   7.400   7.836  0.6558 -0.5352  0.4141
  382MOL0     C51465   4.089   7.475   7.768 -0.5930 -0.2611 -1.1356
  382MOL0     O51466   3.957   7.459   7.819 -0.5862  0.0796 -0.0814
  382MOL0     C51467   3.850   7.519   7.756 -0.1279  0.6248  0.2598
  382MOL0     C51468   3.853   7.616   7.660  0.8381 -0.0613  0.3029
  382MOL0     C51469   3.734   7.669   7.622  0.3164  0.0298  0.6596
  382MOL0     C51470   3.614   7.619   7.662  0.6018 -0.2434 -0.9312
  382MOL0     O51471   3.496   7.680   7.627 -0.5225  0.1003  0.1258
  382MOL0     C51472   3.368   7.633   7.670  0.4362  0.1291  0.2097
  382MOL0     C51473   3.263   7.714   7.587 -0.5582  0.0873 -0.3029
  382MOL0     C51474   3.123   7.673   7.640  0.5335  0.7488 -0.0815
  382MOL0     C51475   3.014   7.711   7.532 -1.0983  0.1437 -0.6472
  382MOL0     C51476   2.876   7.666   7.577 -0.2862  0.7932  0.2226
  382MOL0     C51477   2.755   7.727   7.499 -0.2390  0.3335  0.1124
  382MOL0     C51478   2.750   7.687   7.356 -0.0338  0.0937 -0.0824
  382MOL0     C51479   2.630   7.748   7.286 -0.5401 -0.4604 -0.0460
  382MOL0    Cl51480   2.657   7.930   7.265  0.0397 -0.2900  0.4881
  382MOL0     C51481   3.617   7.505   7.749  0.6203 -0.4193 -0.1331
  382MOL0     C51482   3.734   7.461   7.796 -0.2174 -0.4102 -0.2028
  382MOL0     O51483   4.125   7.530   7.669  0.6443  0.5031 -0.6946
  382MOL0     C51484   4.155   7.292   7.908  0.1065  0.0979 -0.4744
  382MOL0     C51485   4.241   7.207   7.985  0.1818 -0.1754  0.4886
  382MOL0     N51486   4.902   6.725   7.829 -0.6010 -0.3275  0.4410
  382MOL0     N51487   4.894   6.649   7.730 -0.1183  0.2091  0.0399
  382MOL0     C51488   5.571   6.438   7.894  0.8200 -0.6030  0.8125
  382MOL0     C51489   5.687   6.507   7.931 -0.0453  0.2544 -0.2456
  382MOL0     C51490   6.133   6.517   8.040  0.6801 -0.1514 -0.6961
  382MOL0     C51491   6.142   6.635   8.116 -0.2209  0.1861 -0.4507
  382MOL0     C51492   6.265   6.665   8.166 -0.2652  0.4043  0.2604
  382MOL0     C51493   6.383   6.587   8.151  0.3448 -0.8285 -0.4501
  382MOL0     O51494   6.506   6.632   8.203 -0.0339 -0.0211  0.2989
  382MOL0     C51495   6.545   6.563   8.322  0.1533  0.2436 -0.3510
  382MOL0     C51496   6.669   6.472   8.317  0.2634 -0.9329  0.1295
  382MOL0     C51497   6.778   6.551   8.240 -0.6798 -0.3343  0.2849
  382MOL0     C51498   6.919   6.487   8.263 -0.0673 -0.3852  0.8488
  382MOL0     C51499   6.945   6.364   8.188 -0.4810  0.1865 -0.0166
  382MOL0     C51500   6.959   6.261   8.130  0.2947  0.1350  1.3468
  382MOL0     C51501   6.367   6.482   8.071 -0.1866  0.9949  0.6017
  382MOL0     C51502   6.250   6.440   8.011  0.2686 -0.7123  0.1583
  382MOL0     H51503   5.822   6.280   8.135  0.3434  0.8329  1.8538
  382MOL0     H51504   5.614   6.163   8.087 -0.8147 -0.4724 -1.6017
  382MOL0     H51505   5.369   6.062   7.903  0.0655  0.8007 -1.3544
  382MOL0     H51506   5.424   6.116   8.061 -1.9244 -1.6240  1.6140
  382MOL0     H51507   5.191   6.052   8.058 -1.4421  0.7033  2.1209
  382MOL0     H51508   5.237   6.213   8.123  0.0531  0.3035 -0.2643
  382MOL0     H51509   5.115   6.323   7.953  0.9120  0.5797 -3.8443
  382MOL0     H51510   5.157   6.198   7.837  0.5276 -1.9951  0.5526
  382MOL0     H51511   4.989   6.063   7.999  1.0395  3.0174  4.8184
  382MOL0     H51512   4.943   6.214   8.045  0.4333  1.2237 -0.2801
  382MOL0     H51513   4.889   6.106   7.768  2.4406  0.0160  0.1955
  382MOL0     H51514   4.782   6.157   7.895 -0.9572  1.8405 -1.5777
  382MOL0     H51515   4.885   6.388   7.873 -1.2799 -1.9698  1.6299
  382MOL0     H51516   4.964   6.327   7.731  1.6032  1.7543  2.1811
  382MOL0     H51517   4.755   6.278   7.619 -2.1492 -1.0047  0.8110
  382MOL0     H51518   4.660   6.336   7.765  0.9896 -0.7163  0.0281
  382MOL0     H51519   4.652   6.490   7.575 -0.5432 -1.3784 -0.0101
  382MOL0     H51520   4.827   6.482   7.557 -0.3123  0.6160 -0.2423
  382MOL0     H51521   4.591   6.627   7.842  0.1845  0.1237  0.6542
  382MOL0     H51522   4.693   6.751   8.099  2.8913 -2.1403  1.2367
  382MOL0     H51523   4.831   6.832   8.078  0.1549  1.3676 -1.9582
  382MOL0     H51524   4.560   6.895   7.959 -1.1881  2.3282  0.1798
  382MOL0     H51525   4.695   6.976   7.891  0.6784 -0.6743 -0.2398
  382MOL0     H51526   4.750   7.060   8.137 -1.1213  2.4410 -0.5730
  382MOL0     H51527   4.591   6.983   8.172  0.0229  0.1433  0.8304
  382MOL0     H51528   4.623   7.196   7.960 -1.4583  0.5733  1.4580
  382MOL0     H51529   4.624   7.234   8.133  0.9662  0.3366  0.3556
  382MOL0     H51530   4.525   7.396   7.920 -0.1824  0.7881 -0.1233
  382MOL0     H51531   4.354   7.650   7.798 -1.9901 -0.5411 -0.4198
  382MOL0     H51532   4.504   7.549   7.739  0.4721  0.9311  0.4789
  382MOL0     H51533   4.366   7.563   7.654  3.9585  1.8384 -1.1006
  382MOL0     H51534   3.947   7.650   7.620  1.5432 -1.0370  1.0649
  382MOL0     H51535   3.740   7.746   7.545 -2.0567  1.5167  1.8526
  382MOL0     H51536   3.346   7.527   7.652  1.7196 -0.4048  1.5955
  382MOL0     H51537   3.342   7.645   7.776  0.9340 -3.6685  0.9200
  382MOL0     H51538   3.284   7.820   7.604  0.4088 -0.3856  1.9190
  382MOL0     H51539   3.262   7.686   7.482  1.4189 -2.5568  0.2784
  382MOL0     H51540   3.108   7.732   7.732 -1.8811  1.2589 -0.7466
  382MOL0     H51541   3.127   7.564   7.652 -0.2575  0.6539 -0.6212
  382MOL0     H51542   3.013   7.820   7.526 -1.7565  0.0968 -1.5257
  382MOL0     H51543   3.054   7.676   7.437  3.7055 -1.8986  1.7932
  382MOL0     H51544   2.865   7.697   7.681  0.2342  1.0032  0.2155
  382MOL0     H51545   2.873   7.558   7.559  2.9196  0.8725 -1.5181
  382MOL0     H51546   2.667   7.705   7.560 -0.3722  0.2069 -0.1255
  382MOL0     H51547   2.768   7.835   7.507 -3.6228  0.7353  2.2446
  382MOL0     H51548   2.742   7.578   7.356  2.6764 -0.1915 -1.1429
  382MOL0     H51549   2.841   7.723   7.305 -0.5669  0.0188 -1.1154
  382MOL0     H51550   2.535   7.728   7.336 -1.6795 -2.2853 -2.6927
  382MOL0     H51551   2.617   7.700   7.189 -0.7691 -0.5722  0.0395
  382MOL0     H51552   3.536   7.442   7.784  1.0718 -2.0968 -1.9407
  382MOL0     H51553   3.728   7.386   7.875 -1.5935  0.9602  1.0548
  382MOL0     H51554   4.050   7.264   7.910  0.0584  0.1967 -1.5169
  382MOL0     H51555   4.203   7.127   8.047 -1.8452  0.8456  0.6893
  382MOL0     H51556   5.512   6.473   7.809 -1.7059 -2.0315  1.8559
  382MOL0     H51557   5.709   6.602   7.883  1.7376  0.0327  0.0629
  382MOL0     H51558   6.060   6.702   8.139 -1.2269 -0.6093 -1.6254
  382MOL0     H51559   6.285   6.761   8.212 -0.5443  0.8424 -0.5029
  382MOL0     H51560   6.569   6.636   8.400 -0.1203  0.1081 -0.1382
  382MOL0     H51561   6.467   6.503   8.369  1.8373 -3.5665 -1.9495
  382MOL0     H51562   6.631   6.381   8.270 -0.8492 -0.8381  0.8182
  382MOL0     H51563   6.698   6.458   8.422 -2.7011  0.1370  1.1982
  382MOL0     H51564   6.791   6.648   8.289 -0.3268 -1.4257  2.4870
  382MOL0     H51565   6.754   6.574   8.136 -0.5600  0.0609  0.3431
  382MOL0     H51566   6.939   6.460   8.367  0.0322  2.4709  1.6379
  382MOL0     H51567   6.996   6.561   8.240  0.6739 -0.8383  1.7862
  382MOL0     H51568   6.970   6.161   8.094  1.8243  0.2459  1.4428
  382MOL0     H51569   6.457   6.428   8.044 -0.1483  0.6926  1.3164
  382MOL0     H51570   6.259   6.344   7.962 -0.1556 -0.8682  0.3865
  383MOL0     O51571  10.200  10.313   7.702 -0.1684 -0.0336  0.2993
  383MOL0     C51572  10.185  10.299   7.577  0.5109 -0.3251 -0.4058
  383MOL0     O51573  10.069  10.323   7.506  0.7680  0.3613  0.0463
  383MOL0     C51574   9.949  10.319   7.579 -0.2317  0.1007 -0.1683
  383MOL0     C51575   9.910  10.420   7.668  0.0168 -0.0375 -0.1307
  383MOL0     C51576   9.801  10.401   7.752  0.9413  0.0299 -0.1791
  383MOL0     C51577   9.732  10.280   7.747  0.2301 -0.2176 -1.0585
  383MOL0     O51578   9.624  10.248   7.825 -0.2334  0.4475  0.4127
  383MOL0     C51579   9.568  10.341   7.913  0.7652  0.3146  0.0094
  383MOL0     C51580   9.431  10.291   7.951 -0.1543 -0.1680  0.0219
  383MOL0     C51581   9.451  10.177   8.030 -0.0081  0.4880 -0.0832
  383MOL0     C51582   9.330  10.139   8.113  0.1059 -0.1720  0.3685
  383MOL0     C51583   9.343  10.018   8.197 -0.5133  0.1807  0.5299
  383MOL0     C51584   9.212   9.982   8.274  1.2689  0.4018  0.4434
  383MOL0     C51585   9.147  10.097   8.365 -0.1250 -0.3340 -0.4481
  383MOL0     C51586   9.023  10.053   8.447  0.0827  0.0611 -0.9008
  383MOL0     N51587   8.891  10.115   8.403 -0.6009 -0.0140 -0.2439
  383MOL0     C51588   8.870  10.249   8.390  0.5714 -0.7731  0.5295
  383MOL0     C51589   8.740  10.254   8.343 -0.1426 -0.5017 -0.5577
  383MOL0     C51590   8.674  10.382   8.299 -0.0479 -0.0109 -0.2156
  383MOL0     C51591   8.524  10.403   8.337 -0.3019  0.7064  0.1150
  383MOL0     C51592   8.515  10.446   8.487  0.2559  0.6232  0.1473
  383MOL0     C51593   8.371  10.463   8.534  0.3791 -1.2626  0.0128
  383MOL0     O51594   8.311  10.565   8.465  1.0878 -0.2542  0.2644
  383MOL0     C51595   8.192  10.620   8.509  0.7967 -0.3939 -0.1900
  383MOL0     C51596   8.100  10.666   8.420  0.6261  0.2077  0.0528
  383MOL0     C51597   7.971  10.720   8.453 -0.5884  0.3774  0.5995
  383MOL0     C51598   7.905  10.744   8.321 -0.1504 -0.4676 -0.7428
  383MOL0     C51599   7.948  10.749   8.587 -0.1415  0.2872 -0.4721
  383MOL0     C51600   7.818  10.805   8.624  0.3007 -0.1324 -0.2602
  383MOL0     O51601   7.786  10.792   8.759 -0.6516 -0.6098 -0.2011
  383MOL0     C51602   7.668  10.829   8.819 -0.4256 -0.7149 -0.7805
  383MOL0     C51603   7.540  10.816   8.762  0.4592 -0.2725 -0.5422
  383MOL0     C51604   7.431  10.852   8.844 -0.2056 -0.3301 -0.3148
  383MOL0     C51605   7.439  10.910   8.969 -0.8021 -0.3216  0.9955
  383MOL0     O51606   7.331  10.938   9.044 -0.5523  0.6215  0.3025
  383MOL0     C51607   7.268  10.839   9.117  0.1940 -0.0194  0.8203
  383MOL0     C51608   7.156  10.885   9.208  0.7799 -0.1267  0.8127
  383MOL0     C51609   7.070  10.769   9.269  0.6822  0.6496  0.0692
  383MOL0     C51610   6.914  10.796   9.282 -0.1737 -0.7585 -0.5478
  383MOL0     C51611   6.838  10.679   9.333  0.1082 -0.9305  0.5664
  383MOL0     C51612   6.688  10.710   9.338 -0.7365 -0.7262  0.2486
  383MOL0     C51613   6.614  10.694   9.209 -0.3400 -0.0137 -0.5020
  383MOL0     C51614   6.461  10.716   9.207 -0.4270  0.4510  0.1440
  383MOL0    Cl51615   6.384  10.593   9.332  0.3958  0.2742 -0.1698
  383MOL0     C51616   7.567  10.946   9.015 -0.2732 -1.0994 -0.5419
  383MOL0     C51617   7.680  10.901   8.940  1.2563 -0.1069  0.3016
  383MOL0     O51618   7.755  10.873   8.539  0.5582 -0.2508 -0.0565
  383MOL0     C51619   8.049  10.713   8.686  0.3778  0.5979 -0.2037
  383MOL0     C51620   8.168  10.644   8.644  0.0514  0.2330  0.1512
  383MOL0     N51621   8.694  10.128   8.339  0.0100  0.0714  0.3108
  383MOL0     N51622   8.778  10.049   8.387 -0.7776 -0.3678 -0.0637
  383MOL0     C51623   9.770  10.184   7.658  0.3840 -0.6053 -0.0213
  383MOL0     C51624   9.866  10.210   7.557 -0.3437  0.7682 -0.2209
  383MOL0     C51625  10.310  10.256   7.510 -0.4231 -0.0885  0.3126
  383MOL0     C51626  10.440  10.272   7.554  0.1384 -0.1020  0.8294
  383MOL0     C51627  10.549  10.210   7.501  0.4064  0.4507 -0.0833
  383MOL0     C51628  10.531  10.153   7.379 -1.0064  0.8855  0.5011
  383MOL0     O51629  10.630  10.087   7.311 -0.9432 -0.3861 -0.6891
  383MOL0     C51630  10.771  10.107   7.337 -0.1342  0.7153 -0.6687
  383MOL0     C51631  10.841  10.128   7.204  0.0877 -0.2744  0.0854
  383MOL0     C51632  10.846   9.999   7.113 -0.9696 -0.3112  0.1177
  383MOL0     C51633  10.951  10.039   7.002  0.0831  0.1979  0.0499
  383MOL0     C51634  10.946   9.941   6.898  0.7789  0.5190  0.2483
  383MOL0     C51635  10.928   9.870   6.801 -0.1857  0.9849  0.3579
  383MOL0     C51636  10.407  10.160   7.312  0.6295  0.3465 -0.4162
  383MOL0     C51637  10.294  10.211   7.380  0.0128  0.5858 -0.3839
  383MOL0     H51638   9.968  10.512   7.669  0.2581 -0.1681 -1.3928
  383MOL0     H51639   9.791  10.458   7.844 -2.8064 -1.8642  0.8098
  383MOL0     H51640   9.624  10.347   8.007  0.4022 -1.9354  0.4376
  383MOL0     H51641   9.563  10.438   7.862 -0.6210  0.1764 -0.1629
  383MOL0     H51642   9.370  10.370   7.996  1.6502  0.6509  1.1339
  383MOL0     H51643   9.386  10.260   7.856  1.2412  2.3182 -1.5619
  383MOL0     H51644   9.479  10.095   7.962  2.7794  2.9862 -2.2334
  383MOL0     H51645   9.525  10.200   8.108 -1.3571 -0.6618  1.5973
  383MOL0     H51646   9.318  10.218   8.188 -0.3324 -1.6701  1.9585
  383MOL0     H51647   9.244  10.133   8.046 -0.4998 -2.7315  1.2541
  383MOL0     H51648   9.372   9.933   8.136  1.4864 -0.1804  1.8903
  383MOL0     H51649   9.425  10.028   8.269 -0.8837  3.6842  0.6803
  383MOL0     H51650   9.137   9.953   8.199 -0.5623  4.4601  0.4738
  383MOL0     H51651   9.244   9.891   8.326  1.3269 -0.7144 -1.4434
  383MOL0     H51652   9.230  10.120   8.433  0.1578 -1.1598 -0.4957
  383MOL0     H51653   9.121  10.181   8.301 -3.4823  0.1783  1.3810
  383MOL0     H51654   9.035  10.071   8.554  0.4958 -0.2839 -0.8843
  383MOL0     H51655   9.010   9.945   8.442  2.2132 -0.2707 -0.2574
  383MOL0     H51656   8.930  10.336   8.413  0.1991 -0.2373 -0.4681
  383MOL0     H51657   8.728  10.464   8.348 -0.5789 -0.2222  0.7373
  383MOL0     H51658   8.674  10.412   8.194 -3.1994  1.7509  0.1424
  383MOL0     H51659   8.481  10.303   8.320  0.8058  0.1563  0.4576
  383MOL0     H51660   8.473  10.474   8.272 -1.2704  0.4249  0.5525
  383MOL0     H51661   8.576  10.535   8.505 -2.3751  2.3094  1.3845
  383MOL0     H51662   8.565  10.371   8.549 -1.3466 -0.0401  0.6878
  383MOL0     H51663   8.372  10.479   8.643 -0.0216  2.4465 -0.3971
  383MOL0     H51664   8.319  10.369   8.512 -0.5942 -1.1198  1.5303
  383MOL0     H51665   8.135  10.650   8.319 -0.0877  1.9208 -0.4928
  383MOL0     H51666   7.943  10.831   8.267 -1.9086  0.1783 -1.0209
  383MOL0     H51667   7.913  10.658   8.254 -1.9228 -0.1413 -1.4217
  383MOL0     H51668   7.802  10.767   8.350 -0.1653  0.8000 -1.7131
  383MOL0     H51669   7.540  10.774   8.662 -0.3208  2.4822 -1.7905
  383MOL0     H51670   7.333  10.837   8.799 -0.6334  0.3788  0.3601
  383MOL0     H51671   7.233  10.759   9.050  3.3285 -2.5009  1.8931
  383MOL0     H51672   7.340  10.780   9.175  0.8522 -2.7368 -2.3842
  383MOL0     H51673   7.191  10.951   9.288  0.9742 -3.5019  3.8085
  383MOL0     H51674   7.098  10.934   9.130 -0.5104 -2.3608  0.2839
  383MOL0     H51675   7.116  10.735   9.362  2.1909  0.7561 -0.6067
  383MOL0     H51676   7.081  10.693   9.191 -0.8153  2.2383 -1.7988
  383MOL0     H51677   6.897  10.885   9.344  0.4608 -1.6571  0.9701
  383MOL0     H51678   6.870  10.819   9.184 -0.1542  2.1295  0.0086
  383MOL0     H51679   6.884  10.668   9.432  0.4317  1.8618  0.7992
  383MOL0     H51680   6.851  10.586   9.277 -2.4282 -1.3322  0.5215
  383MOL0     H51681   6.648  10.654   9.423 -1.8429  0.4381  0.5323
  383MOL0     H51682   6.682  10.817   9.359 -0.6949 -0.7284  0.2728
  383MOL0     H51683   6.632  10.593   9.171  0.8395 -0.4481  1.0875
  383MOL0     H51684   6.651  10.774   9.144  1.3828  0.1066  0.5706
  383MOL0     H51685   6.420  10.704   9.106 -1.3873  0.0299  0.5654
  383MOL0     H51686   6.467  10.823   9.230  2.7352  0.6720 -1.2201
  383MOL0     H51687   7.572  10.998   9.110  0.9510 -0.2536 -1.0421
  383MOL0     H51688   7.782  10.926   8.970  1.6509 -0.5983 -0.5881
  383MOL0     H51689   8.039  10.738   8.791  1.1789  0.4495 -0.0861
  383MOL0     H51690   8.244  10.622   8.718  0.7683  1.2417 -0.2577
  383MOL0     H51691   9.717  10.089   7.656  0.0032 -0.4888  2.2667
  383MOL0     H51692   9.892  10.140   7.478  3.0269  0.2486  1.1475
  383MOL0     H51693  10.449  10.327   7.647  1.0770  3.3182 -1.1047
  383MOL0     H51694  10.635  10.214   7.567 -1.0847  1.6167  1.9016
  383MOL0     H51695  10.781  10.193   7.404  1.7972 -1.2276  1.7424
  383MOL0     H51696  10.808  10.020   7.391 -1.1128  1.6843  1.7114
  383MOL0     H51697  10.943  10.164   7.219  0.2614 -1.0323  0.8240
  383MOL0     H51698  10.787  10.210   7.156  0.8879  0.5519  0.5651
  383MOL0     H51699  10.757   9.952   7.069  0.9780 -2.0179 -2.3305
  383MOL0     H51700  10.897   9.924   7.174  0.5956  0.0254 -0.7029
  383MOL0     H51701  11.051  10.050   7.044 -0.5277  0.0052  1.6109
  383MOL0     H51702  10.927  10.140   6.967 -0.9853  0.5220  1.5953
  383MOL0     H51703  10.897   9.789   6.737 -0.9618 -0.5030  2.5246
  383MOL0     H51704  10.388  10.132   7.209  2.0251  0.9105 -0.8542
  383MOL0     H51705  10.197  10.209   7.333 -0.9754 -1.6586  1.5712
  384MOL0     O51706   8.016   0.157   1.692 -0.5452 -0.6811  0.2709
  384MOL0     C51707   8.089   0.108   1.610 -0.6400  0.8395 -0.0745
  384MOL0     O51708   8.050   0.048   1.496  0.1995  0.2379  0.1382
  384MOL0     C51709   7.923   0.055   1.463  0.8276  1.4186  0.1281
  384MOL0     C51710   7.881   0.158   1.372 -0.5640 -0.4732 -0.3828
  384MOL0     C51711   7.740   0.166   1.348 -0.3192 -0.5641 -1.0297
  384MOL0     C51712   7.648   0.072   1.408 -0.1854 -0.4085 -0.5059
  384MOL0     O51713   7.515   0.072   1.372 -0.5136 -0.2960 -0.0639
  384MOL0     C51714   7.430   0.134   1.469  0.8237  0.8016  0.2300
  384MOL0     C51715   7.274   0.138   1.425  0.6176  0.3468 -0.1099
  384MOL0     C51716   7.206   0.009   1.392  0.1528 -0.4553  1.1679
  384MOL0     C51717   7.050   0.025   1.366 -1.2372  0.0190  0.5335
  384MOL0     C51718   6.993  -0.114   1.361  0.9165  0.2933  0.6182
  384MOL0     C51719   6.845  -0.094   1.327 -0.7992 -0.5142 -0.3619
  384MOL0     C51720   6.776  -0.233   1.319 -0.4764 -0.0980 -0.3681
  384MOL0     C51721   6.709  -0.268   1.452 -0.3135  0.4039 -0.4073
  384MOL0     N51722   6.605  -0.361   1.432  0.1994  0.4393  0.5332
  384MOL0     C51723   6.494  -0.338   1.355 -0.5589 -0.0152 -0.3885
  384MOL0     C51724   6.418  -0.449   1.360  0.4436 -0.2044  0.5094
  384MOL0     C51725   6.275  -0.468   1.308 -0.1570 -0.2556 -0.1002
  384MOL0     C51726   6.200  -0.587   1.361 -0.5656  0.1003 -0.0241
  384MOL0     C51727   6.261  -0.720   1.296  0.4824 -0.2621  0.0525
  384MOL0     C51728   6.159  -0.841   1.299 -0.3407  0.2900 -0.1545
  384MOL0     O51729   6.036  -0.798   1.232  0.5155  0.2192 -0.5012
  384MOL0     C51730   5.924  -0.879   1.250  0.1871 -0.3303  0.8061
  384MOL0     C51731   5.802  -0.821   1.219  0.0464  0.0066 -0.4109
  384MOL0     C51732   5.680  -0.899   1.212  0.5407 -0.2970 -0.4195
  384MOL0     C51733   5.567  -0.825   1.148 -0.7420 -0.3472 -0.2817
  384MOL0     C51734   5.680  -1.028   1.269 -0.8787 -0.1357  0.5311
  384MOL0     C51735   5.559  -1.102   1.290 -0.3933 -0.1902 -0.2398
  384MOL0     O51736   5.437  -1.030   1.317  0.2486  0.1654  0.7319
  384MOL0     C51737   5.310  -1.088   1.325 -1.1719 -0.2989 -0.7496
  384MOL0     C51738   5.291  -1.227   1.317  0.0560  0.0207  0.3337
  384MOL0     C51739   5.162  -1.273   1.326  0.4710 -0.6077  0.8778
  384MOL0     C51740   5.050  -1.186   1.344  0.9928 -0.0642 -0.3428
  384MOL0     O51741   4.917  -1.223   1.365 -1.0068  0.8984 -0.3609
  384MOL0     C51742   4.897  -1.367   1.336  0.3078 -0.1908 -0.3876
  384MOL0     C51743   4.750  -1.418   1.333 -0.6208 -0.0343 -0.5996
  384MOL0     C51744   4.754  -1.570   1.382  0.3800 -0.8569 -0.2761
  384MOL0     C51745   4.736  -1.571   1.534  0.0666 -0.0908  0.5613
  384MOL0     C51746   4.725  -1.717   1.577  0.0082 -0.0597 -0.4055
  384MOL0     C51747   4.863  -1.781   1.587  0.2839 -0.0335 -0.4119
  384MOL0     C51748   4.854  -1.919   1.651 -0.1739  0.4839  0.0456
  384MOL0     C51749   4.988  -1.988   1.635  0.1391  0.5675  0.0440
  384MOL0    Cl51750   5.125  -1.894   1.712  0.3750  0.5136  0.4832
  384MOL0     C51751   5.075  -1.057   1.362  0.3214  0.8183  0.9207
  384MOL0     C51752   5.203  -0.996   1.350  0.5252  1.2503  0.3379
  384MOL0     O51753   5.579  -1.223   1.312  0.3126  0.1742 -0.2637
  384MOL0     C51754   5.805  -1.079   1.302 -0.8991  0.2841 -0.3275
  384MOL0     C51755   5.924  -1.008   1.293 -0.7514  0.2753 -0.8209
  384MOL0     N51756   6.477  -0.533   1.452 -0.1400 -0.5020 -0.3106
  384MOL0     N51757   6.585  -0.476   1.502  0.1122  0.3548 -0.3047
  384MOL0     C51758   7.692  -0.016   1.508 -0.3119  1.6123  1.6718
  384MOL0     C51759   7.829  -0.027   1.538  0.0119 -0.6485  0.0224
  384MOL0     C51760   8.231   0.096   1.641  0.4628 -0.0759  0.9485
  384MOL0     C51761   8.325   0.072   1.539  0.4047  0.1787 -0.3764
  384MOL0     C51762   8.457   0.035   1.576  0.1630  1.0214  0.2401
  384MOL0     C51763   8.505   0.050   1.706  0.2294  0.3435 -0.4142
  384MOL0     O51764   8.638   0.019   1.729 -0.7561  1.2405  0.5035
  384MOL0     C51765   8.686  -0.007   1.864 -0.5583  0.0228 -0.0504
  384MOL0     C51766   8.737   0.113   1.933  0.1906 -0.1442 -0.0766
  384MOL0     C51767   8.856   0.176   1.875  0.5261 -0.7397 -0.5886
  384MOL0     C51768   8.970   0.077   1.842 -0.0400 -0.7208  0.9712
  384MOL0     C51769   9.106   0.133   1.845 -0.3657 -0.0684 -0.0037
  384MOL0     C51770   9.221   0.177   1.851  0.1041 -0.3800  0.2980
  384MOL0     C51771   8.419   0.095   1.804  0.3294 -0.8395  0.9498
  384MOL0     C51772   8.285   0.106   1.771  0.7100 -0.6454  0.1475
  384MOL0     H51773   7.962   0.215   1.329 -0.6041 -0.6115 -0.6389
  384MOL0     H51774   7.690   0.231   1.277  1.8150  1.0704 -1.1724
  384MOL0     H51775   7.426   0.067   1.555 -2.3406  0.5688  0.0013
  384MOL0     H51776   7.461   0.235   1.499 -1.6022  2.0917 -1.2377
  384MOL0     H51777   7.211   0.173   1.507 -0.7022  0.9589 -1.3417
  384MOL0     H51778   7.256   0.208   1.342 -2.0039 -0.1916 -0.0641
  384MOL0     H51779   7.253  -0.038   1.306 -0.6321  1.5633 -0.4397
  384MOL0     H51780   7.227  -0.056   1.478 -0.6039 -1.8012  0.3562
  384MOL0     H51781   6.993   0.090   1.432 -0.1822 -0.2175  1.7065
  384MOL0     H51782   7.046   0.076   1.269 -0.7760  0.6325  0.8324
  384MOL0     H51783   7.041  -0.170   1.280  3.1622  2.5259  0.2798
  384MOL0     H51784   7.014  -0.172   1.451  2.8364  0.3612  0.2637
  384MOL0     H51785   6.793  -0.029   1.398 -1.3344 -1.4646  0.1474
  384MOL0     H51786   6.852  -0.050   1.228 -1.1758 -2.6295 -1.3917
  384MOL0     H51787   6.707  -0.232   1.234 -1.5243 -1.9580  0.3907
  384MOL0     H51788   6.853  -0.310   1.308  0.1725  0.3574  0.8422
  384MOL0     H51789   6.656  -0.184   1.496 -0.8136 -0.6171  0.9977
  384MOL0     H51790   6.786  -0.319   1.511 -0.3260  1.2453  0.3448
  384MOL0     H51791   6.474  -0.239   1.315 -0.6566 -0.5969 -1.8505
  384MOL0     H51792   6.213  -0.381   1.334  1.6276  0.6516  1.3819
  384MOL0     H51793   6.275  -0.473   1.199 -0.1913  0.7613 -0.1574
  384MOL0     H51794   6.100  -0.574   1.320  0.3764  3.6587 -1.5911
  384MOL0     H51795   6.198  -0.594   1.470 -0.5297 -4.7519 -0.1306
  384MOL0     H51796   6.359  -0.737   1.340  2.0153 -0.4841 -3.1633
  384MOL0     H51797   6.282  -0.706   1.190  0.1419 -1.2050 -0.1441
  384MOL0     H51798   6.146  -0.876   1.402  2.4778  0.6524  0.4292
  384MOL0     H51799   6.210  -0.922   1.246 -1.2714  0.8801 -2.0281
  384MOL0     H51800   5.808  -0.722   1.175  1.1629 -0.5589 -1.6010
  384MOL0     H51801   5.480  -0.888   1.125 -0.6149 -0.4082 -0.6036
  384MOL0     H51802   5.527  -0.745   1.210  0.1606  1.5284 -1.9947
  384MOL0     H51803   5.600  -0.788   1.050  0.6209 -1.2622 -0.2048
  384MOL0     H51804   5.367  -1.303   1.301 -1.1498 -0.9428 -1.0510
  384MOL0     H51805   5.143  -1.380   1.328  0.1736 -0.5745  0.0345
  384MOL0     H51806   4.938  -1.392   1.238 -1.1490  1.2851 -1.4337
  384MOL0     H51807   4.955  -1.422   1.411  1.9095  2.6187  0.6200
  384MOL0     H51808   4.683  -1.365   1.400 -1.3212 -4.1686  2.2944
  384MOL0     H51809   4.717  -1.413   1.229  0.8261 -1.1482 -1.1621
  384MOL0     H51810   4.846  -1.613   1.339  2.0171  1.5400  0.6187
  384MOL0     H51811   4.669  -1.616   1.331 -0.3492  0.1258  0.0278
  384MOL0     H51812   4.818  -1.523   1.588  0.6950 -0.1268 -0.3311
  384MOL0     H51813   4.646  -1.518   1.566 -0.0440 -0.7892  1.4585
  384MOL0     H51814   4.655  -1.764   1.508 -1.3665  2.2471 -0.6679
  384MOL0     H51815   4.672  -1.715   1.673 -0.3827 -1.4596 -0.5801
  384MOL0     H51816   4.895  -1.791   1.483 -1.3506  1.9771 -1.1535
  384MOL0     H51817   4.942  -1.717   1.628  0.8703 -0.5326 -0.7461
  384MOL0     H51818   4.790  -1.981   1.587 -1.5812  3.6726 -1.8306
  384MOL0     H51819   4.811  -1.914   1.752 -1.7183 -1.9114 -0.3990
  384MOL0     H51820   5.005  -1.990   1.527  2.2240  2.1252  0.2804
  384MOL0     H51821   4.984  -2.090   1.672 -1.8400  0.4209 -0.4493
  384MOL0     H51822   4.991  -0.990   1.369  0.4540  1.1274 -0.2600
  384MOL0     H51823   5.219  -0.889   1.362 -1.6043  1.7159 -0.5518
  384MOL0     H51824   5.806  -1.186   1.324  0.0796 -0.0987 -2.0250
  384MOL0     H51825   6.013  -1.067   1.312 -1.0151  1.2089  5.0940
  384MOL0     H51826   7.616  -0.080   1.553  0.1307  0.4160  0.7684
  384MOL0     H51827   7.862  -0.091   1.619  1.2839  1.2998  1.1258
  384MOL0     H51828   8.288   0.064   1.438  0.6167  0.5849 -0.4873
  384MOL0     H51829   8.512  -0.007   1.492 -2.4470  0.0848 -1.1320
  384MOL0     H51830   8.608  -0.042   1.933 -0.2197 -2.0729 -0.6533
  384MOL0     H51831   8.769  -0.077   1.849  0.8957  1.9553 -1.4343
  384MOL0     H51832   8.753   0.100   2.041  0.2098  3.9543  0.5510
  384MOL0     H51833   8.652   0.181   1.934  0.7529  0.5639  0.2950
  384MOL0     H51834   8.898   0.247   1.947  1.8569 -1.2670 -0.8316
  384MOL0     H51835   8.833   0.238   1.788  2.3819  1.4747  0.3828
  384MOL0     H51836   8.961   0.046   1.738 -0.9451  2.9917 -0.1869
  384MOL0     H51837   8.973  -0.008   1.911 -1.5447 -2.0466 -0.5152
  384MOL0     H51838   9.317   0.225   1.845  0.2190  0.0043  3.4426
  384MOL0     H51839   8.455   0.115   1.904  0.0228  1.8334  0.6049
  384MOL0     H51840   8.225   0.137   1.856  3.7513 -1.3451  2.7143
  385MOL0     O51841   5.139   6.746   9.913 -0.4672  1.0602 -0.3034
  385MOL0     C51842   5.192   6.822   9.830  0.4007 -0.3850 -1.6760
  385MOL0     O51843   5.131   6.873   9.718 -0.5096  0.1207 -0.2143
  385MOL0     C51844   5.003   6.832   9.701  0.1539  0.2207  0.5774
  385MOL0     C51845   4.982   6.709   9.632  0.4790 -1.0046 -0.3742
  385MOL0     C51846   4.854   6.659   9.629  0.5783  0.4402 -0.0877
  385MOL0     C51847   4.749   6.729   9.688 -0.0149  0.3085 -0.4279
  385MOL0     O51848   4.619   6.678   9.669 -0.4171 -0.0738 -0.0332
  385MOL0     C51849   4.505   6.715   9.740  0.3024  0.3444  0.8406
  385MOL0     C51850   4.372   6.653   9.701 -0.3409  0.3093 -0.6007
  385MOL0     C51851   4.370   6.500   9.681  0.0174 -0.6234 -0.1981
  385MOL0     C51852   4.228   6.459   9.651 -0.3421 -0.2739  0.1867
  385MOL0     C51853   4.208   6.316   9.612  0.3222  0.2534 -0.3739
  385MOL0     C51854   4.069   6.304   9.559  0.6382  0.6727 -0.0931
  385MOL0     C51855   3.952   6.351   9.645 -0.5252 -0.6723  0.4502
  385MOL0     C51856   3.817   6.298   9.599 -0.6693  0.7793 -0.0409
  385MOL0     N51857   3.718   6.345   9.698  0.3537 -0.1334  0.1041
  385MOL0     C51858   3.638   6.259   9.768 -0.1604 -0.2333  0.0191
  385MOL0     C51859   3.541   6.340   9.816  1.0593 -0.3302 -0.0017
  385MOL0     C51860   3.406   6.308   9.885 -0.2592  0.3447  0.4135
  385MOL0     C51861   3.329   6.194   9.811 -0.3103 -0.0674 -0.0833
  385MOL0     C51862   3.182   6.179   9.869 -0.2368 -0.0712  0.0592
  385MOL0     C51863   3.093   6.103   9.767 -0.2477  0.2131 -0.1872
  385MOL0     O51864   3.139   5.972   9.742 -0.0017  0.3559 -0.0215
  385MOL0     C51865   3.053   5.905   9.661 -0.4597  0.3168 -0.2106
  385MOL0     C51866   3.065   5.910   9.525 -0.8814 -1.0182 -0.7575
  385MOL0     C51867   2.969   5.859   9.435  0.8602 -0.4738  0.4344
  385MOL0     C51868   2.987   5.887   9.286 -0.0065  0.3123 -0.1055
  385MOL0     C51869   2.842   5.812   9.497 -0.0719 -0.1583  0.5601
  385MOL0     C51870   2.725   5.766   9.419  0.5556 -0.6492 -1.1467
  385MOL0     O51871   2.694   5.817   9.298  0.3472  0.0961  0.2355
  385MOL0     C51872   2.600   5.759   9.226  0.5928  0.5354 -0.1700
  385MOL0     C51873   2.470   5.793   9.256  1.0461 -0.1907 -0.1639
  385MOL0     C51874   2.364   5.742   9.184  0.9231  0.6378  0.1123
  385MOL0     C51875   2.374   5.660   9.064 -0.4780  0.5533 -0.4702
  385MOL0     O51876   2.268   5.613   8.982  0.1476  0.0912 -0.8920
  385MOL0     C51877   2.147   5.583   9.055 -0.0818  0.4233 -1.1586
  385MOL0     C51878   2.048   5.535   8.950 -0.7765 -0.4494 -0.4219
  385MOL0     C51879   1.908   5.496   9.005 -0.1150  0.0841 -0.2376
  385MOL0     C51880   1.839   5.401   8.907  0.9245  0.0266  0.8152
  385MOL0     C51881   1.690   5.362   8.934 -0.1324 -0.5437 -0.1019
  385MOL0     C51882   1.686   5.249   9.036 -0.2681 -1.0098  0.1113
  385MOL0     C51883   1.538   5.189   9.047 -0.2486  0.3308  0.0882
  385MOL0     C51884   1.515   5.098   8.931 -0.2861  0.3326  0.0258
  385MOL0    Cl51885   1.347   5.055   8.928  0.0056 -0.1108 -0.0431
  385MOL0     C51886   2.512   5.622   9.045  0.6025 -0.0748  0.8764
  385MOL0     C51887   2.620   5.666   9.122 -0.5623  0.0164  0.4725
  385MOL0     O51888   2.652   5.686   9.476  0.3465 -0.2427  0.6382
  385MOL0     C51889   2.827   5.804   9.639 -0.1411 -0.5331  0.2455
  385MOL0     C51890   2.943   5.836   9.711  0.6941 -0.5465 -0.0178
  385MOL0     N51891   3.565   6.473   9.789 -0.4051  0.0495 -0.5039
  385MOL0     N51892   3.670   6.471   9.711 -0.5468  0.0244  0.3222
  385MOL0     C51893   4.769   6.843   9.764  1.0851 -0.6173 -0.1325
  385MOL0     C51894   4.899   6.906   9.757 -0.5294  0.1615 -0.5527
  385MOL0     C51895   5.331   6.862   9.848  0.2830 -0.0616 -0.5489
  385MOL0     C51896   5.377   6.985   9.797  0.8512  0.5772 -0.3643
  385MOL0     C51897   5.502   7.037   9.832 -0.4411 -0.4845  0.2345
  385MOL0     C51898   5.592   6.961   9.913 -0.8697  0.2195 -0.1078
  385MOL0     O51899   5.708   7.027   9.948  0.1842 -0.5831  0.8775
  385MOL0     C51900   5.810   6.949  10.003 -0.3129 -0.7215  0.6431
  385MOL0     C51901   5.947   7.025  10.001  0.2814  0.1608  0.9641
  385MOL0     C51902   5.949   7.166  10.075  0.0829  0.0182  0.3031
  385MOL0     C51903   5.852   7.178  10.187  0.1751  0.3270  1.1514
  385MOL0     C51904   5.850   7.310  10.249  0.4088 -0.8177 -0.0337
  385MOL0     C51905   5.861   7.418  10.302  0.0938 -0.0007 -1.0187
  385MOL0     C51906   5.549   6.839   9.954 -0.6380  0.3119 -0.3274
  385MOL0     C51907   5.421   6.787   9.926 -0.6384  0.0501 -0.6444
  385MOL0     H51908   5.067   6.658   9.587  0.0032 -0.9953 -1.3007
  385MOL0     H51909   4.830   6.564   9.581  1.0323 -0.6042  1.6639
  385MOL0     H51910   4.532   6.690   9.842 -1.3682 -0.7902  1.0532
  385MOL0     H51911   4.484   6.822   9.736 -0.9506  0.1686  2.0699
  385MOL0     H51912   4.312   6.677   9.789  1.1780  1.9405  0.0617
  385MOL0     H51913   4.330   6.703   9.613  0.1835 -0.2325 -1.1747
  385MOL0     H51914   4.440   6.479   9.600  1.8924 -0.3594  1.2768
  385MOL0     H51915   4.407   6.462   9.777 -1.5050  1.2903  1.2126
  385MOL0     H51916   4.171   6.481   9.742 -0.4376  0.9655 -0.1509
  385MOL0     H51917   4.192   6.516   9.565  3.8458  2.1596 -0.2304
  385MOL0     H51918   4.281   6.285   9.536 -2.1133  0.8860 -3.1728
  385MOL0     H51919   4.222   6.254   9.700 -0.3589  1.2064  0.4224
  385MOL0     H51920   4.059   6.365   9.469  2.2678  1.5404  0.2792
  385MOL0     H51921   4.051   6.199   9.534  0.1596  0.8536 -0.5374
  385MOL0     H51922   3.972   6.313   9.745 -2.6922 -0.7179  0.9171
  385MOL0     H51923   3.949   6.460   9.653 -4.1316 -0.2100 -3.4165
  385MOL0     H51924   3.813   6.189   9.597 -2.2754  0.8076 -1.6680
  385MOL0     H51925   3.799   6.334   9.498  2.2044  1.5677 -0.3587
  385MOL0     H51926   3.645   6.151   9.772 -0.2916 -0.2545 -0.2551
  385MOL0     H51927   3.429   6.278   9.987 -0.4064  3.2191  1.3926
  385MOL0     H51928   3.344   6.398   9.884 -1.6277 -0.5144 -2.2185
  385MOL0     H51929   3.382   6.100   9.831  0.9719  0.6783  0.1276
  385MOL0     H51930   3.321   6.214   9.704 -2.7465  0.8477  0.2038
  385MOL0     H51931   3.144   6.280   9.890  0.3423  0.0185  0.7212
  385MOL0     H51932   3.182   6.124   9.964 -0.7079 -1.7589 -0.8753
  385MOL0     H51933   3.080   6.154   9.671  0.4519  1.8265  0.5384
  385MOL0     H51934   2.991   6.102   9.807  0.2024  1.1175  1.0643
  385MOL0     H51935   3.146   5.966   9.479 -1.6160  2.2443  1.5824
  385MOL0     H51936   2.968   5.800   9.222  0.5021 -0.6670  1.0339
  385MOL0     H51937   2.913   5.961   9.252 -0.7113 -0.9350 -1.3896
  385MOL0     H51938   3.085   5.930   9.264 -0.9194  1.2592 -2.7374
  385MOL0     H51939   2.460   5.857   9.343  2.8045 -0.5759  0.3649
  385MOL0     H51940   2.265   5.770   9.221 -1.0734 -1.3817 -3.2606
  385MOL0     H51941   2.167   5.500   9.123  1.0259  2.4731  1.1805
  385MOL0     H51942   2.106   5.668   9.111  0.2292  0.0936 -0.4087
  385MOL0     H51943   2.044   5.614   8.875  1.3869  0.0044 -0.1203
  385MOL0     H51944   2.084   5.448   8.895  1.8922  3.1861 -5.0958
  385MOL0     H51945   1.840   5.578   9.028 -0.2526  0.1335 -0.7904
  385MOL0     H51946   1.923   5.455   9.105  1.3915  1.6916  0.2410
  385MOL0     H51947   1.848   5.431   8.802 -1.3796 -3.4123 -0.5194
  385MOL0     H51948   1.895   5.307   8.917 -1.6534 -1.4623  2.5198
  385MOL0     H51949   1.644   5.335   8.839  0.4505  0.2391 -0.6146
  385MOL0     H51950   1.642   5.452   8.974  1.0445 -0.5427  1.4234
  385MOL0     H51951   1.757   5.173   9.003  1.1501  0.3990 -0.1859
  385MOL0     H51952   1.714   5.286   9.135 -1.3960  0.7748 -0.1913
  385MOL0     H51953   1.463   5.268   9.055 -0.5414 -0.1203  2.9293
  385MOL0     H51954   1.531   5.127   9.137  1.5353 -0.1739 -0.0766
  385MOL0     H51955   1.572   5.006   8.942 -2.6706 -1.4742 -1.5640
  385MOL0     H51956   1.527   5.139   8.830 -1.7448 -3.3274 -1.8141
  385MOL0     H51957   2.533   5.564   8.957 -0.2134 -0.0613  0.6605
  385MOL0     H51958   2.716   5.624   9.095 -1.7265 -1.5742 -1.4756
  385MOL0     H51959   2.739   5.765   9.688  0.0746  0.7123  1.6818
  385MOL0     H51960   2.947   5.810   9.817  4.4819 -1.8557 -0.3375
  385MOL0     H51961   4.687   6.889   9.818 -0.0989 -1.5687 -1.0546
  385MOL0     H51962   4.912   7.000   9.810 -0.6011  1.2655 -2.3951
  385MOL0     H51963   5.305   7.043   9.739 -0.4717  1.7691  2.3154
  385MOL0     H51964   5.534   7.132   9.791 -1.0423 -0.7203 -0.8297
  385MOL0     H51965   5.793   6.922  10.107  2.8223  2.0997  2.0912
  385MOL0     H51966   5.821   6.858   9.943 -0.1041 -0.3650  0.1331
  385MOL0     H51967   5.953   7.052   9.895 -1.3343  2.1444  1.3211
  385MOL0     H51968   6.034   6.964  10.029 -0.1161 -1.3845 -0.9191
  385MOL0     H51969   5.930   7.246  10.002  1.3873 -0.9725 -1.1985
  385MOL0     H51970   6.050   7.171  10.116 -0.2899  0.0106  1.2549
  385MOL0     H51971   5.881   7.096  10.254  0.3283 -0.2741  0.3617
  385MOL0     H51972   5.748   7.157  10.160  0.6312 -0.0404 -0.4270
  385MOL0     H51973   5.861   7.512  10.354 -0.8012 -0.6017  0.1133
  385MOL0     H51974   5.619   6.776  10.009 -1.3420 -0.2705 -0.0641
  385MOL0     H51975   5.392   6.690   9.964 -0.3385  0.5332  0.8897
  386MOL0     O51976   0.423   3.666   0.226 -0.0845  0.8693  0.2788
  386MOL0     C51977   0.438   3.762   0.151 -0.7999 -0.2664 -0.1230
  386MOL0     O51978   0.355   3.803   0.056 -0.2109 -0.8290  0.2930
  386MOL0     C51979   0.222   3.768   0.050  0.5649 -0.6639 -0.7040
  386MOL0     C51980   0.174   3.747  -0.073  0.1835  0.1216 -0.3629
  386MOL0     C51981   0.042   3.724  -0.095  0.4589 -0.5577 -0.3525
  386MOL0     C51982  -0.043   3.709   0.018  0.1676  0.3811 -0.2511
  386MOL0     O51983  -0.179   3.678   0.009 -0.2965 -0.1325 -0.9472
  386MOL0     C51984  -0.243   3.713  -0.112  0.7538  0.0474  0.4602
  386MOL0     C51985  -0.391   3.707  -0.089 -0.5198 -0.0590 -0.0845
  386MOL0     C51986  -0.435   3.821   0.010 -0.4909  1.3028  0.6715
  386MOL0     C51987  -0.590   3.824   0.039  0.1359 -0.4050  0.3984
  386MOL0     C51988  -0.620   3.932   0.144 -0.3967  0.3496  0.7263
  386MOL0     C51989  -0.765   3.932   0.174 -0.1583  0.1690 -0.2595
  386MOL0     C51990  -0.782   4.073   0.215  0.0141 -0.5171  0.4668
  386MOL0     C51991  -0.930   4.090   0.277 -0.3886 -0.1209  0.2470
  386MOL0     N51992  -1.043   4.080   0.186 -0.3708 -0.2700 -0.2878
  386MOL0     C51993  -1.037   4.097   0.049  0.5588  0.3502  0.3563
  386MOL0     C51994  -1.163   4.072   0.004  0.6478 -0.3174 -1.0016
  386MOL0     C51995  -1.231   4.081  -0.130 -0.0716  0.4021  0.1245
  386MOL0     C51996  -1.166   3.974  -0.228  0.1245  0.4969 -0.8640
  386MOL0     C51997  -1.026   4.018  -0.277  0.2203  0.1628 -0.3431
  386MOL0     C51998  -1.033   4.151  -0.351  0.2452 -0.0472  1.0907
  386MOL0     O51999  -1.003   4.262  -0.266 -0.2088 -0.1188  0.2317
  386MOL0     C52000  -0.873   4.305  -0.253  0.6411 -0.8968  0.5895
  386MOL0     C52001  -0.756   4.229  -0.246  0.4778 -0.6874  0.6094
  386MOL0     C52002  -0.635   4.301  -0.238  0.6015 -0.4045  0.4590
  386MOL0     C52003  -0.512   4.219  -0.219 -0.2339  0.7160 -0.4542
  386MOL0     C52004  -0.633   4.441  -0.229 -0.6962  0.5389 -0.8679
  386MOL0     C52005  -0.504   4.511  -0.206  0.4641 -0.3053  0.4069
  386MOL0     O52006  -0.411   4.464  -0.115 -0.6794  0.0804 -0.0897
  386MOL0     C52007  -0.293   4.531  -0.120 -0.0973 -0.2006 -1.0908
  386MOL0     C52008  -0.184   4.479  -0.180 -0.3464  0.9177 -0.4842
  386MOL0     C52009  -0.058   4.550  -0.171  0.1870 -0.2609 -0.0135
  386MOL0     C52010  -0.053   4.682  -0.117  0.2309 -0.1791  0.1593
  386MOL0     O52011   0.069   4.742  -0.127  0.2011  0.0707  0.4769
  386MOL0     C52012   0.081   4.881  -0.088  0.4641 -0.5697 -0.7760
  386MOL0     C52013   0.220   4.934  -0.097  0.4314 -0.3799  0.3189
  386MOL0     C52014   0.303   4.888   0.023 -0.2925  0.1940 -0.9921
  386MOL0     C52015   0.443   4.847  -0.016  0.2074  0.7755  0.1003
  386MOL0     C52016   0.545   4.956   0.002 -0.5323  0.0553 -0.6389
  386MOL0     C52017   0.682   4.921  -0.060 -0.1631 -0.0395  0.9290
  386MOL0     C52018   0.767   5.052  -0.079 -0.0385 -0.1040  0.2446
  386MOL0     C52019   0.908   5.016  -0.123 -0.0216 -0.2283  0.2630
  386MOL0    Cl52020   0.981   4.893  -0.019  0.2348  0.4948  0.2209
  386MOL0     C52021  -0.175   4.735  -0.073 -0.2851 -0.3220  0.2434
  386MOL0     C52022  -0.285   4.658  -0.055  0.9105 -0.4349  0.3373
  386MOL0     O52023  -0.496   4.614  -0.269  0.1417 -0.4779  0.1905
  386MOL0     C52024  -0.752   4.520  -0.235  0.1264  0.0507 -0.5257
  386MOL0     C52025  -0.873   4.448  -0.247 -0.6039  0.0680  0.4205
  386MOL0     N52026  -1.234   4.032   0.111 -0.3132  0.1712 -0.0554
  386MOL0     N52027  -1.168   4.039   0.220  0.0919 -1.3018  0.6237
  386MOL0     C52028   0.004   3.735   0.147  0.1364  0.2767 -0.3004
  386MOL0     C52029   0.141   3.759   0.169 -0.8467 -0.2185 -0.4302
  386MOL0     C52030   0.567   3.836   0.172 -0.2219 -0.0106  0.3929
  386MOL0     C52031   0.582   3.971   0.137  0.1648 -0.3921 -0.3151
  386MOL0     C52032   0.701   4.042   0.143 -0.0411 -0.2437  0.1521
  386MOL0     C52033   0.814   3.984   0.186  0.6642  0.1065 -0.5238
  386MOL0     O52034   0.926   4.062   0.185 -1.1295  0.1088 -0.4341
  386MOL0     C52035   1.052   3.996   0.214  1.1646  0.0788  0.5649
  386MOL0     C52036   1.159   4.082   0.149 -0.5493  0.9402  0.2656
  386MOL0     C52037   1.297   4.019   0.187 -1.0875 -0.0128  0.3508
  386MOL0     C52038   1.416   4.108   0.149 -0.2944 -0.0416  0.2200
  386MOL0     C52039   1.415   4.147   0.008  0.3716  0.0439  0.1943
  386MOL0     C52040   1.421   4.154  -0.113  0.6531 -0.1499  0.7477
  386MOL0     C52041   0.806   3.847   0.230 -0.3165 -0.4938 -0.1235
  386MOL0     C52042   0.684   3.776   0.228 -0.1471  0.3339 -0.4937
  386MOL0     H52043   0.239   3.736  -0.159 -2.4861 -0.3631 -2.4495
  386MOL0     H52044   0.011   3.712  -0.198  0.4625  0.0251 -0.4233
  386MOL0     H52045  -0.222   3.809  -0.160  3.9522 -0.6343  0.2504
  386MOL0     H52046  -0.218   3.633  -0.182  4.6173  0.2957  1.3153
  386MOL0     H52047  -0.424   3.727  -0.191  1.1501  2.4732 -0.2312
  386MOL0     H52048  -0.414   3.605  -0.056  2.4211 -0.9079 -0.4121
  386MOL0     H52049  -0.369   3.805   0.096  1.7969 -1.6799 -1.3999
  386MOL0     H52050  -0.405   3.916  -0.035  5.7680 -1.6015 -2.5772
  386MOL0     H52051  -0.633   3.844  -0.059  0.8575  0.8648  0.3244
  386MOL0     H52052  -0.637   3.736   0.085 -0.9914  0.1386  0.3342
  386MOL0     H52053  -0.558   3.911   0.231  0.5859  2.5639  0.6182
  386MOL0     H52054  -0.583   4.029   0.110  1.3375  0.5792  3.0183
  386MOL0     H52055  -0.825   3.908   0.085 -1.5327 -1.4319  1.0451
  386MOL0     H52056  -0.778   3.855   0.250  0.1742  0.7218  0.3579
  386MOL0     H52057  -0.711   4.102   0.292 -0.3917 -0.6171  0.8841
  386MOL0     H52058  -0.774   4.143   0.132  0.1317  1.8443  2.3829
  386MOL0     H52059  -0.935   4.196   0.305 -3.7283 -0.5208  1.7041
  386MOL0     H52060  -0.945   4.028   0.366 -2.8905  1.1363  0.7956
  386MOL0     H52061  -0.951   4.124  -0.012  0.6624 -1.3122 -0.3146
  386MOL0     H52062  -1.336   4.052  -0.115 -0.0849  0.3797 -0.0197
  386MOL0     H52063  -1.239   4.178  -0.179  0.1565 -0.0453 -0.8253
  386MOL0     H52064  -1.233   3.949  -0.311  0.2065  0.9577 -1.0733
  386MOL0     H52065  -1.146   3.884  -0.171  2.6723  2.1971  1.1562
  386MOL0     H52066  -0.991   3.949  -0.354 -0.4717  0.0692 -0.5849
  386MOL0     H52067  -0.960   4.009  -0.190 -0.7402 -0.2094  0.3651
  386MOL0     H52068  -1.129   4.162  -0.402 -0.3102  0.1445  2.1602
  386MOL0     H52069  -0.952   4.150  -0.425 -2.0818  0.9945 -1.6606
  386MOL0     H52070  -0.757   4.122  -0.259  1.7022 -0.5552 -0.8158
  386MOL0     H52071  -0.473   4.217  -0.117  1.1808 -0.6990 -0.9880
  386MOL0     H52072  -0.532   4.116  -0.252 -1.9062  1.1380 -0.8675
  386MOL0     H52073  -0.438   4.268  -0.283  0.4324  0.8658  0.4111
  386MOL0     H52074  -0.184   4.383  -0.230 -1.8238  1.0137 -0.7238
  386MOL0     H52075   0.029   4.507  -0.218  1.6932  0.7904  1.6796
  386MOL0     H52076   0.013   4.935  -0.154  2.4481  0.9620 -1.6774
  386MOL0     H52077   0.039   4.895   0.012 -1.0147  0.3068 -1.4907
  386MOL0     H52078   0.261   4.911  -0.196 -0.1139 -0.3842  0.0949
  386MOL0     H52079   0.210   5.043  -0.092 -0.2707 -0.4642  0.8433
  386MOL0     H52080   0.254   4.799   0.064  0.2671 -0.2536 -1.2861
  386MOL0     H52081   0.300   4.967   0.099 -2.8967  2.4647 -3.2130
  386MOL0     H52082   0.468   4.761   0.046  0.9054 -1.2341 -2.7736
  386MOL0     H52083   0.449   4.807  -0.117 -0.4333 -1.4073  0.8769
  386MOL0     H52084   0.559   4.980   0.108 -0.4720 -0.4905 -0.5212
  386MOL0     H52085   0.516   5.049  -0.049 -1.4809  0.3602  0.3938
  386MOL0     H52086   0.731   4.849   0.006  0.3926 -0.0183  0.5429
  386MOL0     H52087   0.672   4.877  -0.160  2.6988  1.6611 -0.2091
  386MOL0     H52088   0.760   5.113   0.012  1.3790  1.8681 -0.8754
  386MOL0     H52089   0.720   5.123  -0.147  0.4957 -0.3204 -0.3587
  386MOL0     H52090   0.976   5.102  -0.120 -0.6375  0.2581  0.2920
  386MOL0     H52091   0.912   4.991  -0.230  0.8725  0.4497  0.1238
  386MOL0     H52092  -0.181   4.835  -0.032 -1.2767 -0.4983  0.5450
  386MOL0     H52093  -0.380   4.703  -0.028  1.4908  2.1816 -1.6166
  386MOL0     H52094  -0.742   4.627  -0.217 -0.2597  0.2980 -1.6839
  386MOL0     H52095  -0.968   4.500  -0.256 -1.7107 -1.8714  0.3945
  386MOL0     H52096  -0.070   3.726   0.226  2.2063 -2.0285  1.5435
  386MOL0     H52097   0.178   3.777   0.270  2.0434  0.3545 -1.5028
  386MOL0     H52098   0.489   4.023   0.117 -0.6123 -1.0457  1.4000
  386MOL0     H52099   0.715   4.142   0.102  1.7075 -1.2026 -1.8088
  386MOL0     H52100   1.079   3.978   0.319  0.5491 -1.3626  0.4931
  386MOL0     H52101   1.058   3.899   0.165 -1.6941  1.3325 -2.6264
  386MOL0     H52102   1.155   4.182   0.193  2.2520  1.8987 -1.3704
  386MOL0     H52103   1.143   4.094   0.042 -0.7317 -1.1466  0.0141
  386MOL0     H52104   1.315   3.922   0.141  3.2579 -0.0653  1.7341
  386MOL0     H52105   1.301   3.994   0.294  1.0504  3.5192  1.2383
  386MOL0     H52106   1.511   4.063   0.181  1.2976  3.0238  0.2172
  386MOL0     H52107   1.399   4.197   0.210 -0.2791 -0.2216  0.4880
  386MOL0     H52108   1.420   4.137  -0.219  0.3858 -0.3875  0.7879
  386MOL0     H52109   0.887   3.801   0.286 -0.1441 -0.3878 -0.2854
  386MOL0     H52110   0.683   3.674   0.264  0.4497  0.3971 -0.2786
  387MOL0     O52111  10.109   2.509   8.512  0.3128  0.5057  0.6745
  387MOL0     C52112  10.183   2.406   8.507  0.0605 -0.7010  0.4616
  387MOL0     O52113  10.153   2.288   8.443 -0.0418 -0.0588  0.0111
  387MOL0     C52114  10.046   2.290   8.365 -0.7209 -0.1795 -0.4090
  387MOL0     C52115  10.069   2.275   8.227  0.5016 -0.3680  0.3150
  387MOL0     C52116   9.970   2.264   8.129  0.5305  0.1677 -1.4394
  387MOL0     C52117   9.839   2.264   8.181 -0.5948 -0.1493  0.0535
  387MOL0     O52118   9.727   2.241   8.104 -0.0195  0.0412 -0.9526
  387MOL0     C52119   9.648   2.346   8.046  0.6373 -1.2873 -1.0626
  387MOL0     C52120   9.504   2.301   8.006  0.2985  0.0047  0.0112
  387MOL0     C52121   9.439   2.419   7.926 -1.0849  0.1170  0.9502
  387MOL0     C52122   9.284   2.408   7.908  0.5210  0.2843 -0.3503
  387MOL0     C52123   9.235   2.262   7.892  0.0057  0.7388  0.3330
  387MOL0     C52124   9.085   2.265   7.863  0.0539 -0.4978  0.0619
  387MOL0     C52125   9.017   2.129   7.850  0.7653 -1.4641 -0.3119
  387MOL0     C52126   8.883   2.126   7.779  0.6160 -0.7481 -0.0576
  387MOL0     N52127   8.791   2.237   7.814  0.1513  0.3082 -0.4280
  387MOL0     C52128   8.745   2.273   7.939 -0.5158 -0.5367 -0.4881
  387MOL0     C52129   8.650   2.373   7.918  0.4504  0.2082 -0.7275
  387MOL0     C52130   8.572   2.442   8.035 -0.2964 -0.2546 -0.2442
  387MOL0     C52131   8.421   2.424   8.020  0.7731 -0.4977  0.2184
  387MOL0     C52132   8.351   2.546   7.940  0.3660  0.2079  1.1709
  387MOL0     C52133   8.203   2.527   7.950 -0.7512  0.5788 -0.3331
  387MOL0     O52134   8.139   2.493   8.074 -0.7519  0.2575 -0.2374
  387MOL0     C52135   8.004   2.477   8.071 -1.0853 -0.1966 -0.0837
  387MOL0     C52136   7.932   2.568   8.150  0.6432 -0.1803 -0.3489
  387MOL0     C52137   7.791   2.558   8.155 -0.8486  0.7259  0.6802
  387MOL0     C52138   7.713   2.661   8.234 -0.7842 -0.0524 -0.2176
  387MOL0     C52139   7.726   2.462   8.065  0.5746 -0.5098 -0.0758
  387MOL0     C52140   7.582   2.434   8.064  0.0700 -0.0788 -0.5207
  387MOL0     O52141   7.551   2.306   8.032  0.1156 -0.2996  0.1603
  387MOL0     C52142   7.421   2.289   7.994 -0.1898 -0.4187 -0.3106
  387MOL0     C52143   7.395   2.260   7.857  0.4604 -0.4532 -0.3200
  387MOL0     C52144   7.262   2.228   7.817 -0.4648  0.4964 -0.3885
  387MOL0     C52145   7.153   2.228   7.909 -0.0501  0.1015  0.2565
  387MOL0     O52146   7.023   2.203   7.872  0.3024  0.4469 -0.2081
  387MOL0     C52147   6.989   2.224   7.733 -1.0718 -0.4186  0.8282
  387MOL0     C52148   6.848   2.195   7.702  0.1450  0.2063  0.3227
  387MOL0     C52149   6.753   2.261   7.811  1.8092 -0.2795  0.2900
  387MOL0     C52150   6.604   2.254   7.753  0.5459  0.0030  0.4575
  387MOL0     C52151   6.493   2.287   7.861 -0.6342  0.8836  0.5286
  387MOL0     C52152   6.482   2.434   7.890  0.1628 -0.4069  1.0032
  387MOL0     C52153   6.370   2.463   7.995  0.0520 -0.0029  0.0885
  387MOL0     C52154   6.331   2.607   8.013  0.4602  0.2392  0.0989
  387MOL0    Cl52155   6.471   2.714   8.035 -0.3058  0.1518  0.1848
  387MOL0     C52156   7.187   2.259   8.043 -0.5212 -0.5216 -0.9843
  387MOL0     C52157   7.315   2.281   8.087 -0.0631 -0.7050 -0.2309
  387MOL0     O52158   7.507   2.533   8.066  0.2104 -0.6036  0.1839
  387MOL0     C52159   7.804   2.374   7.982 -0.1731  1.4218 -0.2563
  387MOL0     C52160   7.942   2.383   7.989  0.3053 -0.7616 -0.2792
  387MOL0     N52161   8.634   2.378   7.786 -0.2862  0.4737  0.1851
  387MOL0     N52162   8.718   2.300   7.728  0.3460 -0.3092  0.3123
  387MOL0     C52163   9.813   2.284   8.323 -0.5629  1.2517  0.9015
  387MOL0     C52164   9.915   2.288   8.413  0.1031 -0.0326  0.0558
  387MOL0     C52165  10.314   2.426   8.571 -0.0538 -0.1193  0.3447
  387MOL0     C52166  10.318   2.517   8.677 -0.5504 -0.4810 -0.1500
  387MOL0     C52167  10.435   2.539   8.743 -0.0961  0.3918  0.7351
  387MOL0     C52168  10.553   2.474   8.699  0.8400  0.6027  0.2495
  387MOL0     O52169  10.651   2.506   8.779  0.1672  0.5347  0.4282
  387MOL0     C52170  10.774   2.455   8.746 -0.0799  0.4499  0.0557
  387MOL0     C52171  10.893   2.518   8.820  0.0498 -0.3772 -0.5795
  387MOL0     C52172  10.901   2.671   8.825 -0.5225 -0.2921  0.2189
  387MOL0     C52173  10.910   2.728   8.962 -0.0125 -0.7925  0.2068
  387MOL0     C52174  11.031   2.685   9.035 -0.3389 -0.8288  0.6716
  387MOL0     C52175  11.124   2.659   9.098  0.1949  0.7179 -0.5123
  387MOL0     C52176  10.547   2.382   8.596 -1.4029 -0.2688  0.1017
  387MOL0     C52177  10.423   2.354   8.537 -0.2922 -0.0260 -0.6306
  387MOL0     H52178  10.171   2.288   8.191 -0.1855 -0.5976 -1.8236
  387MOL0     H52179   9.986   2.249   8.022  1.0112  0.8430 -1.4690
  387MOL0     H52180   9.647   2.437   8.108 -1.3019 -3.3521  2.2720
  387MOL0     H52181   9.696   2.381   7.955  0.9932  1.8266  0.2085
  387MOL0     H52182   9.496   2.216   7.937 -1.1360  0.8387 -0.8982
  387MOL0     H52183   9.450   2.279   8.098  0.5995  3.0046  1.0010
  387MOL0     H52184   9.451   2.518   7.971 -2.4213  1.3298 -1.1999
  387MOL0     H52185   9.495   2.424   7.832 -0.6804  1.1095  1.2298
  387MOL0     H52186   9.226   2.435   7.997  0.1437  1.4137 -0.9284
  387MOL0     H52187   9.253   2.481   7.833  0.0966  2.0728  1.4666
  387MOL0     H52188   9.299   2.207   7.823 -0.8110 -0.1061  0.2269
  387MOL0     H52189   9.257   2.207   7.984  0.1126  0.0242 -0.1136
  387MOL0     H52190   9.030   2.325   7.936 -2.0983  2.5037 -3.6204
  387MOL0     H52191   9.074   2.327   7.774  1.8411  3.9608  2.6274
  387MOL0     H52192   9.094   2.074   7.795  0.1858 -1.3943 -1.2342
  387MOL0     H52193   9.014   2.085   7.950 -0.2376  0.5242  0.5941
  387MOL0     H52194   8.833   2.029   7.787 -3.7342  1.3568  1.6070
  387MOL0     H52195   8.903   2.139   7.673 -0.7501 -0.7124 -0.3347
  387MOL0     H52196   8.783   2.231   8.031  1.6286  0.2693 -0.9407
  387MOL0     H52197   8.621   2.390   8.119  4.9637  0.4078 -2.4867
  387MOL0     H52198   8.596   2.548   8.047  3.9360 -1.1150  0.4690
  387MOL0     H52199   8.376   2.424   8.120 -1.4782  1.4267 -0.7218
  387MOL0     H52200   8.398   2.329   7.972  0.8862 -0.5712  0.3086
  387MOL0     H52201   8.376   2.556   7.834 -0.4527  0.1734  0.9633
  387MOL0     H52202   8.377   2.641   7.987 -0.9105  0.3081  1.7431
  387MOL0     H52203   8.192   2.449   7.874 -0.7139 -1.9049  2.0325
  387MOL0     H52204   8.148   2.614   7.914  0.8617  1.3238 -1.0518
  387MOL0     H52205   7.986   2.644   8.206 -0.2340 -0.2374  0.6010
  387MOL0     H52206   7.775   2.681   8.322 -0.0441 -3.8878  0.2827
  387MOL0     H52207   7.695   2.756   8.182 -0.5676 -0.7648 -1.6534
  387MOL0     H52208   7.620   2.625   8.278 -0.3928  2.5933  3.2835
  387MOL0     H52209   7.474   2.259   7.782  1.1402  1.3583  0.3084
  387MOL0     H52210   7.243   2.213   7.711 -1.2707 -1.0661 -0.0476
  387MOL0     H52211   7.002   2.332   7.721  1.7284 -0.7420  0.3440
  387MOL0     H52212   7.046   2.166   7.660 -0.9832 -1.1350  1.4532
  387MOL0     H52213   6.815   2.229   7.603 -0.7647 -1.3537  0.0565
  387MOL0     H52214   6.842   2.086   7.700 -0.1276  0.2199  0.3186
  387MOL0     H52215   6.770   2.364   7.844  2.2862 -0.4747  0.6536
  387MOL0     H52216   6.753   2.202   7.902 -0.6295 -1.6342 -0.4966
  387MOL0     H52217   6.591   2.315   7.663  1.2071 -0.9761 -0.3243
  387MOL0     H52218   6.599   2.154   7.708  0.6524  1.3061 -2.7334
  387MOL0     H52219   6.514   2.235   7.955 -1.5840  0.5685  0.5817
  387MOL0     H52220   6.400   2.247   7.819 -1.2884  2.8026  0.0783
  387MOL0     H52221   6.579   2.469   7.928  0.5947 -0.5299  0.0527
  387MOL0     H52222   6.457   2.484   7.796 -1.6286 -1.3723  0.9163
  387MOL0     H52223   6.403   2.432   8.095 -1.6820 -1.4153  0.2688
  387MOL0     H52224   6.287   2.397   7.968  1.2091 -1.2473 -0.5584
  387MOL0     H52225   6.275   2.621   8.106  2.4192  1.3837  1.1640
  387MOL0     H52226   6.278   2.642   7.924  3.0013  0.0031 -1.6157
  387MOL0     H52227   7.110   2.247   8.118  0.4454  0.9660  0.2951
  387MOL0     H52228   7.337   2.294   8.192 -2.2319  1.9213  0.0020
  387MOL0     H52229   7.764   2.303   7.911 -0.3813  3.5226 -2.3799
  387MOL0     H52230   7.995   2.325   7.914  1.6136 -1.5763  1.2382
  387MOL0     H52231   9.712   2.281   8.361 -1.5301  2.7192 -1.3057
  387MOL0     H52232   9.883   2.295   8.516 -1.0154  0.0952 -0.2884
  387MOL0     H52233  10.227   2.564   8.713 -0.4226 -0.6330  0.3818
  387MOL0     H52234  10.441   2.609   8.826 -0.1560  0.3607  0.7649
  387MOL0     H52235  10.774   2.350   8.775  1.5195  0.3015 -0.3857
  387MOL0     H52236  10.802   2.447   8.640  1.3159 -0.0929  0.4433
  387MOL0     H52237  10.991   2.479   8.789 -0.5784 -2.0757 -0.5054
  387MOL0     H52238  10.879   2.485   8.923  0.1083 -0.4860 -0.6068
  387MOL0     H52239  10.820   2.717   8.768  1.8665  0.4783 -2.8318
  387MOL0     H52240  10.993   2.704   8.777  0.7713 -0.1902  2.6055
  387MOL0     H52241  10.826   2.703   9.027  0.8439 -0.1860  1.6147
  387MOL0     H52242  10.918   2.835   8.943  3.5675 -1.2342 -1.6750
  387MOL0     H52243  11.193   2.621   9.171 -2.7220 -1.6656  1.2429
  387MOL0     H52244  10.632   2.318   8.574 -2.5554 -1.0950 -2.1674
  387MOL0     H52245  10.423   2.278   8.460  4.0748  0.9011 -1.8225
  388MOL0     O52246   3.907   5.725   7.252  0.7616 -0.9811 -0.1969
  388MOL0     C52247   3.972   5.831   7.254  0.3000 -0.4858 -0.7066
  388MOL0     O52248   3.920   5.962   7.257 -0.0568 -0.6834 -0.1541
  388MOL0     C52249   3.785   5.992   7.262  0.2134  0.1092  0.4606
  388MOL0     C52250   3.677   5.922   7.211 -0.4801 -0.0770 -0.7444
  388MOL0     C52251   3.546   5.967   7.220 -0.8260  1.0118  0.1132
  388MOL0     C52252   3.527   6.087   7.280  0.1912 -1.1878 -0.5225
  388MOL0     O52253   3.400   6.126   7.317  0.6960  0.4522  0.1902
  388MOL0     C52254   3.347   6.046   7.422 -0.2169 -0.2840 -0.2285
  388MOL0     C52255   3.222   6.115   7.468 -1.1603 -0.4054 -0.3557
  388MOL0     C52256   3.136   6.029   7.549 -0.3203 -0.4952  0.7075
  388MOL0     C52257   2.990   6.044   7.514  0.3477 -0.0610 -0.2930
  388MOL0     C52258   2.910   5.941   7.588 -0.0866 -0.0349 -0.0711
  388MOL0     C52259   2.761   5.980   7.577  0.0344 -0.8526  0.1440
  388MOL0     C52260   2.686   5.896   7.673  0.5797  0.0808 -0.4051
  388MOL0     C52261   2.531   5.932   7.673 -0.1137  0.2630  0.3579
  388MOL0     N52262   2.470   5.918   7.535  0.0545 -0.6786 -0.0568
  388MOL0     C52263   2.492   5.811   7.452  0.9530 -0.1266  0.3177
  388MOL0     C52264   2.405   5.827   7.351  0.2418 -0.0920  0.0959
  388MOL0     C52265   2.396   5.744   7.225 -0.1234  0.4665  0.8232
  388MOL0     C52266   2.251   5.761   7.154 -0.3199  0.4847  0.1866
  388MOL0     C52267   2.134   5.714   7.244  0.0115  0.2756 -0.2155
  388MOL0     C52268   2.006   5.694   7.164 -0.5936 -1.1201  0.2182
  388MOL0     O52269   1.973   5.825   7.106 -0.6894  0.2986  0.4337
  388MOL0     C52270   1.845   5.833   7.059 -0.3677 -1.4445  0.2161
  388MOL0     C52271   1.754   5.725   7.052  0.1156 -0.5288 -0.5204
  388MOL0     C52272   1.623   5.735   7.001 -0.6049  0.0226 -0.3036
  388MOL0     C52273   1.542   5.614   6.969 -0.1278 -0.3907 -0.1386
  388MOL0     C52274   1.565   5.865   6.981  0.1251  0.2717 -0.0487
  388MOL0     C52275   1.421   5.892   6.951  0.1020 -0.2417 -0.6520
  388MOL0     O52276   1.387   6.027   6.937  0.1337 -0.2107 -0.8014
  388MOL0     C52277   1.264   6.053   6.889 -0.1800 -0.4431  0.5921
  388MOL0     C52278   1.161   6.118   6.961 -0.9379  0.6222 -0.2194
  388MOL0     C52279   1.045   6.156   6.884  0.2069  0.0834  0.5863
  388MOL0     C52280   1.028   6.119   6.749 -0.5488  0.4719 -0.1493
  388MOL0     O52281   0.918   6.148   6.669  0.0656  0.0696 -0.0535
  388MOL0     C52282   0.784   6.141   6.738 -0.3966  0.0028  0.4293
  388MOL0     C52283   0.682   6.228   6.666  0.7277 -0.8257 -0.1762
  388MOL0     C52284   0.551   6.244   6.744 -0.3131  0.2762  1.1453
  388MOL0     C52285   0.471   6.352   6.660 -0.1362  0.0062 -0.8840
  388MOL0     C52286   0.332   6.365   6.714  0.0546 -0.1891 -0.1711
  388MOL0     C52287   0.254   6.478   6.647  0.1378  0.3650  0.0216
  388MOL0     C52288   0.105   6.481   6.680 -0.2712  0.1795  0.8358
  388MOL0     C52289   0.079   6.508   6.827 -0.5177  0.1993 -0.2986
  388MOL0    Cl52290   0.050   6.354   6.922 -0.0393 -0.4448 -0.1559
  388MOL0     C52291   1.125   6.043   6.685  0.5176  0.2410  0.2446
  388MOL0     C52292   1.246   6.016   6.750 -0.8626 -0.7454 -0.4365
  388MOL0     O52293   1.342   5.797   6.933  0.2836 -0.4705  0.5383
  388MOL0     C52294   1.657   5.969   6.993  0.3213 -0.6015 -0.1230
  388MOL0     C52295   1.785   5.956   7.031 -0.7033  0.1391 -0.0713
  388MOL0     N52296   2.321   5.938   7.385  0.0372 -0.1955  0.1246
  388MOL0     N52297   2.364   5.998   7.493  0.4625 -0.8430 -0.3845
  388MOL0     C52298   3.628   6.172   7.320 -0.5847  0.2362 -0.0351
  388MOL0     C52299   3.763   6.122   7.315  0.0046 -0.0445  0.0203
  388MOL0     C52300   4.118   5.816   7.233 -0.3880 -0.2871 -0.2271
  388MOL0     C52301   4.184   5.694   7.232 -0.6275 -0.1303 -0.0163
  388MOL0     C52302   4.321   5.689   7.208  0.0875  0.4840 -0.3082
  388MOL0     C52303   4.390   5.804   7.173  0.3659 -0.3198 -0.5556
  388MOL0     O52304   4.526   5.804   7.150  0.2253 -0.5692 -0.2990
  388MOL0     C52305   4.582   5.678   7.104  0.7619  0.4578 -0.1339
  388MOL0     C52306   4.706   5.705   7.016 -0.5296  0.3116  0.5054
  388MOL0     C52307   4.765   5.574   6.958 -0.0427 -1.0388 -0.5546
  388MOL0     C52308   4.882   5.588   6.847  0.3641 -0.5241 -0.4518
  388MOL0     C52309   5.000   5.629   6.928  0.6675  0.2412  0.0183
  388MOL0     C52310   5.104   5.661   6.981  0.5183  0.0980 -0.3281
  388MOL0     C52311   4.321   5.922   7.177 -0.2462 -0.0580  0.1828
  388MOL0     C52312   4.182   5.930   7.202 -0.6590  0.2257  1.0375
  388MOL0     H52313   3.693   5.821   7.177 -0.4753  0.2175 -1.6571
  388MOL0     H52314   3.470   5.895   7.189  0.6217 -1.0290  1.0766
  388MOL0     H52315   3.325   5.947   7.382 -2.1098 -0.8934  2.0852
  388MOL0     H52316   3.416   6.038   7.507 -0.5653 -0.9467  0.0012
  388MOL0     H52317   3.231   6.216   7.508 -0.0555  0.2511 -2.1579
  388MOL0     H52318   3.177   6.139   7.371 -0.6488  0.9285 -0.2786
  388MOL0     H52319   3.157   5.922   7.540 -1.0183 -0.5824  0.0085
  388MOL0     H52320   3.149   6.047   7.656 -0.3029 -0.9029  0.7732
  388MOL0     H52321   2.968   6.143   7.554  0.9045  0.4049 -1.1038
  388MOL0     H52322   2.973   6.033   7.406  0.3438  0.0686 -0.3057
  388MOL0     H52323   2.929   5.838   7.554  0.8438  0.2180 -0.3354
  388MOL0     H52324   2.935   5.940   7.694 -2.4528  2.8279  0.6422
  388MOL0     H52325   2.760   6.084   7.613  2.9619 -0.7110  0.0588
  388MOL0     H52326   2.721   5.973   7.475  0.6101  1.2539 -0.2902
  388MOL0     H52327   2.694   5.789   7.652 -0.3212  0.2498 -1.7608
  388MOL0     H52328   2.736   5.925   7.765  0.8320  0.5340 -0.6820
  388MOL0     H52329   2.518   6.037   7.700  0.9810  0.1594  1.3495
  388MOL0     H52330   2.478   5.877   7.751  0.4606  2.3140  2.2734
  388MOL0     H52331   2.565   5.730   7.457  0.3891 -0.7199 -0.7557
  388MOL0     H52332   2.475   5.773   7.155 -0.0225 -1.3085  0.1594
  388MOL0     H52333   2.409   5.639   7.252 -1.2540  0.1296  0.1303
  388MOL0     H52334   2.262   5.697   7.067  2.5769 -0.5148  1.1791
  388MOL0     H52335   2.232   5.863   7.118  1.1055  0.2122 -1.4322
  388MOL0     H52336   2.111   5.785   7.324 -2.8418  3.1659 -3.3165
  388MOL0     H52337   2.160   5.617   7.289  0.9293 -0.0446 -1.4040
  388MOL0     H52338   1.924   5.667   7.231 -1.1768  0.5511  0.2349
  388MOL0     H52339   2.029   5.624   7.083  0.1129 -0.4901 -0.1450
  388MOL0     H52340   1.782   5.624   7.079 -0.6170 -0.8137 -0.8163
  388MOL0     H52341   1.605   5.525   6.979  3.0759  1.5737 -1.3575
  388MOL0     H52342   1.456   5.602   7.036  1.8819 -0.3323  2.6524
  388MOL0     H52343   1.518   5.626   6.863  2.9236 -0.9555 -0.9920
  388MOL0     H52344   1.171   6.138   7.067 -0.0711 -1.6382  0.1840
  388MOL0     H52345   0.965   6.204   6.938 -0.6871  0.7498 -1.2566
  388MOL0     H52346   0.742   6.044   6.766 -0.4588  0.0656  0.5592
  388MOL0     H52347   0.796   6.187   6.837  1.3617  0.1253  0.1878
  388MOL0     H52348   0.726   6.326   6.644  2.4738 -1.5861 -0.1877
  388MOL0     H52349   0.661   6.181   6.570 -0.3959  0.4703 -0.6071
  388MOL0     H52350   0.583   6.289   6.838  1.5550  0.9680  0.2227
  388MOL0     H52351   0.497   6.149   6.744  0.1278 -0.0284 -1.2715
  388MOL0     H52352   0.529   6.444   6.663  1.6381 -1.1028  0.4106
  388MOL0     H52353   0.470   6.311   6.558  1.3903 -1.6780 -0.2748
  388MOL0     H52354   0.326   6.402   6.817  2.5661  0.1045 -0.0606
  388MOL0     H52355   0.278   6.270   6.714  0.8299 -0.6427 -0.6846
  388MOL0     H52356   0.295   6.577   6.667 -0.3361  1.0052 -1.9348
  388MOL0     H52357   0.264   6.464   6.539  0.9247 -0.0585  0.1481
  388MOL0     H52358   0.062   6.384   6.656 -0.5220  0.2039  1.1742
  388MOL0     H52359   0.059   6.552   6.611  1.4322 -1.1775 -1.8704
  388MOL0     H52360  -0.004   6.579   6.834 -3.1664 -2.4289 -2.6238
  388MOL0     H52361   0.157   6.558   6.885  1.0026 -2.2014 -0.1378
  388MOL0     H52362   1.109   6.007   6.584  0.4851  0.5056  0.1539
  388MOL0     H52363   1.329   5.982   6.689 -0.1522  1.6785 -0.9535
  388MOL0     H52364   1.617   6.067   6.969 -1.9602 -0.7321  2.5556
  388MOL0     H52365   1.852   6.042   7.027  0.8948 -1.0596  0.1614
  388MOL0     H52366   3.630   6.275   7.352  1.5141 -0.5491  2.7588
  388MOL0     H52367   3.846   6.187   7.341 -0.7083  0.4776  1.0453
  388MOL0     H52368   4.136   5.607   7.276  0.2823 -0.5562  0.1582
  388MOL0     H52369   4.356   5.586   7.202 -1.6478 -0.2938  1.6417
  388MOL0     H52370   4.601   5.599   7.178 -1.0955 -0.9670 -1.1001
  388MOL0     H52371   4.505   5.632   7.041  0.8512  1.3360 -0.9116
  388MOL0     H52372   4.790   5.753   7.067  1.4877 -1.7435 -0.7007
  388MOL0     H52373   4.677   5.780   6.942 -0.1439  1.3670  1.4060
  388MOL0     H52374   4.675   5.539   6.906 -0.6396  0.9213 -0.9178
  388MOL0     H52375   4.794   5.506   7.039  3.1839 -0.4585 -1.0616
  388MOL0     H52376   4.848   5.666   6.778 -1.4160  1.0773  2.0643
  388MOL0     H52377   4.893   5.489   6.801  0.6037 -1.4565  1.4983
  388MOL0     H52378   5.189   5.706   7.028  0.5208 -0.8884  0.6250
  388MOL0     H52379   4.370   6.017   7.158  0.2471  0.1591  2.3708
  388MOL0     H52380   4.124   6.022   7.198 -4.0675 -1.8334 -0.5256
  389MOL0     O52381   9.677   2.325   3.656  0.0413  0.2157  0.0391
  389MOL0     C52382   9.761   2.359   3.565  0.7408 -0.1684 -1.1873
  389MOL0     O52383   9.742   2.450   3.466  0.0945  0.5344 -0.2002
  389MOL0     C52384   9.633   2.528   3.438 -0.5128 -0.0710  0.5432
  389MOL0     C52385   9.510   2.466   3.420 -0.1645 -0.1593  0.0942
  389MOL0     C52386   9.401   2.538   3.362 -0.7077 -0.6263  0.0256
  389MOL0     C52387   9.404   2.678   3.345 -0.1281 -0.5990  0.5131
  389MOL0     O52388   9.299   2.754   3.305 -0.2333 -0.2051 -0.1849
  389MOL0     C52389   9.181   2.695   3.254  0.3785 -0.0471  0.3107
  389MOL0     C52390   9.067   2.675   3.353 -1.4872 -0.3114  0.9202
  389MOL0     C52391   9.044   2.795   3.445  0.2286  0.5077  0.5899
  389MOL0     C52392   9.011   2.921   3.368  0.4875 -0.0717  0.3466
  389MOL0     C52393   8.895   2.904   3.272 -1.0577  0.2812  0.5127
  389MOL0     C52394   8.836   3.035   3.215  0.1827  0.0401 -0.3883
  389MOL0     C52395   8.933   3.089   3.104  0.1729  0.2988 -0.6067
  389MOL0     C52396   8.945   3.017   2.961 -0.4073  0.1358  0.1043
  389MOL0     N52397   8.932   3.117   2.848  0.7389 -0.5652  0.2701
  389MOL0     C52398   8.820   3.190   2.830  0.2980 -0.9643 -0.5795
  389MOL0     C52399   8.841   3.270   2.721  0.0293 -0.7671 -0.3992
  389MOL0     C52400   8.744   3.362   2.654 -0.5261  1.0541  0.5049
  389MOL0     C52401   8.719   3.475   2.745 -0.5612 -0.0557  0.4088
  389MOL0     C52402   8.676   3.605   2.675 -0.0108 -0.3027 -0.0202
  389MOL0     C52403   8.546   3.584   2.604 -0.2592 -0.1045  0.5889
  389MOL0     O52404   8.458   3.518   2.693 -1.2016 -0.5424  0.0325
  389MOL0     C52405   8.347   3.457   2.653  0.3550 -0.1204  0.6882
  389MOL0     C52406   8.284   3.487   2.536 -0.9707  0.8585 -0.1613
  389MOL0     C52407   8.169   3.414   2.490  0.5933 -0.7364 -0.6380
  389MOL0     C52408   8.110   3.452   2.357 -0.2114 -0.0072 -0.4470
  389MOL0     C52409   8.126   3.309   2.573 -0.5710  0.0010  0.3143
  389MOL0     C52410   8.029   3.208   2.530 -0.4188  0.2833 -0.7051
  389MOL0     O52411   7.997   3.201   2.396  0.6049 -0.1878 -0.1002
  389MOL0     C52412   7.897   3.111   2.360 -0.9067 -0.7270  0.4588
  389MOL0     C52413   7.949   2.991   2.313  0.6414 -0.5457  0.4672
  389MOL0     C52414   7.853   2.893   2.283  0.0616 -0.1272 -0.1389
  389MOL0     C52415   7.716   2.919   2.282  0.8969 -1.1530  0.1324
  389MOL0     O52416   7.628   2.821   2.267  0.3774 -0.1779 -0.6200
  389MOL0     C52417   7.528   2.835   2.169  0.0272 -0.2681 -0.0989
  389MOL0     C52418   7.397   2.788   2.226  1.6390 -0.2139  0.8244
  389MOL0     C52419   7.283   2.797   2.116  0.2141 -0.2999 -0.0057
  389MOL0     C52420   7.155   2.722   2.148 -0.6846  0.9368 -0.5907
  389MOL0     C52421   7.176   2.568   2.173  0.1241 -0.1295 -0.8567
  389MOL0     C52422   7.255   2.501   2.058  0.5023 -0.1135  0.1377
  389MOL0     C52423   7.165   2.478   1.933  0.7569 -0.7376 -0.0063
  389MOL0     C52424   7.253   2.507   1.807 -0.0096  0.6315  0.3845
  389MOL0    Cl52425   7.417   2.414   1.813 -0.0933  0.1496 -0.3140
  389MOL0     C52426   7.672   3.045   2.318 -0.3369 -0.5544  0.3870
  389MOL0     C52427   7.761   3.150   2.353  0.6957 -0.3614 -0.3581
  389MOL0     O52428   7.980   3.137   2.618 -0.2469 -0.4424  0.4297
  389MOL0     C52429   8.193   3.284   2.697  1.0043  0.4362  0.2897
  389MOL0     C52430   8.296   3.355   2.732  0.6213 -0.1036 -0.2790
  389MOL0     N52431   8.970   3.250   2.681 -0.2907 -0.1419  0.0488
  389MOL0     N52432   9.024   3.156   2.754 -0.0582 -0.1239  0.6895
  389MOL0     C52433   9.531   2.736   3.360  1.0885  0.0981 -0.1834
  389MOL0     C52434   9.643   2.665   3.408  0.0817 -0.2985  0.9204
  389MOL0     C52435   9.898   2.288   3.559  0.5125 -0.8020 -0.4214
  389MOL0     C52436   9.910   2.161   3.608  0.5299 -0.1222 -0.0263
  389MOL0     C52437  10.027   2.086   3.595 -0.1602 -0.2275  0.3589
  389MOL0     C52438  10.138   2.139   3.535  0.3970  0.2264  0.0802
  389MOL0     O52439  10.256   2.068   3.541 -0.9157  0.1378 -0.0305
  389MOL0     C52440  10.371   2.107   3.469  0.0575 -0.6246  0.2164
  389MOL0     C52441  10.345   2.107   3.320  0.1082 -0.3161 -0.0219
  389MOL0     C52442  10.288   1.979   3.261 -0.0651  0.2315 -0.1111
  389MOL0     C52443  10.247   1.987   3.109 -0.0150 -0.5622  0.4220
  389MOL0     C52444  10.107   2.037   3.094 -0.1818  0.2613  0.4166
  389MOL0     C52445  10.011   2.106   3.083  0.0911 -0.7226 -0.2641
  389MOL0     C52446  10.130   2.272   3.491  0.1499 -1.1105 -1.1235
  389MOL0     C52447  10.011   2.347   3.496 -0.0369 -0.0150 -0.4492
  389MOL0     H52448   9.502   2.359   3.438  1.9844 -0.3860 -0.0609
  389MOL0     H52449   9.303   2.494   3.342 -2.1476  2.9075 -1.6602
  389MOL0     H52450   9.157   2.771   3.179  0.0682  0.3917  0.8485
  389MOL0     H52451   9.203   2.605   3.196  1.8218  0.2205  0.4027
  389MOL0     H52452   8.976   2.639   3.305 -0.6231 -1.1220 -0.1805
  389MOL0     H52453   9.100   2.593   3.418  1.2033  2.3814  3.3052
  389MOL0     H52454   8.954   2.764   3.499 -0.5293 -1.5419 -1.6870
  389MOL0     H52455   9.131   2.809   3.511  1.3708  2.0375 -1.1526
  389MOL0     H52456   8.984   3.002   3.437 -0.1100  0.5973 -0.6513
  389MOL0     H52457   9.102   2.959   3.322  1.3983 -0.1080  2.0342
  389MOL0     H52458   8.936   2.847   3.188 -0.2282  1.6638 -0.0648
  389MOL0     H52459   8.822   2.843   3.325  0.6622 -1.5865  0.8774
  389MOL0     H52460   8.736   3.017   3.174  0.0193  0.3585 -0.1305
  389MOL0     H52461   8.815   3.106   3.296 -3.0695 -3.6393  2.3896
  389MOL0     H52462   8.908   3.194   3.084  0.3347  0.1513 -1.6799
  389MOL0     H52463   9.034   3.093   3.146  1.1057 -2.7132 -2.2645
  389MOL0     H52464   8.867   2.940   2.956 -0.9109  0.5394  1.2482
  389MOL0     H52465   9.042   2.968   2.953 -0.3284  0.3677 -0.3833
  389MOL0     H52466   8.725   3.173   2.880  0.9854 -0.6882  0.8968
  389MOL0     H52467   8.774   3.388   2.552 -2.4785  1.5489  0.0127
  389MOL0     H52468   8.658   3.295   2.643  0.6311 -0.6919  1.5103
  389MOL0     H52469   8.814   3.501   2.793 -0.8064 -0.4029  1.0953
  389MOL0     H52470   8.646   3.438   2.818 -0.8085  1.5367  1.0331
  389MOL0     H52471   8.754   3.625   2.601  0.4659 -1.9552 -0.0153
  389MOL0     H52472   8.660   3.687   2.745  2.5991  0.9812 -0.8052
  389MOL0     H52473   8.563   3.523   2.516 -0.5392 -0.9773  1.1294
  389MOL0     H52474   8.503   3.680   2.574  0.0632 -0.5892 -1.5411
  389MOL0     H52475   8.317   3.569   2.473 -0.6021  1.5596  0.9281
  389MOL0     H52476   8.158   3.547   2.330 -0.4485  0.5428  0.9474
  389MOL0     H52477   8.140   3.383   2.278  1.0635  0.2926 -0.2470
  389MOL0     H52478   8.002   3.468   2.369  0.0904  0.6932  1.9496
  389MOL0     H52479   8.055   2.967   2.312  1.6725  3.3394 -0.7284
  389MOL0     H52480   7.889   2.792   2.271  0.5364  0.0547 -0.2676
  389MOL0     H52481   7.513   2.937   2.131  1.5327 -0.1731 -0.4955
  389MOL0     H52482   7.548   2.771   2.083  1.0970 -0.1702  0.0622
  389MOL0     H52483   7.398   2.682   2.250  1.9863 -0.5420 -0.5505
  389MOL0     H52484   7.359   2.850   2.308 -1.4540 -0.8689  0.0399
  389MOL0     H52485   7.319   2.769   2.017 -2.8357 -1.8827 -0.7711
  389MOL0     H52486   7.253   2.902   2.103 -1.2322 -0.8828 -1.8148
  389MOL0     H52487   7.116   2.755   2.244 -0.4797  3.2632 -1.2449
  389MOL0     H52488   7.079   2.742   2.071  1.0646 -0.7320 -2.8952
  389MOL0     H52489   7.078   2.523   2.194  0.2868 -0.4327 -0.7323
  389MOL0     H52490   7.226   2.555   2.269 -3.4054  1.8586  1.4492
  389MOL0     H52491   7.339   2.563   2.026  1.8666 -1.6494  0.6201
  389MOL0     H52492   7.293   2.403   2.090  2.1702  0.9173  1.5250
  389MOL0     H52493   7.074   2.538   1.938  1.1791 -0.1578  1.7480
  389MOL0     H52494   7.127   2.376   1.931  0.2909 -0.5632 -0.3147
  389MOL0     H52495   7.258   2.616   1.795 -1.0051  0.5280 -1.4060
  389MOL0     H52496   7.197   2.479   1.717 -0.0193 -0.3223  0.6754
  389MOL0     H52497   7.564   3.058   2.328 -0.3187 -0.1165  0.0308
  389MOL0     H52498   7.733   3.246   2.396 -0.6398  0.5911 -3.1211
  389MOL0     H52499   8.165   3.213   2.774  4.5313  0.5737  1.9021
  389MOL0     H52500   8.334   3.317   2.826 -3.6685 -0.9693  1.3331
  389MOL0     H52501   9.533   2.842   3.338 -1.7987  0.4328  0.7283
  389MOL0     H52502   9.743   2.706   3.418  0.0153  0.8102 -2.0440
  389MOL0     H52503   9.824   2.116   3.657 -0.6285  1.7430 -0.2285
  389MOL0     H52504  10.036   1.986   3.637  3.7471 -0.1959 -0.0136
  389MOL0     H52505  10.387   2.207   3.509  2.0034 -1.3955  1.5451
  389MOL0     H52506  10.454   2.042   3.498 -0.0311 -0.7143  0.2700
  389MOL0     H52507  10.443   2.133   3.282 -0.2731  0.4495 -0.4961
  389MOL0     H52508  10.277   2.186   3.287  2.2351  1.0097 -1.4218
  389MOL0     H52509  10.196   1.949   3.311 -0.0453  1.1249  0.4943
  389MOL0     H52510  10.366   1.903   3.270  0.2225  0.6008  0.5993
  389MOL0     H52511  10.247   1.888   3.064  0.1430 -0.2364 -0.3076
  389MOL0     H52512  10.320   2.051   3.057 -0.6071  1.6534  2.1500
  389MOL0     H52513   9.925   2.171   3.086 -0.1049 -0.8500 -2.1520
  389MOL0     H52514  10.221   2.324   3.461  0.7000 -0.1295  1.9403
  389MOL0     H52515  10.016   2.450   3.461  3.0973  0.0093 -0.2021
  390MOL0     O52516   4.112   4.205   1.231  0.5144 -0.4934  0.2138
  390MOL0     C52517   4.225   4.194   1.274 -0.0876 -1.0924  0.0258
  390MOL0     O52518   4.261   4.204   1.402 -0.7765 -0.1274 -0.1257
  390MOL0     C52519   4.156   4.192   1.488  0.0877 -0.2507 -0.1910
  390MOL0     C52520   4.104   4.297   1.552 -0.2497 -1.3120  0.3081
  390MOL0     C52521   3.980   4.289   1.616  0.5755  0.0912  0.3747
  390MOL0     C52522   3.912   4.163   1.632  0.1436 -0.0398 -0.0997
  390MOL0     O52523   3.795   4.142   1.695 -0.2020  0.1043  0.3926
  390MOL0     C52524   3.701   4.253   1.700  0.5731 -0.2260 -0.4426
  390MOL0     C52525   3.570   4.210   1.752 -0.0892 -0.5691 -0.1590
  390MOL0     C52526   3.456   4.312   1.761  0.2637 -0.4739  0.3366
  390MOL0     C52527   3.322   4.266   1.822 -0.2573  0.9724  0.1575
  390MOL0     C52528   3.331   4.241   1.979 -1.3785 -0.5446  0.0004
  390MOL0     C52529   3.196   4.239   2.045  0.4120 -0.5750 -0.1411
  390MOL0     C52530   3.135   4.378   2.063  0.0903  0.3512 -0.7613
  390MOL0     C52531   3.049   4.389   2.197 -1.0955  0.3891 -0.7124
  390MOL0     N52532   2.944   4.285   2.211  0.3457 -0.1472 -0.1788
  390MOL0     C52533   2.953   4.139   2.208 -0.0707  0.1873 -0.7000
  390MOL0     C52534   2.827   4.106   2.217 -0.0240  0.3479  0.0530
  390MOL0     C52535   2.779   3.965   2.228 -0.1659  0.8971 -1.4593
  390MOL0     C52536   2.751   3.922   2.375 -0.0351  0.0615 -0.3292
  390MOL0     C52537   2.658   4.008   2.458 -0.2211  0.0662 -0.1015
  390MOL0     C52538   2.512   3.991   2.424  0.0203  0.7093  0.2064
  390MOL0     O52539   2.473   3.860   2.465 -0.0574  0.2381  0.3474
  390MOL0     C52540   2.343   3.819   2.463  0.2065 -0.4222 -0.3557
  390MOL0     C52541   2.304   3.688   2.482  0.2447  0.5822 -1.0091
  390MOL0     C52542   2.165   3.643   2.474 -0.3598  0.1662  0.4389
  390MOL0     C52543   2.133   3.497   2.508  0.2528  0.2287 -0.1831
  390MOL0     C52544   2.062   3.748   2.453 -0.3698 -0.0004 -0.1061
  390MOL0     C52545   1.912   3.713   2.449  0.0807 -0.5984  0.5541
  390MOL0     O52546   1.871   3.588   2.471  0.2913 -0.2864  0.2979
  390MOL0     C52547   1.734   3.563   2.449 -0.4142 -0.3625 -0.4528
  390MOL0     C52548   1.655   3.496   2.548 -0.2577  0.4126  0.2156
  390MOL0     C52549   1.518   3.465   2.531 -0.3150 -0.6568 -0.3622
  390MOL0     C52550   1.451   3.517   2.414 -0.3024 -0.2597 -0.0791
  390MOL0     O52551   1.319   3.504   2.386  0.1217  0.1580 -0.3552
  390MOL0     C52552   1.239   3.415   2.472  0.4707 -0.4319  0.8439
  390MOL0     C52553   1.094   3.404   2.410  0.3923  0.4119 -0.1394
  390MOL0     C52554   1.092   3.372   2.261  0.1920  0.2003 -0.3144
  390MOL0     C52555   0.954   3.380   2.193 -0.0457  0.2752 -0.0176
  390MOL0     C52556   0.854   3.289   2.260 -0.5127 -0.3033  0.7618
  390MOL0     C52557   0.723   3.260   2.179 -0.2848  0.0069 -0.1964
  390MOL0     C52558   0.659   3.140   2.247 -0.4393 -0.3891  0.7792
  390MOL0     C52559   0.531   3.103   2.177  1.0715 -0.0070  0.4919
  390MOL0    Cl52560   0.567   3.020   2.020 -0.4826  0.3503 -0.5354
  390MOL0     C52561   1.530   3.577   2.311 -0.0200 -0.0550 -0.7311
  390MOL0     C52562   1.664   3.598   2.324 -0.0359  0.8564  0.5545
  390MOL0     O52563   1.842   3.807   2.417  0.4981  0.1219  0.7529
  390MOL0     C52564   2.106   3.878   2.432 -0.0605  0.3152 -0.0967
  390MOL0     C52565   2.240   3.912   2.437  0.0385  0.1051 -0.5057
  390MOL0     N52566   2.738   4.210   2.236  0.3392  0.3284 -0.1239
  390MOL0     N52567   2.809   4.309   2.221  0.0868  0.0437  0.0327
  390MOL0     C52568   3.978   4.052   1.575  0.2635  0.3560  0.0966
  390MOL0     C52569   4.099   4.063   1.505 -0.5494 -0.8817  1.4737
  390MOL0     C52570   4.333   4.181   1.177  0.2829 -0.5702  0.1135
  390MOL0     C52571   4.309   4.219   1.042 -0.1713  0.2980  0.0872
  390MOL0     C52572   4.414   4.207   0.949 -0.8533  0.0488  0.6441
  390MOL0     C52573   4.545   4.174   0.990  0.2900 -0.1588 -0.6620
  390MOL0     O52574   4.650   4.175   0.913 -0.4376 -0.2305 -0.7084
  390MOL0     C52575   4.685   4.055   0.847 -0.0500  0.5571  0.8227
  390MOL0     C52576   4.824   4.032   0.890  0.2553  0.6273  0.2499
  390MOL0     C52577   4.876   3.886   0.842 -0.2786 -0.4684 -0.7931
  390MOL0     C52578   5.027   3.876   0.875  0.0900 -0.7675 -0.2939
  390MOL0     C52579   5.079   3.735   0.874  0.4339 -0.7400  0.2808
  390MOL0     C52580   5.125   3.623   0.869 -0.2027  0.4215  0.1543
  390MOL0     C52581   4.559   4.162   1.134 -0.3729 -0.2924  0.8958
  390MOL0     C52582   4.454   4.159   1.225 -0.9754 -0.4025 -0.5334
  390MOL0     H52583   4.161   4.389   1.552 -1.2861 -0.6134 -1.3122
  390MOL0     H52584   3.939   4.384   1.650 -0.5127 -0.3016  0.1988
  390MOL0     H52585   3.733   4.330   1.772  1.2511 -0.4085 -0.5391
  390MOL0     H52586   3.696   4.317   1.611 -2.2876 -2.7321 -2.2579
  390MOL0     H52587   3.545   4.140   1.672 -0.3862  1.1322 -1.6208
  390MOL0     H52588   3.576   4.158   1.848  0.4308 -0.0497  0.0886
  390MOL0     H52589   3.490   4.408   1.803 -1.6141 -0.6619  2.4964
  390MOL0     H52590   3.434   4.335   1.657  1.1615 -0.2491  0.1883
  390MOL0     H52591   3.244   4.342   1.811  0.0378  0.9177 -2.9687
  390MOL0     H52592   3.292   4.174   1.772 -1.3767 -0.2409  2.8312
  390MOL0     H52593   3.366   4.138   1.991  0.6364  0.2796  2.1532
  390MOL0     H52594   3.401   4.304   2.034 -0.3165 -0.1314 -1.7554
  390MOL0     H52595   3.126   4.171   1.997 -0.6691  1.5145 -1.6981
  390MOL0     H52596   3.209   4.208   2.149 -1.3442  0.1501  0.3407
  390MOL0     H52597   3.211   4.457   2.066  2.5640 -1.8902  1.2068
  390MOL0     H52598   3.074   4.399   1.975  0.1766  1.7628 -0.5201
  390MOL0     H52599   2.999   4.486   2.201  0.5675  1.2734 -0.5809
  390MOL0     H52600   3.121   4.382   2.279 -0.6264  0.5685 -1.1022
  390MOL0     H52601   3.033   4.067   2.204 -1.4764 -1.6054  1.3632
  390MOL0     H52602   2.699   3.945   2.157 -0.0376  0.9921 -1.6313
  390MOL0     H52603   2.859   3.899   2.192 -2.5864 -1.7079 -2.3883
  390MOL0     H52604   2.845   3.925   2.432  0.6084 -1.3623 -1.2593
  390MOL0     H52605   2.709   3.822   2.383 -0.4897  0.4004  4.3061
  390MOL0     H52606   2.700   4.109   2.464 -0.7031  0.1898  1.8503
  390MOL0     H52607   2.668   3.968   2.559 -0.2651  2.0990  0.7648
  390MOL0     H52608   2.490   4.016   2.320 -0.5778  1.6489  0.5392
  390MOL0     H52609   2.462   4.060   2.492  0.3872  1.1107  0.0748
  390MOL0     H52610   2.384   3.615   2.486  0.6721  1.1155  0.8245
  390MOL0     H52611   2.217   3.446   2.557  0.1826  0.7161  0.4525
  390MOL0     H52612   2.050   3.492   2.579  0.1105  0.6142 -0.3225
  390MOL0     H52613   2.101   3.443   2.418 -0.2429  0.1777  0.0237
  390MOL0     H52614   1.705   3.445   2.630  1.5019  0.2342 -0.8944
  390MOL0     H52615   1.465   3.396   2.595  1.7245 -1.8599  0.1071
  390MOL0     H52616   1.288   3.317   2.469 -1.2982 -1.3495  0.4575
  390MOL0     H52617   1.224   3.461   2.569 -0.5004  0.2700  0.3731
  390MOL0     H52618   1.038   3.326   2.462 -1.9517 -0.0458 -3.0326
  390MOL0     H52619   1.043   3.497   2.437 -0.7220  0.0716 -1.0032
  390MOL0     H52620   1.133   3.271   2.250 -2.5383 -0.8784 -1.5459
  390MOL0     H52621   1.158   3.443   2.211 -1.3343  3.0543  1.4362
  390MOL0     H52622   0.903   3.477   2.188 -1.3535 -0.4542 -1.6316
  390MOL0     H52623   0.975   3.359   2.088  0.0974  1.2874 -0.2068
  390MOL0     H52624   0.827   3.323   2.361 -1.1920  2.4043 -0.2544
  390MOL0     H52625   0.903   3.191   2.264  0.8408  0.2302 -1.4521
  390MOL0     H52626   0.660   3.349   2.189  1.5681  1.2291  1.3112
  390MOL0     H52627   0.748   3.244   2.073 -2.1300  0.2691 -0.6959
  390MOL0     H52628   0.630   3.173   2.347 -1.8516 -0.2188  0.3360
  390MOL0     H52629   0.715   3.047   2.258  0.2924  0.1458  1.6061
  390MOL0     H52630   0.484   3.198   2.150 -1.6628 -0.9594  1.5939
  390MOL0     H52631   0.462   3.041   2.234  0.9312 -1.3767 -1.1069
  390MOL0     H52632   1.476   3.587   2.217 -4.2785  0.8845  1.5455
  390MOL0     H52633   1.721   3.635   2.239 -1.9352 -1.2121 -1.7835
  390MOL0     H52634   2.036   3.958   2.412  0.3166  0.6598 -0.0539
  390MOL0     H52635   2.261   4.016   2.413  1.6151 -0.6480 -2.7564
  390MOL0     H52636   3.937   3.952   1.568  3.7725 -1.4350  2.1198
  390MOL0     H52637   4.125   3.982   1.437 -0.6389  2.1679 -2.6325
  390MOL0     H52638   4.212   4.237   0.998 -0.4421 -2.1690 -0.4642
  390MOL0     H52639   4.400   4.241   0.847 -2.2943 -0.6021  0.6022
  390MOL0     H52640   4.620   3.973   0.880 -2.4166  2.1230  0.2837
  390MOL0     H52641   4.686   4.063   0.738 -0.5796 -4.3793  0.1866
  390MOL0     H52642   4.844   4.029   0.997  2.9332 -3.8650 -0.1384
  390MOL0     H52643   4.891   4.104   0.843  0.7937  0.4115  0.6907
  390MOL0     H52644   4.845   3.869   0.739  0.4350 -1.6168 -0.8342
  390MOL0     H52645   4.818   3.813   0.900 -2.6566  1.0182 -1.1575
  390MOL0     H52646   5.036   3.900   0.981  1.3753  0.6508 -0.6878
  390MOL0     H52647   5.087   3.949   0.820  0.0082 -0.7911 -0.4171
  390MOL0     H52648   5.162   3.524   0.853  0.1768  0.4203  0.9869
  390MOL0     H52649   4.656   4.148   1.182 -0.1515 -2.4833 -0.0737
  390MOL0     H52650   4.476   4.141   1.330 -0.4351 -1.9323 -0.8804
  391MOL0     O52651   1.737   7.229   0.303  0.2238  0.0166  0.1982
  391MOL0     C52652   1.778   7.170   0.201  0.3502  0.5204 -0.0373
  391MOL0     O52653   1.702   7.130   0.094  0.6182 -0.5647  0.1184
  391MOL0     C52654   1.567   7.159   0.091  1.0093 -0.6845 -0.8401
  391MOL0     C52655   1.485   7.062   0.040 -0.3769  0.4004  0.6280
  391MOL0     C52656   1.354   7.076   0.008  0.5541  0.3588  1.2764
  391MOL0     C52657   1.299   7.199   0.029  0.3320  0.4660  0.1433
  391MOL0     O52658   1.163   7.235   0.007  0.1265 -0.6191  0.4159
  391MOL0     C52659   1.066   7.126   0.001  0.2258 -0.2321  0.0321
  391MOL0     C52660   0.931   7.177  -0.050 -0.2168  0.0500 -0.3161
  391MOL0     C52661   0.808   7.108   0.007 -0.2225  0.5796 -0.6914
  391MOL0     C52662   0.680   7.195  -0.010  0.4016 -0.2465 -0.5538
  391MOL0     C52663   0.560   7.135   0.072  0.3333 -0.2177 -0.1453
  391MOL0     C52664   0.428   7.167  -0.008  0.3632  0.3852  0.4446
  391MOL0     C52665   0.304   7.131   0.075 -0.0220  0.1111 -0.3168
  391MOL0     C52666   0.270   6.985   0.062 -0.2665  0.5332  0.3623
  391MOL0     N52667   0.132   6.953   0.082  0.1127 -0.3929 -0.9164
  391MOL0     C52668   0.045   7.008   0.175 -0.1980  0.4935 -0.0646
  391MOL0     C52669  -0.073   6.948   0.155 -0.1631 -0.2080 -0.4008
  391MOL0     C52670  -0.201   6.971   0.235  0.3530  0.3782  0.3246
  391MOL0     C52671  -0.327   6.952   0.147 -0.3328 -0.0270  0.4523
  391MOL0     C52672  -0.454   6.999   0.213 -0.1818  0.6772 -0.4718
  391MOL0     C52673  -0.578   6.971   0.118 -0.5285 -0.3360  0.0843
  391MOL0     O52674  -0.691   6.984   0.204 -0.2647 -0.4074 -0.3067
  391MOL0     C52675  -0.822   7.012   0.155 -0.3304  0.1219  0.2387
  391MOL0     C52676  -0.922   7.024   0.253 -0.0443 -0.1900  0.7170
  391MOL0     C52677  -1.060   7.046   0.227 -0.0811  0.7649  1.7178
  391MOL0     C52678  -1.145   7.046   0.353 -0.6566  0.6547 -0.5672
  391MOL0     C52679  -1.099   7.041   0.087  0.0848  0.9209  0.2007
  391MOL0     C52680  -1.240   7.043   0.045 -0.1023 -0.7097  0.3296
  391MOL0     O52681  -1.260   6.969  -0.071  0.2593 -0.0436 -0.3050
  391MOL0     C52682  -1.385   6.969  -0.124 -0.1246 -0.0933 -0.2335
  391MOL0     C52683  -1.445   7.086  -0.171  0.1999  0.0643 -0.1597
  391MOL0     C52684  -1.580   7.091  -0.212  0.0046 -0.1735  0.2015
  391MOL0     C52685  -1.649   6.968  -0.212  0.1830 -0.5068 -1.0387
  391MOL0     O52686  -1.780   6.963  -0.249  1.0835  0.6629 -0.5526
  391MOL0     C52687  -1.870   7.068  -0.216  0.0342  0.4296  0.3549
  391MOL0     C52688  -2.012   7.014  -0.185  0.1662 -0.0503 -0.1502
  391MOL0     C52689  -2.119   7.114  -0.174 -0.3950 -0.2664 -0.0538
  391MOL0     C52690  -2.252   7.043  -0.137 -0.8831 -1.0528 -0.0349
  391MOL0     C52691  -2.380   7.113  -0.172 -0.5506 -0.0153 -0.9395
  391MOL0     C52692  -2.484   7.067  -0.069 -0.7261  0.7635 -0.2079
  391MOL0     C52693  -2.620   7.109  -0.133 -0.2505 -0.2364  0.7734
  391MOL0     C52694  -2.732   7.027  -0.059  0.1021 -0.3910 -0.0162
  391MOL0    Cl52695  -2.891   7.115  -0.091  0.3631 -0.1545  0.2175
  391MOL0     C52696  -1.587   6.846  -0.171 -0.0612 -0.4326  0.2590
  391MOL0     C52697  -1.459   6.851  -0.130 -1.0660 -0.8862 -0.9231
  391MOL0     O52698  -1.324   7.118   0.105  0.1649  0.1465 -0.0136
  391MOL0     C52699  -0.998   7.017  -0.013  0.9468 -0.5305 -0.1410
  391MOL0     C52700  -0.863   7.012   0.026 -0.2045 -0.4760 -0.3813
  391MOL0     N52701  -0.056   6.850   0.061 -0.1830  0.1245  0.6098
  391MOL0     N52702   0.057   6.860   0.010  0.4831  0.5832  0.2158
  391MOL0     C52703   1.382   7.306   0.074 -0.1002 -0.2616  0.2315
  391MOL0     C52704   1.515   7.283   0.106 -0.1649 -0.5890 -0.4889
  391MOL0     C52705   1.927   7.143   0.192  0.9985  0.4753  0.1892
  391MOL0     C52706   1.984   7.136   0.069  0.0438  0.7423  0.0840
  391MOL0     C52707   2.123   7.113   0.053 -0.7289  0.1840  0.2727
  391MOL0     C52708   2.204   7.108   0.171  0.3400  0.9821  0.3946
  391MOL0     O52709   2.343   7.107   0.164  0.2511  0.2390 -0.6242
  391MOL0     C52710   2.412   7.137   0.041 -0.3181  0.4662  1.1156
  391MOL0     C52711   2.564   7.137   0.076  0.6722  0.1513 -0.3338
  391MOL0     C52712   2.600   7.251   0.174 -0.1751  0.2998 -0.0013
  391MOL0     C52713   2.743   7.233   0.223  0.4316 -0.3388  0.9679
  391MOL0     C52714   2.840   7.252   0.115  0.6196  0.3050  0.6477
  391MOL0     C52715   2.928   7.265   0.038  0.1712  0.4711  0.8271
  391MOL0     C52716   2.142   7.120   0.297 -0.1296 -1.0222 -1.1002
  391MOL0     C52717   2.010   7.141   0.306  0.4526 -1.0236  0.1323
  391MOL0     H52718   1.531   6.971   0.004 -0.6803  0.8965 -1.1570
  391MOL0     H52719   1.294   6.999  -0.039  1.7008  0.2127 -0.0362
  391MOL0     H52720   1.105   7.051  -0.068 -2.8880 -1.1206 -0.9111
  391MOL0     H52721   1.053   7.082   0.101  0.7662  0.4440  0.4038
  391MOL0     H52722   0.921   7.281  -0.018 -2.6285 -0.2458  0.0523
  391MOL0     H52723   0.926   7.173  -0.159  1.0610  3.0527 -0.5906
  391MOL0     H52724   0.782   7.015  -0.046  0.0300  0.0681  0.0598
  391MOL0     H52725   0.828   7.078   0.110  0.4033  1.2851 -0.6024
  391MOL0     H52726   0.702   7.299   0.018 -0.2837  1.3287 -5.0180
  391MOL0     H52727   0.655   7.203  -0.116 -1.6997  0.8360 -0.0281
  391MOL0     H52728   0.567   7.026   0.070  1.8284 -0.2237  1.9806
  391MOL0     H52729   0.561   7.167   0.177  3.8574 -2.5305  0.6861
  391MOL0     H52730   0.432   7.275  -0.029  1.9103  0.6613  1.8917
  391MOL0     H52731   0.426   7.105  -0.097 -0.0948 -2.0679  2.0680
  391MOL0     H52732   0.312   7.165   0.179 -1.5829  0.8379 -0.4086
  391MOL0     H52733   0.219   7.187   0.035  0.5774  1.0003 -0.3741
  391MOL0     H52734   0.331   6.920   0.127 -0.8441 -2.3457 -1.7654
  391MOL0     H52735   0.292   6.947  -0.038 -1.5842 -0.9825  0.6047
  391MOL0     H52736   0.068   7.088   0.244  2.9225  0.2480 -0.6558
  391MOL0     H52737  -0.203   6.902   0.320 -1.2627  1.7200  1.4508
  391MOL0     H52738  -0.192   7.071   0.280  1.2681 -0.1012  1.2634
  391MOL0     H52739  -0.355   6.848   0.125 -2.7791  0.2281  1.9523
  391MOL0     H52740  -0.319   7.004   0.051  1.0490 -0.0628  0.5257
  391MOL0     H52741  -0.447   7.107   0.231  2.9960  0.2659  1.5219
  391MOL0     H52742  -0.475   6.951   0.309  0.8402  0.6865 -0.2371
  391MOL0     H52743  -0.582   6.869   0.079  3.3296 -1.1798  1.4959
  391MOL0     H52744  -0.574   7.044   0.037  1.6576 -0.4257  0.0562
  391MOL0     H52745  -0.885   7.025   0.355  3.7081 -1.4777 -0.4629
  391MOL0     H52746  -1.220   6.967   0.347  0.5063 -0.7106  1.5519
  391MOL0     H52747  -1.077   7.020   0.434 -0.2562 -0.9275 -1.3765
  391MOL0     H52748  -1.189   7.145   0.372 -0.3736  1.1608 -2.3112
  391MOL0     H52749  -1.384   7.174  -0.183 -1.5330  1.2245 -0.7677
  391MOL0     H52750  -1.623   7.184  -0.247  0.8987  0.1011 -0.1963
  391MOL0     H52751  -1.828   7.117  -0.128 -0.8156 -0.0474  1.0414
  391MOL0     H52752  -1.869   7.143  -0.296  2.4830  1.3461  1.1510
  391MOL0     H52753  -2.048   6.947  -0.263 -1.6717  0.4109  0.2560
  391MOL0     H52754  -2.020   6.942  -0.102 -2.2944 -1.1001 -1.2030
  391MOL0     H52755  -2.132   7.174  -0.264 -0.1020  0.3280  0.2980
  391MOL0     H52756  -2.084   7.182  -0.096  1.4598  0.5414 -1.5305
  391MOL0     H52757  -2.253   6.942  -0.179 -0.2176 -0.8227 -0.6153
  391MOL0     H52758  -2.239   7.031  -0.029  3.5090  0.2411 -0.2498
  391MOL0     H52759  -2.404   7.081  -0.274 -0.0594 -4.3015  0.0892
  391MOL0     H52760  -2.356   7.220  -0.166  2.5063 -0.5932 -0.8852
  391MOL0     H52761  -2.491   6.958  -0.066 -1.8691  0.8173 -0.3613
  391MOL0     H52762  -2.474   7.106   0.032 -1.0361 -2.0478  1.0134
  391MOL0     H52763  -2.636   7.093  -0.240 -1.8017  0.4355  0.8855
  391MOL0     H52764  -2.635   7.217  -0.125  0.5488 -0.1784  1.7896
  391MOL0     H52765  -2.722   7.022   0.050 -0.7660 -0.5242  0.0649
  391MOL0     H52766  -2.738   6.928  -0.106 -0.5561 -0.3749  0.0286
  391MOL0     H52767  -1.640   6.752  -0.183  0.5016 -0.6084 -1.0486
  391MOL0     H52768  -1.418   6.761  -0.087  1.2803  0.4339 -0.2116
  391MOL0     H52769  -1.017   7.014  -0.120  1.4136 -1.3793 -0.2123
  391MOL0     H52770  -0.800   6.984  -0.058  1.4829 -3.6535  1.7282
  391MOL0     H52771   1.345   7.408   0.083  0.8140  0.0856  0.1862
  391MOL0     H52772   1.566   7.369   0.147 -1.6338 -0.7877  1.9996
  391MOL0     H52773   1.924   7.155  -0.019 -0.3035  0.2507  0.2082
  391MOL0     H52774   2.172   7.109  -0.044 -0.4559  1.6787  0.3236
  391MOL0     H52775   2.396   7.058  -0.033 -1.4820  0.6360  1.1687
  391MOL0     H52776   2.376   7.232   0.001  2.4156  0.3755 -1.9749
  391MOL0     H52777   2.618   7.150  -0.019 -0.6683  1.6829 -0.9405
  391MOL0     H52778   2.602   7.042   0.112 -0.9631  0.2370  1.7953
  391MOL0     H52779   2.543   7.251   0.268 -0.2048  1.3401 -0.0123
  391MOL0     H52780   2.583   7.353   0.138 -1.9020  0.1626  0.3031
  391MOL0     H52781   2.761   7.143   0.283  1.9699  1.0373  2.6648
  391MOL0     H52782   2.762   7.308   0.300  3.8257 -1.2309  1.1477
  391MOL0     H52783   3.020   7.268  -0.016  0.6616  1.1215  1.6670
  391MOL0     H52784   2.202   7.129   0.386 -1.1991  1.4088 -0.5512
  391MOL0     H52785   1.960   7.140   0.402 -0.2918 -1.5091 -0.2480
  392MOL0     O52786   1.931   5.419  11.291  0.1797  0.5913 -0.3230
  392MOL0     C52787   1.872   5.319  11.268 -0.0724  0.7682  0.3708
  392MOL0     O52788   1.748   5.304  11.215  0.5693  0.4122 -0.0642
  392MOL0     C52789   1.700   5.420  11.152 -1.1034  0.7393 -0.5291
  392MOL0     C52790   1.611   5.509  11.217 -0.9444 -0.5595  0.8807
  392MOL0     C52791   1.568   5.622  11.145 -0.3676  0.4899  0.0376
  392MOL0     C52792   1.616   5.650  11.018  0.3311 -0.4574  0.0908
  392MOL0     O52793   1.549   5.751  10.958  0.0975  0.3600  0.7804
  392MOL0     C52794   1.611   5.815  10.838  0.0259  0.2533  0.7857
  392MOL0     C52795   1.747   5.879  10.863 -0.1248  0.1372  0.0183
  392MOL0     C52796   1.806   5.941  10.735 -0.3571  0.1566 -0.1476
  392MOL0     C52797   1.947   6.000  10.751 -0.8031  0.9188 -0.1921
  392MOL0     C52798   1.970   6.094  10.630 -0.9985 -0.7997  0.6357
  392MOL0     C52799   2.126   6.106  10.627 -0.0819 -0.2342  0.4434
  392MOL0     C52800   2.179   6.215  10.527 -0.0751 -0.6975  0.6744
  392MOL0     C52801   2.149   6.179  10.383  0.3503  0.1291 -0.0771
  392MOL0     N52802   2.212   6.273  10.285 -0.3062  0.3254  0.5890
  392MOL0     C52803   2.172   6.404  10.272 -0.3083  0.3908 -0.1437
  392MOL0     C52804   2.258   6.454  10.178 -0.4891  1.0119  0.3244
  392MOL0     C52805   2.243   6.586  10.112 -0.6380  0.3442 -0.3213
  392MOL0     C52806   2.218   6.592   9.962  0.6839 -0.0053 -0.1675
  392MOL0     C52807   2.342   6.565   9.871  0.3691  0.5164 -0.6982
  392MOL0     C52808   2.294   6.546   9.722 -0.1983  0.0176  0.0026
  392MOL0     O52809   2.283   6.409   9.678  0.8901 -0.0145  0.2908
  392MOL0     C52810   2.168   6.353   9.707 -0.2578  0.0201  1.3432
  392MOL0     C52811   2.151   6.281   9.822  0.2446  0.6848 -0.0683
  392MOL0     C52812   2.023   6.228   9.853  0.4102 -0.8721  0.0055
  392MOL0     C52813   2.030   6.143   9.981 -0.4883 -0.4067  0.2698
  392MOL0     C52814   1.908   6.264   9.773 -0.6916  0.2627  0.4285
  392MOL0     C52815   1.767   6.230   9.807 -0.1588  0.0110 -0.1310
  392MOL0     O52816   1.670   6.246   9.709 -0.1526 -0.1498  0.4480
  392MOL0     C52817   1.542   6.291   9.746  0.3853 -0.1708  0.7859
  392MOL0     C52818   1.499   6.427   9.723  0.6959  0.3422 -0.6651
  392MOL0     C52819   1.377   6.465   9.760  0.2650 -0.0189  0.4457
  392MOL0     C52820   1.292   6.381   9.822  0.2454  0.4523 -0.7214
  392MOL0     O52821   1.171   6.432   9.855  1.0257 -1.0820 -0.1816
  392MOL0     C52822   1.073   6.345   9.921  1.2181  0.4338  0.0115
  392MOL0     C52823   0.935   6.411   9.921 -0.2899  0.9308 -0.2509
  392MOL0     C52824   0.822   6.313   9.975  0.4624 -0.7170  0.0696
  392MOL0     C52825   0.696   6.386   9.966 -0.0857 -0.0927 -0.0596
  392MOL0     C52826   0.562   6.300  10.010 -0.9475 -0.2491  0.5804
  392MOL0     C52827   0.431   6.394   9.989  0.1203  0.8497 -0.4068
  392MOL0     C52828   0.299   6.322  10.018  0.5502  0.1250 -0.2338
  392MOL0     C52829   0.177   6.370   9.934 -1.0146  0.1993 -0.9073
  392MOL0    Cl52830   0.137   6.536   9.991 -0.1451 -0.1474 -0.4778
  392MOL0     C52831   1.329   6.248   9.851 -0.3633 -0.6757  0.1746
  392MOL0     C52832   1.456   6.202   9.809 -0.1134  0.1172 -0.2092
  392MOL0     O52833   1.742   6.187   9.920  0.1326  0.5666 -0.1269
  392MOL0     C52834   1.930   6.336   9.659 -0.5690 -0.0278  0.1394
  392MOL0     C52835   2.057   6.380   9.631 -0.4692  0.3582  0.1305
  392MOL0     N52836   2.344   6.353  10.140  0.1914  0.1304 -0.7874
  392MOL0     N52837   2.311   6.240  10.204 -0.3968 -0.0734  0.7985
  392MOL0     C52838   1.707   5.562  10.951  0.7572 -0.0708 -0.6809
  392MOL0     C52839   1.748   5.449  11.021  0.2471  0.0678 -0.6473
  392MOL0     C52840   1.955   5.194  11.296  1.0946 -0.3709  1.1346
  392MOL0     C52841   2.094   5.207  11.306 -0.2453 -0.2159  0.8888
  392MOL0     C52842   2.176   5.100  11.337  0.3327 -0.2867 -0.5921
  392MOL0     C52843   2.126   4.973  11.348  0.2347  0.0480 -0.0747
  392MOL0     O52844   2.196   4.858  11.368  0.4462 -0.0249  0.1600
  392MOL0     C52845   2.182   4.809  11.503  0.3416 -0.0828 -0.2729
  392MOL0     C52846   2.239   4.901  11.609 -0.0376  0.2245 -0.1935
  392MOL0     C52847   2.395   4.903  11.599  0.0466  0.7509  0.3962
  392MOL0     C52848   2.452   5.027  11.656 -0.2342 -0.2009 -0.8252
  392MOL0     C52849   2.598   5.024  11.636  0.4797 -0.6744  0.7172
  392MOL0     C52850   2.714   5.000  11.610  0.6770 -0.4147  0.5471
  392MOL0     C52851   1.986   4.958  11.323 -0.1792 -0.1497 -0.9887
  392MOL0     C52852   1.899   5.074  11.299 -0.5757  0.5197 -0.3922
  392MOL0     H52853   1.580   5.485  11.318 -0.0871 -2.6070  0.6952
  392MOL0     H52854   1.485   5.681  11.184  1.6065  2.1618  1.9970
  392MOL0     H52855   1.610   5.742  10.756 -1.6231 -1.0269  1.8561
  392MOL0     H52856   1.538   5.894  10.816  0.1668  0.7791  2.1068
  392MOL0     H52857   1.741   5.951  10.945 -0.4785 -0.6964  0.7493
  392MOL0     H52858   1.817   5.807  10.907 -1.7066 -0.7500  1.2053
  392MOL0     H52859   1.815   5.850  10.675 -0.9475 -0.1154  0.1699
  392MOL0     H52860   1.740   6.005  10.677  0.3599  0.0738 -1.0939
  392MOL0     H52861   1.948   6.062  10.841 -0.6193 -0.7366  0.9884
  392MOL0     H52862   2.016   5.922  10.784 -1.0107  1.6096  2.0861
  392MOL0     H52863   1.924   6.054  10.539  2.9868 -2.9797 -0.6600
  392MOL0     H52864   1.928   6.195  10.643  0.4877 -0.3056  1.8131
  392MOL0     H52865   2.154   6.132  10.729  0.0142 -0.3407  0.4439
  392MOL0     H52866   2.169   6.011  10.594 -1.7087 -0.1576 -2.1602
  392MOL0     H52867   2.140   6.313  10.555 -0.8954 -1.2354  1.4786
  392MOL0     H52868   2.288   6.217  10.543 -0.3480 -1.9186  3.2130
  392MOL0     H52869   2.043   6.199  10.368  1.1654  3.9820 -2.0238
  392MOL0     H52870   2.165   6.073  10.364 -1.1271 -0.3402  1.0758
  392MOL0     H52871   2.094   6.458  10.324  0.5575  1.6268 -0.0832
  392MOL0     H52872   2.173   6.650  10.167 -1.0698  0.1791 -0.6733
  392MOL0     H52873   2.339   6.634  10.132  0.6252 -1.4134 -1.7621
  392MOL0     H52874   2.173   6.690   9.941  0.3142 -0.2826 -0.7056
  392MOL0     H52875   2.137   6.523   9.936 -1.9804  1.9356  2.3370
  392MOL0     H52876   2.392   6.475   9.906  0.2961  0.3519 -1.0109
  392MOL0     H52877   2.406   6.653   9.882 -0.4853  0.8432  3.1774
  392MOL0     H52878   2.366   6.597   9.657 -0.1379  0.4533  0.4044
  392MOL0     H52879   2.201   6.603   9.716 -0.1528  0.8671  4.3441
  392MOL0     H52880   2.239   6.254   9.879  0.5321 -0.1311 -0.8667
  392MOL0     H52881   2.024   6.202  10.073 -4.3005 -2.4393  1.5195
  392MOL0     H52882   1.956   6.064   9.994  0.4955 -1.1671  1.3970
  392MOL0     H52883   2.127   6.095   9.992  1.5812  3.3442  0.1042
  392MOL0     H52884   1.562   6.510   9.693 -2.1714  3.3158  0.9639
  392MOL0     H52885   1.330   6.561   9.742 -0.9324 -0.5022  0.8936
  392MOL0     H52886   1.061   6.262   9.851  2.5003 -0.6922  1.0787
  392MOL0     H52887   1.098   6.315  10.023 -1.9586  3.9849  2.1116
  392MOL0     H52888   0.939   6.500   9.985 -2.5218  0.2002  1.0366
  392MOL0     H52889   0.907   6.442   9.820 -0.7885  3.0256  0.4847
  392MOL0     H52890   0.833   6.286  10.080 -1.1469  1.1326  0.7710
  392MOL0     H52891   0.809   6.221   9.917 -0.8670 -1.5450  1.5768
  392MOL0     H52892   0.699   6.479  10.024  0.8818  1.3107 -2.2625
  392MOL0     H52893   0.678   6.429   9.868  0.2279  1.4133  0.5170
  392MOL0     H52894   0.571   6.277  10.117  2.5320  0.4543  0.5580
  392MOL0     H52895   0.551   6.208   9.953  0.1177  0.6384 -1.1394
  392MOL0     H52896   0.438   6.494  10.034 -2.2122  2.4814 -3.3161
  392MOL0     H52897   0.427   6.422   9.883  1.5065  2.3725 -0.0955
  392MOL0     H52898   0.277   6.334  10.124  0.7321 -0.4183 -0.1331
  392MOL0     H52899   0.317   6.216   9.998 -1.5774 -0.3353 -0.0038
  392MOL0     H52900   0.090   6.304   9.945  0.1826 -1.1641  1.0148
  392MOL0     H52901   0.212   6.369   9.830  0.5956  3.3445 -0.5210
  392MOL0     H52902   1.261   6.186   9.907 -1.7123  1.3715  0.9139
  392MOL0     H52903   1.498   6.108   9.841  3.7646  1.0693 -1.8987
  392MOL0     H52904   1.841   6.358   9.601 -1.1192 -1.3063  0.4437
  392MOL0     H52905   2.068   6.438   9.540  3.6096 -0.0556  0.1895
  392MOL0     H52906   1.746   5.583  10.852  0.7734 -0.8167 -0.8368
  392MOL0     H52907   1.821   5.383  10.975 -1.2111 -2.8539  0.9049
  392MOL0     H52908   2.145   5.302  11.293 -0.2340  0.0772  2.7867
  392MOL0     H52909   2.282   5.121  11.331  0.1651  0.3823 -1.3676
  392MOL0     H52910   2.080   4.777  11.529 -0.3265  1.6084 -0.6653
  392MOL0     H52911   2.236   4.714  11.506  0.6660  0.1193  0.2472
  392MOL0     H52912   2.216   4.867  11.710  2.3288  2.2798  1.1306
  392MOL0     H52913   2.197   5.002  11.604  0.1306  0.4109  1.7262
  392MOL0     H52914   2.429   4.881  11.498 -1.5745  0.0497 -0.0422
  392MOL0     H52915   2.439   4.819  11.654  1.1545 -0.2192 -1.8363
  392MOL0     H52916   2.441   5.033  11.764  2.9827  2.7354 -0.4913
  392MOL0     H52917   2.403   5.121  11.629 -1.8223 -0.0726  2.1352
  392MOL0     H52918   2.818   4.978  11.597  1.4197  2.5591  0.6541
  392MOL0     H52919   1.948   4.856  11.328  1.0315 -0.5608  0.8969
  392MOL0     H52920   1.795   5.057  11.274 -0.3846  0.2915 -1.0828
  393MOL0     O52921   2.861   0.200   0.542 -0.1513 -0.0561 -0.3033
  393MOL0     C52922   2.932   0.212   0.446 -1.3481  0.7039  0.1242
  393MOL0     O52923   2.891   0.252   0.319 -0.5904  0.4614  0.1578
  393MOL0     C52924   2.763   0.248   0.294  0.6056 -0.2207  0.1952
  393MOL0     C52925   2.672   0.143   0.305  0.1379 -0.0594  0.1390
  393MOL0     C52926   2.543   0.160   0.260  0.7381 -0.2225 -0.2083
  393MOL0     C52927   2.507   0.278   0.197  0.5828  1.0188  0.7473
  393MOL0     O52928   2.379   0.309   0.152  0.2064 -0.5226  0.5085
  393MOL0     C52929   2.271   0.220   0.173  0.1460  0.4553 -0.2825
  393MOL0     C52930   2.154   0.264   0.085  0.0167  0.2720  0.1385
  393MOL0     C52931   2.012   0.212   0.131  0.1640 -0.0196  0.0670
  393MOL0     C52932   1.950   0.257   0.262  0.1127  0.1164 -0.0564
  393MOL0     C52933   1.796   0.273   0.251 -0.1242  0.3406 -0.1423
  393MOL0     C52934   1.735   0.291   0.387 -0.0131  0.1518 -0.9111
  393MOL0     C52935   1.582   0.290   0.375  0.2735 -0.2611  0.6746
  393MOL0     C52936   1.522   0.351   0.504 -0.0106  0.1417  0.2242
  393MOL0     N52937   1.373   0.362   0.502 -0.2719 -0.0518 -0.0214
  393MOL0     C52938   1.282   0.318   0.409 -0.0789 -0.1054 -0.3238
  393MOL0     C52939   1.156   0.356   0.451 -0.6806  0.4903  0.0322
  393MOL0     C52940   1.030   0.325   0.375  0.4235  0.2571  0.8678
  393MOL0     C52941   0.914   0.284   0.465 -0.4086  0.8091  0.3839
  393MOL0     C52942   0.774   0.274   0.394  0.3836  0.1728  0.8985
  393MOL0     C52943   0.657   0.267   0.489  0.0635  0.0679  0.1924
  393MOL0     O52944   0.534   0.247   0.415 -0.0706  0.1972 -0.0162
  393MOL0     C52945   0.415   0.242   0.481 -0.6534  0.0774 -0.2913
  393MOL0     C52946   0.395   0.296   0.613  1.1833  0.7905 -0.0666
  393MOL0     C52947   0.269   0.285   0.672 -0.3742 -0.6169 -0.0216
  393MOL0     C52948   0.278   0.342   0.812  0.2637 -0.3178  0.9454
  393MOL0     C52949   0.161   0.211   0.615  0.3038 -0.2923 -0.2078
  393MOL0     C52950   0.028   0.204   0.678  0.3431 -0.6528  0.4947
  393MOL0     O52951   0.007   0.274   0.791  0.0590 -0.4414  0.7840
  393MOL0     C52952  -0.119   0.292   0.839  0.3570  0.7542  0.9827
  393MOL0     C52953  -0.182   0.416   0.829  0.1846 -0.1199  0.6117
  393MOL0     C52954  -0.309   0.430   0.878  0.2410  0.3916 -0.5373
  393MOL0     C52955  -0.371   0.325   0.943 -0.3195  1.1513 -0.5105
  393MOL0     O52956  -0.505   0.329   1.001 -0.6181 -0.0343 -0.2840
  393MOL0     C52957  -0.603   0.370   0.906 -0.8531 -0.2430 -0.8281
  393MOL0     C52958  -0.741   0.366   0.970 -0.0701  0.2674  0.1713
  393MOL0     C52959  -0.796   0.227   0.993  0.0186  0.5428 -0.4940
  393MOL0     C52960  -0.912   0.234   1.087 -0.8134 -1.1655  0.2369
  393MOL0     C52961  -0.971   0.100   1.120  0.8090  0.3160 -0.0240
  393MOL0     C52962  -1.110   0.121   1.189  0.2109 -0.2571  0.5719
  393MOL0     C52963  -1.186  -0.010   1.202 -0.1631  0.5972  0.4506
  393MOL0     C52964  -1.312   0.016   1.277 -0.5136  0.0041 -0.7225
  393MOL0    Cl52965  -1.462   0.026   1.178 -0.3002 -0.0689 -0.3701
  393MOL0     C52966  -0.297   0.207   0.974 -0.5514  0.3499  0.1066
  393MOL0     C52967  -0.174   0.191   0.917  0.2562 -0.0998  0.3609
  393MOL0     O52968  -0.058   0.131   0.622 -0.0527 -0.8683  0.2436
  393MOL0     C52969   0.194   0.147   0.491 -0.1084  0.1530 -0.0626
  393MOL0     C52970   0.309   0.171   0.419  0.2487  0.1399 -0.5931
  393MOL0     N52971   1.177   0.431   0.571  0.1880 -0.0925 -0.2352
  393MOL0     N52972   1.300   0.433   0.599 -0.2141  0.0893  0.5631
  393MOL0     C52973   2.600   0.377   0.176 -0.4032 -0.2480  0.1303
  393MOL0     C52974   2.731   0.360   0.227 -0.0424  0.4923 -0.6567
  393MOL0     C52975   3.078   0.176   0.472  0.3722 -0.2989 -0.1021
  393MOL0     C52976   3.172   0.186   0.368  0.1960 -0.7127 -0.4915
  393MOL0     C52977   3.313   0.171   0.395  0.2565 -0.6179  0.3366
  393MOL0     C52978   3.354   0.136   0.520  0.7914  0.5955  0.6136
  393MOL0     O52979   3.477   0.127   0.563  0.2983  0.0623  0.5475
  393MOL0     C52980   3.583   0.201   0.498  0.9315  0.4207  0.0596
  393MOL0     C52981   3.699   0.212   0.600  0.1009 -0.0721 -0.6521
  393MOL0     C52982   3.843   0.243   0.555 -0.3429  0.8580 -0.4619
  393MOL0     C52983   3.896   0.172   0.430 -0.7017  0.1572  0.0512
  393MOL0     C52984   4.044   0.188   0.417  0.0829 -0.8571 -0.0508
  393MOL0     C52985   4.157   0.210   0.382 -0.6564  0.5717 -0.7739
  393MOL0     C52986   3.255   0.117   0.622 -0.7358  0.1568  0.6383
  393MOL0     C52987   3.120   0.138   0.595  0.6555  0.3536 -0.3414
  393MOL0     H52988   2.701   0.045   0.343 -0.5432  0.1693  1.3045
  393MOL0     H52989   2.468   0.081   0.261 -0.5310  0.8716  3.0996
  393MOL0     H52990   2.277   0.117   0.134 -3.8309  0.3610 -1.1490
  393MOL0     H52991   2.244   0.215   0.279  0.7782  0.7939 -0.1050
  393MOL0     H52992   2.147   0.373   0.075 -0.9113  0.0619 -2.0496
  393MOL0     H52993   2.173   0.234  -0.018 -0.4814  0.4252 -0.0014
  393MOL0     H52994   1.944   0.246   0.053  1.1093 -1.3651 -1.4186
  393MOL0     H52995   2.000   0.104   0.113 -0.0492  0.3445 -2.3975
  393MOL0     H52996   1.987   0.186   0.335  0.5306  0.9036  0.5121
  393MOL0     H52997   1.998   0.349   0.296 -2.0087  0.6770  1.6346
  393MOL0     H52998   1.761   0.359   0.194  1.8553  0.8546 -0.6712
  393MOL0     H52999   1.757   0.182   0.206 -0.2015  1.3523 -2.2467
  393MOL0     H53000   1.763   0.208   0.452 -1.2100 -0.7452 -1.4785
  393MOL0     H53001   1.774   0.373   0.447  3.0431 -1.4024 -0.6062
  393MOL0     H53002   1.549   0.346   0.286 -3.8762 -3.0367  0.2116
  393MOL0     H53003   1.548   0.187   0.367 -1.6686  0.3292  0.7007
  393MOL0     H53004   1.564   0.450   0.523  1.3114 -0.5855  1.4054
  393MOL0     H53005   1.553   0.285   0.586 -0.5045 -2.4671 -1.5615
  393MOL0     H53006   1.292   0.264   0.315 -1.5511 -2.3561  0.7367
  393MOL0     H53007   1.006   0.415   0.319 -2.2234 -0.5572  0.5578
  393MOL0     H53008   1.038   0.250   0.295 -2.0972 -0.3195  1.0605
  393MOL0     H53009   0.906   0.350   0.551 -0.0745  1.8751 -0.3896
  393MOL0     H53010   0.940   0.186   0.508  0.0236  0.2557 -1.0731
  393MOL0     H53011   0.764   0.191   0.323 -0.7568  0.8548  0.2362
  393MOL0     H53012   0.769   0.372   0.345  0.2669  0.7584  2.0453
  393MOL0     H53013   0.657   0.364   0.540 -0.0933 -0.2760  0.8698
  393MOL0     H53014   0.681   0.189   0.563  2.2300 -1.6259 -2.1465
  393MOL0     H53015   0.480   0.346   0.658  1.5206  2.1233 -2.0192
  393MOL0     H53016   0.383   0.364   0.836 -0.2470  2.4635  0.9510
  393MOL0     H53017   0.228   0.437   0.795 -4.4224 -2.8933 -1.6823
  393MOL0     H53018   0.232   0.276   0.886  0.9706  1.6077  3.2121
  393MOL0     H53019  -0.138   0.501   0.778  1.3878  0.1359  2.0178
  393MOL0     H53020  -0.365   0.523   0.876  0.1277  0.3236 -1.6749
  393MOL0     H53021  -0.577   0.469   0.869  0.1069 -0.3026 -0.3522
  393MOL0     H53022  -0.602   0.299   0.823 -1.4187  0.8366 -1.7872
  393MOL0     H53023  -0.738   0.416   1.068  0.0320 -0.8883  0.7757
  393MOL0     H53024  -0.810   0.432   0.915 -2.0596 -0.4319  1.6969
  393MOL0     H53025  -0.720   0.162   1.035 -3.2422 -2.5965  1.0330
  393MOL0     H53026  -0.831   0.181   0.899 -1.9452  0.0960  0.4016
  393MOL0     H53027  -0.895   0.293   1.178 -1.7588  0.6758 -0.7060
  393MOL0     H53028  -0.993   0.294   1.046 -1.0301 -0.5752  1.4915
  393MOL0     H53029  -0.897   0.041   1.175  0.0229  0.3143  1.0469
  393MOL0     H53030  -0.977   0.038   1.030 -0.7897  1.2967 -0.6323
  393MOL0     H53031  -1.094   0.172   1.284 -3.1953  4.1124 -0.8468
  393MOL0     H53032  -1.163   0.190   1.123  1.8468  0.2659 -0.2493
  393MOL0     H53033  -1.130  -0.093   1.245 -0.5799 -0.0572 -0.2546
  393MOL0     H53034  -1.207  -0.039   1.098  0.2163 -0.2674  0.6084
  393MOL0     H53035  -1.299   0.109   1.333  0.4498 -0.2379 -0.5226
  393MOL0     H53036  -1.322  -0.065   1.350  1.2450  0.8544  0.5501
  393MOL0     H53037  -0.348   0.126   1.025 -0.4953  0.2412 -0.0109
  393MOL0     H53038  -0.112   0.104   0.935  1.7405  1.0130  0.7765
  393MOL0     H53039   0.134   0.075   0.435  0.4384  0.2500 -0.7781
  393MOL0     H53040   0.321   0.126   0.321 -0.1094  2.1125 -1.5718
  393MOL0     H53041   2.573   0.473   0.135  1.0635  1.7055  3.3071
  393MOL0     H53042   2.818   0.423   0.213  1.0765 -0.4351  1.6266
  393MOL0     H53043   3.137   0.206   0.267  1.0544 -2.4200 -1.1706
  393MOL0     H53044   3.383   0.179   0.312 -0.4104 -0.5005 -0.2274
  393MOL0     H53045   3.604   0.140   0.409 -3.4200 -1.9019  0.3502
  393MOL0     H53046   3.548   0.299   0.462 -2.3384 -0.3859  0.7148
  393MOL0     H53047   3.708   0.113   0.646 -1.8820 -0.2270 -0.4871
  393MOL0     H53048   3.674   0.284   0.679 -0.4747  0.5948 -1.4163
  393MOL0     H53049   3.906   0.221   0.642  1.3084  0.0947 -1.7875
  393MOL0     H53050   3.851   0.351   0.538 -0.2043  1.0532  0.7836
  393MOL0     H53051   3.845   0.217   0.344  0.6250  0.7645 -0.4511
  393MOL0     H53052   3.867   0.067   0.421 -0.5947  0.2876 -2.9443
  393MOL0     H53053   4.263   0.223   0.369 -0.5254  2.4483  1.4124
  393MOL0     H53054   3.299   0.082   0.715  2.5603  2.4668  0.0857
  393MOL0     H53055   3.044   0.127   0.672  1.4942  0.7932  0.5638
  394MOL0     O53056   7.793   1.237   1.425  0.0978  0.3258 -0.0663
  394MOL0     C53057   7.904   1.200   1.375  0.1900  0.1239 -0.0720
  394MOL0     O53058   7.923   1.147   1.253  0.1486 -0.1762  0.4428
  394MOL0     C53059   7.816   1.132   1.175  0.0706  0.1294  0.6083
  394MOL0     C53060   7.743   1.243   1.129 -0.1859 -0.3214 -0.1207
  394MOL0     C53061   7.624   1.223   1.054 -0.3851 -0.7945  0.5081
  394MOL0     C53062   7.570   1.091   1.045 -1.0620  0.3329 -0.4350
  394MOL0     O53063   7.443   1.064   0.990 -0.2189  0.0545  0.4792
  394MOL0     C53064   7.411   1.127   0.865  0.3842  0.2352  0.7382
  394MOL0     C53065   7.294   1.049   0.803  0.0951  0.8194  0.7105
  394MOL0     C53066   7.279   1.087   0.659  0.1818  0.1342  0.4987
  394MOL0     C53067   7.153   1.030   0.584 -0.1852  0.1692  0.3299
  394MOL0     C53068   7.126   1.114   0.456 -0.2353  0.4216 -0.4846
  394MOL0     C53069   7.235   1.094   0.346  0.5695 -0.2356 -0.4859
  394MOL0     C53070   7.205   1.183   0.224  0.0510  0.2781 -0.1639
  394MOL0     C53071   7.286   1.132   0.102 -0.1008 -0.0553 -0.5759
  394MOL0     N53072   7.227   1.002   0.037 -0.0434 -0.5869 -0.1050
  394MOL0     C53073   7.096   0.962   0.025  0.0783  1.2784 -0.0600
  394MOL0     C53074   7.108   0.846  -0.042 -0.3570  0.2627 -0.1876
  394MOL0     C53075   6.995   0.763  -0.089  0.3359  0.9095  0.0888
  394MOL0     C53076   7.031   0.612  -0.108 -0.4679 -0.3408 -0.0504
  394MOL0     C53077   6.915   0.523  -0.095 -0.2957  0.1281  0.3498
  394MOL0     C53078   6.900   0.496   0.056  0.8395  0.2840 -0.6530
  394MOL0     O53079   6.799   0.401   0.099 -0.7769 -0.5315  0.0469
  394MOL0     C53080   6.665   0.429   0.091  0.5122 -0.1119 -0.0971
  394MOL0     C53081   6.611   0.556   0.051  0.1741 -0.6262 -0.7161
  394MOL0     C53082   6.467   0.582   0.056  0.3140 -0.5167  1.1547
  394MOL0     C53083   6.429   0.725   0.012  0.2124  0.3794 -0.0534
  394MOL0     C53084   6.380   0.477   0.107 -0.5635  0.1901  0.6425
  394MOL0     C53085   6.236   0.482   0.108  0.4388 -0.3810  0.2441
  394MOL0     O53086   6.179   0.375   0.174 -0.0371  0.1938  0.6669
  394MOL0     C53087   6.041   0.364   0.185 -0.3295 -0.5756 -0.4205
  394MOL0     C53088   5.986   0.330   0.314 -0.2330  0.5159  0.0528
  394MOL0     C53089   5.846   0.317   0.323 -0.0103  0.2119 -0.1492
  394MOL0     C53090   5.762   0.336   0.212  0.1083  0.2555 -0.4567
  394MOL0     O53091   5.627   0.317   0.221  0.5027  0.7380  0.3059
  394MOL0     C53092   5.560   0.352   0.342 -0.9971 -0.9251 -0.0577
  394MOL0     C53093   5.405   0.344   0.345 -0.0747  0.2201 -0.2278
  394MOL0     C53094   5.363   0.204   0.318  0.5726 -0.0421 -0.2569
  394MOL0     C53095   5.219   0.178   0.375  0.5224  0.1741  0.1806
  394MOL0     C53096   5.164   0.036   0.371  0.3373  0.5346 -0.1905
  394MOL0     C53097   5.011   0.035   0.399 -0.1320  0.2244 -0.1952
  394MOL0     C53098   4.946  -0.096   0.407  0.0036  0.0171  0.6487
  394MOL0     C53099   4.937  -0.174   0.280  0.6119  0.1766 -0.2841
  394MOL0    Cl53100   4.841  -0.089   0.161  0.0933 -0.3200 -0.0331
  394MOL0     C53101   5.823   0.365   0.088  1.1723  0.2467 -0.0681
  394MOL0     C53102   5.958   0.378   0.074  0.1265  0.1714  0.0221
  394MOL0     O53103   6.170   0.573   0.058 -0.5017 -0.0051 -0.5679
  394MOL0     C53104   6.437   0.352   0.133  0.5415  0.1068 -0.3493
  394MOL0     C53105   6.578   0.327   0.128  0.6707 -0.0150  0.5381
  394MOL0     N53106   7.238   0.815  -0.066 -0.6531 -0.3778 -0.1203
  394MOL0     N53107   7.310   0.918  -0.024  0.6770  0.9301  0.1304
  394MOL0     C53108   7.642   0.984   1.092  0.1548 -0.0435  0.2291
  394MOL0     C53109   7.764   0.999   1.153  0.7324 -0.2417  0.5916
  394MOL0     C53110   8.026   1.223   1.460  0.3080  0.1933  0.6103
  394MOL0     C53111   8.149   1.158   1.432  0.4298  0.0452  0.0155
  394MOL0     C53112   8.264   1.193   1.503 -0.0372  0.3097  0.1520
  394MOL0     C53113   8.253   1.272   1.615 -0.3164  0.2296  0.0184
  394MOL0     O53114   8.351   1.293   1.714 -0.0269 -0.1517  0.5494
  394MOL0     C53115   8.464   1.203   1.725 -0.1046 -0.3296  0.2566
  394MOL0     C53116   8.530   1.233   1.864  1.1599  1.0144  0.1500
  394MOL0     C53117   8.655   1.322   1.846  1.2510  0.0433 -0.0221
  394MOL0     C53118   8.772   1.281   1.946  0.2434 -0.6222 -0.1429
  394MOL0     C53119   8.886   1.367   1.913 -0.0815  0.4682 -0.5933
  394MOL0     C53120   8.979   1.442   1.884  0.5578  0.0479  0.1723
  394MOL0     C53121   8.138   1.342   1.638 -0.3495 -0.4071  0.5241
  394MOL0     C53122   8.025   1.313   1.562  0.5658 -0.8135  0.3759
  394MOL0     H53123   7.774   1.343   1.158  4.9713 -2.7524  4.4052
  394MOL0     H53124   7.575   1.310   1.012  0.5281 -0.4447  0.1403
  394MOL0     H53125   7.394   1.235   0.861  0.8951  0.2777 -0.8786
  394MOL0     H53126   7.502   1.112   0.807  1.9883  0.8422  2.9486
  394MOL0     H53127   7.307   0.940   0.813  0.9289  0.7539 -0.7746
  394MOL0     H53128   7.205   1.064   0.864 -2.2796 -1.8031 -1.8082
  394MOL0     H53129   7.273   1.196   0.658  1.5232  0.2298  0.5950
  394MOL0     H53130   7.368   1.073   0.596  0.1101  2.3086 -0.1703
  394MOL0     H53131   7.178   0.927   0.558  0.9169  0.2090  1.1553
  394MOL0     H53132   7.059   1.030   0.640 -1.4476 -1.7618 -1.6021
  394MOL0     H53133   7.033   1.074   0.414 -1.7402  0.7538  2.2902
  394MOL0     H53134   7.117   1.221   0.474  1.6169  0.5110  0.1655
  394MOL0     H53135   7.329   1.131   0.388  0.2448 -0.2651  0.3019
  394MOL0     H53136   7.237   0.988   0.320  3.0154  0.0320 -1.6383
  394MOL0     H53137   7.098   1.193   0.205 -0.3193  1.0309  1.9641
  394MOL0     H53138   7.242   1.284   0.247  3.0587 -0.8928  0.7112
  394MOL0     H53139   7.387   1.112   0.138  0.0131  0.4791 -0.5913
  394MOL0     H53140   7.291   1.212   0.027 -0.0064 -0.4607 -1.0036
  394MOL0     H53141   7.000   0.998   0.060 -0.9437 -0.2447 -1.1894
  394MOL0     H53142   6.909   0.783  -0.025 -0.3443 -1.3243 -0.0306
  394MOL0     H53143   6.968   0.808  -0.185 -1.2922 -1.1233 -0.4795
  394MOL0     H53144   7.119   0.581  -0.051  0.0931 -1.5705 -1.5190
  394MOL0     H53145   7.064   0.603  -0.212 -0.9758 -1.7110 -0.1159
  394MOL0     H53146   6.915   0.427  -0.147  3.6125  1.9399 -3.6317
  394MOL0     H53147   6.827   0.575  -0.135  0.9109  1.7362 -0.3188
  394MOL0     H53148   6.876   0.584   0.116 -1.0139  0.5443 -1.7107
  394MOL0     H53149   6.998   0.460   0.090  1.8623  2.2179 -1.3943
  394MOL0     H53150   6.680   0.635   0.023  1.9421 -0.3828  3.5974
  394MOL0     H53151   6.516   0.784  -0.017 -0.9096  1.6041 -1.0653
  394MOL0     H53152   6.343   0.737  -0.055  0.0646  1.8055  0.3611
  394MOL0     H53153   6.391   0.774   0.102  0.7410  0.8707 -0.0957
  394MOL0     H53154   6.057   0.325   0.396  0.1650  2.9650 -0.0771
  394MOL0     H53155   5.800   0.300   0.420  0.1137  3.4381  0.5866
  394MOL0     H53156   5.597   0.280   0.416  2.5902 -0.9814 -1.6772
  394MOL0     H53157   5.582   0.456   0.365 -1.3985 -0.3998 -1.8549
  394MOL0     H53158   5.370   0.357   0.448  1.6439 -2.6712  0.8398
  394MOL0     H53159   5.354   0.413   0.276 -0.5817 -0.9458 -1.0409
  394MOL0     H53160   5.433   0.127   0.353  0.0435 -1.4646 -2.1805
  394MOL0     H53161   5.358   0.204   0.209  1.6134 -1.4719 -0.3372
  394MOL0     H53162   5.206   0.225   0.473  0.9393  1.7837 -0.4948
  394MOL0     H53163   5.152   0.225   0.302  1.6710  1.2788 -0.2076
  394MOL0     H53164   5.206  -0.024   0.453 -2.7993  2.0308  2.7532
  394MOL0     H53165   5.175  -0.013   0.274  0.4697  0.2104 -0.0129
  394MOL0     H53166   4.986   0.090   0.491 -1.7033  0.0290 -0.4648
  394MOL0     H53167   4.955   0.092   0.323 -0.8694  2.5195  1.9209
  394MOL0     H53168   4.845  -0.083   0.447 -1.1823 -1.8310 -1.4987
  394MOL0     H53169   5.007  -0.154   0.477  0.6826 -0.8968 -0.6583
  394MOL0     H53170   4.896  -0.275   0.287  0.2683  0.2349 -1.3435
  394MOL0     H53171   5.033  -0.197   0.234  0.6635  0.8328 -0.5159
  394MOL0     H53172   5.752   0.383   0.008  0.3198  1.5178  0.9137
  394MOL0     H53173   5.991   0.397  -0.028  2.0036  0.9629  0.7200
  394MOL0     H53174   6.380   0.266   0.166  2.1306  0.1926  3.1594
  394MOL0     H53175   6.618   0.231   0.158 -2.4093 -0.9179  2.2193
  394MOL0     H53176   7.597   0.886   1.083  0.0405 -0.0402  0.7709
  394MOL0     H53177   7.816   0.909   1.184 -1.0646 -1.6142 -0.1686
  394MOL0     H53178   8.162   1.080   1.358  3.9859 -0.9125  1.4418
  394MOL0     H53179   8.353   1.139   1.474 -1.3034 -1.6133 -0.3411
  394MOL0     H53180   8.421   1.102   1.730 -1.7642  0.4172  3.2247
  394MOL0     H53181   8.525   1.216   1.635 -0.9647  3.5792  0.0644
  394MOL0     H53182   8.557   1.137   1.909 -3.3328 -0.2007  0.6888
  394MOL0     H53183   8.452   1.266   1.933  1.9088 -0.1856  1.6559
  394MOL0     H53184   8.627   1.426   1.869  0.2022  0.0160 -1.0519
  394MOL0     H53185   8.691   1.315   1.743  0.6782  0.9537 -0.3007
  394MOL0     H53186   8.809   1.181   1.923  2.5555  0.0368  0.3567
  394MOL0     H53187   8.740   1.288   2.051  1.7888 -0.1706  0.3279
  394MOL0     H53188   9.063   1.506   1.866 -1.2572  1.9390 -2.2212
  394MOL0     H53189   8.131   1.413   1.719 -1.2639  0.4945 -0.3168
  394MOL0     H53190   7.947   1.385   1.584  1.3247  0.2748 -0.3562
  395MOL0     O53191   1.525  10.709   2.949 -0.5764 -0.0836  0.3662
  395MOL0     C53192   1.487  10.616   2.890 -0.1276  0.9434 -0.5868
  395MOL0     O53193   1.386  10.616   2.795  0.0756  0.2425 -0.0968
  395MOL0     C53194   1.342  10.737   2.753 -0.3047  0.1192  0.0250
  395MOL0     C53195   1.209  10.752   2.734 -0.4443 -0.2811  0.4005
  395MOL0     C53196   1.157  10.866   2.683  0.2826 -0.6893 -0.1238
  395MOL0     C53197   1.235  10.980   2.660  0.0876  0.4245 -0.1956
  395MOL0     O53198   1.171  11.078   2.611  0.1417  0.4976 -0.6013
  395MOL0     C53199   1.238  11.205   2.606 -0.4029 -0.3325 -0.1145
  395MOL0     C53200   1.143  11.316   2.609  0.3419 -0.5267  0.1944
  395MOL0     C53201   1.059  11.336   2.735  0.1504 -0.1460 -0.7676
  395MOL0     C53202   0.921  11.268   2.730 -0.7987 -0.5060  0.0419
  395MOL0     C53203   0.827  11.326   2.840  0.4777  0.5306  0.3948
  395MOL0     C53204   0.695  11.247   2.837  0.1222 -0.5929 -0.0193
  395MOL0     C53205   0.607  11.307   2.941 -1.1605 -0.2950 -0.3673
  395MOL0     C53206   0.473  11.236   2.916  0.1919  0.9775 -0.6176
  395MOL0     N53207   0.372  11.289   3.014 -0.2071  0.3331 -0.3923
  395MOL0     C53208   0.364  11.238   3.144  0.0274 -0.1550 -0.6892
  395MOL0     C53209   0.259  11.313   3.204  0.2362 -0.6223  0.2777
  395MOL0     C53210   0.191  11.298   3.345 -0.4495 -0.5289 -0.3747
  395MOL0     C53211   0.049  11.338   3.349 -0.1341  0.1470 -0.6019
  395MOL0     C53212  -0.009  11.290   3.486  0.6782 -0.4742 -0.6094
  395MOL0     C53213  -0.163  11.278   3.492 -0.0942 -0.9147  0.0240
  395MOL0     O53214  -0.219  11.406   3.446  0.2513 -0.9122  0.2558
  395MOL0     C53215  -0.356  11.430   3.443  0.4684  0.0209 -0.2396
  395MOL0     C53216  -0.403  11.542   3.378  0.2795  0.2707 -0.1606
  395MOL0     C53217  -0.542  11.563   3.372  0.2953  0.0711  0.0065
  395MOL0     C53218  -0.577  11.704   3.322  0.5681  1.0523  0.0558
  395MOL0     C53219  -0.630  11.473   3.434 -0.3624  0.2117  0.7947
  395MOL0     C53220  -0.774  11.489   3.433 -0.0348  0.6960  0.2459
  395MOL0     O53221  -0.851  11.370   3.439 -0.0633 -0.0718 -0.0170
  395MOL0     C53222  -0.988  11.384   3.454  0.2114  0.4735  0.4099
  395MOL0     C53223  -1.040  11.331   3.565  0.7022  0.7409 -0.3192
  395MOL0     C53224  -1.175  11.348   3.592 -0.1358  0.5282 -0.3127
  395MOL0     C53225  -1.264  11.404   3.502  0.0040  0.7571 -0.0146
  395MOL0     O53226  -1.396  11.389   3.541  0.1486 -0.4757 -0.3924
  395MOL0     C53227  -1.494  11.392   3.434 -0.1078  0.1406 -0.7282
  395MOL0     C53228  -1.619  11.326   3.480  0.3125  0.2807  0.5589
  395MOL0     C53229  -1.740  11.366   3.392  0.8153  0.3335 -0.8883
  395MOL0     C53230  -1.712  11.320   3.242  0.6842  0.0246 -0.3584
  395MOL0     C53231  -1.818  11.359   3.147 -0.2490 -0.3538 -0.0655
  395MOL0     C53232  -1.959  11.310   3.196 -0.7583 -0.0035 -0.2937
  395MOL0     C53233  -2.067  11.373   3.109 -0.5495 -0.3482  0.8785
  395MOL0     C53234  -2.207  11.317   3.132 -0.0661  0.4721  0.0628
  395MOL0    Cl53235  -2.326  11.409   3.039 -0.7516  0.5111 -0.0662
  395MOL0     C53236  -1.214  11.453   3.379 -0.5355  0.6433 -0.7043
  395MOL0     C53237  -1.074  11.458   3.367  0.3287 -0.2281  0.1582
  395MOL0     O53238  -0.815  11.601   3.434 -0.1276 -0.1523 -0.3590
  395MOL0     C53239  -0.581  11.355   3.498  0.0558 -0.3454 -0.1836
  395MOL0     C53240  -0.442  11.338   3.500  0.2451  0.4718 -0.7351
  395MOL0     N53241   0.213  11.403   3.106  0.4484 -0.0937  0.4337
  395MOL0     N53242   0.282  11.385   2.996 -0.2727  0.2083  0.7810
  395MOL0     C53243   1.377  10.967   2.668  0.1163  0.0698 -0.8152
  395MOL0     C53244   1.428  10.847   2.713  0.8933  0.3879  1.3184
  395MOL0     C53245   1.529  10.480   2.926  0.4291 -0.4591  0.2655
  395MOL0     C53246   1.494  10.362   2.857  0.1690  0.1054  0.2591
  395MOL0     C53247   1.520  10.236   2.909  1.3607 -0.3165  0.2589
  395MOL0     C53248   1.598  10.218   3.027 -0.0902  0.2384  0.0473
  395MOL0     O53249   1.619  10.084   3.071  0.0841 -0.2305 -0.1993
  395MOL0     C53250   1.596  10.059   3.206  0.7999  0.2238  0.4882
  395MOL0     C53251   1.630   9.917   3.236  0.1388 -0.1971  0.2271
  395MOL0     C53252   1.781   9.879   3.194  0.1133  0.3933  0.0527
  395MOL0     C53253   1.874   9.886   3.312 -0.3304 -0.8217 -0.6901
  395MOL0     C53254   2.010   9.829   3.293 -0.4017  0.2531 -0.1955
  395MOL0     C53255   2.118   9.769   3.274  0.5438  0.4158  0.2650
  395MOL0     C53256   1.652  10.336   3.086  0.1517  0.1839  0.2060
  395MOL0     C53257   1.620  10.465   3.037  0.0326  0.3942 -1.2531
  395MOL0     H53258   1.141  10.672   2.762 -1.4525 -0.1795 -1.5041
  395MOL0     H53259   1.050  10.880   2.690  0.1878  0.2729 -2.5779
  395MOL0     H53260   1.308  11.225   2.688 -1.7804  2.3464  0.5307
  395MOL0     H53261   1.296  11.211   2.514  2.9840 -0.2864  1.8634
  395MOL0     H53262   1.206  11.404   2.593 -2.8677  1.5066 -2.5941
  395MOL0     H53263   1.075  11.303   2.524  1.5227 -0.2797 -0.8028
  395MOL0     H53264   1.105  11.284   2.820 -1.5655 -0.7827 -0.1803
  395MOL0     H53265   1.049  11.440   2.768 -1.1290 -0.5768  0.2981
  395MOL0     H53266   0.891  11.280   2.625  1.4945  0.5936 -0.5482
  395MOL0     H53267   0.936  11.160   2.743 -0.5926 -0.4046  0.6584
  395MOL0     H53268   0.883  11.322   2.934 -1.7089 -0.5863  1.7464
  395MOL0     H53269   0.809  11.433   2.826 -1.4317 -0.0338 -2.2093
  395MOL0     H53270   0.657  11.267   2.737 -0.3302 -1.5415 -0.0431
  395MOL0     H53271   0.715  11.141   2.854 -0.0017 -0.3194  2.1889
  395MOL0     H53272   0.634  11.290   3.046 -2.9829 -1.6201 -0.0448
  395MOL0     H53273   0.594  11.412   2.914 -0.4674 -0.4610 -1.3877
  395MOL0     H53274   0.486  11.128   2.922 -1.1007  0.6843 -2.2622
  395MOL0     H53275   0.436  11.253   2.815 -1.5245 -1.4763 -0.4810
  395MOL0     H53276   0.414  11.150   3.182  1.0332  0.7328  0.1382
  395MOL0     H53277   0.197  11.197   3.385  0.0338  0.3725  1.9562
  395MOL0     H53278   0.248  11.350   3.422 -1.3112 -2.2380  1.4976
  395MOL0     H53279  -0.006  11.292   3.265 -0.7245 -2.5834  1.1509
  395MOL0     H53280   0.027  11.444   3.339 -0.5158  0.2295  0.8952
  395MOL0     H53281   0.022  11.350   3.572  4.1413 -2.8049 -0.0401
  395MOL0     H53282   0.025  11.192   3.520 -0.6565  0.1220  2.9078
  395MOL0     H53283  -0.190  11.258   3.596  0.1988 -1.0477  0.0743
  395MOL0     H53284  -0.205  11.196   3.433 -0.6601 -0.6665  0.0663
  395MOL0     H53285  -0.334  11.613   3.335  1.4910 -1.2798 -0.8648
  395MOL0     H53286  -0.617  11.767   3.402  0.2091  0.9335 -0.0274
  395MOL0     H53287  -0.498  11.768   3.282  0.3362  2.8737  2.2986
  395MOL0     H53288  -0.658  11.708   3.249  1.6111  3.8322 -1.0631
  395MOL0     H53289  -0.975  11.283   3.638 -0.2656  0.7023  0.5525
  395MOL0     H53290  -1.211  11.295   3.680  0.9525 -0.6428 -0.5400
  395MOL0     H53291  -1.528  11.495   3.418 -2.4449 -0.4714 -0.0856
  395MOL0     H53292  -1.467  11.340   3.342 -1.2681  0.8350 -1.4823
  395MOL0     H53293  -1.603  11.218   3.490 -2.4642 -0.1532  1.2113
  395MOL0     H53294  -1.637  11.352   3.584  2.0727  1.4196  0.6141
  395MOL0     H53295  -1.754  11.475   3.398 -1.1268  0.0460  1.0722
  395MOL0     H53296  -1.832  11.316   3.426  2.1188 -1.2529  0.4868
  395MOL0     H53297  -1.615  11.354   3.207  0.8972  0.9495  1.0548
  395MOL0     H53298  -1.709  11.211   3.231  0.2194  0.1536 -2.0904
  395MOL0     H53299  -1.798  11.321   3.047 -1.5378  1.3111 -1.0267
  395MOL0     H53300  -1.815  11.468   3.137 -1.5627 -0.1869  1.0266
  395MOL0     H53301  -1.960  11.201   3.198 -1.2828 -0.0398  2.7208
  395MOL0     H53302  -1.983  11.351   3.295  0.9634  1.4330 -0.4148
  395MOL0     H53303  -2.035  11.338   3.011  1.0152 -0.5213  1.4126
  395MOL0     H53304  -2.079  11.481   3.118 -3.4126 -0.6915  2.2045
  395MOL0     H53305  -2.232  11.329   3.238 -1.0653  0.9535 -0.2095
  395MOL0     H53306  -2.202  11.210   3.110  3.4438  0.3065  1.1647
  395MOL0     H53307  -1.272  11.485   3.293  1.6984  1.3047 -2.0718
  395MOL0     H53308  -1.052  11.516   3.277 -0.0713 -0.9072 -0.3852
  395MOL0     H53309  -0.645  11.288   3.554 -0.3208 -0.8965 -1.2437
  395MOL0     H53310  -0.419  11.241   3.544  0.4170  0.1861 -1.4323
  395MOL0     H53311   1.436  11.048   2.627  0.4802  0.3014  0.1518
  395MOL0     H53312   1.533  10.823   2.710  0.6436 -0.8133  1.6828
  395MOL0     H53313   1.438  10.373   2.764 -0.8109  0.5853  0.8880
  395MOL0     H53314   1.490  10.145   2.858  1.0070  0.9319 -1.9211
  395MOL0     H53315   1.671  10.118   3.259  0.8967  2.0166 -1.4992
  395MOL0     H53316   1.492  10.085   3.231  0.2280 -0.8659 -0.6941
  395MOL0     H53317   1.565   9.845   3.185  0.1895 -1.7111  2.1733
  395MOL0     H53318   1.622   9.891   3.342  0.1385 -1.4662 -0.0607
  395MOL0     H53319   1.813   9.951   3.119  2.0894  2.3117  2.5794
  395MOL0     H53320   1.775   9.774   3.161 -0.2845 -0.9768  4.0043
  395MOL0     H53321   1.828   9.831   3.395  0.2257 -2.7655 -1.6041
  395MOL0     H53322   1.887   9.991   3.338 -0.8661 -1.3828  2.1148
  395MOL0     H53323   2.214   9.720   3.279 -0.0441 -0.6687  2.2664
  395MOL0     H53324   1.720  10.320   3.169 -0.7090 -1.6081  0.6270
  395MOL0     H53325   1.650  10.539   3.111 -0.8753 -2.0522  1.7320
  396MOL0     O53326   1.180   1.873   0.168  0.2890  0.1859 -0.4287
  396MOL0     C53327   1.208   1.985   0.135 -0.3411  0.2781 -1.1657
  396MOL0     O53328   1.126   2.096   0.135 -0.4540 -0.5765 -0.4391
  396MOL0     C53329   1.010   2.099   0.211  0.3818 -0.6599  0.1440
  396MOL0     C53330   0.919   2.206   0.188 -0.2840 -0.0034  0.0938
  396MOL0     C53331   0.800   2.225   0.249 -0.5396 -0.2802 -0.0377
  396MOL0     C53332   0.764   2.125   0.342 -0.2745 -0.6136  0.2103
  396MOL0     O53333   0.634   2.120   0.398  0.1410 -0.3520 -0.1430
  396MOL0     C53334   0.631   2.130   0.540 -0.7312 -0.2921 -0.0528
  396MOL0     C53335   0.488   2.156   0.596  0.3892  0.4787  0.6163
  396MOL0     C53336   0.392   2.045   0.577 -0.3442  0.9336 -1.2126
  396MOL0     C53337   0.252   2.070   0.646 -0.2684 -0.5118 -1.0469
  396MOL0     C53338   0.151   1.954   0.638  0.2593 -0.1056  1.2419
  396MOL0     C53339   0.017   2.010   0.655  0.6573  0.6157  0.2821
  396MOL0     C53340  -0.003   2.100   0.778 -0.0428  0.2878 -0.3527
  396MOL0     C53341  -0.126   2.182   0.774  1.1738  0.1948 -0.1141
  396MOL0     N53342  -0.245   2.106   0.738  0.5297  0.5309  0.0022
  396MOL0     C53343  -0.297   2.108   0.609 -0.6323 -0.1959 -0.3231
  396MOL0     C53344  -0.404   2.036   0.608  0.4353  0.5414 -1.2794
  396MOL0     C53345  -0.495   2.004   0.491 -0.1360  0.1267 -0.0479
  396MOL0     C53346  -0.633   2.034   0.542 -0.0828  0.8079  0.5368
  396MOL0     C53347  -0.736   1.942   0.478 -0.0824  0.0202  0.2723
  396MOL0     C53348  -0.752   1.984   0.327 -0.4247 -0.1128  0.5167
  396MOL0     O53349  -0.831   1.890   0.261  0.2030  0.4891  0.8642
  396MOL0     C53350  -0.965   1.892   0.267  0.5826 -0.0218 -0.1974
  396MOL0     C53351  -1.036   1.787   0.208 -0.5383  0.7361 -0.7825
  396MOL0     C53352  -1.183   1.778   0.204  0.3117 -0.1148 -0.2339
  396MOL0     C53353  -1.255   1.654   0.145  1.2786  0.0017 -0.4678
  396MOL0     C53354  -1.253   1.889   0.259 -0.9860  0.3534  0.2411
  396MOL0     C53355  -1.398   1.876   0.273 -0.1956 -0.1767 -0.7583
  396MOL0     O53356  -1.480   1.823   0.173 -0.3599  0.1752 -0.3824
  396MOL0     C53357  -1.617   1.835   0.187  0.6349 -0.2278 -0.8787
  396MOL0     C53358  -1.693   1.756   0.106 -0.2553  0.6847 -0.5537
  396MOL0     C53359  -1.834   1.772   0.088 -0.4622  0.0246 -0.5945
  396MOL0     C53360  -1.897   1.877   0.157 -0.4331 -0.2771  1.1144
  396MOL0     O53361  -2.030   1.892   0.156  0.0492 -0.7849 -0.2717
  396MOL0     C53362  -2.128   1.806   0.105  0.3675 -0.0062 -0.4281
  396MOL0     C53363  -2.260   1.876   0.160  0.2429 -0.3756 -0.0964
  396MOL0     C53364  -2.386   1.801   0.099 -0.9973 -0.3077 -0.0217
  396MOL0     C53365  -2.515   1.873   0.136 -0.3390  0.3509 -0.2991
  396MOL0     C53366  -2.630   1.786   0.076 -0.5098 -0.0531  0.2129
  396MOL0     C53367  -2.759   1.865   0.082 -0.0175 -0.1439 -0.6093
  396MOL0     C53368  -2.866   1.761   0.051 -0.8308  0.2281  0.8418
  396MOL0     C53369  -2.994   1.837  -0.001  0.0215  0.3800 -0.1149
  396MOL0    Cl53370  -3.122   1.716   0.019 -0.3915  0.1449 -0.1711
  396MOL0     C53371  -1.818   1.960   0.231  0.1688 -1.0076 -0.0130
  396MOL0     C53372  -1.680   1.940   0.252 -0.0878  0.2753  0.2221
  396MOL0     O53373  -1.437   1.928   0.377  0.4682  0.2022 -0.6376
  396MOL0     C53374  -1.181   2.000   0.309  1.0451  0.6678  0.8901
  396MOL0     C53375  -1.042   1.993   0.319 -0.2937  0.0873 -0.0525
  396MOL0     N53376  -0.408   1.973   0.734  0.3133  0.4775  0.6322
  396MOL0     N53377  -0.318   2.018   0.813 -0.1681 -0.4072 -0.7235
  396MOL0     C53378   0.853   2.022   0.374  0.0379  0.0112  0.1851
  396MOL0     C53379   0.975   2.005   0.310  0.3301  0.2666  0.3360
  396MOL0     C53380   1.342   2.008   0.066 -1.0245  0.9072  0.2413
  396MOL0     C53381   1.449   1.910   0.074 -1.0120 -0.6590 -0.3681
  396MOL0     C53382   1.572   1.941   0.020 -0.5584  0.2533  0.5052
  396MOL0     C53383   1.593   2.060  -0.038  1.4549  0.4432  0.7362
  396MOL0     O53384   1.711   2.103  -0.093 -0.4860 -0.4521  0.6177
  396MOL0     C53385   1.815   2.007  -0.117  0.4947  0.0467 -0.6094
  396MOL0     C53386   1.929   2.073  -0.195 -0.4252 -0.4631 -0.0326
  396MOL0     C53387   2.015   2.157  -0.104 -0.0198  0.2113 -0.4829
  396MOL0     C53388   2.151   2.191  -0.177  0.5810  0.2951  0.4216
  396MOL0     C53389   2.134   2.272  -0.295  0.6939  0.0294 -0.0537
  396MOL0     C53390   2.126   2.322  -0.405 -0.3544 -0.2056 -0.4159
  396MOL0     C53391   1.489   2.157  -0.054 -0.0196 -0.8002 -0.1121
  396MOL0     C53392   1.365   2.134   0.005 -1.0594  0.3656 -0.2662
  396MOL0     H53393   0.957   2.273   0.112 -2.3540  0.9281 -0.1787
  396MOL0     H53394   0.736   2.311   0.227  0.6849  0.3505 -1.2719
  396MOL0     H53395   0.680   2.043   0.585  0.8795  0.4549 -0.3063
  396MOL0     H53396   0.684   2.222   0.567 -1.6164  0.8589 -2.0236
  396MOL0     H53397   0.501   2.171   0.704 -0.8949  1.1540  0.7026
  396MOL0     H53398   0.441   2.245   0.553  0.3529  0.5753  0.8574
  396MOL0     H53399   0.374   2.016   0.473 -1.8790  1.6147 -1.1555
  396MOL0     H53400   0.427   1.952   0.624 -0.8341  1.6806  0.7317
  396MOL0     H53401   0.271   2.093   0.751 -3.7246  2.1841 -0.8290
  396MOL0     H53402   0.203   2.152   0.593 -0.8967  0.1277  0.4703
  396MOL0     H53403   0.145   1.908   0.539  0.3370 -0.4639  1.4004
  396MOL0     H53404   0.160   1.870   0.708 -2.4134 -2.8771 -1.4463
  396MOL0     H53405  -0.017   2.071   0.571 -2.9426  0.8037  1.7213
  396MOL0     H53406  -0.053   1.926   0.654 -0.4479  1.4845  1.6491
  396MOL0     H53407  -0.004   2.029   0.861 -3.3851 -0.9718 -1.2897
  396MOL0     H53408   0.080   2.169   0.793 -1.1297  1.1476  2.5126
  396MOL0     H53409  -0.104   2.262   0.703 -0.3264 -0.6034 -1.5635
  396MOL0     H53410  -0.141   2.234   0.868  0.2965  1.3832 -0.8893
  396MOL0     H53411  -0.254   2.164   0.527  1.2177  0.5817  1.1014
  396MOL0     H53412  -0.473   2.073   0.409 -0.0597  1.6064  1.1755
  396MOL0     H53413  -0.480   1.903   0.451 -0.1377 -0.8090  2.1801
  396MOL0     H53414  -0.659   2.138   0.518  0.9146  0.7595 -0.8929
  396MOL0     H53415  -0.637   2.016   0.650 -1.3810 -0.1660  0.3430
  396MOL0     H53416  -0.828   1.966   0.532 -0.7415 -0.6865 -0.5124
  396MOL0     H53417  -0.716   1.836   0.491 -0.2781 -0.1520 -0.7209
  396MOL0     H53418  -0.660   1.967   0.271 -1.2112  0.5201 -1.0294
  396MOL0     H53419  -0.783   2.089   0.322  1.1855  0.4727  1.7935
  396MOL0     H53420  -0.977   1.704   0.169 -0.1166  1.2843 -1.3237
  396MOL0     H53421  -1.181   1.574   0.149 -0.8126 -2.0229  2.9061
  396MOL0     H53422  -1.346   1.624   0.198  1.9561  1.0020  1.3637
  396MOL0     H53423  -1.287   1.679   0.044 -0.1679  0.3596  0.0412
  396MOL0     H53424  -1.642   1.676   0.052  0.6283  0.3563  0.7058
  396MOL0     H53425  -1.893   1.696   0.037 -1.2514  1.1569 -1.4381
  396MOL0     H53426  -2.115   1.811  -0.003 -1.2394  1.2218 -0.6080
  396MOL0     H53427  -2.105   1.709   0.149 -1.9452 -0.3554  0.1014
  396MOL0     H53428  -2.268   1.870   0.269  0.2517  2.2435  0.1070
  396MOL0     H53429  -2.268   1.983   0.142 -2.9190 -0.7467 -1.6703
  396MOL0     H53430  -2.388   1.696   0.129  2.4346 -0.4513  0.0034
  396MOL0     H53431  -2.382   1.795  -0.010  0.6537  1.1808 -0.0887
  396MOL0     H53432  -2.521   1.872   0.245 -1.2168  0.9502 -0.3359
  396MOL0     H53433  -2.520   1.974   0.094  2.1679 -0.1828 -2.1301
  396MOL0     H53434  -2.627   1.689   0.126  2.5609  0.1660  0.6624
  396MOL0     H53435  -2.618   1.765  -0.031 -4.8722  0.7392 -0.6179
  396MOL0     H53436  -2.775   1.908   0.182  4.1087 -0.6858  0.4663
  396MOL0     H53437  -2.754   1.951   0.015 -1.3825  1.0825  0.7637
  396MOL0     H53438  -2.896   1.703   0.139 -0.5250 -2.8415 -0.9230
  396MOL0     H53439  -2.824   1.689  -0.020 -1.9953  0.8545 -0.5479
  396MOL0     H53440  -2.990   1.868  -0.106  0.7549 -0.2164 -0.2705
  396MOL0     H53441  -3.019   1.926   0.058 -3.3914 -1.6453  1.8238
  396MOL0     H53442  -1.852   2.051   0.280  3.0929 -0.3917  1.0805
  396MOL0     H53443  -1.641   2.017   0.318 -2.9874  3.1250 -1.1585
  396MOL0     H53444  -1.244   2.078   0.349 -0.1487  0.3147 -0.2328
  396MOL0     H53445  -0.995   2.081   0.360  0.5329  0.0542 -0.9103
  396MOL0     H53446   0.826   1.949   0.449  0.8897 -2.2395 -1.5939
  396MOL0     H53447   1.032   1.917   0.341 -0.5119 -2.2901 -4.4527
  396MOL0     H53448   1.438   1.811   0.118  3.4791 -0.1512  2.6060
  396MOL0     H53449   1.656   1.873   0.021  2.1945  3.3473  3.1196
  396MOL0     H53450   1.857   1.970  -0.023 -0.0716 -1.4273 -0.9191
  396MOL0     H53451   1.778   1.919  -0.170  2.5076 -2.7416  2.2391
  396MOL0     H53452   1.888   2.140  -0.272 -1.3795 -1.2660 -0.2375
  396MOL0     H53453   1.986   1.997  -0.249  1.2911  0.8261 -0.1482
  396MOL0     H53454   2.037   2.101  -0.013  0.4618  2.9978  1.2001
  396MOL0     H53455   1.959   2.245  -0.073  0.8094  0.6483 -0.2017
  396MOL0     H53456   2.201   2.098  -0.209  0.4538  0.8091 -1.4187
  396MOL0     H53457   2.209   2.237  -0.097 -0.3396  1.8857  0.2232
  396MOL0     H53458   2.133   2.376  -0.497  2.3154  0.0034 -0.1742
  396MOL0     H53459   1.501   2.254  -0.101 -2.3372 -0.4627 -0.1178
  396MOL0     H53460   1.304   2.222  -0.010  1.4788  1.7638 -3.8903
  397MOL0     O53461   1.977   7.824   9.174 -0.1150  0.1109 -0.3099
  397MOL0     C53462   2.009   7.802   9.061  0.2436  0.5294  0.5269
  397MOL0     O53463   1.948   7.850   8.943 -0.2210  0.1548 -0.1140
  397MOL0     C53464   1.831   7.921   8.956  0.1448  0.1282 -0.0492
  397MOL0     C53465   1.814   8.011   8.853  0.3957  0.5188 -0.2807
  397MOL0     C53466   1.703   8.092   8.845  0.2246 -0.3680  0.0991
  397MOL0     C53467   1.605   8.084   8.954 -0.6025  0.6797  0.0812
  397MOL0     O53468   1.498   8.163   8.973 -0.2608 -0.0231 -1.3600
  397MOL0     C53469   1.457   8.253   8.868  0.8965  0.1273  0.1963
  397MOL0     C53470   1.367   8.186   8.771  0.7749  1.4860 -0.2721
  397MOL0     C53471   1.255   8.100   8.847 -0.8383 -0.3431 -0.4262
  397MOL0     C53472   1.173   8.186   8.941  0.2504  0.3287 -0.3069
  397MOL0     C53473   1.064   8.261   8.856  1.0650  0.4578  0.1302
  397MOL0     C53474   0.976   8.344   8.946 -0.5080  0.0869  0.5438
  397MOL0     C53475   0.877   8.419   8.863  0.2692 -0.7850 -0.3089
  397MOL0     C53476   0.774   8.494   8.957  0.0038  0.1902 -0.6360
  397MOL0     N53477   0.665   8.400   8.995 -0.3693  0.2153  0.4462
  397MOL0     C53478   0.657   8.333   9.116 -0.3517  0.0718  0.8616
  397MOL0     C53479   0.554   8.247   9.093 -0.3731  0.1618 -0.1795
  397MOL0     C53480   0.499   8.158   9.200  0.0170  0.0338  0.1662
  397MOL0     C53481   0.348   8.190   9.236 -0.8613  0.0489  0.3168
  397MOL0     C53482   0.301   8.066   9.315  0.3970  0.3000 -0.0862
  397MOL0     C53483   0.152   8.082   9.373 -0.2008  0.2399 -0.1565
  397MOL0     O53484   0.099   7.960   9.427 -0.7985  0.6087  0.0129
  397MOL0     C53485  -0.035   7.955   9.451 -0.6956 -0.0229 -0.9695
  397MOL0     C53486  -0.125   8.063   9.443  0.4400  0.1110  0.2518
  397MOL0     C53487  -0.258   8.044   9.485  0.1575  0.2102  0.7655
  397MOL0     C53488  -0.347   8.159   9.487  0.5160 -0.2928  1.0431
  397MOL0     C53489  -0.302   7.918   9.535  0.2972  0.6968  0.6636
  397MOL0     C53490  -0.442   7.891   9.582  0.2071 -0.1383  1.1648
  397MOL0     O53491  -0.539   7.945   9.500 -0.6575  0.0749 -0.0640
  397MOL0     C53492  -0.667   7.930   9.556  0.2200 -0.2752  1.0858
  397MOL0     C53493  -0.752   8.030   9.589  0.4926  0.0581  1.0259
  397MOL0     C53494  -0.887   8.015   9.631 -0.1174  0.3589 -0.1716
  397MOL0     C53495  -0.944   7.877   9.637  0.1054  0.1203 -0.9635
  397MOL0     O53496  -1.079   7.859   9.672 -0.9992  0.7554 -0.3301
  397MOL0     C53497  -1.162   7.973   9.701  0.3258 -0.5906  0.1625
  397MOL0     C53498  -1.303   7.929   9.749 -0.6476  0.1438 -0.0839
  397MOL0     C53499  -1.291   7.829   9.865 -0.2204  0.1016  0.4841
  397MOL0     C53500  -1.424   7.773   9.916  0.1396  0.4164 -0.0550
  397MOL0     C53501  -1.522   7.721   9.806  0.5796  0.1505 -0.9024
  397MOL0     C53502  -1.634   7.635   9.858 -0.0121 -0.2345 -0.1309
  397MOL0     C53503  -1.728   7.704   9.960  0.5462 -0.4737 -0.1012
  397MOL0     C53504  -1.860   7.630   9.999 -0.2263 -0.0223 -0.1839
  397MOL0    Cl53505  -1.829   7.471  10.064  0.3304  0.1452 -0.0373
  397MOL0     C53506  -0.857   7.774   9.589 -0.1768 -0.2648  0.1168
  397MOL0     C53507  -0.723   7.798   9.548  0.4125  0.1746 -0.1436
  397MOL0     O53508  -0.464   7.812   9.670 -0.0199  0.5558  0.1006
  397MOL0     C53509  -0.212   7.815   9.543  0.9061  1.1911  0.4505
  397MOL0     C53510  -0.080   7.835   9.497 -0.6618  0.0218 -0.4580
  397MOL0     N53511   0.500   8.267   8.970  0.0680  0.4423 -0.1541
  397MOL0     N53512   0.580   8.344   8.907  0.0616  0.7046  0.7007
  397MOL0     C53513   1.628   7.993   9.053 -0.3009  0.5965 -0.5334
  397MOL0     C53514   1.737   7.910   9.055  0.3868 -0.2866 -0.8022
  397MOL0     C53515   2.134   7.730   9.045 -0.5612  0.3780  0.4213
  397MOL0     C53516   2.223   7.701   9.148 -0.1488 -0.5658 -0.3915
  397MOL0     C53517   2.351   7.647   9.131 -0.4819 -0.3540  0.2805
  397MOL0     C53518   2.398   7.610   9.007 -0.0686 -0.9266  0.2060
  397MOL0     O53519   2.526   7.575   8.996 -0.6908 -0.0995 -0.1793
  397MOL0     C53520   2.587   7.582   8.862  0.0434 -0.1087 -0.3202
  397MOL0     C53521   2.737   7.575   8.863 -0.3170  0.2950  0.3820
  397MOL0     C53522   2.807   7.693   8.922 -0.1007 -0.6060  1.0407
  397MOL0     C53523   2.963   7.657   8.940  0.3964 -0.2596 -0.1551
  397MOL0     C53524   3.041   7.786   8.960  0.0836  0.3515  0.5007
  397MOL0     C53525   3.094   7.891   8.985 -0.0811 -0.6509  0.3226
  397MOL0     C53526   2.310   7.631   8.901 -0.1834 -0.1902  0.4393
  397MOL0     C53527   2.183   7.695   8.914  0.4105  0.1539  0.0310
  397MOL0     H53528   1.888   8.013   8.774 -1.4662  1.7335 -2.1203
  397MOL0     H53529   1.692   8.165   8.765 -0.1500  1.7191  1.9322
  397MOL0     H53530   1.399   8.337   8.906 -0.0765  0.3533 -1.6401
  397MOL0     H53531   1.545   8.290   8.815  2.1710 -1.8851  0.7924
  397MOL0     H53532   1.325   8.261   8.703 -0.8797  0.3702 -0.5406
  397MOL0     H53533   1.422   8.108   8.717 -0.4592 -2.2876  3.3798
  397MOL0     H53534   1.201   8.049   8.767  0.0062 -2.9819  0.5927
  397MOL0     H53535   1.293   8.023   8.914 -2.6365  1.5394  2.9971
  397MOL0     H53536   1.135   8.116   9.015  2.8171 -1.0087 -0.1639
  397MOL0     H53537   1.237   8.257   8.995 -0.5903  0.7339  0.1779
  397MOL0     H53538   1.115   8.336   8.795 -1.4882 -0.3687 -3.2840
  397MOL0     H53539   1.011   8.194   8.788 -0.3230  1.2773  0.3731
  397MOL0     H53540   0.918   8.284   9.017  0.4723  3.2268  4.3610
  397MOL0     H53541   1.043   8.412   9.000  0.8461 -0.6227 -0.1795
  397MOL0     H53542   0.944   8.489   8.813 -0.1613 -0.0538  0.1226
  397MOL0     H53543   0.815   8.350   8.806 -1.5615 -1.1304  1.9553
  397MOL0     H53544   0.719   8.573   8.905  0.1518  0.3295 -0.5778
  397MOL0     H53545   0.825   8.525   9.049  1.6439 -1.7439 -0.8036
  397MOL0     H53546   0.717   8.338   9.206 -1.4157  2.8752  1.5260
  397MOL0     H53547   0.504   8.056   9.162 -0.2415  0.1105 -0.0812
  397MOL0     H53548   0.561   8.142   9.289 -2.9880 -3.7254  1.8969
  397MOL0     H53549   0.287   8.220   9.150  1.4114  1.5846 -0.8414
  397MOL0     H53550   0.343   8.269   9.311 -0.1910 -0.3534  0.7973
  397MOL0     H53551   0.369   8.060   9.400 -0.3475  1.0507  0.5867
  397MOL0     H53552   0.294   7.976   9.253 -1.8549 -0.3737  1.0368
  397MOL0     H53553   0.085   8.122   9.297  2.1284  0.5503 -2.1705
  397MOL0     H53554   0.152   8.157   9.452  1.0406  1.6619 -1.4396
  397MOL0     H53555  -0.110   8.162   9.401 -2.1130 -0.9028 -3.6227
  397MOL0     H53556  -0.388   8.173   9.587 -1.9285 -0.9047  0.1996
  397MOL0     H53557  -0.299   8.254   9.463  2.0951 -1.6356 -1.5966
  397MOL0     H53558  -0.428   8.153   9.413 -0.4111  1.7780  1.8331
  397MOL0     H53559  -0.707   8.128   9.596 -0.5769  0.5504  1.1848
  397MOL0     H53560  -0.938   8.103   9.669  0.8946 -0.0656  2.3311
  397MOL0     H53561  -1.123   8.039   9.779  1.9754 -2.6215  1.1495
  397MOL0     H53562  -1.181   8.033   9.612  2.3504 -2.8359 -1.9413
  397MOL0     H53563  -1.369   8.012   9.775  2.2991  2.0401  2.0762
  397MOL0     H53564  -1.349   7.874   9.667 -0.9168  2.0311 -1.2619
  397MOL0     H53565  -1.244   7.880   9.950 -0.1863  2.0750 -0.6701
  397MOL0     H53566  -1.232   7.742   9.836 -0.1019  0.6240 -0.8972
  397MOL0     H53567  -1.399   7.683   9.973  1.8589 -0.1056 -1.5442
  397MOL0     H53568  -1.481   7.847   9.973 -1.3636  0.1832 -1.1907
  397MOL0     H53569  -1.476   7.642   9.747 -0.6767 -1.8653  0.6935
  397MOL0     H53570  -1.556   7.798   9.736 -0.0217 -1.3428 -2.3228
  397MOL0     H53571  -1.688   7.612   9.765 -1.0875  0.8891  0.1860
  397MOL0     H53572  -1.598   7.545   9.907  0.7923 -0.3673 -0.9490
  397MOL0     H53573  -1.754   7.801   9.918 -0.3294 -1.1109 -1.0786
  397MOL0     H53574  -1.673   7.729  10.051  0.5706  1.5725 -0.6427
  397MOL0     H53575  -1.935   7.627   9.920 -1.4842  0.6301  0.9427
  397MOL0     H53576  -1.916   7.698  10.063  0.2906  2.1732 -1.9481
  397MOL0     H53577  -0.888   7.670   9.583  0.7609 -0.5414 -0.1113
  397MOL0     H53578  -0.672   7.708   9.516  0.5126  0.7354 -1.6304
  397MOL0     H53579  -0.244   7.714   9.567 -3.2534  1.4905 -2.6346
  397MOL0     H53580  -0.018   7.745   9.504  0.4943  0.9132  2.4474
  397MOL0     H53581   1.557   7.983   9.134 -1.4125 -0.6446 -1.5912
  397MOL0     H53582   1.737   7.832   9.131 -2.7928 -0.0820 -0.4429
  397MOL0     H53583   2.195   7.709   9.253 -0.7827 -0.7708 -0.5403
  397MOL0     H53584   2.408   7.615   9.218  0.2165 -0.7498 -0.3130
  397MOL0     H53585   2.544   7.500   8.804 -1.4432  0.2878  0.1542
  397MOL0     H53586   2.554   7.678   8.820 -2.5150 -1.9308 -2.8841
  397MOL0     H53587   2.768   7.573   8.758  0.9366  1.6697  0.6914
  397MOL0     H53588   2.774   7.481   8.906  1.0627  0.8385  0.4603
  397MOL0     H53589   2.762   7.705   9.021 -0.1131 -0.8877  1.0714
  397MOL0     H53590   2.790   7.784   8.863 -0.1295 -1.5135 -0.3974
  397MOL0     H53591   2.999   7.620   8.844  0.9284 -1.2619  0.4091
  397MOL0     H53592   2.977   7.582   9.019 -0.9724 -0.9526 -0.5407
  397MOL0     H53593   3.152   7.980   8.999  0.3856 -0.8391 -0.3699
  397MOL0     H53594   2.343   7.605   8.801  0.7921 -0.0099  0.7112
  397MOL0     H53595   2.126   7.722   8.827 -1.9708 -0.9059  1.1795
  398MOL0     O53596   3.496   7.756   4.832 -0.2480 -0.8860 -0.4552
  398MOL0     C53597   3.580   7.847   4.843  0.8493  0.6124  0.0153
  398MOL0     O53598   3.551   7.985   4.838 -0.3098  0.3812  0.0727
  398MOL0     C53599   3.434   8.033   4.779  0.4921 -1.1628 -0.2349
  398MOL0     C53600   3.368   8.126   4.864  0.3836  1.0764 -0.8196
  398MOL0     C53601   3.246   8.181   4.831  0.2457  0.5415  0.2050
  398MOL0     C53602   3.182   8.144   4.710  0.3399 -1.4049 -0.4395
  398MOL0     O53603   3.057   8.193   4.687  0.1349 -0.1410 -0.3976
  398MOL0     C53604   2.969   8.122   4.601 -0.0575 -0.0253  0.1776
  398MOL0     C53605   2.824   8.149   4.652 -0.5640  0.1769 -0.6068
  398MOL0     C53606   2.799   8.301   4.682 -0.2713 -0.4403 -0.3378
  398MOL0     C53607   2.659   8.339   4.735 -0.4374 -0.4732 -0.0588
  398MOL0     C53608   2.634   8.497   4.763 -0.4274  0.2733  0.4342
  398MOL0     C53609   2.503   8.558   4.727 -0.1362 -0.2591 -0.0214
  398MOL0     C53610   2.383   8.480   4.785 -0.8029 -0.1402  0.1610
  398MOL0     C53611   2.383   8.499   4.936  0.4999 -0.1988  0.7817
  398MOL0     N53612   2.267   8.428   4.990  0.7878  0.7621  0.1716
  398MOL0     C53613   2.227   8.299   4.962  0.4468  0.3312  0.4617
  398MOL0     C53614   2.094   8.298   5.000 -0.4327  0.9756 -0.3200
  398MOL0     C53615   2.014   8.172   4.983  0.5696  0.2411 -0.7797
  398MOL0     C53616   1.860   8.211   4.996  0.0829 -0.0144 -1.2684
  398MOL0     C53617   1.777   8.103   4.939 -0.6970  0.0437  0.1790
  398MOL0     C53618   1.628   8.120   4.975 -0.0052  1.2048  0.6875
  398MOL0     O53619   1.559   8.030   4.881 -0.6885 -0.3546 -0.0607
  398MOL0     C53620   1.417   8.035   4.888 -0.0063  0.2571  0.4079
  398MOL0     C53621   1.356   7.979   4.775 -0.5803 -0.1963  1.1212
  398MOL0     C53622   1.224   7.981   4.759 -1.3965 -0.5889  0.5977
  398MOL0     C53623   1.172   7.924   4.628  1.0173 -0.4115  0.0443
  398MOL0     C53624   1.146   8.016   4.876  0.0753 -0.3139  0.2967
  398MOL0     C53625   0.997   8.013   4.883  0.5123  0.0319  0.6634
  398MOL0     O53626   0.943   7.980   4.998 -0.1330 -0.1610 -0.7727
  398MOL0     C53627   0.809   7.975   5.003  0.3808  0.0465  0.3095
  398MOL0     C53628   0.744   7.856   4.981  0.5449  0.9566  0.8783
  398MOL0     C53629   0.598   7.854   4.976  0.2683 -0.4908  0.2251
  398MOL0     C53630   0.531   7.976   4.987 -0.0121  0.9332 -0.1021
  398MOL0     O53631   0.398   8.001   4.969  0.4167  0.1426 -0.0602
  398MOL0     C53632   0.308   7.908   4.911 -0.4490  0.0537  0.2168
  398MOL0     C53633   0.161   7.949   4.936 -1.0567 -0.4671  0.4566
  398MOL0     C53634   0.058   7.843   4.881 -0.6632  0.7985  0.5455
  398MOL0     C53635   0.047   7.808   4.729  0.5974 -0.2704 -0.4072
  398MOL0     C53636  -0.069   7.715   4.696 -0.2208 -0.2304 -0.5773
  398MOL0     C53637  -0.073   7.670   4.552 -0.1599 -0.5583 -0.2009
  398MOL0     C53638  -0.141   7.771   4.463 -0.2295  0.1146  0.4302
  398MOL0     C53639  -0.127   7.736   4.312 -0.3093 -0.3352 -0.2002
  398MOL0    Cl53640  -0.141   7.565   4.272  0.0188 -0.4138  0.2229
  398MOL0     C53641   0.597   8.092   5.011 -0.5050 -1.1479  0.6542
  398MOL0     C53642   0.733   8.094   5.027  0.6259  0.5053  0.8444
  398MOL0     O53643   0.929   8.036   4.782 -0.6758  0.4085  0.7334
  398MOL0     C53644   1.206   8.078   4.985  0.2415 -0.1297 -0.5879
  398MOL0     C53645   1.341   8.089   4.989  0.4460 -1.2312  0.4296
  398MOL0     N53646   2.059   8.419   5.058 -0.9673 -0.1751 -0.4639
  398MOL0     N53647   2.164   8.493   5.050 -0.3692  0.3428 -0.3030
  398MOL0     C53648   3.255   8.067   4.626 -0.2369 -0.4811 -0.0679
  398MOL0     C53649   3.381   8.012   4.652  0.4670 -0.0793  0.1352
  398MOL0     C53650   3.713   7.832   4.900 -0.4674 -0.3088  0.0896
  398MOL0     C53651   3.779   7.936   4.957 -0.5702 -0.9359 -0.6997
  398MOL0     C53652   3.892   7.917   5.054  0.4533  0.4863  0.0575
  398MOL0     C53653   3.942   7.786   5.070  0.0404  0.3871 -0.7153
  398MOL0     O53654   4.053   7.749   5.150 -0.5493  0.1614 -0.0495
  398MOL0     C53655   4.068   7.612   5.184 -0.6473  0.7406  0.1292
  398MOL0     C53656   4.164   7.581   5.297  0.8817  0.2821  0.4414
  398MOL0     C53657   4.313   7.607   5.248 -0.0770  0.2158  0.2152
  398MOL0     C53658   4.410   7.584   5.363 -0.1594  0.2768  1.0391
  398MOL0     C53659   4.540   7.641   5.319 -0.2859  0.1865 -0.3989
  398MOL0     C53660   4.638   7.684   5.271 -0.7793 -1.2918 -0.4167
  398MOL0     C53661   3.888   7.681   4.996 -1.3610 -0.9592  0.2442
  398MOL0     C53662   3.777   7.701   4.910  0.3074 -1.2708 -0.2265
  398MOL0     H53663   3.427   8.149   4.952 -1.7451  2.3328  0.3651
  398MOL0     H53664   3.195   8.246   4.901  0.9875  0.5194  0.7804
  398MOL0     H53665   2.970   8.157   4.497 -2.3054  0.6572  0.3338
  398MOL0     H53666   2.997   8.016   4.600  0.5392  0.1235 -1.0648
  398MOL0     H53667   2.753   8.113   4.576 -1.0532 -2.0424  0.8168
  398MOL0     H53668   2.810   8.075   4.730  3.8028 -1.4306 -1.0738
  398MOL0     H53669   2.869   8.348   4.752  1.0296  1.8752 -3.0263
  398MOL0     H53670   2.820   8.349   4.586  0.4246 -0.5931 -0.2686
  398MOL0     H53671   2.583   8.294   4.669 -1.6488  0.2090  0.8376
  398MOL0     H53672   2.653   8.294   4.835 -0.0316  0.6702  0.4910
  398MOL0     H53673   2.654   8.533   4.865 -0.9245  0.1687  0.5711
  398MOL0     H53674   2.705   8.545   4.696  1.8486 -3.1845  0.0974
  398MOL0     H53675   2.491   8.665   4.747 -3.2388 -0.5921  0.4256
  398MOL0     H53676   2.497   8.548   4.618 -0.0370  1.0626 -0.1658
  398MOL0     H53677   2.288   8.510   4.741 -1.2251 -1.8132 -0.1429
  398MOL0     H53678   2.394   8.374   4.761  1.3430  0.7310 -3.4468
  398MOL0     H53679   2.383   8.603   4.970  0.8500 -1.0054  3.4722
  398MOL0     H53680   2.478   8.455   4.968  1.3769 -0.1569 -1.5115
  398MOL0     H53681   2.274   8.214   4.914 -1.3006 -0.0657 -0.5936
  398MOL0     H53682   2.022   8.132   4.882 -1.6326 -0.8387 -0.5853
  398MOL0     H53683   2.044   8.097   5.058 -1.4096 -0.4062 -0.5775
  398MOL0     H53684   1.843   8.308   4.948  0.3864 -0.2836 -1.9201
  398MOL0     H53685   1.836   8.222   5.103  0.2618  1.8343 -1.3762
  398MOL0     H53686   1.808   8.001   4.964  1.1708 -1.2806 -5.8450
  398MOL0     H53687   1.781   8.113   4.830 -4.0167  0.6451  0.0012
  398MOL0     H53688   1.600   8.222   4.948  0.5548  0.9513 -0.9550
  398MOL0     H53689   1.609   8.095   5.080 -3.9198  2.8644  0.5300
  398MOL0     H53690   1.418   7.958   4.688 -1.1774 -0.1510  0.6799
  398MOL0     H53691   1.140   8.001   4.557  3.2523 -1.8874 -2.8003
  398MOL0     H53692   1.242   7.879   4.557  3.0221  3.9972 -1.1522
  398MOL0     H53693   1.097   7.849   4.652  2.0136 -1.1283  1.0341
  398MOL0     H53694   0.795   7.765   4.952  0.3672  0.8566  0.8789
  398MOL0     H53695   0.538   7.765   4.960 -3.5021  1.8120  0.2967
  398MOL0     H53696   0.326   7.913   4.803  0.0611  0.8772  0.3297
  398MOL0     H53697   0.323   7.805   4.944  0.7446  0.1523  0.0240
  398MOL0     H53698   0.132   7.965   5.040  2.2404 -1.1336  1.6200
  398MOL0     H53699   0.137   8.033   4.871  0.1589 -1.3064 -1.1839
  398MOL0     H53700  -0.042   7.876   4.910 -1.6164 -2.0128  0.7464
  398MOL0     H53701   0.055   7.756   4.946 -0.0184  2.2836  2.6889
  398MOL0     H53702   0.040   7.899   4.668  0.2842  0.1144  0.1983
  398MOL0     H53703   0.139   7.761   4.691  0.9064  0.1943 -0.2429
  398MOL0     H53704  -0.163   7.758   4.734 -0.5079 -2.4135  1.4126
  398MOL0     H53705  -0.055   7.631   4.765  0.4658  1.9971  2.1799
  398MOL0     H53706   0.025   7.653   4.507  0.3113  0.5353  0.3698
  398MOL0     H53707  -0.123   7.573   4.558  0.2840 -0.7004  2.1124
  398MOL0     H53708  -0.105   7.874   4.476 -1.4130  0.9701 -2.3188
  398MOL0     H53709  -0.249   7.769   4.480 -0.7765 -1.0711 -2.5815
  398MOL0     H53710  -0.032   7.764   4.268 -0.3810 -2.1314 -1.6250
  398MOL0     H53711  -0.208   7.795   4.268 -0.6614 -0.0366  0.8090
  398MOL0     H53712   0.532   8.178   5.006  1.2927  0.3935  2.0501
  398MOL0     H53713   0.779   8.188   5.054 -1.6542  1.0935  3.0650
  398MOL0     H53714   1.140   8.115   5.063 -0.1352  1.1736 -1.4898
  398MOL0     H53715   1.380   8.127   5.083 -1.1699  0.1449  0.5943
  398MOL0     H53716   3.207   8.060   4.529  1.0612  3.9924 -1.2870
  398MOL0     H53717   3.435   7.941   4.590  0.8127  1.7144 -1.7344
  398MOL0     H53718   3.734   8.035   4.960 -1.5370 -1.3839  0.2095
  398MOL0     H53719   3.940   8.000   5.105  0.0823  1.1586 -0.6536
  398MOL0     H53720   3.973   7.568   5.214 -1.8996  2.3234 -1.3194
  398MOL0     H53721   4.109   7.558   5.098  0.4117  2.0430 -0.2236
  398MOL0     H53722   4.152   7.474   5.318 -0.8413  0.0266 -1.5134
  398MOL0     H53723   4.140   7.645   5.383 -0.9226 -1.4886  1.3570
  398MOL0     H53724   4.314   7.706   5.200 -2.2798 -0.9341 -2.5360
  398MOL0     H53725   4.343   7.545   5.163  2.2369 -0.2979  1.3366
  398MOL0     H53726   4.435   7.479   5.382  0.7913 -0.2699 -2.5669
  398MOL0     H53727   4.367   7.632   5.452 -2.4200  0.4896 -0.0942
  398MOL0     H53728   4.723   7.736   5.230 -0.3241 -1.9966 -0.4058
  398MOL0     H53729   3.921   7.579   4.979 -1.2440 -1.3308  2.4377
  398MOL0     H53730   3.726   7.614   4.872  0.2792 -0.9939 -0.8479
  399MOL0     O53731   9.364   2.866   0.164 -0.3794  0.1852  0.9095
  399MOL0     C53732   9.427   2.758   0.184 -0.3337  0.2355  0.3767
  399MOL0     O53733   9.382   2.634   0.137  0.3322  0.4065  0.3298
  399MOL0     C53734   9.252   2.631   0.100  0.2191 -0.1823  0.9768
  399MOL0     C53735   9.159   2.604   0.194 -0.1365  1.0116 -0.3058
  399MOL0     C53736   9.022   2.594   0.170 -0.4023  0.7733  0.2327
  399MOL0     C53737   8.976   2.616   0.034 -0.5403 -0.9401 -0.1066
  399MOL0     O53738   8.843   2.611   0.007  0.4932 -0.3790  0.6883
  399MOL0     C53739   8.791   2.707  -0.096  0.0942 -0.0052 -0.3885
  399MOL0     C53740   8.644   2.735  -0.078 -0.1438 -0.1783 -0.0768
  399MOL0     C53741   8.557   2.607  -0.097  0.2666 -0.8636  0.6117
  399MOL0     C53742   8.405   2.630  -0.061 -0.3402  0.2098  0.1827
  399MOL0     C53743   8.333   2.686  -0.176  0.0007  0.5947  0.1947
  399MOL0     C53744   8.291   2.576  -0.286  0.2753 -0.0285  0.3548
  399MOL0     C53745   8.181   2.633  -0.380 -0.2750  0.0800  0.3211
  399MOL0     C53746   8.216   2.750  -0.464  0.4637  0.9234 -0.7779
  399MOL0     N53747   8.096   2.795  -0.549  0.1015 -0.0970 -0.2436
  399MOL0     C53748   8.014   2.897  -0.510 -1.1913  0.7265 -0.6014
  399MOL0     C53749   7.916   2.890  -0.606 -0.2869  0.4192  0.2512
  399MOL0     C53750   7.795   2.972  -0.600  0.1198 -0.6272 -0.8761
  399MOL0     C53751   7.831   3.123  -0.611  0.5974 -0.1955  0.3754
  399MOL0     C53752   7.715   3.219  -0.640 -0.6132  0.6169  0.2006
  399MOL0     C53753   7.756   3.362  -0.599  0.5444  0.3035  0.2406
  399MOL0     O53754   7.684   3.463  -0.673 -0.0732  0.4510 -0.0967
  399MOL0     C53755   7.551   3.479  -0.642 -0.6830  0.0442  0.3155
  399MOL0     C53756   7.455   3.401  -0.711 -0.0062 -0.3320 -0.2646
  399MOL0     C53757   7.318   3.415  -0.691 -0.2430 -0.5211  0.1733
  399MOL0     C53758   7.237   3.315  -0.768 -0.2890  0.1912 -0.0367
  399MOL0     C53759   7.265   3.516  -0.604  0.3482 -0.5897 -0.8336
  399MOL0     C53760   7.117   3.533  -0.585 -0.1009  0.3884  0.6176
  399MOL0     O53761   7.085   3.636  -0.506  0.5307 -0.2601  0.0361
  399MOL0     C53762   6.950   3.670  -0.505 -0.0150 -0.5386  0.7601
  399MOL0     C53763   6.877   3.708  -0.622  0.1642  0.3666 -0.0208
  399MOL0     C53764   6.739   3.736  -0.616 -1.0199  0.1866  0.6626
  399MOL0     C53765   6.673   3.731  -0.496 -0.2599  0.0988  0.5739
  399MOL0     O53766   6.540   3.747  -0.494 -0.0869 -0.5044  0.0444
  399MOL0     C53767   6.496   3.840  -0.390  0.2838  0.1280  0.1299
  399MOL0     C53768   6.343   3.853  -0.402  0.5464  0.8740  0.3255
  399MOL0     C53769   6.287   3.883  -0.546 -0.1923  0.3286  0.3832
  399MOL0     C53770   6.141   3.878  -0.556  0.4406  0.7099  1.0005
  399MOL0     C53771   6.073   3.936  -0.679  0.4453 -0.1383 -0.2223
  399MOL0     C53772   5.922   3.923  -0.673  1.1331  0.0078 -0.2203
  399MOL0     C53773   5.850   3.995  -0.555  1.1622 -0.2199 -0.4062
  399MOL0     C53774   5.699   3.997  -0.555 -0.3623  0.1238  0.0353
  399MOL0    Cl53775   5.649   3.822  -0.543  0.0593 -0.2407 -0.1671
  399MOL0     C53776   6.745   3.695  -0.381 -0.7924  0.1201 -0.0540
  399MOL0     C53777   6.885   3.671  -0.386  0.4407 -0.0876  0.3611
  399MOL0     O53778   7.036   3.461  -0.650  0.3852 -0.7333  0.3160
  399MOL0     C53779   7.364   3.595  -0.549  0.4635  0.1684 -0.5211
  399MOL0     C53780   7.502   3.576  -0.558  0.5401  0.3200 -0.0143
  399MOL0     N53781   7.943   2.794  -0.704  0.0078 -1.0176  0.2140
  399MOL0     N53782   8.048   2.738  -0.669  0.1705  0.1766 -0.8096
  399MOL0     C53783   9.071   2.657  -0.061 -0.3263 -0.2313  0.0571
  399MOL0     C53784   9.210   2.671  -0.032  0.7649  0.5658  0.8270
  399MOL0     C53785   9.556   2.762   0.257  0.4777 -0.3158  0.6272
  399MOL0     C53786   9.616   2.869   0.321  0.3382 -0.5511  0.5526
  399MOL0     C53787   9.740   2.857   0.387 -0.3425 -0.5620 -0.0474
  399MOL0     C53788   9.791   2.732   0.416 -0.1673  1.3134 -0.4258
  399MOL0     O53789   9.898   2.713   0.498 -0.5673  0.0277 -0.6403
  399MOL0     C53790   9.915   2.801   0.612 -0.0405  0.0511 -0.1478
  399MOL0     C53791  10.038   2.761   0.707 -0.2356 -0.1420  0.5407
  399MOL0     C53792  10.175   2.734   0.616  0.2568  0.5175 -0.1861
  399MOL0     C53793  10.295   2.694   0.698 -0.1388  0.1381 -0.1432
  399MOL0     C53794  10.328   2.793   0.797  0.0141  0.0974  0.0659
  399MOL0     C53795  10.366   2.892   0.860  0.1604 -0.0762  0.4775
  399MOL0     C53796   9.741   2.619   0.342  0.0469 -1.5402 -0.6485
  399MOL0     C53797   9.627   2.633   0.266  0.4864 -0.5299 -0.0698
  399MOL0     H53798   9.200   2.592   0.294  1.2794  0.9655 -0.8645
  399MOL0     H53799   8.949   2.576   0.248 -0.3955 -0.1584  0.0255
  399MOL0     H53800   8.846   2.801  -0.093  0.8461 -0.4054 -1.2041
  399MOL0     H53801   8.807   2.668  -0.197  1.1313 -2.3862  0.6310
  399MOL0     H53802   8.629   2.766   0.026 -1.2966 -3.8585  1.0019
  399MOL0     H53803   8.607   2.810  -0.147 -1.3160  1.0362  1.7869
  399MOL0     H53804   8.562   2.582  -0.204  1.0255 -1.7236  0.8317
  399MOL0     H53805   8.602   2.534  -0.029  2.3437  1.2770  1.7093
  399MOL0     H53806   8.353   2.541  -0.025 -1.3885  0.4075 -0.7590
  399MOL0     H53807   8.416   2.706   0.017  2.6222  2.7825 -2.4372
  399MOL0     H53808   8.244   2.737  -0.138  1.1308  1.3519  1.9471
  399MOL0     H53809   8.395   2.761  -0.224  1.4479 -0.6454  0.0563
  399MOL0     H53810   8.381   2.560  -0.347  1.5420 -2.0693  2.5952
  399MOL0     H53811   8.268   2.475  -0.251  2.0550 -2.4866 -4.5779
  399MOL0     H53812   8.152   2.555  -0.451 -0.8199  1.4150 -0.9778
  399MOL0     H53813   8.094   2.656  -0.317 -0.8605  0.9716 -0.7805
  399MOL0     H53814   8.295   2.713  -0.530  1.8541  2.4341 -0.0266
  399MOL0     H53815   8.251   2.829  -0.397 -0.0084 -0.0737  0.7020
  399MOL0     H53816   8.020   2.954  -0.418 -1.3690  1.5371 -1.0839
  399MOL0     H53817   7.729   2.939  -0.681 -1.8541 -0.3316  0.5106
  399MOL0     H53818   7.749   2.947  -0.504  0.5423 -3.3487 -1.3272
  399MOL0     H53819   7.905   3.137  -0.691 -0.6885  0.4291 -0.7530
  399MOL0     H53820   7.873   3.143  -0.513 -0.6120  1.6780  0.5562
  399MOL0     H53821   7.630   3.189  -0.578 -0.4206  0.8022  0.5559
  399MOL0     H53822   7.695   3.215  -0.748 -1.2912  1.8647  0.2656
  399MOL0     H53823   7.858   3.392  -0.626 -0.0951 -0.4173 -3.5122
  399MOL0     H53824   7.737   3.378  -0.492 -2.7771 -2.1466  0.1453
  399MOL0     H53825   7.501   3.329  -0.778  0.7738 -0.6082  0.5559
  399MOL0     H53826   7.307   3.243  -0.812  0.7578  0.9765  0.3223
  399MOL0     H53827   7.179   3.259  -0.694  3.1222  0.3847  3.0523
  399MOL0     H53828   7.172   3.353  -0.848 -0.1651  1.2135  0.3320
  399MOL0     H53829   6.924   3.713  -0.720 -0.4214  0.6966 -0.2851
  399MOL0     H53830   6.690   3.765  -0.708 -0.3517 -1.1953 -0.1640
  399MOL0     H53831   6.515   3.803  -0.289 -2.4872 -0.7072  0.4424
  399MOL0     H53832   6.550   3.931  -0.417 -0.0626  0.2226 -0.2547
  399MOL0     H53833   6.293   3.760  -0.375 -2.1037  2.3224  0.6394
  399MOL0     H53834   6.304   3.931  -0.336 -3.0228  0.4633 -1.0858
  399MOL0     H53835   6.333   3.826  -0.627  0.0129  3.3495 -1.7647
  399MOL0     H53836   6.323   3.985  -0.562  1.2157  0.0312  1.4728
  399MOL0     H53837   6.114   3.772  -0.565  0.4690  0.8379 -1.3529
  399MOL0     H53838   6.095   3.915  -0.464 -0.9023  0.7190  0.3619
  399MOL0     H53839   6.103   3.891  -0.775  0.6005  1.3911 -0.9174
  399MOL0     H53840   6.096   4.042  -0.688  2.2907 -0.5813 -1.1104
  399MOL0     H53841   5.883   3.973  -0.762 -2.4192  0.4596  1.4290
  399MOL0     H53842   5.898   3.817  -0.674 -0.3273  0.3006 -2.7557
  399MOL0     H53843   5.880   4.100  -0.552 -0.1225  0.1438  0.1184
  399MOL0     H53844   5.882   3.945  -0.463 -0.2743  1.6971  1.2238
  399MOL0     H53845   5.659   4.048  -0.643  0.6829  1.2024  0.1705
  399MOL0     H53846   5.672   4.044  -0.460  0.5542  1.6899 -0.4518
  399MOL0     H53847   6.707   3.678  -0.281  1.8305 -1.5240  0.7816
  399MOL0     H53848   6.938   3.646  -0.295  0.5071  1.0843  0.6587
  399MOL0     H53849   7.342   3.679  -0.483 -2.6692 -2.1327  1.6814
  399MOL0     H53850   7.574   3.639  -0.507  2.1526 -0.8941 -0.7015
  399MOL0     H53851   9.030   2.672  -0.160 -0.7107 -0.4366  0.1843
  399MOL0     H53852   9.285   2.692  -0.108  2.8909 -1.6161  2.1690
  399MOL0     H53853   9.563   2.964   0.316  2.0937  0.3886 -2.3878
  399MOL0     H53854   9.780   2.949   0.431  1.2257 -0.0554 -2.3093
  399MOL0     H53855   9.948   2.897   0.570  3.5814 -1.8777 -2.2592
  399MOL0     H53856   9.824   2.816   0.671  0.7451  0.1183  1.0775
  399MOL0     H53857  10.014   2.676   0.771 -0.6574 -1.1120 -0.8519
  399MOL0     H53858  10.060   2.849   0.768  2.5108  0.5093 -1.1646
  399MOL0     H53859  10.198   2.828   0.563 -1.8325  2.1309  1.6085
  399MOL0     H53860  10.151   2.662   0.537  0.6149 -1.2414  1.2482
  399MOL0     H53861  10.385   2.694   0.635  1.3359  3.1350  1.6809
  399MOL0     H53862  10.274   2.595   0.738 -2.6024  0.2260 -1.0916
  399MOL0     H53863  10.409   2.956   0.935 -0.4486 -0.1095  0.8696
  399MOL0     H53864   9.775   2.516   0.344  1.0279 -1.2329 -0.8457
  399MOL0     H53865   9.590   2.551   0.206 -1.0124 -0.1483  0.2859
  400MOL0     O53866   5.456   3.619   2.172  0.4242  0.1488  0.4392
  400MOL0     C53867   5.530   3.680   2.244 -0.5723  0.0952  0.3571
  400MOL0     O53868   5.493   3.762   2.351 -0.0993 -0.2060 -0.3482
  400MOL0     C53869   5.354   3.756   2.366 -0.2048 -0.4155 -0.5288
  400MOL0     C53870   5.301   3.644   2.435  0.0148 -0.3795  0.0181
  400MOL0     C53871   5.162   3.640   2.459 -0.1332 -0.3320 -0.2597
  400MOL0     C53872   5.073   3.742   2.415  0.2945 -0.4937 -0.4640
  400MOL0     O53873   4.945   3.760   2.454  0.3673  0.0912 -0.5708
  400MOL0     C53874   4.870   3.639   2.474 -0.9509  0.0874 -0.7466
  400MOL0     C53875   4.721   3.692   2.477 -0.0856  0.1007 -1.0081
  400MOL0     C53876   4.690   3.764   2.605  0.0407 -0.0194 -0.1145
  400MOL0     C53877   4.677   3.664   2.724  0.3070 -0.0600 -0.0485
  400MOL0     C53878   4.628   3.733   2.846  0.0435 -0.5509  0.3876
  400MOL0     C53879   4.594   3.629   2.952 -0.6175  0.6098 -0.5675
  400MOL0     C53880   4.562   3.684   3.094  0.2371 -0.0815 -0.2765
  400MOL0     C53881   4.549   3.587   3.209 -0.3779 -0.2573 -0.8663
  400MOL0     N53882   4.657   3.488   3.216  0.4399 -0.5227 -0.0709
  400MOL0     C53883   4.791   3.514   3.247 -0.2474  0.3061  0.1873
  400MOL0     C53884   4.854   3.404   3.233 -0.4814  0.9925 -0.0531
  400MOL0     C53885   5.007   3.378   3.258 -0.1009  0.0481 -0.2547
  400MOL0     C53886   5.087   3.361   3.123 -0.1075  0.1265 -0.2716
  400MOL0     C53887   5.231   3.321   3.148  0.1654  0.2599 -0.1544
  400MOL0     C53888   5.310   3.449   3.183 -0.1044  0.4226  0.1860
  400MOL0     O53889   5.452   3.424   3.173  0.5347  0.7310 -0.5607
  400MOL0     C53890   5.530   3.445   3.064 -0.5898 -0.1571  0.6365
  400MOL0     C53891   5.477   3.499   2.945 -0.3720  0.5050 -0.3212
  400MOL0     C53892   5.566   3.541   2.845 -0.6557 -0.0568  0.4439
  400MOL0     C53893   5.498   3.631   2.737 -0.0221 -0.3014 -0.6446
  400MOL0     C53894   5.710   3.531   2.864 -0.2670  0.3163 -0.6561
  400MOL0     C53895   5.818   3.582   2.772  0.8720 -0.7721 -0.1438
  400MOL0     O53896   5.944   3.593   2.820  0.3747 -0.2927 -0.7868
  400MOL0     C53897   6.053   3.614   2.745 -0.3358  1.2306 -0.0447
  400MOL0     C53898   6.169   3.640   2.805 -0.3043  0.1638 -0.1592
  400MOL0     C53899   6.290   3.648   2.730 -0.4953 -0.3578  0.1282
  400MOL0     C53900   6.294   3.627   2.583 -0.5806 -0.5545  0.0676
  400MOL0     O53901   6.418   3.631   2.516  0.7557 -0.5586 -0.3741
  400MOL0     C53902   6.515   3.729   2.572  0.9088 -0.0034  0.2980
  400MOL0     C53903   6.631   3.731   2.467 -0.2925  0.4242 -0.0364
  400MOL0     C53904   6.713   3.864   2.470 -0.8325  0.0404 -0.0863
  400MOL0     C53905   6.782   3.886   2.610  0.4540  0.2820  0.9973
  400MOL0     C53906   6.876   4.006   2.595  0.0105  0.3491  0.4087
  400MOL0     C53907   6.981   4.028   2.701 -0.0149  0.6172 -0.3395
  400MOL0     C53908   6.925   4.072   2.837  0.3988  0.2415  0.5776
  400MOL0     C53909   7.044   4.083   2.936  0.0167  0.5845 -0.0075
  400MOL0    Cl53910   7.155   4.211   2.897  0.3146  0.4689 -0.2724
  400MOL0     C53911   6.176   3.597   2.528 -1.1360 -0.5943  0.2949
  400MOL0     C53912   6.058   3.594   2.605  0.5117 -0.3578  0.8307
  400MOL0     O53913   5.768   3.636   2.671  0.1254 -0.2863 -0.9868
  400MOL0     C53914   5.758   3.482   2.986  0.3064 -0.2268 -0.1057
  400MOL0     C53915   5.667   3.434   3.081 -0.4459  0.2552 -0.2044
  400MOL0     N53916   4.766   3.304   3.194 -0.1270  0.8176 -0.2141
  400MOL0     N53917   4.648   3.355   3.192 -0.5003 -0.2342  0.1377
  400MOL0     C53918   5.134   3.838   2.339  0.2551 -0.2652 -0.1283
  400MOL0     C53919   5.267   3.849   2.313  0.0968  0.9324 -0.1097
  400MOL0     C53920   5.679   3.676   2.223  0.0555  0.8269 -0.8943
  400MOL0     C53921   5.733   3.616   2.111 -0.2035  1.0240 -0.3787
  400MOL0     C53922   5.866   3.622   2.080  0.3938  0.6979 -0.0248
  400MOL0     C53923   5.964   3.665   2.170 -1.0004  0.7050 -0.1251
  400MOL0     O53924   6.103   3.664   2.157 -0.5290  0.3484 -0.2229
  400MOL0     C53925   6.166   3.612   2.033  1.1241  0.3882 -0.6030
  400MOL0     C53926   6.312   3.604   2.046  0.3710 -0.4669  0.0368
  400MOL0     C53927   6.379   3.495   2.132  0.2441 -0.1765  0.2968
  400MOL0     C53928   6.534   3.524   2.116  0.7896  0.6547 -0.9252
  400MOL0     C53929   6.599   3.431   2.213  0.3822  0.1253  0.2195
  400MOL0     C53930   6.644   3.354   2.294 -0.0900  0.7587 -0.1012
  400MOL0     C53931   5.913   3.717   2.290 -0.5751  0.4096  0.1944
  400MOL0     C53932   5.775   3.719   2.321  0.0140 -0.0392  0.5834
  400MOL0     H53933   5.368   3.562   2.461  3.2031  2.4178  1.5043
  400MOL0     H53934   5.125   3.556   2.515  0.5648 -0.8126 -0.5094
  400MOL0     H53935   4.882   3.564   2.395 -0.4473  1.8680 -2.4330
  400MOL0     H53936   4.910   3.605   2.570  1.4663  0.0303 -1.7111
  400MOL0     H53937   4.706   3.751   2.386 -1.6784 -1.4502 -1.8081
  400MOL0     H53938   4.650   3.609   2.480  0.7911 -0.6352  0.0516
  400MOL0     H53939   4.766   3.839   2.625 -0.3643  0.3316  0.1376
  400MOL0     H53940   4.589   3.807   2.596 -0.0126 -0.5277 -2.9206
  400MOL0     H53941   4.608   3.585   2.693 -0.3421 -0.8026  2.9758
  400MOL0     H53942   4.777   3.622   2.739  0.4809  0.7441  1.1681
  400MOL0     H53943   4.705   3.803   2.880  1.8734 -3.9252  3.9568
  400MOL0     H53944   4.535   3.787   2.824  0.5104  0.3764  0.6057
  400MOL0     H53945   4.513   3.566   2.916 -0.6348 -0.4439  1.1848
  400MOL0     H53946   4.691   3.579   2.969 -0.4412  1.5846  1.5474
  400MOL0     H53947   4.639   3.758   3.116 -0.1280  0.1011  0.4272
  400MOL0     H53948   4.467   3.738   3.090 -0.7867 -1.8940 -2.0983
  400MOL0     H53949   4.461   3.523   3.196 -0.2074 -0.5818 -0.4673
  400MOL0     H53950   4.545   3.635   3.307 -1.1710 -2.7209  0.4054
  400MOL0     H53951   4.831   3.613   3.268 -2.9203  2.0055 -2.0816
  400MOL0     H53952   5.051   3.460   3.314 -1.1895  2.5841 -2.8667
  400MOL0     H53953   5.010   3.284   3.313  1.0008 -0.0226 -0.4163
  400MOL0     H53954   5.082   3.443   3.050 -0.4365 -1.0536 -1.6196
  400MOL0     H53955   5.045   3.268   3.084  2.5150 -2.4814  2.6450
  400MOL0     H53956   5.274   3.272   3.061 -1.2047  0.2838 -0.8635
  400MOL0     H53957   5.242   3.246   3.227  0.8823 -1.9792 -2.2800
  400MOL0     H53958   5.285   3.473   3.287  0.4942 -0.5436  0.5650
  400MOL0     H53959   5.274   3.534   3.123 -1.6563 -0.7988 -0.6980
  400MOL0     H53960   5.371   3.516   2.930 -0.2254  1.8186 -0.0040
  400MOL0     H53961   5.527   3.733   2.764 -1.0357 -0.6001  1.8739
  400MOL0     H53962   5.537   3.602   2.639  4.2014 -0.5570  0.9134
  400MOL0     H53963   5.388   3.626   2.735 -0.0092 -0.5053 -0.8536
  400MOL0     H53964   6.159   3.639   2.913 -2.7607  2.0964 -0.2891
  400MOL0     H53965   6.379   3.657   2.791 -1.6906  0.4845  1.8424
  400MOL0     H53966   6.468   3.828   2.578 -2.2334 -1.1669 -2.0892
  400MOL0     H53967   6.548   3.690   2.669 -0.0195 -1.5278  0.0278
  400MOL0     H53968   6.687   3.637   2.475 -0.1329  0.4588 -0.7201
  400MOL0     H53969   6.590   3.719   2.366 -0.8200 -0.0431  0.2220
  400MOL0     H53970   6.651   3.948   2.438  0.0748  0.4604 -0.7640
  400MOL0     H53971   6.781   3.858   2.385 -0.7713  1.2850 -0.1443
  400MOL0     H53972   6.699   3.907   2.678  0.1209  4.4282 -0.3700
  400MOL0     H53973   6.834   3.795   2.640  1.8589  0.3319 -1.0259
  400MOL0     H53974   6.808   4.092   2.599  0.4096  0.6377  2.1243
  400MOL0     H53975   6.927   3.994   2.499 -0.5362 -1.1122  0.2792
  400MOL0     H53976   7.005   3.924   2.728 -1.8996 -0.0167 -0.9274
  400MOL0     H53977   7.062   4.092   2.666 -0.6195  0.8833 -1.2947
  400MOL0     H53978   6.845   4.007   2.875 -1.9888  1.2214 -2.3790
  400MOL0     H53979   6.878   4.169   2.821  0.2723 -0.0896 -1.3898
  400MOL0     H53980   7.102   3.990   2.930 -1.3745 -0.2199 -4.3005
  400MOL0     H53981   7.004   4.102   3.036 -0.0192  0.4924 -0.0042
  400MOL0     H53982   6.166   3.582   2.421  0.6636 -0.1567  0.0326
  400MOL0     H53983   5.973   3.570   2.541  2.2871  0.7363 -2.1743
  400MOL0     H53984   5.862   3.486   3.018 -0.1097  0.0240  1.2639
  400MOL0     H53985   5.699   3.414   3.183 -1.1170 -0.1504 -0.0669
  400MOL0     H53986   5.071   3.912   2.291  0.0725 -0.7890 -0.7147
  400MOL0     H53987   5.302   3.924   2.244  0.5283 -1.4427 -2.6596
  400MOL0     H53988   5.657   3.593   2.038 -0.2498  1.8986 -0.6172
  400MOL0     H53989   5.898   3.595   1.979  2.5563  1.1870  0.4869
  400MOL0     H53990   6.107   3.521   2.018  1.7723 -1.0176  3.9429
  400MOL0     H53991   6.144   3.681   1.951 -2.1151  1.8266  1.2710
  400MOL0     H53992   6.354   3.693   2.093 -1.0287 -0.5064  1.4831
  400MOL0     H53993   6.356   3.585   1.948  0.3025 -1.1810  0.1349
  400MOL0     H53994   6.361   3.394   2.095  1.6017 -0.3373  0.0274
  400MOL0     H53995   6.346   3.504   2.236  1.7644  1.9194  0.6815
  400MOL0     H53996   6.560   3.626   2.146  1.0133  0.2617  0.2535
  400MOL0     H53997   6.567   3.487   2.018  2.4092 -2.0858  0.5608
  400MOL0     H53998   6.692   3.293   2.368  0.9747  1.9360  0.2294
  400MOL0     H53999   5.982   3.745   2.370 -2.2092 -0.9910  2.2088
  400MOL0     H54000   5.735   3.745   2.418 -0.1264  0.1265  0.4822
  401MOL0     O54001   3.591   4.432   0.105  0.0315 -0.6262 -0.2669
  401MOL0     C54002   3.583   4.336   0.026 -0.3935  0.5697  0.2382
  401MOL0     O54003   3.470   4.275  -0.015  0.7839 -0.2282 -0.0397
  401MOL0     C54004   3.342   4.324   0.001 -1.0457  0.3709 -0.6209
  401MOL0     C54005   3.254   4.302  -0.106 -0.9444 -0.5508 -0.0764
  401MOL0     C54006   3.123   4.354  -0.094 -0.1597  0.0272 -0.9769
  401MOL0     C54007   3.074   4.417   0.017 -0.2811 -0.1612 -0.2217
  401MOL0     O54008   2.944   4.465   0.037 -0.6796  0.1637  0.5071
  401MOL0     C54009   2.839   4.424  -0.053 -0.1982 -0.7196  0.6819
  401MOL0     C54010   2.729   4.532  -0.029  0.4018  0.8568  0.3960
  401MOL0     C54011   2.620   4.497  -0.129  0.5624  0.8265  0.3540
  401MOL0     C54012   2.475   4.529  -0.086 -0.3432  0.6571 -0.3406
  401MOL0     C54013   2.362   4.514  -0.191  0.3147 -0.0556  0.0892
  401MOL0     C54014   2.225   4.537  -0.132  0.2686 -0.2335  0.1932
  401MOL0     C54015   2.113   4.498  -0.219  0.1131 -0.1199  0.8154
  401MOL0     C54016   2.081   4.340  -0.215  0.7276  0.1867 -0.5826
  401MOL0     N54017   1.941   4.306  -0.257 -1.2595 -0.6741 -0.2496
  401MOL0     C54018   1.882   4.335  -0.389 -0.5569  0.8318  0.1637
  401MOL0     C54019   1.764   4.271  -0.385  0.2798  0.3597 -0.0435
  401MOL0     C54020   1.668   4.267  -0.499  0.7599  0.7436 -0.2370
  401MOL0     C54021   1.538   4.352  -0.460  0.4969 -0.6946  0.3841
  401MOL0     C54022   1.566   4.502  -0.470  0.3660  0.0292 -0.0074
  401MOL0     C54023   1.439   4.583  -0.442  0.3860 -0.0269 -0.6853
  401MOL0     O54024   1.333   4.536  -0.534  0.6465 -0.3388 -0.5984
  401MOL0     C54025   1.205   4.568  -0.507  0.3932 -0.2861 -0.4272
  401MOL0     C54026   1.115   4.547  -0.603  0.3754 -0.0196  0.5934
  401MOL0     C54027   0.977   4.574  -0.590  0.5100  0.5430 -0.5237
  401MOL0     C54028   0.895   4.538  -0.711  0.1924  0.1253  0.5102
  401MOL0     C54029   0.933   4.630  -0.468 -0.3783 -0.3712  0.7982
  401MOL0     C54030   0.790   4.653  -0.435  0.6837  0.0936 -0.2343
  401MOL0     O54031   0.695   4.602  -0.524  0.1231 -0.8881 -0.4036
  401MOL0     C54032   0.554   4.602  -0.496  0.2195 -0.2813  0.2955
  401MOL0     C54033   0.489   4.649  -0.381  0.7565  0.6686 -0.4595
  401MOL0     C54034   0.350   4.631  -0.369 -0.3844  0.8027  0.5401
  401MOL0     C54035   0.276   4.563  -0.469 -0.1837 -0.8479  0.1217
  401MOL0     O54036   0.142   4.539  -0.439 -0.1923 -0.1188 -0.5359
  401MOL0     C54037   0.058   4.537  -0.559  0.1534  0.1306  0.0330
  401MOL0     C54038  -0.087   4.538  -0.526  1.0943  0.0007 -1.0732
  401MOL0     C54039  -0.187   4.514  -0.641 -0.4589  0.1062  0.0133
  401MOL0     C54040  -0.333   4.518  -0.577 -0.1346  0.7992 -0.5200
  401MOL0     C54041  -0.427   4.470  -0.683  0.0375  0.1796  0.5840
  401MOL0     C54042  -0.568   4.444  -0.623 -0.8227  0.1584  0.3422
  401MOL0     C54043  -0.683   4.410  -0.715  0.0872  0.1796  0.1847
  401MOL0     C54044  -0.787   4.334  -0.642  0.2685 -0.7221  0.8228
  401MOL0    Cl54045  -0.944   4.337  -0.739  0.0555  0.4599  0.1912
  401MOL0     C54046   0.338   4.520  -0.583  0.2275  0.5933  0.1871
  401MOL0     C54047   0.472   4.539  -0.598 -0.3017  0.3469  0.0321
  401MOL0     O54048   0.769   4.735  -0.346  0.1099  0.3663  0.4466
  401MOL0     C54049   1.032   4.659  -0.372  0.8213  0.5911 -0.1059
  401MOL0     C54050   1.159   4.632  -0.392 -0.1943 -0.6017  0.2722
  401MOL0     N54051   1.744   4.201  -0.264  0.1985 -1.1249 -0.5656
  401MOL0     N54052   1.851   4.224  -0.189  0.3113 -0.3113  0.3175
  401MOL0     C54053   3.169   4.441   0.119 -0.1472 -0.2465 -1.4065
  401MOL0     C54054   3.295   4.396   0.115 -0.1670  0.1199  0.2440
  401MOL0     C54055   3.707   4.281  -0.028  0.0260  0.3007  0.3063
  401MOL0     C54056   3.839   4.312   0.029  0.0801 -0.4404  0.4037
  401MOL0     C54057   3.954   4.260  -0.027  0.3418  0.5663 -0.5190
  401MOL0     C54058   3.947   4.161  -0.130  0.3816 -1.0621  0.7393
  401MOL0     O54059   4.054   4.085  -0.166 -0.5144 -0.1192  0.5927
  401MOL0     C54060   4.190   4.114  -0.120  0.2576 -0.5333  0.8387
  401MOL0     C54061   4.292   4.007  -0.157  0.0298 -0.5837  0.7471
  401MOL0     C54062   4.428   4.076  -0.150 -0.7841  1.1668 -0.9642
  401MOL0     C54063   4.549   3.976  -0.152 -0.1194 -0.7046 -0.1498
  401MOL0     C54064   4.544   3.889  -0.274 -0.1222  0.2053 -0.8433
  401MOL0     C54065   4.554   3.827  -0.379  0.2257  1.0543 -0.0523
  401MOL0     C54066   3.825   4.130  -0.183  0.3042 -0.6385 -0.0055
  401MOL0     C54067   3.706   4.188  -0.136 -0.3301 -0.2294 -0.4071
  401MOL0     H54068   3.290   4.257  -0.198  1.9783 -1.6676  1.4889
  401MOL0     H54069   3.054   4.333  -0.175 -1.3800 -0.8823  0.2318
  401MOL0     H54070   2.877   4.417  -0.155 -1.3838 -0.6887  0.2266
  401MOL0     H54071   2.797   4.326  -0.026  0.4094 -0.9164  0.9462
  401MOL0     H54072   2.688   4.539   0.072  0.2841  4.6664  0.1998
  401MOL0     H54073   2.770   4.631  -0.050 -0.3325  1.2440  0.7538
  401MOL0     H54074   2.640   4.554  -0.220  1.7871 -0.6882 -0.3798
  401MOL0     H54075   2.626   4.390  -0.152  0.8148  1.1775 -1.3720
  401MOL0     H54076   2.457   4.482   0.011  0.0916  2.5135  0.6762
  401MOL0     H54077   2.472   4.633  -0.051 -0.1908  0.5786 -0.0963
  401MOL0     H54078   2.389   4.590  -0.265  0.7971 -2.4063 -2.3091
  401MOL0     H54079   2.362   4.415  -0.238  1.1976 -1.4511  2.8022
  401MOL0     H54080   2.210   4.484  -0.038 -0.3994  2.7639  1.9334
  401MOL0     H54081   2.219   4.645  -0.111 -1.4020 -0.3631  0.5477
  401MOL0     H54082   2.022   4.552  -0.192 -0.3007  0.0910 -0.8361
  401MOL0     H54083   2.122   4.518  -0.327  0.4973 -1.1748  0.6344
  401MOL0     H54084   2.109   4.301  -0.117  0.2017 -1.1035 -0.9186
  401MOL0     H54085   2.154   4.295  -0.284  1.0700  1.9697 -1.4446
  401MOL0     H54086   1.920   4.396  -0.470  0.9202 -0.9334 -0.5382
  401MOL0     H54087   1.710   4.309  -0.591  2.9196  0.8958  0.7423
  401MOL0     H54088   1.630   4.166  -0.518 -2.4563  2.1695 -2.3210
  401MOL0     H54089   1.505   4.329  -0.358  0.6271  0.6911  0.7653
  401MOL0     H54090   1.450   4.330  -0.520  0.4042  0.7976 -0.0748
  401MOL0     H54091   1.618   4.522  -0.565  1.2476  0.5255  0.5662
  401MOL0     H54092   1.643   4.537  -0.401 -1.2740  1.5598  1.1539
  401MOL0     H54093   1.460   4.690  -0.456 -2.9164  0.8073 -0.0866
  401MOL0     H54094   1.408   4.558  -0.340  0.5292 -0.7318 -0.8089
  401MOL0     H54095   1.146   4.503  -0.697  1.1432  0.0849  0.7894
  401MOL0     H54096   0.958   4.508  -0.795 -0.4067  1.7605 -0.5550
  401MOL0     H54097   0.828   4.452  -0.700 -2.4752  2.2667  2.5652
  401MOL0     H54098   0.835   4.625  -0.738  0.4361  0.7943  2.0157
  401MOL0     H54099   0.549   4.678  -0.295 -0.0747  1.0282  0.0091
  401MOL0     H54100   0.299   4.663  -0.278  0.0528  1.1282  0.6744
  401MOL0     H54101   0.079   4.615  -0.633 -1.7492 -1.2559 -2.1018
  401MOL0     H54102   0.073   4.443  -0.614  0.3562 -0.5634  1.2519
  401MOL0     H54103  -0.108   4.451  -0.463 -0.5984  0.3358 -1.1330
  401MOL0     H54104  -0.108   4.629  -0.468 -0.9528 -0.9316 -0.2391
  401MOL0     H54105  -0.183   4.415  -0.686 -0.4147  0.9096 -1.8604
  401MOL0     H54106  -0.163   4.583  -0.723  0.8074 -0.9029 -0.4984
  401MOL0     H54107  -0.344   4.453  -0.490 -0.7192  0.7631 -0.6147
  401MOL0     H54108  -0.359   4.617  -0.539  0.8733  1.1678 -0.7590
  401MOL0     H54109  -0.388   4.380  -0.734  0.6153  0.8064 -0.1126
  401MOL0     H54110  -0.442   4.552  -0.754  0.6645 -0.0208  0.2117
  401MOL0     H54111  -0.555   4.357  -0.558  0.0267 -0.6965 -0.9148
  401MOL0     H54112  -0.593   4.539  -0.575  3.4945  2.3623 -1.2009
  401MOL0     H54113  -0.638   4.357  -0.800 -0.3994  2.1541 -1.3775
  401MOL0     H54114  -0.726   4.502  -0.756  2.0484  0.7128 -0.8033
  401MOL0     H54115  -0.811   4.375  -0.544 -1.8846 -1.5916  0.7247
  401MOL0     H54116  -0.746   4.235  -0.617  2.1905  0.4908  2.7479
  401MOL0     H54117   0.284   4.468  -0.663  0.3664  0.9008 -0.1067
  401MOL0     H54118   0.517   4.503  -0.690 -1.4606 -2.2135  0.3635
  401MOL0     H54119   1.010   4.697  -0.273 -0.1817 -0.1365 -0.0292
  401MOL0     H54120   1.223   4.658  -0.308  0.6778  0.5810 -0.7389
  401MOL0     H54121   3.144   4.495   0.210  1.1766  0.6004 -1.5170
  401MOL0     H54122   3.362   4.421   0.197  1.6821  3.3237 -2.0016
  401MOL0     H54123   3.852   4.371   0.119  1.3368  0.2841 -0.2308
  401MOL0     H54124   4.050   4.283   0.019  0.4235  1.4809 -1.1084
  401MOL0     H54125   4.218   4.217  -0.144 -1.4879 -0.5191 -1.5178
  401MOL0     H54126   4.182   4.115  -0.011 -1.5349 -1.9969  0.7581
  401MOL0     H54127   4.267   3.974  -0.259  1.4142  0.6561 -0.0299
  401MOL0     H54128   4.280   3.931  -0.079  0.9401  0.1863  1.6663
  401MOL0     H54129   4.440   4.128  -0.055 -0.2022 -1.3201  0.4084
  401MOL0     H54130   4.442   4.144  -0.234  0.2727  0.0175 -1.7542
  401MOL0     H54131   4.545   3.909  -0.066  0.0170 -0.0994  0.3376
  401MOL0     H54132   4.640   4.038  -0.148 -1.0914  0.7489  2.6412
  401MOL0     H54133   4.552   3.770  -0.469 -1.7487  1.5902 -0.4100
  401MOL0     H54134   3.822   4.047  -0.253 -0.1426 -2.0518  1.6334
  401MOL0     H54135   3.608   4.160  -0.173 -0.7652 -1.3237  1.4394
  402MOL0     O54136   1.926   5.266   9.338 -1.0553 -0.0904 -0.1573
  402MOL0     C54137   1.991   5.208   9.427  0.6721 -0.1934  0.3046
  402MOL0     O54138   1.933   5.171   9.550  0.2798  0.3080  0.9520
  402MOL0     C54139   1.797   5.165   9.560  0.0419 -0.1616  0.5491
  402MOL0     C54140   1.708   5.146   9.453  0.7050  0.9823 -0.3810
  402MOL0     C54141   1.570   5.152   9.476 -0.2985  0.0899 -0.2443
  402MOL0     C54142   1.526   5.185   9.606 -0.7162  0.3787  0.5060
  402MOL0     O54143   1.390   5.188   9.629 -0.3915  0.1758 -1.0759
  402MOL0     C54144   1.338   5.318   9.616 -0.2759 -0.3861 -0.2890
  402MOL0     C54145   1.188   5.333   9.603 -0.0258 -0.1531  0.4504
  402MOL0     C54146   1.135   5.259   9.474  0.5290 -0.2557 -0.1405
  402MOL0     C54147   0.988   5.302   9.459 -0.4614 -0.1708  0.0325
  402MOL0     C54148   0.910   5.224   9.352  0.1175  0.1834 -0.1703
  402MOL0     C54149   0.798   5.309   9.308  1.1108 -0.4856  0.0064
  402MOL0     C54150   0.696   5.219   9.228  0.0191 -0.5864  0.2770
  402MOL0     C54151   0.618   5.115   9.312  0.1232 -0.4075  0.0037
  402MOL0     N54152   0.573   5.166   9.440 -0.3479  0.7502  0.2098
  402MOL0     C54153   0.471   5.257   9.460  0.0530 -0.0066  0.1373
  402MOL0     C54154   0.454   5.262   9.589  0.4644 -0.5727 -1.0229
  402MOL0     C54155   0.357   5.366   9.649  0.3774  0.4517 -0.0682
  402MOL0     C54156   0.208   5.336   9.614  0.1801 -0.0457 -0.7401
  402MOL0     C54157   0.162   5.199   9.663  0.4561 -0.7868 -0.2593
  402MOL0     C54158   0.009   5.182   9.653  0.6991  0.2771 -0.3865
  402MOL0     O54159  -0.063   5.234   9.766 -0.3883 -0.0662 -0.2451
  402MOL0     C54160  -0.191   5.205   9.781 -0.4765 -0.6124  0.3879
  402MOL0     C54161  -0.236   5.218   9.911  0.2502  0.2457  0.4899
  402MOL0     C54162  -0.362   5.166   9.958 -0.1609 -0.5132 -0.7303
  402MOL0     C54163  -0.386   5.179  10.109  0.3652 -0.9067 -0.7286
  402MOL0     C54164  -0.448   5.122   9.858 -0.2132 -0.1196 -0.0051
  402MOL0     C54165  -0.591   5.089   9.891 -0.8723  0.2931 -0.2954
  402MOL0     O54166  -0.660   5.029   9.794  0.2209 -0.3248  0.3745
  402MOL0     C54167  -0.791   4.987   9.827 -0.8532  0.1935  0.1354
  402MOL0     C54168  -0.894   5.061   9.886 -0.7273 -0.3870 -0.1438
  402MOL0     C54169  -1.024   5.009   9.913 -0.5582 -0.1780 -0.7424
  402MOL0     C54170  -1.055   4.877   9.876 -0.3882 -0.8312 -0.1491
  402MOL0     O54171  -1.151   4.813   9.948  0.4327 -0.1179 -0.3580
  402MOL0     C54172  -1.205   4.686   9.911 -0.2610  0.3857  0.5932
  402MOL0     C54173  -1.301   4.652  10.026  0.6177  0.1937  0.2623
  402MOL0     C54174  -1.388   4.531   9.985 -0.1485  0.6273 -0.5065
  402MOL0     C54175  -1.484   4.484  10.098 -1.4353 -0.1471  0.4375
  402MOL0     C54176  -1.608   4.569  10.103  0.3243 -0.1230  0.0887
  402MOL0     C54177  -1.723   4.481  10.147  0.7913  0.2348  0.2069
  402MOL0     C54178  -1.844   4.558  10.191  0.5526 -0.4199 -0.2999
  402MOL0     C54179  -1.964   4.472  10.241 -0.3565 -0.8993  0.8556
  402MOL0    Cl54180  -2.064   4.411  10.102 -0.2250 -0.2293 -0.2810
  402MOL0     C54181  -0.950   4.804   9.816  0.7253  0.8715 -0.2260
  402MOL0     C54182  -0.826   4.860   9.789 -0.1455  0.6200 -0.0068
  402MOL0     O54183  -0.634   5.121  10.002  0.6207  0.1581 -0.1546
  402MOL0     C54184  -0.408   5.139   9.724  0.6532  0.3673  0.1017
  402MOL0     C54185  -0.278   5.169   9.682  0.2725 -0.2232  0.1789
  402MOL0     N54186   0.532   5.164   9.653 -0.1428 -0.7960  0.1330
  402MOL0     N54187   0.606   5.109   9.559  0.2958 -0.6678 -0.2844
  402MOL0     C54188   1.608   5.203   9.715 -0.4986 -0.2037 -0.4355
  402MOL0     C54189   1.749   5.184   9.692  0.0820 -0.0717 -0.1870
  402MOL0     C54190   2.138   5.190   9.409  0.6112  0.1455  0.2693
  402MOL0     C54191   2.211   5.107   9.499  0.5899 -0.1606 -0.1699
  402MOL0     C54192   2.352   5.098   9.489 -0.6352  0.6979  0.5761
  402MOL0     C54193   2.425   5.157   9.390 -0.3870 -0.6773  0.2492
  402MOL0     O54194   2.563   5.162   9.390 -0.6480 -0.0901  0.0690
  402MOL0     C54195   2.640   5.238   9.293 -0.1312  0.0139  0.2988
  402MOL0     C54196   2.788   5.239   9.343 -0.2653 -1.2732 -0.2931
  402MOL0     C54197   2.862   5.367   9.293  0.0798 -0.5706  0.3510
  402MOL0     C54198   3.002   5.361   9.337 -0.0609  0.2426 -0.3339
  402MOL0     C54199   3.073   5.477   9.298  0.8759 -0.5813  0.2726
  402MOL0     C54200   3.155   5.566   9.267  0.3709  0.2434  0.2691
  402MOL0     C54201   2.350   5.235   9.298 -0.1208  0.8306 -0.5390
  402MOL0     C54202   2.210   5.253   9.306 -0.7568  0.0570 -1.0922
  402MOL0     H54203   1.726   5.128   9.348 -1.6980 -3.0890 -0.3010
  402MOL0     H54204   1.514   5.131   9.386 -0.9560  0.5311  0.0529
  402MOL0     H54205   1.359   5.374   9.708  0.4589 -1.5549  0.2760
  402MOL0     H54206   1.393   5.370   9.537 -0.8965 -2.4037 -2.1470
  402MOL0     H54207   1.146   5.299   9.698 -1.6566  2.8884  0.9396
  402MOL0     H54208   1.162   5.438   9.589 -0.3150 -0.2997 -0.1183
  402MOL0     H54209   1.190   5.282   9.383  0.7855  1.0398  0.3147
  402MOL0     H54210   1.141   5.152   9.497  1.1297 -0.4406 -1.0957
  402MOL0     H54211   0.936   5.289   9.554 -0.1151 -2.0649  0.0124
  402MOL0     H54212   0.997   5.405   9.425 -1.7179 -0.3081 -0.7951
  402MOL0     H54213   0.983   5.200   9.275  0.4277  0.5604  0.0001
  402MOL0     H54214   0.880   5.128   9.394 -0.7806  0.4749 -0.1140
  402MOL0     H54215   0.757   5.349   9.401  1.0106  0.4611 -0.4386
  402MOL0     H54216   0.832   5.391   9.245 -1.6221  1.0372  0.3480
  402MOL0     H54217   0.626   5.289   9.181  0.0222 -1.1759 -0.6328
  402MOL0     H54218   0.751   5.169   9.148  0.0530 -2.7634  1.5713
  402MOL0     H54219   0.678   5.024   9.316  0.5820 -0.0742  3.6584
  402MOL0     H54220   0.531   5.080   9.255  0.2003  0.5823 -0.7474
  402MOL0     H54221   0.417   5.319   9.389 -0.2789  0.9547  1.1989
  402MOL0     H54222   0.366   5.363   9.758  0.2951 -1.7916 -0.0748
  402MOL0     H54223   0.380   5.469   9.620  1.3840  0.5545  1.0260
  402MOL0     H54224   0.203   5.348   9.506  2.6729  1.8276 -0.7224
  402MOL0     H54225   0.144   5.414   9.657  1.1784 -0.4293  1.5732
  402MOL0     H54226   0.200   5.191   9.765  0.2580 -0.2386 -0.1415
  402MOL0     H54227   0.200   5.114   9.606  0.7979  0.0398 -1.2960
  402MOL0     H54228  -0.013   5.075   9.640 -1.6354  0.6844 -0.1563
  402MOL0     H54229  -0.030   5.217   9.557 -1.3558  2.7100  1.2126
  402MOL0     H54230  -0.163   5.258   9.980 -1.8900  1.4454  2.1784
  402MOL0     H54231  -0.469   5.243  10.140  3.0987  2.7726 -0.3087
  402MOL0     H54232  -0.388   5.078  10.151 -0.4312 -1.7581 -2.6798
  402MOL0     H54233  -0.306   5.230  10.163 -0.3860 -1.1423  0.6483
  402MOL0     H54234  -0.865   5.164   9.908  0.9385 -0.8900  0.1366
  402MOL0     H54235  -1.082   5.075   9.977  3.6479  0.1373  3.3330
  402MOL0     H54236  -1.260   4.690   9.816  0.5373 -3.0895 -0.1726
  402MOL0     H54237  -1.134   4.603   9.921 -1.5998 -0.8913 -0.1312
  402MOL0     H54238  -1.237   4.633  10.112  1.2797  1.2915  0.0398
  402MOL0     H54239  -1.357   4.743  10.052  3.5603  1.5927  2.3209
  402MOL0     H54240  -1.320   4.450   9.959 -0.1014  0.7030 -0.6197
  402MOL0     H54241  -1.444   4.557   9.895  1.7809 -2.2349 -2.6999
  402MOL0     H54242  -1.519   4.380  10.094  1.0339 -1.1196  1.7903
  402MOL0     H54243  -1.426   4.485  10.191 -0.2861  0.3054 -0.2693
  402MOL0     H54244  -1.634   4.619  10.009  0.5927 -0.0368  0.0608
  402MOL0     H54245  -1.594   4.652  10.172 -1.0843  0.8793 -0.7523
  402MOL0     H54246  -1.749   4.409  10.069  1.9389 -2.2275  1.9667
  402MOL0     H54247  -1.698   4.422  10.237 -1.2353  0.6271  1.0842
  402MOL0     H54248  -1.875   4.619  10.105  1.3622  1.9034  1.0009
  402MOL0     H54249  -1.812   4.624  10.271 -0.8683 -1.3439  1.0781
  402MOL0     H54250  -2.033   4.534  10.298 -1.9857 -0.4742 -1.4402
  402MOL0     H54251  -1.929   4.389  10.303  1.7132  1.1429  2.5897
  402MOL0     H54252  -0.948   4.699   9.789  1.1981  1.1160 -1.1748
  402MOL0     H54253  -0.745   4.802   9.746 -0.1412  0.6257 -0.0070
  402MOL0     H54254  -0.485   5.123   9.649  1.5279  0.8658 -0.9401
  402MOL0     H54255  -0.249   5.179   9.578 -1.8809 -1.6043 -0.6166
  402MOL0     H54256   1.571   5.228   9.814  0.9341  1.3804 -0.2503
  402MOL0     H54257   1.817   5.204   9.774 -0.5980  1.1586  0.0990
  402MOL0     H54258   2.163   5.043   9.571  2.6203  1.5261  2.9079
  402MOL0     H54259   2.396   5.030   9.562 -0.6601 -1.9722 -1.7278
  402MOL0     H54260   2.623   5.196   9.194 -3.3219 -0.1726  0.8058
  402MOL0     H54261   2.599   5.339   9.295  1.2215  0.5672  0.7586
  402MOL0     H54262   2.837   5.146   9.309  3.2815  0.4957 -0.5048
  402MOL0     H54263   2.791   5.235   9.452  0.7180 -0.8339 -0.2886
  402MOL0     H54264   2.820   5.458   9.337  0.7096  1.8377 -3.5300
  402MOL0     H54265   2.846   5.392   9.187 -3.8025  2.2779  1.3673
  402MOL0     H54266   3.053   5.274   9.295  2.5190  1.3779  0.2816
  402MOL0     H54267   3.022   5.347   9.444  0.7376 -5.0816 -0.8773
  402MOL0     H54268   3.237   5.632   9.246  0.0395  0.8065  0.7047
  402MOL0     H54269   2.401   5.293   9.221  0.6948  1.1171  0.2044
  402MOL0     H54270   2.163   5.318   9.233  1.4483  3.6509  0.4192
  403MOL0     O54271   1.531   0.941   7.945  0.2539  0.7081  0.4575
  403MOL0     C54272   1.602   1.006   7.864  0.5840  0.1947  0.6186
  403MOL0     O54273   1.575   1.029   7.735 -0.0553  0.4179  0.0926
  403MOL0     C54274   1.454   0.980   7.696 -0.5357  0.8754  0.2806
  403MOL0     C54275   1.432   0.847   7.685 -0.2194 -0.4432 -1.0883
  403MOL0     C54276   1.316   0.799   7.616 -0.6994  0.5833 -0.3942
  403MOL0     C54277   1.220   0.886   7.570  0.3140  0.1060  0.8809
  403MOL0     O54278   1.104   0.823   7.518 -0.8638 -0.0867  0.7524
  403MOL0     C54279   1.006   0.903   7.444  0.5012 -0.1567 -0.4007
  403MOL0     C54280   0.931   0.816   7.341 -0.4149 -0.7096  0.7081
  403MOL0     C54281   0.844   0.701   7.404  0.5443  0.4098  1.5130
  403MOL0     C54282   0.738   0.648   7.302  0.1244  0.4809 -0.0715
  403MOL0     C54283   0.644   0.536   7.351  0.0880  0.1423  0.1122
  403MOL0     C54284   0.572   0.467   7.233 -0.1890  0.1241 -0.0645
  403MOL0     C54285   0.452   0.382   7.268 -0.7524 -0.2543  0.2249
  403MOL0     C54286   0.394   0.321   7.140  0.6094  0.0220 -0.6416
  403MOL0     N54287   0.255   0.282   7.167 -0.1963 -0.2290  0.2897
  403MOL0     C54288   0.221   0.186   7.263  0.5435 -0.0939 -0.3419
  403MOL0     C54289   0.084   0.188   7.247 -0.3727 -0.1815 -0.7498
  403MOL0     C54290  -0.017   0.099   7.313 -0.1201  0.0214  0.7113
  403MOL0     C54291  -0.113   0.177   7.407 -0.7486  0.7777  0.1067
  403MOL0     C54292  -0.237   0.240   7.339  0.0326  0.1991 -0.4597
  403MOL0     C54293  -0.309   0.342   7.438  0.7384  0.5279 -0.0460
  403MOL0     O54294  -0.345   0.291   7.568 -0.2408  0.6026 -0.0474
  403MOL0     C54295  -0.477   0.270   7.604  1.0107 -0.2013  0.0417
  403MOL0     C54296  -0.581   0.229   7.518  1.2880  0.0545  0.2769
  403MOL0     C54297  -0.712   0.208   7.566 -0.7709  0.4353  0.2602
  403MOL0     C54298  -0.820   0.162   7.470 -0.1975  0.2027  0.2191
  403MOL0     C54299  -0.743   0.221   7.700  0.1733 -1.0602 -0.1246
  403MOL0     C54300  -0.878   0.201   7.755  0.5508 -0.0245  0.4380
  403MOL0     O54301  -0.919   0.279   7.857  0.5103  0.7184  0.5948
  403MOL0     C54302  -1.046   0.256   7.911  0.2745 -0.3362 -0.7489
  403MOL0     C54303  -1.160   0.312   7.847 -0.6701 -0.2119  0.1919
  403MOL0     C54304  -1.281   0.291   7.895  0.8778  0.5141 -0.0915
  403MOL0     C54305  -1.294   0.221   8.019  0.0622  0.5648 -0.0050
  403MOL0     O54306  -1.415   0.194   8.083 -0.3562  0.7407  0.3129
  403MOL0     C54307  -1.531   0.263   8.044 -0.5938  0.0264  0.5276
  403MOL0     C54308  -1.645   0.239   8.141  0.0690 -0.2718  0.8437
  403MOL0     C54309  -1.769   0.317   8.100  0.3306 -0.6242 -0.7072
  403MOL0     C54310  -1.880   0.259   8.193 -0.5139  0.3955  0.6208
  403MOL0     C54311  -2.000   0.348   8.185 -0.4286 -0.2556  0.1426
  403MOL0     C54312  -2.127   0.289   8.242  0.6118 -0.1592  0.2361
  403MOL0     C54313  -2.129   0.259   8.388 -0.1936  0.0995 -1.1539
  403MOL0     C54314  -2.258   0.191   8.441 -0.2967 -0.9247 -0.3620
  403MOL0    Cl54315  -2.256   0.017   8.414 -0.2806  0.2481  0.1323
  403MOL0     C54316  -1.184   0.184   8.094  0.1533  0.0017 -0.1280
  403MOL0     C54317  -1.063   0.201   8.037 -0.2641  0.4010 -0.1672
  403MOL0     O54318  -0.939   0.104   7.714 -0.5233 -0.5780  0.5804
  403MOL0     C54319  -0.644   0.282   7.783  0.4043  0.1026 -0.2615
  403MOL0     C54320  -0.514   0.298   7.740 -1.0449 -0.4896 -0.6781
  403MOL0     N54321   0.050   0.281   7.156 -0.4728 -0.1475  0.2687
  403MOL0     N54322   0.147   0.336   7.101  0.5453  0.3191  0.1354
  403MOL0     C54323   1.238   1.022   7.594  0.1226 -0.1242 -0.1078
  403MOL0     C54324   1.356   1.064   7.657 -0.0606 -1.2365  0.1142
  403MOL0     C54325   1.722   1.062   7.913 -0.6990  0.0479 -0.0369
  403MOL0     C54326   1.831   1.067   7.828  0.0777  0.7296 -1.0680
  403MOL0     C54327   1.953   1.120   7.863 -0.2541 -0.4461 -1.0312
  403MOL0     C54328   1.969   1.177   7.983 -0.0589 -0.1585 -0.2116
  403MOL0     O54329   2.090   1.233   8.005 -0.2640  0.2974 -0.4068
  403MOL0     C54330   2.107   1.318   8.116 -0.8829 -0.4827  1.2327
  403MOL0     C54331   2.242   1.401   8.094 -0.4243  0.2181  0.6988
  403MOL0     C54332   2.372   1.323   8.086  0.6867 -0.7337 -0.8729
  403MOL0     C54333   2.491   1.418   8.105  0.0652  0.0816  0.1605
  403MOL0     C54334   2.615   1.346   8.097  0.1764  0.2090 -0.4135
  403MOL0     C54335   2.716   1.281   8.084 -0.4358 -1.2034  0.0574
  403MOL0     C54336   1.866   1.170   8.079  0.5171 -0.4241 -0.4560
  403MOL0     C54337   1.742   1.110   8.040 -0.4245 -0.8019 -0.0437
  403MOL0     H54338   1.494   0.775   7.736 -0.5114 -0.6899 -1.0811
  403MOL0     H54339   1.293   0.698   7.583 -2.3467  0.0517  2.0664
  403MOL0     H54340   0.937   0.945   7.518 -0.8744 -0.7884 -1.2826
  403MOL0     H54341   1.048   0.982   7.382 -1.2455  0.3670 -0.9742
  403MOL0     H54342   0.857   0.873   7.285 -2.4382 -3.8713 -0.0522
  403MOL0     H54343   0.999   0.774   7.266 -1.5797 -0.8838 -0.2872
  403MOL0     H54344   0.909   0.619   7.437 -0.7701 -1.0331  0.6619
  403MOL0     H54345   0.797   0.739   7.496 -1.7757  2.8733 -0.5404
  403MOL0     H54346   0.674   0.724   7.256  0.1031 -0.1078 -1.0406
  403MOL0     H54347   0.797   0.607   7.219  0.3117 -0.0589  0.3200
  403MOL0     H54348   0.699   0.465   7.413  1.0979  0.3865 -0.4892
  403MOL0     H54349   0.583   0.588   7.425 -0.3115 -1.3347  0.8550
  403MOL0     H54350   0.534   0.547   7.169 -0.1249 -0.2726 -0.6098
  403MOL0     H54351   0.634   0.401   7.171 -0.5864 -0.2190 -0.1032
  403MOL0     H54352   0.500   0.307   7.332 -1.0193  1.1240  2.1448
  403MOL0     H54353   0.379   0.439   7.326 -0.3648 -0.4621  0.9306
  403MOL0     H54354   0.458   0.237   7.111  0.5488  0.6921 -2.8859
  403MOL0     H54355   0.401   0.396   7.061  1.0615  3.0307  2.0497
  403MOL0     H54356   0.293   0.123   7.314  2.1014 -0.2886 -2.5969
  403MOL0     H54357  -0.072   0.051   7.232 -0.8634 -1.3801  1.9850
  403MOL0     H54358   0.030   0.024   7.377 -1.3438 -0.5465  0.9841
  403MOL0     H54359  -0.067   0.261   7.459 -0.8558  2.5068 -2.4389
  403MOL0     H54360  -0.143   0.103   7.482  1.2696 -3.0215 -2.5048
  403MOL0     H54361  -0.306   0.157   7.322 -0.7313  0.9932 -1.4173
  403MOL0     H54362  -0.207   0.285   7.243  0.9179 -1.1138 -0.8213
  403MOL0     H54363  -0.396   0.394   7.396  1.3384  1.1186 -0.5860
  403MOL0     H54364  -0.242   0.428   7.448  1.8303 -0.2570 -0.4207
  403MOL0     H54365  -0.552   0.208   7.416 -0.2196 -0.6922 -0.0303
  403MOL0     H54366  -0.854   0.060   7.489 -1.7850  0.4613 -0.9983
  403MOL0     H54367  -0.907   0.227   7.478  0.4104  1.0651  0.0221
  403MOL0     H54368  -0.786   0.168   7.366 -1.3687 -2.5304 -0.3990
  403MOL0     H54369  -1.138   0.358   7.751  1.3680 -1.1646  0.1433
  403MOL0     H54370  -1.371   0.309   7.837  1.4902  3.4729 -0.2841
  403MOL0     H54371  -1.515   0.371   8.053  2.7693 -0.2414 -0.6592
  403MOL0     H54372  -1.558   0.228   7.944 -1.3934  1.0246  0.3729
  403MOL0     H54373  -1.653   0.130   8.146 -2.5977 -0.1883 -0.3604
  403MOL0     H54374  -1.615   0.275   8.240  1.8117  2.3763 -0.5227
  403MOL0     H54375  -1.792   0.298   7.994  0.1561 -0.4752 -0.6962
  403MOL0     H54376  -1.745   0.423   8.114  0.3009 -0.9034  1.8169
  403MOL0     H54377  -1.916   0.167   8.147 -0.6035  0.0316  1.3997
  403MOL0     H54378  -1.843   0.240   8.294 -1.7570  0.1385  1.0445
  403MOL0     H54379  -2.019   0.383   8.083  0.6684  1.2305  0.4171
  403MOL0     H54380  -1.975   0.434   8.248 -1.3110  1.0744 -1.2560
  403MOL0     H54381  -2.214   0.351   8.223  0.2277 -1.2493 -1.8063
  403MOL0     H54382  -2.139   0.191   8.195 -1.2300  0.8798 -1.5597
  403MOL0     H54383  -2.130   0.357   8.437 -0.8871 -0.7116  0.5624
  403MOL0     H54384  -2.043   0.199   8.421 -0.8016 -1.7199 -2.7012
  403MOL0     H54385  -2.341   0.223   8.377  0.6655  0.4025 -0.9734
  403MOL0     H54386  -2.265   0.206   8.549 -2.2855 -2.6402 -0.1801
  403MOL0     H54387  -1.183   0.127   8.187 -0.1654 -1.7977 -1.1729
  403MOL0     H54388  -0.983   0.142   8.080 -3.4223 -3.3015  1.2116
  403MOL0     H54389  -0.668   0.313   7.885  1.1193 -0.3277  0.0468
  403MOL0     H54390  -0.435   0.349   7.795 -0.4628 -0.0101 -1.9175
  403MOL0     H54391   1.167   1.101   7.570  1.9921  0.2711 -6.0352
  403MOL0     H54392   1.375   1.170   7.672  0.8684 -0.6681 -3.7430
  403MOL0     H54393   1.811   1.019   7.732 -0.6185  0.5084 -0.8217
  403MOL0     H54394   2.032   1.118   7.788  0.0511 -2.5357 -0.7116
  403MOL0     H54395   2.026   1.389   8.138 -1.0722 -0.5566  0.7827
  403MOL0     H54396   2.120   1.246   8.197 -1.7614 -3.7550 -1.3228
  403MOL0     H54397   2.241   1.465   8.183 -1.1110 -1.1331  1.6958
  403MOL0     H54398   2.232   1.458   8.001  1.1368 -0.1481  0.2742
  403MOL0     H54399   2.369   1.267   7.993  0.5230 -3.0376  0.4371
  403MOL0     H54400   2.390   1.254   8.169  2.1665  1.9662  1.2621
  403MOL0     H54401   2.462   1.461   8.201 -1.7614 -1.1622  0.2165
  403MOL0     H54402   2.492   1.498   8.031 -1.2247 -0.2986 -0.2970
  403MOL0     H54403   2.806   1.223   8.085 -0.3462 -1.1680  3.1856
  403MOL0     H54404   1.886   1.213   8.177 -2.3578 -0.4959  0.2529
  403MOL0     H54405   1.665   1.123   8.115  0.4535 -2.8213  1.3119
  404MOL0     O54406   8.566   7.524   1.174 -0.2838 -0.3427 -0.0299
  404MOL0     C54407   8.591   7.631   1.233  0.6013  0.0140  0.5519
  404MOL0     O54408   8.507   7.704   1.316 -0.0690  0.1737 -0.1896
  404MOL0     C54409   8.385   7.645   1.341 -0.1097 -0.0795  0.0197
  404MOL0     C54410   8.271   7.715   1.324  1.4479  0.1287 -0.3759
  404MOL0     C54411   8.142   7.663   1.359 -0.0146  0.3292  0.5807
  404MOL0     C54412   8.132   7.536   1.420  0.3156  0.2968  0.0472
  404MOL0     O54413   8.010   7.475   1.456 -0.0663 -0.1654 -0.9943
  404MOL0     C54414   7.886   7.548   1.425  0.9639  0.6332  0.4819
  404MOL0     C54415   7.767   7.459   1.482 -0.4377 -0.4500  0.4129
  404MOL0     C54416   7.636   7.466   1.395 -0.0390  0.1281 -0.5108
  404MOL0     C54417   7.529   7.367   1.436  0.3298  0.1899 -0.7314
  404MOL0     C54418   7.415   7.384   1.337 -0.0943 -0.2326 -1.3461
  404MOL0     C54419   7.348   7.516   1.357 -0.1079 -0.0441 -0.6935
  404MOL0     C54420   7.219   7.529   1.285  0.0254  1.2282 -0.1551
  404MOL0     C54421   7.101   7.429   1.329  0.1969 -1.1159  0.2960
  404MOL0     N54422   6.993   7.424   1.230  0.1578 -0.0448 -0.2720
  404MOL0     C54423   6.860   7.442   1.268 -0.1829  0.2869  0.5970
  404MOL0     C54424   6.791   7.357   1.178  0.0600  0.8437 -0.0024
  404MOL0     C54425   6.642   7.355   1.181 -0.0963  0.5077  0.2596
  404MOL0     C54426   6.587   7.269   1.071  0.4787  0.8787  0.0752
  404MOL0     C54427   6.598   7.339   0.943  0.3938  0.0370 -0.2520
  404MOL0     C54428   6.543   7.245   0.840 -0.5483  0.4870  0.5038
  404MOL0     O54429   6.401   7.231   0.835  0.2224  0.1266  0.1881
  404MOL0     C54430   6.331   7.181   0.716 -0.9889  0.4272  0.1043
  404MOL0     C54431   6.191   7.172   0.724 -0.3092 -0.6190 -0.2977
  404MOL0     C54432   6.118   7.137   0.614 -0.0921  0.0148 -0.2958
  404MOL0     C54433   5.969   7.157   0.625  0.2743  0.5102 -0.1115
  404MOL0     C54434   6.179   7.100   0.490 -0.3706 -0.6058 -0.3740
  404MOL0     C54435   6.109   7.059   0.364 -0.4696  0.3686  0.2914
  404MOL0     O54436   5.972   7.053   0.359 -0.2361  0.3960 -0.2501
  404MOL0     C54437   5.926   7.052   0.228  0.0290 -0.2055 -0.3983
  404MOL0     C54438   5.926   6.942   0.142 -0.2698  0.9707 -0.0164
  404MOL0     C54439   5.853   6.940   0.026 -1.6912 -0.1836  0.6156
  404MOL0     C54440   5.776   7.056  -0.010 -0.3365  0.2570 -0.0255
  404MOL0     O54441   5.700   7.042  -0.121  0.1382  0.3113 -0.0102
  404MOL0     C54442   5.570   7.099  -0.115  0.0220 -1.0530  1.2920
  404MOL0     C54443   5.493   7.025  -0.232  0.2782  0.0393 -0.2864
  404MOL0     C54444   5.356   7.098  -0.265 -0.1040 -0.0017 -0.0087
  404MOL0     C54445   5.286   7.046  -0.395 -0.4717  0.2447  0.3961
  404MOL0     C54446   5.153   7.125  -0.415  0.1189 -0.2695  0.4917
  404MOL0     C54447   5.040   7.065  -0.326  0.0939 -0.0982 -0.4759
  404MOL0     C54448   4.989   6.924  -0.361 -0.4315 -0.5892  0.2682
  404MOL0     C54449   4.903   6.870  -0.240  0.1661 -0.6362  0.1211
  404MOL0    Cl54450   4.995   6.814  -0.096 -0.2670  0.1643 -0.0144
  404MOL0     C54451   5.795   7.174   0.057 -0.1947 -0.5487 -0.9430
  404MOL0     C54452   5.870   7.173   0.179  0.3315  0.8726 -0.6993
  404MOL0     O54453   6.179   7.027   0.273  0.2844 -0.2506  0.3800
  404MOL0     C54454   6.323   7.100   0.496  0.4655 -0.1902 -0.4142
  404MOL0     C54455   6.399   7.131   0.607  0.4198 -0.9976 -0.1230
  404MOL0     N54456   6.881   7.289   1.100 -0.1358  0.6334  0.0200
  404MOL0     N54457   6.999   7.338   1.128  0.6653  0.3667  0.7013
  404MOL0     C54458   8.255   7.467   1.441  0.6973  0.5561  0.6743
  404MOL0     C54459   8.374   7.522   1.405 -0.0339 -0.3285 -0.5620
  404MOL0     C54460   8.718   7.693   1.203  0.0001  0.0200 -0.0871
  404MOL0     C54461   8.803   7.632   1.101  1.2531  0.3182  0.1132
  404MOL0     C54462   8.919   7.693   1.066 -0.5921 -0.3067 -0.6385
  404MOL0     C54463   8.973   7.799   1.135 -0.0625  1.1984 -0.2120
  404MOL0     O54464   9.098   7.847   1.094 -0.0188 -0.1118 -0.0398
  404MOL0     C54465   9.169   7.946   1.181 -0.3067  0.2462  0.1177
  404MOL0     C54466   9.142   8.094   1.152 -0.3080 -0.6749 -0.0958
  404MOL0     C54467   9.164   8.117   0.996 -0.5041  0.5524 -0.9413
  404MOL0     C54468   9.036   8.102   0.915 -0.3116  0.1659  0.6334
  404MOL0     C54469   9.076   8.097   0.769 -0.9312  0.8318  0.3874
  404MOL0     C54470   9.093   8.096   0.647 -0.1271  0.1042 -0.4912
  404MOL0     C54471   8.895   7.859   1.231 -0.2692  0.6412  0.0821
  404MOL0     C54472   8.767   7.807   1.264 -0.1239 -0.4948  0.1040
  404MOL0     H54473   8.261   7.810   1.272 -1.1496  0.1045 -0.0534
  404MOL0     H54474   8.054   7.722   1.335 -0.4774 -0.1080  1.1617
  404MOL0     H54475   7.886   7.644   1.478 -1.3135  2.0156 -1.7852
  404MOL0     H54476   7.884   7.563   1.317  2.1975 -1.9531  0.0286
  404MOL0     H54477   7.806   7.357   1.483  0.3006 -0.1858 -0.4205
  404MOL0     H54478   7.746   7.473   1.588  0.6849 -0.2770  0.6260
  404MOL0     H54479   7.598   7.567   1.409  0.3664  0.5427 -2.2252
  404MOL0     H54480   7.666   7.451   1.291  1.1128  1.4257 -0.3824
  404MOL0     H54481   7.563   7.263   1.427 -0.0550 -0.0651  0.5003
  404MOL0     H54482   7.506   7.385   1.542 -0.4967  1.2518 -1.0720
  404MOL0     H54483   7.461   7.388   1.237  0.3548  1.0549 -1.1127
  404MOL0     H54484   7.347   7.300   1.349  0.8338 -0.7613  0.4648
  404MOL0     H54485   7.327   7.541   1.461  1.2800  0.9338 -0.6241
  404MOL0     H54486   7.412   7.594   1.315  0.5182  0.5136  1.2415
  404MOL0     H54487   7.178   7.630   1.292  0.6495  1.5118 -0.4928
  404MOL0     H54488   7.234   7.500   1.180  0.5128  1.1663 -0.0690
  404MOL0     H54489   7.059   7.466   1.423  1.0277  1.6260 -0.3366
  404MOL0     H54490   7.135   7.325   1.338  0.5839 -0.8841  1.7926
  404MOL0     H54491   6.807   7.502   1.341 -3.0765 -3.8243  2.2646
  404MOL0     H54492   6.620   7.320   1.282  1.6821 -2.0999 -0.1288
  404MOL0     H54493   6.604   7.457   1.170 -1.1573  0.2359  1.2114
  404MOL0     H54494   6.486   7.250   1.107  0.8598  1.1737  1.3936
  404MOL0     H54495   6.639   7.172   1.066 -0.9257  0.0591  0.8438
  404MOL0     H54496   6.701   7.346   0.908 -0.3272 -1.8548 -3.0925
  404MOL0     H54497   6.538   7.430   0.930 -2.3101 -1.5841  0.1496
  404MOL0     H54498   6.580   7.143   0.857  1.2645  1.0132 -0.1508
  404MOL0     H54499   6.583   7.284   0.746 -0.8426 -0.4109 -0.0116
  404MOL0     H54500   6.137   7.184   0.817 -1.6604 -1.2785 -0.9734
  404MOL0     H54501   5.931   7.241   0.568 -2.3199 -0.0990  0.6126
  404MOL0     H54502   5.923   7.063   0.592  1.6604  0.3297 -1.6689
  404MOL0     H54503   5.941   7.170   0.730  1.9182  0.2762  0.3985
  404MOL0     H54504   5.965   6.850   0.184 -3.4562 -1.2395 -1.4904
  404MOL0     H54505   5.828   6.855  -0.036 -0.1632 -0.3917  0.2544
  404MOL0     H54506   5.522   7.079  -0.019 -0.8002 -2.0118  0.6977
  404MOL0     H54507   5.561   7.203  -0.146 -1.5855 -2.0913 -2.1279
  404MOL0     H54508   5.551   7.019  -0.324  0.2963 -1.0273 -0.2142
  404MOL0     H54509   5.483   6.922  -0.196 -0.4405 -0.6715 -2.3828
  404MOL0     H54510   5.388   7.200  -0.289 -3.4867  1.1065 -0.2612
  404MOL0     H54511   5.286   7.088  -0.182 -1.7191 -1.2048 -1.4512
  404MOL0     H54512   5.349   7.062  -0.483  0.5955 -0.6561  0.9678
  404MOL0     H54513   5.272   6.938  -0.379  2.9573 -0.3993 -0.1845
  404MOL0     H54514   5.113   7.102  -0.514 -0.8882 -1.0815  1.0580
  404MOL0     H54515   5.159   7.233  -0.397  1.1777 -0.4626  1.4279
  404MOL0     H54516   5.084   7.061  -0.225 -1.3925  1.2047  0.2635
  404MOL0     H54517   4.950   7.126  -0.321  1.1508  1.4664  0.6242
  404MOL0     H54518   5.068   6.851  -0.378 -0.1053 -0.1133 -0.3220
  404MOL0     H54519   4.920   6.931  -0.445 -1.3406 -2.6659  0.7879
  404MOL0     H54520   4.846   6.782  -0.269 -0.7948 -0.2436  0.7646
  404MOL0     H54521   4.847   6.952  -0.194  1.9126 -0.6937  2.5342
  404MOL0     H54522   5.751   7.269   0.030  1.1347  0.8811  1.5365
  404MOL0     H54523   5.863   7.258   0.246 -0.2058  0.8920 -0.7772
  404MOL0     H54524   6.387   7.074   0.413  0.8407  1.6113 -0.7399
  404MOL0     H54525   6.507   7.121   0.607  0.5296 -0.2503  1.6421
  404MOL0     H54526   8.258   7.366   1.480 -1.3652 -1.7573 -4.3263
  404MOL0     H54527   8.464   7.471   1.438 -0.7003  0.3334  2.6606
  404MOL0     H54528   8.768   7.553   1.037 -0.9790  0.6217  0.8818
  404MOL0     H54529   8.980   7.658   0.983  0.8206  0.2609  0.1260
  404MOL0     H54530   9.153   7.917   1.285 -2.5387 -1.9589 -0.7217
  404MOL0     H54531   9.273   7.915   1.166 -0.4930 -0.8228  0.9225
  404MOL0     H54532   9.216   8.165   1.191  1.1554 -1.8897 -0.5700
  404MOL0     H54533   9.040   8.120   1.181 -0.5526 -1.4721 -0.2277
  404MOL0     H54534   9.244   8.046   0.971  0.0352  0.5138  0.7448
  404MOL0     H54535   9.215   8.212   0.980  1.8582 -0.1842  1.5145
  404MOL0     H54536   8.959   8.179   0.924 -2.1351 -1.7123  1.8716
  404MOL0     H54537   8.984   8.008   0.932 -0.1059  0.1474  1.1502
  404MOL0     H54538   9.111   8.086   0.541  1.9913 -3.3322  0.0460
  404MOL0     H54539   8.933   7.942   1.290  3.0846  1.5058 -2.9563
  404MOL0     H54540   8.723   7.850   1.354  0.3448 -0.3429  0.2651
  405MOL0     O54541   6.071   2.172  11.227  1.0856  0.2527  0.1558
  405MOL0     C54542   6.114   2.262  11.296  0.0628  0.8356 -1.0012
  405MOL0     O54543   6.042   2.349  11.371  0.4758 -0.2928 -0.8273
  405MOL0     C54544   5.912   2.358  11.344  0.0987 -0.7680  0.8827
  405MOL0     C54545   5.827   2.250  11.358  0.3456 -0.2297 -0.5650
  405MOL0     C54546   5.688   2.257  11.332 -0.4230  0.4945  0.7816
  405MOL0     C54547   5.638   2.377  11.286  0.1541 -0.2824  0.6168
  405MOL0     O54548   5.513   2.380  11.243  0.5070  0.3797 -0.5452
  405MOL0     C54549   5.463   2.484  11.155 -1.1877 -0.5065  0.3450
  405MOL0     C54550   5.338   2.449  11.080 -0.5335 -0.7629 -0.7290
  405MOL0     C54551   5.219   2.441  11.170  0.3872  0.2814 -1.0076
  405MOL0     C54552   5.083   2.453  11.095  0.0517 -0.6196 -0.0901
  405MOL0     C54553   4.964   2.454  11.194  0.3410  0.4425  0.3979
  405MOL0     C54554   4.835   2.447  11.118  0.0971 -0.5558 -0.1133
  405MOL0     C54555   4.790   2.590  11.061  0.0792 -0.0736 -0.7799
  405MOL0     C54556   4.644   2.593  11.017  0.2800  0.8216 -0.0496
  405MOL0     N54557   4.556   2.629  11.125 -0.5563  0.2030 -0.0778
  405MOL0     C54558   4.509   2.533  11.221  0.7741  0.7762  0.2547
  405MOL0     C54559   4.404   2.588  11.277  0.4931 -0.0341  0.4896
  405MOL0     C54560   4.338   2.535  11.404 -0.6481 -0.5119  0.2290
  405MOL0     C54561   4.196   2.506  11.374 -0.3603  0.1938 -0.2330
  405MOL0     C54562   4.126   2.508  11.514  0.3402  0.6211  0.3743
  405MOL0     C54563   3.959   2.507  11.500  0.1184  0.1466  0.0257
  405MOL0     O54564   3.895   2.505  11.626  0.2163 -0.1585 -0.0161
  405MOL0     C54565   3.758   2.493  11.630 -0.1445 -0.4675  0.4712
  405MOL0     C54566   3.688   2.582  11.716 -0.2479  1.0150  1.0729
  405MOL0     C54567   3.552   2.583  11.736 -0.5021 -0.1310 -0.2252
  405MOL0     C54568   3.497   2.706  11.816  0.4705 -0.4425  0.3989
  405MOL0     C54569   3.471   2.483  11.672 -0.7642  0.4517  0.2201
  405MOL0     C54570   3.322   2.467  11.700 -0.3275  0.0736  0.1622
  405MOL0     O54571   3.265   2.382  11.610  0.2078  0.1550 -0.0329
  405MOL0     C54572   3.139   2.333  11.622  0.2221 -0.2165  0.2364
  405MOL0     C54573   3.040   2.371  11.523 -0.0774 -0.4889  0.2461
  405MOL0     C54574   2.913   2.315  11.540 -0.3298  0.8736 -0.1536
  405MOL0     C54575   2.886   2.224  11.636 -0.4049  0.3039 -0.4098
  405MOL0     O54576   2.761   2.173  11.650 -0.0079  0.1650 -0.2566
  405MOL0     C54577   2.747   2.032  11.640 -0.4161  1.0590 -1.2290
  405MOL0     C54578   2.742   1.999  11.488 -0.2060 -0.0472 -0.4813
  405MOL0     C54579   2.682   1.858  11.463  0.0082 -0.4261 -0.0263
  405MOL0     C54580   2.673   1.847  11.306 -0.3097 -0.7276  0.6337
  405MOL0     C54581   2.639   1.711  11.241  0.8472  0.3336 -0.1297
  405MOL0     C54582   2.497   1.663  11.291 -0.2022  0.5359  0.2507
  405MOL0     C54583   2.386   1.753  11.239  0.4300  0.0779 -0.1094
  405MOL0     C54584   2.252   1.670  11.265  0.1942 -0.3656 -0.1013
  405MOL0    Cl54585   2.115   1.725  11.159 -0.4961 -0.2041 -0.0424
  405MOL0     C54586   2.984   2.198  11.728  0.0418  0.4076  0.0356
  405MOL0     C54587   3.113   2.247  11.729 -0.9549  0.1627  0.0514
  405MOL0     O54588   3.264   2.516  11.791  0.5211  0.3680  0.3751
  405MOL0     C54589   3.543   2.403  11.584 -0.5023  0.0688 -0.0205
  405MOL0     C54590   3.679   2.397  11.566  0.0144 -0.1108  0.1361
  405MOL0     N54591   4.379   2.707  11.211 -0.5406 -0.1371  0.2958
  405MOL0     N54592   4.456   2.716  11.110  0.3490 -0.0907  0.1826
  405MOL0     C54593   5.726   2.480  11.263  0.5554  0.1931  0.4621
  405MOL0     C54594   5.865   2.479  11.298  0.2359  0.2715  0.9553
  405MOL0     C54595   6.265   2.257  11.324 -0.2618 -0.7928  0.0451
  405MOL0     C54596   6.361   2.170  11.265 -0.3483  0.1927 -0.0115
  405MOL0     C54597   6.488   2.158  11.311 -0.8201 -0.2423 -0.3994
  405MOL0     C54598   6.535   2.243  11.407 -0.7588  0.0278 -0.1601
  405MOL0     O54599   6.668   2.260  11.441 -0.0130  0.8697 -0.3571
  405MOL0     C54600   6.755   2.278  11.326 -0.7201 -0.5365 -1.0329
  405MOL0     C54601   6.894   2.307  11.354 -0.8489  0.5436  0.3490
  405MOL0     C54602   6.906   2.434  11.429 -0.1452 -0.4156 -0.5675
  405MOL0     C54603   7.048   2.433  11.482  0.5858  0.5037 -0.4726
  405MOL0     C54604   7.070   2.545  11.579  0.0634 -0.1169  0.2202
  405MOL0     C54605   7.089   2.643  11.650 -0.0067  0.6882 -0.4143
  405MOL0     C54606   6.442   2.329  11.465  0.5811  0.2748 -0.7049
  405MOL0     C54607   6.310   2.337  11.434 -0.0541 -0.0374 -0.2848
  405MOL0     H54608   5.879   2.158  11.382 -0.6723 -0.7934 -0.4791
  405MOL0     H54609   5.622   2.172  11.316  0.8678 -0.0948 -1.9983
  405MOL0     H54610   5.435   2.561  11.227 -0.2298 -0.9540  1.2180
  405MOL0     H54611   5.535   2.536  11.092 -1.3037  1.8421  2.0536
  405MOL0     H54612   5.320   2.518  10.997  2.7020  1.5712  0.3324
  405MOL0     H54613   5.350   2.352  11.033  0.2830 -1.2452  0.4286
  405MOL0     H54614   5.220   2.347  11.225  0.0885  2.3763  3.0042
  405MOL0     H54615   5.219   2.518  11.249 -2.4656  1.2638 -1.8549
  405MOL0     H54616   5.077   2.546  11.038  1.5020 -1.1423 -1.1624
  405MOL0     H54617   5.081   2.374  11.020 -0.6882 -0.2735 -0.4443
  405MOL0     H54618   4.966   2.350  11.230  1.7237 -0.2638 -1.5332
  405MOL0     H54619   4.972   2.529  11.273  0.3957 -1.4345  2.2576
  405MOL0     H54620   4.841   2.382  11.029  0.6440 -1.0658  0.2854
  405MOL0     H54621   4.759   2.411  11.187  2.0203  1.9337  3.5933
  405MOL0     H54622   4.798   2.663  11.142  1.7563 -1.5285  0.4551
  405MOL0     H54623   4.857   2.631  10.984  2.9496 -1.8426  0.6066
  405MOL0     H54624   4.613   2.494  10.982  1.2740  0.3197  0.4399
  405MOL0     H54625   4.637   2.669  10.938  2.2803  0.2317 -0.8714
  405MOL0     H54626   4.544   2.438  11.260 -0.6800  0.9968  2.2376
  405MOL0     H54627   4.397   2.454  11.449  1.8053  1.2514  0.4166
  405MOL0     H54628   4.345   2.621  11.470 -0.8401  2.6820 -3.5426
  405MOL0     H54629   4.179   2.413  11.319 -0.6204  1.9200 -3.2967
  405MOL0     H54630   4.146   2.582  11.313 -1.2613 -1.4996 -1.6900
  405MOL0     H54631   4.162   2.595  11.569  2.2930  0.4797 -0.6058
  405MOL0     H54632   4.149   2.418  11.572 -1.5855 -1.2758 -1.5957
  405MOL0     H54633   3.940   2.413  11.448 -2.1494  0.4259  0.2808
  405MOL0     H54634   3.932   2.592  11.436 -0.1946 -0.0170 -0.0614
  405MOL0     H54635   3.755   2.651  11.765  2.9115 -1.2044  0.2203
  405MOL0     H54636   3.419   2.754  11.755 -1.8105 -4.0261  0.1719
  405MOL0     H54637   3.448   2.670  11.907  0.0330  2.0520  1.2150
  405MOL0     H54638   3.570   2.782  11.842  1.0047 -0.1993 -1.6143
  405MOL0     H54639   3.075   2.435  11.442  1.3414 -0.4892  0.8147
  405MOL0     H54640   2.832   2.338  11.471 -0.5216 -1.4804 -0.8035
  405MOL0     H54641   2.832   1.976  11.681 -2.0736  2.1311  4.6505
  405MOL0     H54642   2.655   2.002  11.691  1.0967 -0.2236  0.8834
  405MOL0     H54643   2.689   2.080  11.437  2.2913  1.7906 -0.3374
  405MOL0     H54644   2.844   2.007  11.448 -0.4349  0.7228 -0.9195
  405MOL0     H54645   2.584   1.840  11.508 -1.6196 -1.0882 -3.4713
  405MOL0     H54646   2.745   1.778  11.502 -2.0161 -2.1615 -0.1362
  405MOL0     H54647   2.599   1.919  11.270 -0.6321 -1.1292  0.4923
  405MOL0     H54648   2.770   1.868  11.259 -1.0493 -0.5664 -0.8744
  405MOL0     H54649   2.718   1.641  11.269 -1.7645 -2.1215  1.6442
  405MOL0     H54650   2.635   1.735  11.134 -1.4237  2.6496  0.3905
  405MOL0     H54651   2.493   1.561  11.251  1.1207  1.2126 -1.7958
  405MOL0     H54652   2.495   1.661  11.400  2.3591 -1.5515  0.3640
  405MOL0     H54653   2.394   1.767  11.130  1.5617 -0.5772 -0.1275
  405MOL0     H54654   2.378   1.847  11.295  0.5721  0.2330 -0.3437
  405MOL0     H54655   2.226   1.679  11.371 -1.9271 -0.0391 -0.5979
  405MOL0     H54656   2.251   1.563  11.246 -2.6162 -0.5260  0.4309
  405MOL0     H54657   2.958   2.136  11.814 -0.0066 -0.2987 -0.4781
  405MOL0     H54658   3.190   2.224  11.802 -0.5311 -2.5062 -1.0964
  405MOL0     H54659   3.487   2.330  11.527  0.0979 -0.6012  0.2363
  405MOL0     H54660   3.727   2.325  11.500  0.4967 -1.1432  1.5529
  405MOL0     H54661   5.692   2.576  11.225 -2.1110  0.2077  2.6042
  405MOL0     H54662   5.928   2.567  11.292  0.3436  0.6079  4.4471
  405MOL0     H54663   6.340   2.100  11.185  0.1343 -0.0370  0.0570
  405MOL0     H54664   6.561   2.098  11.258 -0.5709 -0.9532  0.7170
  405MOL0     H54665   6.757   2.183  11.271  2.4229 -1.0454 -0.2367
  405MOL0     H54666   6.718   2.358  11.262  0.2723  0.7003 -0.1036
  405MOL0     H54667   6.947   2.324  11.260  1.9060 -0.6421  1.5878
  405MOL0     H54668   6.939   2.224  11.410 -1.7795 -0.2406 -0.0346
  405MOL0     H54669   6.834   2.431  11.511 -2.8218 -0.1633 -2.7668
  405MOL0     H54670   6.879   2.522  11.370  1.1229 -0.7039 -1.6301
  405MOL0     H54671   7.114   2.444  11.396  1.1029  2.0865  0.0967
  405MOL0     H54672   7.068   2.335  11.526  3.3875  1.0434 -0.3728
  405MOL0     H54673   7.099   2.726  11.717 -0.1832  1.0728 -0.8563
  405MOL0     H54674   6.476   2.388  11.550 -1.8349  0.8319 -0.0491
  405MOL0     H54675   6.257   2.401  11.503  3.2540  0.7220  1.7645
  406MOL0     O54676  11.261   9.166   9.218 -1.1038 -0.4200  0.4976
  406MOL0     C54677  11.317   9.226   9.312  0.8379  0.3941 -0.0100
  406MOL0     O54678  11.255   9.259   9.430  0.5644 -0.7335  0.1234
  406MOL0     C54679  11.121   9.247   9.451 -0.7037  0.7707  0.4404
  406MOL0     C54680  11.067   9.336   9.540  0.0324 -0.3922 -0.3015
  406MOL0     C54681  10.929   9.334   9.568  0.3129  1.2390  0.6398
  406MOL0     C54682  10.845   9.224   9.521 -0.4481 -0.4284  0.1648
  406MOL0     O54683  10.714   9.222   9.559 -0.6332  1.0392 -1.1407
  406MOL0     C54684  10.625   9.296   9.478  0.6330 -0.2855  0.4599
  406MOL0     C54685  10.487   9.274   9.529  0.6399 -0.0442  0.1696
  406MOL0     C54686  10.441   9.133   9.488 -0.2857  0.5494 -0.5602
  406MOL0     C54687  10.304   9.105   9.541  0.6935 -0.7362  0.0477
  406MOL0     C54688  10.298   9.059   9.682  0.0057 -0.9181 -0.7992
  406MOL0     C54689  10.151   9.025   9.722 -0.7331 -0.4729  0.8176
  406MOL0     C54690  10.134   8.973   9.866 -0.2366 -0.2949  0.5337
  406MOL0     C54691   9.996   8.920   9.885 -0.5247 -0.2299 -0.5792
  406MOL0     N54692   9.891   9.015   9.879  0.0199 -0.3505  0.1191
  406MOL0     C54693   9.798   9.018   9.777  0.2756  0.3525 -0.5308
  406MOL0     C54694   9.721   9.126   9.792 -0.1634 -0.1424 -0.8442
  406MOL0     C54695   9.606   9.167   9.702 -0.0386  0.2917 -0.1950
  406MOL0     C54696   9.466   9.177   9.772 -0.3757  0.1792 -0.3027
  406MOL0     C54697   9.362   9.241   9.686 -0.0976  0.1049 -0.3108
  406MOL0     C54698   9.249   9.290   9.767  0.6613  0.0199 -0.7479
  406MOL0     O54699   9.205   9.184   9.852  0.3413 -0.3145 -0.1162
  406MOL0     C54700   9.086   9.215   9.926  0.4227  0.3635  0.8966
  406MOL0     C54701   8.967   9.169   9.871  0.4472 -0.0465  0.0130
  406MOL0     C54702   8.848   9.187   9.943  0.8091  0.0671 -0.8588
  406MOL0     C54703   8.732   9.119   9.885 -0.4557  0.7297 -0.1648
  406MOL0     C54704   8.838   9.260  10.060  0.0003 -0.0079 -0.3966
  406MOL0     C54705   8.716   9.291  10.136  0.5400 -0.6576 -0.0109
  406MOL0     O54706   8.734   9.383  10.243 -0.8860  0.2268 -0.1544
  406MOL0     C54707   8.620   9.441  10.300 -0.1949 -0.1573  0.1210
  406MOL0     C54708   8.562   9.557  10.247  0.6365  0.0443  0.2734
  406MOL0     C54709   8.446   9.607  10.319 -0.4441  0.3481 -0.4858
  406MOL0     C54710   8.391   9.532  10.427  0.0539  0.0299  0.2907
  406MOL0     O54711   8.289   9.573  10.511 -1.0454  0.5701 -0.2766
  406MOL0     C54712   8.208   9.685  10.481 -0.0644  0.8551 -0.6173
  406MOL0     C54713   8.106   9.715  10.598 -0.7609  0.8102 -0.7310
  406MOL0     C54714   8.021   9.832  10.557  0.7884  0.5687 -0.4476
  406MOL0     C54715   7.911   9.882  10.651  0.1592  0.4893 -1.1637
  406MOL0     C54716   7.983   9.956  10.771 -0.0793 -0.4728  0.1447
  406MOL0     C54717   7.867   9.996  10.870 -0.6382 -0.6890  0.0366
  406MOL0     C54718   7.907  10.118  10.956  0.0971  0.0883 -0.0940
  406MOL0     C54719   7.802  10.147  11.063  0.1897 -0.3821  0.0095
  406MOL0    Cl54720   7.635  10.115  11.039 -0.3373 -0.0276 -0.2699
  406MOL0     C54721   8.456   9.419  10.466 -0.3700  0.3951 -0.2216
  406MOL0     C54722   8.569   9.372  10.404  0.1508 -0.5547  0.3082
  406MOL0     O54723   8.607   9.247  10.101 -0.0511  0.4439 -0.0315
  406MOL0     C54724   8.959   9.316  10.109 -0.0828  0.3183 -0.5315
  406MOL0     C54725   9.082   9.286  10.044  0.2768  0.1468 -0.5208
  406MOL0     N54726   9.772   9.188   9.899 -0.1362 -0.4141  0.4329
  406MOL0     N54727   9.881   9.130   9.951  0.0580 -0.1920 -0.6454
  406MOL0     C54728  10.910   9.119   9.450 -1.2743 -0.2778  0.0059
  406MOL0     C54729  11.046   9.131   9.409  0.6041 -0.0169  0.1243
  406MOL0     C54730  11.453   9.277   9.299 -0.6046 -0.3177  0.9405
  406MOL0     C54731  11.521   9.284   9.178 -0.7571  0.9304  0.2426
  406MOL0     C54732  11.655   9.321   9.167 -1.0254  0.1253  0.4961
  406MOL0     C54733  11.721   9.380   9.274 -0.0062 -1.0205  1.0595
  406MOL0     O54734  11.850   9.430   9.273 -0.1329  0.0870 -0.1156
  406MOL0     C54735  11.934   9.404   9.162 -0.1258 -0.5012  1.1195
  406MOL0     C54736  12.068   9.461   9.191 -0.3185 -0.8112 -0.5115
  406MOL0     C54737  12.135   9.389   9.310  0.4360 -0.3963  0.3053
  406MOL0     C54738  12.287   9.371   9.281  0.0840 -0.3791  0.4124
  406MOL0     C54739  12.359   9.485   9.213 -0.1798 -0.2396 -0.4992
  406MOL0     C54740  12.434   9.564   9.160  0.9508 -0.5510  0.3595
  406MOL0     C54741  11.658   9.374   9.398 -0.4376 -0.2087  0.0199
  406MOL0     C54742  11.522   9.334   9.412  0.5991  0.1987 -0.1990
  406MOL0     H54743  11.134   9.410   9.582 -3.4618  2.2055  1.2849
  406MOL0     H54744  10.883   9.414   9.625  2.0696  0.9568  2.5495
  406MOL0     H54745  10.648   9.401   9.494  1.4581 -0.5197  0.8898
  406MOL0     H54746  10.634   9.270   9.372 -0.5690 -1.1400  0.5489
  406MOL0     H54747  10.489   9.287   9.638  0.0682  1.7600 -0.0062
  406MOL0     H54748  10.412   9.340   9.485  1.1996  0.2049 -0.4281
  406MOL0     H54749  10.436   9.133   9.379 -1.5096 -0.6201 -0.5446
  406MOL0     H54750  10.516   9.058   9.513 -1.0988 -0.6926 -1.6651
  406MOL0     H54751  10.245   9.195   9.521  1.4459 -0.0758  0.7476
  406MOL0     H54752  10.260   9.024   9.482 -1.2141 -1.2616  2.0725
  406MOL0     H54753  10.362   8.972   9.696  1.6233  0.3581  0.1397
  406MOL0     H54754  10.337   9.139   9.746  2.4154 -1.6960 -1.1971
  406MOL0     H54755  10.095   9.118   9.715 -1.7373 -1.1852 -2.6507
  406MOL0     H54756  10.116   8.950   9.651 -1.1520 -1.0520  1.6142
  406MOL0     H54757  10.206   8.894   9.889 -0.3279 -0.2806  0.8694
  406MOL0     H54758  10.138   9.052   9.942 -0.4462 -0.0267  0.2658
  406MOL0     H54759   9.998   8.885   9.988  0.4345  2.0779  0.2521
  406MOL0     H54760   9.983   8.833   9.820  3.4182 -1.4392 -0.0306
  406MOL0     H54761   9.778   8.944   9.700 -5.5363 -3.4072  3.7565
  406MOL0     H54762   9.628   9.267   9.663 -2.2575  0.5960 -0.8302
  406MOL0     H54763   9.594   9.099   9.617  0.4063  0.6917 -0.5833
  406MOL0     H54764   9.484   9.241   9.859 -0.9513 -0.6192  0.4211
  406MOL0     H54765   9.428   9.077   9.798  2.1039 -1.2156 -1.5942
  406MOL0     H54766   9.325   9.170   9.612 -2.3392  1.2856 -0.4248
  406MOL0     H54767   9.410   9.318   9.625  1.6098 -0.8415 -0.2165
  406MOL0     H54768   9.171   9.331   9.702 -2.8968 -1.4036  2.2727
  406MOL0     H54769   9.283   9.374   9.828 -1.9403  1.2711 -0.8928
  406MOL0     H54770   8.970   9.107   9.782 -2.9344 -2.1935  1.1994
  406MOL0     H54771   8.659   9.193   9.849  0.3665  0.8859 -1.5928
  406MOL0     H54772   8.753   9.061   9.795  2.1526  0.1805  0.7203
  406MOL0     H54773   8.680   9.054   9.955  0.7591 -0.1600 -0.0664
  406MOL0     H54774   8.620   9.623  10.183 -0.1645  0.5380  0.0383
  406MOL0     H54775   8.391   9.696  10.290 -1.4646 -0.4336 -1.0373
  406MOL0     H54776   8.276   9.768  10.456  1.8951 -0.5438 -0.2009
  406MOL0     H54777   8.158   9.667  10.385  0.4979 -1.2421 -0.5543
  406MOL0     H54778   8.043   9.625  10.599 -0.6896  0.7303  1.4714
  406MOL0     H54779   8.160   9.728  10.693  0.1813  2.0564 -1.4150
  406MOL0     H54780   7.968   9.801  10.466 -1.7648 -1.3836  1.5392
  406MOL0     H54781   8.088   9.913  10.529 -0.3418  1.9990  0.7943
  406MOL0     H54782   7.838   9.941  10.594 -0.0293 -2.5506 -4.3760
  406MOL0     H54783   7.855   9.796  10.690 -2.1891  0.8875 -3.3704
  406MOL0     H54784   8.038  10.042  10.733  2.2398 -0.3176  3.4295
  406MOL0     H54785   8.056   9.889  10.818 -0.6507 -2.0998 -1.1737
  406MOL0     H54786   7.772  10.013  10.817 -0.8489 -1.6833  0.0818
  406MOL0     H54787   7.850   9.914  10.940  2.4182  0.2381  2.0111
  406MOL0     H54788   7.918  10.205  10.891  0.7452  0.0129 -0.0851
  406MOL0     H54789   8.006  10.114  11.001 -0.3155  2.4359  1.1627
  406MOL0     H54790   7.797  10.250  11.099 -1.7618  0.2236 -1.7873
  406MOL0     H54791   7.836  10.097  11.153 -2.4836  0.0122  1.3258
  406MOL0     H54792   8.428   9.382  10.564  3.2238  1.4302  1.3428
  406MOL0     H54793   8.624   9.286  10.439  2.3433  1.6264  2.7290
  406MOL0     H54794   8.967   9.376  10.199 -1.8065 -0.0822 -0.0714
  406MOL0     H54795   9.182   9.300  10.084  1.4838 -4.4872 -1.3308
  406MOL0     H54796  10.861   9.023   9.434  0.8634 -1.2633 -1.1367
  406MOL0     H54797  11.093   9.046   9.359 -2.4929  0.2270 -3.7297
  406MOL0     H54798  11.465   9.233   9.100 -1.1445 -1.4451  1.9596
  406MOL0     H54799  11.712   9.304   9.076  0.9569  1.5621  1.3963
  406MOL0     H54800  11.946   9.296   9.148  0.5488 -0.3458  0.4264
  406MOL0     H54801  11.896   9.454   9.072 -2.3903 -0.7011  1.8977
  406MOL0     H54802  12.064   9.567   9.217 -0.5312 -0.5263 -1.6606
  406MOL0     H54803  12.124   9.451   9.097 -0.9329  2.2346 -1.3144
  406MOL0     H54804  12.087   9.295   9.337  5.4544 -2.5722  3.1043
  406MOL0     H54805  12.132   9.462   9.391 -1.2954 -1.0647  0.8763
  406MOL0     H54806  12.304   9.290   9.210  0.6430  1.7203 -2.0030
  406MOL0     H54807  12.330   9.354   9.380 -2.3818  1.1049  1.8492
  406MOL0     H54808  12.504   9.621   9.102  0.5306 -1.3519 -0.9727
  406MOL0     H54809  11.711   9.417   9.483  0.9401 -2.2306  0.2338
  406MOL0     H54810  11.480   9.352   9.511  0.0765 -3.0312  0.3091
  407MOL0     O54811   0.773   6.414   7.903  0.1841  0.2845 -0.5846
  407MOL0     C54812   0.832   6.446   7.802  0.6420  0.4841 -0.5237
  407MOL0     O54813   0.774   6.444   7.677  0.0694 -0.2174  0.6418
  407MOL0     C54814   0.645   6.394   7.662  0.2245 -0.0218  1.0478
  407MOL0     C54815   0.597   6.269   7.708  0.1308 -0.0104 -0.4340
  407MOL0     C54816   0.471   6.227   7.687  0.4300  0.7768 -0.4673
  407MOL0     C54817   0.380   6.313   7.619  0.7279  0.2408 -0.5857
  407MOL0     O54818   0.247   6.290   7.607 -0.0365 -0.3945  0.4372
  407MOL0     C54819   0.214   6.150   7.612  0.7018 -0.4651 -0.1234
  407MOL0     C54820   0.080   6.143   7.537  0.0024 -0.3759 -0.7290
  407MOL0     C54821  -0.017   6.249   7.586  1.0258  0.0306 -0.3301
  407MOL0     C54822  -0.154   6.209   7.553  0.1712 -0.3532 -0.6186
  407MOL0     C54823  -0.261   6.316   7.597 -0.0751 -1.2520  0.1965
  407MOL0     C54824  -0.405   6.246   7.598  0.8302  0.1448  0.1933
  407MOL0     C54825  -0.520   6.342   7.584  0.4522  0.3098 -0.3147
  407MOL0     C54826  -0.650   6.278   7.576 -0.1803  0.0454 -0.3473
  407MOL0     N54827  -0.759   6.371   7.551 -0.6872 -0.1362 -0.4359
  407MOL0     C54828  -0.786   6.416   7.428  0.3752  0.2794 -0.0568
  407MOL0     C54829  -0.909   6.473   7.433 -0.2608 -0.2770  0.2370
  407MOL0     C54830  -0.984   6.536   7.322  0.5198 -0.1555  0.6502
  407MOL0     C54831  -1.134   6.508   7.314 -0.4628  0.2191  0.5469
  407MOL0     C54832  -1.216   6.563   7.189  0.2119  0.9043 -1.1899
  407MOL0     C54833  -1.360   6.511   7.191 -0.8027 -0.0085 -0.2134
  407MOL0     O54834  -1.411   6.558   7.320 -0.2749 -0.1958 -0.0032
  407MOL0     C54835  -1.529   6.517   7.381 -0.0765  0.6162  0.2451
  407MOL0     C54836  -1.579   6.597   7.484  0.3972 -0.0879 -0.0987
  407MOL0     C54837  -1.703   6.584   7.543  0.2598 -0.4759  1.3130
  407MOL0     C54838  -1.737   6.685   7.643 -0.0008 -0.3038  0.6877
  407MOL0     C54839  -1.788   6.483   7.487  0.4104 -0.4485 -0.3081
  407MOL0     C54840  -1.935   6.474   7.539 -0.4123  0.4817  0.4109
  407MOL0     O54841  -2.028   6.406   7.458  0.1844 -0.3876  0.7043
  407MOL0     C54842  -2.148   6.377   7.501  0.8623 -0.1832  0.3145
  407MOL0     C54843  -2.223   6.460   7.587  0.5732 -0.2481  0.8053
  407MOL0     C54844  -2.344   6.425   7.633 -0.6980  0.6051 -0.4535
  407MOL0     C54845  -2.413   6.307   7.588  0.4482 -0.2011  0.6251
  407MOL0     O54846  -2.532   6.257   7.631  0.1510  0.5016 -0.3713
  407MOL0     C54847  -2.587   6.127   7.612  1.2044 -0.2576 -0.6275
  407MOL0     C54848  -2.721   6.121   7.676  0.0689 -0.0074 -0.6347
  407MOL0     C54849  -2.788   5.982   7.661 -0.0260  0.3192 -0.0007
  407MOL0     C54850  -2.912   5.973   7.740  0.3155 -0.9183 -0.6146
  407MOL0     C54851  -2.963   5.830   7.756 -0.2187 -0.1134 -0.1707
  407MOL0     C54852  -3.072   5.824   7.854  0.7008 -0.3861 -0.2935
  407MOL0     C54853  -3.178   5.725   7.823 -0.0291  1.1086 -0.2716
  407MOL0     C54854  -3.276   5.692   7.942  0.5897 -0.7022 -0.5283
  407MOL0    Cl54855  -3.343   5.846   7.985  0.0766 -0.2341 -0.0049
  407MOL0     C54856  -2.344   6.228   7.493  0.5810  0.4166 -0.4781
  407MOL0     C54857  -2.218   6.267   7.453  0.0569 -0.4715  0.4033
  407MOL0     O54858  -1.950   6.495   7.658  0.5943 -0.2593  0.2356
  407MOL0     C54859  -1.730   6.398   7.386  0.7911  0.7898 -0.5795
  407MOL0     C54860  -1.605   6.415   7.335  0.8522  0.2639 -0.3702
  407MOL0     N54861  -0.952   6.470   7.564 -0.3609  0.0823 -0.1765
  407MOL0     N54862  -0.868   6.403   7.631 -0.4034 -1.2146  0.1757
  407MOL0     C54863   0.422   6.443   7.594 -0.9181 -0.4935 -0.9731
  407MOL0     C54864   0.557   6.478   7.597  0.2682 -0.1080 -0.2773
  407MOL0     C54865   0.967   6.507   7.812 -0.1683  0.4610 -0.3670
  407MOL0     C54866   1.010   6.574   7.696  0.5363 -0.7582  0.3390
  407MOL0     C54867   1.136   6.638   7.699 -0.2839 -0.1652  0.2416
  407MOL0     C54868   1.210   6.647   7.816  0.2755  0.6701  0.3267
  407MOL0     O54869   1.328   6.719   7.812 -0.1885 -0.2319  0.0841
  407MOL0     C54870   1.360   6.783   7.931 -0.2042 -0.5878  0.1461
  407MOL0     C54871   1.474   6.876   7.900 -0.3408 -0.1631  0.7030
  407MOL0     C54872   1.536   6.949   8.020  0.8526  0.1668  0.3153
  407MOL0     C54873   1.627   6.860   8.105 -0.8112  1.5828 -0.2002
  407MOL0     C54874   1.632   6.896   8.245  0.9422 -0.1172  0.5021
  407MOL0     C54875   1.626   6.931   8.367 -0.0831  0.1774  0.0892
  407MOL0     C54876   1.172   6.570   7.923  0.2917  0.2286  0.0023
  407MOL0     C54877   1.051   6.500   7.926  0.0145 -0.2623  0.2573
  407MOL0     H54878   0.665   6.201   7.758  0.9090  0.9408 -0.1506
  407MOL0     H54879   0.444   6.125   7.710  2.5474 -0.0915 -1.5955
  407MOL0     H54880   0.287   6.083   7.565 -0.0131 -0.4144 -1.3515
  407MOL0     H54881   0.192   6.128   7.717 -1.0034  1.8102  0.0481
  407MOL0     H54882   0.103   6.158   7.431  1.1371 -2.6412 -0.8585
  407MOL0     H54883   0.031   6.046   7.549 -1.7867  0.7355  1.8702
  407MOL0     H54884  -0.018   6.249   7.696 -0.1589  0.9427 -0.3203
  407MOL0     H54885   0.001   6.349   7.546  1.9338  0.1020  0.2290
  407MOL0     H54886  -0.158   6.200   7.444  2.6310  1.4176 -0.9497
  407MOL0     H54887  -0.175   6.118   7.610  0.6747  0.8058  1.5464
  407MOL0     H54888  -0.241   6.371   7.689  1.1868  3.0223 -2.3210
  407MOL0     H54889  -0.258   6.393   7.519  1.1990 -1.9748 -0.4939
  407MOL0     H54890  -0.409   6.174   7.516 -1.2903 -0.1527  0.5119
  407MOL0     H54891  -0.415   6.197   7.695 -0.4149 -0.7019 -0.3465
  407MOL0     H54892  -0.532   6.411   7.668 -2.4854  1.8195 -1.8244
  407MOL0     H54893  -0.509   6.418   7.506 -5.0170  3.5087  1.5151
  407MOL0     H54894  -0.686   6.233   7.669 -2.0776 -0.0396 -1.0642
  407MOL0     H54895  -0.641   6.203   7.497 -0.1602 -1.7423  1.2775
  407MOL0     H54896  -0.727   6.395   7.339  2.3519 -0.1813  1.2823
  407MOL0     H54897  -0.963   6.644   7.330 -0.3739  0.4094 -2.8503
  407MOL0     H54898  -0.938   6.503   7.229 -0.7566  0.2735 -0.1686
  407MOL0     H54899  -1.183   6.548   7.403 -2.3292  0.3162 -0.4803
  407MOL0     H54900  -1.138   6.399   7.304  2.3893  0.0600  0.2157
  407MOL0     H54901  -1.157   6.535   7.101  1.7953  0.1131  0.0827
  407MOL0     H54902  -1.207   6.672   7.200  0.9983  0.6564  0.8687
  407MOL0     H54903  -1.365   6.402   7.181 -0.6115 -0.1436  1.0281
  407MOL0     H54904  -1.412   6.553   7.105  1.2901  0.1123 -1.4733
  407MOL0     H54905  -1.513   6.680   7.509  3.9021 -1.6677 -3.0804
  407MOL0     H54906  -1.840   6.712   7.614  0.6238  2.0664  0.4329
  407MOL0     H54907  -1.738   6.650   7.746 -2.3369 -1.8778  0.2096
  407MOL0     H54908  -1.672   6.772   7.632  2.5520 -2.2112 -0.1918
  407MOL0     H54909  -2.179   6.557   7.611  0.0725  0.7295 -1.9204
  407MOL0     H54910  -2.399   6.485   7.705 -2.4942  0.3830 -1.5912
  407MOL0     H54911  -2.597   6.099   7.506  1.4929 -1.7147 -0.2942
  407MOL0     H54912  -2.523   6.055   7.663 -0.6939 -0.9883  0.8427
  407MOL0     H54913  -2.699   6.135   7.782 -2.8223  0.4511 -0.0009
  407MOL0     H54914  -2.778   6.207   7.640  2.2684  1.3535 -1.0340
  407MOL0     H54915  -2.702   5.922   7.693  0.1300  0.4842 -0.1095
  407MOL0     H54916  -2.805   5.957   7.555 -1.1757  0.8437  0.0407
  407MOL0     H54917  -2.895   6.010   7.841  0.7163 -1.8176 -0.3414
  407MOL0     H54918  -2.995   6.029   7.697  0.2057 -1.8767 -1.6921
  407MOL0     H54919  -2.874   5.776   7.789 -1.1416 -1.1997  0.6263
  407MOL0     H54920  -2.999   5.791   7.661  1.8409 -1.0540 -0.6110
  407MOL0     H54921  -3.028   5.799   7.951  1.0883 -0.1889 -0.4193
  407MOL0     H54922  -3.127   5.918   7.859  0.7649 -0.1598 -2.7932
  407MOL0     H54923  -3.120   5.632   7.811 -0.1834  0.5327  2.7455
  407MOL0     H54924  -3.232   5.742   7.729  1.2864  2.0181 -0.8997
  407MOL0     H54925  -3.218   5.648   8.023 -0.1456 -0.4437  0.1459
  407MOL0     H54926  -3.357   5.621   7.927  0.6294 -0.8166 -0.2048
  407MOL0     H54927  -2.388   6.137   7.453  1.0050  0.0499 -0.1160
  407MOL0     H54928  -2.157   6.209   7.385  1.6312  1.0926  0.3979
  407MOL0     H54929  -1.795   6.316   7.356  0.9567 -0.4558  2.1175
  407MOL0     H54930  -1.562   6.342   7.267  1.1039 -1.2336  1.3355
  407MOL0     H54931   0.344   6.515   7.575  0.2059  1.4068  1.1390
  407MOL0     H54932   0.603   6.570   7.561  0.2853 -0.3565 -0.8954
  407MOL0     H54933   0.963   6.576   7.599  1.6745  1.7096 -0.2394
  407MOL0     H54934   1.150   6.701   7.611 -0.2519  1.1369  1.1579
  407MOL0     H54935   1.265   6.823   7.968 -1.1917 -3.6484  1.2680
  407MOL0     H54936   1.393   6.711   8.007  2.7078  0.9443  0.4381
  407MOL0     H54937   1.432   6.952   7.833  1.6077  2.1001  1.8774
  407MOL0     H54938   1.551   6.823   7.843 -0.4321 -1.4088  1.7072
  407MOL0     H54939   1.451   6.986   8.077 -1.5364 -2.7656 -1.0643
  407MOL0     H54940   1.597   7.032   7.983  0.6279 -0.1426 -0.8041
  407MOL0     H54941   1.726   6.872   8.060 -0.7913  4.0204  0.3775
  407MOL0     H54942   1.606   6.755   8.083 -0.1404  1.7023 -1.5351
  407MOL0     H54943   1.624   6.939   8.474 -1.9853  1.5361  0.0173
  407MOL0     H54944   1.238   6.570   8.009  0.2326 -0.8068  0.0575
  407MOL0     H54945   1.020   6.437   8.009 -0.6790 -2.1489 -1.3409
  408MOL0     O54946   7.301   7.832   6.950 -0.8547  0.0648  0.0817
  408MOL0     C54947   7.333   7.761   6.855 -0.1477 -0.5352 -0.7910
  408MOL0     O54948   7.254   7.690   6.777  0.3527  0.5479  0.5783
  408MOL0     C54949   7.122   7.709   6.765  0.6011 -0.7458  0.0376
  408MOL0     C54950   7.044   7.825   6.802 -0.8079  0.5703 -0.4307
  408MOL0     C54951   6.902   7.815   6.785 -0.6217  0.7800 -0.3563
  408MOL0     C54952   6.831   7.708   6.720 -0.7879 -0.3629 -0.4733
  408MOL0     O54953   6.698   7.712   6.690 -0.4663 -0.2218  0.4205
  408MOL0     C54954   6.620   7.820   6.738  0.2943  0.1303  1.0744
  408MOL0     C54955   6.488   7.801   6.684  0.3339  0.0168  0.3615
  408MOL0     C54956   6.472   7.838   6.534  0.0242  0.3387 -0.3234
  408MOL0     C54957   6.324   7.832   6.498 -0.6647  0.0025  0.2037
  408MOL0     C54958   6.260   7.692   6.519  0.0386 -0.4195  1.3640
  408MOL0     C54959   6.132   7.689   6.430 -0.4337 -0.1763 -0.4189
  408MOL0     C54960   6.038   7.574   6.460 -1.0088  0.4268 -0.0220
  408MOL0     C54961   6.080   7.433   6.410  0.1211  0.4136 -0.1699
  408MOL0     N54962   5.999   7.339   6.462 -0.2397  0.5131 -0.0430
  408MOL0     C54963   6.023   7.280   6.582 -0.5090 -0.0098  0.1315
  408MOL0     C54964   5.914   7.214   6.614 -0.9588  0.3307 -0.1013
  408MOL0     C54965   5.883   7.124   6.734 -0.0329 -0.8766 -0.2473
  408MOL0     C54966   5.920   6.973   6.724  0.2648 -1.0945 -0.5045
  408MOL0     C54967   5.824   6.903   6.627  0.0312  1.3803  0.3511
  408MOL0     C54968   5.676   6.894   6.683  0.5495  0.5571  0.2886
  408MOL0     O54969   5.608   6.807   6.587 -0.1386 -0.6119  0.2001
  408MOL0     C54970   5.544   6.856   6.482 -0.1249 -0.2779 -0.4607
  408MOL0     C54971   5.564   6.975   6.415 -0.4713  0.0472  0.1484
  408MOL0     C54972   5.485   7.025   6.312  0.7089  0.1749 -0.1188
  408MOL0     C54973   5.534   7.155   6.255  0.1549 -0.2297 -1.0258
  408MOL0     C54974   5.368   6.950   6.277  0.2834  0.8341 -0.1288
  408MOL0     C54975   5.279   6.995   6.166 -0.7529 -0.5153  0.1455
  408MOL0     O54976   5.179   6.912   6.128 -0.2292 -0.1682  0.2551
  408MOL0     C54977   5.062   6.974   6.089 -0.8338  0.4925  0.4142
  408MOL0     C54978   4.981   7.033   6.177  0.8567  0.0168 -0.9927
  408MOL0     C54979   4.861   7.096   6.135  0.1183 -0.4654 -0.2234
  408MOL0     C54980   4.812   7.094   6.002  0.4438 -0.0726 -0.6397
  408MOL0     O54981   4.697   7.148   5.954 -0.2194 -0.7310  0.1537
  408MOL0     C54982   4.592   7.179   6.047 -0.3818 -0.0503 -0.3055
  408MOL0     C54983   4.457   7.199   5.988  0.4387  0.1557  0.3897
  408MOL0     C54984   4.384   7.326   6.038 -0.1118 -0.0497  0.5413
  408MOL0     C54985   4.234   7.309   6.016 -0.2261 -0.0974  0.0345
  408MOL0     C54986   4.159   7.439   6.062 -0.1831  0.7676  0.1744
  408MOL0     C54987   4.006   7.428   6.020 -0.0484  0.2724  0.1958
  408MOL0     C54988   3.940   7.556   6.061 -0.5799  0.4237 -0.5017
  408MOL0     C54989   3.796   7.577   6.003  0.3121 -0.6113  0.2238
  408MOL0    Cl54990   3.748   7.752   6.046 -0.0427  0.1716 -0.1803
  408MOL0     C54991   4.897   7.028   5.914 -0.6524 -0.2111 -0.1495
  408MOL0     C54992   5.018   6.971   5.949  0.1786  0.1498  0.3750
  408MOL0     O54993   5.299   7.106   6.118  0.5945  0.2953 -0.3695
  408MOL0     C54994   5.350   6.823   6.337  0.0069  0.4691 -0.1917
  408MOL0     C54995   5.437   6.777   6.440  0.2349 -0.4224 -0.3207
  408MOL0     N54996   5.814   7.249   6.521 -0.2346 -0.2045  0.5610
  408MOL0     N54997   5.870   7.323   6.426  0.9012  0.9360 -0.3748
  408MOL0     C54998   6.914   7.601   6.679  0.1107  0.6605  0.0491
  408MOL0     C54999   7.051   7.602   6.692 -0.5651  0.0277 -0.7802
  408MOL0     C55000   7.479   7.764   6.837 -0.3388  0.6091 -0.4403
  408MOL0     C55001   7.568   7.791   6.943 -1.1980  0.0959  0.1682
  408MOL0     C55002   7.705   7.753   6.928  1.0924 -0.3811 -0.1182
  408MOL0     C55003   7.755   7.690   6.818 -0.5373 -1.1906 -0.2694
  408MOL0     O55004   7.882   7.656   6.809 -0.4048 -0.0023  0.2766
  408MOL0     C55005   7.972   7.687   6.916  0.0320 -0.1191  0.2999
  408MOL0     C55006   8.113   7.676   6.866 -1.3458  0.1696  0.0477
  408MOL0     C55007   8.156   7.551   6.791 -0.5915 -0.2148  0.4461
  408MOL0     C55008   8.296   7.552   6.735 -0.3075 -0.5421  0.3015
  408MOL0     C55009   8.329   7.422   6.674  0.7717 -0.1404  0.6203
  408MOL0     C55010   8.346   7.309   6.625 -0.0508  0.2084 -0.2690
  408MOL0     C55011   7.658   7.660   6.720 -0.1949 -0.3021 -0.2286
  408MOL0     C55012   7.525   7.693   6.726  0.0942 -0.4437  0.4198
  408MOL0     H55013   7.090   7.906   6.857  1.6640  0.1750 -1.7581
  408MOL0     H55014   6.851   7.906   6.813  3.0607  3.9872 -3.0261
  408MOL0     H55015   6.612   7.805   6.846 -0.7699  2.3140  1.3399
  408MOL0     H55016   6.660   7.920   6.721 -0.4429  0.2883  0.1375
  408MOL0     H55017   6.462   7.696   6.699 -3.0060  0.6773  0.0987
  408MOL0     H55018   6.420   7.872   6.733  0.8332  2.5478 -2.3640
  408MOL0     H55019   6.510   7.940   6.527  0.1008  0.2009 -2.8012
  408MOL0     H55020   6.530   7.777   6.463  0.6038  1.3251 -0.7283
  408MOL0     H55021   6.278   7.910   6.558  0.0823  0.1636  0.5875
  408MOL0     H55022   6.321   7.869   6.396 -2.7606 -0.0382  0.2170
  408MOL0     H55023   6.334   7.623   6.477  0.8232  1.3021 -0.2900
  408MOL0     H55024   6.237   7.673   6.624 -2.0742 -1.3031  0.7909
  408MOL0     H55025   6.066   7.776   6.440 -1.5166 -1.0104 -0.1041
  408MOL0     H55026   6.154   7.697   6.323 -0.6911 -0.1331 -0.4702
  408MOL0     H55027   6.014   7.554   6.564 -4.1523 -4.8184 -1.3791
  408MOL0     H55028   5.944   7.609   6.417 -1.5209  1.3156  1.7572
  408MOL0     H55029   6.182   7.424   6.448 -0.2740  1.0492  1.0929
  408MOL0     H55030   6.096   7.415   6.304  3.3095 -2.2147  0.5785
  408MOL0     H55031   6.116   7.271   6.637  1.3283 -1.5977 -2.9580
  408MOL0     H55032   5.935   7.168   6.820  0.1486 -1.6040  0.0176
  408MOL0     H55033   5.776   7.135   6.753  0.0379  0.7677 -0.6214
  408MOL0     H55034   5.918   6.926   6.823 -3.0189  0.3443  0.2746
  408MOL0     H55035   6.024   6.953   6.699  0.1224 -3.7590  0.7149
  408MOL0     H55036   5.859   6.801   6.610 -0.1988  1.3621 -0.0406
  408MOL0     H55037   5.829   6.947   6.527 -4.4569 -0.6326 -1.0234
  408MOL0     H55038   5.619   6.987   6.684 -0.1233  0.1527  0.2581
  408MOL0     H55039   5.675   6.858   6.786 -0.9808 -1.0550 -0.2250
  408MOL0     H55040   5.646   7.033   6.457 -0.9188  1.2847 -0.6337
  408MOL0     H55041   5.549   7.149   6.146  0.6807 -4.0137 -0.8744
  408MOL0     H55042   5.453   7.226   6.278 -1.6913 -2.6706  0.4456
  408MOL0     H55043   5.625   7.186   6.307 -0.9546  0.5969  0.4955
  408MOL0     H55044   5.014   7.040   6.280 -0.2278 -1.0550 -0.5477
  408MOL0     H55045   4.811   7.162   6.205  0.4805  0.8852 -1.1921
  408MOL0     H55046   4.577   7.094   6.115 -0.1027 -0.1504 -0.3667
  408MOL0     H55047   4.632   7.265   6.103  2.1770 -0.9328 -0.6159
  408MOL0     H55048   4.463   7.213   5.880  0.1888  2.1526  0.5888
  408MOL0     H55049   4.398   7.114   6.023 -2.3322  1.9504  0.4680
  408MOL0     H55050   4.421   7.417   5.990  1.5472  0.6371  2.9512
  408MOL0     H55051   4.398   7.327   6.146 -1.2937  0.8052  0.7050
  408MOL0     H55052   4.217   7.295   5.908  0.4034  0.2825 -0.1211
  408MOL0     H55053   4.203   7.218   6.067  0.1495 -0.2377  0.0085
  408MOL0     H55054   4.202   7.528   6.015 -0.3595 -0.0382 -1.5685
  408MOL0     H55055   4.178   7.454   6.169 -0.2838 -0.3596  0.3576
  408MOL0     H55056   3.987   7.421   5.912 -3.1344  0.1690  0.6439
  408MOL0     H55057   3.963   7.339   6.067  0.4987 -1.1396 -1.8281
  408MOL0     H55058   3.997   7.644   6.027 -1.3358  0.9970 -0.3291
  408MOL0     H55059   3.942   7.563   6.170  3.6782 -1.8433 -0.2222
  408MOL0     H55060   3.729   7.510   6.057  2.3616 -2.8308  0.2052
  408MOL0     H55061   3.796   7.559   5.895  0.7111 -2.0813  0.4529
  408MOL0     H55062   4.878   7.025   5.807  0.4006 -0.1422 -0.3512
  408MOL0     H55063   5.074   6.929   5.867 -1.2948 -2.6006  0.6801
  408MOL0     H55064   5.278   6.749   6.303  1.9955 -1.5712 -0.1978
  408MOL0     H55065   5.432   6.679   6.486  1.2693  0.1277  1.0080
  408MOL0     H55066   6.864   7.516   6.633  0.8864 -2.3893  4.2573
  408MOL0     H55067   7.104   7.510   6.671  0.0032  0.6202 -2.0262
  408MOL0     H55068   7.524   7.835   7.032  3.0200  2.9160  1.1466
  408MOL0     H55069   7.768   7.774   7.014  0.1153  2.5646  0.0078
  408MOL0     H55070   7.960   7.792   6.947  2.4578 -0.2369  1.9863
  408MOL0     H55071   7.960   7.628   7.007 -1.8121  2.4694  1.8819
  408MOL0     H55072   8.190   7.697   6.941 -1.2713  0.6233 -0.1503
  408MOL0     H55073   8.129   7.757   6.794  2.8596 -0.2423  0.2343
  408MOL0     H55074   8.092   7.531   6.705 -0.1817 -0.7401  0.2530
  408MOL0     H55075   8.139   7.464   6.856 -1.9394 -0.9017 -0.7676
  408MOL0     H55076   8.363   7.575   6.818  0.7729 -2.8652  0.1556
  408MOL0     H55077   8.301   7.634   6.663  0.1374 -0.2030  0.7125
  408MOL0     H55078   8.368   7.214   6.582  1.6816  0.3865  0.1794
  408MOL0     H55079   7.692   7.594   6.640  2.1870 -0.7766  1.0720
  408MOL0     H55080   7.450   7.661   6.654  0.7056 -1.0752  0.0488
  409MOL0     O55081   8.356   8.279   1.579  0.7238  0.0037 -0.0882
  409MOL0     C55082   8.392   8.222   1.479  0.2481 -0.2403  0.0195
  409MOL0     O55083   8.313   8.153   1.398  0.5060  0.2639 -0.0899
  409MOL0     C55084   8.177   8.124   1.422 -0.9334  0.7942 -0.0629
  409MOL0     C55085   8.120   8.070   1.305  0.2910  0.3534  0.2217
  409MOL0     C55086   7.985   8.019   1.310 -0.0428  0.5130  0.4312
  409MOL0     C55087   7.917   8.015   1.438  0.3093 -0.0868  0.8936
  409MOL0     O55088   7.788   7.960   1.458 -0.5192  0.2335  0.0835
  409MOL0     C55089   7.699   7.974   1.349 -0.1983 -0.2878  0.8242
  409MOL0     C55090   7.565   7.899   1.364  0.0622  0.1476 -0.5042
  409MOL0     C55091   7.507   7.929   1.510  0.4962 -0.7112 -0.0358
  409MOL0     C55092   7.415   7.811   1.561 -0.6167 -1.2913  0.0842
  409MOL0     C55093   7.342   7.854   1.688 -0.2111 -0.5375  0.1126
  409MOL0     C55094   7.213   7.927   1.656  0.7457 -0.0749  0.3668
  409MOL0     C55095   7.079   7.840   1.664  0.7691  0.9176 -0.2907
  409MOL0     C55096   7.051   7.736   1.548  0.2508 -0.0099 -0.5057
  409MOL0     N55097   6.925   7.672   1.570 -0.2944 -0.5396  0.2730
  409MOL0     C55098   6.810   7.730   1.534  0.2637  0.1718 -0.4398
  409MOL0     C55099   6.715   7.636   1.573 -0.7355 -0.6131 -0.8824
  409MOL0     C55100   6.562   7.644   1.568 -0.7624 -0.4483 -0.0628
  409MOL0     C55101   6.485   7.520   1.600  0.3612 -0.3169 -1.2694
  409MOL0     C55102   6.347   7.555   1.654  0.2699  0.2453 -0.2130
  409MOL0     C55103   6.254   7.432   1.692  0.1943  0.3775 -0.6840
  409MOL0     O55104   6.198   7.379   1.574 -0.0737 -0.5924  0.4723
  409MOL0     C55105   6.090   7.296   1.583 -0.4357 -0.3481  0.4625
  409MOL0     C55106   6.014   7.288   1.693  0.4772  0.5186  0.4219
  409MOL0     C55107   5.922   7.178   1.700  0.0361  0.2922  0.1571
  409MOL0     C55108   5.837   7.171   1.822  1.3290 -0.4040  0.4209
  409MOL0     C55109   5.902   7.080   1.592 -0.1151 -1.1097  0.1985
  409MOL0     C55110   5.807   6.974   1.589 -0.7906 -0.2424  0.0464
  409MOL0     O55111   5.756   6.930   1.702 -0.4316  0.7509  0.1774
  409MOL0     C55112   5.651   6.837   1.719 -0.1209 -0.0010  0.8900
  409MOL0     C55113   5.542   6.827   1.628 -0.1448 -0.9670  0.5418
  409MOL0     C55114   5.436   6.746   1.663  0.5366 -0.2140  0.7290
  409MOL0     C55115   5.437   6.668   1.775  0.3750 -0.8145 -0.5266
  409MOL0     O55116   5.334   6.593   1.815  0.5285 -0.4554 -0.4432
  409MOL0     C55117   5.204   6.640   1.782  0.3380 -0.6167  0.4313
  409MOL0     C55118   5.110   6.529   1.813  0.1499  0.0376 -0.3005
  409MOL0     C55119   4.966   6.571   1.819 -0.0491  0.0914  0.3336
  409MOL0     C55120   4.868   6.451   1.818  0.3708 -1.0509  0.0541
  409MOL0     C55121   4.726   6.502   1.838 -0.2359  0.1828  0.2040
  409MOL0     C55122   4.618   6.386   1.865 -1.0258  0.0807 -0.2754
  409MOL0     C55123   4.471   6.437   1.845 -0.1955  0.1512 -0.3292
  409MOL0     C55124   4.375   6.336   1.899  0.3757 -0.6856 -0.0793
  409MOL0    Cl55125   4.205   6.384   1.851  0.0022 -0.0737 -0.5316
  409MOL0     C55126   5.539   6.673   1.861  0.4130 -0.1727 -0.8075
  409MOL0     C55127   5.644   6.760   1.834 -1.1149 -0.5752 -0.5600
  409MOL0     O55128   5.782   6.933   1.475  0.0080 -0.1882 -0.2984
  409MOL0     C55129   5.980   7.112   1.475 -0.4788 -0.0825 -0.3097
  409MOL0     C55130   6.083   7.211   1.474  0.4351 -0.0711  0.8318
  409MOL0     N55131   6.784   7.537   1.641  0.3909 -0.2956 -0.3027
  409MOL0     N55132   6.911   7.550   1.622 -0.1624 -0.3199 -0.6244
  409MOL0     C55133   7.978   8.063   1.551  0.0252 -0.0511  0.4502
  409MOL0     C55134   8.104   8.128   1.542  0.1129  0.0461 -0.2459
  409MOL0     C55135   8.540   8.236   1.457  0.1284  0.0897 -0.0855
  409MOL0     C55136   8.615   8.335   1.520  0.1287  0.5052  0.1670
  409MOL0     C55137   8.749   8.362   1.483  0.6676 -0.4769 -0.8402
  409MOL0     C55138   8.808   8.283   1.385 -0.2631  0.0650 -0.2013
  409MOL0     O55139   8.933   8.304   1.350  0.7610  0.3239  0.5339
  409MOL0     C55140   8.966   8.441   1.343 -0.1943 -0.1006  0.4394
  409MOL0     C55141   9.087   8.457   1.258  0.7899 -0.4370  0.6351
  409MOL0     C55142   9.043   8.464   1.106 -0.2549 -0.1008 -0.3662
  409MOL0     C55143   9.164   8.491   1.017 -0.6054 -0.2776 -0.3991
  409MOL0     C55144   9.220   8.623   1.053 -0.1918  0.3839  0.6912
  409MOL0     C55145   9.262   8.728   1.090  0.1067  0.1254  0.2164
  409MOL0     C55146   8.733   8.183   1.326  0.3137  1.1075  0.2223
  409MOL0     C55147   8.607   8.161   1.362  0.0685 -0.0565  0.4807
  409MOL0     H55148   8.183   8.059   1.218  1.1148  0.3459  0.8080
  409MOL0     H55149   7.954   7.980   1.213 -2.2710 -0.9364  1.6274
  409MOL0     H55150   7.682   8.079   1.327  0.7963 -0.7289 -2.6276
  409MOL0     H55151   7.735   7.933   1.255 -0.6499  0.6414  0.2368
  409MOL0     H55152   7.487   7.921   1.291 -1.4701 -0.7562  0.8159
  409MOL0     H55153   7.591   7.794   1.354  2.0326  0.2947  2.0328
  409MOL0     H55154   7.589   7.937   1.582  0.8834 -2.3812 -0.2309
  409MOL0     H55155   7.446   8.020   1.506 -0.1005 -1.0758  0.4780
  409MOL0     H55156   7.340   7.769   1.493 -4.6655  2.1735  1.9020
  409MOL0     H55157   7.489   7.738   1.595  1.2353  1.2614  1.8299
  409MOL0     H55158   7.318   7.762   1.743  3.7649 -2.3943 -0.9329
  409MOL0     H55159   7.406   7.909   1.756  2.4301 -0.4783 -2.2364
  409MOL0     H55160   7.206   8.013   1.724  3.4424 -1.6593  2.8825
  409MOL0     H55161   7.212   7.960   1.551  0.6781 -2.2768 -0.3859
  409MOL0     H55162   7.061   7.798   1.764  1.0190 -0.6401 -0.8634
  409MOL0     H55163   6.992   7.905   1.655 -0.7834 -0.7290  1.7627
  409MOL0     H55164   7.125   7.655   1.546 -3.9101 -4.5866  3.4670
  409MOL0     H55165   7.051   7.780   1.448 -3.0729 -1.0041 -1.0652
  409MOL0     H55166   6.787   7.816   1.471 -0.2585 -0.5352 -1.2466
  409MOL0     H55167   6.544   7.717   1.648  3.3783 -0.2314  0.8516
  409MOL0     H55168   6.523   7.692   1.478  0.0355  1.9398  0.7815
  409MOL0     H55169   6.542   7.463   1.674  2.0738  1.7711 -0.8889
  409MOL0     H55170   6.473   7.452   1.515 -0.1261 -1.1240 -0.5748
  409MOL0     H55171   6.298   7.617   1.579 -1.4435  0.2176  0.8393
  409MOL0     H55172   6.369   7.605   1.748  0.5040  1.6688 -0.9985
  409MOL0     H55173   6.178   7.488   1.747  1.1434  1.7308 -0.7097
  409MOL0     H55174   6.302   7.351   1.749  2.2295  0.3861 -2.2842
  409MOL0     H55175   6.022   7.352   1.780  0.1085  2.5047 -0.9493
  409MOL0     H55176   5.733   7.160   1.791  1.6904  0.1408 -1.0867
  409MOL0     H55177   5.857   7.087   1.889  0.1481 -1.4677 -0.5115
  409MOL0     H55178   5.841   7.255   1.891 -0.8697  1.0824 -1.1175
  409MOL0     H55179   5.536   6.890   1.540 -0.1407 -0.0478  1.1881
  409MOL0     H55180   5.348   6.733   1.601  0.7136 -2.0775  0.8091
  409MOL0     H55181   5.178   6.724   1.848 -1.0725  1.2966 -2.3825
  409MOL0     H55182   5.180   6.669   1.680 -1.0535 -2.4689  0.1844
  409MOL0     H55183   5.104   6.451   1.737 -1.7128 -3.5601  3.1837
  409MOL0     H55184   5.136   6.476   1.905  1.9596  0.1032 -0.7288
  409MOL0     H55185   4.956   6.630   1.728 -2.3564 -2.4448 -1.2230
  409MOL0     H55186   4.951   6.628   1.911  0.0553 -0.4651  0.7061
  409MOL0     H55187   4.881   6.395   1.725  1.0923 -1.0704  0.1666
  409MOL0     H55188   4.878   6.374   1.896  0.1149 -1.6368 -0.4810
  409MOL0     H55189   4.707   6.568   1.753 -1.5275  2.5669  2.2219
  409MOL0     H55190   4.719   6.572   1.921 -0.4968  3.8776 -2.6430
  409MOL0     H55191   4.643   6.301   1.802 -0.1388  0.4626 -0.4554
  409MOL0     H55192   4.633   6.372   1.972 -2.2979  1.2233  0.0808
  409MOL0     H55193   4.455   6.456   1.738 -2.4283  2.0245  0.2708
  409MOL0     H55194   4.458   6.534   1.893  2.5573 -0.3018  1.5793
  409MOL0     H55195   4.379   6.342   2.008  1.2357  0.7591 -0.1592
  409MOL0     H55196   4.398   6.233   1.870 -1.2539 -1.0793 -0.0737
  409MOL0     H55197   5.531   6.620   1.955 -1.0218  1.7634  0.2228
  409MOL0     H55198   5.723   6.776   1.906  1.9585 -1.5420 -3.4167
  409MOL0     H55199   5.970   7.054   1.384  0.7044  0.1893 -0.6291
  409MOL0     H55200   6.149   7.231   1.390  2.0759  1.1297  2.3036
  409MOL0     H55201   7.925   8.053   1.646 -1.7700 -2.5965 -0.7115
  409MOL0     H55202   8.148   8.154   1.638  3.3914 -4.0509 -0.3584
  409MOL0     H55203   8.561   8.389   1.597 -2.3718 -2.8014  1.0013
  409MOL0     H55204   8.794   8.446   1.536  0.0652  0.2586 -1.4636
  409MOL0     H55205   8.893   8.504   1.291  0.4885  1.2058  1.0017
  409MOL0     H55206   8.987   8.490   1.439  1.0996  2.6813 -1.0998
  409MOL0     H55207   9.150   8.367   1.268  2.0702 -0.0525 -2.7981
  409MOL0     H55208   9.133   8.545   1.302  1.9463 -1.9943  2.7562
  409MOL0     H55209   8.963   8.536   1.088 -0.4763 -0.5067 -1.0552
  409MOL0     H55210   9.009   8.362   1.084  3.0927 -1.3287 -0.5777
  409MOL0     H55211   9.128   8.496   0.914  0.2172  0.3044 -0.6691
  409MOL0     H55212   9.235   8.408   1.018 -1.1384 -0.7487 -0.9445
  409MOL0     H55213   9.287   8.826   1.126  1.1344 -0.3293  0.8009
  409MOL0     H55214   8.771   8.122   1.244  0.1554 -0.6078  1.3608
  409MOL0     H55215   8.550   8.088   1.305  2.2053 -1.1788 -0.3755
  410MOL0     O55216  10.463   7.452   3.884  0.6378  0.3295  0.2654
  410MOL0     C55217  10.524   7.458   3.985  0.3476 -0.2437  0.1050
  410MOL0     O55218  10.523   7.375   4.090 -0.0544  0.5043  0.8402
  410MOL0     C55219  10.438   7.263   4.081  0.1950 -0.1974 -0.2652
  410MOL0     C55220  10.483   7.138   4.092  0.0237  1.0076  0.0945
  410MOL0     C55221  10.393   7.031   4.104  0.3283 -0.3352  1.2131
  410MOL0     C55222  10.256   7.054   4.089  0.1694 -0.0399 -0.6789
  410MOL0     O55223  10.169   6.952   4.101  0.3064 -0.5318  0.2934
  410MOL0     C55224  10.078   6.923   3.997  0.5435 -0.2976 -0.1191
  410MOL0     C55225   9.956   6.842   4.058  0.7321 -0.8848  0.7214
  410MOL0     C55226   9.848   6.934   4.102 -0.2684  0.2291  0.4907
  410MOL0     C55227   9.745   6.970   4.000 -0.3777 -0.0681 -0.6699
  410MOL0     C55228   9.660   7.090   4.057 -0.0047  0.4701 -0.5480
  410MOL0     C55229   9.524   7.101   3.992  0.2500 -0.1267 -0.1077
  410MOL0     C55230   9.538   7.115   3.845 -0.0497  0.4700  0.7358
  410MOL0     C55231   9.407   7.163   3.779 -1.0468 -0.2869  0.4977
  410MOL0     N55232   9.287   7.120   3.845  1.6894  0.3833 -0.5405
  410MOL0     C55233   9.211   7.202   3.926 -0.9196  0.8213  0.0764
  410MOL0     C55234   9.089   7.153   3.930  0.4230 -0.4506  0.7836
  410MOL0     C55235   8.965   7.198   4.013  0.3461 -0.4358  0.0827
  410MOL0     C55236   8.860   7.090   4.045 -0.3099 -0.3316 -0.2079
  410MOL0     C55237   8.777   7.046   3.924 -0.5158 -0.0696  0.0907
  410MOL0     C55238   8.661   6.960   3.967  1.0346 -0.0079 -0.2099
  410MOL0     O55239   8.558   7.055   4.015 -0.0786 -0.4162  1.0322
  410MOL0     C55240   8.442   7.006   4.061  0.6482 -0.4232 -0.0972
  410MOL0     C55241   8.338   7.099   4.076  0.1064 -0.5292  0.6415
  410MOL0     C55242   8.208   7.054   4.114 -0.4172 -0.1936 -0.0004
  410MOL0     C55243   8.103   7.155   4.120 -0.2629  0.7970 -0.2301
  410MOL0     C55244   8.184   6.914   4.134 -0.4139 -0.8769 -0.1232
  410MOL0     C55245   8.061   6.866   4.184 -0.5146 -0.1653  0.5775
  410MOL0     O55246   8.061   6.765   4.284  0.4184 -0.0304  0.1890
  410MOL0     C55247   7.953   6.695   4.317 -0.0786 -0.1231 -0.7933
  410MOL0     C55248   7.816   6.734   4.309 -0.7331  0.1735  0.5516
  410MOL0     C55249   7.714   6.661   4.359 -0.0425  1.0438 -0.0969
  410MOL0     C55250   7.736   6.546   4.426 -0.3111  0.3753  0.3475
  410MOL0     O55251   7.627   6.482   4.487 -0.0932  0.2790  0.5272
  410MOL0     C55252   7.632   6.345   4.525  0.0381  0.1753  0.0603
  410MOL0     C55253   7.485   6.289   4.531 -0.3899  0.2641  0.2439
  410MOL0     C55254   7.399   6.322   4.405 -0.3147 -0.3268 -0.5539
  410MOL0     C55255   7.258   6.253   4.401  0.0615 -0.8221  0.5061
  410MOL0     C55256   7.192   6.284   4.260 -0.1852  0.0720 -0.0005
  410MOL0     C55257   7.043   6.257   4.264 -0.0882  0.3651 -0.9380
  410MOL0     C55258   6.999   6.113   4.249 -0.3005  0.5721  0.0600
  410MOL0     C55259   6.850   6.091   4.231  0.8734 -0.0703 -0.0010
  410MOL0    Cl55260   6.763   6.112   4.374  0.2436  0.8456 -0.1115
  410MOL0     C55261   7.868   6.498   4.447  0.6476 -0.7760  0.2668
  410MOL0     C55262   7.970   6.577   4.390  0.6738  0.0634  0.4545
  410MOL0     O55263   7.960   6.898   4.119  0.5012  0.3013 -0.2233
  410MOL0     C55264   8.290   6.828   4.118  0.6262  0.0045  0.0831
  410MOL0     C55265   8.418   6.874   4.078 -0.7354  1.1816  0.1221
  410MOL0     N55266   9.090   7.033   3.861  0.3115 -0.8866 -0.7005
  410MOL0     N55267   9.208   7.016   3.806  0.4281 -0.0950  0.6094
  410MOL0     C55268  10.211   7.183   4.075  0.3787  0.3219 -0.6237
  410MOL0     C55269  10.302   7.291   4.055 -0.6540 -0.2261  0.9805
  410MOL0     C55270  10.615   7.581   4.001 -0.7344  0.1431 -0.4964
  410MOL0     C55271  10.594   7.703   3.939  0.5234  0.0054 -0.1184
  410MOL0     C55272  10.670   7.816   3.967 -1.1140  0.3577  0.6857
  410MOL0     C55273  10.787   7.801   4.047  0.0931  0.2733  0.5964
  410MOL0     O55274  10.886   7.897   4.070 -0.0960 -0.4091  0.3002
  410MOL0     C55275  10.968   7.924   3.955 -0.8201 -0.9363  0.1833
  410MOL0     C55276  11.004   8.075   3.967 -0.7861 -0.0599  0.0896
  410MOL0     C55277  10.897   8.169   3.909  0.6742  0.5771  0.1126
  410MOL0     C55278  10.864   8.157   3.756 -0.3688  0.3617  0.2353
  410MOL0     C55279  10.958   8.239   3.686  0.7370  0.1557 -0.1869
  410MOL0     C55280  11.033   8.314   3.620 -0.0590 -0.3395 -0.1007
  410MOL0     C55281  10.807   7.684   4.120  0.2122  0.2238  0.0666
  410MOL0     C55282  10.721   7.575   4.092  0.0349 -0.7148  0.2067
  410MOL0     H55283  10.587   7.109   4.096 -0.3761 -0.6996 -0.8473
  410MOL0     H55284  10.431   6.930   4.113 -1.1094 -1.4854 -3.1409
  410MOL0     H55285  10.053   7.015   3.944 -2.0758 -0.5459  0.5555
  410MOL0     H55286  10.126   6.854   3.926 -0.1029 -1.0834  0.1876
  410MOL0     H55287   9.916   6.780   3.977 -1.2569  0.0633  0.9410
  410MOL0     H55288   9.995   6.782   4.140 -0.8482 -1.7906  0.8326
  410MOL0     H55289   9.789   6.893   4.184 -0.1185 -1.3288 -0.1516
  410MOL0     H55290   9.892   7.024   4.146  0.5807  0.2841 -0.4376
  410MOL0     H55291   9.791   7.009   3.909  0.2270 -0.6184 -0.6044
  410MOL0     H55292   9.677   6.889   3.972  0.1861 -0.3840 -1.1462
  410MOL0     H55293   9.644   7.077   4.165 -2.1858 -0.0344 -0.8813
  410MOL0     H55294   9.705   7.189   4.050 -4.6276  3.0160  1.4868
  410MOL0     H55295   9.457   7.017   4.012 -1.9902  1.7190  0.6264
  410MOL0     H55296   9.478   7.195   4.024  0.0024 -0.9218  2.0333
  410MOL0     H55297   9.619   7.186   3.821 -0.6230  0.9125  0.0837
  410MOL0     H55298   9.560   7.022   3.793 -0.7233  1.0148 -0.5573
  410MOL0     H55299   9.407   7.116   3.680  1.7915 -0.2640  0.3820
  410MOL0     H55300   9.406   7.271   3.766 -2.4620 -0.5954 -2.7085
  410MOL0     H55301   9.251   7.290   3.977  0.6756  0.2248 -0.0727
  410MOL0     H55302   8.989   7.256   4.103 -1.2737  0.8767 -0.2893
  410MOL0     H55303   8.914   7.280   3.963 -0.9850  1.1667  3.7139
  410MOL0     H55304   8.785   7.123   4.117 -0.5587 -0.2074 -0.5201
  410MOL0     H55305   8.902   6.999   4.089 -1.9388  1.0372  4.8655
  410MOL0     H55306   8.843   6.990   3.856 -0.8543  0.3033 -0.5565
  410MOL0     H55307   8.747   7.137   3.872  2.5457  1.0993  0.1834
  410MOL0     H55308   8.688   6.895   4.051  0.3538 -0.9955 -0.7507
  410MOL0     H55309   8.636   6.894   3.885  3.0952 -2.1809  0.7832
  410MOL0     H55310   8.350   7.201   4.041  0.0052 -0.2155  1.4942
  410MOL0     H55311   8.134   7.260   4.108  1.7839  0.2330 -0.2789
  410MOL0     H55312   8.032   7.132   4.040 -0.9645  3.4195 -0.4861
  410MOL0     H55313   8.066   7.146   4.222 -0.2254  1.7072 -0.1256
  410MOL0     H55314   7.786   6.823   4.254 -0.8925 -0.2858 -0.1112
  410MOL0     H55315   7.612   6.692   4.339 -0.9304  0.3762  2.8592
  410MOL0     H55316   7.695   6.295   4.451 -1.6529 -1.6384 -0.2067
  410MOL0     H55317   7.677   6.352   4.625  1.8756  3.1358 -0.8381
  410MOL0     H55318   7.501   6.182   4.544  2.2819  0.8080  2.2481
  410MOL0     H55319   7.443   6.333   4.622  0.5223  2.4642 -0.3331
  410MOL0     H55320   7.460   6.284   4.322  1.7371 -1.6122  1.4136
  410MOL0     H55321   7.374   6.428   4.403  1.8905  0.2730  0.2673
  410MOL0     H55322   7.253   6.146   4.421 -1.3846 -1.5495 -3.0265
  410MOL0     H55323   7.199   6.289   4.486 -2.6989 -2.7748 -0.4245
  410MOL0     H55324   7.245   6.225   4.184 -0.9545 -0.1304 -0.3829
  410MOL0     H55325   7.207   6.391   4.242  1.6845  0.3819  2.8326
  410MOL0     H55326   6.998   6.315   4.345 -0.5490  1.4999 -1.9743
  410MOL0     H55327   7.012   6.307   4.171  0.2382  0.8060 -0.8141
  410MOL0     H55328   7.029   6.069   4.345 -2.8826  0.4766  0.9062
  410MOL0     H55329   7.051   6.067   4.165  1.8107  0.4738  1.3414
  410MOL0     H55330   6.827   5.990   4.196 -1.5013 -1.1272  4.0017
  410MOL0     H55331   6.809   6.154   4.151 -2.6904 -2.4808 -0.3205
  410MOL0     H55332   7.881   6.406   4.503 -0.1931  0.1577  2.0901
  410MOL0     H55333   8.065   6.529   4.409  0.8020 -0.0851 -0.5116
  410MOL0     H55334   8.269   6.726   4.150 -2.9525  1.4641  3.1294
  410MOL0     H55335   8.499   6.804   4.059 -0.8866  1.3614 -1.3344
  410MOL0     H55336  10.107   7.211   4.060  0.6480  0.8580 -1.6576
  410MOL0     H55337  10.264   7.390   4.034  0.7104 -0.2568 -2.2398
  410MOL0     H55338  10.520   7.712   3.860  0.2978 -1.4214 -0.0950
  410MOL0     H55339  10.653   7.915   3.926 -1.3107  0.2917  0.6060
  410MOL0     H55340  11.057   7.862   3.971 -1.3665 -1.4615  1.2288
  410MOL0     H55341  10.934   7.897   3.854  1.3917 -0.3188 -0.7837
  410MOL0     H55342  11.101   8.088   3.918  1.1229 -3.0914  2.6239
  410MOL0     H55343  11.031   8.097   4.071  1.8200  0.6631 -0.6789
  410MOL0     H55344  10.919   8.273   3.935 -2.3960  0.4572  4.3368
  410MOL0     H55345  10.806   8.144   3.964  2.5390 -4.7062  1.3020
  410MOL0     H55346  10.757   8.180   3.746 -0.8607 -1.9099 -0.3346
  410MOL0     H55347  10.874   8.057   3.713 -1.3038  1.2529 -2.2426
  410MOL0     H55348  11.083   8.393   3.567  0.2022  0.0229  0.6627
  410MOL0     H55349  10.891   7.680   4.188 -0.3919  1.7045  0.9416
  410MOL0     H55350  10.742   7.488   4.154 -0.1248 -0.4384  0.6524
  411MOL0     O55351   8.266   2.542   7.139 -0.7910  0.0510 -0.3933
  411MOL0     C55352   8.289   2.423   7.179  0.0966  0.4043  0.5264
  411MOL0     O55353   8.403   2.374   7.251 -0.3290 -0.2539  0.1687
  411MOL0     C55354   8.516   2.454   7.267  0.6390  0.5221  0.1801
  411MOL0     C55355   8.599   2.410   7.363  0.4042  0.2793 -0.4180
  411MOL0     C55356   8.722   2.467   7.384 -0.1475  0.2049  0.1553
  411MOL0     C55357   8.762   2.576   7.304  0.4716  0.1702  0.3061
  411MOL0     O55358   8.886   2.638   7.306  0.0663  0.1310  0.0753
  411MOL0     C55359   8.994   2.574   7.379 -0.1370  0.1592 -0.3470
  411MOL0     C55360   9.089   2.677   7.441  1.0998 -0.2430  0.1987
  411MOL0     C55361   9.198   2.612   7.521 -0.4493  0.1897  0.4094
  411MOL0     C55362   9.313   2.709   7.533 -0.4971  0.5559 -0.2203
  411MOL0     C55363   9.415   2.659   7.646  0.8446 -0.3553  0.2211
  411MOL0     C55364   9.550   2.728   7.630 -0.3093 -0.6584  0.5172
  411MOL0     C55365   9.639   2.693   7.741 -0.1825  0.2058 -0.0546
  411MOL0     C55366   9.786   2.746   7.730  0.6498 -0.3020  0.7400
  411MOL0     N55367   9.880   2.692   7.828  0.0282  0.7338 -0.1700
  411MOL0     C55368   9.933   2.757   7.936  0.2651  0.2229  0.0926
  411MOL0     C55369   9.998   2.662   8.002 -0.4694  0.4532  1.4033
  411MOL0     C55370  10.070   2.666   8.140  0.0345 -1.2169 -0.7701
  411MOL0     C55371   9.971   2.723   8.241  1.1868  0.0258 -0.1112
  411MOL0     C55372   9.858   2.615   8.243 -0.2251 -0.0914 -0.2271
  411MOL0     C55373   9.755   2.618   8.363  0.3575 -0.6807  0.1351
  411MOL0     O55374   9.625   2.566   8.329 -0.3738 -0.2677 -0.0932
  411MOL0     C55375   9.533   2.646   8.264  0.0956 -0.3104 -0.0983
  411MOL0     C55376   9.563   2.766   8.202  0.2307 -0.6081 -0.1364
  411MOL0     C55377   9.460   2.835   8.133  0.4481 -0.0109 -0.1925
  411MOL0     C55378   9.503   2.960   8.059  0.0854 -0.8295 -0.1743
  411MOL0     C55379   9.329   2.773   8.110 -0.1238 -0.5940 -0.6503
  411MOL0     C55380   9.219   2.826   8.024  0.7830  0.3909 -0.3298
  411MOL0     O55381   9.100   2.757   8.024  0.0371  0.7569 -0.2545
  411MOL0     C55382   8.999   2.779   7.928 -0.1664 -0.3065  0.0362
  411MOL0     C55383   8.968   2.665   7.850  0.6236  0.5204  0.2901
  411MOL0     C55384   8.852   2.668   7.764 -0.2530 -0.1993  0.6036
  411MOL0     C55385   8.779   2.790   7.749  0.2407 -0.0256  0.7600
  411MOL0     O55386   8.681   2.824   7.663 -0.2592 -0.6290 -0.6779
  411MOL0     C55387   8.600   2.728   7.593 -0.2193 -0.3334  0.5928
  411MOL0     C55388   8.460   2.782   7.616 -0.6522 -0.4089 -0.2145
  411MOL0     C55389   8.364   2.673   7.569 -0.4114  0.4202 -0.3248
  411MOL0     C55390   8.216   2.726   7.585 -0.3692 -0.3446 -0.5455
  411MOL0     C55391   8.120   2.623   7.515 -0.2718  0.1956 -0.5139
  411MOL0     C55392   7.978   2.674   7.507  0.9120  0.3470 -0.2766
  411MOL0     C55393   7.890   2.587   7.417 -0.2801  0.2873 -0.1013
  411MOL0     C55394   7.849   2.658   7.283  0.7360 -0.3646 -0.7185
  411MOL0    Cl55395   7.787   2.532   7.185  0.4331 -0.0126  0.2171
  411MOL0     C55396   8.826   2.900   7.815  0.0282 -1.5669 -0.1889
  411MOL0     C55397   8.929   2.898   7.908  0.6547  0.6541 -0.0315
  411MOL0     O55398   9.238   2.921   7.957  0.1584 -1.1093 -0.1520
  411MOL0     C55399   9.306   2.651   8.176  0.3188  0.2649  0.9217
  411MOL0     C55400   9.403   2.594   8.255  0.1835  0.2183  0.7727
  411MOL0     N55401   9.994   2.543   7.923 -0.5325 -0.1966  0.2321
  411MOL0     N55402   9.919   2.565   7.821 -1.2245  0.2467 -0.4020
  411MOL0     C55403   8.679   2.621   7.197  0.5657  0.5356 -0.0203
  411MOL0     C55404   8.550   2.558   7.185 -0.8359 -0.5327  0.1261
  411MOL0     C55405   8.183   2.317   7.160 -0.2357 -1.1160  0.6060
  411MOL0     C55406   8.062   2.353   7.107 -0.1056  0.2805 -0.5843
  411MOL0     C55407   7.965   2.255   7.081 -0.3130  0.2256  0.2326
  411MOL0     C55408   7.995   2.122   7.100 -1.0841  0.0973  0.7551
  411MOL0     O55409   7.912   2.017   7.074 -0.3314  0.1643  0.7470
  411MOL0     C55410   7.773   2.030   7.107  0.3111  0.3828 -0.9849
  411MOL0     C55411   7.699   1.903   7.047  0.0007 -0.1757  0.0982
  411MOL0     C55412   7.560   1.885   7.095 -0.0197  0.0732 -0.6834
  411MOL0     C55413   7.486   1.760   7.038  0.3138 -0.1095 -0.4861
  411MOL0     C55414   7.344   1.783   7.053 -0.7059 -0.1590  0.3875
  411MOL0     C55415   7.226   1.804   7.066  0.0643 -0.2423 -0.4419
  411MOL0     C55416   8.118   2.082   7.148 -0.1198  0.7912  0.5215
  411MOL0     C55417   8.211   2.179   7.180  0.3007  0.2619  0.4867
  411MOL0     H55418   8.562   2.339   7.436  0.5048  2.8404  2.3047
  411MOL0     H55419   8.782   2.426   7.465 -1.4244  0.3497  1.2210
  411MOL0     H55420   8.964   2.505   7.459 -1.8213  0.2331 -0.8745
  411MOL0     H55421   9.059   2.528   7.305  0.2844 -2.2294  1.3967
  411MOL0     H55422   9.131   2.740   7.362  3.4377  1.4174  2.5968
  411MOL0     H55423   9.037   2.754   7.499 -1.1511 -0.2429 -1.6962
  411MOL0     H55424   9.173   2.595   7.626  1.1287  1.4028  1.0177
  411MOL0     H55425   9.234   2.524   7.468  1.6762  1.6482 -0.7468
  411MOL0     H55426   9.364   2.724   7.438  0.9739 -1.3476  0.1942
  411MOL0     H55427   9.262   2.800   7.566 -3.0202 -1.5588  2.3161
  411MOL0     H55428   9.378   2.689   7.744 -1.5137  0.4910 -0.8645
  411MOL0     H55429   9.416   2.551   7.631  1.6839 -0.3218 -0.0234
  411MOL0     H55430   9.600   2.707   7.535  0.1181  0.1896  0.5438
  411MOL0     H55431   9.528   2.835   7.638 -0.9484 -0.9144  3.8021
  411MOL0     H55432   9.594   2.724   7.836  0.2985  0.8684 -0.0337
  411MOL0     H55433   9.656   2.585   7.745  0.3400  0.2949  0.2812
  411MOL0     H55434   9.790   2.855   7.743  0.5708 -0.5698  3.3606
  411MOL0     H55435   9.829   2.734   7.630  2.2375  1.9748  1.0562
  411MOL0     H55436   9.921   2.858   7.975  2.4683  0.3979  0.4511
  411MOL0     H55437  10.101   2.567   8.176 -0.6248 -0.3655  2.4512
  411MOL0     H55438  10.152   2.737   8.129 -0.6365 -0.7265 -3.4731
  411MOL0     H55439   9.941   2.825   8.217 -0.4187 -0.5521 -0.7177
  411MOL0     H55440  10.032   2.720   8.332  0.8906 -1.3151  0.0692
  411MOL0     H55441   9.905   2.516   8.239 -2.0143 -1.0761  1.4692
  411MOL0     H55442   9.799   2.616   8.152  0.7464 -4.5473 -1.1683
  411MOL0     H55443   9.747   2.720   8.403 -0.6156  0.8466 -3.5405
  411MOL0     H55444   9.793   2.562   8.448  1.2359  0.9832  0.8941
  411MOL0     H55445   9.665   2.802   8.194  0.1283  0.4077  2.3373
  411MOL0     H55446   9.605   2.988   8.088  0.3625  0.0473 -1.8603
  411MOL0     H55447   9.490   2.953   7.951 -2.7524 -0.4041  0.0833
  411MOL0     H55448   9.437   3.044   8.082  2.1592  1.3292 -1.6549
  411MOL0     H55449   9.032   2.577   7.849 -1.1538 -0.8104 -0.7086
  411MOL0     H55450   8.814   2.580   7.712  0.2456 -1.3003  2.0228
  411MOL0     H55451   8.625   2.722   7.487 -2.5810 -3.7071  0.0989
  411MOL0     H55452   8.613   2.633   7.645  0.2903 -1.4779 -1.5078
  411MOL0     H55453   8.441   2.808   7.721 -0.4299  1.0630 -0.5145
  411MOL0     H55454   8.445   2.877   7.563  0.6849  0.7477  1.3787
  411MOL0     H55455   8.378   2.575   7.617 -0.7564  0.5727  0.0924
  411MOL0     H55456   8.392   2.658   7.464  0.7384  1.6040 -0.2224
  411MOL0     H55457   8.190   2.750   7.689  1.4894  2.4473 -0.6083
  411MOL0     H55458   8.212   2.826   7.540 -0.6442 -1.3308 -2.8292
  411MOL0     H55459   8.120   2.521   7.555 -1.7401  1.0149  1.8456
  411MOL0     H55460   8.152   2.623   7.411  1.9781  0.2115  0.1326
  411MOL0     H55461   7.945   2.671   7.611  0.6388  3.3123 -0.1931
  411MOL0     H55462   7.969   2.776   7.468  1.6576 -0.0348 -1.5156
  411MOL0     H55463   7.802   2.556   7.473 -0.3122  0.8765  0.1758
  411MOL0     H55464   7.947   2.496   7.394  0.9051  0.6160  1.3894
  411MOL0     H55465   7.932   2.700   7.224 -0.5123 -0.3313 -2.5530
  411MOL0     H55466   7.779   2.739   7.305 -0.6597 -0.8833 -2.9427
  411MOL0     H55467   8.788   3.001   7.800 -0.4896 -1.9249 -1.3658
  411MOL0     H55468   8.953   2.989   7.961  0.3336  0.4977  0.3834
  411MOL0     H55469   9.213   2.596   8.175 -0.6136  1.6183 -2.7043
  411MOL0     H55470   9.373   2.508   8.313  0.7687 -0.7480 -0.3144
  411MOL0     H55471   8.718   2.693   7.126  1.2138  0.6017  0.3938
  411MOL0     H55472   8.488   2.583   7.099 -1.2074 -1.3716  0.1391
  411MOL0     H55473   8.057   2.459   7.083  2.3823  0.8174  0.8818
  411MOL0     H55474   7.867   2.265   7.035 -0.6245  0.2975  0.9041
  411MOL0     H55475   7.754   2.031   7.215  2.4008 -0.4122 -0.5583
  411MOL0     H55476   7.732   2.127   7.078  0.7024  1.2629  1.1403
  411MOL0     H55477   7.758   1.820   7.087 -3.1536 -2.1381  1.0672
  411MOL0     H55478   7.714   1.912   6.939  2.0677  1.7230  0.4745
  411MOL0     H55479   7.504   1.978   7.088 -0.3360  0.0149  0.7359
  411MOL0     H55480   7.562   1.866   7.203 -4.6435 -0.6339 -0.5283
  411MOL0     H55481   7.513   1.668   7.089  0.2051 -0.0701 -0.3586
  411MOL0     H55482   7.512   1.741   6.933  1.9661 -1.2632  0.0869
  411MOL0     H55483   7.121   1.813   7.080  0.0181  0.6440 -1.2703
  411MOL0     H55484   8.149   1.979   7.156  2.2376  1.3807 -0.2365
  411MOL0     H55485   8.301   2.144   7.230 -0.0133 -0.0171  0.8745
  412MOL0     O55486  10.330   0.459   6.150 -0.5743  0.0084 -0.3233
  412MOL0     C55487  10.387   0.365   6.089 -1.0204 -0.9028 -0.4170
  412MOL0     O55488  10.339   0.240   6.075 -0.0890 -0.0274 -0.1774
  412MOL0     C55489  10.207   0.209   6.088  0.1261  0.2938  0.4440
  412MOL0     C55490  10.136   0.154   5.981  0.5640 -0.0602 -0.7468
  412MOL0     C55491  10.000   0.125   5.980  0.2281 -0.9879 -0.3682
  412MOL0     C55492   9.920   0.138   6.096 -0.2842 -0.0222  0.7228
  412MOL0     O55493   9.789   0.112   6.095 -0.2823  0.1355  1.3905
  412MOL0     C55494   9.694   0.206   6.128 -0.0916 -0.2035  0.1150
  412MOL0     C55495   9.562   0.166   6.072  0.3506 -0.1526  0.4124
  412MOL0     C55496   9.470   0.276   6.118  0.8266 -0.0966  0.1375
  412MOL0     C55497   9.331   0.247   6.066 -0.1559  0.4641  0.0567
  412MOL0     C55498   9.241   0.358   6.109 -0.1216 -0.1434 -0.2107
  412MOL0     C55499   9.090   0.320   6.105  0.5798  0.5708 -0.7538
  412MOL0     C55500   9.007   0.435   6.162  0.2132 -0.0752  0.1739
  412MOL0     C55501   8.867   0.377   6.204  0.5077  0.4645 -0.0737
  412MOL0     N55502   8.785   0.325   6.096 -0.1111 -0.0685  0.6267
  412MOL0     C55503   8.664   0.368   6.062 -0.0754  0.0594 -0.4125
  412MOL0     C55504   8.615   0.262   5.994 -0.0365  0.0760 -0.0574
  412MOL0     C55505   8.472   0.257   5.939  0.2110  0.1589  0.0865
  412MOL0     C55506   8.395   0.135   5.990  0.3019  0.0605 -1.1287
  412MOL0     C55507   8.247   0.149   5.949  0.1333  1.1122  1.0477
  412MOL0     C55508   8.222   0.111   5.801  0.0849 -0.3208  0.1030
  412MOL0     O55509   8.101   0.159   5.762 -0.1120  0.6144  0.2897
  412MOL0     C55510   7.982   0.087   5.793 -0.9207  0.5016  0.5828
  412MOL0     C55511   7.869   0.157   5.808  0.3207 -0.6235 -0.8882
  412MOL0     C55512   7.739   0.105   5.830  0.0062  0.2057  0.0134
  412MOL0     C55513   7.625   0.192   5.856  0.1787 -0.8865  0.4603
  412MOL0     C55514   7.724  -0.038   5.835 -0.1799 -0.0533  0.8793
  412MOL0     C55515   7.599  -0.115   5.855 -0.1781 -0.3854 -0.1044
  412MOL0     O55516   7.609  -0.252   5.852 -0.0719  0.1997  0.3912
  412MOL0     C55517   7.513  -0.339   5.887  0.2471 -0.1528 -0.3291
  412MOL0     C55518   7.532  -0.448   5.974  0.0066 -0.8416 -0.0776
  412MOL0     C55519   7.430  -0.541   6.009  0.7848 -0.3408  0.4770
  412MOL0     C55520   7.300  -0.520   5.954  1.0753 -0.4673  0.5043
  412MOL0     O55521   7.182  -0.597   5.976  0.5548  0.3368 -0.2634
  412MOL0     C55522   7.200  -0.704   6.065  0.0934  0.3339  0.0266
  412MOL0     C55523   7.079  -0.799   6.051  0.3517 -0.0505  0.3085
  412MOL0     C55524   7.096  -0.929   6.136 -0.4421 -0.5852  0.1569
  412MOL0     C55525   7.004  -1.036   6.085 -0.1568  0.1785 -0.0228
  412MOL0     C55526   7.042  -1.165   6.164  0.0182  0.1440 -0.4904
  412MOL0     C55527   7.036  -1.158   6.322 -0.3640  0.3998 -0.3777
  412MOL0     C55528   6.919  -1.108   6.393 -0.2929  0.3083 -0.4693
  412MOL0     C55529   6.941  -1.075   6.544 -0.5582 -0.7904 -1.1952
  412MOL0    Cl55530   6.783  -1.104   6.636  0.0941  0.0020  0.2222
  412MOL0     C55531   7.284  -0.426   5.851 -0.3795 -0.4710  0.1198
  412MOL0     C55532   7.391  -0.333   5.818  0.6084 -0.8654 -0.5243
  412MOL0     O55533   7.492  -0.053   5.869 -0.3439  0.7396  0.2294
  412MOL0     C55534   7.850  -0.115   5.818 -0.2676  0.1514  0.7343
  412MOL0     C55535   7.973  -0.054   5.790 -0.6077  0.6031 -0.2408
  412MOL0     N55536   8.710   0.162   5.987  0.4098 -0.2634 -0.3435
  412MOL0     N55537   8.819   0.204   6.039  0.5858  0.0992  0.4304
  412MOL0     C55538   9.988   0.190   6.207  0.5188  1.2793 -0.6869
  412MOL0     C55539  10.129   0.219   6.202 -0.1344  0.4782  0.9722
  412MOL0     C55540  10.527   0.394   6.051 -0.4691 -0.6675 -0.7674
  412MOL0     C55541  10.602   0.500   6.103 -0.0636  0.3259 -0.5360
  412MOL0     C55542  10.738   0.529   6.068  0.2907 -0.3027  0.2009
  412MOL0     C55543  10.802   0.451   5.969  0.8201 -0.0620  0.3431
  412MOL0     O55544  10.933   0.482   5.938  0.2470  0.3657 -0.0227
  412MOL0     C55545  10.980   0.417   5.818 -0.0643  0.5537 -0.0078
  412MOL0     C55546  11.128   0.456   5.801 -0.2096  0.6837  0.0697
  412MOL0     C55547  11.203   0.446   5.937 -0.1316 -0.4444 -0.0074
  412MOL0     C55548  11.352   0.451   5.925 -0.3488 -0.4359  0.2397
  412MOL0     C55549  11.396   0.578   5.862 -0.2170 -0.6017 -0.9002
  412MOL0     C55550  11.428   0.681   5.807  0.1931 -0.4860 -0.3338
  412MOL0     C55551  10.724   0.344   5.916 -0.6950  0.4097  0.5009
  412MOL0     C55552  10.595   0.314   5.960 -0.2363 -0.0435 -0.7584
  412MOL0     H55553  10.191   0.141   5.889  2.1669  0.5238  0.0926
  412MOL0     H55554   9.955   0.080   5.892 -1.4641 -1.0379  0.4747
  412MOL0     H55555   9.705   0.214   6.237 -1.1041  0.4492  0.1761
  412MOL0     H55556   9.724   0.303   6.086 -2.0380 -0.4834 -2.1173
  412MOL0     H55557   9.571   0.160   5.963  0.2585  0.2685  0.3837
  412MOL0     H55558   9.522   0.068   6.099 -1.6020  0.6052  0.4111
  412MOL0     H55559   9.476   0.292   6.226 -0.4740 -1.1581  0.3871
  412MOL0     H55560   9.503   0.372   6.078 -0.5146  1.3678  2.3448
  412MOL0     H55561   9.327   0.228   5.959 -1.9468  0.4892  0.0863
  412MOL0     H55562   9.290   0.153   6.103 -1.3945  1.3193  0.9450
  412MOL0     H55563   9.266   0.380   6.214  0.9350 -0.8082 -0.3106
  412MOL0     H55564   9.254   0.447   6.048 -0.6911  0.7439  0.9145
  412MOL0     H55565   9.060   0.296   6.002  0.7884 -3.4587 -0.0256
  412MOL0     H55566   9.070   0.230   6.163  0.4127 -0.2288 -2.0243
  412MOL0     H55567   9.063   0.483   6.243  0.1215 -2.9438  2.0840
  412MOL0     H55568   8.992   0.506   6.080  0.2383  0.4360  0.6083
  412MOL0     H55569   8.808   0.459   6.244  0.3813  1.7039 -2.6177
  412MOL0     H55570   8.907   0.305   6.276  2.3337 -0.7847 -2.2028
  412MOL0     H55571   8.621   0.460   6.100  0.3805 -1.0580  3.1881
  412MOL0     H55572   8.425   0.348   5.978 -2.5847 -1.6855  1.3776
  412MOL0     H55573   8.470   0.256   5.830 -2.3313  0.1401  0.0735
  412MOL0     H55574   8.408   0.118   6.097  0.9313  0.1029 -1.1967
  412MOL0     H55575   8.438   0.042   5.952  0.9837 -0.7782  1.4629
  412MOL0     H55576   8.203   0.248   5.964  0.0020  0.6299  4.7343
  412MOL0     H55577   8.184   0.078   6.004 -1.3115  0.7202 -0.9740
  412MOL0     H55578   8.238   0.004   5.783  0.0957 -0.1274 -1.1399
  412MOL0     H55579   8.298   0.164   5.742 -0.4135  2.2428  1.6171
  412MOL0     H55580   7.886   0.264   5.801 -0.1693 -0.5146 -0.4864
  412MOL0     H55581   7.585   0.173   5.956 -2.3270 -0.6767 -0.4289
  412MOL0     H55582   7.660   0.296   5.859  3.8961 -1.9818  1.1335
  412MOL0     H55583   7.546   0.178   5.782  0.0189  0.3816  0.3709
  412MOL0     H55584   7.626  -0.472   6.022 -1.0801 -2.0026  1.5814
  412MOL0     H55585   7.456  -0.617   6.082  0.6126 -2.7432 -1.7793
  412MOL0     H55586   7.295  -0.755   6.048  0.6138  1.5168 -0.7594
  412MOL0     H55587   7.201  -0.668   6.168  2.0359 -1.2623  0.6329
  412MOL0     H55588   6.991  -0.745   6.087 -0.3261 -0.5500 -0.5514
  412MOL0     H55589   7.056  -0.823   5.947 -2.9770 -0.7418  1.0940
  412MOL0     H55590   7.066  -0.904   6.238 -0.5843  0.5322 -0.1503
  412MOL0     H55591   7.199  -0.967   6.128  0.8939  3.0275 -1.7317
  412MOL0     H55592   6.898  -1.010   6.089  0.1085  1.2116  2.1519
  412MOL0     H55593   7.031  -1.065   5.983  1.3227 -0.7335  0.5826
  412MOL0     H55594   7.143  -1.200   6.140  1.0138  1.5953  1.3406
  412MOL0     H55595   6.976  -1.247   6.132  0.4148 -0.0096 -0.9415
  412MOL0     H55596   7.047  -1.262   6.355 -1.5380  0.9937  2.1472
  412MOL0     H55597   7.124  -1.100   6.351 -0.1453  2.6239 -4.7251
  412MOL0     H55598   6.837  -1.180   6.391 -0.0646 -0.0565  1.2413
  412MOL0     H55599   6.880  -1.017   6.349  2.9525  1.1152 -2.0407
  412MOL0     H55600   6.975  -0.971   6.556  2.8371 -1.8958 -0.1608
  412MOL0     H55601   7.019  -1.138   6.587 -1.7600  0.0305  2.6405
  412MOL0     H55602   7.189  -0.414   5.799  0.0932 -1.1039 -0.9186
  412MOL0     H55603   7.374  -0.268   5.732 -0.3224 -2.1213 -1.3340
  412MOL0     H55604   7.843  -0.223   5.806 -4.0897  0.4076 -0.6243
  412MOL0     H55605   8.055  -0.125   5.792  0.0308  1.2911  2.8420
  412MOL0     H55606   9.931   0.202   6.299 -0.0049  1.4970 -1.0309
  412MOL0     H55607  10.171   0.250   6.297 -0.1974 -1.3077  1.6207
  412MOL0     H55608  10.543   0.570   6.163  2.1212  1.2993  0.5975
  412MOL0     H55609  10.794   0.606   6.120  0.9662 -0.0347 -0.8732
  412MOL0     H55610  10.980   0.309   5.840 -0.1589  0.8043  1.3362
  412MOL0     H55611  10.914   0.440   5.734 -0.9491 -1.8252 -0.0489
  412MOL0     H55612  11.144   0.554   5.756  2.4805 -1.1270 -3.3798
  412MOL0     H55613  11.183   0.386   5.737  2.5514  2.2961  0.4898
  412MOL0     H55614  11.177   0.346   5.974 -2.4338 -0.6375 -1.8906
  412MOL0     H55615  11.163   0.524   6.002  0.3392 -2.0251  2.2986
  412MOL0     H55616  11.390   0.366   5.867 -0.3129 -0.4324  0.2584
  412MOL0     H55617  11.389   0.444   6.028 -1.2508 -0.8211  0.5516
  412MOL0     H55618  11.463   0.769   5.757  0.5601 -0.6256 -0.3258
  412MOL0     H55619  10.758   0.274   5.840  2.0115  0.3333  1.6838
  412MOL0     H55620  10.548   0.223   5.924 -2.0680 -0.8139  3.0454
  413MOL0     O55621   8.619   8.834  11.170  0.4614 -0.4624 -0.6066
  413MOL0     C55622   8.645   8.954  11.167 -0.5676  0.3978 -0.1483
  413MOL0     O55623   8.568   9.052  11.236 -0.2227 -0.0724  0.0233
  413MOL0     C55624   8.446   9.005  11.277  0.4338  0.4720  0.2332
  413MOL0     C55625   8.429   8.905  11.379 -0.4923 -0.0489 -0.1673
  413MOL0     C55626   8.303   8.864  11.424  0.8078  0.2846  0.3440
  413MOL0     C55627   8.193   8.929  11.381  0.3332 -0.0566  0.2138
  413MOL0     O55628   8.072   8.886  11.434 -0.2834  0.4416  0.3609
  413MOL0     C55629   7.943   8.918  11.377 -0.8502  0.7887  0.0942
  413MOL0     C55630   7.828   8.896  11.482  0.1660  0.2881  0.1275
  413MOL0     C55631   7.847   9.007  11.589  0.6105 -0.1753  1.0953
  413MOL0     C55632   7.769   8.945  11.711 -0.5497  0.2446  0.0504
  413MOL0     C55633   7.776   9.035  11.832 -0.8639 -0.0279  0.2666
  413MOL0     C55634   7.698   8.970  11.950 -0.5827  0.2280 -0.2919
  413MOL0     C55635   7.721   9.022  12.096  1.2301 -0.0050 -0.5761
  413MOL0     C55636   7.697   9.175  12.103  0.5246  0.1453 -0.7476
  413MOL0     N55637   7.555   9.201  12.128 -0.7666 -0.6395  0.2021
  413MOL0     C55638   7.479   9.134  12.218  0.0521  0.1497  0.5276
  413MOL0     C55639   7.345   9.158  12.176  0.6588 -0.8981  0.2014
  413MOL0     C55640   7.218   9.109  12.241  0.5121  0.0178  0.0476
  413MOL0     C55641   7.168   8.979  12.189 -0.0296  0.9004 -0.1943
  413MOL0     C55642   7.016   8.993  12.179  0.5036  0.4074  0.5534
  413MOL0     C55643   6.946   8.861  12.161 -0.3423 -0.6456  0.0302
  413MOL0     O55644   6.818   8.887  12.101 -0.0473  0.8371 -0.1546
  413MOL0     C55645   6.750   8.782  12.049 -0.1538 -0.2570 -0.0384
  413MOL0     C55646   6.633   8.819  11.987 -0.0661 -0.1694 -0.2774
  413MOL0     C55647   6.535   8.728  11.959  0.2338  0.2554 -0.4513
  413MOL0     C55648   6.420   8.795  11.893 -0.7036  0.5420 -0.8945
  413MOL0     C55649   6.546   8.588  11.985 -0.0159 -0.0417 -1.4404
  413MOL0     C55650   6.434   8.483  11.950 -0.5050  0.1556  0.0295
  413MOL0     O55651   6.328   8.525  11.876  0.4795  0.3248  0.3319
  413MOL0     C55652   6.214   8.456  11.852 -0.1039 -0.4405 -0.2880
  413MOL0     C55653   6.173   8.331  11.906 -0.3553 -1.2891 -0.1807
  413MOL0     C55654   6.064   8.255  11.864  0.4163 -0.0762 -0.5555
  413MOL0     C55655   5.973   8.318  11.781 -0.2906 -0.1872 -1.3243
  413MOL0     O55656   5.876   8.232  11.737 -0.2889  0.3092 -0.3632
  413MOL0     C55657   5.800   8.277  11.630 -0.2327  0.0293  0.3491
  413MOL0     C55658   5.882   8.229  11.498 -0.2251  0.5642 -0.0268
  413MOL0     C55659   5.918   8.081  11.492 -0.2286 -0.4191  0.9014
  413MOL0     C55660   5.802   7.984  11.486 -0.4221  0.3136 -0.6168
  413MOL0     C55661   5.846   7.848  11.524 -0.3025  0.2522  0.5154
  413MOL0     C55662   5.754   7.738  11.471  0.6114  1.0393 -0.1128
  413MOL0     C55663   5.796   7.597  11.501 -0.1018  0.3462 -0.1037
  413MOL0     C55664   5.892   7.544  11.400  0.6779  0.6642  0.2238
  413MOL0    Cl55665   5.795   7.502  11.257  0.0159  0.3103  0.1535
  413MOL0     C55666   6.003   8.451  11.732  0.3046  0.2517 -0.2068
  413MOL0     C55667   6.118   8.515  11.772  0.0012 -0.3339  0.3675
  413MOL0     O55668   6.473   8.366  11.957 -0.0609  0.7734 -0.3657
  413MOL0     C55669   6.667   8.552  12.040  0.9482  1.0770 -0.3288
  413MOL0     C55670   6.768   8.644  12.071 -0.1235  0.8596 -1.1577
  413MOL0     N55671   7.343   9.229  12.059  0.3402  0.2129  0.3402
  413MOL0     N55672   7.469   9.259  12.033  0.1213  0.8146  0.1598
  413MOL0     C55673   8.205   9.033  11.284  0.0022  0.3189  0.0089
  413MOL0     C55674   8.331   9.075  11.230  0.3782 -0.8625  0.7543
  413MOL0     C55675   8.769   9.006  11.104  0.3680  0.5921 -0.2838
  413MOL0     C55676   8.843   8.920  11.022 -0.1550 -0.0544  0.6213
  413MOL0     C55677   8.956   8.967  10.945  0.3404  0.9061 -0.5791
  413MOL0     C55678   8.996   9.100  10.950 -0.4265 -0.0356 -0.9577
  413MOL0     O55679   9.092   9.163  10.875  0.8462  0.4010 -0.1482
  413MOL0     C55680   9.142   9.085  10.764  0.5272  0.1997 -0.9558
  413MOL0     C55681   9.261   9.151  10.701 -0.1834  0.2015  0.6577
  413MOL0     C55682   9.234   9.293  10.653  0.6030 -0.8273 -0.1136
  413MOL0     C55683   9.362   9.364  10.607  0.0142  1.0745 -0.4189
  413MOL0     C55684   9.464   9.376  10.712  0.3535  0.3824  0.7762
  413MOL0     C55685   9.534   9.370  10.810  0.1524 -0.0768 -0.5126
  413MOL0     C55686   8.930   9.177  11.041 -0.9315 -0.0347  0.0498
  413MOL0     C55687   8.815   9.132  11.114 -0.5154  0.0128 -0.4970
  413MOL0     H55688   8.519   8.857  11.416 -0.1804 -0.8457 -1.8651
  413MOL0     H55689   8.297   8.786  11.500 -1.7930  0.3540  0.3123
  413MOL0     H55690   7.937   9.021  11.342 -2.5005  1.2331  1.5597
  413MOL0     H55691   7.916   8.857  11.290 -0.6831  0.8907 -0.0310
  413MOL0     H55692   7.731   8.898  11.432  1.0241 -0.2514 -1.6353
  413MOL0     H55693   7.850   8.796  11.521 -0.5530  0.0862  0.0280
  413MOL0     H55694   7.950   9.028  11.618  1.1182 -0.2470 -0.5548
  413MOL0     H55695   7.798   9.103  11.568 -1.9136 -1.0096  2.6587
  413MOL0     H55696   7.662   8.941  11.691 -0.2167 -3.0802 -1.8568
  413MOL0     H55697   7.812   8.846  11.728  0.5039  0.2193 -2.4450
  413MOL0     H55698   7.881   9.054  11.855 -1.5876 -0.2743  4.5302
  413MOL0     H55699   7.729   9.129  11.804 -2.4491 -0.0578  2.5911
  413MOL0     H55700   7.591   8.972  11.929 -0.7086 -1.0214  0.1457
  413MOL0     H55701   7.715   8.862  11.942 -0.7805  0.2279 -0.6961
  413MOL0     H55702   7.673   8.955  12.168 -1.8810 -0.3288 -2.7463
  413MOL0     H55703   7.826   9.013  12.125  0.9171 -0.4132  0.4916
  413MOL0     H55704   7.735   9.223  12.012  1.4478 -0.7194 -0.8271
  413MOL0     H55705   7.754   9.212  12.189 -1.9922 -2.4478  2.2679
  413MOL0     H55706   7.510   9.082  12.308 -0.5989  1.7198  1.7040
  413MOL0     H55707   7.222   9.107  12.350 -3.9476 -0.7065  0.3779
  413MOL0     H55708   7.141   9.184  12.220  0.7220  0.1618 -0.2090
  413MOL0     H55709   7.194   8.895  12.254 -0.7520 -2.7739 -4.1787
  413MOL0     H55710   7.207   8.954  12.090 -0.7626 -3.7884  0.4341
  413MOL0     H55711   6.997   9.054  12.090  1.6506 -2.3203 -1.7337
  413MOL0     H55712   6.970   9.046  12.262 -2.0736 -0.7377 -0.0472
  413MOL0     H55713   6.931   8.816  12.260  2.5228 -0.3019  0.7250
  413MOL0     H55714   7.020   8.801  12.106  1.9153  2.3267 -0.4382
  413MOL0     H55715   6.622   8.924  11.961 -2.9368 -0.6121 -1.1699
  413MOL0     H55716   6.324   8.750  11.918 -0.7152  1.8800  1.8653
  413MOL0     H55717   6.408   8.902  11.914  1.2508  0.7311 -0.5130
  413MOL0     H55718   6.432   8.781  11.785 -1.7674  2.7931 -1.3566
  413MOL0     H55719   6.255   8.291  11.965  0.6331  3.9929  2.6933
  413MOL0     H55720   6.056   8.152  11.897  0.8734 -0.1689 -0.7194
  413MOL0     H55721   5.700   8.232  11.624  0.1887 -0.8459 -0.3366
  413MOL0     H55722   5.785   8.385  11.632 -1.6937 -0.1547  0.6322
  413MOL0     H55723   5.818   8.245  11.410 -0.7176  2.0629  0.5733
  413MOL0     H55724   5.976   8.284  11.495  0.6131 -0.8524 -0.3420
  413MOL0     H55725   5.975   8.056  11.582 -0.4484  0.2016  1.2181
  413MOL0     H55726   5.986   8.066  11.408 -2.2522 -1.9131 -0.5977
  413MOL0     H55727   5.725   8.007  11.560  2.3521  0.8187  2.3945
  413MOL0     H55728   5.765   7.986  11.383  1.8762 -2.0021 -1.6095
  413MOL0     H55729   5.852   7.836  11.633  3.0921 -0.5930  0.3666
  413MOL0     H55730   5.947   7.823  11.490 -0.6428 -1.9745  0.9474
  413MOL0     H55731   5.657   7.752  11.520 -0.2791  0.6210 -1.7026
  413MOL0     H55732   5.753   7.756  11.363  4.0731  0.0817 -0.4136
  413MOL0     H55733   5.717   7.522  11.507 -0.1486  0.4810  1.0672
  413MOL0     H55734   5.854   7.604  11.593 -1.8111  1.0831  0.9702
  413MOL0     H55735   5.931   7.449  11.439  1.3475  0.0749 -1.7363
  413MOL0     H55736   5.970   7.618  11.381  1.3410 -0.4324 -1.6862
  413MOL0     H55737   5.937   8.505  11.665  0.8559  0.0316 -0.9537
  413MOL0     H55738   6.131   8.616  11.733 -2.2540  0.0684  0.5530
  413MOL0     H55739   6.682   8.446  12.060  3.1208  1.5752  0.9996
  413MOL0     H55740   6.850   8.600  12.127 -2.0012 -2.7992 -1.0205
  413MOL0     H55741   8.119   9.088  11.247 -1.2203 -0.5785  1.4068
  413MOL0     H55742   8.336   9.157  11.160  0.4374  1.3504  3.1800
  413MOL0     H55743   8.819   8.815  11.007  1.3670  0.1150 -5.0019
  413MOL0     H55744   9.010   8.893  10.885  1.4383  1.9946 -0.9699
  413MOL0     H55745   9.160   8.984  10.803 -1.3048  0.4898  0.8087
  413MOL0     H55746   9.066   9.081  10.685  0.8949  2.6229 -1.5152
  413MOL0     H55747   9.305   9.095  10.618  0.0231  0.1524  0.7992
  413MOL0     H55748   9.333   9.169  10.782 -0.8315 -0.6017  1.4328
  413MOL0     H55749   9.184   9.354  10.728  1.9264  2.3449 -1.6076
  413MOL0     H55750   9.175   9.302  10.561  0.5903  0.9947  0.0489
  413MOL0     H55751   9.341   9.468  10.582  0.9308  0.7969 -2.5227
  413MOL0     H55752   9.402   9.309  10.521 -0.3952  0.2363 -0.0807
  413MOL0     H55753   9.598   9.361  10.896  1.4710  2.5169 -1.1010
  413MOL0     H55754   8.958   9.279  11.067 -1.7160  0.1239  0.3108
  413MOL0     H55755   8.767   9.203  11.181  0.7120  1.5470 -1.1738
  414MOL0     O55756   6.014   9.961   5.770  0.4084 -0.0882  0.2287
  414MOL0     C55757   6.004   9.885   5.866 -0.6994  0.0989 -0.5686
  414MOL0     O55758   5.891   9.867   5.944  0.3847  0.2096  0.2327
  414MOL0     C55759   5.782   9.940   5.921  0.4436 -0.4922  0.2272
  414MOL0     C55760   5.775  10.075   5.904  0.3345 -0.0458  0.7152
  414MOL0     C55761   5.649  10.127   5.877 -0.4550  0.6076  0.4399
  414MOL0     C55762   5.529  10.052   5.868  0.3159 -0.1860  0.2021
  414MOL0     O55763   5.414  10.108   5.834 -0.4839 -0.3370 -0.0632
  414MOL0     C55764   5.397  10.143   5.694 -0.9815  1.2577  0.6495
  414MOL0     C55765   5.254  10.177   5.657  0.4620 -0.5297  0.3578
  414MOL0     C55766   5.162  10.055   5.670 -0.1762  0.0281  0.1809
  414MOL0     C55767   5.035  10.064   5.587 -0.7265 -0.6298 -1.3510
  414MOL0     C55768   4.949  10.188   5.603 -0.0627 -0.3521 -0.0094
  414MOL0     C55769   4.833  10.179   5.506  0.4909 -0.1965  0.5295
  414MOL0     C55770   4.725  10.276   5.537  0.5542 -0.2005 -1.0892
  414MOL0     C55771   4.608  10.249   5.446  0.2583  0.6869  0.1575
  414MOL0     N55772   4.505  10.361   5.440 -0.1591  0.7007 -0.0502
  414MOL0     C55773   4.363  10.340   5.433 -0.0385  0.1755 -0.8757
  414MOL0     C55774   4.314  10.467   5.415  0.3071  0.4829  1.5718
  414MOL0     C55775   4.170  10.509   5.389  0.0946 -0.3622 -0.7095
  414MOL0     C55776   4.153  10.645   5.330  0.0640 -0.4685 -0.1094
  414MOL0     C55777   4.012  10.678   5.288  0.7644  0.3870  0.1945
  414MOL0     C55778   3.898  10.609   5.365 -0.9882  0.9712 -0.0339
  414MOL0     O55779   3.786  10.694   5.348 -0.3118 -0.3296  0.3866
  414MOL0     C55780   3.674  10.666   5.422 -0.2159 -0.1554 -0.7633
  414MOL0     C55781   3.660  10.575   5.531  0.0219 -0.2341  0.2404
  414MOL0     C55782   3.543  10.550   5.596 -0.1902  0.9173  0.5532
  414MOL0     C55783   3.553  10.459   5.724  0.1399 -0.3804  0.9001
  414MOL0     C55784   3.433  10.632   5.570  0.3325  0.3165 -0.2352
  414MOL0     C55785   3.313  10.630   5.652  0.2267  0.3678  0.2147
  414MOL0     O55786   3.196  10.643   5.592  0.4098  0.2439 -0.9119
  414MOL0     C55787   3.078  10.663   5.661  0.3881  0.1931 -0.5962
  414MOL0     C55788   2.969  10.575   5.643 -0.1521  0.1821 -0.2970
  414MOL0     C55789   2.849  10.598   5.707 -0.1620  0.7967 -0.2714
  414MOL0     C55790   2.836  10.705   5.798 -0.3086  0.1543 -0.1552
  414MOL0     O55791   2.729  10.734   5.876 -0.3054  0.1273 -0.7045
  414MOL0     C55792   2.624  10.644   5.860  0.3247  0.8009 -0.2945
  414MOL0     C55793   2.518  10.682   5.957 -0.0005  0.3132  0.2066
  414MOL0     C55794   2.412  10.579   5.948 -0.5608  0.5061 -0.5246
  414MOL0     C55795   2.276  10.651   5.977  0.4778  0.1793 -0.2143
  414MOL0     C55796   2.160  10.543   5.999 -0.0097 -0.5588  0.4398
  414MOL0     C55797   2.113  10.470   5.874  0.2395 -0.3942 -0.1972
  414MOL0     C55798   2.021  10.564   5.791 -0.1441 -0.6371 -0.1305
  414MOL0     C55799   1.949  10.490   5.683 -0.0220  0.2515  0.5886
  414MOL0    Cl55800   2.058  10.421   5.557 -0.0342 -0.3175  0.1225
  414MOL0     C55801   2.945  10.794   5.819  0.0492 -0.2077 -0.3125
  414MOL0     C55802   3.062  10.771   5.749 -1.1767 -0.4207 -0.0759
  414MOL0     O55803   3.325  10.625   5.779 -0.3884  0.3709  0.3105
  414MOL0     C55804   3.444  10.733   5.473 -1.2503 -0.2547  0.1099
  414MOL0     C55805   3.563  10.748   5.400 -0.4337  0.3864 -0.3205
  414MOL0     N55806   4.425  10.552   5.397  0.0712  0.3383 -0.8268
  414MOL0     N55807   4.534  10.487   5.405  0.7567 -1.0081 -0.2187
  414MOL0     C55808   5.536   9.920   5.897 -0.4942  0.1751  0.0371
  414MOL0     C55809   5.663   9.858   5.915 -0.0059 -0.2507 -0.4490
  414MOL0     C55810   6.126   9.813   5.906 -0.8598  0.1693  0.4568
  414MOL0     C55811   6.123   9.689   5.977  0.2752  1.0427 -0.1849
  414MOL0     C55812   6.236   9.614   6.013 -0.1308 -0.3926 -0.8802
  414MOL0     C55813   6.360   9.676   5.981  0.3686  0.4053  0.3141
  414MOL0     O55814   6.470   9.612   6.027  0.1380  0.6201 -0.6149
  414MOL0     C55815   6.598   9.687   6.025  0.2135  0.3638 -0.0230
  414MOL0     C55816   6.713   9.590   6.016 -0.2790  0.3782  0.2199
  414MOL0     C55817   6.704   9.503   5.898 -0.3712 -0.4836 -0.4423
  414MOL0     C55818   6.808   9.395   5.890 -0.2609  0.5599 -0.2826
  414MOL0     C55819   6.762   9.299   5.787  1.0334  0.2064 -0.1911
  414MOL0     C55820   6.713   9.231   5.700 -0.3220  0.0016  0.3398
  414MOL0     C55821   6.365   9.802   5.918  0.6871 -0.3139  0.3610
  414MOL0     C55822   6.253   9.868   5.877 -0.0744 -0.3629 -0.8570
  414MOL0     H55823   5.857  10.144   5.920  0.5438 -0.4270  1.3646
  414MOL0     H55824   5.634  10.233   5.859  4.7867  2.1559  3.0249
  414MOL0     H55825   5.464  10.224   5.665  0.2040  0.6517  1.6275
  414MOL0     H55826   5.427  10.057   5.634 -0.0598  1.4102  0.8742
  414MOL0     H55827   5.221  10.265   5.714 -2.3330 -0.6538 -0.9186
  414MOL0     H55828   5.259  10.201   5.551  0.3133  1.8950  0.8224
  414MOL0     H55829   5.218   9.969   5.631 -0.1363  0.0709  0.1425
  414MOL0     H55830   5.141  10.037   5.775 -2.0591 -1.5437 -0.4037
  414MOL0     H55831   5.071  10.055   5.484 -0.0491  1.2461 -1.3155
  414MOL0     H55832   4.974   9.976   5.611 -0.0596 -0.7656 -0.0996
  414MOL0     H55833   4.913  10.202   5.705  3.7444 -0.1005  1.4603
  414MOL0     H55834   5.017  10.273   5.590  0.7895 -0.7878  1.4586
  414MOL0     H55835   4.853  10.190   5.399 -5.1585  0.9297 -0.7370
  414MOL0     H55836   4.785  10.082   5.523 -1.9597  0.6496 -1.0648
  414MOL0     H55837   4.693  10.269   5.641 -1.8133  2.2152 -1.5382
  414MOL0     H55838   4.747  10.382   5.525  1.8962 -0.1376  1.3395
  414MOL0     H55839   4.570  10.158   5.493  0.8486 -0.4563 -1.4932
  414MOL0     H55840   4.641  10.227   5.344 -1.0327 -1.1159  0.0923
  414MOL0     H55841   4.315  10.245   5.453  1.3837 -0.4008 -0.1001
  414MOL0     H55842   4.131  10.432   5.321 -0.7261 -2.4438  1.9313
  414MOL0     H55843   4.126  10.495   5.488  2.8896  2.7316  1.1732
  414MOL0     H55844   4.212  10.652   5.238  1.5256 -2.1740  0.6361
  414MOL0     H55845   4.192  10.722   5.397  1.2106 -1.0883 -0.0462
  414MOL0     H55846   3.999  10.669   5.180 -5.5432 -1.3682  0.6826
  414MOL0     H55847   3.996  10.785   5.304  2.0022  1.0555 -2.4435
  414MOL0     H55848   3.933  10.603   5.469  1.2840 -1.3634 -0.8198
  414MOL0     H55849   3.874  10.510   5.326  2.0265  2.1058 -5.9286
  414MOL0     H55850   3.741  10.507   5.554  3.5749  2.6891 -2.4407
  414MOL0     H55851   3.478  10.380   5.725 -0.1546 -0.1894 -1.2637
  414MOL0     H55852   3.645  10.399   5.718 -1.1670 -2.4024 -0.2435
  414MOL0     H55853   3.539  10.518   5.814 -0.9102  1.0295 -0.1574
  414MOL0     H55854   2.969  10.485   5.584  1.1135  0.8704 -1.3953
  414MOL0     H55855   2.779  10.519   5.681  0.3285  0.7249 -1.4643
  414MOL0     H55856   2.587  10.642   5.757 -1.2055  1.3790  0.2250
  414MOL0     H55857   2.655  10.542   5.884  1.7684  1.6655  1.8414
  414MOL0     H55858   2.558  10.692   6.058 -0.5289  0.4208  0.4077
  414MOL0     H55859   2.477  10.781   5.934 -1.0778 -0.3767 -0.9812
  414MOL0     H55860   2.425  10.502   6.025  0.4198  2.5285  1.4558
  414MOL0     H55861   2.410  10.529   5.851 -2.4595  0.7413 -0.6375
  414MOL0     H55862   2.275  10.709   6.069  2.3410  1.0701 -0.6909
  414MOL0     H55863   2.253  10.716   5.891 -2.1912 -0.1512  0.1642
  414MOL0     H55864   2.081  10.603   6.044 -0.7219 -2.1150  1.3073
  414MOL0     H55865   2.186  10.478   6.083 -0.4125  0.8451  1.6838
  414MOL0     H55866   2.200  10.445   5.812 -0.1407 -0.7449 -0.5928
  414MOL0     H55867   2.064  10.375   5.894 -2.5208  0.6504 -1.5478
  414MOL0     H55868   2.076  10.641   5.737 -1.1064 -1.6236 -2.6907
  414MOL0     H55869   1.948  10.607   5.861  0.2215  0.4392 -0.4026
  414MOL0     H55870   1.881  10.559   5.632  0.8575  1.7212  1.3488
  414MOL0     H55871   1.894  10.408   5.731  2.6883 -0.4831  2.7089
  414MOL0     H55872   2.942  10.875   5.891  1.6639  0.6172 -1.1184
  414MOL0     H55873   3.140  10.843   5.769  0.8281 -3.0662  2.5128
  414MOL0     H55874   3.364  10.803   5.453 -1.2302  0.3225  1.8923
  414MOL0     H55875   3.581  10.828   5.329  0.9670  0.9334  0.6104
  414MOL0     H55876   5.447   9.865   5.924 -0.3522  0.2875  0.7642
  414MOL0     H55877   5.664   9.751   5.935 -0.4778 -0.1593  0.0981
  414MOL0     H55878   6.022   9.659   6.003  0.0890  0.8520 -1.0839
  414MOL0     H55879   6.225   9.525   6.074 -0.0265  0.0462 -0.2088
  414MOL0     H55880   6.618   9.748   5.936  2.7372  0.3402  0.4523
  414MOL0     H55881   6.613   9.751   6.112  2.5877  1.4365 -1.1184
  414MOL0     H55882   6.727   9.535   6.110 -1.2330 -0.1392  0.0700
  414MOL0     H55883   6.805   9.648   6.003  1.4767 -1.7830  2.0289
  414MOL0     H55884   6.718   9.557   5.804 -0.6865 -0.1436 -0.2942
  414MOL0     H55885   6.609   9.449   5.896 -0.1624 -0.8675 -0.2683
  414MOL0     H55886   6.827   9.345   5.985 -2.2644 -0.7600 -0.5358
  414MOL0     H55887   6.902   9.440   5.855 -0.7642  2.1746  0.3614
  414MOL0     H55888   6.668   9.182   5.616  1.6201 -0.0919 -0.7157
  414MOL0     H55889   6.459   9.848   5.892  0.1532  1.7035  1.7607
  414MOL0     H55890   6.236   9.970   5.844 -3.0897  0.5540  2.7604
  415MOL0     O55891   6.355   8.516   7.091  0.2178  0.2831  0.4839
  415MOL0     C55892   6.422   8.462   7.178 -0.3169  0.0302 -0.6575
  415MOL0     O55893   6.382   8.377   7.269  0.2409 -0.0730  0.0728
  415MOL0     C55894   6.251   8.349   7.295  0.2615  0.2370  0.5358
  415MOL0     C55895   6.138   8.369   7.218  0.6699  0.6566  0.9715
  415MOL0     C55896   6.009   8.342   7.276 -0.1592  0.1566  0.0723
  415MOL0     C55897   5.994   8.293   7.406  0.5473 -0.0078 -0.9536
  415MOL0     O55898   5.873   8.264   7.465  0.8415  0.1616  0.1266
  415MOL0     C55899   5.774   8.365   7.446 -0.7486 -1.1411 -0.7469
  415MOL0     C55900   5.653   8.326   7.534  0.0038  0.3853  0.0020
  415MOL0     C55901   5.589   8.198   7.465 -0.2554  0.1078  0.1063
  415MOL0     C55902   5.484   8.140   7.561 -0.2061  0.5212  0.5611
  415MOL0     C55903   5.431   8.016   7.485 -0.1057 -0.3818 -1.7462
  415MOL0     C55904   5.318   7.946   7.563 -0.1504  0.1874  0.0256
  415MOL0     C55905   5.250   7.842   7.470  0.0967 -0.4198 -0.7243
  415MOL0     C55906   5.140   7.759   7.556  0.2806  0.4233 -0.6004
  415MOL0     N55907   5.037   7.852   7.593  0.4930 -0.1272 -0.3869
  415MOL0     C55908   4.949   7.914   7.505  0.5209  0.7568 -0.5542
  415MOL0     C55909   4.869   7.990   7.565  0.9571 -0.4554 -1.0207
  415MOL0     C55910   4.756   8.071   7.510  0.6657  0.2160 -0.4295
  415MOL0     C55911   4.640   7.977   7.462 -0.1289 -0.7489  0.3947
  415MOL0     C55912   4.547   7.938   7.576  1.0454  1.0913  0.5696
  415MOL0     C55913   4.462   8.055   7.633 -0.9359 -0.5209 -0.3791
  415MOL0     O55914   4.374   7.991   7.723 -0.6660 -0.8721 -0.1485
  415MOL0     C55915   4.247   8.037   7.725 -0.8293 -0.7703 -0.7320
  415MOL0     C55916   4.213   8.173   7.718 -0.0395  0.2137 -0.3525
  415MOL0     C55917   4.081   8.219   7.712 -0.0794  0.0784 -0.1557
  415MOL0     C55918   4.070   8.371   7.717 -0.0151  0.0883 -0.3253
  415MOL0     C55919   3.975   8.125   7.721 -0.3216 -0.4143  0.6096
  415MOL0     C55920   3.825   8.160   7.728 -0.0047  0.2589 -0.3377
  415MOL0     O55921   3.728   8.070   7.690 -0.5152 -0.4622  0.2044
  415MOL0     C55922   3.598   8.086   7.714  0.4003 -0.0766 -0.6215
  415MOL0     C55923   3.531   8.203   7.674 -0.1141  0.3451 -0.4413
  415MOL0     C55924   3.395   8.206   7.676 -0.0161 -0.5227  0.7859
  415MOL0     C55925   3.320   8.102   7.738 -0.8093  0.6541 -0.1665
  415MOL0     O55926   3.184   8.097   7.736 -0.0611 -0.1936  0.5642
  415MOL0     C55927   3.098   8.213   7.737 -0.5491  0.1661 -0.9254
  415MOL0     C55928   2.953   8.181   7.756  0.0206 -0.2525 -0.1069
  415MOL0     C55929   2.890   8.109   7.633  0.1023  0.1174  0.3240
  415MOL0     C55930   2.735   8.125   7.631  0.2837 -0.1008 -0.4246
  415MOL0     C55931   2.694   8.268   7.613 -0.4441 -0.4661  0.3176
  415MOL0     C55932   2.544   8.277   7.581  1.3275  0.0373 -0.2343
  415MOL0     C55933   2.514   8.425   7.549  0.2501  0.3093  0.2943
  415MOL0     C55934   2.369   8.431   7.494 -0.5309  0.0580 -0.3204
  415MOL0    Cl55935   2.328   8.600   7.526  0.2729  0.5169 -0.0365
  415MOL0     C55936   3.382   7.986   7.788 -0.3544 -0.4833 -0.7830
  415MOL0     C55937   3.521   7.983   7.771  0.9116  0.7130 -0.6756
  415MOL0     O55938   3.793   8.269   7.764 -0.1390 -0.0368  0.1332
  415MOL0     C55939   4.011   7.987   7.732  0.1342  0.3890  0.3179
  415MOL0     C55940   4.143   7.945   7.741 -0.0156  0.5767 -0.4711
  415MOL0     N55941   4.901   7.984   7.696  0.9549  0.1114 -0.0215
  415MOL0     N55942   5.008   7.910   7.708 -0.4098  0.4163 -0.9766
  415MOL0     C55943   6.108   8.280   7.487  0.0096 -0.2179  0.5805
  415MOL0     C55944   6.237   8.303   7.428  0.5203 -0.3428  0.8625
  415MOL0     C55945   6.572   8.497   7.196 -0.7846  0.0234 -0.9343
  415MOL0     C55946   6.640   8.480   7.322  0.4177 -0.2715 -1.4915
  415MOL0     C55947   6.772   8.517   7.335  0.1298  0.6069 -0.9766
  415MOL0     C55948   6.848   8.575   7.238 -0.2071 -0.3125 -0.0251
  415MOL0     O55949   6.978   8.606   7.271  0.4411 -0.1941 -0.0948
  415MOL0     C55950   7.068   8.632   7.164  0.3456  0.3768  0.6939
  415MOL0     C55951   7.083   8.777   7.125  0.1937  0.4404 -0.1618
  415MOL0     C55952   7.158   8.843   7.247 -0.4952 -0.1427  0.1939
  415MOL0     C55953   7.235   8.961   7.190  0.5562 -0.3968 -0.7369
  415MOL0     C55954   7.126   9.064   7.163  0.2549  0.0311 -0.3089
  415MOL0     C55955   7.029   9.133   7.136  0.0198 -0.0690 -0.0692
  415MOL0     C55956   6.776   8.618   7.120 -0.0581  0.0745  0.2682
  415MOL0     C55957   6.641   8.561   7.095 -0.4298 -0.6796  0.6678
  415MOL0     H55958   6.138   8.407   7.116 -2.2056 -0.1515  0.5843
  415MOL0     H55959   5.913   8.353   7.225  0.1189 -1.3439 -0.8381
  415MOL0     H55960   5.806   8.466   7.475  0.9974 -1.7711 -0.3434
  415MOL0     H55961   5.737   8.372   7.344 -2.4377  2.7023 -0.0347
  415MOL0     H55962   5.684   8.302   7.636  2.5909 -1.7808 -1.1777
  415MOL0     H55963   5.573   8.400   7.525 -0.5656 -0.2060  0.1199
  415MOL0     H55964   5.542   8.225   7.370  1.1289  0.3877 -0.5332
  415MOL0     H55965   5.671   8.126   7.448 -1.1032 -1.1219  1.0260
  415MOL0     H55966   5.540   8.110   7.651 -0.4039 -1.6785 -0.0060
  415MOL0     H55967   5.405   8.212   7.583 -1.5748 -1.0775  1.1145
  415MOL0     H55968   5.395   8.043   7.385 -0.5416  0.1040 -1.4630
  415MOL0     H55969   5.509   7.942   7.464  0.8587  0.4747 -1.2757
  415MOL0     H55970   5.362   7.905   7.655  1.2826 -0.9064 -1.1068
  415MOL0     H55971   5.245   8.020   7.599 -0.5446  0.5136 -1.3920
  415MOL0     H55972   5.197   7.889   7.386 -0.9935  0.7214  0.5572
  415MOL0     H55973   5.317   7.766   7.428 -2.5907 -1.5518 -3.4293
  415MOL0     H55974   5.184   7.711   7.645 -0.6377 -1.7811 -1.2851
  415MOL0     H55975   5.093   7.678   7.501 -2.7858  2.3665 -1.1007
  415MOL0     H55976   4.943   7.887   7.400  0.0675  3.4270 -1.2676
  415MOL0     H55977   4.711   8.145   7.577 -0.9513  0.4687 -1.7295
  415MOL0     H55978   4.792   8.124   7.422 -1.3345 -1.1615 -2.1979
  415MOL0     H55979   4.681   7.886   7.417  1.4961  1.1900 -2.4018
  415MOL0     H55980   4.579   8.036   7.393  0.2100 -0.5309  0.2793
  415MOL0     H55981   4.601   7.890   7.659 -3.2033 -2.4644  1.6967
  415MOL0     H55982   4.480   7.857   7.547  0.4996  1.1282  1.6583
  415MOL0     H55983   4.406   8.098   7.550 -1.3336 -1.2217 -0.4852
  415MOL0     H55984   4.518   8.131   7.688 -2.1648  0.9049 -1.0272
  415MOL0     H55985   4.294   8.245   7.720  1.0449 -0.9677 -0.3099
  415MOL0     H55986   4.031   8.401   7.815  0.8868 -1.3244  0.5050
  415MOL0     H55987   4.166   8.421   7.713  0.5900 -1.0826 -4.6361
  415MOL0     H55988   4.017   8.415   7.633 -0.2939  1.6029  0.6018
  415MOL0     H55989   3.586   8.290   7.640 -1.7368  1.0337 -1.4208
  415MOL0     H55990   3.347   8.297   7.642  0.6986  0.1924  1.6378
  415MOL0     H55991   3.128   8.278   7.820  2.0740  0.0346 -1.6803
  415MOL0     H55992   3.110   8.274   7.647  1.9215  2.0283  0.5370
  415MOL0     H55993   2.950   8.124   7.849 -0.5756 -0.6506 -0.3637
  415MOL0     H55994   2.901   8.275   7.776 -2.2933 -1.6663  0.9531
  415MOL0     H55995   2.905   8.002   7.617 -0.4046 -0.1901  1.7296
  415MOL0     H55996   2.933   8.162   7.548  0.8912  0.7902  1.1228
  415MOL0     H55997   2.706   8.069   7.542 -3.3502  1.1363 -0.1559
  415MOL0     H55998   2.706   8.076   7.724  3.5293  1.4999  1.5974
  415MOL0     H55999   2.747   8.314   7.529  0.7041  0.0397  1.2980
  415MOL0     H56000   2.702   8.335   7.699 -2.1405  0.0204  0.1318
  415MOL0     H56001   2.522   8.215   7.494  1.2600 -1.1221  0.5898
  415MOL0     H56002   2.485   8.240   7.665  3.1719 -3.9277 -0.4344
  415MOL0     H56003   2.582   8.459   7.471  2.2983 -2.0955  0.8904
  415MOL0     H56004   2.531   8.477   7.643  3.4161 -0.3878  0.2311
  415MOL0     H56005   2.304   8.359   7.543 -0.3128  1.5487  2.3800
  415MOL0     H56006   2.376   8.405   7.388  4.1539 -4.0782  0.6668
  415MOL0     H56007   3.329   7.900   7.828  1.0393  0.0940  2.6171
  415MOL0     H56008   3.565   7.885   7.786 -2.7609 -1.1477 -0.9466
  415MOL0     H56009   3.936   7.909   7.736  0.3813  0.0494 -1.3204
  415MOL0     H56010   4.152   7.838   7.752 -2.8693  0.1252 -1.5495
  415MOL0     H56011   6.096   8.239   7.587  0.1945 -3.2280 -0.5304
  415MOL0     H56012   6.326   8.293   7.488  0.6783  2.2656  1.1713
  415MOL0     H56013   6.594   8.431   7.407  0.9552  0.8355 -0.5345
  415MOL0     H56014   6.811   8.493   7.434  0.1482 -1.5742 -1.4551
  415MOL0     H56015   7.162   8.590   7.201  1.2637  0.6980 -1.1533
  415MOL0     H56016   7.044   8.579   7.070 -0.0978 -1.1458  1.6182
  415MOL0     H56017   6.985   8.824   7.115  0.1089  0.6556  1.4224
  415MOL0     H56018   7.144   8.787   7.035  2.6260  1.3201  1.4712
  415MOL0     H56019   7.244   8.776   7.257  1.4523  1.4065 -3.6908
  415MOL0     H56020   7.093   8.859   7.333 -0.2914 -0.0893  0.3401
  415MOL0     H56021   7.294   8.946   7.099  0.2311 -0.1741 -0.9854
  415MOL0     H56022   7.300   8.991   7.273 -1.1876 -1.0987  0.9734
  415MOL0     H56023   6.938   9.180   7.102 -2.0267 -1.7509  2.6916
  415MOL0     H56024   6.823   8.686   7.050  1.3556 -0.2676  0.8500
  415MOL0     H56025   6.594   8.599   7.005 -0.3896 -0.5493  0.7016
  416MOL0     O56026   4.582  10.765   6.679  0.6579 -0.0850 -1.1210
  416MOL0     C56027   4.648  10.662   6.698 -0.2543  0.3762 -0.3899
  416MOL0     O56028   4.592  10.542   6.727 -0.3747  1.0150  0.1967
  416MOL0     C56029   4.459  10.533   6.739 -0.2106 -0.2394  0.1586
  416MOL0     C56030   4.402  10.511   6.862 -0.2506  0.5945 -0.5676
  416MOL0     C56031   4.256  10.524   6.863 -0.6456  0.5009 -0.2204
  416MOL0     C56032   4.169  10.534   6.758 -0.4118 -0.5137  0.0203
  416MOL0     O56033   4.034  10.539   6.787 -0.7408  0.5249  0.6052
  416MOL0     C56034   3.945  10.570   6.676  0.2189  0.8508 -0.7622
  416MOL0     C56035   3.810  10.560   6.739  0.8236  0.1999 -0.4123
  416MOL0     C56036   3.694  10.581   6.637  0.2064  0.2109  0.5149
  416MOL0     C56037   3.564  10.638   6.689  0.0515 -0.2811 -0.5607
  416MOL0     C56038   3.477  10.701   6.587  0.3314  0.4897  0.7303
  416MOL0     C56039   3.367  10.783   6.642  0.4322 -0.2094  1.4821
  416MOL0     C56040   3.254  10.807   6.550  0.4640  0.5572  0.7719
  416MOL0     C56041   3.192  10.950   6.572 -0.6548  0.4850 -0.7077
  416MOL0     N56042   3.098  10.947   6.691 -0.3562  0.7758 -0.5144
  416MOL0     C56043   2.997  10.854   6.701  0.2260 -0.2774 -0.5263
  416MOL0     C56044   2.916  10.901   6.799 -0.1387 -1.0802  0.3161
  416MOL0     C56045   2.809  10.822   6.868 -0.8205 -0.3174  0.2989
  416MOL0     C56046   2.698  10.791   6.763 -0.3433  0.5014  0.4601
  416MOL0     C56047   2.598  10.696   6.814  0.6591  0.3615 -0.6307
  416MOL0     C56048   2.554  10.702   6.969 -0.3036  0.0327  0.8791
  416MOL0     O56049   2.466  10.817   6.993  0.6028  0.0560 -0.3620
  416MOL0     C56050   2.332  10.792   7.000 -0.4280  0.0639 -0.2557
  416MOL0     C56051   2.272  10.699   6.924  0.3541 -0.3009  0.9583
  416MOL0     C56052   2.133  10.683   6.905 -0.2047 -1.1168 -0.3251
  416MOL0     C56053   2.082  10.586   6.801 -0.5927 -0.3928 -0.3456
  416MOL0     C56054   2.055  10.765   6.983  0.2182 -0.4783 -0.2225
  416MOL0     C56055   1.911  10.750   6.986 -0.4549  0.7447  0.5439
  416MOL0     O56056   1.837  10.860   6.998  0.2590 -0.8572  1.0641
  416MOL0     C56057   1.710  10.865   7.055  1.4206  1.0581 -0.5812
  416MOL0     C56058   1.651  10.761   7.125  0.4270 -0.0196 -1.0743
  416MOL0     C56059   1.518  10.768   7.162  0.3499  0.9533  0.7140
  416MOL0     C56060   1.434  10.879   7.137  0.1112 -0.6286  0.3742
  416MOL0     O56061   1.315  10.873   7.206 -0.3096  0.3123  0.7117
  416MOL0     C56062   1.211  10.966   7.169 -0.0589  0.2989 -0.2968
  416MOL0     C56063   1.090  10.941   7.249  0.1249  0.8100 -0.3216
  416MOL0     C56064   1.036  10.802   7.223  0.2076 -0.0035 -0.1418
  416MOL0     C56065   0.893  10.797   7.270 -0.1829 -0.3153  0.0062
  416MOL0     C56066   0.837  10.661   7.244 -0.3800  0.3637 -0.4806
  416MOL0     C56067   0.697  10.655   7.301 -0.4813  0.1331 -0.4373
  416MOL0     C56068   0.631  10.525   7.242 -0.2892  0.3605 -0.1285
  416MOL0     C56069   0.483  10.525   7.252  0.3127 -0.0923  0.0939
  416MOL0    Cl56070   0.420  10.559   7.414 -0.1765  0.1479  0.2616
  416MOL0     C56071   1.500  10.989   7.073  1.1314  0.3272 -0.0905
  416MOL0     C56072   1.634  10.978   7.025  0.2533 -0.2841 -0.0928
  416MOL0     O56073   1.868  10.635   7.004 -0.0985  0.5229 -0.8433
  416MOL0     C56074   2.114  10.874   7.054  0.4366  0.4192  0.2028
  416MOL0     C56075   2.247  10.880   7.070 -0.8440 -0.0207 -0.6226
  416MOL0     N56076   2.961  11.025   6.842 -0.0219  0.4754  0.1291
  416MOL0     N56077   3.064  11.059   6.772  0.8206  0.0152  0.3072
  416MOL0     C56078   4.230  10.564   6.635 -0.1001 -0.5377 -0.1803
  416MOL0     C56079   4.371  10.567   6.628 -0.1768 -0.4325  0.5976
  416MOL0     C56080   4.789  10.673   6.705 -0.5136 -0.8700 -0.4748
  416MOL0     C56081   4.866  10.572   6.756 -0.0790 -0.1601  0.3427
  416MOL0     C56082   4.999  10.600   6.798 -0.6420 -0.5639 -0.1848
  416MOL0     C56083   5.057  10.730   6.763  0.2058  0.5281  0.2282
  416MOL0     O56084   5.193  10.749   6.779  0.1809  0.1422  0.4711
  416MOL0     C56085   5.270  10.640   6.831 -0.3226  0.7623  0.1156
  416MOL0     C56086   5.418  10.674   6.815  0.0262  0.5671  0.4206
  416MOL0     C56087   5.454  10.814   6.858 -0.2007  0.7043  0.0627
  416MOL0     C56088   5.595  10.865   6.832  0.2141  0.2908  0.7679
  416MOL0     C56089   5.689  10.780   6.889 -1.4575 -0.4628 -1.1715
  416MOL0     C56090   5.765  10.711   6.959  0.6803  0.4829  0.0884
  416MOL0     C56091   4.984  10.826   6.698  0.6598 -0.3362 -0.0364
  416MOL0     C56092   4.851  10.793   6.670 -0.2197 -0.0209 -0.4560
  416MOL0     H56093   4.457  10.479   6.949 -0.5823 -1.1989 -0.9810
  416MOL0     H56094   4.210  10.507   6.960 -2.8223  0.6580 -1.1718
  416MOL0     H56095   3.968  10.672   6.645  0.6221  0.5140 -1.5931
  416MOL0     H56096   3.969  10.508   6.589  0.8876 -1.0501  0.6890
  416MOL0     H56097   3.792  10.463   6.787 -2.0033  0.3149 -1.0574
  416MOL0     H56098   3.803  10.638   6.815  1.1868  1.1617 -1.3388
  416MOL0     H56099   3.723  10.657   6.564 -0.3785 -1.5831 -1.7148
  416MOL0     H56100   3.681  10.485   6.587 -0.9045  0.3666  0.4837
  416MOL0     H56101   3.511  10.575   6.761 -0.8385  1.5907  0.4811
  416MOL0     H56102   3.610  10.713   6.754 -0.1740 -1.3766  0.9160
  416MOL0     H56103   3.534  10.768   6.522  0.1658 -1.5440 -1.6412
  416MOL0     H56104   3.447  10.629   6.511 -0.9898  0.3143  1.3947
  416MOL0     H56105   3.322  10.750   6.737 -0.6825 -0.2881  0.9508
  416MOL0     H56106   3.417  10.874   6.674 -1.8258  0.5795  3.0740
  416MOL0     H56107   3.296  10.813   6.449  0.0544  1.5830  0.6444
  416MOL0     H56108   3.170  10.739   6.562  1.1194 -0.2959  0.5734
  416MOL0     H56109   3.130  10.978   6.486  2.1242 -0.1830 -3.0993
  416MOL0     H56110   3.276  11.020   6.581  0.9975 -1.5030  0.0432
  416MOL0     H56111   2.972  10.761   6.651  0.5715  0.1185 -1.4616
  416MOL0     H56112   2.838  10.726   6.910  0.6984  0.9797  2.4398
  416MOL0     H56113   2.775  10.877   6.956  1.9957 -0.1013  1.3656
  416MOL0     H56114   2.741  10.755   6.669  0.4567 -0.2264  1.0918
  416MOL0     H56115   2.637  10.881   6.755 -0.2164  0.6580  1.2084
  416MOL0     H56116   2.629  10.592   6.802 -2.4471 -1.0390  1.9349
  416MOL0     H56117   2.510  10.706   6.751  1.3690 -0.8315 -1.8743
  416MOL0     H56118   2.646  10.721   7.026 -0.1571  1.9149  0.0971
  416MOL0     H56119   2.512  10.605   6.996  0.7771 -0.7627 -0.1748
  416MOL0     H56120   2.335  10.632   6.867  1.1060  2.4450 -1.6616
  416MOL0     H56121   2.078  10.492   6.857  1.4970  0.1677  0.8290
  416MOL0     H56122   1.988  10.605   6.748  0.6869  1.4129 -2.1417
  416MOL0     H56123   2.148  10.572   6.714 -1.6182 -2.8230 -0.8193
  416MOL0     H56124   1.704  10.670   7.149  1.4865  0.8715  0.0937
  416MOL0     H56125   1.464  10.687   7.208 -3.6436  1.9258 -1.8221
  416MOL0     H56126   1.257  11.063   7.192  0.0813  0.2603 -0.4172
  416MOL0     H56127   1.183  10.969   7.064 -1.4251  1.9531  0.0653
  416MOL0     H56128   1.103  10.957   7.357 -3.1843 -0.5715  0.3900
  416MOL0     H56129   1.012  11.016   7.232  1.4638  2.1424 -0.8225
  416MOL0     H56130   1.088  10.723   7.279  1.4551 -0.6502 -2.0906
  416MOL0     H56131   1.043  10.777   7.117  0.0602  1.7831 -0.6010
  416MOL0     H56132   0.894  10.821   7.376  0.3237  0.7908 -0.2367
  416MOL0     H56133   0.835  10.880   7.230  3.2184  1.4601 -1.6868
  416MOL0     H56134   0.890  10.573   7.279 -0.0055  0.9910  0.5664
  416MOL0     H56135   0.830  10.647   7.135  0.0811  1.3765 -0.6562
  416MOL0     H56136   0.699  10.650   7.410 -0.3022 -0.4068 -0.4628
  416MOL0     H56137   0.635  10.739   7.269 -0.7790  0.4393  0.8962
  416MOL0     H56138   0.672  10.438   7.294 -0.5024  0.8609  0.9183
  416MOL0     H56139   0.656  10.530   7.136  1.6930  1.7748  0.3416
  416MOL0     H56140   0.441  10.432   7.212  0.4434  0.2407 -0.8376
  416MOL0     H56141   0.440  10.606   7.192  0.0944 -1.0918 -1.1281
  416MOL0     H56142   1.464  11.090   7.059  1.7278  0.5052 -0.3570
  416MOL0     H56143   1.669  11.063   6.967 -1.7112  0.3407 -0.4543
  416MOL0     H56144   2.048  10.929   7.120  0.0387 -0.4183  0.5176
  416MOL0     H56145   2.279  10.964   7.131 -2.0213  0.6528 -0.8961
  416MOL0     H56146   4.175  10.597   6.548  0.2352 -3.4914 -1.6376
  416MOL0     H56147   4.413  10.617   6.542 -0.9716 -1.2771 -0.3136
  416MOL0     H56148   4.817  10.482   6.793  1.4859  0.1397  3.4962
  416MOL0     H56149   5.060  10.522   6.842  1.3133  0.3208 -1.2059
  416MOL0     H56150   5.254  10.629   6.938  2.5725 -2.4162  0.3656
  416MOL0     H56151   5.253  10.545   6.779  1.0081 -0.1661  1.3176
  416MOL0     H56152   5.444  10.659   6.710  2.5093 -0.3534  1.1081
  416MOL0     H56153   5.482  10.598   6.859  0.3171 -0.7559 -2.1137
  416MOL0     H56154   5.437  10.823   6.966  0.7130 -1.0049  0.3817
  416MOL0     H56155   5.399  10.884   6.794  0.7647 -1.4215 -3.3705
  416MOL0     H56156   5.595  10.973   6.849 -3.9551  0.6645 -0.4501
  416MOL0     H56157   5.614  10.856   6.725  2.1232  1.5743  0.9445
  416MOL0     H56158   5.829  10.653   7.023 -0.3827 -0.2881  0.4687
  416MOL0     H56159   5.028  10.923   6.676  2.8301 -1.1186  0.6976
  416MOL0     H56160   4.792  10.878   6.636  0.3473  0.6288  0.1630
  417MOL0     O56161   1.673   0.768   6.401  0.3336  0.1658  0.3002
  417MOL0     C56162   1.767   0.700   6.368 -1.0778  0.1000  0.2085
  417MOL0     O56163   1.763   0.570   6.338  0.1870 -0.2863  0.3556
  417MOL0     C56164   1.644   0.504   6.308  0.8483  0.2248 -0.0334
  417MOL0     C56165   1.654   0.362   6.278  0.0339 -0.5861 -0.2130
  417MOL0     C56166   1.541   0.289   6.248  0.8548  0.1778 -0.2586
  417MOL0     C56167   1.414   0.343   6.228 -0.0669 -0.3533  0.1130
  417MOL0     O56168   1.328   0.257   6.184 -0.1494 -0.5715  0.0551
  417MOL0     C56169   1.192   0.293   6.145  0.6037  0.1468  0.3855
  417MOL0     C56170   1.193   0.361   6.011 -0.2444  0.6146  0.0978
  417MOL0     C56171   1.296   0.296   5.926  0.1275  0.2435  0.8097
  417MOL0     C56172   1.278   0.338   5.784 -0.2141  0.4356 -0.9047
  417MOL0     C56173   1.334   0.477   5.767  0.4149 -0.9100  0.4113
  417MOL0     C56174   1.365   0.528   5.622  0.1511  0.3134 -0.8476
  417MOL0     C56175   1.249   0.503   5.522  0.1409 -0.1083  0.5923
  417MOL0     C56176   1.134   0.600   5.548  0.8572  0.0257  0.4433
  417MOL0     N56177   1.023   0.575   5.455 -0.2329  0.4599  0.7155
  417MOL0     C56178   0.930   0.476   5.475  0.0875 -0.3073  1.0490
  417MOL0     C56179   0.850   0.472   5.364  0.7581 -0.2586  0.0682
  417MOL0     C56180   0.725   0.393   5.342 -0.1811 -0.1761  0.8491
  417MOL0     C56181   0.616   0.458   5.245  0.0451  0.3047  0.0837
  417MOL0     C56182   0.503   0.351   5.211 -0.5113 -0.2318 -0.1519
  417MOL0     C56183   0.382   0.409   5.154 -0.5577 -0.0971 -0.9071
  417MOL0     O56184   0.301   0.300   5.110 -0.0333 -0.5190 -0.2215
  417MOL0     C56185   0.170   0.330   5.072 -0.3206 -0.5367  0.7360
  417MOL0     C56186   0.090   0.221   5.054  0.9011 -0.1708  0.1137
  417MOL0     C56187  -0.047   0.236   5.039 -0.1475 -0.6289  0.2278
  417MOL0     C56188  -0.121   0.101   5.020  0.5391 -0.9735 -0.4615
  417MOL0     C56189  -0.102   0.365   5.021 -0.7226 -0.5776  0.3887
  417MOL0     C56190  -0.251   0.395   4.997  0.5312  0.5523  0.5056
  417MOL0     O56191  -0.284   0.521   4.995  0.1010 -0.4900 -0.2245
  417MOL0     C56192  -0.417   0.557   5.016  0.7699 -0.7007  0.2653
  417MOL0     C56193  -0.512   0.550   4.914  0.3431 -0.3097  0.7823
  417MOL0     C56194  -0.650   0.567   4.947 -0.2620  0.2064 -0.0263
  417MOL0     C56195  -0.684   0.609   5.074  0.3862 -0.3995 -0.2319
  417MOL0     O56196  -0.816   0.627   5.097  0.0178 -0.1567  0.2213
  417MOL0     C56197  -0.853   0.764   5.114 -0.0366 -0.4460 -0.0369
  417MOL0     C56198  -1.002   0.781   5.137  0.1062 -0.1664  0.5267
  417MOL0     C56199  -1.065   0.735   5.269  0.0317  0.5836 -0.4926
  417MOL0     C56200  -1.209   0.680   5.264  0.4802 -0.1067  0.8205
  417MOL0     C56201  -1.265   0.632   5.400 -1.3713 -0.6360  0.5074
  417MOL0     C56202  -1.417   0.637   5.393  1.3503 -0.4221 -0.4068
  417MOL0     C56203  -1.475   0.572   5.523 -0.3219  0.6697  0.1967
  417MOL0     C56204  -1.626   0.577   5.529 -0.7151 -0.1112  0.1489
  417MOL0    Cl56205  -1.701   0.490   5.390 -0.1668 -0.3740 -0.2169
  417MOL0     C56206  -0.589   0.636   5.173 -0.6580  0.5952 -0.0680
  417MOL0     C56207  -0.454   0.598   5.143  0.0327  0.3168  0.5075
  417MOL0     O56208  -0.327   0.305   4.963 -0.6821  0.4893 -0.1338
  417MOL0     C56209  -0.014   0.480   5.035  0.6264  0.2786  0.2735
  417MOL0     C56210   0.119   0.460   5.062  0.0017  0.3957  0.8161
  417MOL0     N56211   0.894   0.568   5.282 -0.0041 -0.7988  0.4060
  417MOL0     N56212   1.002   0.629   5.327 -0.0089 -0.1214 -0.8625
  417MOL0     C56213   1.397   0.477   6.251 -0.3367  0.3972  0.3362
  417MOL0     C56214   1.515   0.557   6.285  0.9149  0.3813  0.2197
  417MOL0     C56215   1.898   0.769   6.362  0.0459  0.4673  0.3635
  417MOL0     C56216   1.920   0.899   6.409 -0.0142  0.5174  0.3932
  417MOL0     C56217   2.048   0.957   6.411  0.7479 -0.1787  0.1580
  417MOL0     C56218   2.156   0.878   6.367 -0.2834 -0.0979 -0.3865
  417MOL0     O56219   2.282   0.926   6.360  0.7330 -0.5648 -0.3684
  417MOL0     C56220   2.321   1.020   6.465  0.3781  0.3201  0.0103
  417MOL0     C56221   2.465   0.991   6.494  0.2371 -0.2549 -0.3160
  417MOL0     C56222   2.520   1.079   6.614 -0.2073  1.0035  0.9417
  417MOL0     C56223   2.676   1.087   6.610  0.0186 -0.8880  0.5854
  417MOL0     C56224   2.736   0.975   6.678 -0.7320 -0.2521 -0.3256
  417MOL0     C56225   2.795   0.881   6.729  0.2440 -0.8128 -1.3049
  417MOL0     C56226   2.127   0.760   6.302  1.5311 -0.1444 -0.6759
  417MOL0     C56227   2.002   0.700   6.304  0.6960  0.7626  0.6276
  417MOL0     H56228   1.752   0.314   6.282  1.2536  1.8007  1.5379
  417MOL0     H56229   1.545   0.184   6.221 -4.7204  0.0044 -1.6538
  417MOL0     H56230   1.133   0.202   6.130  0.3506  0.3009  0.4429
  417MOL0     H56231   1.144   0.348   6.226 -1.4968 -0.3347 -0.4658
  417MOL0     H56232   1.090   0.351   5.973 -0.7889  1.2206  1.3580
  417MOL0     H56233   1.225   0.465   6.017  3.2189 -0.3386  0.2606
  417MOL0     H56234   1.400   0.312   5.956  0.9440 -1.8155 -0.6659
  417MOL0     H56235   1.280   0.188   5.931 -0.4862  0.1921 -1.3059
  417MOL0     H56236   1.325   0.265   5.717  1.6395  1.1148 -0.4040
  417MOL0     H56237   1.171   0.332   5.762 -0.7498 -0.7504  1.6292
  417MOL0     H56238   1.259   0.545   5.809  3.1243  1.8587  1.1216
  417MOL0     H56239   1.416   0.508   5.832  1.0808 -0.3171 -0.6937
  417MOL0     H56240   1.387   0.636   5.622 -0.7147  0.5275  0.9870
  417MOL0     H56241   1.453   0.480   5.578  1.9830  2.6418  0.0279
  417MOL0     H56242   1.272   0.518   5.416 -1.2533 -0.9938  0.1441
  417MOL0     H56243   1.221   0.398   5.529  0.9054 -0.2624  1.4428
  417MOL0     H56244   1.168   0.703   5.535  1.0969  0.2665  2.6416
  417MOL0     H56245   1.097   0.583   5.649  0.1405  1.9031  0.5237
  417MOL0     H56246   0.916   0.412   5.561 -1.3378 -1.0683  0.2897
  417MOL0     H56247   0.750   0.293   5.306  4.2639  1.0519 -0.1009
  417MOL0     H56248   0.674   0.381   5.438 -0.9685 -0.0080  0.4597
  417MOL0     H56249   0.658   0.480   5.146  1.6909 -1.4989  0.3163
  417MOL0     H56250   0.567   0.546   5.287  1.4884  0.1102  2.3232
  417MOL0     H56251   0.471   0.289   5.296 -2.6669  0.1336 -0.6432
  417MOL0     H56252   0.545   0.281   5.138 -2.1183 -1.0943 -0.3075
  417MOL0     H56253   0.410   0.476   5.072 -4.0257  2.2162 -0.4151
  417MOL0     H56254   0.336   0.469   5.232 -1.2599 -0.3078 -1.1462
  417MOL0     H56255   0.148   0.130   5.058  1.4642  0.2165  2.8840
  417MOL0     H56256  -0.171   0.075   5.113  0.0963  0.6118 -0.2279
  417MOL0     H56257  -0.203   0.126   4.952  0.5745  0.9738  0.1600
  417MOL0     H56258  -0.056   0.021   4.982  0.5966 -1.1509  0.0137
  417MOL0     H56259  -0.495   0.507   4.816 -1.8783 -2.5576  1.2868
  417MOL0     H56260  -0.727   0.553   4.872  0.6206  2.6212 -1.5076
  417MOL0     H56261  -0.809   0.822   5.196 -3.8201  0.1532  1.8417
  417MOL0     H56262  -0.822   0.803   5.017  0.1049  0.4053  0.3407
  417MOL0     H56263  -1.018   0.888   5.124  2.3620  0.5778  2.9236
  417MOL0     H56264  -1.052   0.728   5.055  2.1742  0.7414 -1.4408
  417MOL0     H56265  -1.064   0.821   5.336 -2.8375 -1.6032  2.7089
  417MOL0     H56266  -0.998   0.661   5.314  0.0867 -0.8674 -2.7817
  417MOL0     H56267  -1.264   0.771   5.237  1.6291 -0.7192 -4.7265
  417MOL0     H56268  -1.221   0.599   5.191  0.9573 -0.0200  0.6431
  417MOL0     H56269  -1.238   0.697   5.483 -1.0835 -1.2151  0.8752
  417MOL0     H56270  -1.226   0.534   5.429 -1.2657 -0.6059  0.4681
  417MOL0     H56271  -1.446   0.742   5.388  2.0823 -0.1880  0.1390
  417MOL0     H56272  -1.456   0.592   5.302 -0.4414  0.7374 -0.2603
  417MOL0     H56273  -1.423   0.623   5.605  1.6291 -2.4898  1.1196
  417MOL0     H56274  -1.437   0.469   5.517 -0.6395  0.6395 -3.7360
  417MOL0     H56275  -1.661   0.680   5.542  0.3378  0.2726  0.0734
  417MOL0     H56276  -1.659   0.531   5.622 -0.9698  1.8100  1.0682
  417MOL0     H56277  -0.620   0.671   5.271  0.2244  0.6283  0.2085
  417MOL0     H56278  -0.376   0.616   5.216  0.8498  0.2277 -0.3306
  417MOL0     H56279  -0.056   0.577   5.013  1.0994  0.6691  1.0458
  417MOL0     H56280   0.186   0.543   5.078 -0.4424  0.8313  0.4621
  417MOL0     H56281   1.300   0.525   6.248  0.4367  1.9688 -0.9574
  417MOL0     H56282   1.490   0.662   6.291  0.6759  0.2540  1.6536
  417MOL0     H56283   1.836   0.950   6.453  0.0143  0.0343  1.0178
  417MOL0     H56284   2.054   1.062   6.436 -2.1098  0.7510 -2.3786
  417MOL0     H56285   2.299   1.118   6.422 -2.4351 -0.6844 -1.0504
  417MOL0     H56286   2.259   1.009   6.555  1.6539  0.5401  0.9609
  417MOL0     H56287   2.522   1.007   6.402  2.5217  0.2586  1.1014
  417MOL0     H56288   2.461   0.884   6.516 -0.6864 -0.1449  0.0744
  417MOL0     H56289   2.489   1.045   6.713 -2.5988 -2.4674 -0.8044
  417MOL0     H56290   2.491   1.184   6.602 -4.1656 -0.1718 -2.0206
  417MOL0     H56291   2.688   1.177   6.670  2.4289 -0.6232 -0.2070
  417MOL0     H56292   2.727   1.109   6.516  0.2368 -1.1432  0.6411
  417MOL0     H56293   2.830   0.785   6.763 -0.5323 -0.6909 -0.0750
  417MOL0     H56294   2.203   0.715   6.239  0.4477 -1.2433 -1.2419
  417MOL0     H56295   2.002   0.600   6.262  3.7610  2.0123 -2.8930
  418MOL0     O56296   0.159   0.884  10.396  0.0870  0.4681 -0.4475
  418MOL0     C56297   0.172   0.964  10.488 -0.5975 -0.1209  0.8700
  418MOL0     O56298   0.066   0.993  10.576 -0.5004  0.7933  1.1970
  418MOL0     C56299  -0.045   0.924  10.559 -0.5948  0.3254  0.2215
  418MOL0     C56300  -0.152   0.958  10.476  0.8634  0.7192 -0.2753
  418MOL0     C56301  -0.269   0.881  10.476  0.0828 -1.5862  0.6304
  418MOL0     C56302  -0.289   0.765  10.553  0.2379 -0.5939  0.3791
  418MOL0     O56303  -0.403   0.695  10.570  0.1826 -0.0172  0.2974
  418MOL0     C56304  -0.512   0.737  10.489  0.3980  0.5092 -0.3515
  418MOL0     C56305  -0.621   0.636  10.491 -0.2422 -0.9958  0.3011
  418MOL0     C56306  -0.689   0.643  10.632 -0.7886 -0.6395  0.3818
  418MOL0     C56307  -0.830   0.596  10.626  0.9332 -0.0011 -0.3121
  418MOL0     C56308  -0.902   0.573  10.755  0.2722  0.2389 -0.2428
  418MOL0     C56309  -1.056   0.563  10.737  0.6318  0.0307 -0.7549
  418MOL0     C56310  -1.091   0.469  10.625  0.5218  0.1242  0.3080
  418MOL0     C56311  -1.244   0.450  10.637  0.2314  0.2379  0.5283
  418MOL0     N56312  -1.293   0.357  10.523 -0.0653  0.3268  0.2217
  418MOL0     C56313  -1.396   0.376  10.433  0.2904  0.0638 -0.7561
  418MOL0     C56314  -1.418   0.262  10.368  0.1538  0.1172 -0.3630
  418MOL0     C56315  -1.526   0.218  10.268 -0.3486  0.2501  0.0693
  418MOL0     C56316  -1.667   0.278  10.289  0.0908 -1.0389  0.0685
  418MOL0     C56317  -1.763   0.215  10.187 -0.9708 -0.1720 -0.7524
  418MOL0     C56318  -1.897   0.269  10.193 -0.4424 -0.2592  0.7759
  418MOL0     O56319  -1.948   0.246  10.325  1.2283  0.2396 -0.4898
  418MOL0     C56320  -2.085   0.272  10.337 -0.2643  0.8399  0.1282
  418MOL0     C56321  -2.149   0.210  10.442 -0.3360 -0.0470  0.2748
  418MOL0     C56322  -2.279   0.238  10.467  0.1169  0.5561  0.5552
  418MOL0     C56323  -2.340   0.158  10.582 -0.2331 -0.5063  0.1168
  418MOL0     C56324  -2.361   0.332  10.394  0.3807  0.1093  1.2057
  418MOL0     C56325  -2.508   0.358  10.411  0.0254 -0.5303 -0.1395
  418MOL0     O56326  -2.579   0.408  10.308 -0.2605  0.4466 -0.6030
  418MOL0     C56327  -2.700   0.464  10.341  0.0652  0.7978 -0.5657
  418MOL0     C56328  -2.814   0.428  10.258  0.7193 -0.3234  0.7472
  418MOL0     C56329  -2.939   0.487  10.284  0.7761  0.9398  1.8602
  418MOL0     C56330  -2.958   0.584  10.382  0.2308 -0.5613 -0.7033
  418MOL0     O56331  -3.086   0.634  10.397  0.1153 -0.6215 -0.8098
  418MOL0     C56332  -3.148   0.620  10.530 -0.1371  1.0933  0.6568
  418MOL0     C56333  -3.295   0.608  10.518  0.5305 -0.1752 -0.1362
  418MOL0     C56334  -3.328   0.466  10.450  0.2526 -1.1588 -0.6430
  418MOL0     C56335  -3.482   0.449  10.428 -0.8245  0.3691  0.0753
  418MOL0     C56336  -3.499   0.331  10.330 -0.0199 -0.5604  0.4405
  418MOL0     C56337  -3.634   0.312  10.253  0.4144  0.5570  0.3557
  418MOL0     C56338  -3.628   0.202  10.140 -0.0016 -0.0765  0.0087
  418MOL0     C56339  -3.765   0.132  10.129 -0.3091 -0.9275 -0.0388
  418MOL0    Cl56340  -3.729  -0.004  10.022 -0.1050 -0.0508 -0.1941
  418MOL0     C56341  -2.851   0.612  10.463  0.0193 -0.4611 -0.3013
  418MOL0     C56342  -2.725   0.553  10.440  0.0705 -1.1276  0.6340
  418MOL0     O56343  -2.555   0.330  10.520 -0.0943  0.6082 -0.8823
  418MOL0     C56344  -2.291   0.403  10.293  0.3484  0.4490  0.8918
  418MOL0     C56345  -2.159   0.371  10.260 -0.3249  0.1143 -0.2775
  418MOL0     N56346  -1.315   0.182  10.406 -0.1448  0.1805  0.6738
  418MOL0     N56347  -1.242   0.228  10.502 -0.0712  0.0292 -0.1965
  418MOL0     C56348  -0.178   0.724  10.627 -0.3532  0.8792 -1.3895
  418MOL0     C56349  -0.058   0.801  10.630 -0.3539  0.0600 -0.4455
  418MOL0     C56350   0.304   1.012  10.516  0.5195 -0.5355 -0.6777
  418MOL0     C56351   0.326   1.097  10.619  0.0511 -0.0108 -0.0435
  418MOL0     C56352   0.453   1.148  10.656  0.6912 -0.9511 -0.8053
  418MOL0     C56353   0.562   1.110  10.580 -0.5690 -0.6346 -0.1719
  418MOL0     O56354   0.693   1.157  10.604 -0.4101 -0.0445 -0.5671
  418MOL0     C56355   0.731   1.115  10.739  0.5059 -0.9141  0.5964
  418MOL0     C56356   0.878   1.073  10.744 -0.5497  0.2688  0.2066
  418MOL0     C56357   0.972   1.196  10.775  0.3380 -0.0333  0.3042
  418MOL0     C56358   1.122   1.147  10.764  0.1740 -0.3058 -0.2858
  418MOL0     C56359   1.211   1.265  10.789  0.5183  0.2717  0.7327
  418MOL0     C56360   1.269   1.372  10.800 -0.7648 -0.8159  0.6753
  418MOL0     C56361   0.548   1.021  10.476 -0.8159  0.1426  0.6795
  418MOL0     C56362   0.418   0.969  10.444 -1.3792 -1.0342  0.7874
  418MOL0     H56363  -0.131   1.036  10.403 -0.0485  0.5308 -0.7529
  418MOL0     H56364  -0.347   0.909  10.406  1.4854 -1.7673 -1.0884
  418MOL0     H56365  -0.552   0.831  10.530  0.4511  0.3552  0.0522
  418MOL0     H56366  -0.476   0.751  10.386  2.2753 -1.1361  0.0232
  418MOL0     H56367  -0.685   0.666  10.407  0.1801  0.6904  0.5404
  418MOL0     H56368  -0.591   0.535  10.462  2.7671 -0.2265  0.3356
  418MOL0     H56369  -0.627   0.582  10.699  0.8659  0.1580 -0.3604
  418MOL0     H56370  -0.690   0.744  10.674  1.1346 -1.0341  1.4672
  418MOL0     H56371  -0.891   0.665  10.567  0.6631  0.4105  0.4413
  418MOL0     H56372  -0.845   0.503  10.570 -0.4619  0.1784 -0.2731
  418MOL0     H56373  -0.863   0.474  10.781 -1.3322 -0.8303 -1.6210
  418MOL0     H56374  -0.884   0.657  10.822 -1.1495  0.0916  0.3669
  418MOL0     H56375  -1.086   0.524  10.835  0.6489  0.1796 -0.6904
  418MOL0     H56376  -1.101   0.662  10.730  0.2197  0.2423  2.9296
  418MOL0     H56377  -1.067   0.500  10.522 -1.3790 -0.6642 -0.4207
  418MOL0     H56378  -1.042   0.374  10.644 -2.7749 -2.2543 -1.9696
  418MOL0     H56379  -1.302   0.543  10.635  1.9750  1.4186  1.8225
  418MOL0     H56380  -1.264   0.411  10.737  2.7494  1.8752  1.7640
  418MOL0     H56381  -1.467   0.458  10.434 -1.4997 -1.4254 -0.1988
  418MOL0     H56382  -1.488   0.241  10.168 -0.2894 -0.8101 -0.1646
  418MOL0     H56383  -1.529   0.110  10.282  1.6254  0.5236  3.9064
  418MOL0     H56384  -1.666   0.384  10.262 -0.5128 -0.6683  1.3898
  418MOL0     H56385  -1.705   0.262  10.390 -0.5626  3.3276  0.6989
  418MOL0     H56386  -1.763   0.112  10.225 -1.8938  1.1027  3.0758
  418MOL0     H56387  -1.717   0.213  10.088  2.7902 -1.7069  0.8123
  418MOL0     H56388  -1.963   0.226  10.117 -0.5513 -0.1896  0.8298
  418MOL0     H56389  -1.889   0.377  10.180  0.8117 -0.5723 -1.4391
  418MOL0     H56390  -2.107   0.139  10.512  1.8451 -0.5985 -1.4765
  418MOL0     H56391  -2.411   0.091  10.532  2.1732 -2.0642 -1.4728
  418MOL0     H56392  -2.268   0.095  10.636  0.2909 -1.6445 -1.8051
  418MOL0     H56393  -2.390   0.215  10.660  0.5996  1.4661 -0.7306
  418MOL0     H56394  -2.823   0.354  10.179 -4.0553  2.0646 -1.2965
  418MOL0     H56395  -3.024   0.465  10.220  1.4342  2.9142  0.1910
  418MOL0     H56396  -3.124   0.520  10.567  1.7346  0.2556 -2.4422
  418MOL0     H56397  -3.120   0.692  10.607 -1.8204  0.2704  2.1071
  418MOL0     H56398  -3.341   0.611  10.618 -0.2313 -1.7726 -0.4075
  418MOL0     H56399  -3.339   0.688  10.459  1.1455  0.9557  0.8873
  418MOL0     H56400  -3.297   0.380  10.510  1.4603 -2.8721 -3.4942
  418MOL0     H56401  -3.274   0.460  10.355 -0.3784  1.1876 -1.2101
  418MOL0     H56402  -3.534   0.438  10.524  1.2861 -0.3402  1.2052
  418MOL0     H56403  -3.518   0.534  10.370 -3.0239 -1.5390 -1.5402
  418MOL0     H56404  -3.480   0.237  10.383 -0.2037 -0.2551  1.0570
  418MOL0     H56405  -3.420   0.345  10.255  0.3751  0.9672  1.1109
  418MOL0     H56406  -3.709   0.276  10.324  1.3878  0.6698  1.4738
  418MOL0     H56407  -3.676   0.400  10.204 -0.8564 -0.0556  0.3015
  418MOL0     H56408  -3.555   0.125  10.166  1.4891  1.4917  0.6631
  418MOL0     H56409  -3.586   0.240  10.046  1.5809  0.9542  1.0761
  418MOL0     H56410  -3.841   0.200  10.090  1.0623  0.6152 -0.1387
  418MOL0     H56411  -3.799   0.107  10.230  1.0177 -0.9427  0.4227
  418MOL0     H56412  -2.860   0.686  10.541 -0.3906 -0.4431 -0.3686
  418MOL0     H56413  -2.647   0.573  10.511 -0.7349 -3.5976  2.3567
  418MOL0     H56414  -2.341   0.473  10.227 -1.3686  0.8845  2.5574
  418MOL0     H56415  -2.107   0.422  10.180  0.5933 -2.6827 -1.5675
  418MOL0     H56416  -0.183   0.627  10.676 -3.6101 -0.9124 -4.7704
  418MOL0     H56417   0.012   0.757  10.701 -1.1591 -1.4462 -0.5280
  418MOL0     H56418   0.236   1.135  10.665 -0.5613 -0.3770 -0.9094
  418MOL0     H56419   0.469   1.213  10.742 -0.4981  0.5300 -1.6385
  418MOL0     H56420   0.703   1.194  10.809 -0.7917 -0.6723 -0.1563
  418MOL0     H56421   0.667   1.031  10.766 -1.0720 -0.2052 -0.6975
  418MOL0     H56422   0.915   1.025  10.653  3.1796  1.4377  0.9193
  418MOL0     H56423   0.887   0.997  10.823  3.2063  0.3383  0.0270
  418MOL0     H56424   0.950   1.250  10.868  0.6279  0.7204 -0.0531
  418MOL0     H56425   0.957   1.275  10.702  1.8737  2.0025  2.0474
  418MOL0     H56426   1.141   1.095  10.670 -0.7866  0.1440 -0.7357
  418MOL0     H56427   1.162   1.079  10.840  0.2576  1.9776  1.8667
  418MOL0     H56428   1.305   1.473  10.811 -0.5830 -0.6968 -0.7828
  418MOL0     H56429   0.644   1.002  10.430 -0.3704  0.1286  1.6059
  418MOL0     H56430   0.423   0.893  10.366  0.3942 -0.6441  0.4881
  419MOL0     O56431   0.153   6.695   4.160 -0.2656 -0.1513  0.0396
  419MOL0     C56432   0.224   6.601   4.184  0.0692  0.5587  0.2315
  419MOL0     O56433   0.180   6.477   4.225  0.5220  0.6572 -0.2286
  419MOL0     C56434   0.045   6.442   4.239 -0.3446  0.5420  0.4098
  419MOL0     C56435   0.011   6.307   4.204 -0.3579 -0.2308  0.4659
  419MOL0     C56436  -0.126   6.260   4.233 -1.0157  0.3226  0.6565
  419MOL0     C56437  -0.225   6.346   4.270 -0.0075  0.3536 -0.3218
  419MOL0     O56438  -0.359   6.310   4.299 -0.8638 -0.3341  0.0120
  419MOL0     C56439  -0.406   6.181   4.264 -0.1270  0.1227  0.1407
  419MOL0     C56440  -0.515   6.140   4.363 -0.7728 -0.0401 -0.5401
  419MOL0     C56441  -0.629   6.231   4.377  1.2985 -0.0762 -0.6314
  419MOL0     C56442  -0.741   6.153   4.455  0.1204 -0.4252 -0.1441
  419MOL0     C56443  -0.818   6.242   4.556 -0.3443  0.3844 -0.1456
  419MOL0     C56444  -0.895   6.352   4.488 -0.0638 -0.3053  0.0168
  419MOL0     C56445  -1.016   6.299   4.409 -0.7743 -0.9253 -0.2721
  419MOL0     C56446  -1.007   6.314   4.258  0.1801 -0.1565  0.7063
  419MOL0     N56447  -1.107   6.232   4.191 -0.5728  0.4702 -0.0847
  419MOL0     C56448  -1.116   6.093   4.181 -0.1073  0.3038  0.7673
  419MOL0     C56449  -1.248   6.056   4.172 -0.2341 -0.2282 -0.8054
  419MOL0     C56450  -1.296   5.915   4.182  0.7461  0.0515 -0.2004
  419MOL0     C56451  -1.262   5.840   4.307 -0.4165 -0.4313 -0.2574
  419MOL0     C56452  -1.345   5.709   4.332 -0.0447  0.6353 -0.0145
  419MOL0     C56453  -1.491   5.733   4.375 -0.8461 -0.8409  0.3119
  419MOL0     O56454  -1.550   5.594   4.377  0.1175 -0.2729 -0.3441
  419MOL0     C56455  -1.666   5.591   4.449  0.0427  0.0951 -0.3336
  419MOL0     C56456  -1.784   5.637   4.389 -0.4591  0.4122 -0.4774
  419MOL0     C56457  -1.904   5.611   4.452  0.1195 -0.5621  1.0632
  419MOL0     C56458  -2.023   5.669   4.383 -0.8276 -0.5028 -0.2880
  419MOL0     C56459  -1.917   5.544   4.576 -0.5952 -0.0987  0.2535
  419MOL0     C56460  -2.041   5.529   4.651  0.1297  0.4093 -0.0083
  419MOL0     O56461  -2.154   5.498   4.581  0.1940  0.1838 -0.5016
  419MOL0     C56462  -2.280   5.523   4.629 -0.4589 -0.8101 -0.0330
  419MOL0     C56463  -2.329   5.657   4.624 -0.8889  0.7543 -0.3104
  419MOL0     C56464  -2.449   5.689   4.669 -0.2323 -0.9705 -0.7065
  419MOL0     C56465  -2.543   5.591   4.695  0.2244  0.2963 -0.2865
  419MOL0     O56466  -2.675   5.612   4.707  0.6309  0.0267  0.4828
  419MOL0     C56467  -2.713   5.746   4.757 -0.9098 -0.5709  0.5601
  419MOL0     C56468  -2.865   5.752   4.775 -0.3183 -0.7706 -0.1338
  419MOL0     C56469  -2.930   5.805   4.643 -0.7796 -0.1052 -1.1561
  419MOL0     C56470  -3.076   5.817   4.675  0.3486 -0.3793  0.1715
  419MOL0     C56471  -3.154   5.837   4.545  0.8253  0.2444 -0.6907
  419MOL0     C56472  -3.302   5.875   4.594 -0.6179  0.6347  0.3296
  419MOL0     C56473  -3.379   5.749   4.644 -0.0322  0.5993  0.4453
  419MOL0     C56474  -3.503   5.801   4.717  0.1754  0.1510 -0.0700
  419MOL0    Cl56475  -3.612   5.881   4.610  0.2669  0.3407  0.4167
  419MOL0     C56476  -2.497   5.458   4.712  0.4614 -0.3523  0.1041
  419MOL0     C56477  -2.362   5.423   4.679  0.2526 -0.5066  0.2116
  419MOL0     O56478  -2.037   5.544   4.774  0.2384 -0.7319 -0.6978
  419MOL0     C56479  -1.794   5.500   4.632 -0.1817 -0.4988 -0.2297
  419MOL0     C56480  -1.675   5.521   4.569  0.5426  0.0196  0.7489
  419MOL0     N56481  -1.322   6.174   4.167 -0.8565  0.4504 -0.4293
  419MOL0     N56482  -1.232   6.275   4.172  0.3029  0.2837  0.3411
  419MOL0     C56483  -0.191   6.484   4.286  0.5977 -0.3024 -0.6875
  419MOL0     C56484  -0.053   6.533   4.284  0.5685 -0.0674 -1.4345
  419MOL0     C56485   0.366   6.615   4.176 -1.2346  0.4957 -0.1907
  419MOL0     C56486   0.428   6.737   4.150 -0.3192 -0.5742  0.5042
  419MOL0     C56487   0.569   6.760   4.166  0.4485  0.0369  0.7371
  419MOL0     C56488   0.653   6.652   4.178 -0.7310 -0.3114 -0.6654
  419MOL0     O56489   0.788   6.686   4.171  0.3453  0.9600 -0.2386
  419MOL0     C56490   0.890   6.582   4.167  0.1209 -0.0276 -0.4598
  419MOL0     C56491   1.028   6.642   4.198 -0.2517 -0.2799 -0.2938
  419MOL0     C56492   1.113   6.606   4.077 -0.0691 -0.5053 -0.1562
  419MOL0     C56493   1.239   6.700   4.080  0.7889  0.3607  0.5655
  419MOL0     C56494   1.328   6.686   3.966 -0.8790 -0.1363  0.3028
  419MOL0     C56495   1.395   6.670   3.866 -1.2231  0.8496  0.3246
  419MOL0     C56496   0.598   6.525   4.206  0.0179  0.0372  0.2088
  419MOL0     C56497   0.458   6.509   4.209  0.1571  0.2559 -0.5412
  419MOL0     H56498   0.098   6.254   4.167 -0.2628  1.1952 -1.5242
  419MOL0     H56499  -0.130   6.152   4.220  2.1707 -0.0315  1.7039
  419MOL0     H56500  -0.450   6.191   4.164 -2.1116 -0.9552  0.8511
  419MOL0     H56501  -0.325   6.108   4.269 -0.0140  0.2406  0.0301
  419MOL0     H56502  -0.557   6.045   4.326 -1.1454 -0.4025  0.7572
  419MOL0     H56503  -0.470   6.117   4.459 -0.4543  1.9977 -0.1736
  419MOL0     H56504  -0.586   6.320   4.423  3.0651 -0.2695 -1.8113
  419MOL0     H56505  -0.657   6.267   4.278  1.2439  0.5554 -0.3905
  419MOL0     H56506  -0.807   6.102   4.385 -2.8687  1.2418  1.2857
  419MOL0     H56507  -0.691   6.085   4.525  0.3480  1.2309  1.3728
  419MOL0     H56508  -0.888   6.186   4.617  0.2031  0.4393  0.5453
  419MOL0     H56509  -0.754   6.287   4.632  0.8104  1.0680 -1.4561
  419MOL0     H56510  -0.935   6.418   4.566 -3.6213 -1.2573 -0.8314
  419MOL0     H56511  -0.834   6.410   4.419 -2.4246  0.2200 -1.7344
  419MOL0     H56512  -1.023   6.192   4.432  0.0194 -0.4055  2.9776
  419MOL0     H56513  -1.109   6.348   4.437  1.0172  2.4422  0.3419
  419MOL0     H56514  -0.903   6.307   4.226 -0.1531 -1.6916 -0.1430
  419MOL0     H56515  -1.048   6.410   4.224 -3.4509 -1.3581  1.2092
  419MOL0     H56516  -1.032   6.025   4.185  0.0906  0.4297 -0.6869
  419MOL0     H56517  -1.405   5.923   4.181  0.5041 -2.2321 -2.4828
  419MOL0     H56518  -1.260   5.855   4.097  0.9968 -2.8915  1.8310
  419MOL0     H56519  -1.289   5.904   4.392 -1.7129 -2.7611  1.2043
  419MOL0     H56520  -1.156   5.813   4.306 -0.0659  0.8555 -1.4648
  419MOL0     H56521  -1.292   5.649   4.406  0.1820 -0.1575 -0.8055
  419MOL0     H56522  -1.362   5.650   4.241 -0.3922 -1.9766  1.6594
  419MOL0     H56523  -1.550   5.787   4.301 -0.3024 -0.0675  0.4312
  419MOL0     H56524  -1.492   5.793   4.467  1.5919  0.2309 -0.2945
  419MOL0     H56525  -1.784   5.676   4.288 -0.4521  0.4637 -0.4577
  419MOL0     H56526  -2.000   5.708   4.284 -0.0815 -1.2301 -0.4063
  419MOL0     H56527  -2.105   5.597   4.371  0.9666 -3.0964  1.7916
  419MOL0     H56528  -2.039   5.761   4.440 -2.8470 -0.4777 -0.8043
  419MOL0     H56529  -2.258   5.729   4.582 -0.8408  0.2390 -1.1313
  419MOL0     H56530  -2.466   5.796   4.674  0.7215 -0.8496  0.4939
  419MOL0     H56531  -2.670   5.773   4.854  0.3909  0.7780 -0.3443
  419MOL0     H56532  -2.681   5.828   4.692 -2.4761  0.5999  1.2101
  419MOL0     H56533  -2.908   5.654   4.794 -0.4213 -0.8457 -0.7457
  419MOL0     H56534  -2.889   5.814   4.862 -1.3301 -1.8219  0.3563
  419MOL0     H56535  -2.918   5.730   4.564 -0.1456  0.4443 -1.5880
  419MOL0     H56536  -2.887   5.900   4.611  0.7937  0.0785  1.1779
  419MOL0     H56537  -3.113   5.729   4.729 -1.3410 -0.5028 -1.0718
  419MOL0     H56538  -3.099   5.909   4.729 -0.6660  0.5680 -1.7465
  419MOL0     H56539  -3.143   5.740   4.495  3.5955  0.4419 -0.6379
  419MOL0     H56540  -3.110   5.912   4.479  2.4554 -0.4297 -0.4133
  419MOL0     H56541  -3.304   5.957   4.667 -0.7441  1.0543 -0.1454
  419MOL0     H56542  -3.348   5.917   4.504  1.0067  0.3903 -0.6585
  419MOL0     H56543  -3.320   5.681   4.705  2.7685  3.0374  0.6694
  419MOL0     H56544  -3.412   5.689   4.558 -2.7297 -0.7117  2.2533
  419MOL0     H56545  -3.474   5.870   4.796  2.1035  0.7100 -1.1940
  419MOL0     H56546  -3.555   5.711   4.751  3.5257 -2.2744 -0.8265
  419MOL0     H56547  -2.572   5.391   4.754 -1.8620  2.4369  0.7805
  419MOL0     H56548  -2.335   5.320   4.699 -2.2724 -0.9805  1.7391
  419MOL0     H56549  -1.792   5.460   4.733  1.8072 -0.0307 -0.0423
  419MOL0     H56550  -1.592   5.476   4.622 -1.2889 -0.6397  3.1954
  419MOL0     H56551  -0.273   6.544   4.323 -0.9249 -0.5645 -3.3659
  419MOL0     H56552  -0.029   6.636   4.304  3.2825 -0.8578 -0.2193
  419MOL0     H56553   0.366   6.826   4.140  1.1545  0.2275 -2.9292
  419MOL0     H56554   0.614   6.858   4.176 -0.8591  0.6404  0.8693
  419MOL0     H56555   0.867   6.500   4.236 -1.9956  0.9379  0.0587
  419MOL0     H56556   0.888   6.528   4.071  0.1605 -2.1286  0.6566
  419MOL0     H56557   1.082   6.594   4.280 -0.4303  0.1916  0.1023
  419MOL0     H56558   1.017   6.749   4.215 -1.4786 -0.6168  1.2463
  419MOL0     H56559   1.057   6.618   3.984 -0.4504  0.5855  0.2005
  419MOL0     H56560   1.156   6.506   4.083 -3.3269 -2.1100 -1.1265
  419MOL0     H56561   1.296   6.676   4.170  2.1404 -0.0610 -0.3636
  419MOL0     H56562   1.204   6.804   4.078 -1.5203 -0.3566  0.7624
  419MOL0     H56563   1.456   6.628   3.788  0.7410  3.3777  0.3917
  419MOL0     H56564   0.663   6.439   4.213  0.7526 -0.2607 -5.3514
  419MOL0     H56565   0.419   6.413   4.244 -0.2548  1.4161  2.5423
  420MOL0     O56566   7.543  10.138   4.996 -0.4001 -0.5636 -0.0881
  420MOL0     C56567   7.593  10.247   4.973  0.9577 -0.3996  0.6970
  420MOL0     O56568   7.528  10.351   4.938 -0.1387  0.1657 -0.0555
  420MOL0     C56569   7.396  10.381   4.965  1.0030 -0.4414 -0.4661
  420MOL0     C56570   7.298  10.302   5.032 -0.7716  0.1030 -0.1233
  420MOL0     C56571   7.163  10.337   5.037 -0.1137  0.2650 -0.6174
  420MOL0     C56572   7.113  10.460   4.995  0.0500  0.3079  0.1532
  420MOL0     O56573   6.978  10.498   5.012 -0.3714  0.5170 -0.4531
  420MOL0     C56574   6.889  10.388   4.986  0.5807 -0.1333 -0.1195
  420MOL0     C56575   6.755  10.420   5.054  0.2511 -0.3566 -0.5078
  420MOL0     C56576   6.780  10.436   5.209  0.3476  0.5869 -0.1326
  420MOL0     C56577   6.655  10.402   5.290 -0.0952 -0.5080  0.4744
  420MOL0     C56578   6.551  10.509   5.276  0.2156  0.7732  0.0085
  420MOL0     C56579   6.423  10.456   5.347  0.6245 -0.9310 -0.2510
  420MOL0     C56580   6.434  10.470   5.500 -0.1253  0.1618 -0.2022
  420MOL0     C56581   6.309  10.397   5.572 -0.9582  0.6671 -0.2392
  420MOL0     N56582   6.334  10.251   5.557 -0.2293  0.3259  0.0956
  420MOL0     C56583   6.276  10.165   5.469 -0.1829  0.6286 -0.1541
  420MOL0     C56584   6.326  10.037   5.506  0.1352 -0.3426 -0.2292
  420MOL0     C56585   6.286   9.893   5.462 -0.8548  0.1879  0.4562
  420MOL0     C56586   6.144   9.882   5.428 -0.7025  0.4618 -0.6971
  420MOL0     C56587   6.111   9.739   5.379  0.1019 -0.0991 -0.7094
  420MOL0     C56588   6.162   9.728   5.235 -0.4343  0.6615  1.0436
  420MOL0     O56589   6.127   9.598   5.175 -0.3148 -0.5140 -0.2087
  420MOL0     C56590   5.988   9.601   5.157 -0.6611  0.5005 -0.8397
  420MOL0     C56591   5.905   9.703   5.092  0.0485 -0.0242  0.1735
  420MOL0     C56592   5.766   9.679   5.079  0.5745  0.5701 -0.6527
  420MOL0     C56593   5.683   9.789   5.004  0.5893  0.4581  0.1329
  420MOL0     C56594   5.709   9.557   5.131 -0.1724  0.4624  0.6195
  420MOL0     C56595   5.565   9.530   5.152 -0.6154  0.9196  0.3637
  420MOL0     O56596   5.529   9.402   5.202  0.4114 -0.3892 -0.4434
  420MOL0     C56597   5.403   9.380   5.249 -0.7002 -0.2855 -0.4233
  420MOL0     C56598   5.293   9.342   5.169 -0.2521 -0.3192 -0.2099
  420MOL0     C56599   5.176   9.315   5.232  1.2829  0.9509 -0.7090
  420MOL0     C56600   5.160   9.318   5.370 -0.7401  0.2200 -0.0883
  420MOL0     O56601   5.045   9.272   5.431 -0.0970  0.1656  0.1329
  420MOL0     C56602   4.926   9.248   5.352 -0.3319  0.6742  0.0703
  420MOL0     C56603   4.803   9.223   5.432  0.3518 -0.2935 -0.1897
  420MOL0     C56604   4.676   9.254   5.356  0.7360  0.1389 -0.3445
  420MOL0     C56605   4.554   9.223   5.433  1.0174  0.1205 -0.0085
  420MOL0     C56606   4.431   9.229   5.344 -0.5190 -0.2259 -0.5520
  420MOL0     C56607   4.378   9.371   5.321 -0.3804 -0.6645  0.4383
  420MOL0     C56608   4.242   9.378   5.254  0.5025  0.4156 -0.1987
  420MOL0     C56609   4.207   9.534   5.231  0.6295 -0.2620 -0.4820
  420MOL0    Cl56610   4.027   9.548   5.225 -0.1778  0.1256 -0.6687
  420MOL0     C56611   5.269   9.349   5.449  0.7524 -0.7932  0.3203
  420MOL0     C56612   5.390   9.379   5.387 -0.4027 -0.6083 -0.7364
  420MOL0     O56613   5.489   9.618   5.131  0.3759  0.4324  0.2332
  420MOL0     C56614   5.791   9.460   5.184  0.5639  0.7981  0.1598
  420MOL0     C56615   5.926   9.477   5.200  0.1702  0.5887 -1.0021
  420MOL0     N56616   6.419  10.051   5.605 -0.2216  0.0912 -0.3845
  420MOL0     N56617   6.424  10.183   5.628 -0.3528  0.1417 -0.2180
  420MOL0     C56618   7.213  10.547   4.940  0.4824  0.6095 -0.1622
  420MOL0     C56619   7.351  10.506   4.928 -0.4029  0.1314  0.3965
  420MOL0     C56620   7.739  10.245   4.963 -0.3767  0.0408  0.5328
  420MOL0     C56621   7.819  10.143   5.016  0.0390  0.3022 -0.1718
  420MOL0     C56622   7.958  10.143   5.013  0.3064 -0.6108 -0.0124
  420MOL0     C56623   8.032  10.247   4.958 -0.2956 -0.1259 -0.5978
  420MOL0     O56624   8.168  10.262   4.964  0.4380 -1.0556  0.0792
  420MOL0     C56625   8.237  10.147   4.999 -0.1214 -0.5821 -0.6831
  420MOL0     C56626   8.390  10.148   4.972 -0.4092  0.3716 -0.3192
  420MOL0     C56627   8.469  10.246   5.062  0.2318 -0.2477  0.3822
  420MOL0     C56628   8.616  10.261   5.030 -0.1425 -0.8954 -0.3468
  420MOL0     C56629   8.622  10.315   4.899 -0.5675  1.3861 -0.0311
  420MOL0     C56630   8.618  10.372   4.788  0.1470  0.7754 -0.6669
  420MOL0     C56631   7.952  10.364   4.918 -0.3852 -0.3000 -0.1202
  420MOL0     C56632   7.812  10.354   4.915  0.6832  0.1999 -0.1256
  420MOL0     H56633   7.332  10.200   5.049  1.2980 -0.0043 -3.7936
  420MOL0     H56634   7.102  10.262   5.086  0.8163 -1.7012 -2.2634
  420MOL0     H56635   6.879  10.387   4.877  3.0828 -0.3716 -0.3946
  420MOL0     H56636   6.928  10.290   5.016  0.5873  0.2525  1.1709
  420MOL0     H56637   6.728  10.517   5.011  2.3999 -0.1019 -1.4196
  420MOL0     H56638   6.681  10.342   5.033 -1.6325  0.6728  1.9350
  420MOL0     H56639   6.857  10.363   5.235 -0.8447 -0.7541 -0.1998
  420MOL0     H56640   6.820  10.534   5.235  1.3986  0.2343 -0.3772
  420MOL0     H56641   6.634  10.301   5.253  1.5027  0.0372 -2.1852
  420MOL0     H56642   6.682  10.403   5.396  1.6485  0.9143  0.0599
  420MOL0     H56643   6.592  10.600   5.322 -0.0708  1.4665 -1.0813
  420MOL0     H56644   6.528  10.521   5.170  1.8204 -1.0474 -0.5934
  420MOL0     H56645   6.341  10.523   5.320  0.9414 -1.0651 -1.5969
  420MOL0     H56646   6.410  10.354   5.308  1.1316 -1.4059  0.7765
  420MOL0     H56647   6.529  10.429   5.537 -0.0587  2.1487  2.1008
  420MOL0     H56648   6.439  10.576   5.524 -1.4412  0.6624 -1.9660
  420MOL0     H56649   6.206  10.420   5.541 -1.1139 -0.0127 -0.2453
  420MOL0     H56650   6.316  10.415   5.680 -1.6737  0.9216 -0.2244
  420MOL0     H56651   6.202  10.184   5.392 -1.5217 -0.6426  0.7614
  420MOL0     H56652   6.353   9.857   5.383  0.9710 -1.6780  2.6698
  420MOL0     H56653   6.296   9.824   5.547  3.7467  0.5791  0.4722
  420MOL0     H56654   6.098   9.954   5.360 -4.4973 -0.4544  0.6902
  420MOL0     H56655   6.092   9.902   5.522  0.9195 -2.4475  0.9865
  420MOL0     H56656   6.003   9.733   5.392 -0.2550  2.6066 -1.8086
  420MOL0     H56657   6.161   9.669   5.447 -0.2277 -1.0307 -1.3960
  420MOL0     H56658   6.271   9.735   5.226 -0.5072  0.7769  0.1639
  420MOL0     H56659   6.126   9.813   5.176  2.1725 -0.0411 -1.8008
  420MOL0     H56660   5.946   9.800   5.069  0.8366 -0.7420 -1.6053
  420MOL0     H56661   5.751   9.862   4.958 -1.3197  1.4890 -1.1710
  420MOL0     H56662   5.618   9.762   4.920 -0.4394 -0.4973  1.1997
  420MOL0     H56663   5.628   9.830   5.089  3.2232 -1.2540  2.8699
  420MOL0     H56664   5.306   9.336   5.062  1.4422 -2.8090  0.0434
  420MOL0     H56665   5.087   9.287   5.176 -0.2538  2.1180  1.0373
  420MOL0     H56666   4.910   9.334   5.287 -0.9532 -0.1692 -0.9305
  420MOL0     H56667   4.947   9.154   5.299 -0.6224  0.4385  0.3718
  420MOL0     H56668   4.817   9.120   5.466  2.5457  0.2782  0.7969
  420MOL0     H56669   4.800   9.285   5.522  0.0687  0.9481 -1.0283
  420MOL0     H56670   4.662   9.191   5.267 -3.7033  0.4453 -0.0823
  420MOL0     H56671   4.690   9.358   5.324 -0.8944  0.5184  0.0571
  420MOL0     H56672   4.558   9.124   5.479 -0.4297 -0.5703 -1.2770
  420MOL0     H56673   4.552   9.291   5.518 -2.0138  1.2144 -0.8180
  420MOL0     H56674   4.361   9.166   5.400  1.4308 -0.6437  1.5355
  420MOL0     H56675   4.451   9.177   5.250  0.4704 -0.9558  0.0490
  420MOL0     H56676   4.352   9.423   5.414  2.3285  0.9176  0.4340
  420MOL0     H56677   4.451   9.430   5.265  2.1690 -2.5573  1.5277
  420MOL0     H56678   4.168   9.341   5.326  0.4530  0.4042 -0.2564
  420MOL0     H56679   4.239   9.325   5.159 -0.7113 -0.1487  0.1401
  420MOL0     H56680   4.249   9.572   5.138  1.8720 -0.4572 -0.0253
  420MOL0     H56681   4.254   9.587   5.315  0.8306 -0.7768 -0.2599
  420MOL0     H56682   5.268   9.351   5.557  2.1204  1.8010  0.3499
  420MOL0     H56683   5.472   9.404   5.453  0.5332 -0.3635 -1.9618
  420MOL0     H56684   5.748   9.368   5.221  2.1543 -0.9647 -2.1177
  420MOL0     H56685   5.985   9.399   5.248 -0.4021 -0.7140 -2.3354
  420MOL0     H56686   7.197  10.641   4.889  1.6664  0.6286 -0.5395
  420MOL0     H56687   7.417  10.578   4.880  0.1545 -0.3897  0.3675
  420MOL0     H56688   7.762  10.062   5.060 -1.5516  1.5928  0.2391
  420MOL0     H56689   8.008  10.053   5.049  0.3682 -0.9038 -0.8146
  420MOL0     H56690   8.222  10.125   5.106  3.6674 -1.1382 -0.1293
  420MOL0     H56691   8.198  10.060   4.945  0.2234 -1.1200 -0.0812
  420MOL0     H56692   8.397  10.177   4.867 -1.4302 -0.5981 -0.6837
  420MOL0     H56693   8.435  10.049   4.985 -1.1173  0.0874  0.0215
  420MOL0     H56694   8.458  10.215   5.167 -3.6829  0.5120  0.3725
  420MOL0     H56695   8.418  10.343   5.056 -1.9556 -1.4249 -1.1604
  420MOL0     H56696   8.661  10.161   5.041 -0.2526 -1.0907 -1.5240
  420MOL0     H56697   8.663  10.337   5.093  1.7864 -1.9665 -0.4108
  420MOL0     H56698   8.616  10.430   4.698  0.2727  1.2777 -0.3448
  420MOL0     H56699   7.993  10.456   4.878  0.0021 -0.7541 -0.7993
  420MOL0     H56700   7.744  10.432   4.884  0.2214 -1.2747 -3.2403
  421MOL0     O56701   2.917   8.383   6.982  1.1001 -0.7897 -0.1852
  421MOL0     C56702   2.909   8.311   7.083 -0.2855  0.5218 -0.1030
  421MOL0     O56703   2.811   8.324   7.180 -0.4036  0.2224  0.0318
  421MOL0     C56704   2.705   8.404   7.142  0.0127  0.6227  0.0551
  421MOL0     C56705   2.705   8.534   7.082 -0.0931  0.1401  0.2715
  421MOL0     C56706   2.593   8.580   7.021 -0.2067 -0.6764 -0.2001
  421MOL0     C56707   2.470   8.518   7.029 -0.1503  0.1752  0.9882
  421MOL0     O56708   2.347   8.561   6.980  0.6339  0.4935  1.1730
  421MOL0     C56709   2.356   8.644   6.859 -0.2360  0.1024 -0.0288
  421MOL0     C56710   2.229   8.615   6.783  0.6417  0.3280 -0.0317
  421MOL0     C56711   2.099   8.657   6.854  0.5026  0.3006  0.2137
  421MOL0     C56712   2.106   8.801   6.905 -0.2321  0.2653 -0.2933
  421MOL0     C56713   1.970   8.861   6.928 -0.7927  0.4553  0.3075
  421MOL0     C56714   1.972   8.999   6.986 -0.1798 -0.4650  0.0198
  421MOL0     C56715   1.821   9.042   6.989 -0.0349  0.5419  0.6276
  421MOL0     C56716   1.798   9.175   7.057 -0.2863  0.0173 -0.3004
  421MOL0     N56717   1.649   9.214   7.057 -1.1241  0.7915  0.6844
  421MOL0     C56718   1.573   9.212   6.937 -0.4753  0.8425 -0.6661
  421MOL0     C56719   1.449   9.241   6.981 -0.2692 -0.0479  0.6043
  421MOL0     C56720   1.319   9.272   6.900 -0.1475  0.4950  0.6223
  421MOL0     C56721   1.193   9.225   6.975  0.3561 -0.2197  0.7534
  421MOL0     C56722   1.137   9.336   7.060  0.0723 -0.3300 -0.4963
  421MOL0     C56723   0.997   9.299   7.102 -0.1632 -0.6892 -0.0849
  421MOL0     O56724   0.947   9.386   7.213  0.1226  0.2190 -0.0703
  421MOL0     C56725   0.811   9.374   7.248  1.0357 -0.1198 -1.0235
  421MOL0     C56726   0.726   9.272   7.202 -0.0765  0.5041  0.1046
  421MOL0     C56727   0.590   9.267   7.241 -0.8660 -0.3059  0.4116
  421MOL0     C56728   0.520   9.145   7.189  0.6472  0.1996  0.8992
  421MOL0     C56729   0.537   9.360   7.325  0.5689 -0.4391  0.3844
  421MOL0     C56730   0.395   9.365   7.366 -0.8802 -1.0709  0.0108
  421MOL0     O56731   0.322   9.257   7.346 -0.0948 -0.2303 -0.7921
  421MOL0     C56732   0.192   9.257   7.390 -0.1153  0.1702 -0.2163
  421MOL0     C56733   0.105   9.351   7.337 -0.3705 -0.0943 -0.1185
  421MOL0     C56734  -0.035   9.343   7.370 -0.8687 -0.3781  0.2553
  421MOL0     C56735  -0.081   9.248   7.456  0.9906  0.6422  1.4774
  421MOL0     O56736  -0.215   9.233   7.479 -0.5506 -0.4242  0.0364
  421MOL0     C56737  -0.306   9.292   7.386  1.0464  0.7262 -0.5830
  421MOL0     C56738  -0.451   9.239   7.409  0.6760 -0.4765 -0.5069
  421MOL0     C56739  -0.537   9.289   7.289 -1.1019 -0.1143 -0.4588
  421MOL0     C56740  -0.677   9.246   7.310  0.2823 -0.2322 -0.3368
  421MOL0     C56741  -0.773   9.299   7.198 -0.3444  0.0535 -1.1757
  421MOL0     C56742  -0.912   9.241   7.201 -0.4919  0.3329 -0.4964
  421MOL0     C56743  -1.002   9.310   7.102  0.8230 -0.1298 -0.7072
  421MOL0     C56744  -1.147   9.294   7.140  0.5171 -0.5429 -0.0840
  421MOL0    Cl56745  -1.241   9.362   7.013 -0.3525  0.0836  0.1786
  421MOL0     C56746   0.002   9.143   7.504  0.9923 -0.3273 -0.9715
  421MOL0     C56747   0.136   9.155   7.480  0.1507 -0.5027 -0.1316
  421MOL0     O56748   0.365   9.460   7.434  0.4291  0.3561 -0.5988
  421MOL0     C56749   0.626   9.459   7.377  1.5506  0.2741  0.1204
  421MOL0     C56750   0.756   9.468   7.335  0.4267 -0.5007  0.2019
  421MOL0     N56751   1.451   9.255   7.118 -0.5346  0.1045 -0.4068
  421MOL0     N56752   1.565   9.233   7.162  0.4363 -0.0462  0.3378
  421MOL0     C56753   2.474   8.408   7.101  0.1849  0.9048 -0.3411
  421MOL0     C56754   2.583   8.346   7.163 -0.4143  0.0020  0.0905
  421MOL0     C56755   3.021   8.222   7.110 -0.2342  0.7469  0.1510
  421MOL0     C56756   3.115   8.195   7.007  0.1446  0.9380  0.4803
  421MOL0     C56757   3.228   8.114   7.028 -0.3233  0.1860 -1.1142
  421MOL0     C56758   3.255   8.054   7.154  0.4036 -0.4067  0.3132
  421MOL0     O56759   3.376   7.985   7.167  0.2017 -0.2965  0.4442
  421MOL0     C56760   3.406   7.931   7.297 -0.6142 -0.7650 -0.6757
  421MOL0     C56761   3.542   7.864   7.291 -0.6679  0.8831 -0.4049
  421MOL0     C56762   3.552   7.757   7.176 -0.4481  0.2498 -0.1318
  421MOL0     C56763   3.676   7.659   7.188  0.4199 -0.8180  0.3942
  421MOL0     C56764   3.799   7.739   7.185 -0.1672 -0.3989  0.0932
  421MOL0     C56765   3.891   7.814   7.168 -0.1786  0.3468 -0.6025
  421MOL0     C56766   3.152   8.081   7.255  0.0650  0.3224  0.6402
  421MOL0     C56767   3.040   8.163   7.239  0.7165 -0.1436  0.4924
  421MOL0     H56768   2.787   8.601   7.061 -0.5385  0.4585 -0.5031
  421MOL0     H56769   2.580   8.677   6.972  1.5065 -0.9932 -1.4018
  421MOL0     H56770   2.372   8.746   6.895 -2.6424  0.6529 -0.3621
  421MOL0     H56771   2.441   8.621   6.795  0.3643  0.7648  0.5200
  421MOL0     H56772   2.228   8.669   6.689 -0.2759 -2.0500 -1.4909
  421MOL0     H56773   2.218   8.508   6.760  2.1987  0.5053 -1.7872
  421MOL0     H56774   2.019   8.649   6.780 -0.8926  1.1053  1.5696
  421MOL0     H56775   2.067   8.592   6.936 -0.5759  2.8357  1.9492
  421MOL0     H56776   2.153   8.798   7.004 -1.5568 -1.8527  0.3630
  421MOL0     H56777   2.166   8.866   6.842 -1.0981 -0.5386 -2.0033
  421MOL0     H56778   1.932   8.870   6.826  2.4883 -0.1047 -1.0671
  421MOL0     H56779   1.911   8.790   6.986 -0.8146  2.3483  2.7885
  421MOL0     H56780   2.025   8.991   7.082  0.3565 -4.7354 -0.4517
  421MOL0     H56781   2.030   9.054   6.911 -0.4114  0.1605  0.2894
  421MOL0     H56782   1.792   9.045   6.883  3.9536 -1.3696 -0.7249
  421MOL0     H56783   1.759   8.969   7.042  2.5431 -1.3211  1.2537
  421MOL0     H56784   1.858   9.247   7.000  1.5016 -3.1991 -2.7959
  421MOL0     H56785   1.828   9.176   7.162 -1.2676 -0.8549  0.0047
  421MOL0     H56786   1.607   9.181   6.838 -2.0358 -0.2346 -0.9118
  421MOL0     H56787   1.325   9.375   6.864  3.3230  0.5230  0.9726
  421MOL0     H56788   1.315   9.216   6.806 -1.4036  2.8718 -0.8421
  421MOL0     H56789   1.220   9.142   7.041 -0.1318  1.1997  2.8370
  421MOL0     H56790   1.116   9.202   6.901  1.7280 -0.4992 -0.6277
  421MOL0     H56791   1.130   9.436   7.016 -0.7602 -0.6356 -1.0936
  421MOL0     H56792   1.196   9.342   7.152  1.3130  0.1802 -1.3111
  421MOL0     H56793   0.996   9.200   7.150 -2.6060 -0.6245  0.1643
  421MOL0     H56794   0.933   9.298   7.014 -0.4302 -1.6089  0.1076
  421MOL0     H56795   0.747   9.202   7.122  0.3625  0.7957 -0.0415
  421MOL0     H56796   0.452   9.184   7.112  1.4205  0.8043  0.5160
  421MOL0     H56797   0.593   9.076   7.146 -1.1389 -1.4323  0.2822
  421MOL0     H56798   0.466   9.087   7.265  1.9351 -0.3927  1.3795
  421MOL0     H56799   0.148   9.428   7.275  1.7860 -1.8718 -0.9644
  421MOL0     H56800  -0.098   9.423   7.331  0.6872 -0.4542 -2.6866
  421MOL0     H56801  -0.310   9.400   7.402 -1.9181  0.3643  1.9238
  421MOL0     H56802  -0.286   9.277   7.279  1.1241  2.4453 -0.8337
  421MOL0     H56803  -0.460   9.131   7.415 -0.8273 -0.3221  0.4416
  421MOL0     H56804  -0.490   9.279   7.503  1.1440  0.0365 -0.5191
  421MOL0     H56805  -0.500   9.242   7.198 -1.1962 -0.1931 -0.4564
  421MOL0     H56806  -0.525   9.396   7.272  0.2057  0.0093  0.9903
  421MOL0     H56807  -0.678   9.137   7.313 -0.7560 -0.3258 -2.2983
  421MOL0     H56808  -0.715   9.288   7.404  3.6808  1.6209  0.3972
  421MOL0     H56809  -0.723   9.292   7.101  3.3428 -0.3454  0.5512
  421MOL0     H56810  -0.790   9.404   7.223 -5.1360 -0.9786  0.9282
  421MOL0     H56811  -0.903   9.132   7.193  0.9783  0.2310  1.6649
  421MOL0     H56812  -0.950   9.274   7.299  1.8585  2.7754 -0.2894
  421MOL0     H56813  -0.983   9.258   7.008 -0.2038 -2.7505  0.4223
  421MOL0     H56814  -0.990   9.418   7.097 -2.6915  0.7620  3.4998
  421MOL0     H56815  -1.173   9.330   7.240 -0.6488 -3.4635  0.7719
  421MOL0     H56816  -1.161   9.186   7.147  1.5700 -0.8656 -2.2300
  421MOL0     H56817  -0.041   9.069   7.571 -1.2722  1.1494 -0.6669
  421MOL0     H56818   0.206   9.082   7.520 -0.2449 -0.3411  0.8844
  421MOL0     H56819   0.594   9.526   7.456 -0.4299  1.4889 -1.6145
  421MOL0     H56820   0.810   9.553   7.376 -1.0820  1.6287 -1.9740
  421MOL0     H56821   2.377   8.361   7.117  0.0283  0.2005 -2.8970
  421MOL0     H56822   2.571   8.248   7.207 -2.2614  0.1645  0.0156
  421MOL0     H56823   3.104   8.250   6.913  0.1548 -0.9826 -0.6940
  421MOL0     H56824   3.301   8.096   6.949  0.8182  0.4733 -0.1620
  421MOL0     H56825   3.406   8.010   7.372 -2.3549 -0.3766 -1.0517
  421MOL0     H56826   3.327   7.861   7.327 -1.9609  1.6654  1.8945
  421MOL0     H56827   3.566   7.797   7.374  1.9706 -1.2705 -2.6905
  421MOL0     H56828   3.615   7.946   7.287 -0.2377  0.6918  1.8981
  421MOL0     H56829   3.561   7.809   7.080  0.0545 -0.3657 -0.4245
  421MOL0     H56830   3.460   7.698   7.169 -1.0108  1.0934  0.0334
  421MOL0     H56831   3.665   7.581   7.113  0.9178 -1.0657  0.5770
  421MOL0     H56832   3.663   7.606   7.283  1.7880  0.2266  1.2073
  421MOL0     H56833   3.973   7.882   7.151 -0.5233  0.7645 -0.6123
  421MOL0     H56834   3.164   8.038   7.354  0.0230  1.8488  1.3331
  421MOL0     H56835   2.969   8.176   7.319  0.7027 -0.4628  0.5356
  422MOL0     O56836   2.220  10.151  10.905 -0.1070 -0.1639 -0.0958
  422MOL0     C56837   2.117  10.169  10.964 -0.3321 -0.5299  0.0281
  422MOL0     O56838   1.993  10.135  10.925 -0.4196 -0.4665  0.1989
  422MOL0     C56839   1.976  10.079  10.803 -0.0172 -0.2022 -0.2764
  422MOL0     C56840   1.943  10.159  10.699  0.8373 -0.3258  0.4998
  422MOL0     C56841   1.935  10.110  10.566  0.5114 -0.1521  0.2212
  422MOL0     C56842   1.961   9.975  10.541 -0.6057 -0.6216 -0.0109
  422MOL0     O56843   1.959   9.927  10.411  0.2656  0.1826 -0.2130
  422MOL0     C56844   1.855   9.974  10.328  0.2357  0.0692  0.2453
  422MOL0     C56845   1.835   9.879  10.216 -1.1191 -0.0021 -0.0219
  422MOL0     C56846   1.692   9.908  10.160 -0.8856 -0.3970 -0.0810
  422MOL0     C56847   1.638   9.800  10.063 -0.2736 -0.5870 -0.2486
  422MOL0     C56848   1.497   9.849  10.004  0.7054  0.7837  0.0386
  422MOL0     C56849   1.432   9.755   9.894  0.4983 -0.6255 -0.6188
  422MOL0     C56850   1.402   9.607   9.946 -0.5762 -0.2788  0.2272
  422MOL0     C56851   1.324   9.612  10.079  0.9921 -0.5534  0.4078
  422MOL0     N56852   1.179   9.651  10.063  0.7929  0.1952  0.8116
  422MOL0     C56853   1.076   9.562  10.037  0.7137 -0.3395 -0.1891
  422MOL0     C56854   0.972   9.642  10.005  0.4568 -0.5216 -0.2119
  422MOL0     C56855   0.828   9.608   9.979  0.1748 -0.0897 -0.2048
  422MOL0     C56856   0.770   9.523  10.095  0.1714 -1.0061  0.7195
  422MOL0     C56857   0.765   9.620  10.212  0.0746 -0.2924  0.5339
  422MOL0     C56858   0.668   9.570  10.320  0.2792 -0.0174  0.2678
  422MOL0     O56859   0.535   9.574  10.288  0.5961 -0.2920  0.4092
  422MOL0     C56860   0.447   9.493  10.364 -0.2600  0.5852 -0.0440
  422MOL0     C56861   0.310   9.493  10.330  0.4609  0.0383 -0.1262
  422MOL0     C56862   0.215   9.414  10.402  0.0578 -0.0132 -0.4171
  422MOL0     C56863   0.076   9.423  10.357  1.0622  0.0313  0.6487
  422MOL0     C56864   0.265   9.335  10.508 -0.3254  0.3159 -0.1848
  422MOL0     C56865   0.180   9.254  10.597 -0.2717 -0.1241  0.3369
  422MOL0     O56866   0.053   9.304  10.610 -0.0120 -0.0948  0.1623
  422MOL0     C56867  -0.030   9.249  10.697  0.8904  0.5778 -0.0102
  422MOL0     C56868   0.012   9.226  10.827 -0.2347  0.4447  0.4903
  422MOL0     C56869  -0.079   9.177  10.917  0.0785  0.2263 -0.1046
  422MOL0     C56870  -0.216   9.159  10.881  0.2760 -0.4565 -0.4441
  422MOL0     O56871  -0.301   9.117  10.986 -0.2519 -0.5790  0.1961
  422MOL0     C56872  -0.431   9.069  10.950  0.4717 -0.1385  0.4916
  422MOL0     C56873  -0.517   9.003  11.060  0.3804 -0.7659 -0.0955
  422MOL0     C56874  -0.445   8.871  11.103  0.5442  0.3339  1.0899
  422MOL0     C56875  -0.528   8.744  11.077  0.3498 -0.0607  0.6506
  422MOL0     C56876  -0.455   8.622  11.131  0.5044 -0.3726  0.3124
  422MOL0     C56877  -0.507   8.494  11.068 -0.9051  0.2822 -0.4865
  422MOL0     C56878  -0.657   8.479  11.073  1.4251  0.0947 -0.2979
  422MOL0     C56879  -0.697   8.335  11.096  0.3306 -0.6768 -0.9402
  422MOL0    Cl56880  -0.616   8.232  10.973  0.0402 -0.4910 -0.1630
  422MOL0     C56881  -0.257   9.179  10.748  0.6921  0.1852 -0.1833
  422MOL0     C56882  -0.163   9.225  10.659 -0.1802  0.7616 -0.0258
  422MOL0     O56883   0.220   9.144  10.635  0.2868  0.1162  0.4711
  422MOL0     C56884   0.398   9.324  10.534 -0.1633 -0.1315 -0.1779
  422MOL0     C56885   0.485   9.407  10.470 -0.6833 -0.0205  0.4164
  422MOL0     N56886   1.011   9.775   9.996 -0.0975 -0.8648  0.3155
  422MOL0     N56887   1.133   9.772  10.035  0.4046 -0.1711 -0.7373
  422MOL0     C56888   1.996   9.891  10.650  0.3314 -0.5844  0.0534
  422MOL0     C56889   2.007   9.950  10.774  0.4302  0.0130 -0.2912
  422MOL0     C56890   2.130  10.236  11.101 -0.9860 -0.1685 -0.7300
  422MOL0     C56891   2.248  10.315  11.134  0.1688  0.6614  1.1108
  422MOL0     C56892   2.246  10.382  11.260  0.4342 -0.6155 -0.2730
  422MOL0     C56893   2.140  10.361  11.358 -0.1223  0.2457  0.4456
  422MOL0     O56894   2.131  10.430  11.476  0.1346 -0.4043  0.2875
  422MOL0     C56895   2.249  10.510  11.510  0.5069  0.1895  0.5409
  422MOL0     C56896   2.224  10.557  11.660  0.6374  0.0346  0.9827
  422MOL0     C56897   2.356  10.614  11.702  0.0880 -0.1311  0.2206
  422MOL0     C56898   2.362  10.625  11.856  0.9591 -0.9671  0.4922
  422MOL0     C56899   2.491  10.678  11.896  0.1762  0.0990  0.0761
  422MOL0     C56900   2.594  10.718  11.941  0.3490 -0.7110 -0.0217
  422MOL0     C56901   2.034  10.283  11.322  0.2829  0.0210  0.3432
  422MOL0     C56902   2.028  10.233  11.195  0.9699 -0.5593  0.9211
  422MOL0     H56903   1.918  10.263  10.716  0.2547 -0.3272 -0.2835
  422MOL0     H56904   1.911  10.174  10.482 -0.1689  0.5375  0.9280
  422MOL0     H56905   1.770   9.979  10.397  1.0220 -1.2508  1.3655
  422MOL0     H56906   1.873  10.075  10.291 -0.7775  0.2550  0.2081
  422MOL0     H56907   1.910   9.897  10.138 -0.6661  2.9743  0.9902
  422MOL0     H56908   1.843   9.772  10.236 -0.0496 -0.4099 -2.3055
  422MOL0     H56909   1.630   9.912  10.250 -0.3811 -0.9589  0.3013
  422MOL0     H56910   1.684  10.006  10.112  1.2362  0.1415  0.5633
  422MOL0     H56911   1.714   9.790   9.986  1.1825  0.7148  0.9334
  422MOL0     H56912   1.630   9.706  10.119 -0.4443 -1.4322 -1.6629
  422MOL0     H56913   1.430   9.863  10.090 -0.6216  1.0840 -1.0189
  422MOL0     H56914   1.513   9.947   9.958  4.5418 -0.6783 -2.2559
  422MOL0     H56915   1.337   9.801   9.866 -0.2910 -1.8846 -0.0878
  422MOL0     H56916   1.493   9.748   9.804  0.2021 -4.3419 -0.6449
  422MOL0     H56917   1.345   9.554   9.869 -1.4063  1.6235 -0.5328
  422MOL0     H56918   1.497   9.558   9.969  1.9695  3.2826 -1.6354
  422MOL0     H56919   1.369   9.685  10.148 -0.6108 -0.8756  1.8656
  422MOL0     H56920   1.320   9.516  10.130 -0.2281 -0.0037  1.4063
  422MOL0     H56921   1.073   9.453  10.043  0.4989 -0.3068  0.4331
  422MOL0     H56922   0.759   9.693   9.979 -0.3748 -0.5285  0.4378
  422MOL0     H56923   0.825   9.551   9.886  1.1336  0.1167 -0.3686
  422MOL0     H56924   0.832   9.434  10.103  0.9144 -0.4805  0.9425
  422MOL0     H56925   0.673   9.483  10.066 -0.1508 -0.1797  0.6282
  422MOL0     H56926   0.745   9.725  10.189 -0.0319 -0.8265 -2.1260
  422MOL0     H56927   0.863   9.614  10.260  1.7777 -1.7088 -2.7854
  422MOL0     H56928   0.669   9.634  10.409  0.5215  1.0071 -0.4491
  422MOL0     H56929   0.698   9.469  10.346  0.2380  0.2078  1.2273
  422MOL0     H56930   0.274   9.557  10.250 -2.1898 -0.2382  0.7332
  422MOL0     H56931   0.005   9.454  10.434 -3.5585 -0.4403 -2.9405
  422MOL0     H56932   0.071   9.492  10.272 -0.9501 -0.3941  0.3768
  422MOL0     H56933   0.046   9.324  10.320 -0.5621  0.6482  0.2386
  422MOL0     H56934   0.117   9.247  10.843 -0.1589  0.3118  0.1841
  422MOL0     H56935  -0.051   9.135  11.014 -0.8069 -0.3651 -0.0908
  422MOL0     H56936  -0.491   9.155  10.921 -1.8715 -1.4777  1.0718
  422MOL0     H56937  -0.433   9.002  10.863  1.7274 -1.9498  1.7850
  422MOL0     H56938  -0.524   9.065  11.150  0.4513 -0.5627 -0.2271
  422MOL0     H56939  -0.616   8.980  11.018  1.2957 -2.7484 -1.3076
  422MOL0     H56940  -0.432   8.882  11.211 -1.5372  1.5605  1.2778
  422MOL0     H56941  -0.354   8.856  11.044 -1.1225  0.5081 -1.7553
  422MOL0     H56942  -0.634   8.751  11.105 -0.9887 -1.5907 -3.2256
  422MOL0     H56943  -0.529   8.723  10.969  0.1908  0.4615  0.5475
  422MOL0     H56944  -0.478   8.617  11.238 -1.2643  0.2694 -0.0063
  422MOL0     H56945  -0.348   8.645  11.122  0.5208  1.1292  3.2087
  422MOL0     H56946  -0.472   8.476  10.965 -2.3378  1.0837 -1.1400
  422MOL0     H56947  -0.458   8.415  11.126  0.0273  0.6020 -0.8139
  422MOL0     H56948  -0.685   8.516  10.974  0.4512 -1.7116 -0.7349
  422MOL0     H56949  -0.703   8.535  11.155  0.5208 -1.1339  0.0675
  422MOL0     H56950  -0.804   8.314  11.105  0.4903 -0.5973  3.0334
  422MOL0     H56951  -0.651   8.300  11.189 -0.0410  1.6335  0.2072
  422MOL0     H56952  -0.357   9.147  10.721  0.0918  1.3359  0.6083
  422MOL0     H56953  -0.203   9.251  10.562 -1.7365 -1.2780 -0.0206
  422MOL0     H56954   0.443   9.258  10.608 -0.6578 -1.9571 -1.4606
  422MOL0     H56955   0.585   9.399  10.511  0.4711 -2.0064 -2.5257
  422MOL0     H56956   2.030   9.790  10.630  1.7691 -0.5183  1.8607
  422MOL0     H56957   2.035   9.890  10.860  0.6619 -0.1750 -0.4961
  422MOL0     H56958   2.328  10.330  11.063  0.6581  0.1018  1.5314
  422MOL0     H56959   2.328  10.451  11.273 -0.3097  1.3077 -4.0821
  422MOL0     H56960   2.342  10.453  11.506  0.4909  0.2291 -0.7645
  422MOL0     H56961   2.249  10.603  11.452 -0.6761  0.6673  1.2577
  422MOL0     H56962   2.211  10.468  11.723  1.8988 -0.8768  0.0048
  422MOL0     H56963   2.144  10.631  11.668  0.5998  0.2838 -1.1855
  422MOL0     H56964   2.371  10.708  11.649 -0.0984  1.5447  2.9909
  422MOL0     H56965   2.446  10.557  11.677  0.3106 -0.7932  2.3507
  422MOL0     H56966   2.330  10.538  11.915 -1.1991  0.9187  2.2989
  422MOL0     H56967   2.285  10.698  11.882 -1.1403 -2.1031 -2.0539
  422MOL0     H56968   2.687  10.756  11.979  0.4127  0.3738 -1.2079
  422MOL0     H56969   1.946  10.263  11.383  1.1047 -0.6473  1.3312
  422MOL0     H56970   1.946  10.174  11.157  0.5420  0.8231 -0.3959
  423MOL0     O56971   0.266   8.640   2.662  0.1554  0.0763 -0.4148
  423MOL0     C56972   0.279   8.760   2.639  0.5850  0.2933  0.1137
  423MOL0     O56973   0.390   8.833   2.642  0.2370  0.4985 -0.0323
  423MOL0     C56974   0.504   8.772   2.684 -0.3242  0.3029  0.5702
  423MOL0     C56975   0.570   8.676   2.611 -0.1896 -0.2110  0.1363
  423MOL0     C56976   0.693   8.618   2.651 -0.6908 -0.1471 -0.7128
  423MOL0     C56977   0.765   8.681   2.755 -0.1063 -0.5956 -0.1253
  423MOL0     O56978   0.888   8.632   2.776 -0.1579 -0.1443 -0.2120
  423MOL0     C56979   0.991   8.728   2.813 -0.6179  0.1165  0.5436
  423MOL0     C56980   1.122   8.657   2.797  0.3612  0.6617  0.8406
  423MOL0     C56981   1.248   8.735   2.815 -0.1898 -0.5767 -1.2162
  423MOL0     C56982   1.274   8.775   2.963 -0.0584 -0.2580  0.8717
  423MOL0     C56983   1.407   8.857   2.970  0.5716  0.7225 -0.4056
  423MOL0     C56984   1.426   8.904   3.110 -0.2303 -0.1464 -0.4321
  423MOL0     C56985   1.554   8.990   3.127 -0.5236  0.0799  0.3237
  423MOL0     C56986   1.566   9.036   3.273  0.0340 -0.3910  0.2683
  423MOL0     N56987   1.665   9.145   3.297 -0.3547 -0.5317  0.0270
  423MOL0     C56988   1.641   9.269   3.243 -0.3654 -0.7161  0.4851
  423MOL0     C56989   1.746   9.334   3.295 -0.0597 -0.5817 -0.1201
  423MOL0     C56990   1.765   9.486   3.288 -0.0978 -0.2454 -0.7316
  423MOL0     C56991   1.660   9.560   3.381  0.0450  0.6081  0.1854
  423MOL0     C56992   1.733   9.562   3.516  0.4837 -0.1366 -0.5503
  423MOL0     C56993   1.648   9.648   3.617 -0.2219 -0.3436  0.5019
  423MOL0     O56994   1.626   9.785   3.585 -0.4794 -0.1178 -0.3134
  423MOL0     C56995   1.545   9.866   3.664 -0.6659 -0.2594  0.4942
  423MOL0     C56996   1.485   9.979   3.599  0.1617 -0.0510 -0.9333
  423MOL0     C56997   1.394  10.072   3.661  1.2892  0.2923  0.4473
  423MOL0     C56998   1.355  10.185   3.574  0.9132 -0.4145 -0.2470
  423MOL0     C56999   1.344  10.035   3.787 -1.0276 -0.5740 -0.0160
  423MOL0     C57000   1.233  10.103   3.854  0.3801  0.8319 -0.2420
  423MOL0     O57001   1.141  10.022   3.918  0.5562  0.4005  0.2526
  423MOL0     C57002   1.049  10.090   3.988 -0.1506  0.0254 -0.1377
  423MOL0     C57003   1.069  10.147   4.115 -0.0256  0.1230  0.5453
  423MOL0     C57004   0.980  10.240   4.173  0.5246  0.3165 -0.2818
  423MOL0     C57005   0.866  10.277   4.104  0.5547  0.3102  0.5076
  423MOL0     O57006   0.775  10.378   4.139 -0.1081  0.4080 -0.9894
  423MOL0     C57007   0.808  10.459   4.251 -0.0246 -0.4709  1.2280
  423MOL0     C57008   0.686  10.542   4.271 -0.0803  0.7374 -0.0146
  423MOL0     C57009   0.710  10.637   4.393  0.1364 -0.3437 -0.1626
  423MOL0     C57010   0.805  10.748   4.367  0.3507 -0.5272 -0.1146
  423MOL0     C57011   0.863  10.833   4.485 -0.4880 -0.2634  0.9325
  423MOL0     C57012   0.758  10.878   4.587  0.2103 -0.6608  0.4460
  423MOL0     C57013   0.644  10.943   4.522  0.5402 -0.4131  0.2037
  423MOL0     C57014   0.551  11.011   4.629 -0.7028  0.2457  0.9376
  423MOL0    Cl57015   0.628  11.163   4.690 -0.0122 -0.2356 -0.3423
  423MOL0     C57016   0.837  10.206   3.983 -0.1802  0.4101 -0.9407
  423MOL0     C57017   0.928  10.118   3.927  0.5936  0.3026 -0.6959
  423MOL0     O57018   1.238  10.223   3.865 -0.0485  0.1404  0.2325
  423MOL0     C57019   1.402   9.918   3.851  0.1552 -0.7274  0.6215
  423MOL0     C57020   1.501   9.840   3.794  0.0457  0.0431 -1.2223
  423MOL0     N57021   1.836   9.248   3.353  0.8167  0.3393  0.4023
  423MOL0     N57022   1.782   9.130   3.360  0.3532 -0.2532 -0.5010
  423MOL0     C57023   0.702   8.784   2.832 -0.3203  0.0728 -0.5001
  423MOL0     C57024   0.575   8.828   2.795 -0.4676 -0.2039  0.0685
  423MOL0     C57025   0.160   8.834   2.623  0.3112  0.0915  0.3931
  423MOL0     C57026   0.039   8.761   2.622  0.2152 -0.3753 -0.1742
  423MOL0     C57027  -0.078   8.827   2.619  0.1220  0.3558 -0.0016
  423MOL0     C57028  -0.093   8.968   2.617 -0.4175 -0.3840  0.2222
  423MOL0     O57029  -0.209   9.038   2.615  0.1907 -0.6309  0.3133
  423MOL0     C57030  -0.329   8.967   2.605  0.9397 -0.1337 -0.4354
  423MOL0     C57031  -0.442   9.063   2.578 -0.1199  0.2456  0.3055
  423MOL0     C57032  -0.434   9.182   2.679 -0.2176  1.2312  0.3394
  423MOL0     C57033  -0.541   9.293   2.656  0.7129 -0.1759  0.3880
  423MOL0     C57034  -0.676   9.244   2.694  0.4847  0.3791  0.9132
  423MOL0     C57035  -0.793   9.211   2.721 -0.1464  0.7027  0.6216
  423MOL0     C57036   0.028   9.044   2.620 -0.2346  0.4248 -0.9056
  423MOL0     C57037   0.148   8.975   2.628  0.1857 -0.0201  0.0007
  423MOL0     H57038   0.521   8.639   2.522  1.3184 -1.8638 -0.0634
  423MOL0     H57039   0.748   8.539   2.600 -0.0860  0.5180 -1.1063
  423MOL0     H57040   0.986   8.809   2.740 -1.7203  0.8984  1.4392
  423MOL0     H57041   0.985   8.770   2.914  2.8127  1.5501  0.2642
  423MOL0     H57042   1.121   8.592   2.885 -1.0374 -0.1322  0.2765
  423MOL0     H57043   1.121   8.606   2.701  2.2550  2.7840 -0.4057
  423MOL0     H57044   1.337   8.676   2.789  2.2703  2.2214  0.3321
  423MOL0     H57045   1.250   8.830   2.761 -0.4778  0.5031  0.5941
  423MOL0     H57046   1.192   8.843   2.986 -0.6193  0.9599 -3.8243
  423MOL0     H57047   1.286   8.688   3.029 -1.8318  0.9682  2.9136
  423MOL0     H57048   1.490   8.791   2.943 -0.0770 -1.6952  2.8719
  423MOL0     H57049   1.410   8.944   2.904 -1.0825  1.7097  0.7257
  423MOL0     H57050   1.341   8.964   3.143 -0.5142 -1.8635  2.3091
  423MOL0     H57051   1.428   8.822   3.183 -1.1072 -1.8417 -2.2308
  423MOL0     H57052   1.637   8.923   3.105 -0.8922 -0.2638 -0.0641
  423MOL0     H57053   1.563   9.069   3.052  2.1339  0.6738  1.1699
  423MOL0     H57054   1.602   8.948   3.327  0.0678  0.5557  1.8713
  423MOL0     H57055   1.471   9.066   3.318  1.0449  1.1737  1.4859
  423MOL0     H57056   1.556   9.306   3.187 -0.7444 -0.5990  1.1255
  423MOL0     H57057   1.867   9.511   3.319 -0.8436  2.7715 -0.4935
  423MOL0     H57058   1.755   9.515   3.183 -1.3485 -0.1732 -0.5985
  423MOL0     H57059   1.564   9.510   3.378  0.9735 -1.2081 -0.3281
  423MOL0     H57060   1.645   9.660   3.338 -2.7489  0.2888  0.2533
  423MOL0     H57061   1.836   9.598   3.511  0.1355  0.7820 -1.4476
  423MOL0     H57062   1.732   9.456   3.544 -0.6735 -0.1439 -0.5756
  423MOL0     H57063   1.700   9.651   3.713  1.2574 -0.5388 -0.2607
  423MOL0     H57064   1.552   9.596   3.621  0.0182 -1.0078 -1.4568
  423MOL0     H57065   1.518  10.012   3.501 -0.3458  3.9471  0.0764
  423MOL0     H57066   1.413  10.275   3.595 -0.4410  0.2998  0.5132
  423MOL0     H57067   1.374  10.152   3.471 -2.0371 -1.3704 -0.5919
  423MOL0     H57068   1.247  10.200   3.580  0.8864 -0.2068 -1.0658
  423MOL0     H57069   1.166  10.135   4.162  0.6242  1.1205 -0.4708
  423MOL0     H57070   1.014  10.300   4.257  2.5169  0.5359 -1.1931
  423MOL0     H57071   0.839  10.399   4.337  0.9780 -1.4665  0.2044
  423MOL0     H57072   0.902  10.514   4.239  0.2049 -0.8875  1.0965
  423MOL0     H57073   0.648  10.587   4.178 -0.3647  1.9261  0.6561
  423MOL0     H57074   0.603  10.477   4.299  0.3712  0.0100 -0.3570
  423MOL0     H57075   0.754  10.569   4.467 -1.6276 -1.5641 -0.1739
  423MOL0     H57076   0.615  10.677   4.431  0.0672  0.4822 -1.1638
  423MOL0     H57077   0.885  10.700   4.309  0.7045  1.6414 -1.5018
  423MOL0     H57078   0.745  10.817   4.307 -1.2807 -1.1122  0.7929
  423MOL0     H57079   0.910  10.922   4.443 -1.1033  1.0096  2.7974
  423MOL0     H57080   0.937  10.775   4.542 -1.8458 -0.3819  2.6576
  423MOL0     H57081   0.718  10.788   4.634  0.7450 -1.2097 -0.1300
  423MOL0     H57082   0.811  10.947   4.654 -1.1748 -1.7803  2.7900
  423MOL0     H57083   0.583  10.875   4.463 -3.5967  3.6429 -0.7834
  423MOL0     H57084   0.675  11.018   4.448 -1.6395 -1.7618 -2.2297
  423MOL0     H57085   0.537  10.939   4.711  1.1414 -0.7897  0.4002
  423MOL0     H57086   0.457  11.028   4.577 -0.4435  0.3311  0.4967
  423MOL0     H57087   0.746  10.218   3.926 -0.1245  0.7524 -0.9613
  423MOL0     H57088   0.910  10.088   3.825  1.8437  2.1848 -1.5186
  423MOL0     H57089   1.354   9.872   3.936  0.4936 -1.6736  0.3134
  423MOL0     H57090   1.538   9.755   3.850  0.4432  1.2968  0.5289
  423MOL0     H57091   0.761   8.830   2.911  2.3810 -0.8285 -1.8795
  423MOL0     H57092   0.523   8.901   2.857  2.4831  2.1273  0.0309
  423MOL0     H57093   0.044   8.656   2.596  1.6165 -0.1150 -1.0847
  423MOL0     H57094  -0.162   8.758   2.627  0.8543 -0.4593  0.8091
  423MOL0     H57095  -0.327   8.894   2.523  0.7377 -0.5789 -0.0484
  423MOL0     H57096  -0.350   8.914   2.698 -0.3501  1.1172  0.0169
  423MOL0     H57097  -0.537   9.010   2.589 -0.5600  0.9920  0.1078
  423MOL0     H57098  -0.425   9.108   2.480 -2.6163  0.0143 -0.2982
  423MOL0     H57099  -0.338   9.230   2.657  0.0129 -0.0818 -1.8184
  423MOL0     H57100  -0.437   9.144   2.781  3.6155  0.4222  0.3151
  423MOL0     H57101  -0.537   9.329   2.553  2.5251  2.2095  1.2042
  423MOL0     H57102  -0.504   9.371   2.723  2.2254  1.4790 -2.1874
  423MOL0     H57103  -0.897   9.190   2.741 -0.0667  0.1274  0.4473
  423MOL0     H57104   0.041   9.151   2.626  0.2523  0.3623 -0.8612
  423MOL0     H57105   0.237   9.035   2.638  1.6935 -2.2061  0.3196
  424MOL0     O57106   9.621   0.459   6.891 -0.1813 -0.4471 -0.1886
  424MOL0     C57107   9.636   0.581   6.896 -0.4767  0.1353 -0.9573
  424MOL0     O57108   9.535   0.671   6.893 -0.3070 -0.1359 -0.2819
  424MOL0     C57109   9.413   0.610   6.923  0.1889 -0.0591  0.0261
  424MOL0     C57110   9.366   0.602   7.054  0.3916 -0.0160 -0.1831
  424MOL0     C57111   9.246   0.537   7.080 -0.7616  0.2646 -0.3482
  424MOL0     C57112   9.171   0.487   6.972  0.6378  0.3746  0.3634
  424MOL0     O57113   9.036   0.433   6.984 -0.0576  0.2527 -0.5018
  424MOL0     C57114   9.015   0.305   6.916 -0.8971 -0.0013  0.0815
  424MOL0     C57115   8.904   0.230   6.979  0.1775 -0.7767 -0.3849
  424MOL0     C57116   8.773   0.300   6.944 -0.3058 -0.1937 -0.8745
  424MOL0     C57117   8.671   0.249   7.041 -0.5773 -0.5865  0.0048
  424MOL0     C57118   8.529   0.292   7.011 -0.2390 -0.7726  0.0519
  424MOL0     C57119   8.470   0.252   6.870  0.9963 -0.7134  0.1458
  424MOL0     C57120   8.333   0.175   6.855 -0.3912 -0.3374 -0.0523
  424MOL0     C57121   8.214   0.265   6.898 -0.3827  0.5339 -0.5783
  424MOL0     N57122   8.095   0.188   6.870  0.6557  0.4376  0.4416
  424MOL0     C57123   8.016   0.198   6.759  0.2363  1.1728 -0.5080
  424MOL0     C57124   7.932   0.092   6.763 -0.2728  0.5119  0.0435
  424MOL0     C57125   7.817   0.061   6.661 -0.1965  0.8570 -0.0887
  424MOL0     C57126   7.685   0.019   6.736  0.6056  0.0869  0.3277
  424MOL0     C57127   7.669  -0.133   6.727  0.6155  0.3829 -1.0534
  424MOL0     C57128   7.523  -0.175   6.745 -0.2470 -0.4886 -0.1529
  424MOL0     O57129   7.478  -0.152   6.878  0.0337 -0.4896 -0.0710
  424MOL0     C57130   7.344  -0.188   6.897  0.3213 -0.0436  0.2006
  424MOL0     C57131   7.266  -0.278   6.815  0.0727 -0.4964  0.0697
  424MOL0     C57132   7.131  -0.302   6.847  1.3362  0.1695  0.2764
  424MOL0     C57133   7.049  -0.396   6.758  0.3976  0.4732  0.2640
  424MOL0     C57134   7.070  -0.251   6.962  0.4440  0.0782  0.1369
  424MOL0     C57135   6.930  -0.270   7.016 -0.1921  0.1990 -0.6540
  424MOL0     O57136   6.898  -0.214   7.138 -0.0853  0.5620 -0.4678
  424MOL0     C57137   6.761  -0.201   7.184 -0.6553 -0.7708  0.1278
  424MOL0     C57138   6.688  -0.085   7.185 -0.8165 -0.2883  0.5511
  424MOL0     C57139   6.561  -0.098   7.238  0.6326 -0.6892 -0.4051
  424MOL0     C57140   6.504  -0.224   7.280  0.5468  0.0852  0.4564
  424MOL0     O57141   6.375  -0.227   7.338 -0.9700 -0.1884  0.5346
  424MOL0     C57142   6.289  -0.113   7.316 -0.0323 -0.1843  0.0075
  424MOL0     C57143   6.142  -0.152   7.356  0.0123 -1.2627 -1.2263
  424MOL0     C57144   6.126  -0.135   7.510  0.1728 -0.0671 -0.2634
  424MOL0     C57145   5.986  -0.180   7.559  0.1758  0.7334  0.2255
  424MOL0     C57146   5.877  -0.071   7.551 -0.1004  0.1265  1.2711
  424MOL0     C57147   5.760  -0.089   7.641  0.6497 -1.3093  0.1106
  424MOL0     C57148   5.705  -0.232   7.638  0.5083  0.1072  0.2385
  424MOL0     C57149   5.557  -0.226   7.632  0.0369 -0.4347  0.0797
  424MOL0    Cl57150   5.466  -0.387   7.645 -0.2129 -0.0286 -0.3367
  424MOL0     C57151   6.584  -0.334   7.282  0.0105 -0.3837  0.2838
  424MOL0     C57152   6.716  -0.320   7.241  0.0599  0.2190  0.2379
  424MOL0     O57153   6.847  -0.323   6.946  0.2864  0.4758 -0.8172
  424MOL0     C57154   7.149  -0.176   7.044  0.8133  0.0722 -0.8466
  424MOL0     C57155   7.278  -0.137   7.003  0.3627 -0.2436  0.3526
  424MOL0     N57156   7.956   0.015   6.878 -0.6295 -0.6148  1.2885
  424MOL0     N57157   8.058   0.077   6.940  0.0288  0.0773  0.0963
  424MOL0     C57158   9.221   0.494   6.850 -0.3905  0.0767  1.0240
  424MOL0     C57159   9.335   0.563   6.820 -0.2996  0.7614 -0.0789
  424MOL0     C57160   9.773   0.639   6.919 -0.0836 -0.3634 -0.0582
  424MOL0     C57161   9.801   0.775   6.968  0.9443  0.0764 -0.2721
  424MOL0     C57162   9.930   0.816   6.988  0.5899 -0.0959 -0.6051
  424MOL0     C57163  10.032   0.723   6.985  0.1637 -0.1049  0.3619
  424MOL0     O57164  10.160   0.766   7.019  0.2891 -0.0071 -0.3259
  424MOL0     C57165  10.193   0.790   7.156 -0.4620 -0.9805  0.0715
  424MOL0     C57166  10.256   0.658   7.193 -0.7762 -0.3695  0.1828
  424MOL0     C57167  10.403   0.649   7.125  0.9210 -0.9428  0.0231
  424MOL0     C57168  10.491   0.531   7.165 -0.0555 -0.3559  0.4989
  424MOL0     C57169  10.628   0.539   7.121  0.5249 -0.3281 -0.4970
  424MOL0     C57170  10.751   0.539   7.118 -0.0624 -0.6034  0.4876
  424MOL0     C57171  10.014   0.597   6.929  0.4045 -0.2395 -0.0034
  424MOL0     C57172   9.884   0.554   6.896  0.1660  0.4726  1.0039
  424MOL0     H57173   9.423   0.646   7.135 -0.1649 -0.1763  0.3037
  424MOL0     H57174   9.195   0.513   7.173  1.2568 -0.1714  0.7063
  424MOL0     H57175   8.981   0.315   6.813 -2.9740 -0.3774  0.6884
  424MOL0     H57176   9.107   0.246   6.913  0.4262  1.9567  0.1566
  424MOL0     H57177   8.904   0.128   6.940 -1.8741 -0.1617 -2.1565
  424MOL0     H57178   8.914   0.224   7.088  2.7701 -3.8263 -0.6269
  424MOL0     H57179   8.781   0.408   6.959  2.8788 -0.4633  0.1984
  424MOL0     H57180   8.753   0.280   6.839 -2.5969  1.4891 -0.8344
  424MOL0     H57181   8.666   0.141   7.026 -1.0518 -0.2318 -2.9383
  424MOL0     H57182   8.701   0.279   7.142 -0.4165  1.4686 -0.6084
  424MOL0     H57183   8.469   0.260   7.097  0.3955 -0.2508  0.6987
  424MOL0     H57184   8.523   0.401   7.019  0.0690 -0.7977  0.6580
  424MOL0     H57185   8.470   0.340   6.805  2.0417 -1.2363 -0.5878
  424MOL0     H57186   8.536   0.180   6.822 -0.5867 -1.0797 -1.6219
  424MOL0     H57187   8.329   0.147   6.749  0.6512  0.0130 -0.1974
  424MOL0     H57188   8.327   0.082   6.913  0.7647 -0.5508 -0.2642
  424MOL0     H57189   8.216   0.364   6.852 -0.0931  1.5046  1.4139
  424MOL0     H57190   8.215   0.270   7.007 -2.7758  1.5669 -0.5424
  424MOL0     H57191   8.014   0.272   6.679 -1.8772 -0.0355 -1.6549
  424MOL0     H57192   7.805   0.151   6.601 -1.9248 -0.3203 -1.6280
  424MOL0     H57193   7.840  -0.015   6.585  1.1509  1.0017  0.1494
  424MOL0     H57194   7.595   0.071   6.703 -0.7698 -0.1487  3.3196
  424MOL0     H57195   7.688   0.055   6.840 -1.3000  0.9310  0.1376
  424MOL0     H57196   7.733  -0.172   6.807 -3.0150  2.1827  3.1717
  424MOL0     H57197   7.693  -0.166   6.626 -1.9408 -1.3935 -1.1781
  424MOL0     H57198   7.508  -0.282   6.728  0.2816 -0.6569  0.4089
  424MOL0     H57199   7.454  -0.125   6.676  0.3364  0.7480  0.1375
  424MOL0     H57200   7.311  -0.326   6.729  1.4236  0.1643  0.3891
  424MOL0     H57201   7.101  -0.427   6.667  1.1956  0.9103  0.5686
  424MOL0     H57202   7.024  -0.482   6.821  1.4038  0.6693  0.9543
  424MOL0     H57203   6.949  -0.361   6.730 -1.6569 -3.8639  1.2873
  424MOL0     H57204   6.729   0.007   7.144 -2.0737 -0.1361 -0.4503
  424MOL0     H57205   6.497  -0.011   7.251  1.1676 -0.0133 -1.9254
  424MOL0     H57206   6.321  -0.031   7.382  1.5777 -0.7464 -0.0093
  424MOL0     H57207   6.295  -0.076   7.213  0.1496 -2.1152 -0.7200
  424MOL0     H57208   6.076  -0.078   7.312 -1.0921 -1.3906  0.1492
  424MOL0     H57209   6.116  -0.255   7.329 -1.4495 -1.0114 -0.8382
  424MOL0     H57210   6.150  -0.034   7.544 -1.7691  0.1792  0.5429
  424MOL0     H57211   6.195  -0.202   7.563 -0.1993 -0.5529 -0.3847
  424MOL0     H57212   5.972  -0.269   7.497  0.8490  0.1859  0.8443
  424MOL0     H57213   5.980  -0.205   7.665 -2.3121 -2.7167 -0.5355
  424MOL0     H57214   5.856  -0.066   7.444 -0.7801 -2.8917  1.1683
  424MOL0     H57215   5.919   0.027   7.575  1.7508  0.3928 -2.3001
  424MOL0     H57216   5.779  -0.054   7.743 -1.8558  1.4871 -0.2523
  424MOL0     H57217   5.682  -0.020   7.608 -1.0160 -2.5939  1.2297
  424MOL0     H57218   5.728  -0.281   7.734 -0.3704  2.0872  1.5254
  424MOL0     H57219   5.747  -0.280   7.550  0.2074  2.6896 -1.3981
  424MOL0     H57220   5.528  -0.197   7.530 -0.7189 -1.7685 -0.1155
  424MOL0     H57221   5.523  -0.148   7.700 -1.4225  0.6886 -1.8418
  424MOL0     H57222   6.554  -0.434   7.310 -0.2561 -0.3217  0.2192
  424MOL0     H57223   6.777  -0.409   7.236 -0.1561  0.1097 -0.5982
  424MOL0     H57224   7.114  -0.137   7.139  2.5597 -0.8013  0.1906
  424MOL0     H57225   7.334  -0.065   7.062 -0.6300  0.3085  0.6520
  424MOL0     H57226   9.160   0.459   6.767  0.4521 -0.4773  0.6220
  424MOL0     H57227   9.373   0.550   6.719 -1.9737  2.0319 -0.9340
  424MOL0     H57228   9.719   0.846   6.978  0.9646  0.8693 -4.1499
  424MOL0     H57229   9.944   0.919   7.020 -0.7670  0.1959 -0.9010
  424MOL0     H57230  10.266   0.872   7.167 -1.2572 -0.4493  1.8563
  424MOL0     H57231  10.102   0.811   7.214  1.0244 -0.8711  2.5208
  424MOL0     H57232  10.202   0.571   7.155 -1.4060  0.2410 -0.3364
  424MOL0     H57233  10.270   0.649   7.302  0.5429 -0.0115  0.0548
  424MOL0     H57234  10.450   0.738   7.168  2.8038 -2.5865  1.5580
  424MOL0     H57235  10.399   0.657   7.016 -0.1435  2.1279  0.2186
  424MOL0     H57236  10.433   0.439   7.151 -1.5972  0.7442 -0.7164
  424MOL0     H57237  10.511   0.556   7.269  0.1160  2.5600 -0.1522
  424MOL0     H57238  10.859   0.537   7.114  0.1803  3.6460 -0.5527
  424MOL0     H57239  10.097   0.527   6.931  1.7067  1.2587 -0.0553
  424MOL0     H57240   9.870   0.453   6.861  0.5126  1.1585 -1.2969
  425MOL0     O57241  10.429  10.219   5.462 -0.1072  0.7339  0.2957
  425MOL0     C57242  10.504  10.246   5.551 -0.4699 -0.4300 -0.4948
  425MOL0     O57243  10.477  10.229   5.683 -0.2838 -0.0416  0.0178
  425MOL0     C57244  10.346  10.198   5.718 -0.5739 -0.4978 -0.1328
  425MOL0     C57245  10.242  10.281   5.716  0.3077 -0.5024 -0.6326
  425MOL0     C57246  10.113  10.237   5.744  0.6092  1.6251 -0.4335
  425MOL0     C57247  10.089  10.099   5.777 -0.4542 -0.2023 -0.6679
  425MOL0     O57248   9.962  10.058   5.813 -0.0321  0.0109  0.1352
  425MOL0     C57249   9.930   9.917   5.795 -0.8838 -0.1457  0.7089
  425MOL0     C57250   9.782   9.931   5.768  0.4477  0.7615  0.5879
  425MOL0     C57251   9.722   9.797   5.750 -0.3361  0.2145  0.2542
  425MOL0     C57252   9.579   9.782   5.727  0.2459  0.3906 -0.3885
  425MOL0     C57253   9.533   9.639   5.741 -0.0570  0.3006  0.2660
  425MOL0     C57254   9.377   9.632   5.715 -0.4943 -0.9217 -0.0242
  425MOL0     C57255   9.322   9.486   5.725 -0.0553  0.0340  0.5005
  425MOL0     C57256   9.182   9.491   5.706  0.8489  0.7143 -0.0381
  425MOL0     N57257   9.124   9.355   5.737 -0.4998 -0.0859 -1.1137
  425MOL0     C57258   9.114   9.295   5.863  0.4235 -0.3815 -0.5243
  425MOL0     C57259   9.009   9.208   5.848 -0.2632  0.1898 -0.5163
  425MOL0     C57260   8.948   9.135   5.964 -0.0095 -0.0174 -0.1980
  425MOL0     C57261   8.794   9.167   6.006 -1.2590  0.2490 -0.0104
  425MOL0     C57262   8.692   9.073   5.936  0.3916  0.8090 -1.0197
  425MOL0     C57263   8.555   9.137   5.967 -0.2437 -0.1197 -0.1597
  425MOL0     O57264   8.445   9.068   5.911 -0.6054 -0.1689  0.5508
  425MOL0     C57265   8.323   9.084   5.969  0.0335 -0.3538 -0.6004
  425MOL0     C57266   8.290   9.170   6.082 -0.0114 -0.0769  0.5578
  425MOL0     C57267   8.157   9.173   6.130  0.3811 -0.7302  0.4241
  425MOL0     C57268   8.140   9.248   6.258  0.4365  0.6015 -0.6426
  425MOL0     C57269   8.050   9.095   6.064  0.8173  0.7724 -0.0763
  425MOL0     C57270   7.913   9.079   6.118 -0.0523  0.1194 -0.7937
  425MOL0     O57271   7.834   8.990   6.048  0.5389 -0.4967  0.1444
  425MOL0     C57272   7.705   8.976   6.103 -0.6379 -0.8035  1.1053
  425MOL0     C57273   7.689   8.923   6.220 -0.4655  0.1565 -0.4317
  425MOL0     C57274   7.564   8.928   6.278  0.4955  1.3561  0.0896
  425MOL0     C57275   7.452   8.965   6.208  0.1415 -0.9364  0.0470
  425MOL0     O57276   7.331   8.953   6.271 -0.1095 -0.6318 -0.5690
  425MOL0     C57277   7.240   9.066   6.230 -0.1098  0.1951 -0.5868
  425MOL0     C57278   7.144   9.077   6.349 -0.0663 -0.1249 -0.1937
  425MOL0     C57279   7.025   9.173   6.327  0.8740  0.8556  0.4696
  425MOL0     C57280   7.070   9.319   6.374 -0.0472  0.9746  0.1838
  425MOL0     C57281   6.944   9.397   6.340  0.4161 -0.0955 -0.4264
  425MOL0     C57282   6.958   9.546   6.370  0.2576  0.6707  0.3852
  425MOL0     C57283   6.988   9.589   6.515 -0.9716 -0.6306  1.0401
  425MOL0     C57284   7.022   9.737   6.510  1.0109  0.5405  0.0830
  425MOL0    Cl57285   7.179   9.765   6.424 -0.0779  0.1151 -0.1842
  425MOL0     C57286   7.469   9.015   6.078  0.3808 -0.6708 -0.5600
  425MOL0     C57287   7.600   9.031   6.028 -0.1607 -0.0657 -0.3176
  425MOL0     O57288   7.878   9.141   6.218 -0.0146 -0.6566 -0.6461
  425MOL0     C57289   8.087   9.017   5.956 -0.1832  0.8360 -1.2842
  425MOL0     C57290   8.219   9.013   5.908  0.6570  0.5524  0.4005
  425MOL0     N57291   8.962   9.216   5.716 -0.0991 -0.1099 -0.8353
  425MOL0     N57292   9.046   9.289   5.648 -0.1403  0.0069 -0.2318
  425MOL0     C57293  10.203  10.019   5.791 -0.6952 -0.5945 -0.7687
  425MOL0     C57294  10.331  10.069   5.759 -0.1715 -0.0452  0.5059
  425MOL0     C57295  10.635  10.288   5.504 -0.8711 -0.5368  0.9650
  425MOL0     C57296  10.741  10.302   5.591 -0.0586  0.0382 -0.2040
  425MOL0     C57297  10.871  10.334   5.552 -0.4731 -0.2533  0.2230
  425MOL0     C57298  10.898  10.364   5.416  0.2584  0.6918 -0.6736
  425MOL0     O57299  11.024  10.397   5.380 -0.0444 -0.3724  0.5095
  425MOL0     C57300  11.093  10.294   5.308 -0.7879  1.0235  1.2942
  425MOL0     C57301  11.219  10.347   5.241 -0.6658 -0.0186  0.1287
  425MOL0     C57302  11.304  10.241   5.178 -0.0797  0.4254 -0.1601
  425MOL0     C57303  11.394  10.281   5.063  0.3995 -0.8941 -0.7126
  425MOL0     C57304  11.490  10.384   5.103  0.2242 -0.2213  0.8424
  425MOL0     C57305  11.575  10.466   5.129  1.1660  0.3089  0.4050
  425MOL0     C57306  10.792  10.339   5.323  0.2681  0.4390 -0.0678
  425MOL0     C57307  10.669  10.308   5.368  0.0639 -0.1679  0.2872
  425MOL0     H57308  10.251  10.385   5.689  1.0462 -0.5846 -0.7179
  425MOL0     H57309  10.027  10.300   5.729 -1.8134 -1.0360  1.2935
  425MOL0     H57310   9.987   9.867   5.716  0.6506 -0.4049  1.9394
  425MOL0     H57311   9.945   9.865   5.890 -1.7115 -1.8592 -0.0645
  425MOL0     H57312   9.738   9.986   5.852  3.2690  1.1343  1.9362
  425MOL0     H57313   9.765   9.985   5.675 -1.4733  2.6422  1.9266
  425MOL0     H57314   9.785   9.747   5.676 -0.8891 -0.7982  0.4588
  425MOL0     H57315   9.737   9.745   5.845 -4.7149  0.9009  1.5140
  425MOL0     H57316   9.537   9.852   5.800  2.1675 -0.9483  2.1802
  425MOL0     H57317   9.547   9.810   5.626 -1.7264 -2.1550 -0.5704
  425MOL0     H57318   9.595   9.573   5.679  0.7404 -0.7168  2.0756
  425MOL0     H57319   9.557   9.608   5.843 -2.4511  0.0111  0.8124
  425MOL0     H57320   9.325   9.696   5.787  1.6708  0.8978  0.0419
  425MOL0     H57321   9.367   9.666   5.611 -2.4229 -2.1197 -0.2703
  425MOL0     H57322   9.362   9.403   5.666 -0.9906 -0.4001  0.4503
  425MOL0     H57323   9.333   9.455   5.830 -2.0682  2.0655  1.4105
  425MOL0     H57324   9.164   9.519   5.601 -0.5961 -1.3417 -0.4124
  425MOL0     H57325   9.122   9.561   5.764  0.0447  2.2541 -2.5714
  425MOL0     H57326   9.167   9.316   5.956 -0.9255  0.1383  0.1494
  425MOL0     H57327   8.945   9.030   5.933 -1.8343 -0.0377 -0.0858
  425MOL0     H57328   9.016   9.150   6.048  1.7737 -0.0580 -1.5824
  425MOL0     H57329   8.769   9.273   5.992  0.2801  1.2499  3.5292
  425MOL0     H57330   8.793   9.149   6.114  0.0344  0.1942  0.0176
  425MOL0     H57331   8.699   8.969   5.970  1.4470  1.5155  1.1212
  425MOL0     H57332   8.718   9.071   5.830 -1.0144  1.1563 -1.3846
  425MOL0     H57333   8.550   9.236   5.922 -3.6196 -0.7786 -1.5643
  425MOL0     H57334   8.547   9.142   6.076 -1.8547  1.1587 -0.2973
  425MOL0     H57335   8.372   9.234   6.112  0.3197 -0.0993 -0.2682
  425MOL0     H57336   8.092   9.343   6.236 -1.6642 -0.8965 -2.9580
  425MOL0     H57337   8.071   9.197   6.326  1.8263  0.8569  1.0292
  425MOL0     H57338   8.235   9.255   6.312 -0.5213 -4.0565  2.3020
  425MOL0     H57339   7.771   8.880   6.277 -2.7327 -1.6988  1.6396
  425MOL0     H57340   7.556   8.895   6.381  0.6720  0.6535 -0.1200
  425MOL0     H57341   7.292   9.162   6.221 -0.7018  0.3578 -2.5355
  425MOL0     H57342   7.187   9.054   6.136  2.3309  1.3599 -2.2373
  425MOL0     H57343   7.107   8.975   6.363  1.1582 -0.3368  1.8927
  425MOL0     H57344   7.203   9.113   6.434  2.7690 -0.8437 -1.7224
  425MOL0     H57345   6.933   9.140   6.376  0.3379 -0.0754 -1.1037
  425MOL0     H57346   6.988   9.177   6.224 -0.1078 -1.6717  0.6519
  425MOL0     H57347   7.088   9.322   6.482  1.4237  0.1482 -0.0171
  425MOL0     H57348   7.156   9.352   6.316  1.2533 -0.7684  1.0394
  425MOL0     H57349   6.862   9.355   6.399 -0.3299  1.4890 -0.2897
  425MOL0     H57350   6.938   9.395   6.231 -1.5168 -1.0636 -0.3488
  425MOL0     H57351   7.040   9.587   6.310  0.8282  0.2599  0.8744
  425MOL0     H57352   6.869   9.593   6.326 -0.8727 -1.5018  0.2252
  425MOL0     H57353   7.072   9.535   6.559  0.7719  0.6368 -0.5829
  425MOL0     H57354   6.892   9.581   6.568 -1.5772  1.5544  0.3880
  425MOL0     H57355   7.039   9.785   6.607  1.8303  2.1127 -0.7919
  425MOL0     H57356   6.942   9.794   6.462  2.6699  0.6858 -2.7178
  425MOL0     H57357   7.391   9.040   6.006  0.5651 -0.9521 -0.8632
  425MOL0     H57358   7.601   9.058   5.923 -3.4731 -0.2344 -0.4952
  425MOL0     H57359   8.015   8.956   5.903 -0.7538  0.5304 -0.1786
  425MOL0     H57360   8.249   8.952   5.824  0.3705  1.5271 -0.4254
  425MOL0     H57361  10.214   9.923   5.839 -0.2942 -0.3797 -0.4238
  425MOL0     H57362  10.417  10.003   5.769 -0.3767 -0.2984  0.6246
  425MOL0     H57363  10.727  10.265   5.693 -2.5709  1.1098 -0.0951
  425MOL0     H57364  10.953  10.339   5.624  0.3366 -1.1716 -0.5962
  425MOL0     H57365  11.106  10.209   5.375 -2.7977  0.5118  1.1161
  425MOL0     H57366  11.031  10.248   5.230  3.1537 -0.4069 -1.3425
  425MOL0     H57367  11.262  10.374   5.337 -0.0079 -2.0869  0.4614
  425MOL0     H57368  11.201  10.428   5.169 -1.5186 -1.7265 -1.6748
  425MOL0     H57369  11.236  10.172   5.126 -0.0443  0.9020 -0.8409
  425MOL0     H57370  11.361  10.182   5.252 -0.1679 -1.6391 -1.6453
  425MOL0     H57371  11.336  10.322   4.980  2.1149  1.1043 -1.0192
  425MOL0     H57372  11.462  10.201   5.033  2.6356 -0.3824  2.5045
  425MOL0     H57373  11.653  10.538   5.145  0.4847  1.7439 -2.0847
  425MOL0     H57374  10.813  10.346   5.217 -1.3472  0.9779 -0.3677
  425MOL0     H57375  10.597  10.274   5.294  2.6365 -0.2376 -2.3326
  426MOL0     O57376   8.986   4.190   0.042  0.2395 -0.4986  1.0223
  426MOL0     C57377   8.987   4.300  -0.023 -1.4763  0.4377  0.0401
  426MOL0     O57378   8.892   4.390  -0.016 -0.1708 -0.6422  0.3478
  426MOL0     C57379   8.782   4.359   0.062  0.6341  1.1603 -0.1797
  426MOL0     C57380   8.794   4.380   0.201 -0.7898 -0.5492  0.0310
  426MOL0     C57381   8.687   4.358   0.283  0.2306 -0.0870 -0.1627
  426MOL0     C57382   8.571   4.299   0.233  0.0433  0.0996  0.2626
  426MOL0     O57383   8.457   4.277   0.305 -0.3381 -0.1087 -0.0763
  426MOL0     C57384   8.459   4.287   0.442  0.2543  0.6121 -0.5118
  426MOL0     C57385   8.320   4.276   0.509 -0.5583  0.0517  0.1087
  426MOL0     C57386   8.234   4.179   0.436  0.4238  0.6600 -0.6403
  426MOL0     C57387   8.090   4.181   0.500 -0.1773 -0.6344 -0.1331
  426MOL0     C57388   8.000   4.299   0.449  1.3361  0.4223  0.0575
  426MOL0     C57389   7.867   4.283   0.527 -0.3392  0.0913 -0.0190
  426MOL0     C57390   7.758   4.385   0.489  0.0466  0.5489 -0.5480
  426MOL0     C57391   7.720   4.356   0.341 -0.2629 -0.1457  0.8636
  426MOL0     N57392   7.655   4.225   0.313  0.6947 -0.6290 -0.1859
  426MOL0     C57393   7.549   4.166   0.390 -0.9120 -0.3825  0.3688
  426MOL0     C57394   7.527   4.054   0.328 -0.0152 -0.0790  0.2622
  426MOL0     C57395   7.436   3.940   0.374 -0.6757 -0.2406 -0.0549
  426MOL0     C57396   7.291   3.977   0.365 -0.3077  0.1960  0.6683
  426MOL0     C57397   7.196   3.859   0.392 -0.3516 -0.1386 -0.5810
  426MOL0     C57398   7.135   3.859   0.527  0.1770  0.2137  0.4868
  426MOL0     O57399   7.037   3.966   0.546  0.1172 -0.4553 -0.5331
  426MOL0     C57400   6.915   3.947   0.493  0.5830  0.3245  0.1320
  426MOL0     C57401   6.842   3.835   0.500  0.4838  0.6457  0.1978
  426MOL0     C57402   6.710   3.828   0.444  0.5381 -0.1315 -0.3682
  426MOL0     C57403   6.635   3.697   0.480 -0.3421 -0.4189 -0.2887
  426MOL0     C57404   6.656   3.946   0.388  0.1502  0.4659  0.3223
  426MOL0     C57405   6.510   3.946   0.333 -1.2350  0.0582  0.2890
  426MOL0     O57406   6.456   4.070   0.318 -0.0727  0.2277 -0.2560
  426MOL0     C57407   6.325   4.087   0.285  0.0784 -0.2756 -0.3601
  426MOL0     C57408   6.222   3.990   0.290  0.0121 -0.6451 -1.2145
  426MOL0     C57409   6.093   4.023   0.257  0.4858  0.4123 -0.4393
  426MOL0     C57410   6.062   4.148   0.219  0.1000  0.4851 -0.7283
  426MOL0     O57411   5.945   4.173   0.153 -0.4399  0.5400 -0.0474
  426MOL0     C57412   5.884   4.296   0.163  0.9076  0.0387  0.2969
  426MOL0     C57413   5.756   4.302   0.076  0.3734 -0.3180  0.5972
  426MOL0     C57414   5.654   4.202   0.129  0.1226 -0.1564  0.2738
  426MOL0     C57415   5.530   4.211   0.046 -0.4103  0.2403  0.3949
  426MOL0     C57416   5.419   4.123   0.108  0.7302  0.2471 -0.1847
  426MOL0     C57417   5.286   4.131   0.023  0.3456  0.0590 -0.0285
  426MOL0     C57418   5.166   4.110   0.108  0.0188 -0.2161  0.2329
  426MOL0     C57419   5.123   4.222   0.203 -0.7711  0.0542  0.3697
  426MOL0    Cl57420   5.026   4.171   0.335  0.8797  0.4129 -0.4740
  426MOL0     C57421   6.162   4.248   0.228 -0.6340  0.1062  0.2673
  426MOL0     C57422   6.295   4.216   0.259  0.4614 -0.1773  0.3177
  426MOL0     O57423   6.460   3.842   0.300  0.9581  0.8661  0.1966
  426MOL0     C57424   6.725   4.065   0.389 -0.5042  0.2929 -0.9182
  426MOL0     C57425   6.854   4.064   0.440  0.0804 -0.2731  0.3617
  426MOL0     N57426   7.587   4.051   0.206  0.0375 -0.3201 -0.7439
  426MOL0     N57427   7.669   4.151   0.201 -0.3973 -0.0742 -0.3621
  426MOL0     C57428   8.566   4.271   0.095  0.0082  0.7560 -0.3814
  426MOL0     C57429   8.672   4.293   0.010 -0.5774  0.4730 -0.3135
  426MOL0     C57430   9.107   4.340  -0.097 -0.4311  0.2973  0.7797
  426MOL0     C57431   9.121   4.469  -0.164 -1.4434  0.0897  0.3939
  426MOL0     C57432   9.239   4.516  -0.228 -0.7729 -0.8417 -0.8136
  426MOL0     C57433   9.345   4.424  -0.230 -0.0775 -0.4461 -0.3483
  426MOL0     O57434   9.457   4.440  -0.302  0.1428  0.2270 -0.2450
  426MOL0     C57435   9.492   4.565  -0.346 -0.4176 -0.3775 -0.3673
  426MOL0     C57436   9.438   4.584  -0.494 -0.2640 -0.4182 -1.2016
  426MOL0     C57437   9.519   4.518  -0.595 -0.1916  0.4437 -0.4224
  426MOL0     C57438   9.666   4.572  -0.604  0.3535 -0.2849 -0.4629
  426MOL0     C57439   9.754   4.537  -0.722  0.2180  0.0161  0.5174
  426MOL0     C57440   9.821   4.527  -0.820  0.1517 -0.0417 -0.7699
  426MOL0     C57441   9.336   4.296  -0.175  0.6073  0.1695 -0.4849
  426MOL0     C57442   9.216   4.249  -0.110 -0.0512  0.8436  1.6043
  426MOL0     H57443   8.878   4.434   0.245  0.5173 -0.4098 -2.4646
  426MOL0     H57444   8.698   4.385   0.387  1.8770 -1.3382  0.0443
  426MOL0     H57445   8.526   4.211   0.484 -0.8424 -1.1973 -1.9037
  426MOL0     H57446   8.494   4.384   0.479 -0.0605 -0.2268  2.2745
  426MOL0     H57447   8.335   4.245   0.613  0.7903  0.6215  0.0916
  426MOL0     H57448   8.267   4.371   0.515 -2.3181 -0.9004  0.7603
  426MOL0     H57449   8.212   4.203   0.331  3.5442 -1.6451 -1.9511
  426MOL0     H57450   8.281   4.081   0.442  1.2494  1.1207  0.7817
  426MOL0     H57451   8.038   4.086   0.488 -1.4398 -0.1588  1.2238
  426MOL0     H57452   8.106   4.187   0.608  0.9851  0.3020 -0.3243
  426MOL0     H57453   8.052   4.392   0.474 -2.0836  2.0096  1.8770
  426MOL0     H57454   7.977   4.297   0.342 -1.8795 -0.1572  0.6640
  426MOL0     H57455   7.828   4.184   0.500  1.7255  0.0000 -3.1130
  426MOL0     H57456   7.887   4.286   0.635  0.1265  0.7582 -0.1204
  426MOL0     H57457   7.663   4.371   0.540 -0.5877 -1.4168 -2.1515
  426MOL0     H57458   7.802   4.485   0.499  0.5154  0.2156  0.8752
  426MOL0     H57459   7.804   4.369   0.273  0.9841 -1.9953  1.9521
  426MOL0     H57460   7.652   4.434   0.305 -0.9637 -2.5345 -3.7006
  426MOL0     H57461   7.511   4.195   0.488  3.0931  0.0984  1.9716
  426MOL0     H57462   7.470   3.860   0.307  2.5937  2.5862 -2.1125
  426MOL0     H57463   7.448   3.898   0.475 -1.9705 -3.5311 -1.1238
  426MOL0     H57464   7.293   4.012   0.261 -0.6147 -0.4317  0.4439
  426MOL0     H57465   7.269   4.059   0.434  1.2518  0.7331  0.5805
  426MOL0     H57466   7.246   3.762   0.375 -0.4708 -0.2020 -0.5690
  426MOL0     H57467   7.110   3.872   0.326  0.1417  2.5583 -0.8058
  426MOL0     H57468   7.208   3.874   0.607 -0.2043  0.9561  0.7087
  426MOL0     H57469   7.096   3.757   0.534  0.4373  0.1732  1.4456
  426MOL0     H57470   6.885   3.753   0.555  0.6307  1.2225  0.9658
  426MOL0     H57471   6.576   3.715   0.570  0.0420  2.6358 -0.5410
  426MOL0     H57472   6.564   3.660   0.406 -0.1196 -1.8908  0.2074
  426MOL0     H57473   6.708   3.618   0.498  0.9595  0.2255 -2.2771
  426MOL0     H57474   6.242   3.890   0.327 -0.1626 -1.1913 -2.5354
  426MOL0     H57475   6.016   3.947   0.258  3.7498 -3.2534  0.7029
  426MOL0     H57476   5.850   4.315   0.266 -1.0220 -1.8065  0.0598
  426MOL0     H57477   5.950   4.378   0.132  2.9110 -0.8670  1.9349
  426MOL0     H57478   5.713   4.401   0.085  1.2233 -0.1281  3.3432
  426MOL0     H57479   5.775   4.278  -0.030  1.1807 -1.9442  1.0700
  426MOL0     H57480   5.640   4.229   0.234  4.7345  1.6088  0.6492
  426MOL0     H57481   5.698   4.102   0.131  1.2140  0.1892 -2.1893
  426MOL0     H57482   5.492   4.313   0.046 -0.8494  0.0818  1.0318
  426MOL0     H57483   5.555   4.178  -0.055  0.9931  1.3766  0.3310
  426MOL0     H57484   5.393   4.164   0.206 -0.7245 -0.5185 -0.2140
  426MOL0     H57485   5.458   4.022   0.122  1.7922  0.8062  1.1341
  426MOL0     H57486   5.282   4.238  -0.001 -0.4918 -0.2467 -1.3528
  426MOL0     H57487   5.290   4.074  -0.070 -0.1043  0.0324 -0.0316
  426MOL0     H57488   5.172   4.013   0.160 -1.4292 -2.8492 -4.0004
  426MOL0     H57489   5.086   4.107   0.034 -0.7695  2.2136  0.9207
  426MOL0     H57490   5.063   4.296   0.149  1.6649  1.3005 -0.8006
  426MOL0     H57491   5.210   4.275   0.244 -0.0316 -0.1375 -0.8904
  426MOL0     H57492   6.148   4.347   0.185  1.5936 -0.2169 -1.3454
  426MOL0     H57493   6.361   4.302   0.247 -1.4372  1.1206 -1.5087
  426MOL0     H57494   6.683   4.156   0.347  0.2789  0.5045 -1.2771
  426MOL0     H57495   6.917   4.151   0.421  1.3006 -0.7258  2.1513
  426MOL0     H57496   8.470   4.230   0.064  0.0145  0.5052 -0.0729
  426MOL0     H57497   8.664   4.271  -0.096 -2.0802 -1.4449  0.1290
  426MOL0     H57498   9.032   4.529  -0.177 -0.5524  1.0517 -1.8235
  426MOL0     H57499   9.235   4.615  -0.273 -1.4072  0.6221  2.1976
  426MOL0     H57500   9.459   4.644  -0.277  1.5751  1.4582 -1.3664
  426MOL0     H57501   9.600   4.582  -0.340 -0.6693  1.1837  0.5593
  426MOL0     H57502   9.436   4.692  -0.509  0.3504  0.2591  2.5042
  426MOL0     H57503   9.334   4.550  -0.503  0.4331 -2.3226 -2.8352
  426MOL0     H57504   9.478   4.520  -0.696 -0.5818  1.4329 -0.2535
  426MOL0     H57505   9.535   4.411  -0.578 -0.7380  0.2656 -0.9679
  426MOL0     H57506   9.722   4.529  -0.520 -1.7006  2.4847  2.5622
  426MOL0     H57507   9.662   4.681  -0.596 -4.6348 -0.2448  0.2361
  426MOL0     H57508   9.884   4.515  -0.906 -1.8417  2.4941 -2.7476
  426MOL0     H57509   9.417   4.224  -0.168  1.1511  0.7274 -0.9566
  426MOL0     H57510   9.195   4.154  -0.061  2.0082 -0.4586  0.0879
  427MOL0     O57511   1.353   9.943   6.557  0.4446  0.4956 -0.0610
  427MOL0     C57512   1.460   9.976   6.521  0.3121  0.3704  0.0625
  427MOL0     O57513   1.486  10.100   6.470 -0.1010  0.0909  0.3579
  427MOL0     C57514   1.394  10.204   6.468 -0.1058  0.0166 -0.4231
  427MOL0     C57515   1.417  10.297   6.371 -0.1007 -0.0500 -0.6354
  427MOL0     C57516   1.327  10.404   6.340  0.4894  1.0605  0.0557
  427MOL0     C57517   1.213  10.420   6.424  0.5690 -0.1856  0.5858
  427MOL0     O57518   1.126  10.525   6.430  0.1715  0.1527  0.6784
  427MOL0     C57519   1.170  10.648   6.374  0.2797  1.0106  0.6664
  427MOL0     C57520   1.077  10.761   6.406  0.3693  0.1956  0.2006
  427MOL0     C57521   1.004  10.806   6.275  0.2083  0.4654 -0.8509
  427MOL0     C57522   0.923  10.936   6.279 -0.6739  0.4608  0.2220
  427MOL0     C57523   0.783  10.910   6.335 -0.5910  0.6894  0.1198
  427MOL0     C57524   0.688  10.811   6.261  0.5502  0.8139 -0.1723
  427MOL0     C57525   0.535  10.812   6.284 -1.2287  0.8534 -0.1885
  427MOL0     C57526   0.478  10.910   6.196 -0.2469  0.1912 -0.2227
  427MOL0     N57527   0.338  10.933   6.212  0.1113  0.1285 -0.4303
  427MOL0     C57528   0.270  11.022   6.128 -0.3559 -0.0141 -0.3942
  427MOL0     C57529   0.144  11.023   6.188 -1.1052 -0.8529 -0.8362
  427MOL0     C57530   0.035  11.088   6.124  0.0618 -1.1013  0.5582
  427MOL0     C57531  -0.051  11.174   6.217 -0.0154 -0.4920  0.0292
  427MOL0     C57532  -0.132  11.099   6.319  0.8150 -0.2138  0.1516
  427MOL0     C57533  -0.224  10.994   6.252 -0.0403 -0.1261  0.2961
  427MOL0     O57534  -0.311  10.950   6.357  0.5072  0.3771 -0.0859
  427MOL0     C57535  -0.418  10.884   6.302  0.8161  0.5571 -0.0643
  427MOL0     C57536  -0.446  10.831   6.173  0.3000 -1.1028  0.3086
  427MOL0     C57537  -0.572  10.784   6.144  0.3210 -0.5268  0.5391
  427MOL0     C57538  -0.594  10.734   6.002 -0.1410  0.8365 -0.3287
  427MOL0     C57539  -0.674  10.779   6.243  0.5967  0.8196 -0.4742
  427MOL0     C57540  -0.816  10.743   6.215 -0.3137  0.2894  0.1144
  427MOL0     O57541  -0.896  10.731   6.321 -0.2855 -0.4145  0.1537
  427MOL0     C57542  -1.036  10.722   6.299 -0.9449 -0.7467  0.0248
  427MOL0     C57543  -1.087  10.593   6.335  0.5675  0.0242 -0.1689
  427MOL0     C57544  -1.222  10.570   6.310 -0.3076  0.3502 -0.1997
  427MOL0     C57545  -1.303  10.672   6.257  0.0804 -0.0199  0.1721
  427MOL0     O57546  -1.431  10.627   6.233  0.2992  0.4674 -0.2956
  427MOL0     C57547  -1.525  10.710   6.159  0.4653  0.3721 -0.2022
  427MOL0     C57548  -1.652  10.628   6.154 -0.9814 -0.1314  0.3558
  427MOL0     C57549  -1.757  10.668   6.255  0.7760 -0.4194 -1.2156
  427MOL0     C57550  -1.851  10.553   6.275  0.5747  0.0568  0.6441
  427MOL0     C57551  -1.934  10.571   6.403 -0.0878 -0.5449 -0.2400
  427MOL0     C57552  -2.018  10.448   6.422  0.2192 -0.2089 -0.2383
  427MOL0     C57553  -2.097  10.481   6.549 -0.2384  0.9158 -0.2964
  427MOL0     C57554  -2.180  10.360   6.578 -0.1796  0.3002 -0.4412
  427MOL0    Cl57555  -2.312  10.339   6.441 -0.5774  0.0815  0.2860
  427MOL0     C57556  -1.254  10.798   6.224 -0.4199 -0.2961  0.2588
  427MOL0     C57557  -1.119  10.818   6.248 -0.1387 -0.1845  0.3728
  427MOL0     O57558  -0.853  10.711   6.102  0.2385  0.2635 -0.7698
  427MOL0     C57559  -0.639  10.810   6.374 -0.7899  0.0303 -0.4771
  427MOL0     C57560  -0.512  10.866   6.404 -0.9231  0.5257 -0.6223
  427MOL0     N57561   0.150  10.965   6.313  0.2131  1.3114 -0.0280
  427MOL0     N57562   0.270  10.916   6.324  0.2140 -0.1194 -0.1844
  427MOL0     C57563   1.197  10.332   6.537 -0.2765 -0.2549  0.7434
  427MOL0     C57564   1.292  10.223   6.559 -0.2490  0.3630  0.1294
  427MOL0     C57565   1.568   9.882   6.513  0.8866  0.0897  0.1745
  427MOL0     C57566   1.696   9.938   6.511  0.2951  0.1980  0.2872
  427MOL0     C57567   1.810   9.873   6.468  0.1987 -0.2538  0.1309
  427MOL0     C57568   1.798   9.731   6.443 -0.1636 -1.0685  0.3691
  427MOL0     O57569   1.903   9.645   6.412  0.7034 -0.2963 -0.5364
  427MOL0     C57570   2.037   9.701   6.398 -0.0701 -0.2695  0.3531
  427MOL0     C57571   2.120   9.601   6.321 -0.0945 -0.3788  0.1667
  427MOL0     C57572   2.269   9.644   6.317 -0.0271 -0.2652  0.3552
  427MOL0     C57573   2.343   9.551   6.209  0.2771 -0.3015 -0.3586
  427MOL0     C57574   2.470   9.605   6.167 -0.2523  0.6418  0.1370
  427MOL0     C57575   2.583   9.648   6.155  0.3561  0.2827 -0.5579
  427MOL0     C57576   1.670   9.682   6.439  0.5303 -0.2139 -0.4060
  427MOL0     C57577   1.552   9.749   6.481  0.8530 -0.3575 -0.2602
  427MOL0     H57578   1.507  10.294   6.309 -0.9023  3.6927 -2.2512
  427MOL0     H57579   1.356  10.471   6.260  0.7646 -1.6954 -2.3222
  427MOL0     H57580   1.274  10.674   6.393 -0.1898  4.6918 -0.9080
  427MOL0     H57581   1.170  10.635   6.265  0.7643  2.5966  0.4522
  427MOL0     H57582   0.997  10.751   6.480 -0.3642  2.9084 -0.1384
  427MOL0     H57583   1.132  10.846   6.446 -2.6793  0.7863  3.6690
  427MOL0     H57584   1.085  10.809   6.201 -0.9314 -0.8855 -2.2216
  427MOL0     H57585   0.935  10.726   6.249 -0.1864  0.1834  0.9188
  427MOL0     H57586   0.971  11.011   6.342 -3.0077  3.5448 -1.3778
  427MOL0     H57587   0.911  10.976   6.177  0.4628 -1.1954 -0.5965
  427MOL0     H57588   0.788  10.878   6.439 -2.4227 -0.2597 -0.0381
  427MOL0     H57589   0.743  11.012   6.337  0.4733  1.1307 -0.3303
  427MOL0     H57590   0.707  10.827   6.154  0.3503 -1.1617 -0.5471
  427MOL0     H57591   0.727  10.714   6.294 -1.0364 -0.0748 -0.8203
  427MOL0     H57592   0.503  10.713   6.251 -0.2454  0.2489  0.6354
  427MOL0     H57593   0.508  10.818   6.389  0.8568  1.0408  0.3768
  427MOL0     H57594   0.499  10.889   6.091  1.1992  0.7964 -0.0782
  427MOL0     H57595   0.528  11.004   6.223 -0.7006  0.0818  1.0640
  427MOL0     H57596   0.310  11.064   6.036  1.8047  0.6000  0.7588
  427MOL0     H57597   0.072  11.162   6.053 -3.2469 -1.1114 -1.3892
  427MOL0     H57598  -0.029  11.019   6.068 -1.6108  0.1457  0.8302
  427MOL0     H57599  -0.121  11.228   6.152  0.4050  1.9752  1.5142
  427MOL0     H57600   0.005  11.246   6.277  0.3863 -0.5669 -0.2547
  427MOL0     H57601  -0.187  11.174   6.377  0.1374 -0.8376  0.3304
  427MOL0     H57602  -0.066  11.042   6.385  0.6514 -2.2306 -1.3313
  427MOL0     H57603  -0.176  10.905   6.208 -0.0542 -0.1505  0.3298
  427MOL0     H57604  -0.271  11.032   6.161  1.7105  1.3234 -0.0534
  427MOL0     H57605  -0.376  10.839   6.090 -1.1134  0.1381 -0.8024
  427MOL0     H57606  -0.622  10.629   5.997  0.3085  0.6653  0.4802
  427MOL0     H57607  -0.661  10.799   5.945 -1.4793  1.1723  1.5276
  427MOL0     H57608  -0.500  10.745   5.947  1.1756  0.0243  1.6150
  427MOL0     H57609  -1.032  10.524   6.399  2.5653  1.0106 -0.7449
  427MOL0     H57610  -1.271  10.475   6.330 -0.9085  0.6933 -0.0187
  427MOL0     H57611  -1.532  10.808   6.209  1.3329 -0.2779  1.2723
  427MOL0     H57612  -1.476  10.721   6.062  0.9890 -2.0091 -0.2582
  427MOL0     H57613  -1.699  10.661   6.060  1.7383  1.3752 -0.5700
  427MOL0     H57614  -1.640  10.520   6.151 -3.8748 -0.5393 -0.0526
  427MOL0     H57615  -1.801  10.765   6.233 -0.0449  0.4811  3.4645
  427MOL0     H57616  -1.709  10.678   6.353 -1.1393 -0.4603 -0.2320
  427MOL0     H57617  -1.915  10.550   6.186  1.9143  0.3063 -0.3391
  427MOL0     H57618  -1.803  10.455   6.281  0.8538  0.0849 -0.8330
  427MOL0     H57619  -2.002  10.654   6.383 -2.6698 -3.1955 -3.7178
  427MOL0     H57620  -1.870  10.575   6.492 -1.7319 -0.3462  0.9632
  427MOL0     H57621  -2.084  10.429   6.337 -0.8774 -4.5375  1.3013
  427MOL0     H57622  -1.964  10.354   6.437 -0.6938 -0.8579 -0.9146
  427MOL0     H57623  -2.167  10.564   6.540 -2.9623 -0.6887  3.5025
  427MOL0     H57624  -2.032  10.509   6.632  1.7016  0.8219 -1.7155
  427MOL0     H57625  -2.243  10.383   6.665 -0.7647 -1.2713 -0.3981
  427MOL0     H57626  -2.121  10.269   6.592 -1.3286 -1.0891 -3.6679
  427MOL0     H57627  -1.318  10.878   6.190  0.0947  0.4969  1.1108
  427MOL0     H57628  -1.076  10.916   6.225 -1.2136 -0.5031 -3.6684
  427MOL0     H57629  -0.704  10.801   6.460  0.9487  1.9103  1.1125
  427MOL0     H57630  -0.484  10.883   6.508  1.1681  3.3103 -1.5135
  427MOL0     H57631   1.113  10.340   6.605  0.3198 -2.5286  1.8320
  427MOL0     H57632   1.299  10.162   6.649 -0.8307  0.4280  0.2178
  427MOL0     H57633   1.705  10.042   6.542 -0.2578  0.5330 -0.6521
  427MOL0     H57634   1.901   9.931   6.463  1.1397 -1.6897 -0.0592
  427MOL0     H57635   2.032   9.791   6.337 -2.1418  0.5760  1.6581
  427MOL0     H57636   2.087   9.737   6.488  1.1882  2.7349 -1.4229
  427MOL0     H57637   2.089   9.598   6.216  4.9320 -1.3743 -1.5635
  427MOL0     H57638   2.102   9.499   6.357 -2.6932  0.0741  0.3669
  427MOL0     H57639   2.325   9.631   6.410  3.4472  0.1486 -1.4806
  427MOL0     H57640   2.280   9.750   6.292  0.9334 -0.5090 -0.3309
  427MOL0     H57641   2.280   9.537   6.122 -1.1865  0.5552  0.5233
  427MOL0     H57642   2.350   9.450   6.252 -1.0809 -0.9485 -1.5783
  427MOL0     H57643   2.683   9.688   6.159  0.2624  0.4988 -0.3089
  427MOL0     H57644   1.658   9.578   6.408 -0.8606  0.2428 -1.5202
  427MOL0     H57645   1.453   9.707   6.469  1.0371 -1.2232  1.0438
  428MOL0     O57646   6.659   7.741   4.880 -0.5361  0.3941  1.0454
  428MOL0     C57647   6.585   7.744   4.780  0.0170  0.3396  0.7731
  428MOL0     O57648   6.461   7.688   4.780  0.6581  0.4107  0.2503
  428MOL0     C57649   6.410   7.621   4.893  0.2679  0.3815  0.3857
  428MOL0     C57650   6.279   7.567   4.872 -0.1900  0.1249  0.1625
  428MOL0     C57651   6.222   7.480   4.961  0.3912 -0.6881 -0.5274
  428MOL0     C57652   6.288   7.440   5.076  1.0729  0.8608 -0.3678
  428MOL0     O57653   6.210   7.369   5.164  0.2206 -0.1459  0.1693
  428MOL0     C57654   6.223   7.382   5.303  0.0758 -0.3649  0.2943
  428MOL0     C57655   6.100   7.327   5.369  0.4825 -0.5292 -0.4959
  428MOL0     C57656   5.973   7.414   5.337 -1.2271  0.7157 -0.1491
  428MOL0     C57657   5.846   7.358   5.412 -0.6850 -0.2530  0.4572
  428MOL0     C57658   5.731   7.455   5.402  0.4058 -1.0937 -0.0632
  428MOL0     C57659   5.595   7.412   5.450 -1.3877  0.3162  0.8480
  428MOL0     C57660   5.476   7.513   5.423 -0.2921  0.5795  0.5534
  428MOL0     C57661   5.421   7.505   5.275 -0.1687 -0.0533 -0.8007
  428MOL0     N57662   5.298   7.580   5.288  0.3118  0.2904  0.4654
  428MOL0     C57663   5.284   7.720   5.295  0.3068  0.5962 -1.1622
  428MOL0     C57664   5.149   7.740   5.325 -0.0266  0.0922 -0.1850
  428MOL0     C57665   5.073   7.861   5.359 -0.0523 -0.1213  0.4372
  428MOL0     C57666   5.023   7.925   5.237  0.2390 -0.3406  0.7194
  428MOL0     C57667   4.937   8.046   5.249  0.2888  0.3444 -0.2954
  428MOL0     C57668   4.913   8.104   5.104 -0.3725 -0.4193 -0.0900
  428MOL0     O57669   4.837   8.223   5.108  0.5270 -0.0405  0.2937
  428MOL0     C57670   4.698   8.212   5.093 -0.4369  0.6482 -1.0385
  428MOL0     C57671   4.626   8.088   5.098  0.3415 -0.0164  1.0471
  428MOL0     C57672   4.489   8.090   5.068 -0.2285 -0.5198  0.5355
  428MOL0     C57673   4.432   7.956   5.061 -0.0343  0.1847  0.3047
  428MOL0     C57674   4.427   8.203   5.033  0.1811 -0.0646  0.2226
  428MOL0     C57675   4.275   8.213   5.004 -0.7089 -0.9411  0.4662
  428MOL0     O57676   4.231   8.335   4.969  0.6721 -0.5625  0.3842
  428MOL0     C57677   4.100   8.347   4.995  0.8842  0.2244 -0.2850
  428MOL0     C57678   4.055   8.393   5.119 -0.5493 -0.5394  0.4971
  428MOL0     C57679   3.922   8.436   5.133 -0.6621 -0.3829 -0.0175
  428MOL0     C57680   3.835   8.413   5.031  0.6538 -0.1982  0.1657
  428MOL0     O57681   3.707   8.464   5.058  0.4102  0.2778 -0.2134
  428MOL0     C57682   3.599   8.430   4.973  0.2765 -0.5774  0.6182
  428MOL0     C57683   3.479   8.516   5.008  0.2257 -0.2499  0.3375
  428MOL0     C57684   3.370   8.523   4.901 -0.0402 -0.0882  0.7369
  428MOL0     C57685   3.235   8.587   4.945 -0.4393 -0.3811  0.4520
  428MOL0     C57686   3.146   8.640   4.824 -0.1852 -0.6242  0.1082
  428MOL0     C57687   3.004   8.681   4.865 -0.3871  0.4853  0.4799
  428MOL0     C57688   2.934   8.744   4.750  0.0810 -0.1954 -0.4053
  428MOL0     C57689   2.820   8.823   4.790  0.2966  0.1163  0.0165
  428MOL0    Cl57690   2.863   9.003   4.831 -0.0414 -0.2259 -0.4389
  428MOL0     C57691   3.872   8.353   4.907 -0.2385  0.0963 -0.3953
  428MOL0     C57692   4.012   8.330   4.886  0.8021  0.4267  0.2557
  428MOL0     O57693   4.205   8.115   5.037 -0.7178  0.5414  0.5151
  428MOL0     C57694   4.500   8.323   5.022 -0.0574 -0.5394  0.1564
  428MOL0     C57695   4.631   8.327   5.059 -0.1733  0.4419 -0.7704
  428MOL0     N57696   5.080   7.611   5.314 -0.3856  0.3838  0.3612
  428MOL0     N57697   5.174   7.521   5.298  0.2995  0.0735  0.0768
  428MOL0     C57698   6.411   7.500   5.103  0.7078 -0.1998 -0.1043
  428MOL0     C57699   6.470   7.586   5.018 -0.0733 -0.1013  0.4076
  428MOL0     C57700   6.647   7.762   4.642  0.1102 -0.2918 -0.0802
  428MOL0     C57701   6.770   7.824   4.631  0.7356  0.2054 -0.0976
  428MOL0     C57702   6.821   7.857   4.504  0.4643 -0.5425 -0.1365
  428MOL0     C57703   6.750   7.833   4.387  0.2568  0.2647  0.1883
  428MOL0     O57704   6.779   7.888   4.266 -0.0911  0.4711 -0.8257
  428MOL0     C57705   6.917   7.915   4.230 -0.7517  0.2241  0.4661
  428MOL0     C57706   7.010   7.793   4.246 -0.2341 -0.1438  0.5485
  428MOL0     C57707   6.969   7.666   4.165  0.0375  0.5513 -1.0137
  428MOL0     C57708   7.034   7.546   4.237  0.2761 -0.6497 -0.4310
  428MOL0     C57709   6.998   7.432   4.153 -0.2719 -0.7340  0.1196
  428MOL0     C57710   6.969   7.335   4.087  0.1724 -0.5180  0.2426
  428MOL0     C57711   6.627   7.769   4.397  0.0750 -0.0473  0.6265
  428MOL0     C57712   6.576   7.732   4.527  0.0933  0.1196  0.5004
  428MOL0     H57713   6.235   7.586   4.775  0.8870  0.4712 -0.2780
  428MOL0     H57714   6.128   7.436   4.931 -1.2672  2.3684 -0.1845
  428MOL0     H57715   6.309   7.325   5.340  0.1245 -1.6411 -1.6559
  428MOL0     H57716   6.238   7.486   5.333  2.3532 -0.4008 -0.5461
  428MOL0     H57717   6.093   7.226   5.328  3.3570 -1.3280  0.7594
  428MOL0     H57718   6.117   7.326   5.478  0.5881  1.3011 -0.4642
  428MOL0     H57719   5.995   7.512   5.381  0.3670 -1.1281  3.4875
  428MOL0     H57720   5.956   7.417   5.229  1.7116  1.9384 -0.6658
  428MOL0     H57721   5.830   7.256   5.373  0.6206 -0.8372  1.3778
  428MOL0     H57722   5.873   7.336   5.515  1.2730  3.0745  0.7827
  428MOL0     H57723   5.759   7.549   5.452 -1.0711 -0.3925 -0.5065
  428MOL0     H57724   5.715   7.480   5.297 -1.6222 -2.1997 -0.0586
  428MOL0     H57725   5.577   7.311   5.411  0.8089  0.1908  0.0047
  428MOL0     H57726   5.609   7.411   5.558  0.8381 -1.2178  0.6169
  428MOL0     H57727   5.402   7.507   5.503  1.8107  1.9975  2.7558
  428MOL0     H57728   5.509   7.614   5.449  1.2531 -0.4579  3.0521
  428MOL0     H57729   5.388   7.402   5.259  0.3015 -0.6058  1.5114
  428MOL0     H57730   5.489   7.530   5.193  0.8526 -2.7227 -0.8525
  428MOL0     H57731   5.366   7.790   5.283  2.0790 -1.0722  0.5651
  428MOL0     H57732   4.989   7.829   5.422 -1.2039 -1.1021 -1.4922
  428MOL0     H57733   5.129   7.936   5.416  0.5801 -0.7206  0.6157
  428MOL0     H57734   4.970   7.842   5.189  0.9159 -0.7401  0.6567
  428MOL0     H57735   5.103   7.964   5.174 -1.6148  3.4616  0.4315
  428MOL0     H57736   4.995   8.127   5.296  1.6749 -0.4625 -0.5525
  428MOL0     H57737   4.843   8.038   5.304 -0.1331  0.7201 -0.9611
  428MOL0     H57738   4.871   8.029   5.036  0.8596 -0.9859 -0.2563
  428MOL0     H57739   5.012   8.126   5.064 -0.5579 -0.5725 -0.6498
  428MOL0     H57740   4.674   7.994   5.123  1.3389  0.1737 -0.0650
  428MOL0     H57741   4.368   7.957   5.150  0.2774  3.3452  0.6227
  428MOL0     H57742   4.370   7.949   4.971 -0.4948  1.1138  0.5304
  428MOL0     H57743   4.494   7.869   5.083  0.9185  1.0238  1.0487
  428MOL0     H57744   4.115   8.427   5.203 -0.6583 -1.2536  0.8676
  428MOL0     H57745   3.883   8.499   5.212 -0.9073  2.3677 -2.1775
  428MOL0     H57746   3.633   8.465   4.875 -0.2351 -3.7123 -0.8313
  428MOL0     H57747   3.565   8.327   4.955 -2.5395  0.5181 -0.7797
  428MOL0     H57748   3.440   8.467   5.098 -1.3715  0.9317  0.3328
  428MOL0     H57749   3.515   8.617   5.030 -0.2911  0.0690 -0.2539
  428MOL0     H57750   3.356   8.430   4.846  0.4014  1.1858 -1.6899
  428MOL0     H57751   3.413   8.585   4.821 -3.1742  0.9405 -0.3046
  428MOL0     H57752   3.182   8.499   4.982  2.4680 -2.8877 -0.9269
  428MOL0     H57753   3.253   8.656   5.028  3.0652  0.4100 -0.8117
  428MOL0     H57754   3.142   8.568   4.741 -1.6702 -2.3437  1.5917
  428MOL0     H57755   3.188   8.733   4.786  0.4698 -1.1588 -0.5146
  428MOL0     H57756   2.958   8.587   4.898  4.4062 -0.8998  4.4496
  428MOL0     H57757   2.998   8.751   4.948 -0.3479  0.4352  0.5252
  428MOL0     H57758   2.903   8.661   4.685 -3.1150  0.7370 -0.2302
  428MOL0     H57759   3.001   8.814   4.698  1.0949 -1.3644 -0.7329
  428MOL0     H57760   2.761   8.775   4.868 -1.2878 -1.5111 -2.0632
  428MOL0     H57761   2.751   8.831   4.706  1.2323 -1.2011 -0.9114
  428MOL0     H57762   3.800   8.326   4.830 -0.1760 -0.0115 -0.4163
  428MOL0     H57763   4.050   8.297   4.790  2.8930  3.8345 -0.2698
  428MOL0     H57764   4.456   8.414   4.983 -2.2853 -0.8467  1.7980
  428MOL0     H57765   4.679   8.423   5.038  1.4572 -0.2719 -0.4700
  428MOL0     H57766   6.456   7.481   5.200  1.7325  1.9760 -0.0779
  428MOL0     H57767   6.563   7.627   5.055 -1.2297  1.0828  2.1546
  428MOL0     H57768   6.831   7.842   4.719  0.5300  1.7543 -0.2367
  428MOL0     H57769   6.911   7.916   4.510  0.7252 -1.1027  2.9835
  428MOL0     H57770   6.915   7.945   4.125  2.3950 -0.3805  0.1381
  428MOL0     H57771   6.956   7.999   4.287  1.8396  0.9483 -2.1419
  428MOL0     H57772   7.010   7.765   4.352 -1.9201 -1.8105  0.1772
  428MOL0     H57773   7.112   7.816   4.216  0.0945  0.9162  2.3628
  428MOL0     H57774   6.978   7.679   4.057 -0.6546  3.5142 -0.8032
  428MOL0     H57775   6.863   7.654   4.190  0.6329  1.2638  2.3103
  428MOL0     H57776   6.983   7.526   4.331  0.7135 -1.6167 -0.3970
  428MOL0     H57777   7.140   7.569   4.242  0.2549 -0.6319 -0.0484
  428MOL0     H57778   6.948   7.257   4.017  2.7802 -1.0274 -0.0966
  428MOL0     H57779   6.574   7.747   4.305  0.6899 -2.5257  0.8048
  428MOL0     H57780   6.484   7.676   4.538  2.1045 -3.9982 -1.6808
  429MOL0     O57781  10.009   5.313   5.611 -0.4122  0.5617 -0.0929
  429MOL0     C57782  10.046   5.434   5.605 -0.2609 -0.3516  0.0652
  429MOL0     O57783   9.971   5.538   5.643  0.0599  0.2896 -0.2725
  429MOL0     C57784   9.845   5.508   5.701 -0.2538 -0.2113  1.0071
  429MOL0     C57785   9.746   5.444   5.630  0.1156  1.3765 -1.4842
  429MOL0     C57786   9.624   5.417   5.692 -0.6996 -1.2386  0.6867
  429MOL0     C57787   9.594   5.463   5.821  0.0086 -0.4903 -0.3265
  429MOL0     O57788   9.480   5.448   5.895 -0.6375  0.9107 -0.1220
  429MOL0     C57789   9.370   5.383   5.837 -1.5976 -0.7965  0.6066
  429MOL0     C57790   9.241   5.397   5.909  0.1061  0.5113  0.3116
  429MOL0     C57791   9.166   5.519   5.876 -0.5568 -0.2974 -0.0835
  429MOL0     C57792   9.055   5.539   5.973 -0.1112 -0.1730 -0.3833
  429MOL0     C57793   8.961   5.654   5.924 -0.1932 -0.4084 -0.0420
  429MOL0     C57794   9.033   5.786   5.913 -0.3080  0.1976  0.7673
  429MOL0     C57795   8.927   5.895   5.874 -0.8060 -0.6173  0.0286
  429MOL0     C57796   8.825   5.933   5.993 -0.1795 -0.6047 -0.0098
  429MOL0     N57797   8.896   5.959   6.126  0.1993  0.1141 -0.5824
  429MOL0     C57798   8.898   5.874   6.235 -0.4034  0.1855  0.0823
  429MOL0     C57799   8.951   5.942   6.341 -0.6249 -0.1887  0.2023
  429MOL0     C57800   8.987   5.879   6.477 -0.8816  0.1784 -0.1393
  429MOL0     C57801   8.857   5.851   6.560 -0.7142  0.4875 -0.4689
  429MOL0     C57802   8.873   5.758   6.676  0.4690 -0.5296  0.1369
  429MOL0     C57803   8.736   5.715   6.739 -0.4498 -0.2762  0.1988
  429MOL0     O57804   8.674   5.618   6.655 -0.3205 -0.3679 -0.6118
  429MOL0     C57805   8.560   5.563   6.707  0.2504 -0.1234 -1.1027
  429MOL0     C57806   8.467   5.631   6.781  0.3943  0.3102  0.7397
  429MOL0     C57807   8.347   5.570   6.818  0.7915  0.0823 -0.1260
  429MOL0     C57808   8.253   5.652   6.910 -0.2616 -0.6765  0.2089
  429MOL0     C57809   8.307   5.439   6.769 -0.8565 -0.2500 -0.4578
  429MOL0     C57810   8.183   5.371   6.805 -0.1006  0.1767 -0.4066
  429MOL0     O57811   8.175   5.235   6.766 -0.1153  0.5581 -0.2755
  429MOL0     C57812   8.052   5.171   6.767 -0.1708  0.8444  0.3922
  429MOL0     C57813   8.031   5.035   6.814 -0.1470  0.1642  0.0429
  429MOL0     C57814   7.905   4.985   6.818 -0.0169  0.2037  0.3490
  429MOL0     C57815   7.790   5.055   6.780 -0.3216 -0.0437  0.3420
  429MOL0     O57816   7.658   5.016   6.759  0.3555  0.0061 -0.0681
  429MOL0     C57817   7.637   4.877   6.726  0.0794 -0.1977  0.0582
  429MOL0     C57818   7.705   4.833   6.586 -0.3626  0.7861 -0.8919
  429MOL0     C57819   7.731   4.685   6.581 -0.2158  0.0353 -0.1517
  429MOL0     C57820   7.610   4.592   6.592  0.4844 -0.0328 -0.2286
  429MOL0     C57821   7.498   4.628   6.485  0.5129 -0.1606  0.3654
  429MOL0     C57822   7.548   4.632   6.338  0.1530  0.3984 -0.0345
  429MOL0     C57823   7.438   4.605   6.231 -0.1189 -0.1935  0.1154
  429MOL0     C57824   7.391   4.464   6.240 -0.5714 -0.2308  0.9913
  429MOL0    Cl57825   7.274   4.431   6.108  0.0707 -0.4319  0.1939
  429MOL0     C57826   7.813   5.184   6.739  0.0762 -0.3543 -0.0368
  429MOL0     C57827   7.937   5.241   6.722  0.0740 -0.5751  0.2896
  429MOL0     O57828   8.091   5.435   6.850 -0.5550 -0.1229  1.0190
  429MOL0     C57829   8.402   5.375   6.686 -0.3610  0.2963 -0.2192
  429MOL0     C57830   8.529   5.437   6.660  0.1117 -0.4837  0.1962
  429MOL0     N57831   8.992   6.062   6.291 -0.0080 -0.5744 -0.4759
  429MOL0     N57832   8.958   6.078   6.165 -0.3251 -0.1087  0.0413
  429MOL0     C57833   9.695   5.534   5.888 -0.0976 -0.8224 -0.0377
  429MOL0     C57834   9.813   5.561   5.825 -0.0395 -0.5730  0.4432
  429MOL0     C57835  10.181   5.461   5.536  0.6073 -0.0298 -0.5263
  429MOL0     C57836  10.261   5.568   5.578 -0.3981  0.7566 -0.2663
  429MOL0     C57837  10.369   5.612   5.527 -0.0114  0.3579  0.3688
  429MOL0     C57838  10.420   5.547   5.413 -0.3022 -0.4860  0.8693
  429MOL0     O57839  10.522   5.590   5.329  0.8026 -0.4363  0.3317
  429MOL0     C57840  10.626   5.666   5.400 -0.3035  0.1182  0.1810
  429MOL0     C57841  10.752   5.689   5.308  0.0173 -0.3015  0.7889
  429MOL0     C57842  10.863   5.770   5.368  0.3638 -0.3225  0.6629
  429MOL0     C57843  10.991   5.765   5.283 -0.0204  0.5003  0.4408
  429MOL0     C57844  10.966   5.832   5.161  0.3890 -0.9294 -0.1109
  429MOL0     C57845  10.951   5.885   5.052 -0.6255  0.4769  0.4676
  429MOL0     C57846  10.353   5.429   5.361  1.2476 -1.2417 -1.3810
  429MOL0     C57847  10.234   5.386   5.427  0.6660 -0.0441  0.1628
  429MOL0     H57848   9.768   5.396   5.535  0.5639  1.8028 -1.6037
  429MOL0     H57849   9.554   5.359   5.633 -1.7593  0.7955 -0.1504
  429MOL0     H57850   9.360   5.425   5.737  0.1835 -0.9690  0.3138
  429MOL0     H57851   9.402   5.280   5.818  1.4654  0.1748 -0.0071
  429MOL0     H57852   9.175   5.310   5.898  0.6875  0.2839 -1.8924
  429MOL0     H57853   9.260   5.399   6.016 -1.1063 -1.4480  0.6076
  429MOL0     H57854   9.233   5.605   5.865 -2.2545  1.4410  2.3694
  429MOL0     H57855   9.110   5.500   5.784 -2.5431 -0.9367  1.1945
  429MOL0     H57856   9.001   5.448   6.002 -0.5488  0.2888  0.2735
  429MOL0     H57857   9.095   5.572   6.070 -0.4759 -0.7825 -0.0175
  429MOL0     H57858   8.917   5.630   5.827 -2.2153 -0.6941  0.8910
  429MOL0     H57859   8.886   5.666   6.004 -2.4322  1.0888 -2.2200
  429MOL0     H57860   9.087   5.813   6.005 -0.6011 -2.1392  1.7047
  429MOL0     H57861   9.104   5.776   5.831  0.2873  2.2356  0.9829
  429MOL0     H57862   8.976   5.989   5.848 -1.8713  1.2545  3.9710
  429MOL0     H57863   8.864   5.863   5.791  2.2542  0.3453 -2.8642
  429MOL0     H57864   8.753   5.853   6.013  0.6096 -0.9962  1.4270
  429MOL0     H57865   8.771   6.024   5.964  0.8572  0.3689  1.0386
  429MOL0     H57866   8.858   5.774   6.246 -1.0052  0.3608 -0.4463
  429MOL0     H57867   9.039   5.786   6.454 -1.0766 -0.0463  0.3316
  429MOL0     H57868   9.053   5.945   6.533  1.6278 -0.3255 -2.2727
  429MOL0     H57869   8.776   5.817   6.495  0.1768 -2.6860 -0.0764
  429MOL0     H57870   8.836   5.952   6.598 -1.7262 -0.6554  2.2850
  429MOL0     H57871   8.917   5.814   6.758 -1.6572  1.2410  0.1490
  429MOL0     H57872   8.939   5.672   6.658  2.6317  0.3819  3.0252
  429MOL0     H57873   8.672   5.803   6.745  0.6215  0.6485 -1.1574
  429MOL0     H57874   8.753   5.668   6.836  0.1356  1.2392  0.8559
  429MOL0     H57875   8.486   5.735   6.807 -1.9797  1.2883 -1.0110
  429MOL0     H57876   8.151   5.667   6.874 -0.2918 -0.0282  0.5508
  429MOL0     H57877   8.235   5.600   7.004 -2.7620 -2.5081 -1.1742
  429MOL0     H57878   8.295   5.747   6.945 -2.6993  0.3672  0.4472
  429MOL0     H57879   8.112   4.964   6.829 -0.7115 -0.7525 -1.0426
  429MOL0     H57880   7.897   4.878   6.838  2.9363 -0.6215 -1.9979
  429MOL0     H57881   7.677   4.811   6.803 -1.4410 -0.2601  0.8277
  429MOL0     H57882   7.528   4.875   6.715 -0.3606  0.3479  3.3104
  429MOL0     H57883   7.652   4.875   6.500 -1.2485  1.4993 -0.0213
  429MOL0     H57884   7.805   4.875   6.570  0.5049 -1.0283 -0.5473
  429MOL0     H57885   7.802   4.656   6.658  1.1332  1.2030 -0.9085
  429MOL0     H57886   7.772   4.672   6.480 -1.7731  1.9021 -1.1173
  429MOL0     H57887   7.647   4.492   6.569  0.2572 -0.3455  0.7020
  429MOL0     H57888   7.576   4.589   6.696  0.7095  2.1533 -0.0408
  429MOL0     H57889   7.454   4.723   6.515  0.9477  0.4360 -0.7933
  429MOL0     H57890   7.425   4.547   6.487  1.4088 -1.0111 -0.3428
  429MOL0     H57891   7.578   4.737   6.325 -0.0728  0.7372  1.9716
  429MOL0     H57892   7.634   4.565   6.331  1.0677  1.4100  1.1039
  429MOL0     H57893   7.488   4.620   6.135  4.1737  0.0894  2.1290
  429MOL0     H57894   7.356   4.677   6.230 -0.2883 -0.3878 -1.3627
  429MOL0     H57895   7.340   4.441   6.334 -1.5820 -1.6940  0.1253
  429MOL0     H57896   7.481   4.403   6.232  0.8703  1.7872  0.9162
  429MOL0     H57897   7.731   5.243   6.700  0.5443 -0.4128 -1.1693
  429MOL0     H57898   7.945   5.340   6.678 -2.7170  0.1361  1.2017
  429MOL0     H57899   8.384   5.281   6.635 -0.1726  0.3115 -0.3123
  429MOL0     H57900   8.606   5.386   6.602 -0.5253 -4.0189  2.1582
  429MOL0     H57901   9.686   5.563   5.992  2.3291  0.9406 -0.2333
  429MOL0     H57902   9.888   5.621   5.876 -0.5184  0.3413  0.0840
  429MOL0     H57903  10.218   5.626   5.659 -1.0725  0.7692 -0.6283
  429MOL0     H57904  10.429   5.694   5.568  0.4111  0.6877 -0.8674
  429MOL0     H57905  10.599   5.767   5.431  1.3706  0.4634  0.5782
  429MOL0     H57906  10.657   5.614   5.491  4.3109  0.0718 -1.1797
  429MOL0     H57907  10.728   5.733   5.211 -0.8268  1.4618  1.7556
  429MOL0     H57908  10.789   5.591   5.277  1.5259  0.0004  1.5754
  429MOL0     H57909  10.872   5.713   5.461  1.4549 -1.6393 -0.2047
  429MOL0     H57910  10.830   5.872   5.386 -2.2277 -0.7929 -0.9960
  429MOL0     H57911  11.017   5.663   5.254  0.1137  1.1965 -2.1711
  429MOL0     H57912  11.075   5.814   5.334  0.2026 -0.3927  0.9420
  429MOL0     H57913  10.940   5.928   4.955  0.1174  0.9890  0.5954
  429MOL0     H57914  10.386   5.373   5.274 -0.6187 -1.1817 -2.1901
  429MOL0     H57915  10.178   5.298   5.396  1.6731 -0.7561  0.3090
  430MOL0     O57916   2.964   0.023   1.690 -0.9261  0.4818  0.5967
  430MOL0     C57917   2.919   0.036   1.807  0.3878 -0.4093 -0.3237
  430MOL0     O57918   2.988   0.046   1.918 -0.9162  0.1633  1.1137
  430MOL0     C57919   3.123   0.052   1.914  0.6388 -0.5447 -0.5971
  430MOL0     C57920   3.192   0.158   1.964 -0.4731 -0.9982  0.0470
  430MOL0     C57921   3.333   0.158   1.979 -0.5602 -0.3456  0.2902
  430MOL0     C57922   3.406   0.050   1.922 -0.6530 -0.3209  0.4780
  430MOL0     O57923   3.539   0.060   1.948  0.0774  0.1024 -0.6182
  430MOL0     C57924   3.634  -0.048   1.912  0.7233 -0.5445  0.4498
  430MOL0     C57925   3.763   0.024   1.912 -0.6242 -0.8864  0.4602
  430MOL0     C57926   3.785   0.135   1.804 -0.4550 -0.1057  0.2936
  430MOL0     C57927   3.933   0.149   1.762  0.0098 -0.0864 -0.6243
  430MOL0     C57928   3.975   0.277   1.685  0.0911 -0.1114 -0.1435
  430MOL0     C57929   3.871   0.322   1.584 -0.0768  0.2514 -1.5100
  430MOL0     C57930   3.890   0.228   1.469  0.1270 -1.1345 -0.1640
  430MOL0     C57931   3.786   0.253   1.355 -0.3844 -0.7905  1.0109
  430MOL0     N57932   3.645   0.252   1.395 -0.5204  0.5033 -0.5569
  430MOL0     C57933   3.584   0.155   1.467  0.3787  0.6267  1.4299
  430MOL0     C57934   3.447   0.183   1.444  0.1177 -0.5550 -0.3551
  430MOL0     C57935   3.321   0.112   1.486 -0.3283  0.4609  0.2681
  430MOL0     C57936   3.226   0.218   1.547  0.4934 -0.0885  0.4228
  430MOL0     C57937   3.087   0.213   1.478  0.2808  0.3617  0.6964
  430MOL0     C57938   3.074   0.286   1.347  0.5780 -0.2772 -0.1093
  430MOL0     O57939   2.947   0.265   1.274  0.1638  0.0389 -0.6870
  430MOL0     C57940   2.831   0.303   1.337 -0.1227 -0.8065 -0.8095
  430MOL0     C57941   2.718   0.226   1.311  0.6127  0.2210 -0.5328
  430MOL0     C57942   2.594   0.251   1.363  0.4555 -0.8817 -0.3906
  430MOL0     C57943   2.476   0.160   1.346  0.9893 -0.2185  0.2635
  430MOL0     C57944   2.577   0.373   1.442  1.0198  0.2678 -0.1107
  430MOL0     C57945   2.442   0.422   1.505 -0.2104  0.8693  0.9757
  430MOL0     O57946   2.434   0.546   1.543 -0.0399 -0.6687 -0.5921
  430MOL0     C57947   2.308   0.600   1.571 -0.4448  0.2126  0.4053
  430MOL0     C57948   2.247   0.589   1.697  0.6785  0.4788 -0.2179
  430MOL0     C57949   2.127   0.648   1.733 -0.3235  0.6058  0.0870
  430MOL0     C57950   2.048   0.711   1.630  0.3019 -0.5398 -0.6698
  430MOL0     O57951   1.925   0.783   1.659 -0.6792 -0.1149 -0.3682
  430MOL0     C57952   1.895   0.787   1.802 -0.5495 -0.5337  0.1210
  430MOL0     C57953   1.758   0.857   1.831 -0.5883 -0.0773 -0.3043
  430MOL0     C57954   1.739   0.998   1.769  0.7338  0.3503 -0.5271
  430MOL0     C57955   1.599   1.053   1.790  0.0940 -0.0046 -0.2649
  430MOL0     C57956   1.501   0.982   1.688 -0.4820 -0.6095  0.0335
  430MOL0     C57957   1.363   1.058   1.680 -0.1659 -0.2390 -1.0911
  430MOL0     C57958   1.309   1.109   1.812 -0.3692 -0.1016  0.4872
  430MOL0     C57959   1.152   1.126   1.798  0.3157  0.7023 -0.2726
  430MOL0    Cl57960   1.123   1.206   1.638  0.3707  0.0400  0.2172
  430MOL0     C57961   2.111   0.722   1.500  1.1346  0.4126 -0.4549
  430MOL0     C57962   2.242   0.674   1.476  0.1746 -0.0301 -0.1101
  430MOL0     O57963   2.356   0.340   1.521 -0.5452  0.0078  0.6127
  430MOL0     C57964   2.688   0.447   1.479  0.5078 -0.3084 -0.7278
  430MOL0     C57965   2.811   0.412   1.428 -0.4974 -0.7079 -0.1383
  430MOL0     N57966   3.438   0.293   1.359 -0.0883 -0.5887 -0.0464
  430MOL0     N57967   3.557   0.331   1.331 -0.0817  0.6850  0.2347
  430MOL0     C57968   3.342  -0.052   1.854 -0.3695 -0.1172 -0.7664
  430MOL0     C57969   3.202  -0.053   1.861 -0.2026  0.6694  0.0128
  430MOL0     C57970   2.779   0.051   1.819 -0.5351 -0.3768  0.0530
  430MOL0     C57971   2.699   0.104   1.712  0.2774  0.1875  0.2751
  430MOL0     C57972   2.555   0.117   1.729 -0.1257  0.1081 -0.4525
  430MOL0     C57973   2.493   0.069   1.844 -0.9534  0.1659  0.8204
  430MOL0     O57974   2.369   0.083   1.884 -0.2265 -0.4960 -0.2424
  430MOL0     C57975   2.278   0.157   1.794  0.1453 -0.7239 -0.8746
  430MOL0     C57976   2.133   0.145   1.843 -0.2306 -0.1552  0.1172
  430MOL0     C57977   2.036   0.239   1.761  0.7368  0.4091  0.0300
  430MOL0     C57978   1.896   0.211   1.809 -0.6306 -0.3517  0.1700
  430MOL0     C57979   1.899   0.233   1.955 -0.5458  0.8502 -0.1781
  430MOL0     C57980   1.898   0.242   2.077 -0.1700 -0.3659 -0.2659
  430MOL0     C57981   2.573   0.017   1.939  0.0678 -0.1294  0.2463
  430MOL0     C57982   2.714   0.006   1.932  0.0161  0.7966  0.0899
  430MOL0     H57983   3.126   0.234   2.005 -0.3560 -0.9947  0.2314
  430MOL0     H57984   3.380   0.233   2.042  0.7562 -1.5671  0.8266
  430MOL0     H57985   3.628  -0.117   1.997 -1.3797  0.7435  1.4258
  430MOL0     H57986   3.611  -0.096   1.817  0.3923  1.5896 -0.6097
  430MOL0     H57987   3.778   0.055   2.016 -1.7926 -0.3309  0.4830
  430MOL0     H57988   3.837  -0.053   1.890 -0.1748 -0.0436 -1.1837
  430MOL0     H57989   3.717   0.119   1.719 -1.2352  0.9737  0.6956
  430MOL0     H57990   3.760   0.229   1.853  0.6210  0.1750  0.3175
  430MOL0     H57991   3.992   0.142   1.854  1.1119 -0.8005 -1.3702
  430MOL0     H57992   3.957   0.056   1.710  2.2679  0.6966 -1.0733
  430MOL0     H57993   3.999   0.363   1.748 -0.7869 -0.7363  1.0754
  430MOL0     H57994   4.066   0.241   1.636  0.4849 -1.0246  1.2112
  430MOL0     H57995   3.770   0.322   1.627  1.0298 -0.6036  1.3341
  430MOL0     H57996   3.906   0.422   1.559  1.3410  0.0778 -0.3226
  430MOL0     H57997   3.990   0.239   1.427  1.5003 -0.8655  2.9458
  430MOL0     H57998   3.869   0.124   1.496 -1.4802 -1.2835 -1.7590
  430MOL0     H57999   3.804   0.184   1.272  1.4653  3.0533 -2.1206
  430MOL0     H58000   3.805   0.354   1.318 -0.1168 -0.7971  1.1288
  430MOL0     H58001   3.632   0.076   1.524  0.8743 -0.7039 -0.7228
  430MOL0     H58002   3.275   0.060   1.401  1.5632 -1.8361  0.5347
  430MOL0     H58003   3.338   0.022   1.546 -0.6505  1.2886  1.6405
  430MOL0     H58004   3.257   0.322   1.530  0.8024 -0.5474 -2.3582
  430MOL0     H58005   3.205   0.219   1.654 -0.5494  1.8964  0.2511
  430MOL0     H58006   3.008   0.241   1.549  1.5832  2.1338  1.5350
  430MOL0     H58007   3.059   0.110   1.452 -1.0887  1.0622 -0.7908
  430MOL0     H58008   3.148   0.253   1.274  1.4414 -0.2258  0.7194
  430MOL0     H58009   3.086   0.391   1.375 -3.0864 -0.2207  1.9792
  430MOL0     H58010   2.723   0.134   1.254  0.3565 -1.0180  1.3531
  430MOL0     H58011   2.429   0.141   1.442 -1.2032 -2.5160 -1.1344
  430MOL0     H58012   2.395   0.199   1.283 -0.7635 -2.6633  0.8756
  430MOL0     H58013   2.496   0.060   1.307 -0.3850 -0.7205  0.7996
  430MOL0     H58014   2.305   0.532   1.768  1.5531  0.4533 -0.9383
  430MOL0     H58015   2.091   0.638   1.835  0.8270 -0.7228  0.3999
  430MOL0     H58016   1.878   0.693   1.855 -1.0251 -0.2468  0.4785
  430MOL0     H58017   1.969   0.838   1.864 -0.9776  1.0326 -0.6013
  430MOL0     H58018   1.681   0.784   1.801  0.1537 -0.5730 -1.0643
  430MOL0     H58019   1.770   0.866   1.939  0.6609  1.7122 -0.5460
  430MOL0     H58020   1.753   0.991   1.660  3.4256 -5.0305 -0.1823
  430MOL0     H58021   1.808   1.070   1.813 -0.6616  2.0988 -1.1028
  430MOL0     H58022   1.569   1.030   1.893 -2.4163  0.2009 -0.8733
  430MOL0     H58023   1.610   1.161   1.778  1.9277 -0.2143 -0.7588
  430MOL0     H58024   1.487   0.879   1.720  1.7073  0.3109  4.7787
  430MOL0     H58025   1.544   0.970   1.588 -1.9876 -1.1249 -0.5952
  430MOL0     H58026   1.380   1.147   1.620 -1.2699  1.9870  1.6611
  430MOL0     H58027   1.289   0.991   1.636 -3.2181  0.6897  2.1787
  430MOL0     H58028   1.348   1.211   1.824 -0.1598  0.3735 -3.1535
  430MOL0     H58029   1.347   1.046   1.894  1.6588 -2.0488 -1.7951
  430MOL0     H58030   1.125   1.191   1.882  0.9478  0.6727 -0.0432
  430MOL0     H58031   1.103   1.029   1.811 -0.9331  1.3189 -0.2571
  430MOL0     H58032   2.059   0.770   1.417  1.5418  0.0399 -0.9289
  430MOL0     H58033   2.286   0.700   1.380  0.6614 -0.0945  0.0894
  430MOL0     H58034   2.678   0.533   1.544  0.4470 -1.2215  0.5029
  430MOL0     H58035   2.901   0.471   1.439 -1.6788  1.5267 -1.4808
  430MOL0     H58036   3.394  -0.129   1.798 -0.8841  2.0841 -4.6127
  430MOL0     H58037   3.146  -0.134   1.813  0.6429 -1.5392  2.5383
  430MOL0     H58038   2.753   0.141   1.626  1.0957 -1.8357 -0.1122
  430MOL0     H58039   2.493   0.150   1.646  2.4068 -3.0841 -4.0132
  430MOL0     H58040   2.320   0.258   1.795 -2.4981  0.5101  1.9447
  430MOL0     H58041   2.274   0.125   1.690 -0.0310 -2.0639 -0.4789
  430MOL0     H58042   2.133   0.181   1.946 -2.5879  0.5136 -0.0803
  430MOL0     H58043   2.101   0.041   1.836 -1.0992  0.1724 -1.1948
  430MOL0     H58044   2.039   0.223   1.653 -1.3786 -1.8863  0.2266
  430MOL0     H58045   2.058   0.346   1.769  1.8745  0.3953 -2.2225
  430MOL0     H58046   1.870   0.107   1.787  1.9602 -1.2859  1.0945
  430MOL0     H58047   1.828   0.275   1.753  1.1098  0.5754 -0.9824
  430MOL0     H58048   1.900   0.249   2.184 -1.4311 -0.8527 -0.1856
  430MOL0     H58049   2.528  -0.011   2.034  1.1258  0.0304  0.8044
  430MOL0     H58050   2.768  -0.056   2.003 -2.4151 -3.3378 -1.3293
  431MOL0     O58051   4.709   1.063  10.898  0.1087 -0.0494 -0.0114
  431MOL0     C58052   4.813   1.027  10.959  0.4430  0.0986  0.3224
  431MOL0     O58053   4.827   1.013  11.091  0.2446  0.0688  0.4411
  431MOL0     C58054   4.711   1.004  11.165  0.6398  0.2456  0.0005
  431MOL0     C58055   4.611   1.109  11.179  0.6887 -0.0927  0.2209
  431MOL0     C58056   4.507   1.103  11.277 -1.1397 -0.0734  0.2433
  431MOL0     C58057   4.475   0.979  11.341 -0.1382 -0.3712 -0.6544
  431MOL0     O58058   4.372   0.955  11.424  0.3416  0.4731  0.8295
  431MOL0     C58059   4.265   1.060  11.429 -0.6722 -0.4507  0.1420
  431MOL0     C58060   4.156   0.998  11.515 -0.9277  0.2493 -0.3484
  431MOL0     C58061   4.080   0.891  11.443  0.2392  0.2204  0.0691
  431MOL0     C58062   3.943   0.947  11.388  0.3577  0.3926  0.0625
  431MOL0     C58063   3.871   0.849  11.293  0.1206  0.2374 -0.5375
  431MOL0     C58064   3.760   0.924  11.224 -0.4447  0.6047  0.0003
  431MOL0     C58065   3.681   0.835  11.134  0.5627 -0.0692 -0.6949
  431MOL0     C58066   3.558   0.910  11.088  0.5905 -0.1640 -0.3071
  431MOL0     N58067   3.474   0.957  11.194 -0.0941 -0.2260 -0.1853
  431MOL0     C58068   3.433   0.886  11.305  0.2296  0.7057  1.3775
  431MOL0     C58069   3.348   0.964  11.371 -0.1253 -0.3079 -0.3689
  431MOL0     C58070   3.285   0.936  11.509 -0.8067 -0.1111 -0.2385
  431MOL0     C58071   3.136   0.902  11.474  0.5697 -0.3519  0.2156
  431MOL0     C58072   3.052   0.877  11.605 -0.1222  0.4197  0.3176
  431MOL0     C58073   2.902   0.845  11.581 -0.1195  0.3855  1.2805
  431MOL0     O58074   2.816   0.853  11.693 -0.9555 -0.2798  0.2252
  431MOL0     C58075   2.686   0.832  11.675  0.5588 -0.9351  0.7466
  431MOL0     C58076   2.597   0.898  11.756  0.9350 -0.1936 -0.6427
  431MOL0     C58077   2.460   0.888  11.735 -0.2284  0.4177  0.7956
  431MOL0     C58078   2.384   0.993  11.818 -0.4810 -0.3824 -0.7733
  431MOL0     C58079   2.400   0.806  11.631 -0.4876  0.3475 -0.3546
  431MOL0     C58080   2.260   0.798  11.609  0.8177 -0.6907 -0.3603
  431MOL0     O58081   2.176   0.793  11.720 -0.0123  0.6398 -0.0172
  431MOL0     C58082   2.041   0.802  11.685 -0.3636 -0.6260 -0.4080
  431MOL0     C58083   1.961   0.911  11.723 -0.1360  0.3429 -0.1145
  431MOL0     C58084   1.813   0.907  11.722  0.1013  0.3024  0.9843
  431MOL0     C58085   1.756   0.799  11.654  0.4078  0.4599 -0.7029
  431MOL0     O58086   1.614   0.793  11.648 -0.2240 -0.5399 -0.3882
  431MOL0     C58087   1.556   0.666  11.632  0.0778  0.0106 -0.0531
  431MOL0     C58088   1.414   0.672  11.686 -0.0767  0.3091 -1.1251
  431MOL0     C58089   1.319   0.769  11.606 -0.6336 -0.1849  0.4847
  431MOL0     C58090   1.213   0.828  11.695  1.0544  0.1300  0.5135
  431MOL0     C58091   1.096   0.738  11.715  0.2710  0.5231  0.1510
  431MOL0     C58092   0.992   0.812  11.796 -0.0976  0.4952  0.4718
  431MOL0     C58093   0.867   0.723  11.811 -1.4624  0.4806 -0.3250
  431MOL0     C58094   0.755   0.802  11.881 -1.1551 -0.1913  0.2027
  431MOL0    Cl58095   0.595   0.724  11.873 -0.1619 -0.1950  0.5916
  431MOL0     C58096   1.839   0.687  11.618  0.1016  0.9661 -0.4375
  431MOL0     C58097   1.974   0.690  11.635 -0.2862 -0.4803  0.2009
  431MOL0     O58098   2.223   0.798  11.492  1.1922 -0.2356 -0.1707
  431MOL0     C58099   2.495   0.745  11.551 -0.5809 -0.4354 -0.0171
  431MOL0     C58100   2.633   0.746  11.573 -1.1971 -1.0345  0.3650
  431MOL0     N58101   3.333   1.079  11.303 -0.3291 -0.2743 -0.4200
  431MOL0     N58102   3.415   1.076  11.202  0.1272 -0.8318  0.3623
  431MOL0     C58103   4.557   0.867  11.307 -0.5160  0.0356  0.2163
  431MOL0     C58104   4.671   0.881  11.223  0.4535 -0.8391  0.5252
  431MOL0     C58105   4.936   0.973  10.892  0.2163 -0.0329 -0.0724
  431MOL0     C58106   4.950   0.992  10.748 -0.1102  0.2673 -0.0703
  431MOL0     C58107   5.069   0.969  10.685 -0.4571 -0.1059 -0.4171
  431MOL0     C58108   5.169   0.899  10.748 -0.7776  1.1235  0.0015
  431MOL0     O58109   5.270   0.854  10.671 -0.2926  0.0339  0.9326
  431MOL0     C58110   5.365   0.756  10.721  0.6497  0.2587  0.6672
  431MOL0     C58111   5.493   0.801  10.654  0.0438 -0.1720  0.3900
  431MOL0     C58112   5.606   0.699  10.683  0.2763 -0.3703 -0.0851
  431MOL0     C58113   5.719   0.725  10.573  0.3951  0.2853 -0.3277
  431MOL0     C58114   5.845   0.667  10.621  0.2895  0.4814 -0.4302
  431MOL0     C58115   5.963   0.642  10.645  0.1011 -0.2064 -0.2866
  431MOL0     C58116   5.152   0.866  10.885  0.1416  0.6662 -0.1623
  431MOL0     C58117   5.037   0.897  10.954 -0.8268  0.1966 -0.2976
  431MOL0     H58118   4.622   1.196  11.115 -3.2195 -1.1381 -2.2319
  431MOL0     H58119   4.453   1.196  11.293  0.9454  1.3523 -0.4796
  431MOL0     H58120   4.301   1.149  11.482  0.1259 -1.5469  1.5057
  431MOL0     H58121   4.227   1.075  11.328 -0.5513 -2.6253 -0.2722
  431MOL0     H58122   4.199   0.962  11.609  0.8391  1.7380 -0.5183
  431MOL0     H58123   4.084   1.076  11.542  1.1318  2.9020 -1.9756
  431MOL0     H58124   4.140   0.846  11.363 -0.1439  0.6177 -0.4475
  431MOL0     H58125   4.055   0.808  11.509  1.6418  2.7978  4.2125
  431MOL0     H58126   3.879   0.976  11.471  1.2107 -1.0481  1.2610
  431MOL0     H58127   3.958   1.045  11.340  0.1373 -0.4916 -1.8874
  431MOL0     H58128   3.944   0.817  11.219  0.2295 -0.3388 -0.1899
  431MOL0     H58129   3.825   0.765  11.345  1.4166  1.3892  2.7705
  431MOL0     H58130   3.694   0.957  11.305  2.4399  4.3710  1.1036
  431MOL0     H58131   3.797   1.008  11.164  0.1663  0.3041 -0.0428
  431MOL0     H58132   3.732   0.805  11.042 -1.4210 -0.3129 -1.7878
  431MOL0     H58133   3.653   0.749  11.195 -2.3688  1.4464  0.2633
  431MOL0     H58134   3.496   0.848  11.023  0.8308  0.1229 -0.8178
  431MOL0     H58135   3.592   0.992  11.024  0.4498  0.8619  0.8883
  431MOL0     H58136   3.444   0.783  11.337 -1.2156 -0.7184 -2.1673
  431MOL0     H58137   3.329   0.857  11.571 -0.2019 -1.1145 -1.8914
  431MOL0     H58138   3.294   1.030  11.564 -4.6872 -0.6058  1.5866
  431MOL0     H58139   3.112   0.819  11.406 -2.1990  0.7803 -0.2977
  431MOL0     H58140   3.107   0.993  11.421  3.2025  0.6358  0.3214
  431MOL0     H58141   3.052   0.975  11.655  0.7087  0.4954  0.1738
  431MOL0     H58142   3.100   0.805  11.672 -1.4668 -1.9859 -1.1683
  431MOL0     H58143   2.891   0.744  11.541 -3.2516  1.1955 -0.2114
  431MOL0     H58144   2.870   0.915  11.504  0.6709 -0.2772  0.3254
  431MOL0     H58145   2.639   0.968  11.828  0.5634  1.2148 -1.7563
  431MOL0     H58146   2.445   1.082  11.839 -3.7073  1.4159  2.0137
  431MOL0     H58147   2.295   1.037  11.772 -0.1155  0.5240 -0.6480
  431MOL0     H58148   2.360   0.958  11.918 -1.9640  1.9615 -0.2302
  431MOL0     H58149   2.003   1.002  11.765 -0.5215  0.2292  0.5242
  431MOL0     H58150   1.757   0.992  11.761  1.4547  1.6511  0.1024
  431MOL0     H58151   1.553   0.643  11.525  2.4831 -2.5944  0.3381
  431MOL0     H58152   1.614   0.588  11.682  2.1839 -0.5944 -3.1371
  431MOL0     H58153   1.365   0.575  11.681 -0.3392  0.2762  0.9353
  431MOL0     H58154   1.416   0.701  11.792 -2.2093  1.2802 -1.2793
  431MOL0     H58155   1.277   0.710  11.524 -1.2598  1.7191 -0.6330
  431MOL0     H58156   1.369   0.855  11.560  3.2512 -1.2046  2.3684
  431MOL0     H58157   1.262   0.863  11.786 -1.7931  4.1562  0.7620
  431MOL0     H58158   1.177   0.917  11.643  0.1661  0.2417  1.3005
  431MOL0     H58159   1.129   0.647  11.767 -0.0080 -0.0545 -0.6652
  431MOL0     H58160   1.056   0.708  11.618  1.0829  2.0032 -0.6726
  431MOL0     H58161   1.035   0.827  11.895 -0.5102  0.6722  0.6289
  431MOL0     H58162   0.949   0.905  11.759 -3.6183 -1.2313 -0.2097
  431MOL0     H58163   0.888   0.635  11.872 -1.6807  1.3051  0.9727
  431MOL0     H58164   0.829   0.701  11.710 -0.8220 -0.1251 -0.4379
  431MOL0     H58165   0.742   0.902  11.838 -2.0520 -0.4895 -0.2483
  431MOL0     H58166   0.784   0.820  11.985  1.8539 -0.6570 -0.4651
  431MOL0     H58167   1.798   0.598  11.572  0.9172  0.6709 -0.6040
  431MOL0     H58168   2.032   0.599  11.625  0.4521  0.0962 -0.8441
  431MOL0     H58169   2.471   0.683  11.465  3.7532  0.4956 -2.1560
  431MOL0     H58170   2.699   0.689  11.509  1.2160 -0.3574  2.1047
  431MOL0     H58171   4.541   0.772  11.359 -0.0937 -0.6112 -0.8101
  431MOL0     H58172   4.738   0.799  11.199  1.2141  0.6054 -2.9339
  431MOL0     H58173   4.858   1.032  10.705 -0.8979 -1.8962 -0.5541
  431MOL0     H58174   5.089   1.009  10.586 -0.2106 -0.1261 -0.3750
  431MOL0     H58175   5.388   0.755  10.828 -2.7384 -0.4820  1.5085
  431MOL0     H58176   5.326   0.657  10.697  0.8084  0.7665 -2.0660
  431MOL0     H58177   5.525   0.898  10.694 -0.8298  0.8902 -1.3789
  431MOL0     H58178   5.479   0.806  10.546 -0.4712 -2.4446  0.3003
  431MOL0     H58179   5.566   0.597  10.678  0.9167 -0.6105 -0.3938
  431MOL0     H58180   5.632   0.707  10.789  0.9109 -1.4040 -0.1522
  431MOL0     H58181   5.731   0.832  10.554  2.3985 -0.0826 -1.4699
  431MOL0     H58182   5.681   0.685  10.478  0.6313 -3.1055  0.8835
  431MOL0     H58183   6.067   0.616  10.636 -0.2069 -1.2672 -1.0156
  431MOL0     H58184   5.223   0.811  10.945 -0.9090 -0.6244 -0.0480
  431MOL0     H58185   5.030   0.876  11.060  0.8954  0.7047 -0.0553
  432MOL0     O58186   3.657   7.643   1.714 -0.4585 -0.2014 -0.3605
  432MOL0     C58187   3.698   7.734   1.782 -0.5531  0.3514  0.4600
  432MOL0     O58188   3.619   7.827   1.843  0.2786  0.0823  0.0483
  432MOL0     C58189   3.481   7.835   1.824 -0.2001 -0.7282 -0.7444
  432MOL0     C58190   3.390   7.724   1.818  0.3237  0.5982  0.1863
  432MOL0     C58191   3.253   7.739   1.840  1.2560 -0.0817  0.1413
  432MOL0     C58192   3.198   7.868   1.854 -0.1811 -0.9178 -0.2996
  432MOL0     O58193   3.057   7.882   1.870 -0.2240 -0.4418  0.0558
  432MOL0     C58194   2.975   7.773   1.842 -0.5919  0.0877 -0.7336
  432MOL0     C58195   2.831   7.795   1.880 -0.5391 -0.0269 -0.3929
  432MOL0     C58196   2.745   7.895   1.802 -0.3220 -1.2438  1.2945
  432MOL0     C58197   2.601   7.864   1.822  0.4602 -0.0374 -0.1123
  432MOL0     C58198   2.524   7.982   1.766  0.9958 -0.5159  0.3114
  432MOL0     C58199   2.378   7.962   1.793  0.0281  0.5865  0.3601
  432MOL0     C58200   2.301   8.070   1.717  0.4373  0.5961 -0.3122
  432MOL0     C58201   2.144   8.039   1.721  0.0981  0.1320 -0.0053
  432MOL0     N58202   2.072   8.148   1.648 -0.0275  0.0966 -0.2668
  432MOL0     C58203   2.033   8.271   1.690 -0.5211 -0.0033  0.6655
  432MOL0     C58204   1.960   8.321   1.588  0.0098  0.3809  0.4926
  432MOL0     C58205   1.880   8.451   1.578 -0.3238 -0.1961  0.1934
  432MOL0     C58206   1.946   8.552   1.485 -0.8253  0.3111 -1.2327
  432MOL0     C58207   1.954   8.523   1.336 -0.9009 -0.1302  0.8367
  432MOL0     C58208   1.825   8.481   1.276 -0.0645 -0.3499  0.7099
  432MOL0     O58209   1.723   8.581   1.306  0.2960 -0.2771  0.1552
  432MOL0     C58210   1.603   8.580   1.239 -0.0580  0.0835  0.5615
  432MOL0     C58211   1.579   8.507   1.118  0.0135  0.3295 -0.7046
  432MOL0     C58212   1.462   8.527   1.043 -0.4850 -0.5839 -0.8230
  432MOL0     C58213   1.451   8.451   0.910  0.4931 -0.1703 -0.6597
  432MOL0     C58214   1.366   8.618   1.088 -0.6404  0.0148 -0.9716
  432MOL0     C58215   1.243   8.634   1.023 -0.0135  0.5130  1.0515
  432MOL0     O58216   1.181   8.760   1.044 -0.2333 -0.4568  0.5073
  432MOL0     C58217   1.052   8.764   0.983 -0.5051 -0.0726  0.0227
  432MOL0     C58218   1.035   8.777   0.846 -0.8944  0.6793  0.3076
  432MOL0     C58219   0.916   8.800   0.791  0.4345  0.0130 -0.7124
  432MOL0     C58220   0.802   8.776   0.879  0.6101  0.4720 -0.5399
  432MOL0     O58221   0.676   8.779   0.813 -0.5026 -0.0022 -0.3659
  432MOL0     C58222   0.570   8.698   0.870 -0.2466  0.4099 -0.0506
  432MOL0     C58223   0.498   8.645   0.750  0.5389  0.8209  0.3120
  432MOL0     C58224   0.404   8.524   0.779 -0.2480 -0.0324  0.2007
  432MOL0     C58225   0.290   8.561   0.883  0.1893 -0.2513  0.2432
  432MOL0     C58226   0.201   8.443   0.926  0.2590 -0.1325 -0.0375
  432MOL0     C58227   0.087   8.489   1.010 -0.0754 -0.6299 -0.5655
  432MOL0     C58228  -0.010   8.383   1.048  0.5415 -0.3091  0.2584
  432MOL0     C58229  -0.101   8.448   1.160  1.1919 -0.2659  0.5101
  432MOL0    Cl58230  -0.014   8.475   1.315 -0.1747  0.3166  0.1016
  432MOL0     C58231   0.814   8.764   1.019  0.0585  0.4000 -0.7966
  432MOL0     C58232   0.944   8.746   1.066  0.2925 -0.1260 -0.2996
  432MOL0     O58233   1.185   8.533   0.971 -0.1998  0.7239  0.2836
  432MOL0     C58234   1.391   8.696   1.205  0.8184 -0.0935  0.2657
  432MOL0     C58235   1.509   8.679   1.276  0.5115 -0.0060 -0.0840
  432MOL0     N58236   1.961   8.231   1.485 -0.2096  0.5187 -0.2611
  432MOL0     N58237   2.034   8.127   1.518  0.5757  0.6906  0.7592
  432MOL0     C58238   3.282   7.976   1.859  0.2203  0.0645 -0.3207
  432MOL0     C58239   3.419   7.960   1.843 -0.7512 -0.4965 -0.4805
  432MOL0     C58240   3.841   7.758   1.818  0.1685  0.1475 -0.3592
  432MOL0     C58241   3.883   7.885   1.863  0.4201  0.2818 -0.4765
  432MOL0     C58242   4.022   7.903   1.868  0.9358 -0.2728  0.5492
  432MOL0     C58243   4.117   7.809   1.832 -0.3133 -0.5194 -1.4663
  432MOL0     O58244   4.251   7.833   1.828  0.1068 -0.4091  0.0774
  432MOL0     C58245   4.303   7.963   1.791 -0.0820  0.6908  0.5051
  432MOL0     C58246   4.259   8.008   1.649  0.4241  0.0627  0.3792
  432MOL0     C58247   4.357   8.115   1.599  0.5612  0.0637  0.5108
  432MOL0     C58248   4.311   8.163   1.463  0.4667  0.1113  1.4570
  432MOL0     C58249   4.176   8.219   1.440  0.1740  0.0389 -1.3179
  432MOL0     C58250   4.071   8.271   1.408  0.5310 -0.1270  0.0755
  432MOL0     C58251   4.076   7.679   1.801  0.4230  0.2099  0.1257
  432MOL0     C58252   3.937   7.659   1.794 -0.5927  0.4331  0.3356
  432MOL0     H58253   3.424   7.622   1.799 -0.1849  0.5654 -0.5442
  432MOL0     H58254   3.191   7.650   1.834  0.3699  0.6037 -2.6632
  432MOL0     H58255   2.982   7.740   1.738  3.3745  1.1106 -0.9521
  432MOL0     H58256   3.003   7.686   1.902 -1.0414  0.5696  0.1980
  432MOL0     H58257   2.781   7.698   1.883 -1.0694  0.1894 -1.6584
  432MOL0     H58258   2.832   7.820   1.987  2.0381  0.1682 -0.3881
  432MOL0     H58259   2.767   7.998   1.834  1.4458 -1.3789  0.6268
  432MOL0     H58260   2.770   7.892   1.696 -1.7070 -0.3249  0.9139
  432MOL0     H58261   2.583   7.768   1.773 -1.4979  0.4702 -0.4711
  432MOL0     H58262   2.573   7.846   1.926  1.3271  1.7035  0.4579
  432MOL0     H58263   2.546   8.078   1.815  0.4181 -0.5368  0.6232
  432MOL0     H58264   2.538   8.007   1.661 -2.6150  2.3296  0.3163
  432MOL0     H58265   2.348   7.863   1.757 -1.0327  0.9997  0.0542
  432MOL0     H58266   2.354   7.961   1.900 -2.6624 -2.8045 -0.1058
  432MOL0     H58267   2.332   8.163   1.765  4.3741 -0.8334  0.2566
  432MOL0     H58268   2.321   8.061   1.610  0.9137  0.4238 -0.2081
  432MOL0     H58269   2.107   8.029   1.824  1.0848  0.9845  0.4512
  432MOL0     H58270   2.117   7.946   1.670 -1.7789  1.0403 -0.7734
  432MOL0     H58271   2.058   8.320   1.783  2.4004  0.5739 -0.3360
  432MOL0     H58272   1.780   8.432   1.538 -0.4621  2.6865 -1.0916
  432MOL0     H58273   1.872   8.504   1.673  0.7956  0.3300  0.0133
  432MOL0     H58274   2.052   8.571   1.509 -1.5097 -0.1257  2.9092
  432MOL0     H58275   1.891   8.645   1.503  0.2885  0.7871 -0.1133
  432MOL0     H58276   2.019   8.437   1.318  0.9988  1.3449  0.2697
  432MOL0     H58277   1.996   8.607   1.279 -2.0564 -0.2159 -0.1737
  432MOL0     H58278   1.794   8.380   1.306 -2.8831 -1.3454 -4.3061
  432MOL0     H58279   1.844   8.462   1.170  1.6395 -1.8302  1.2307
  432MOL0     H58280   1.657   8.445   1.074  0.4615 -0.8866  1.6228
  432MOL0     H58281   1.403   8.514   0.835 -0.8251  0.1198  0.3966
  432MOL0     H58282   1.550   8.420   0.876  0.8878  0.1844  0.1363
  432MOL0     H58283   1.391   8.363   0.934  0.4368  0.5313  2.1444
  432MOL0     H58284   1.119   8.791   0.779 -0.0238 -1.5181  0.8444
  432MOL0     H58285   0.891   8.824   0.688  2.6250  2.0168 -0.8748
  432MOL0     H58286   0.606   8.618   0.937 -1.8378 -1.6280 -1.4942
  432MOL0     H58287   0.512   8.762   0.936  1.1532 -0.9634  2.7052
  432MOL0     H58288   0.445   8.732   0.711 -1.0043 -0.4182 -0.4629
  432MOL0     H58289   0.575   8.613   0.679  1.0765 -1.2252  1.7243
  432MOL0     H58290   0.462   8.439   0.816 -0.5047 -1.6108 -2.7063
  432MOL0     H58291   0.357   8.488   0.687 -0.5725  2.8463 -0.8829
  432MOL0     H58292   0.328   8.592   0.981  1.3022  0.8620 -0.5005
  432MOL0     H58293   0.227   8.638   0.839  0.9869  1.4660  1.9580
  432MOL0     H58294   0.266   8.374   0.980 -0.8785 -0.3420  1.1159
  432MOL0     H58295   0.167   8.397   0.833  4.3191 -2.6403 -0.5005
  432MOL0     H58296   0.132   8.535   1.099  1.0789 -4.1374  0.8080
  432MOL0     H58297   0.032   8.571   0.962 -2.4409 -0.3623  2.3417
  432MOL0     H58298   0.037   8.293   1.087 -0.2338 -0.3851  1.0672
  432MOL0     H58299  -0.071   8.351   0.963 -1.6680 -1.3636  2.1181
  432MOL0     H58300  -0.180   8.373   1.177  1.8655 -1.6016 -1.8161
  432MOL0     H58301  -0.157   8.529   1.113 -0.6397 -1.2144  0.9485
  432MOL0     H58302   0.737   8.753   1.094  0.8419 -3.0098 -0.3441
  432MOL0     H58303   0.957   8.743   1.173  0.3196 -0.8738 -0.3219
  432MOL0     H58304   1.324   8.777   1.233 -1.4552 -1.1064 -1.8086
  432MOL0     H58305   1.541   8.738   1.362 -1.8521 -1.7759  2.1382
  432MOL0     H58306   3.240   8.074   1.881  2.5220  0.9886  0.3336
  432MOL0     H58307   3.468   8.055   1.863  0.3099 -1.5886  2.8581
  432MOL0     H58308   3.826   7.971   1.896  4.0525  2.6023  0.3154
  432MOL0     H58309   4.053   7.999   1.908 -1.4772  0.0350  1.8369
  432MOL0     H58310   4.273   8.038   1.864  0.8952  2.1591 -0.5534
  432MOL0     H58311   4.412   7.959   1.783 -0.1375 -0.6985  0.2454
  432MOL0     H58312   4.157   8.044   1.663  0.1569  0.6761 -2.5487
  432MOL0     H58313   4.256   7.924   1.579 -2.3038  0.5734 -0.2092
  432MOL0     H58314   4.463   8.085   1.601  0.1246 -1.9568 -1.9171
  432MOL0     H58315   4.343   8.201   1.665  3.1145  0.6173  0.4504
  432MOL0     H58316   4.320   8.086   1.385 -1.6232  1.9316 -0.6965
  432MOL0     H58317   4.384   8.240   1.437  1.4800 -0.9266  1.1299
  432MOL0     H58318   3.981   8.313   1.369  2.9692  2.9463 -2.8464
  432MOL0     H58319   4.141   7.601   1.763  2.2852  0.6578  2.1773
  432MOL0     H58320   3.910   7.557   1.769 -0.0839  0.3805 -0.0275
  433MOL0     O58321   8.558   9.676   0.446  0.1153  0.2430 -0.0646
  433MOL0     C58322   8.639   9.727   0.531  0.7344  0.3610  0.2047
  433MOL0     O58323   8.609   9.752   0.666  0.2879 -0.1738  0.0171
  433MOL0     C58324   8.486   9.736   0.711  0.0172 -0.2558 -0.1806
  433MOL0     C58325   8.418   9.845   0.771 -0.7631 -0.5577 -0.0416
  433MOL0     C58326   8.286   9.830   0.822 -0.0369  0.3651  0.6404
  433MOL0     C58327   8.214   9.713   0.802 -0.2073  0.0835 -0.2548
  433MOL0     O58328   8.083   9.725   0.844  0.0331  0.3518 -0.1383
  433MOL0     C58329   8.009   9.604   0.850 -0.2099 -0.2121 -0.5153
  433MOL0     C58330   7.888   9.639   0.942  0.9923 -0.3016  0.0621
  433MOL0     C58331   7.783   9.520   0.963  0.4508  0.0212 -0.6170
  433MOL0     C58332   7.671   9.573   1.061  0.6482  0.8492  0.0192
  433MOL0     C58333   7.576   9.458   1.093  0.5170 -0.1365  0.3351
  433MOL0     C58334   7.460   9.478   1.191  0.3344 -0.1172  0.0083
  433MOL0     C58335   7.370   9.349   1.228 -0.6049 -0.2763  0.0072
  433MOL0     C58336   7.272   9.375   1.343 -0.1132  0.3203  0.2205
  433MOL0     N58337   7.147   9.302   1.314  0.0246  1.0381  0.3161
  433MOL0     C58338   7.036   9.356   1.246 -0.4704  0.4232 -0.0184
  433MOL0     C58339   6.961   9.244   1.221  0.1226 -0.0531  0.2021
  433MOL0     C58340   6.832   9.227   1.151  0.5164  0.3202 -0.3305
  433MOL0     C58341   6.713   9.282   1.237  0.2836 -0.0946  0.4437
  433MOL0     C58342   6.731   9.251   1.386  0.2522 -0.1608 -0.8212
  433MOL0     C58343   6.608   9.302   1.467 -0.3248 -0.2116  0.1800
  433MOL0     O58344   6.480   9.249   1.422  0.1378  0.1453  0.2999
  433MOL0     C58345   6.430   9.130   1.470  0.3075  0.5462 -0.4561
  433MOL0     C58346   6.323   9.088   1.395 -0.3433  0.9677 -0.2985
  433MOL0     C58347   6.249   8.975   1.435  0.0907  0.0531 -0.1045
  433MOL0     C58348   6.131   8.939   1.345 -0.3811  0.0593  0.2487
  433MOL0     C58349   6.281   8.907   1.559 -0.2625 -0.6898 -0.1568
  433MOL0     C58350   6.204   8.799   1.613 -1.3678 -0.3738 -0.2098
  433MOL0     O58351   6.069   8.810   1.598  0.6872 -0.7412 -0.1700
  433MOL0     C58352   5.989   8.704   1.609  0.3841  0.3214 -0.1612
  433MOL0     C58353   5.846   8.715   1.603 -1.6430 -0.2327 -0.3476
  433MOL0     C58354   5.755   8.609   1.598 -0.0501  0.4768  0.3704
  433MOL0     C58355   5.800   8.473   1.617  0.1643  0.3677  0.5018
  433MOL0     O58356   5.715   8.357   1.610  0.1317 -0.5282 -0.2345
  433MOL0     C58357   5.576   8.382   1.649 -0.2384  0.1166 -0.1717
  433MOL0     C58358   5.498   8.255   1.675  0.3746 -0.3871  0.3875
  433MOL0     C58359   5.349   8.283   1.712 -0.2512 -0.8568  0.6864
  433MOL0     C58360   5.275   8.160   1.777 -0.3277  0.4654  0.0998
  433MOL0     C58361   5.132   8.169   1.770  0.6203 -0.1102  0.4263
  433MOL0     C58362   5.055   8.060   1.846  0.5281 -0.5517 -0.2371
  433MOL0     C58363   4.907   8.095   1.876  0.3690 -0.1815 -0.4371
  433MOL0     C58364   4.810   8.149   1.765 -0.0428 -0.2693  0.4683
  433MOL0    Cl58365   4.642   8.127   1.826  0.5356  0.4103  0.0379
  433MOL0     C58366   5.936   8.458   1.614 -0.6113  0.2547 -0.2481
  433MOL0     C58367   6.030   8.566   1.612  0.3733 -0.5511  0.2687
  433MOL0     O58368   6.254   8.732   1.700 -0.3452  0.1458  0.3623
  433MOL0     C58369   6.398   8.951   1.629  0.0293  0.1265 -0.5940
  433MOL0     C58370   6.475   9.065   1.591  0.5093 -0.0762  0.9883
  433MOL0     N58371   7.031   9.139   1.270  0.6649  0.1640  0.1154
  433MOL0     N58372   7.134   9.169   1.340 -0.2518 -1.0023 -0.0439
  433MOL0     C58373   8.275   9.606   0.741  1.2901 -0.1310  0.1182
  433MOL0     C58374   8.411   9.616   0.705  0.8386 -0.1807  0.1196
  433MOL0     C58375   8.759   9.772   0.479 -0.5965 -0.4375 -0.0473
  433MOL0     C58376   8.870   9.782   0.558  0.3696  0.2308 -0.3340
  433MOL0     C58377   8.992   9.801   0.510 -0.0928 -0.1940  0.2109
  433MOL0     C58378   9.019   9.827   0.371  0.8126 -0.9690  0.2879
  433MOL0     O58379   9.150   9.846   0.328  0.0508 -0.5766  0.0849
  433MOL0     C58380   9.175   9.899   0.195  0.8934 -0.9849 -0.5387
  433MOL0     C58381   9.317   9.902   0.149 -0.2187  0.6561  0.1940
  433MOL0     C58382   9.386  10.015   0.215 -0.3810  0.6757 -0.9234
  433MOL0     C58383   9.532  10.034   0.166  0.2811  0.4852 -0.0870
  433MOL0     C58384   9.615   9.916   0.183 -0.1147 -0.4045 -0.5900
  433MOL0     C58385   9.682   9.822   0.212  0.7587 -0.5131  0.3755
  433MOL0     C58386   8.904   9.829   0.293 -0.4479  0.4105  1.0617
  433MOL0     C58387   8.772   9.803   0.338 -0.1358  0.0302  0.1394
  433MOL0     H58388   8.465   9.941   0.788 -1.9506  0.5995 -2.7000
  433MOL0     H58389   8.237   9.908   0.878  0.4784 -0.7614  2.7666
  433MOL0     H58390   7.978   9.578   0.748 -0.4334 -1.1201 -0.2237
  433MOL0     H58391   8.071   9.521   0.886  0.8447  0.2894 -1.1357
  433MOL0     H58392   7.922   9.683   1.036 -2.0465  1.9551  0.2521
  433MOL0     H58393   7.833   9.726   0.904 -0.8588 -1.4861 -0.1170
  433MOL0     H58394   7.748   9.488   0.865  0.7751 -0.1122 -0.6921
  433MOL0     H58395   7.838   9.440   1.014  0.1122 -0.4184 -0.9424
  433MOL0     H58396   7.717   9.607   1.154 -0.9883 -0.1612  1.2602
  433MOL0     H58397   7.616   9.654   1.011 -0.0007 -0.5828 -1.6914
  433MOL0     H58398   7.531   9.424   0.999  2.7761 -4.5063  0.5614
  433MOL0     H58399   7.648   9.383   1.128 -0.8364 -1.9363 -0.5933
  433MOL0     H58400   7.495   9.525   1.283  0.1466 -0.4891  0.2735
  433MOL0     H58401   7.388   9.540   1.137  1.4341 -0.5351 -2.0383
  433MOL0     H58402   7.312   9.321   1.139  1.6882 -1.4778 -1.2221
  433MOL0     H58403   7.428   9.259   1.249  0.8193  0.4225 -0.7886
  433MOL0     H58404   7.251   9.482   1.333  2.6958  0.9778  0.5473
  433MOL0     H58405   7.312   9.349   1.441 -0.3742 -0.2370  0.1808
  433MOL0     H58406   7.017   9.460   1.224 -0.4748  1.1644  3.0458
  433MOL0     H58407   6.833   9.281   1.057  1.7247 -1.7910 -1.6124
  433MOL0     H58408   6.820   9.120   1.129 -2.7680  0.3823  0.6301
  433MOL0     H58409   6.617   9.254   1.193  0.4427  1.0180 -0.6973
  433MOL0     H58410   6.709   9.391   1.236  1.9961  0.0313 -1.6438
  433MOL0     H58411   6.821   9.298   1.426 -0.4899  0.6458 -0.0574
  433MOL0     H58412   6.752   9.145   1.400  0.3302 -0.0877 -0.3469
  433MOL0     H58413   6.602   9.411   1.458 -0.3524  0.0900  3.0376
  433MOL0     H58414   6.624   9.276   1.572  0.9605 -5.0433 -0.9774
  433MOL0     H58415   6.292   9.142   1.307 -1.7180 -1.8733 -1.7156
  433MOL0     H58416   6.110   8.831   1.343  2.6299 -0.6053 -1.9572
  433MOL0     H58417   6.057   9.002   1.395 -2.6928 -0.4918 -2.2177
  433MOL0     H58418   6.137   8.983   1.245  0.4231  1.2786  0.8183
  433MOL0     H58419   5.801   8.814   1.601 -1.7743 -0.2141  1.5705
  433MOL0     H58420   5.650   8.634   1.586 -0.2612 -0.8546 -0.8661
  433MOL0     H58421   5.567   8.444   1.739  2.1993 -1.3368  1.1747
  433MOL0     H58422   5.533   8.424   1.557 -2.0246 -2.3350 -0.5641
  433MOL0     H58423   5.513   8.195   1.585  2.7246  0.4932  0.1355
  433MOL0     H58424   5.536   8.202   1.763  0.0292  0.1985  0.9009
  433MOL0     H58425   5.290   8.305   1.623  1.3239 -1.3724 -0.5234
  433MOL0     H58426   5.368   8.368   1.779  1.7745 -1.2100  0.6428
  433MOL0     H58427   5.308   8.068   1.728 -2.6360 -0.2217 -0.2974
  433MOL0     H58428   5.306   8.151   1.881  0.5069 -1.4333 -0.2675
  433MOL0     H58429   5.101   8.174   1.665  0.8783 -0.7230  0.3211
  433MOL0     H58430   5.105   8.266   1.813 -0.2242  0.3619 -1.1050
  433MOL0     H58431   5.066   7.970   1.785 -1.6915 -0.6675 -0.5131
  433MOL0     H58432   5.110   8.043   1.939 -1.0238  0.4847  0.9166
  433MOL0     H58433   4.886   8.150   1.968  1.0856 -2.8062  1.3938
  433MOL0     H58434   4.878   7.995   1.909 -0.6083  0.2366  0.0037
  433MOL0     H58435   4.818   8.074   1.686  0.3715 -2.3212  2.3586
  433MOL0     H58436   4.826   8.252   1.734 -1.9624 -0.1123 -0.1488
  433MOL0     H58437   5.974   8.356   1.613 -0.8825  0.1535 -1.4142
  433MOL0     H58438   6.134   8.539   1.605 -0.1866 -2.5105 -1.5870
  433MOL0     H58439   6.421   8.921   1.731  1.1705  2.2760 -0.1543
  433MOL0     H58440   6.539   9.115   1.663 -2.3126  0.6322  3.1629
  433MOL0     H58441   8.213   9.518   0.728 -1.5218  1.0997  3.5092
  433MOL0     H58442   8.458   9.530   0.659 -0.0029 -1.0762  0.8855
  433MOL0     H58443   8.860   9.754   0.662 -0.6635 -3.0959 -1.2326
  433MOL0     H58444   9.076   9.785   0.578 -2.1416 -0.9733  2.7075
  433MOL0     H58445   9.119   9.843   0.119 -1.9816  1.5595 -0.4656
  433MOL0     H58446   9.126   9.997   0.196  1.0184 -0.9253  0.0531
  433MOL0     H58447   9.319   9.909   0.040  1.1897 -2.0104 -0.0258
  433MOL0     H58448   9.368   9.811   0.180 -4.1006 -1.8874 -0.0931
  433MOL0     H58449   9.377  10.008   0.324 -2.3490  3.0704 -0.8571
  433MOL0     H58450   9.339  10.106   0.179  2.4159  1.6026 -2.5198
  433MOL0     H58451   9.561  10.125   0.219 -2.9347  0.9099  1.1819
  433MOL0     H58452   9.537  10.044   0.057  0.4143 -2.6283 -0.4526
  433MOL0     H58453   9.754   9.743   0.221 -0.4738 -1.6930  0.1082
  433MOL0     H58454   8.914   9.843   0.186  1.9835  1.9475  1.4121
  433MOL0     H58455   8.691   9.808   0.266 -1.9180 -2.8541  1.7738
  434MOL0     O58456   3.453   9.028   2.354  0.3009 -0.3024 -0.0374
  434MOL0     C58457   3.539   8.943   2.366 -0.8124  0.5779 -0.6450
  434MOL0     O58458   3.523   8.804   2.378  0.2115  0.5811 -0.4738
  434MOL0     C58459   3.402   8.744   2.383 -0.0028 -0.8144  0.0936
  434MOL0     C58460   3.366   8.659   2.281  0.0638 -0.1330  0.5406
  434MOL0     C58461   3.244   8.585   2.297  0.6570  0.7017  0.6569
  434MOL0     C58462   3.164   8.608   2.414  0.2817  0.1759 -0.3858
  434MOL0     O58463   3.070   8.514   2.434  0.9055 -0.2478  0.4447
  434MOL0     C58464   2.940   8.562   2.462 -0.4348 -0.2104 -0.1522
  434MOL0     C58465   2.847   8.444   2.452  0.0474 -0.3400  0.0082
  434MOL0     C58466   2.693   8.492   2.466 -0.5477  0.2689 -0.2141
  434MOL0     C58467   2.600   8.369   2.474 -0.6273 -0.7295  0.2429
  434MOL0     C58468   2.450   8.404   2.454  0.0083 -0.3833 -0.6622
  434MOL0     C58469   2.369   8.270   2.469  0.5360 -0.6073  0.3612
  434MOL0     C58470   2.222   8.291   2.453  0.4727  0.2173 -0.0388
  434MOL0     C58471   2.145   8.386   2.546  0.7261 -0.0984 -0.1538
  434MOL0     N58472   2.021   8.423   2.489  0.3539 -0.6399  0.6884
  434MOL0     C58473   1.933   8.336   2.432  0.5582  0.0509 -0.0109
  434MOL0     C58474   1.863   8.399   2.339 -0.1031 -0.3192 -0.8905
  434MOL0     C58475   1.767   8.323   2.252 -0.1683 -0.4801  0.8285
  434MOL0     C58476   1.746   8.392   2.122  0.7369  0.6101  0.3907
  434MOL0     C58477   1.661   8.311   2.019  0.7828 -0.5172  0.9691
  434MOL0     C58478   1.656   8.389   1.891  0.0588 -0.1336 -0.2408
  434MOL0     O58479   1.608   8.529   1.905 -0.0477  0.4679  0.3544
  434MOL0     C58480   1.476   8.528   1.925 -0.2908  0.2885 -0.3385
  434MOL0     C58481   1.422   8.579   2.043 -0.1392 -0.0993 -0.3292
  434MOL0     C58482   1.290   8.613   2.066  0.3133  0.0250  0.1945
  434MOL0     C58483   1.240   8.650   2.203  0.4215  0.9917  1.0793
  434MOL0     C58484   1.196   8.580   1.966 -0.0829 -0.5204 -0.2283
  434MOL0     C58485   1.049   8.598   1.963 -0.2314 -0.4342  0.8179
  434MOL0     O58486   0.968   8.498   1.908  0.2798  0.2128 -0.3688
  434MOL0     C58487   0.857   8.540   1.852 -0.3153  0.2545 -0.1471
  434MOL0     C58488   0.737   8.524   1.927  0.8252 -0.0816  0.3800
  434MOL0     C58489   0.613   8.555   1.878 -1.1561 -0.4426 -0.3409
  434MOL0     C58490   0.609   8.600   1.740 -0.1921  0.1724 -1.1095
  434MOL0     O58491   0.501   8.643   1.672 -1.0211 -0.7445 -0.3216
  434MOL0     C58492   0.380   8.642   1.743  0.0711  0.6154  0.3093
  434MOL0     C58493   0.278   8.695   1.647  0.3033  0.3268 -0.0220
  434MOL0     C58494   0.151   8.762   1.705 -0.7144 -0.2488 -0.9122
  434MOL0     C58495   0.189   8.913   1.741 -0.7090  0.2540 -0.5273
  434MOL0     C58496   0.077   8.994   1.818 -0.1778 -0.1185  0.1320
  434MOL0     C58497  -0.062   8.987   1.739 -0.0609 -0.3170  0.2774
  434MOL0     C58498  -0.166   9.090   1.787  0.2117 -0.3945  0.2953
  434MOL0     C58499  -0.113   9.240   1.769  0.5418  1.0603 -0.4049
  434MOL0    Cl58500  -0.052   9.263   1.601 -0.0783  0.0024 -0.1907
  434MOL0     C58501   0.731   8.630   1.673  0.6359  0.1046 -0.0567
  434MOL0     C58502   0.855   8.594   1.720 -0.6385 -0.0878 -0.3294
  434MOL0     O58503   1.014   8.712   2.000  0.6397  0.6828  0.6182
  434MOL0     C58504   1.245   8.539   1.842  0.5004  0.3908  0.4804
  434MOL0     C58505   1.381   8.505   1.820  0.3327  0.3590  0.4202
  434MOL0     N58506   1.907   8.531   2.344  0.1718 -0.2831 -0.0957
  434MOL0     N58507   2.002   8.541   2.433  0.1880 -0.0101 -0.1557
  434MOL0     C58508   3.199   8.707   2.508  0.5227  1.1154 -0.0316
  434MOL0     C58509   3.316   8.780   2.490  0.3869  0.1484  0.2237
  434MOL0     C58510   3.679   8.990   2.379 -0.9494 -0.3882  0.5149
  434MOL0     C58511   3.792   8.915   2.338 -0.1365  0.6148 -0.2097
  434MOL0     C58512   3.922   8.966   2.339 -0.4837  0.8339  0.1043
  434MOL0     C58513   3.953   9.094   2.386  0.7583  0.2338  0.9513
  434MOL0     O58514   4.088   9.139   2.378  0.6328  0.3967  0.0731
  434MOL0     C58515   4.121   9.274   2.384 -0.6510 -1.1568  0.7014
  434MOL0     C58516   4.263   9.292   2.314 -0.5518 -0.0481 -0.2106
  434MOL0     C58517   4.370   9.203   2.380  0.7247 -0.3437 -0.4747
  434MOL0     C58518   4.407   9.262   2.514  0.6048  0.1270 -0.1233
  434MOL0     C58519   4.505   9.177   2.578 -0.7145  0.0847 -0.0951
  434MOL0     C58520   4.601   9.130   2.634 -0.3291 -1.0602  0.4707
  434MOL0     C58521   3.843   9.169   2.435  0.2688  0.5512 -0.3141
  434MOL0     C58522   3.709   9.118   2.421 -0.3522 -0.0085 -0.5542
  434MOL0     H58523   3.436   8.637   2.201 -1.8978 -1.5263 -0.8720
  434MOL0     H58524   3.224   8.500   2.233  0.2917  0.1419  1.4903
  434MOL0     H58525   2.937   8.590   2.568 -1.2505 -2.5409  0.4858
  434MOL0     H58526   2.907   8.641   2.394  1.9783  0.0047 -1.1933
  434MOL0     H58527   2.862   8.386   2.360 -0.3226 -0.1958 -0.1451
  434MOL0     H58528   2.867   8.387   2.543  2.9772  1.6852  0.7899
  434MOL0     H58529   2.682   8.550   2.557  2.8089 -1.3059  1.3587
  434MOL0     H58530   2.663   8.547   2.376  0.1129  1.0351  0.0324
  434MOL0     H58531   2.626   8.292   2.401 -1.6507 -0.9093  0.0550
  434MOL0     H58532   2.604   8.321   2.572 -3.0782  0.5591  1.0430
  434MOL0     H58533   2.421   8.463   2.541 -4.7429  1.0222 -2.8153
  434MOL0     H58534   2.436   8.458   2.360  0.6140 -3.3754 -2.6139
  434MOL0     H58535   2.408   8.213   2.384  1.9724 -3.6286  2.8407
  434MOL0     H58536   2.392   8.212   2.558  0.1056  1.0958  1.6398
  434MOL0     H58537   2.203   8.328   2.352 -0.0629 -1.6979 -0.6866
  434MOL0     H58538   2.176   8.192   2.459 -1.6376  1.0014 -1.9112
  434MOL0     H58539   2.199   8.479   2.568 -0.8865  0.8866 -0.1894
  434MOL0     H58540   2.138   8.341   2.646 -0.0625  2.2803  0.9444
  434MOL0     H58541   1.929   8.230   2.454 -0.0966 -0.1389 -0.9705
  434MOL0     H58542   1.808   8.227   2.221 -3.2226 -1.0345 -2.0539
  434MOL0     H58543   1.681   8.291   2.312  1.3733 -0.9618  2.8993
  434MOL0     H58544   1.845   8.409   2.076  1.7348  0.3013  2.3196
  434MOL0     H58545   1.694   8.486   2.141 -2.6186 -0.7406 -1.3174
  434MOL0     H58546   1.557   8.323   2.052  0.6359  0.3424  0.2233
  434MOL0     H58547   1.695   8.207   2.015  1.4796 -0.2552 -0.3225
  434MOL0     H58548   1.588   8.337   1.822 -1.2080  1.0856  0.0462
  434MOL0     H58549   1.757   8.385   1.849  0.0676 -1.3531 -0.1405
  434MOL0     H58550   1.485   8.591   2.131 -2.2800  0.0964  1.2470
  434MOL0     H58551   1.132   8.668   2.203  0.7488  4.6568 -3.0366
  434MOL0     H58552   1.261   8.570   2.275  0.8312  0.4256  0.3412
  434MOL0     H58553   1.295   8.738   2.238  1.7604  1.3374 -1.6527
  434MOL0     H58554   0.747   8.475   2.024 -0.2594 -0.9148  0.0928
  434MOL0     H58555   0.529   8.541   1.945 -1.9599  3.8251 -0.1924
  434MOL0     H58556   0.360   8.539   1.774  1.6239  1.0227  2.9518
  434MOL0     H58557   0.377   8.700   1.835 -0.1968  1.3068 -0.1264
  434MOL0     H58558   0.328   8.762   1.576  3.2024  0.2321  1.7297
  434MOL0     H58559   0.247   8.614   1.581 -0.0704  0.4679 -0.0234
  434MOL0     H58560   0.103   8.705   1.785  0.0208 -2.8770 -2.2414
  434MOL0     H58561   0.069   8.770   1.632 -3.5354 -0.1846  2.0307
  434MOL0     H58562   0.276   8.897   1.804 -0.5217 -0.4223 -0.9489
  434MOL0     H58563   0.224   8.966   1.652  1.2338 -0.3349 -0.1570
  434MOL0     H58564   0.119   9.095   1.831 -0.3762 -0.1938  1.5667
  434MOL0     H58565   0.057   8.957   1.919 -3.3884 -0.9963 -0.7233
  434MOL0     H58566  -0.036   9.019   1.637 -1.6531  0.2975  0.0442
  434MOL0     H58567  -0.093   8.882   1.737  0.6739 -0.5722  1.4043
  434MOL0     H58568  -0.195   9.067   1.890  1.1642 -0.2425  0.6097
  434MOL0     H58569  -0.258   9.078   1.730 -1.2475 -1.2812  2.6945
  434MOL0     H58570  -0.044   9.252   1.853 -1.8232 -2.6007  2.3949
  434MOL0     H58571  -0.200   9.305   1.783 -2.7005 -2.8775 -0.2119
  434MOL0     H58572   0.724   8.678   1.576  3.9837 -0.3288 -0.6370
  434MOL0     H58573   0.941   8.624   1.662 -1.1834 -0.0269 -1.1351
  434MOL0     H58574   1.180   8.523   1.757  0.5977  2.1672  0.0339
  434MOL0     H58575   1.411   8.454   1.729 -1.7470 -0.9760  0.4356
  434MOL0     H58576   3.133   8.714   2.594  1.4049 -1.4300  0.9216
  434MOL0     H58577   3.348   8.855   2.562  0.1513 -1.2900  1.8806
  434MOL0     H58578   3.783   8.820   2.286 -0.4171  0.1618  0.6605
  434MOL0     H58579   4.005   8.911   2.295 -0.0730  0.0922  1.7075
  434MOL0     H58580   4.043   9.323   2.326  0.9799 -0.4073 -0.9494
  434MOL0     H58581   4.120   9.301   2.490  1.3566 -1.3784  0.8265
  434MOL0     H58582   4.289   9.398   2.315 -2.2227  0.4410  3.0030
  434MOL0     H58583   4.259   9.263   2.208 -1.1243  0.5247 -0.3544
  434MOL0     H58584   4.457   9.194   2.315  0.9862  3.3562 -0.8366
  434MOL0     H58585   4.331   9.104   2.405  0.1536  0.3858  1.7514
  434MOL0     H58586   4.314   9.261   2.571  0.5998 -2.5221 -0.0849
  434MOL0     H58587   4.442   9.364   2.491 -1.3130  0.6740 -0.7734
  434MOL0     H58588   4.675   9.077   2.690  0.0980 -0.9719 -0.0062
  434MOL0     H58589   3.856   9.270   2.473 -0.0027  0.5418 -0.1963
  434MOL0     H58590   3.624   9.183   2.438 -0.4330  0.1531 -1.5388
  435MOL0     O58591   3.690   7.120   4.046  0.4503 -0.4363 -0.8316
  435MOL0     C58592   3.717   7.072   4.158  0.6679 -0.4850  0.2108
  435MOL0     O58593   3.625   7.030   4.251  1.0003 -1.1287 -0.3805
  435MOL0     C58594   3.499   7.070   4.224  0.1092  0.6640 -0.8103
  435MOL0     C58595   3.413   6.982   4.155 -0.1666 -0.2222 -0.8938
  435MOL0     C58596   3.281   7.020   4.134 -0.2094 -0.3325  0.2922
  435MOL0     C58597   3.232   7.148   4.181 -0.7756  0.0207  0.5502
  435MOL0     O58598   3.102   7.205   4.176 -0.0405  0.3650 -0.1804
  435MOL0     C58599   2.998   7.106   4.194 -0.2024  0.7373 -0.0679
  435MOL0     C58600   2.876   7.176   4.136  0.0848 -0.6754 -0.1299
  435MOL0     C58601   2.752   7.083   4.175 -0.5475  0.3003  0.2054
  435MOL0     C58602   2.624   7.121   4.106 -0.4205 -0.1217 -1.1034
  435MOL0     C58603   2.509   7.042   4.177 -0.2321 -0.5269  0.2726
  435MOL0     C58604   2.523   6.885   4.149  0.2291 -1.1735  0.5471
  435MOL0     C58605   2.413   6.816   4.239 -0.0435  0.4607  1.0472
  435MOL0     C58606   2.272   6.824   4.171 -0.1580 -0.0579 -0.9710
  435MOL0     N58607   2.197   6.953   4.175 -0.6310  0.2406 -0.4577
  435MOL0     C58608   2.186   7.027   4.291  0.7379 -0.3188 -0.0104
  435MOL0     C58609   2.115   7.136   4.259  0.6806  0.0005  0.0206
  435MOL0     C58610   2.084   7.232   4.365  0.3373  1.0127  0.6196
  435MOL0     C58611   1.935   7.239   4.387  0.4979 -0.8570  0.2373
  435MOL0     C58612   1.887   7.338   4.493  0.3327 -0.1265 -0.5148
  435MOL0     C58613   1.734   7.360   4.476  0.0562 -0.5806 -0.0116
  435MOL0     O58614   1.692   7.476   4.558  0.4674  0.0256 -0.0862
  435MOL0     C58615   1.554   7.469   4.578 -0.0908 -0.2403  0.4202
  435MOL0     C58616   1.474   7.491   4.468  0.1239 -0.6226 -0.7644
  435MOL0     C58617   1.334   7.489   4.476 -0.3451  0.0053  0.5284
  435MOL0     C58618   1.251   7.489   4.357 -0.3315  0.3310  0.2638
  435MOL0     C58619   1.271   7.477   4.599  0.4887 -0.2659 -0.1167
  435MOL0     C58620   1.118   7.487   4.621 -0.0344 -0.2900 -0.2381
  435MOL0     O58621   1.072   7.395   4.717 -0.0146  0.0457  0.2225
  435MOL0     C58622   0.932   7.382   4.745  0.1957 -0.4266 -0.0519
  435MOL0     C58623   0.876   7.257   4.761  0.0308  0.0852 -0.0461
  435MOL0     C58624   0.742   7.240   4.808 -0.3976 -0.4655 -0.2227
  435MOL0     C58625   0.662   7.343   4.844  0.7042 -0.4776 -0.0979
  435MOL0     O58626   0.537   7.308   4.886 -0.1303  0.0893 -0.6237
  435MOL0     C58627   0.455   7.404   4.960  0.0803  0.1314  0.5986
  435MOL0     C58628   0.318   7.326   4.983  0.6178 -0.6743  0.2086
  435MOL0     C58629   0.197   7.425   5.007 -0.5874  0.2682 -0.0558
  435MOL0     C58630   0.083   7.380   4.905 -0.3579 -0.1665  0.0484
  435MOL0     C58631   0.020   7.245   4.942  0.4656 -0.4269  0.7467
  435MOL0     C58632  -0.065   7.178   4.834  0.0283  0.5932 -0.3997
  435MOL0     C58633  -0.185   7.264   4.780 -0.0029  0.1519  0.3980
  435MOL0     C58634  -0.244   7.206   4.649 -0.6457  0.3182  0.0388
  435MOL0    Cl58635  -0.364   7.317   4.576  0.3611  0.4021 -0.3782
  435MOL0     C58636   0.707   7.474   4.831  0.2547 -0.5108  0.0550
  435MOL0     C58637   0.843   7.488   4.787 -0.1153  0.5614  0.7141
  435MOL0     O58638   1.051   7.570   4.558 -0.0003  0.0153 -0.4504
  435MOL0     C58639   1.352   7.468   4.718  0.2268 -0.0740  0.5238
  435MOL0     C58640   1.488   7.469   4.703  0.4396  0.4394 -0.4442
  435MOL0     N58641   2.074   7.127   4.128 -0.1921 -0.2439  0.4128
  435MOL0     N58642   2.121   7.017   4.079 -0.4025 -0.3411 -0.7518
  435MOL0     C58643   3.312   7.230   4.253 -0.0030  0.4636  0.1492
  435MOL0     C58644   3.445   7.190   4.283  0.2521 -0.0023  0.8681
  435MOL0     C58645   3.860   7.053   4.191 -1.1548 -0.1231 -0.2009
  435MOL0     C58646   3.897   7.037   4.329 -1.1328 -0.2563  0.1032
  435MOL0     C58647   4.032   7.025   4.365  0.1265  0.5387  0.9224
  435MOL0     C58648   4.127   7.029   4.264 -0.2747  0.4615 -0.0355
  435MOL0     O58649   4.260   7.031   4.304 -0.6212 -0.0859 -0.3104
  435MOL0     C58650   4.336   6.915   4.266 -0.6552 -0.7746 -0.0759
  435MOL0     C58651   4.330   6.790   4.359 -0.4709  0.4474 -0.1668
  435MOL0     C58652   4.396   6.825   4.496 -0.1288 -0.6660  0.3178
  435MOL0     C58653   4.381   6.712   4.600  0.5409  0.1298  0.3834
  435MOL0     C58654   4.422   6.762   4.731 -0.3932  0.0621 -0.2022
  435MOL0     C58655   4.470   6.806   4.831 -1.4738 -0.3840  0.1241
  435MOL0     C58656   4.094   7.048   4.131 -0.8036  0.1983  0.0884
  435MOL0     C58657   3.958   7.058   4.089 -0.6092  0.6196 -0.9084
  435MOL0     H58658   3.452   6.894   4.105 -1.1305 -1.7091  0.8763
  435MOL0     H58659   3.222   6.952   4.073 -2.5851  2.2246 -0.4481
  435MOL0     H58660   3.014   7.021   4.128 -1.3457  1.6417 -1.6009
  435MOL0     H58661   2.978   7.068   4.294  1.3526 -0.1224 -0.0638
  435MOL0     H58662   2.868   7.275   4.182  0.9465 -0.7877  0.2930
  435MOL0     H58663   2.881   7.189   4.028 -0.5007 -0.0626 -0.0904
  435MOL0     H58664   2.785   6.985   4.139 -0.0779  0.6509 -0.3434
  435MOL0     H58665   2.748   7.078   4.284  0.5627  1.2256  0.3100
  435MOL0     H58666   2.608   7.229   4.109  1.4936  0.2383 -2.1007
  435MOL0     H58667   2.618   7.084   4.003 -2.6566 -0.6051 -0.8514
  435MOL0     H58668   2.504   7.064   4.284  0.6903  2.3019 -0.1944
  435MOL0     H58669   2.417   7.074   4.128 -0.8909 -2.3989  0.1904
  435MOL0     H58670   2.519   6.868   4.041 -0.4611 -2.8608  0.8105
  435MOL0     H58671   2.621   6.847   4.181  1.7263 -0.1867 -2.4521
  435MOL0     H58672   2.438   6.710   4.240  0.2706  0.5336  1.0839
  435MOL0     H58673   2.416   6.848   4.344 -2.3883 -0.8055  1.5720
  435MOL0     H58674   2.217   6.746   4.224  0.6678 -0.0362 -0.0392
  435MOL0     H58675   2.284   6.797   4.066  1.2326 -0.1937 -0.7989
  435MOL0     H58676   2.229   7.002   4.388 -0.4407  1.8561  1.1673
  435MOL0     H58677   2.135   7.198   4.456  0.0954 -3.2863 -0.6560
  435MOL0     H58678   2.107   7.334   4.332  1.2748 -0.4453 -3.8473
  435MOL0     H58679   1.897   7.140   4.413  1.0731 -1.4583 -1.0604
  435MOL0     H58680   1.903   7.281   4.291  0.5999  2.8265  1.6478
  435MOL0     H58681   1.932   7.437   4.480 -1.2339  0.7894  0.5944
  435MOL0     H58682   1.909   7.300   4.593 -0.9617 -1.8074 -0.8292
  435MOL0     H58683   1.678   7.267   4.490  0.0959 -0.5975  0.0383
  435MOL0     H58684   1.721   7.386   4.371 -0.1277  1.3008  0.4353
  435MOL0     H58685   1.515   7.508   4.369  1.5232  2.2990  0.2186
  435MOL0     H58686   1.312   7.513   4.270 -1.2333 -1.5231 -0.9567
  435MOL0     H58687   1.212   7.388   4.339  2.0606 -0.1870 -2.9850
  435MOL0     H58688   1.161   7.551   4.357 -0.2423  0.4979 -0.9805
  435MOL0     H58689   0.936   7.171   4.734  2.2080  2.0140 -1.6810
  435MOL0     H58690   0.707   7.138   4.815  1.4224 -1.3444 -2.5191
  435MOL0     H58691   0.503   7.428   5.055  2.2724  1.3607 -0.7407
  435MOL0     H58692   0.429   7.491   4.898  0.1024  1.8587  2.8853
  435MOL0     H58693   0.303   7.269   4.890  1.1744  1.0693 -0.9996
  435MOL0     H58694   0.309   7.254   5.065 -0.2049  0.0936  0.8179
  435MOL0     H58695   0.216   7.532   5.006 -1.3208  0.4143 -2.1142
  435MOL0     H58696   0.167   7.402   5.110 -0.0412 -2.7564 -0.4703
  435MOL0     H58697  -0.002   7.448   4.896 -3.1304 -2.3805  5.1220
  435MOL0     H58698   0.128   7.362   4.807 -0.0080 -0.9958  0.3467
  435MOL0     H58699  -0.039   7.247   5.035 -1.3352 -0.9139 -0.3334
  435MOL0     H58700   0.101   7.176   4.964 -0.1692 -0.4186  3.5079
  435MOL0     H58701  -0.001   7.152   4.750 -0.6208 -0.6429 -0.5372
  435MOL0     H58702  -0.093   7.079   4.872 -1.1149  0.9381 -0.2867
  435MOL0     H58703  -0.151   7.367   4.766  1.6968 -0.3271  0.8187
  435MOL0     H58704  -0.260   7.258   4.860 -0.6675  0.8493 -0.1593
  435MOL0     H58705  -0.298   7.111   4.656 -1.6087  0.6157 -2.3304
  435MOL0     H58706  -0.158   7.191   4.583 -0.3767  1.9066  0.0086
  435MOL0     H58707   0.647   7.561   4.852  0.4891 -0.0283 -1.2066
  435MOL0     H58708   0.875   7.591   4.770 -0.4815  0.8736  1.8103
  435MOL0     H58709   1.315   7.470   4.820 -0.9693  2.3464  0.1090
  435MOL0     H58710   1.542   7.453   4.795  0.2794 -2.4611 -0.7719
  435MOL0     H58711   3.279   7.331   4.274  2.3824  1.6213 -1.2056
  435MOL0     H58712   3.507   7.271   4.321  2.6958 -0.2224 -2.2528
  435MOL0     H58713   3.819   7.029   4.404 -3.0023 -1.4103 -1.8773
  435MOL0     H58714   4.069   7.030   4.467 -0.2582  0.4525  1.0667
  435MOL0     H58715   4.309   6.889   4.163  1.4394  1.2384 -1.2436
  435MOL0     H58716   4.441   6.944   4.258 -0.8089 -0.3347 -0.5607
  435MOL0     H58717   4.376   6.705   4.308  0.5559  1.0126 -0.2010
  435MOL0     H58718   4.224   6.764   4.369  0.1340 -1.6153  1.7799
  435MOL0     H58719   4.342   6.915   4.527  0.0433  0.0771 -1.3975
  435MOL0     H58720   4.502   6.850   4.483 -0.5745  0.9197 -0.6639
  435MOL0     H58721   4.439   6.624   4.572  2.7952  0.2087  4.0779
  435MOL0     H58722   4.272   6.700   4.601  0.3672  1.3811 -0.8050
  435MOL0     H58723   4.515   6.848   4.919  0.6261  3.0115 -2.3181
  435MOL0     H58724   4.174   7.059   4.058  1.8248  0.1486  2.7646
  435MOL0     H58725   3.927   7.084   3.988 -0.2823 -0.2692 -1.2479
  436MOL0     O58726  11.069   9.384   5.761 -0.1781  0.0674  0.6213
  436MOL0     C58727  11.038   9.439   5.869  0.5985  0.9936  0.4649
  436MOL0     O58728  10.912   9.467   5.907 -0.0880 -0.1264 -0.0063
  436MOL0     C58729  10.815   9.455   5.812 -0.3123  0.5361 -0.3530
  436MOL0     C58730  10.715   9.358   5.827  0.3741 -0.4908  0.9965
  436MOL0     C58731  10.601   9.362   5.742  0.2321  0.0780 -0.1899
  436MOL0     C58732  10.606   9.437   5.626  0.3475  0.4156  0.2250
  436MOL0     O58733  10.497   9.412   5.542 -0.0325 -0.2111  0.8649
  436MOL0     C58734  10.454   9.500   5.431 -0.7716 -0.6695 -0.7815
  436MOL0     C58735  10.310   9.465   5.391 -0.1566  0.0395 -0.0468
  436MOL0     C58736  10.293   9.324   5.351  0.7959 -0.1273  0.0653
  436MOL0     C58737  10.372   9.265   5.238 -0.4741  0.3678  0.6468
  436MOL0     C58738  10.284   9.166   5.167 -0.5812  0.0466  0.0491
  436MOL0     C58739  10.353   9.116   5.050  0.3626 -0.1446 -1.0563
  436MOL0     C58740  10.288   8.986   4.989 -0.2138 -0.1160 -0.5301
  436MOL0     C58741  10.146   9.002   4.935  0.3522 -0.3992 -0.2323
  436MOL0     N58742  10.073   8.874   4.934 -0.2936 -0.1800  0.0702
  436MOL0     C58743  10.007   8.823   5.049  0.1477 -0.7764  0.3268
  436MOL0     C58744   9.954   8.700   5.015 -0.2477  0.6630 -0.4821
  436MOL0     C58745   9.869   8.609   5.089  1.0165 -0.2078 -0.6935
  436MOL0     C58746   9.727   8.607   5.049 -1.3196 -0.2417 -0.4582
  436MOL0     C58747   9.649   8.736   5.093  1.1071  0.5449  0.0447
  436MOL0     C58748   9.502   8.734   5.049 -0.6928 -0.6027 -0.0098
  436MOL0     O58749   9.430   8.657   5.144  0.3002 -0.8289 -0.1324
  436MOL0     C58750   9.293   8.657   5.133  0.7081 -0.1479 -0.3348
  436MOL0     C58751   9.222   8.575   5.223 -0.0853 -0.7327 -0.6946
  436MOL0     C58752   9.075   8.558   5.219 -0.3184 -0.7944  0.6696
  436MOL0     C58753   9.021   8.469   5.319  1.5608  0.6897 -0.0323
  436MOL0     C58754   9.010   8.634   5.116  0.2933 -0.5199 -0.5378
  436MOL0     C58755   8.863   8.634   5.100  0.3192  0.2709  0.3894
  436MOL0     O58756   8.822   8.643   4.964  0.2349 -0.4825  0.0184
  436MOL0     C58757   8.686   8.664   4.931  0.5336 -0.6297  0.3332
  436MOL0     C58758   8.605   8.759   4.992  0.6210 -0.1261 -0.4749
  436MOL0     C58759   8.478   8.786   4.938 -0.6086  0.8313 -0.4559
  436MOL0     C58760   8.428   8.724   4.822 -0.6580  0.2258 -0.3882
  436MOL0     O58761   8.295   8.742   4.787 -0.0198  0.5578 -0.9789
  436MOL0     C58762   8.264   8.857   4.719 -0.1370 -0.2433  0.7012
  436MOL0     C58763   8.179   8.839   4.593 -1.5285 -1.3603  0.2517
  436MOL0     C58764   8.029   8.839   4.619  1.2489 -0.0157  0.3030
  436MOL0     C58765   7.962   8.972   4.659  0.0396  0.1540 -0.1329
  436MOL0     C58766   7.813   8.956   4.713  0.8646  0.1523 -0.0564
  436MOL0     C58767   7.722   8.887   4.605 -0.7883  0.0932  0.1679
  436MOL0     C58768   7.575   8.891   4.646 -0.7392 -0.1791 -0.2089
  436MOL0     C58769   7.476   8.873   4.527  0.4232 -0.5998 -0.7390
  436MOL0    Cl58770   7.306   8.912   4.587  0.1622 -0.1403 -0.7184
  436MOL0     C58771   8.507   8.637   4.760 -1.4274  1.0312 -0.0601
  436MOL0     C58772   8.636   8.600   4.813  0.4031 -1.2361  0.3367
  436MOL0     O58773   8.784   8.620   5.195  0.2491 -0.2507 -0.3458
  436MOL0     C58774   9.080   8.728   5.033 -0.3926  0.8576 -1.6131
  436MOL0     C58775   9.221   8.740   5.042 -0.3923 -0.0937  0.2961
  436MOL0     N58776   9.989   8.684   4.882 -0.1721 -0.3654 -0.7728
  436MOL0     N58777  10.056   8.789   4.835 -0.0573  0.0796  0.6507
  436MOL0     C58778  10.707   9.540   5.609  0.7736  0.4388  0.1201
  436MOL0     C58779  10.813   9.546   5.708 -0.7116  0.4692  0.0778
  436MOL0     C58780  11.149   9.488   5.952 -0.6006  0.3606  0.1649
  436MOL0     C58781  11.126   9.552   6.072 -0.3369  0.4065 -0.8877
  436MOL0     C58782  11.240   9.601   6.150 -0.8524 -0.5233  0.4972
  436MOL0     C58783  11.370   9.577   6.105  0.4261 -0.3534  0.4115
  436MOL0     O58784  11.486   9.632   6.154 -0.3202 -0.1348  0.6179
  436MOL0     C58785  11.475   9.723   6.262 -0.0077 -0.5536 -0.8007
  436MOL0     C58786  11.582   9.829   6.264 -0.2717  0.5460 -0.0054
  436MOL0     C58787  11.721   9.777   6.267 -0.6871  0.1554  0.0438
  436MOL0     C58788  11.818   9.896   6.273  0.1952  0.3494  0.2372
  436MOL0     C58789  11.840   9.954   6.142 -0.4678 -0.2009 -0.2308
  436MOL0     C58790  11.860  10.001   6.031 -0.0326  0.2955 -0.5495
  436MOL0     C58791  11.387   9.510   5.987  0.0641 -0.0006 -0.6089
  436MOL0     C58792  11.279   9.461   5.912  0.4734 -0.4168 -0.6590
  436MOL0     H58793  10.719   9.295   5.916  0.8950 -0.9734  0.6404
  436MOL0     H58794  10.517   9.303   5.778 -1.0850  1.1936 -1.3207
  436MOL0     H58795  10.458   9.604   5.466  1.2570 -0.1928 -2.2411
  436MOL0     H58796  10.519   9.495   5.344  2.4704  1.5238  1.2815
  436MOL0     H58797  10.238   9.495   5.467  0.7551  1.1572  0.4125
  436MOL0     H58798  10.288   9.522   5.300 -1.0074 -0.5433 -0.2165
  436MOL0     H58799  10.297   9.256   5.437  0.4726  0.3956  0.4994
  436MOL0     H58800  10.186   9.324   5.328  0.4285  0.3283  1.6412
  436MOL0     H58801  10.396   9.349   5.173  0.0275 -0.3716 -0.1446
  436MOL0     H58802  10.469   9.228   5.272 -0.6555 -1.7354 -0.8976
  436MOL0     H58803  10.259   9.075   5.223  0.3144 -2.2581 -3.0388
  436MOL0     H58804  10.197   9.211   5.118 -0.3029 -0.6163 -1.0750
  436MOL0     H58805  10.358   9.191   4.970 -2.7251  1.1491 -0.1963
  436MOL0     H58806  10.449   9.083   5.091  0.3304 -3.6341 -3.3684
  436MOL0     H58807  10.353   8.940   4.914  2.0937 -1.7685  2.2779
  436MOL0     H58808  10.292   8.918   5.075  1.0578  0.4760 -0.0814
  436MOL0     H58809  10.150   9.029   4.829  1.0849  0.3550 -0.0260
  436MOL0     H58810  10.093   9.086   4.982  1.4823 -0.7586  1.8087
  436MOL0     H58811   9.997   8.870   5.146 -0.0382  1.0754 -0.5487
  436MOL0     H58812   9.904   8.505   5.078 -0.2302 -0.6387 -0.7244
  436MOL0     H58813   9.868   8.629   5.197 -0.0894 -1.6013 -0.4201
  436MOL0     H58814   9.696   8.514   5.097  3.7287 -1.4702  0.9522
  436MOL0     H58815   9.722   8.596   4.940 -1.0813  1.3910 -0.6637
  436MOL0     H58816   9.699   8.823   5.048  1.0289  0.1741 -0.7790
  436MOL0     H58817   9.657   8.751   5.201 -2.1593 -0.0791  0.4609
  436MOL0     H58818   9.485   8.698   4.947 -5.6081  1.0884 -0.0717
  436MOL0     H58819   9.476   8.841   5.053  0.4882 -0.2587 -0.9879
  436MOL0     H58820   9.275   8.508   5.290 -2.5428 -1.4135  0.6947
  436MOL0     H58821   8.926   8.513   5.349  1.7060  1.2492 -0.3775
  436MOL0     H58822   9.006   8.365   5.289 -3.7780  1.1502  0.1228
  436MOL0     H58823   9.083   8.466   5.410  4.9602 -0.9767 -2.1921
  436MOL0     H58824   8.651   8.806   5.078  0.4191 -1.4660  0.4017
  436MOL0     H58825   8.426   8.872   4.978  0.8841  1.7406 -0.4081
  436MOL0     H58826   8.221   8.929   4.789 -0.4795  0.3360 -0.0808
  436MOL0     H58827   8.354   8.906   4.682  1.9853 -3.1182  1.7080
  436MOL0     H58828   8.186   8.923   4.524 -2.3998 -0.5407  1.1204
  436MOL0     H58829   8.208   8.747   4.542  3.8645  0.8418 -1.2660
  436MOL0     H58830   8.004   8.755   4.683  0.8701  0.5260  0.8829
  436MOL0     H58831   7.980   8.810   4.525  0.3099 -1.0893  1.0953
  436MOL0     H58832   8.010   9.014   4.748 -0.5309  0.8866 -0.1656
  436MOL0     H58833   7.967   9.038   4.572  1.1452  2.2193  1.4060
  436MOL0     H58834   7.759   9.050   4.729 -2.6090 -1.9041  1.4145
  436MOL0     H58835   7.815   8.910   4.812 -0.5210  1.7497  0.7725
  436MOL0     H58836   7.733   8.945   4.513  0.2712 -1.8395 -1.0019
  436MOL0     H58837   7.757   8.787   4.578  1.1010  1.0267 -1.0525
  436MOL0     H58838   7.555   8.975   4.713 -1.9304 -0.1517 -0.5827
  436MOL0     H58839   7.563   8.796   4.700 -1.8735  0.4624  0.7072
  436MOL0     H58840   7.492   8.770   4.495  0.5905 -0.1118 -2.3705
  436MOL0     H58841   7.518   8.940   4.450 -0.4529  0.0136 -0.6893
  436MOL0     H58842   8.473   8.589   4.669  2.8335 -1.7744 -0.4540
  436MOL0     H58843   8.702   8.536   4.755 -2.1722 -2.0241 -1.9339
  436MOL0     H58844   9.019   8.793   4.971 -1.7440  0.6855 -0.5024
  436MOL0     H58845   9.274   8.818   4.988  0.3361  1.2556  2.8155
  436MOL0     H58846  10.706   9.601   5.520  1.2435  1.0596  0.5312
  436MOL0     H58847  10.885   9.626   5.697 -1.8946  1.4574 -0.6993
  436MOL0     H58848  11.025   9.558   6.113  1.0360  0.2311  2.9048
  436MOL0     H58849  11.236   9.671   6.233  0.9170  1.4632 -0.9654
  436MOL0     H58850  11.382   9.780   6.255 -0.2118 -0.8286 -0.4082
  436MOL0     H58851  11.479   9.675   6.361 -1.7257  2.1360  0.6915
  436MOL0     H58852  11.557   9.897   6.347  1.6303  0.5755  0.5829
  436MOL0     H58853  11.580   9.877   6.166 -0.3945 -3.3876 -2.1168
  436MOL0     H58854  11.747   9.708   6.186  1.7735  1.4283 -0.3288
  436MOL0     H58855  11.720   9.732   6.366 -0.9813  1.8795  0.8589
  436MOL0     H58856  11.916   9.863   6.309  0.8726  1.4966 -0.5057
  436MOL0     H58857  11.790   9.981   6.334 -0.0846 -0.1457  0.8111
  436MOL0     H58858  11.884  10.045   5.937  0.6613 -0.4688 -0.7445
  436MOL0     H58859  11.488   9.503   5.947  0.3088 -0.1789  0.0235
  436MOL0     H58860  11.299   9.413   5.817  0.6657  2.0052 -1.9448
  437MOL0     O58861   1.964   3.443   8.785  0.7071 -0.0657  0.0033
  437MOL0     C58862   1.991   3.505   8.684 -0.6683 -0.3566 -0.3634
  437MOL0     O58863   1.898   3.557   8.596 -0.0669 -0.5185 -0.2645
  437MOL0     C58864   1.767   3.564   8.634 -0.2526  0.5934 -0.0451
  437MOL0     C58865   1.690   3.446   8.663 -0.0611 -0.7577 -0.4308
  437MOL0     C58866   1.558   3.458   8.694  0.2047 -0.3227  0.2491
  437MOL0     C58867   1.497   3.581   8.683  0.7314 -0.1759 -0.4577
  437MOL0     O58868   1.354   3.577   8.699 -0.6308  0.5091 -0.1037
  437MOL0     C58869   1.277   3.663   8.610 -0.1336  0.8653 -0.0739
  437MOL0     C58870   1.130   3.622   8.635 -0.1848  0.0408 -0.2004
  437MOL0     C58871   1.036   3.686   8.532  0.0024 -0.7486  0.6536
  437MOL0     C58872   0.895   3.642   8.557  0.9763 -0.1806 -0.0674
  437MOL0     C58873   0.806   3.674   8.438 -0.1294 -0.3655  0.6166
  437MOL0     C58874   0.661   3.630   8.453  1.0488  0.0162  0.2647
  437MOL0     C58875   0.590   3.695   8.579 -0.7882 -0.4057  0.4616
  437MOL0     C58876   0.577   3.845   8.553 -0.7861  0.1055 -0.4883
  437MOL0     N58877   0.524   3.910   8.672  0.4824  0.3797  0.7209
  437MOL0     C58878   0.589   3.980   8.766 -0.2120 -0.3894 -0.6542
  437MOL0     C58879   0.499   4.026   8.853 -0.2862 -0.2080  0.4170
  437MOL0     C58880   0.529   4.115   8.975  0.1186  0.3978  0.9492
  437MOL0     C58881   0.549   4.028   9.102 -0.2783  0.1831 -0.4162
  437MOL0     C58882   0.443   3.926   9.123 -0.3622 -0.2798  0.4248
  437MOL0     C58883   0.422   3.901   9.271  1.2015  0.7082  0.1501
  437MOL0     O58884   0.353   4.018   9.336 -0.1543 -0.0880  0.2877
  437MOL0     C58885   0.217   4.034   9.300  0.0825  0.0756 -0.2045
  437MOL0     C58886   0.137   4.130   9.369  0.7160 -0.5734 -0.3230
  437MOL0     C58887   0.003   4.149   9.342 -0.2541 -0.5355 -0.0020
  437MOL0     C58888  -0.065   4.266   9.411  0.5722  0.8357 -0.1675
  437MOL0     C58889  -0.070   4.056   9.260 -0.2700 -0.0756  0.3363
  437MOL0     C58890  -0.217   4.053   9.238  0.2436  0.3817  1.0400
  437MOL0     O58891  -0.249   4.030   9.113 -0.2246 -0.3596  0.1257
  437MOL0     C58892  -0.378   4.039   9.068 -0.0311 -1.0066  0.2434
  437MOL0     C58893  -0.477   3.955   9.116 -0.6048 -1.1954 -0.4891
  437MOL0     C58894  -0.605   3.972   9.064  0.1039  0.3109  0.3867
  437MOL0     C58895  -0.641   4.069   8.976 -0.1272 -0.8835 -0.2687
  437MOL0     O58896  -0.763   4.087   8.910 -0.0614 -0.1739  0.7490
  437MOL0     C58897  -0.870   4.002   8.941  0.2146 -0.2848 -0.3653
  437MOL0     C58898  -0.999   4.070   8.879 -0.1878  0.1631 -0.0007
  437MOL0     C58899  -1.133   4.009   8.925 -0.4240 -0.5602 -0.3687
  437MOL0     C58900  -1.253   4.076   8.865  0.4866 -0.0432  0.5978
  437MOL0     C58901  -1.365   3.996   8.888  0.3020  0.4132 -0.2091
  437MOL0     C58902  -1.483   4.013   8.791  0.5069 -0.4657  1.1828
  437MOL0     C58903  -1.623   4.017   8.856 -0.4210  0.4924  0.3767
  437MOL0     C58904  -1.730   4.013   8.749 -1.2189  0.5599  0.9173
  437MOL0    Cl58905  -1.891   4.059   8.808 -0.0709 -0.0960 -0.1776
  437MOL0     C58906  -0.538   4.148   8.924  0.0208 -0.1635  0.0353
  437MOL0     C58907  -0.406   4.135   8.963  0.2414  1.1760 -1.0723
  437MOL0     O58908  -0.297   4.098   9.322  0.2837  0.3134  0.6682
  437MOL0     C58909   0.009   3.950   9.208  0.7067  0.7190 -0.3627
  437MOL0     C58910   0.141   3.933   9.233  0.3152 -0.4776  0.4000
  437MOL0     N58911   0.370   3.994   8.810 -0.3095  0.0888  0.0485
  437MOL0     N58912   0.388   3.913   8.707  0.4200  0.4809 -0.0553
  437MOL0     C58913   1.573   3.696   8.671 -0.7840  0.3902  0.9808
  437MOL0     C58914   1.708   3.689   8.642 -0.1588 -0.1109 -0.5638
  437MOL0     C58915   2.139   3.498   8.658 -0.5777 -0.4359 -0.0229
  437MOL0     C58916   2.238   3.453   8.759  0.0633 -0.0466  0.3000
  437MOL0     C58917   2.372   3.441   8.719  0.3853 -0.1630  0.0044
  437MOL0     C58918   2.412   3.465   8.588 -0.0444  0.0650 -0.7009
  437MOL0     O58919   2.536   3.434   8.541 -0.3647  0.3634  0.7677
  437MOL0     C58920   2.611   3.340   8.615 -0.5077  0.2074  0.1781
  437MOL0     C58921   2.722   3.292   8.527  0.7571 -0.7831 -0.6128
  437MOL0     C58922   2.835   3.249   8.617 -0.4011  0.0056  0.6207
  437MOL0     C58923   2.963   3.213   8.529 -0.5694  0.4866 -0.3006
  437MOL0     C58924   3.066   3.156   8.623 -0.5684  0.1456 -0.9061
  437MOL0     C58925   3.150   3.134   8.710  0.1834 -0.7609 -0.1496
  437MOL0     C58926   2.322   3.507   8.493 -0.0521  0.1654  0.7813
  437MOL0     C58927   2.187   3.521   8.526  0.0672 -0.0653 -0.9426
  437MOL0     H58928   1.739   3.349   8.668  0.5317 -0.4809 -0.8139
  437MOL0     H58929   1.509   3.361   8.691  0.3869 -0.4026 -0.8605
  437MOL0     H58930   1.304   3.766   8.636  2.0923  0.4122 -0.4434
  437MOL0     H58931   1.304   3.635   8.508  1.4851  1.4576  0.1658
  437MOL0     H58932   1.137   3.513   8.628  4.7517 -0.1196  3.0461
  437MOL0     H58933   1.097   3.641   8.737 -0.6850  2.4954 -0.7624
  437MOL0     H58934   1.043   3.795   8.540 -0.4553 -0.5731 -0.9101
  437MOL0     H58935   1.069   3.666   8.430 -0.7791 -0.1488  0.2677
  437MOL0     H58936   0.891   3.535   8.579  4.0118 -0.2227  0.8149
  437MOL0     H58937   0.857   3.698   8.643  1.5681  2.4360 -1.4217
  437MOL0     H58938   0.810   3.778   8.405 -0.0703 -1.4520 -3.3253
  437MOL0     H58939   0.848   3.625   8.350 -0.0314 -1.6790  1.3774
  437MOL0     H58940   0.606   3.657   8.363  0.8441 -1.1105  0.0410
  437MOL0     H58941   0.671   3.523   8.473  1.2968  0.0941  0.5823
  437MOL0     H58942   0.490   3.651   8.576 -0.0855 -2.1158  0.8222
  437MOL0     H58943   0.641   3.664   8.671  3.2515  0.1494 -1.3441
  437MOL0     H58944   0.516   3.857   8.463 -1.0474 -1.7594 -0.5856
  437MOL0     H58945   0.675   3.893   8.547  0.3408 -1.6731  1.9951
  437MOL0     H58946   0.691   4.014   8.771 -1.0692  2.2546  2.6534
  437MOL0     H58947   0.613   4.184   8.964 -0.1483  1.3888  4.1139
  437MOL0     H58948   0.441   4.180   8.982  0.7539  1.2737  0.9592
  437MOL0     H58949   0.557   4.100   9.184 -3.0519 -1.7578  1.7863
  437MOL0     H58950   0.643   3.973   9.115 -0.2461  0.2630 -0.3068
  437MOL0     H58951   0.474   3.836   9.069  0.3987  1.7848 -2.8592
  437MOL0     H58952   0.358   3.964   9.065 -0.1781 -1.6007 -0.7754
  437MOL0     H58953   0.520   3.900   9.320  0.8640  1.9232  0.8880
  437MOL0     H58954   0.371   3.806   9.288  0.3548  1.3320  1.1735
  437MOL0     H58955   0.196   4.192   9.435  3.4516 -3.4793  0.2448
  437MOL0     H58956  -0.005   4.354   9.437 -1.4554  1.7188  1.8687
  437MOL0     H58957  -0.155   4.299   9.358  0.2204  0.3585  0.1251
  437MOL0     H58958  -0.105   4.224   9.504 -2.1906  1.9388 -0.7475
  437MOL0     H58959  -0.440   3.878   9.182  2.8857 -0.8481 -1.8555
  437MOL0     H58960  -0.683   3.899   9.085 -1.3249  1.4608 -0.7412
  437MOL0     H58961  -0.858   3.907   8.887  0.0785 -0.0742 -0.7748
  437MOL0     H58962  -0.877   3.984   9.049  2.0222 -2.5984 -0.5368
  437MOL0     H58963  -0.997   4.178   8.897 -0.3757  0.5313 -1.9570
  437MOL0     H58964  -0.987   4.058   8.771  0.8476  0.8681  0.0141
  437MOL0     H58965  -1.138   4.019   9.034  0.1185  1.5701 -0.4938
  437MOL0     H58966  -1.119   3.902   8.910  1.3802 -0.9619  3.1094
  437MOL0     H58967  -1.265   4.175   8.909  0.1724 -0.0787  0.5896
  437MOL0     H58968  -1.226   4.088   8.760  1.5052  1.9607  1.0366
  437MOL0     H58969  -1.404   4.015   8.989  0.6070 -0.6970  0.1324
  437MOL0     H58970  -1.346   3.889   8.879  0.0807  0.4593 -1.3498
  437MOL0     H58971  -1.482   4.111   8.742 -1.0564 -0.2911  1.4515
  437MOL0     H58972  -1.478   3.935   8.714 -2.9148 -0.1771  0.5390
  437MOL0     H58973  -1.642   4.107   8.916 -2.6326 -0.5568  1.3643
  437MOL0     H58974  -1.632   3.929   8.921 -3.5641  2.3973  2.8139
  437MOL0     H58975  -1.739   3.908   8.719  2.2660  0.1256  0.9789
  437MOL0     H58976  -1.713   4.073   8.659  2.0741  1.5213  2.0287
  437MOL0     H58977  -0.556   4.232   8.858  1.4120  1.0134  1.0865
  437MOL0     H58978  -0.323   4.195   8.927  0.7004  0.4426 -1.2538
  437MOL0     H58979  -0.048   3.867   9.167  1.2382 -0.8637  1.9023
  437MOL0     H58980   0.180   3.838   9.198 -0.7380 -1.2166  1.1487
  437MOL0     H58981   1.531   3.796   8.682 -1.2141  0.1938  1.1331
  437MOL0     H58982   1.768   3.778   8.625  0.4719 -0.1424  1.2178
  437MOL0     H58983   2.211   3.434   8.863 -0.7064  0.1173  0.1302
  437MOL0     H58984   2.439   3.400   8.794  2.5002 -3.6750 -3.4524
  437MOL0     H58985   2.658   3.395   8.697  1.0381  0.8499 -1.0610
  437MOL0     H58986   2.556   3.252   8.649  0.5433 -0.4861  0.1252
  437MOL0     H58987   2.759   3.378   8.470 -0.3289 -0.6725 -1.1632
  437MOL0     H58988   2.688   3.201   8.478 -2.6550 -1.7719  3.0011
  437MOL0     H58989   2.805   3.164   8.678 -2.3635  0.8423  0.9190
  437MOL0     H58990   2.863   3.335   8.679  0.3365  2.6892 -3.0617
  437MOL0     H58991   2.989   3.303   8.472  0.9518  0.2425 -0.0164
  437MOL0     H58992   2.931   3.132   8.461 -1.3901  0.2136  0.3894
  437MOL0     H58993   3.230   3.102   8.773  0.1066  1.8383  1.4253
  437MOL0     H58994   2.353   3.513   8.389 -0.1022 -0.5242  0.7237
  437MOL0     H58995   2.119   3.531   8.442  0.0553 -3.3190 -1.4511
  438MOL0     O58996   3.109   0.438   7.034 -0.1025  0.0267  0.1280
  438MOL0     C58997   3.164   0.472   6.934  0.0260 -0.1908  0.0373
  438MOL0     O58998   3.112   0.530   6.822  0.6899  0.5156 -0.1917
  438MOL0     C58999   2.980   0.523   6.792 -0.3536 -0.0230 -0.4252
  438MOL0     C59000   2.964   0.510   6.650 -0.5223 -0.2130 -0.0525
  438MOL0     C59001   2.841   0.488   6.596 -0.4129 -0.8350 -0.8004
  438MOL0     C59002   2.732   0.482   6.684  0.4122 -0.7171  0.0901
  438MOL0     O59003   2.605   0.461   6.639  0.2678 -0.6128  0.6618
  438MOL0     C59004   2.561   0.528   6.516  0.4301 -0.2467 -0.5762
  438MOL0     C59005   2.425   0.593   6.556 -0.1268  0.6270 -0.0709
  438MOL0     C59006   2.315   0.506   6.606  0.0422 -0.1668  0.6830
  438MOL0     C59007   2.189   0.588   6.627 -0.0375  0.7412 -0.0693
  438MOL0     C59008   2.066   0.491   6.654  0.3078  0.1471  0.0237
  438MOL0     C59009   2.093   0.381   6.764 -0.0199 -0.3300 -0.3311
  438MOL0     C59010   2.152   0.438   6.894 -0.4322 -0.1239 -0.5899
  438MOL0     C59011   2.155   0.316   6.999 -1.1622 -0.4692 -0.0069
  438MOL0     N59012   2.265   0.346   7.096  0.6807 -0.4679  0.9504
  438MOL0     C59013   2.393   0.295   7.098  0.5545 -0.0292  0.0069
  438MOL0     C59014   2.467   0.364   7.189 -0.7540  0.2827 -0.3602
  438MOL0     C59015   2.607   0.339   7.222  0.4294  0.7703 -0.3908
  438MOL0     C59016   2.654   0.423   7.339 -0.2755 -0.2819 -0.2878
  438MOL0     C59017   2.657   0.577   7.317  0.1136  0.1839 -0.1529
  438MOL0     C59018   2.776   0.634   7.387  0.0415 -0.8281  0.2461
  438MOL0     O59019   2.888   0.587   7.322 -0.2953 -0.2464 -0.1233
  438MOL0     C59020   3.003   0.596   7.382  0.4203  0.3130  0.6765
  438MOL0     C59021   3.055   0.710   7.436  1.3692 -0.0052  0.3636
  438MOL0     C59022   3.185   0.725   7.486  0.4151  0.8705 -0.0798
  438MOL0     C59023   3.238   0.858   7.540  0.5307 -0.4748 -0.0867
  438MOL0     C59024   3.259   0.606   7.493  0.0106 -1.0535 -0.1213
  438MOL0     C59025   3.394   0.588   7.550  0.0022  0.9986 -0.2916
  438MOL0     O59026   3.485   0.546   7.453  0.3691  0.7793 -0.1498
  438MOL0     C59027   3.615   0.554   7.485 -0.4311 -0.3819 -0.4998
  438MOL0     C59028   3.673   0.446   7.568  0.2303  0.7840  0.5592
  438MOL0     C59029   3.810   0.450   7.594 -0.0500 -0.0905  0.9825
  438MOL0     C59030   3.890   0.550   7.527  0.0208  0.7672  0.0410
  438MOL0     O59031   4.025   0.541   7.550 -0.3088 -0.3962  0.2958
  438MOL0     C59032   4.056   0.519   7.689 -0.6053  0.9245 -0.0275
  438MOL0     C59033   4.187   0.593   7.721  0.5698  0.6946  0.0490
  438MOL0     C59034   4.148   0.739   7.770 -0.1096  0.9026  0.1268
  438MOL0     C59035   4.276   0.819   7.795  0.2169  1.6652 -0.0437
  438MOL0     C59036   4.225   0.962   7.816  0.2244 -0.4975  0.3719
  438MOL0     C59037   4.342   1.045   7.854 -0.3934 -1.0614 -0.5006
  438MOL0     C59038   4.284   1.192   7.870 -1.1512 -1.3707  0.2463
  438MOL0     C59039   4.417   1.281   7.885 -0.0226  0.3450  0.3813
  438MOL0    Cl59040   4.353   1.445   7.932  0.0110  0.0663  0.0124
  438MOL0     C59041   3.841   0.652   7.448  0.5214  0.4208  0.3469
  438MOL0     C59042   3.697   0.659   7.434 -0.3071 -0.1552 -0.0332
  438MOL0     O59043   3.415   0.624   7.666 -0.1306  0.1184 -0.4610
  438MOL0     C59044   3.203   0.486   7.439  0.3234  0.5569  0.0273
  438MOL0     C59045   3.078   0.487   7.373 -0.1651  0.6530 -0.3157
  438MOL0     N59046   2.378   0.451   7.258  0.3636  0.3078  0.4542
  438MOL0     N59047   2.261   0.439   7.198  0.1440 -0.5066  0.1599
  438MOL0     C59048   2.744   0.486   6.822 -0.1791 -0.4386  0.5863
  438MOL0     C59049   2.868   0.514   6.881 -0.7299  0.9264  0.3477
  438MOL0     C59050   3.310   0.444   6.930  0.0017  0.4659  0.1889
  438MOL0     C59051   3.369   0.379   7.045 -0.0637 -0.4587 -0.4268
  438MOL0     C59052   3.509   0.376   7.043  0.1602 -0.1533 -0.1612
  438MOL0     C59053   3.586   0.432   6.938  0.1629 -0.2014 -0.1234
  438MOL0     O59054   3.719   0.459   6.938  0.2375 -0.7054 -0.3093
  438MOL0     C59055   3.794   0.445   7.055  0.5070  0.1430  0.7113
  438MOL0     C59056   3.931   0.515   7.049  0.1211  0.1409 -1.1609
  438MOL0     C59057   4.022   0.433   7.146 -0.2552  0.3457 -0.0542
  438MOL0     C59058   4.141   0.516   7.191 -0.3320  0.0897 -0.0840
  438MOL0     C59059   4.231   0.543   7.077  0.3631 -0.1424 -0.0106
  438MOL0     C59060   4.304   0.562   6.980 -1.1918  0.3700 -0.3434
  438MOL0     C59061   3.517   0.483   6.828 -0.2011 -1.1108  0.0273
  438MOL0     C59062   3.380   0.484   6.822  1.1566 -0.3317 -0.6413
  438MOL0     H59063   3.053   0.510   6.586  0.4106  0.0665  1.2081
  438MOL0     H59064   2.836   0.457   6.492 -1.2377 -0.3659 -0.9092
  438MOL0     H59065   2.629   0.607   6.485  0.1263  0.7009  1.0455
  438MOL0     H59066   2.539   0.449   6.443 -2.5792  0.5317 -0.6449
  438MOL0     H59067   2.451   0.665   6.634  1.1319 -0.4823  0.5611
  438MOL0     H59068   2.389   0.660   6.477  0.7979  0.6775 -0.4716
  438MOL0     H59069   2.291   0.424   6.537 -2.8668  0.9404  0.2208
  438MOL0     H59070   2.352   0.452   6.693 -2.1849 -4.3966 -0.7057
  438MOL0     H59071   2.213   0.649   6.716  0.2377  1.3514 -0.5549
  438MOL0     H59072   2.165   0.655   6.545  0.7693  2.3325  0.9287
  438MOL0     H59073   1.979   0.552   6.680  1.4630  0.7510  2.9126
  438MOL0     H59074   2.037   0.438   6.563  0.0342  0.6271 -0.1696
  438MOL0     H59075   1.993   0.348   6.792 -0.5077  2.6441  1.7866
  438MOL0     H59076   2.137   0.291   6.719  1.4266  1.7870 -3.5058
  438MOL0     H59077   2.254   0.472   6.876 -0.7781  0.1145 -2.2776
  438MOL0     H59078   2.092   0.519   6.937  1.2061  0.4897  0.6545
  438MOL0     H59079   2.182   0.227   6.942  2.0682  0.0664  0.4677
  438MOL0     H59080   2.062   0.293   7.051 -1.9443  1.9708 -0.2299
  438MOL0     H59081   2.432   0.205   7.053 -1.6978 -1.7647  1.3443
  438MOL0     H59082   2.605   0.236   7.260 -1.5496  1.3564  1.2919
  438MOL0     H59083   2.672   0.343   7.134 -0.1153 -2.1535 -1.0090
  438MOL0     H59084   2.754   0.393   7.372 -0.4085 -0.1941  0.2008
  438MOL0     H59085   2.598   0.405   7.431 -0.5069 -0.4893 -0.4682
  438MOL0     H59086   2.565   0.630   7.344  1.1780  1.3548  1.3816
  438MOL0     H59087   2.674   0.594   7.211  1.8796 -0.9877 -0.0970
  438MOL0     H59088   2.773   0.618   7.496 -0.2486  2.0998  0.7487
  438MOL0     H59089   2.782   0.743   7.378  0.7001 -0.9459 -0.9669
  438MOL0     H59090   2.982   0.791   7.446  1.2669 -0.0883  0.2873
  438MOL0     H59091   3.155   0.927   7.560  0.3236 -0.7458  0.0149
  438MOL0     H59092   3.281   0.843   7.639  1.2534 -1.4180 -0.5266
  438MOL0     H59093   3.313   0.898   7.472  1.5286  2.5589  2.6017
  438MOL0     H59094   3.609   0.368   7.609  0.8366  0.1267  0.2710
  438MOL0     H59095   3.861   0.375   7.653  0.7287  1.0059  1.7532
  438MOL0     H59096   3.974   0.535   7.759 -0.9801  0.7773 -0.4286
  438MOL0     H59097   4.072   0.411   7.690  2.0298  1.2276  1.3782
  438MOL0     H59098   4.241   0.539   7.799 -0.4971 -1.8657 -0.8752
  438MOL0     H59099   4.249   0.591   7.631  0.4872 -1.7498 -0.0324
  438MOL0     H59100   4.089   0.746   7.862 -0.5287  2.0409 -0.2067
  438MOL0     H59101   4.081   0.792   7.702  0.9936 -0.1284 -1.8429
  438MOL0     H59102   4.329   0.778   7.881 -2.4264  0.8100  1.2995
  438MOL0     H59103   4.341   0.823   7.707 -1.0744 -0.4143 -1.1766
  438MOL0     H59104   4.145   0.962   7.890 -0.2471 -0.5155 -0.1290
  438MOL0     H59105   4.189   0.999   7.719  1.4674 -1.2906 -0.4222
  438MOL0     H59106   4.375   1.010   7.952 -0.8426  0.5994  0.2863
  438MOL0     H59107   4.422   1.040   7.779 -1.2925 -0.5056 -1.5343
  438MOL0     H59108   4.222   1.190   7.960 -1.1453 -3.1102  0.2444
  438MOL0     H59109   4.227   1.222   7.782 -2.4022 -1.1485  1.1103
  438MOL0     H59110   4.479   1.277   7.795 -0.5745 -0.8082  0.0377
  438MOL0     H59111   4.470   1.239   7.971 -1.0037 -0.4052  0.6372
  438MOL0     H59112   3.899   0.738   7.416  2.0755 -0.7098 -0.0349
  438MOL0     H59113   3.645   0.746   7.395 -0.7277 -1.2304 -2.0494
  438MOL0     H59114   3.249   0.388   7.445 -0.0073  0.4344  0.6396
  438MOL0     H59115   3.036   0.400   7.323  0.3787  1.1391 -1.6654
  438MOL0     H59116   2.662   0.480   6.893 -0.9460 -0.5892 -0.2994
  438MOL0     H59117   2.873   0.500   6.988 -3.9094  1.0613  0.6291
  438MOL0     H59118   3.313   0.339   7.128 -0.9539 -2.1786 -1.7870
  438MOL0     H59119   3.557   0.339   7.134 -0.8474  1.9720  1.3096
  438MOL0     H59120   3.733   0.483   7.138  0.6462 -0.8438  1.2710
  438MOL0     H59121   3.804   0.337   7.067 -2.0894 -0.0585  1.7411
  438MOL0     H59122   3.914   0.614   7.094 -2.5917 -1.2319  1.1694
  438MOL0     H59123   3.963   0.523   6.945 -0.8586  0.8509 -1.4201
  438MOL0     H59124   4.054   0.339   7.101 -1.4550  0.1432 -0.5348
  438MOL0     H59125   3.970   0.413   7.240  2.3980  2.3936  2.0012
  438MOL0     H59126   4.195   0.468   7.273 -0.0463  0.5204 -0.0218
  438MOL0     H59127   4.113   0.614   7.229 -0.7598  0.0227 -0.2185
  438MOL0     H59128   4.368   0.576   6.896  2.5649  4.6500  2.7542
  438MOL0     H59129   3.575   0.540   6.756 -2.2473 -1.0687 -1.6801
  438MOL0     H59130   3.342   0.526   6.729  2.2017 -1.7784 -1.7655
  439MOL0     O59131   8.554   6.459   4.508  0.4557  0.4535  0.6422
  439MOL0     C59132   8.614   6.514   4.606  1.0662 -0.4906 -0.3904
  439MOL0     O59133   8.552   6.583   4.712  0.4338  0.3383 -0.7726
  439MOL0     C59134   8.415   6.581   4.719  0.4814 -0.6490  0.9188
  439MOL0     C59135   8.336   6.642   4.628  0.5997 -0.1835  0.3574
  439MOL0     C59136   8.205   6.654   4.654  0.9140  0.4207 -0.4305
  439MOL0     C59137   8.147   6.606   4.773  0.0733 -0.0377  0.1728
  439MOL0     O59138   8.015   6.636   4.797 -0.1043  0.4364 -0.4374
  439MOL0     C59139   7.984   6.641   4.935  0.6393 -0.7667  0.4280
  439MOL0     C59140   7.834   6.694   4.952  0.5234  0.3863  0.1750
  439MOL0     C59141   7.721   6.593   4.907  0.4081  0.9191  0.0104
  439MOL0     C59142   7.585   6.638   4.947 -0.3905 -0.1811  0.6768
  439MOL0     C59143   7.470   6.541   4.928  0.7042 -0.2668  0.4009
  439MOL0     C59144   7.333   6.612   4.959 -0.4755 -0.6243  0.5103
  439MOL0     C59145   7.222   6.529   4.907  0.3618  0.3049  0.0722
  439MOL0     C59146   7.170   6.414   5.002  0.4744 -0.0673 -0.4634
  439MOL0     N59147   7.058   6.441   5.100 -0.1619 -0.1635 -0.8032
  439MOL0     C59148   6.942   6.502   5.067 -0.4737 -0.5333  1.2629
  439MOL0     C59149   6.887   6.539   5.185 -0.3497  0.2566 -0.0084
  439MOL0     C59150   6.750   6.597   5.199  0.2731  0.3425 -0.1588
  439MOL0     C59151   6.647   6.485   5.217  0.3655  0.3605 -0.4812
  439MOL0     C59152   6.500   6.513   5.171  0.0051  0.0897 -0.4226
  439MOL0     C59153   6.409   6.402   5.222  0.4569  0.0113  0.3009
  439MOL0     O59154   6.281   6.425   5.145 -0.4668  1.0543 -0.3423
  439MOL0     C59155   6.185   6.347   5.206 -0.0667 -0.4650  0.2842
  439MOL0     C59156   6.072   6.418   5.238 -0.4161  0.4231 -0.4059
  439MOL0     C59157   5.950   6.351   5.289  0.1856  0.2767  1.1715
  439MOL0     C59158   5.852   6.436   5.353  0.2337 -0.2914  0.1143
  439MOL0     C59159   5.938   6.212   5.281  0.3839 -0.6848 -0.1135
  439MOL0     C59160   5.808   6.141   5.292 -0.0692 -0.0791 -0.4965
  439MOL0     O59161   5.801   6.008   5.339 -0.3945 -0.5213 -0.6523
  439MOL0     C59162   5.680   5.958   5.362  0.2245  0.5953 -0.1432
  439MOL0     C59163   5.595   5.991   5.466  0.2162 -0.5515  0.8292
  439MOL0     C59164   5.468   5.934   5.485 -0.0906 -0.4182 -0.1219
  439MOL0     C59165   5.424   5.838   5.400  0.4284 -0.3604 -0.0478
  439MOL0     O59166   5.298   5.787   5.422  0.4567 -0.4712 -0.5981
  439MOL0     C59167   5.217   5.762   5.303 -0.4588 -0.0620  0.1350
  439MOL0     C59168   5.061   5.784   5.334  0.5298  0.1949 -0.2279
  439MOL0     C59169   4.965   5.767   5.219 -0.0932 -0.2959  0.5126
  439MOL0     C59170   4.824   5.758   5.277  0.0871 -0.8809 -0.1638
  439MOL0     C59171   4.727   5.729   5.162 -0.9376 -0.5660 -0.4517
  439MOL0     C59172   4.591   5.723   5.227  0.0008  0.5639  0.0307
  439MOL0     C59173   4.498   5.699   5.110  0.6020  0.1490 -0.3474
  439MOL0     C59174   4.349   5.680   5.148  0.0317  0.5396  0.2461
  439MOL0    Cl59175   4.332   5.509   5.201 -0.6967 -0.0984 -0.1483
  439MOL0     C59176   5.502   5.806   5.286 -0.1086 -0.1078  0.0842
  439MOL0     C59177   5.630   5.862   5.273 -0.2692 -0.2116  0.1786
  439MOL0     O59178   5.704   6.206   5.259  0.5903 -0.2059 -0.0479
  439MOL0     C59179   6.058   6.147   5.269 -1.3817  0.2963  0.5506
  439MOL0     C59180   6.186   6.209   5.236  1.6740 -0.5555 -0.7171
  439MOL0     N59181   6.963   6.482   5.290 -1.1661  0.0624  0.3378
  439MOL0     N59182   7.072   6.433   5.240 -0.4891 -0.2533 -0.8972
  439MOL0     C59183   8.228   6.529   4.859 -0.1638  0.3735  0.3021
  439MOL0     C59184   8.363   6.525   4.830 -0.9153  0.0448 -0.1964
  439MOL0     C59185   8.764   6.498   4.608  0.0261  0.2496  0.4932
  439MOL0     C59186   8.837   6.533   4.722  0.6488  0.4964 -0.3114
  439MOL0     C59187   8.976   6.553   4.713  0.0946  0.2656 -0.3386
  439MOL0     C59188   9.041   6.529   4.595  0.1611 -0.0391  1.2195
  439MOL0     O59189   9.179   6.520   4.609 -0.3734 -0.4615 -1.1078
  439MOL0     C59190   9.270   6.528   4.490 -0.0679 -0.1089 -0.6560
  439MOL0     C59191   9.310   6.377   4.460  0.0312 -0.8289 -0.1331
  439MOL0     C59192   9.378   6.306   4.579  0.5191 -0.0906 -0.3108
  439MOL0     C59193   9.524   6.363   4.598  0.3272  0.3149  0.1880
  439MOL0     C59194   9.537   6.452   4.711 -0.1933  0.0555 -0.4270
  439MOL0     C59195   9.549   6.538   4.797 -0.7277  0.3250 -0.4829
  439MOL0     C59196   8.974   6.471   4.488  0.6895 -0.3084  1.0417
  439MOL0     C59197   8.836   6.458   4.495 -0.9061 -0.1550  0.4131
  439MOL0     H59198   8.368   6.689   4.535  3.2732  0.6729  1.5973
  439MOL0     H59199   8.129   6.704   4.594 -0.4597  0.9948  1.7017
  439MOL0     H59200   7.989   6.541   4.978  0.0100 -0.9599  0.0586
  439MOL0     H59201   8.042   6.712   4.995 -0.8812  0.3239  0.6677
  439MOL0     H59202   7.811   6.710   5.058  1.7942  1.1907  0.3490
  439MOL0     H59203   7.837   6.783   4.889 -0.6372 -1.2441 -2.3971
  439MOL0     H59204   7.726   6.561   4.802  2.4535 -0.1234  0.3743
  439MOL0     H59205   7.741   6.499   4.958  1.7817  0.9708 -0.3945
  439MOL0     H59206   7.587   6.673   5.051 -1.4356 -0.9987  0.9839
  439MOL0     H59207   7.563   6.731   4.893 -1.0873  1.7603  3.9800
  439MOL0     H59208   7.461   6.496   4.828  1.4309 -0.8760  0.5978
  439MOL0     H59209   7.484   6.458   4.998 -2.0628  0.4215  1.8874
  439MOL0     H59210   7.314   6.628   5.065 -0.3094 -0.2834  0.4879
  439MOL0     H59211   7.329   6.707   4.905  0.3922 -0.3479  0.9280
  439MOL0     H59212   7.139   6.594   4.877 -0.1562 -0.6011 -0.5209
  439MOL0     H59213   7.234   6.487   4.806 -2.2720  1.9874 -1.0578
  439MOL0     H59214   7.261   6.397   5.061  0.1488 -2.1478 -0.4761
  439MOL0     H59215   7.144   6.329   4.938  2.8500 -1.7524  0.6236
  439MOL0     H59216   6.902   6.526   4.969  2.3849  1.6215  0.4545
  439MOL0     H59217   6.748   6.677   5.273 -0.0024  1.1585 -1.0275
  439MOL0     H59218   6.735   6.643   5.101 -1.3671  0.5739  0.1724
  439MOL0     H59219   6.647   6.465   5.324 -0.9315  0.4795 -0.4451
  439MOL0     H59220   6.689   6.402   5.160  1.5943 -1.2759  2.5887
  439MOL0     H59221   6.497   6.510   5.061  1.0826 -0.4923 -0.4452
  439MOL0     H59222   6.470   6.608   5.215  1.4916  0.3051  0.1719
  439MOL0     H59223   6.404   6.404   5.331 -2.0247  2.9826  0.2547
  439MOL0     H59224   6.435   6.299   5.198 -0.9921 -0.6716  1.4941
  439MOL0     H59225   6.077   6.526   5.229 -2.0263  0.5298 -0.3228
  439MOL0     H59226   5.770   6.470   5.290  0.2262  0.2308  0.4051
  439MOL0     H59227   5.804   6.384   5.436 -0.9023 -0.7957 -0.8325
  439MOL0     H59228   5.905   6.526   5.386  0.2956 -0.3079  0.0626
  439MOL0     H59229   5.620   6.075   5.530 -2.2601 -0.1641  1.3786
  439MOL0     H59230   5.398   5.975   5.557 -2.0719 -1.9545 -1.0796
  439MOL0     H59231   5.236   5.842   5.231 -2.6160  0.4368  0.0324
  439MOL0     H59232   5.233   5.663   5.261  1.2873  0.3086 -0.1384
  439MOL0     H59233   5.034   5.732   5.427  0.1850  0.8681  0.0565
  439MOL0     H59234   5.064   5.888   5.368  0.6375 -0.5034  2.0638
  439MOL0     H59235   5.000   5.688   5.152  0.0457  0.8960 -0.8866
  439MOL0     H59236   4.982   5.855   5.156  0.0015 -0.0323  0.9026
  439MOL0     H59237   4.822   5.680   5.353  1.3267 -0.7734  0.0035
  439MOL0     H59238   4.793   5.852   5.324  2.5701  1.5152 -2.9040
  439MOL0     H59239   4.755   5.635   5.114 -0.1867 -0.6153  0.0659
  439MOL0     H59240   4.735   5.809   5.088  0.8739  0.9348  1.2429
  439MOL0     H59241   4.598   5.640   5.297  1.0235 -0.6547 -1.4430
  439MOL0     H59242   4.562   5.815   5.279 -2.9496 -0.1674 -0.1029
  439MOL0     H59243   4.537   5.615   5.051  2.7172  0.9973 -0.2204
  439MOL0     H59244   4.498   5.788   5.047 -2.0181  0.8630  0.5449
  439MOL0     H59245   4.279   5.696   5.066 -1.3293  2.7443  1.7446
  439MOL0     H59246   4.322   5.750   5.228 -1.6300  2.2024 -1.6686
  439MOL0     H59247   5.468   5.734   5.213  1.4976 -0.8650  0.0403
  439MOL0     H59248   5.697   5.839   5.191  0.9698 -1.5529  1.5100
  439MOL0     H59249   6.057   6.039   5.285 -0.8196  0.1058 -0.5841
  439MOL0     H59250   6.276   6.152   5.214  2.0355 -0.6786  0.9069
  439MOL0     H59251   8.203   6.496   4.959  2.7448  2.6564  1.9207
  439MOL0     H59252   8.435   6.476   4.895  0.9437 -1.9839 -3.4553
  439MOL0     H59253   8.796   6.552   4.821  0.2125 -0.3472 -0.3190
  439MOL0     H59254   9.031   6.579   4.803 -0.7739 -0.6473  0.4818
  439MOL0     H59255   9.228   6.572   4.400  0.1932  0.5087 -0.4764
  439MOL0     H59256   9.361   6.582   4.515 -1.0085  1.5347 -0.6642
  439MOL0     H59257   9.369   6.388   4.368  0.7405 -1.4605  0.2374
  439MOL0     H59258   9.224   6.314   4.438 -0.8801 -0.2203  1.5311
  439MOL0     H59259   9.390   6.200   4.555  2.9369  0.1864 -0.6439
  439MOL0     H59260   9.321   6.312   4.672  1.5749  2.2979  0.2590
  439MOL0     H59261   9.562   6.410   4.507 -0.2139 -0.2122 -0.3219
  439MOL0     H59262   9.590   6.276   4.602  2.0004  1.3053 -2.7653
  439MOL0     H59263   9.554   6.609   4.877 -1.8342 -0.1326  0.0189
  439MOL0     H59264   9.039   6.445   4.405  0.6145 -1.7791  1.4182
  439MOL0     H59265   8.786   6.412   4.410 -2.0138  0.7264  0.5524
  440MOL0     O59266   7.595   5.911   7.398  0.3391 -0.5861 -0.1009
  440MOL0     C59267   7.614   5.796   7.381  0.1213  0.3803  0.8048
  440MOL0     O59268   7.527   5.698   7.355  0.2607  0.1776  0.5826
  440MOL0     C59269   7.396   5.720   7.381  0.2641  0.8205 -0.3536
  440MOL0     C59270   7.340   5.807   7.480  0.6631  0.1978  0.1635
  440MOL0     C59271   7.202   5.804   7.496 -0.7351 -0.3987 -0.0176
  440MOL0     C59272   7.118   5.708   7.433  1.2033  0.0714 -0.2833
  440MOL0     O59273   6.985   5.682   7.461 -0.1290  0.2706  0.2032
  440MOL0     C59274   6.912   5.800   7.405 -0.2086  0.4024  0.1435
  440MOL0     C59275   6.762   5.755   7.402  0.1771  0.0059 -0.0466
  440MOL0     C59276   6.662   5.872   7.365 -0.8164 -0.6310 -0.1877
  440MOL0     C59277   6.645   5.972   7.477 -0.1504  0.7150  1.4109
  440MOL0     C59278   6.544   6.087   7.435 -0.4402  0.0486  1.0555
  440MOL0     C59279   6.616   6.183   7.341 -0.1517  0.6956  0.2867
  440MOL0     C59280   6.536   6.315   7.305 -0.4596 -0.7403 -1.2636
  440MOL0     C59281   6.627   6.425   7.233  0.2957  0.4826 -0.2990
  440MOL0     N59282   6.555   6.539   7.174 -0.0380  0.4497 -0.2279
  440MOL0     C59283   6.493   6.554   7.050  0.0665  0.5435 -0.1775
  440MOL0     C59284   6.431   6.672   7.063 -0.6525 -1.5334  0.3248
  440MOL0     C59285   6.330   6.726   6.964 -0.0043  0.2812  0.3938
  440MOL0     C59286   6.213   6.624   6.958  0.2473  0.8864  0.7280
  440MOL0     C59287   6.089   6.700   6.916 -0.4548 -0.3388 -0.1201
  440MOL0     C59288   5.951   6.644   6.948  0.0359 -0.1371 -0.2273
  440MOL0     O59289   5.959   6.502   6.933 -0.0774  0.1436  0.8521
  440MOL0     C59290   5.845   6.433   6.965 -0.0787 -0.6495  1.8434
  440MOL0     C59291   5.738   6.447   6.875 -0.4645  0.7396  0.5944
  440MOL0     C59292   5.618   6.379   6.893  0.0105  0.2482 -0.0469
  440MOL0     C59293   5.519   6.395   6.779  0.0124 -0.3822 -0.2826
  440MOL0     C59294   5.597   6.301   7.007  1.2969 -0.4314 -0.3353
  440MOL0     C59295   5.469   6.237   7.045 -0.6436 -0.2742  0.0166
  440MOL0     O59296   5.387   6.189   6.947 -0.2831 -0.6318 -0.6842
  440MOL0     C59297   5.263   6.144   6.970 -0.4534  0.5812  0.0347
  440MOL0     C59298   5.159   6.185   6.890  0.0133  0.2945 -0.0386
  440MOL0     C59299   5.020   6.146   6.904 -0.5206  0.2475 -0.7919
  440MOL0     C59300   4.998   6.045   7.003  0.7662 -0.2066  0.6885
  440MOL0     O59301   4.868   5.995   7.024 -0.9208  0.7467 -0.3828
  440MOL0     C59302   4.757   6.078   7.039 -0.2875 -0.0367  0.3383
  440MOL0     C59303   4.769   6.138   7.175  1.0409 -0.6605 -0.4981
  440MOL0     C59304   4.642   6.221   7.199  0.3900 -0.1133 -0.0172
  440MOL0     C59305   4.637   6.282   7.339 -0.4483  0.2516 -0.7747
  440MOL0     C59306   4.498   6.341   7.361  0.8702 -0.4650  1.1120
  440MOL0     C59307   4.486   6.481   7.304 -0.5647 -0.1475 -0.2960
  440MOL0     C59308   4.379   6.579   7.358 -0.8378 -0.5549  0.0310
  440MOL0     C59309   4.402   6.723   7.312  0.0089 -0.5257  0.2882
  440MOL0    Cl59310   4.558   6.794   7.357  0.3463 -0.4563  0.0617
  440MOL0     C59311   5.103   6.001   7.089 -0.4218 -1.6791  0.0935
  440MOL0     C59312   5.240   6.048   7.070  0.1675 -0.0890  0.7208
  440MOL0     O59313   5.439   6.238   7.167 -0.8067  0.1414 -0.3128
  440MOL0     C59314   5.706   6.293   7.103 -0.1878  0.4302 -0.0929
  440MOL0     C59315   5.828   6.359   7.077 -0.3040 -0.2057  0.6095
  440MOL0     N59316   6.484   6.735   7.179 -0.8600 -0.4861 -0.0973
  440MOL0     N59317   6.547   6.654   7.243  0.0226  0.2261  0.3942
  440MOL0     C59318   7.175   5.625   7.339  0.8675  0.3844  0.0996
  440MOL0     C59319   7.307   5.641   7.313  0.0782  1.1907  1.1530
  440MOL0     C59320   7.764   5.757   7.396 -0.4355  0.1525  0.7028
  440MOL0     C59321   7.802   5.624   7.376 -1.1171  0.1735  0.1987
  440MOL0     C59322   7.934   5.587   7.408 -0.4105  0.0594  0.3101
  440MOL0     C59323   8.030   5.675   7.450 -0.2831 -1.0088  0.6234
  440MOL0     O59324   8.152   5.626   7.477  0.0785 -0.6313 -0.0232
  440MOL0     C59325   8.248   5.670   7.372  0.4458 -0.0246 -1.2485
  440MOL0     C59326   8.344   5.565   7.368 -0.0101  0.9471  0.6323
  440MOL0     C59327   8.447   5.594   7.260  0.4954  0.4442  0.1355
  440MOL0     C59328   8.591   5.554   7.297 -0.0713  0.9936  0.0145
  440MOL0     C59329   8.675   5.575   7.179 -0.2285 -0.7987 -0.4303
  440MOL0     C59330   8.758   5.588   7.088 -0.5827  0.4681 -0.0337
  440MOL0     C59331   7.989   5.811   7.466  0.1885  0.4607 -0.4994
  440MOL0     C59332   7.858   5.852   7.440 -0.0082 -0.3531 -0.0160
  440MOL0     H59333   7.384   5.872   7.555  0.5155  1.1658 -0.5826
  440MOL0     H59334   7.162   5.879   7.563 -1.0711 -1.6420  1.2404
  440MOL0     H59335   6.931   5.894   7.458  2.3399  2.1184 -3.3506
  440MOL0     H59336   6.931   5.821   7.299 -1.1032  1.3123  0.1530
  440MOL0     H59337   6.752   5.670   7.333  0.4222 -0.2610  0.2441
  440MOL0     H59338   6.726   5.698   7.488 -1.0663 -2.3780 -2.0091
  440MOL0     H59339   6.695   5.917   7.272  1.2949  1.1367  1.3153
  440MOL0     H59340   6.560   5.837   7.345 -3.0417  2.3002  4.3020
  440MOL0     H59341   6.612   5.927   7.572  0.4429 -1.3570  0.6923
  440MOL0     H59342   6.746   6.010   7.490  0.4623  1.3021 -3.3313
  440MOL0     H59343   6.456   6.044   7.386  0.2710  0.4669 -0.6602
  440MOL0     H59344   6.505   6.148   7.518 -4.4536  0.4052 -0.8430
  440MOL0     H59345   6.705   6.210   7.398 -1.6906  0.7135  2.8412
  440MOL0     H59346   6.641   6.132   7.248 -1.8548  0.5782 -0.1340
  440MOL0     H59347   6.445   6.297   7.247 -2.5872  1.4920  1.1671
  440MOL0     H59348   6.496   6.363   7.394 -1.4242 -1.2475 -1.4119
  440MOL0     H59349   6.691   6.377   7.158 -1.3688  1.6702 -2.6410
  440MOL0     H59350   6.696   6.465   7.308  1.2163 -0.9453 -0.3629
  440MOL0     H59351   6.481   6.476   6.975  1.4694 -0.9247  1.0410
  440MOL0     H59352   6.299   6.827   6.994 -1.7562 -0.4259  1.1121
  440MOL0     H59353   6.382   6.723   6.868  0.0010  0.7087  0.3781
  440MOL0     H59354   6.186   6.593   7.059 -0.6754  1.4189  0.6493
  440MOL0     H59355   6.240   6.548   6.883  0.0084  2.5816 -1.1557
  440MOL0     H59356   6.091   6.722   6.809  1.0769  1.6792  0.2567
  440MOL0     H59357   6.083   6.800   6.962 -2.6038 -1.5543  2.5617
  440MOL0     H59358   5.870   6.693   6.892 -0.6991 -1.5694 -0.4674
  440MOL0     H59359   5.928   6.658   7.054 -3.7252  2.2282 -1.1346
  440MOL0     H59360   5.749   6.500   6.781 -2.9073 -1.3514 -1.0107
  440MOL0     H59361   5.552   6.465   6.701  0.1439 -0.3044 -0.1582
  440MOL0     H59362   5.487   6.301   6.734 -1.8229  1.0408 -2.1751
  440MOL0     H59363   5.429   6.444   6.818  0.1842  0.3231 -0.7391
  440MOL0     H59364   5.183   6.265   6.820  1.1491  1.4076  1.5629
  440MOL0     H59365   4.938   6.166   6.836 -0.6374  1.3487 -0.3360
  440MOL0     H59366   4.751   6.153   6.960  1.2131 -0.7632 -0.5138
  440MOL0     H59367   4.662   6.025   7.030 -1.9071  2.7027 -0.0163
  440MOL0     H59368   4.776   6.067   7.258 -3.5934 -0.2294  0.5917
  440MOL0     H59369   4.852   6.208   7.177  0.6988 -0.2554  0.2962
  440MOL0     H59370   4.556   6.154   7.187  0.4315 -0.2072  0.2073
  440MOL0     H59371   4.623   6.298   7.124 -2.5758 -0.0328  0.7189
  440MOL0     H59372   4.642   6.203   7.414 -3.5319  2.0206  1.5172
  440MOL0     H59373   4.720   6.351   7.355  2.4033 -2.7764 -1.2272
  440MOL0     H59374   4.472   6.347   7.467 -1.0292 -0.8364  0.6960
  440MOL0     H59375   4.419   6.281   7.316  1.0009 -1.4730  2.1508
  440MOL0     H59376   4.583   6.532   7.309  0.2643 -1.6881 -0.0441
  440MOL0     H59377   4.469   6.473   7.197  3.1360 -0.2660 -1.0027
  440MOL0     H59378   4.374   6.585   7.467 -2.4569  0.5450 -0.0599
  440MOL0     H59379   4.280   6.548   7.322 -0.3509  0.4556 -2.3759
  440MOL0     H59380   4.330   6.786   7.366  0.2372  0.1640 -0.1943
  440MOL0     H59381   4.388   6.735   7.205  0.7016  2.0830  0.4131
  440MOL0     H59382   5.084   5.930   7.168  0.7442 -0.7011  1.2982
  440MOL0     H59383   5.306   5.988   7.132  0.8712 -1.6037 -1.3606
  440MOL0     H59384   5.698   6.234   7.194  0.0605  0.6447  0.0704
  440MOL0     H59385   5.914   6.341   7.140  1.0052 -1.8249 -1.5124
  440MOL0     H59386   7.124   5.545   7.287 -1.4897  2.0643 -0.3583
  440MOL0     H59387   7.348   5.570   7.242 -0.0315  2.9727 -0.7777
  440MOL0     H59388   7.729   5.557   7.332  1.2963 -1.3462 -1.7410
  440MOL0     H59389   7.957   5.481   7.402 -1.0660 -0.2543  2.6472
  440MOL0     H59390   8.187   5.682   7.282 -3.6619  2.8899  1.5430
  440MOL0     H59391   8.295   5.762   7.407 -0.2466 -1.4667  4.5678
  440MOL0     H59392   8.293   5.474   7.339 -1.4464  1.4535  1.4753
  440MOL0     H59393   8.385   5.543   7.467 -4.7459 -2.3837  2.1776
  440MOL0     H59394   8.438   5.697   7.226 -0.7331 -0.2988 -2.0155
  440MOL0     H59395   8.426   5.530   7.173  1.1334  0.1738  0.1697
  440MOL0     H59396   8.593   5.447   7.323 -0.6143  0.8332 -0.5711
  440MOL0     H59397   8.628   5.614   7.380 -0.2093  0.5773  0.3846
  440MOL0     H59398   8.833   5.583   7.012  2.0552 -1.5949  2.5063
  440MOL0     H59399   8.056   5.888   7.501  1.1631  0.1299 -1.5559
  440MOL0     H59400   7.837   5.958   7.451  0.5119 -0.2537  0.0406
  441MOL0     O59401  10.868   5.811   8.809 -0.1011  0.3541  0.0360
  441MOL0     C59402  10.929   5.813   8.917 -0.6255  0.0889 -0.5354
  441MOL0     O59403  10.867   5.793   9.039 -0.2294  0.3267 -0.3457
  441MOL0     C59404  10.735   5.775   9.040  0.2277 -0.2676 -0.0422
  441MOL0     C59405  10.656   5.857   9.126  0.4770  0.7313  0.3017
  441MOL0     C59406  10.514   5.830   9.141  0.3364 -0.6111 -0.2484
  441MOL0     C59407  10.455   5.724   9.072 -0.3892 -0.0158 -0.0280
  441MOL0     O59408  10.324   5.725   9.103 -0.0546  0.5309 -0.0635
  441MOL0     C59409  10.230   5.677   9.008 -0.1167  0.3300 -0.2481
  441MOL0     C59410  10.094   5.719   9.067  0.2350 -0.6495  0.1767
  441MOL0     C59411   9.990   5.652   8.977  0.0157  0.5348 -0.0290
  441MOL0     C59412   9.848   5.655   9.036  0.2599 -0.4742  0.1653
  441MOL0     C59413   9.751   5.578   8.945  0.3352 -0.0006  0.0138
  441MOL0     C59414   9.603   5.552   8.998  0.5134 -0.8279 -0.0579
  441MOL0     C59415   9.522   5.685   9.022 -0.0014 -0.7007  1.1896
  441MOL0     C59416   9.490   5.771   8.887 -0.4732 -0.1334 -1.0383
  441MOL0     N59417   9.401   5.889   8.901  0.2043  0.4970  0.0408
  441MOL0     C59418   9.305   5.894   9.000 -0.1600 -0.5155 -0.7276
  441MOL0     C59419   9.250   6.013   8.977 -0.0056 -0.1192  0.3918
  441MOL0     C59420   9.129   6.078   9.034  0.4441  0.3185  0.2967
  441MOL0     C59421   9.017   5.977   9.036  0.8339  0.5951  0.5817
  441MOL0     C59422   8.885   6.026   9.098  0.1057 -0.4503 -0.3436
  441MOL0     C59423   8.772   5.925   9.079 -0.4635  0.3336 -0.5739
  441MOL0     O59424   8.789   5.821   9.174  0.4739  1.1586  0.1011
  441MOL0     C59425   8.710   5.711   9.175  1.0627  0.5175 -0.0815
  441MOL0     C59426   8.700   5.622   9.279 -0.3706 -0.1798 -0.2008
  441MOL0     C59427   8.616   5.505   9.278  0.1140 -0.2350  1.0192
  441MOL0     C59428   8.629   5.399   9.386 -0.1011  0.4185  0.3341
  441MOL0     C59429   8.524   5.494   9.175  0.7377 -0.3927 -0.2633
  441MOL0     C59430   8.419   5.387   9.166 -0.3915 -0.3364 -0.4514
  441MOL0     O59431   8.309   5.416   9.103 -0.0382  0.7841  0.1997
  441MOL0     C59432   8.208   5.327   9.090 -0.2063 -0.1971 -0.0262
  441MOL0     C59433   8.166   5.239   9.178  0.1458  0.3789 -0.2806
  441MOL0     C59434   8.051   5.165   9.167  0.3428 -0.0101  0.2072
  441MOL0     C59435   7.973   5.170   9.051 -0.7856  0.2195  0.6642
  441MOL0     O59436   7.860   5.095   9.031 -0.3493  0.3737 -0.0487
  441MOL0     C59437   7.877   4.956   9.045  0.0012  0.1391  0.7138
  441MOL0     C59438   7.744   4.878   9.066 -1.3248 -0.6063  0.0839
  441MOL0     C59439   7.652   4.899   8.941 -0.0652  0.4125 -0.2480
  441MOL0     C59440   7.515   4.843   8.953 -0.5100  0.5122  0.5936
  441MOL0     C59441   7.438   4.850   8.822 -0.8365 -0.0428  0.3747
  441MOL0     C59442   7.302   4.784   8.834  0.6828  0.4934  0.4998
  441MOL0     C59443   7.225   4.784   8.695 -0.0118 -0.3783 -0.5531
  441MOL0     C59444   7.108   4.683   8.707  0.0238 -0.1699 -0.7574
  441MOL0    Cl59445   7.032   4.636   8.546  0.1563  0.1821  0.4235
  441MOL0     C59446   8.006   5.272   8.957 -0.0417 -1.0404 -0.0527
  441MOL0     C59447   8.127   5.346   8.981  0.1273  0.0897  0.9921
  441MOL0     O59448   8.444   5.275   9.216  0.1794  0.3730 -0.2595
  441MOL0     C59449   8.536   5.581   9.063 -1.5434  0.3782  0.0792
  441MOL0     C59450   8.629   5.684   9.061  0.4456  0.3147 -0.3512
  441MOL0     N59451   9.299   6.063   8.862 -0.2447  0.2738  0.3189
  441MOL0     N59452   9.389   5.991   8.815 -0.6131 -0.5204  1.0280
  441MOL0     C59453  10.524   5.650   8.974  0.1122 -0.4306 -0.4308
  441MOL0     C59454  10.662   5.684   8.963  0.1645 -0.0483  0.4561
  441MOL0     C59455  11.078   5.839   8.927 -0.8909 -0.4405 -0.2230
  441MOL0     C59456  11.150   5.834   8.807  1.3386 -0.5491 -0.5083
  441MOL0     C59457  11.285   5.857   8.805  0.3551 -0.4835  0.0250
  441MOL0     C59458  11.356   5.880   8.916 -0.0708 -0.1477  0.0154
  441MOL0     O59459  11.496   5.879   8.938  0.6089 -0.3897 -0.1278
  441MOL0     C59460  11.589   5.885   8.828  0.7317  0.0736 -0.4452
  441MOL0     C59461  11.640   5.740   8.792  1.4687  0.6164  0.3440
  441MOL0     C59462  11.730   5.667   8.893 -0.7731  1.5381  0.2247
  441MOL0     C59463  11.757   5.517   8.841  0.4067  0.6001 -0.3070
  441MOL0     C59464  11.705   5.430   8.948  0.0856  0.8653 -0.9604
  441MOL0     C59465  11.663   5.358   9.030 -0.1536  0.2113  0.8090
  441MOL0     C59466  11.280   5.901   9.032 -0.2296  0.2858  0.7504
  441MOL0     C59467  11.150   5.885   9.038  0.1291  0.1548 -0.0975
  441MOL0     H59468  10.699   5.943   9.178  0.9680  0.5875  0.1419
  441MOL0     H59469  10.461   5.902   9.203  0.6047 -0.9182  0.3454
  441MOL0     H59470  10.238   5.725   8.910  2.8781  0.9557  0.1979
  441MOL0     H59471  10.238   5.568   8.998 -1.4147  0.3224 -1.5792
  441MOL0     H59472  10.082   5.677   9.168 -5.1472  0.1733  0.1676
  441MOL0     H59473  10.073   5.826   9.081 -1.4263 -0.9923  0.4186
  441MOL0     H59474   9.992   5.683   8.872  0.2523  2.7589  0.5998
  441MOL0     H59475  10.011   5.545   8.964  1.0438  0.7516 -0.2171
  441MOL0     H59476   9.847   5.595   9.128  1.8055 -1.0677 -0.1732
  441MOL0     H59477   9.818   5.759   9.051 -0.3713 -0.8582  1.7310
  441MOL0     H59478   9.731   5.628   8.850 -3.0335 -0.1752  0.5109
  441MOL0     H59479   9.793   5.479   8.922 -1.5039 -1.3366  1.9911
  441MOL0     H59480   9.552   5.494   8.921 -1.2914 -0.4717  0.8274
  441MOL0     H59481   9.601   5.490   9.088  0.1362 -1.3705 -0.4377
  441MOL0     H59482   9.432   5.660   9.079  0.1860 -0.8414  1.4249
  441MOL0     H59483   9.576   5.752   9.089 -2.1511  2.3318  0.0857
  441MOL0     H59484   9.441   5.711   8.810 -2.2332 -0.5408  0.3429
  441MOL0     H59485   9.588   5.801   8.849  0.3204 -0.0420  0.9444
  441MOL0     H59486   9.285   5.824   9.081  0.1588  0.1884 -0.0164
  441MOL0     H59487   9.157   6.095   9.139  1.8477  0.3417 -0.0744
  441MOL0     H59488   9.101   6.171   8.985 -0.8972 -0.0067  0.3801
  441MOL0     H59489   9.042   5.886   9.091  0.8362 -0.5031 -1.1484
  441MOL0     H59490   8.993   5.942   8.935 -2.4331  0.2075  1.4046
  441MOL0     H59491   8.860   6.117   9.042 -1.3258  0.3852  1.5300
  441MOL0     H59492   8.893   6.057   9.203  1.4240  1.6654 -0.9868
  441MOL0     H59493   8.770   5.889   8.976 -3.3069  2.2870 -1.3228
  441MOL0     H59494   8.680   5.983   9.089 -0.8734  0.2119 -3.1456
  441MOL0     H59495   8.755   5.628   9.373  0.2406  0.7637 -0.6092
  441MOL0     H59496   8.530   5.380   9.428 -0.3819  1.7176  0.2916
  441MOL0     H59497   8.669   5.304   9.350 -1.4970  0.0605 -0.3006
  441MOL0     H59498   8.689   5.440   9.468  0.7231 -0.7179  0.3206
  441MOL0     H59499   8.213   5.239   9.277 -0.3354  0.5730 -0.0494
  441MOL0     H59500   8.024   5.110   9.257  1.3314  1.2080  1.2803
  441MOL0     H59501   7.905   4.916   8.948 -0.6980  0.6581  0.2833
  441MOL0     H59502   7.952   4.928   9.119 -0.1612 -0.1650  0.7684
  441MOL0     H59503   7.770   4.772   9.071 -0.7096 -0.4593  0.0077
  441MOL0     H59504   7.703   4.921   9.158 -3.8256  2.7765 -2.3500
  441MOL0     H59505   7.705   4.855   8.856  1.8226 -0.3384  1.2279
  441MOL0     H59506   7.642   5.007   8.928  0.9248  0.4485 -0.8558
  441MOL0     H59507   7.526   4.737   8.978 -0.7674 -0.0608 -1.5256
  441MOL0     H59508   7.460   4.901   9.028  0.4896  0.5088  1.3416
  441MOL0     H59509   7.495   4.797   8.745 -1.3986 -0.8904  0.5180
  441MOL0     H59510   7.431   4.956   8.799 -0.2711 -0.0887 -0.0466
  441MOL0     H59511   7.318   4.679   8.860 -0.8830 -0.3356 -1.5993
  441MOL0     H59512   7.248   4.833   8.916  2.4843  0.5725  1.6899
  441MOL0     H59513   7.307   4.746   8.634  0.8439  0.9612 -0.2812
  441MOL0     H59514   7.183   4.882   8.669  0.9258  0.4328  0.8535
  441MOL0     H59515   7.022   4.727   8.758  1.5085  2.1056 -0.0775
  441MOL0     H59516   7.148   4.594   8.757 -0.6684 -0.1978 -0.2345
  441MOL0     H59517   7.937   5.296   8.877 -2.3039 -1.3464  1.7028
  441MOL0     H59518   8.154   5.425   8.911  2.8297  0.5895  2.4822
  441MOL0     H59519   8.473   5.565   8.976 -1.9626 -1.6827  0.7151
  441MOL0     H59520   8.637   5.741   8.969  0.3196  0.9300  0.0140
  441MOL0     H59521  10.476   5.574   8.913  1.3645 -1.8282  0.2532
  441MOL0     H59522  10.715   5.618   8.896  0.3397  1.5939 -1.0904
  441MOL0     H59523  11.093   5.833   8.714 -2.4202 -0.0064  1.5805
  441MOL0     H59524  11.323   5.863   8.703  0.5196 -1.4686  0.0184
  441MOL0     H59525  11.542   5.924   8.738  2.0459 -0.6987 -1.4898
  441MOL0     H59526  11.676   5.945   8.856  0.1359  1.3695 -1.3136
  441MOL0     H59527  11.683   5.741   8.692 -0.6619 -2.3684 -0.7400
  441MOL0     H59528  11.542   5.692   8.785 -0.4435  3.8889  2.4523
  441MOL0     H59529  11.680   5.671   8.990 -2.4242  0.8950 -0.5496
  441MOL0     H59530  11.830   5.711   8.893 -0.0571  0.0135 -1.0393
  441MOL0     H59531  11.862   5.489   8.828  0.6896  0.6474  1.5885
  441MOL0     H59532  11.700   5.500   8.749 -1.6312 -0.6942  1.1126
  441MOL0     H59533  11.617   5.286   9.094 -0.9318  0.6260  0.7423
  441MOL0     H59534  11.340   5.923   9.120 -1.6162  2.5106  1.2090
  441MOL0     H59535  11.105   5.905   9.135  1.3434 -1.2759  0.8078
  442MOL0     O59536   1.578   6.747   6.600  0.2143 -0.2229  0.6810
  442MOL0     C59537   1.678   6.676   6.582  1.0361 -0.8525  0.1094
  442MOL0     O59538   1.680   6.543   6.532  0.0365 -0.2288 -0.4692
  442MOL0     C59539   1.567   6.477   6.502 -0.5335  0.2939 -0.0035
  442MOL0     C59540   1.557   6.340   6.531 -0.0317 -0.0750  0.1302
  442MOL0     C59541   1.445   6.269   6.490 -0.0809  0.2430  0.2874
  442MOL0     C59542   1.344   6.323   6.411  0.0719 -0.4995  1.1451
  442MOL0     O59543   1.228   6.253   6.383  0.1089 -0.3223 -0.2868
  442MOL0     C59544   1.101   6.322   6.396  0.5513  0.4746 -0.1327
  442MOL0     C59545   0.990   6.230   6.355 -0.0008 -0.9713  0.5726
  442MOL0     C59546   0.860   6.320   6.337 -0.3057 -0.2627 -0.9475
  442MOL0     C59547   0.761   6.250   6.249  0.2882 -0.8401 -0.5960
  442MOL0     C59548   0.616   6.318   6.267 -0.4488  0.1941  0.4340
  442MOL0     C59549   0.505   6.241   6.208  1.5250 -0.0640  0.2776
  442MOL0     C59550   0.368   6.295   6.252 -0.0634 -0.1372  0.0275
  442MOL0     C59551   0.252   6.213   6.215 -0.1699  0.5941  0.6495
  442MOL0     N59552   0.129   6.288   6.235  0.1999  0.4616 -0.1575
  442MOL0     C59553   0.060   6.280   6.358 -0.9319 -0.3080  0.4559
  442MOL0     C59554  -0.056   6.347   6.338 -0.6429  0.1119  0.0326
  442MOL0     C59555  -0.167   6.375   6.434  1.3248 -0.1736  0.4250
  442MOL0     C59556  -0.263   6.258   6.453 -0.4701 -0.4503  0.5645
  442MOL0     C59557  -0.357   6.269   6.566  0.2565  0.5133  0.8830
  442MOL0     C59558  -0.312   6.330   6.698 -0.2789 -0.2884  0.5385
  442MOL0     O59559  -0.333   6.472   6.695 -0.4654 -0.1141  0.7633
  442MOL0     C59560  -0.458   6.520   6.733  0.5446 -0.6947  0.6904
  442MOL0     C59561  -0.505   6.496   6.862  0.4339  1.1488 -0.2203
  442MOL0     C59562  -0.631   6.542   6.906 -0.3777  0.3365  0.3230
  442MOL0     C59563  -0.646   6.524   7.051  0.3521 -0.3434  0.0499
  442MOL0     C59564  -0.715   6.622   6.821  0.1818  1.0677 -0.0075
  442MOL0     C59565  -0.845   6.692   6.865  0.1167  0.3335 -0.2310
  442MOL0     O59566  -0.911   6.760   6.769 -0.6238  0.6065 -0.6645
  442MOL0     C59567  -1.021   6.835   6.792  0.3894  0.1235 -0.0162
  442MOL0     C59568  -1.127   6.806   6.874  0.4087 -0.4643 -0.0414
  442MOL0     C59569  -1.232   6.892   6.887  0.6135  0.3375  0.5389
  442MOL0     C59570  -1.240   7.008   6.805  0.5247 -0.5937 -0.4283
  442MOL0     O59571  -1.336   7.099   6.804  0.2657  0.2413  0.2854
  442MOL0     C59572  -1.426   7.089   6.915  0.1884 -0.0665  0.0422
  442MOL0     C59573  -1.503   7.220   6.910 -0.2018 -0.1172  0.7368
  442MOL0     C59574  -1.613   7.249   7.016 -1.2631  0.6485 -0.0772
  442MOL0     C59575  -1.718   7.137   7.026  0.5270  0.5858  0.7202
  442MOL0     C59576  -1.838   7.186   7.108 -0.1579 -0.5235 -0.1844
  442MOL0     C59577  -1.962   7.095   7.073 -0.0415  0.9723  0.2398
  442MOL0     C59578  -2.059   7.102   7.197  0.7101  0.9969 -0.4223
  442MOL0     C59579  -2.184   7.021   7.154  0.4908  0.2449 -0.4991
  442MOL0    Cl59580  -2.315   7.019   7.283 -0.1267 -0.1507 -0.2370
  442MOL0     C59581  -1.137   7.032   6.720 -0.2944 -0.0917  0.6995
  442MOL0     C59582  -1.021   6.956   6.713  0.1000 -0.9098  0.4103
  442MOL0     O59583  -0.878   6.693   6.978  0.9080  0.1999  0.1731
  442MOL0     C59584  -0.674   6.628   6.686  0.4702  0.4161 -1.3279
  442MOL0     C59585  -0.542   6.586   6.648  0.1436  0.1570  0.7748
  442MOL0     N59586  -0.048   6.402   6.209  0.4727 -0.6402  0.2162
  442MOL0     N59587   0.058   6.365   6.144  0.0315 -0.0849  0.2186
  442MOL0     C59588   1.363   6.460   6.370  0.0983 -0.1900 -0.4168
  442MOL0     C59589   1.475   6.533   6.419 -0.0704  0.7592 -0.4616
  442MOL0     C59590   1.802   6.749   6.616 -1.1610  0.0132 -0.0730
  442MOL0     C59591   1.807   6.885   6.639  0.1393 -0.0673 -0.0094
  442MOL0     C59592   1.930   6.946   6.665 -0.3494 -0.4832 -0.4520
  442MOL0     C59593   2.050   6.871   6.688 -0.1978 -0.4691 -0.6409
  442MOL0     O59594   2.155   6.945   6.741 -0.9604 -0.1090  0.1949
  442MOL0     C59595   2.290   6.887   6.760  0.8422  0.2962  0.1197
  442MOL0     C59596   2.394   6.997   6.766  0.6574 -0.7669  0.6991
  442MOL0     C59597   2.386   7.094   6.887  0.3395 -0.0893  0.6466
  442MOL0     C59598   2.497   7.188   6.879 -0.4629  0.6589 -0.0749
  442MOL0     C59599   2.633   7.141   6.864  0.1189  0.6619 -0.6693
  442MOL0     C59600   2.750   7.116   6.863 -0.2427 -0.3211  0.9574
  442MOL0     C59601   2.046   6.732   6.664  0.7480 -0.3793 -0.0400
  442MOL0     C59602   1.922   6.678   6.639  0.4543  0.0807  0.8505
  442MOL0     H59603   1.635   6.311   6.601 -1.3366 -0.0497  1.6579
  442MOL0     H59604   1.446   6.166   6.523  0.2363 -0.1068 -0.7700
  442MOL0     H59605   1.077   6.359   6.495  2.5011 -0.8811  0.9356
  442MOL0     H59606   1.100   6.410   6.331 -2.0264 -1.4157 -2.9271
  442MOL0     H59607   1.021   6.185   6.260 -0.4707 -1.9965  0.8964
  442MOL0     H59608   0.981   6.147   6.426 -0.8095 -0.2885  1.2860
  442MOL0     H59609   0.815   6.327   6.436 -0.1704  0.1602 -0.9116
  442MOL0     H59610   0.880   6.422   6.302  0.1308  0.5481  1.5074
  442MOL0     H59611   0.795   6.253   6.145  2.2022 -2.2243 -0.0798
  442MOL0     H59612   0.751   6.148   6.285 -0.2439 -0.5153  0.2098
  442MOL0     H59613   0.602   6.320   6.376 -1.3775  0.2363  0.3202
  442MOL0     H59614   0.617   6.416   6.218 -1.9009  0.4093  0.7988
  442MOL0     H59615   0.516   6.242   6.099  1.5795  1.8271  0.2671
  442MOL0     H59616   0.513   6.136   6.240  2.5310 -0.3257 -0.7640
  442MOL0     H59617   0.363   6.311   6.360  0.3977  0.4064 -0.0276
  442MOL0     H59618   0.360   6.398   6.214 -0.2826 -0.2179 -0.1430
  442MOL0     H59619   0.259   6.120   6.272  2.8473 -2.9942 -4.6106
  442MOL0     H59620   0.265   6.192   6.108 -0.0801  1.5663  0.4589
  442MOL0     H59621   0.079   6.231   6.452 -0.1422 -1.3629 -0.2249
  442MOL0     H59622  -0.121   6.402   6.529  0.3381 -0.0402  0.8872
  442MOL0     H59623  -0.233   6.459   6.408 -2.2746 -2.9290 -0.1187
  442MOL0     H59624  -0.194   6.175   6.473 -1.0215 -0.7900  1.0554
  442MOL0     H59625  -0.308   6.224   6.359 -0.8605 -0.6045  0.8070
  442MOL0     H59626  -0.385   6.167   6.592 -1.0371  0.7468  0.5044
  442MOL0     H59627  -0.446   6.324   6.533  0.3743  0.8659  1.1443
  442MOL0     H59628  -0.211   6.293   6.716 -1.2405 -3.8081 -0.3955
  442MOL0     H59629  -0.377   6.282   6.773 -0.3653 -3.4470 -1.3487
  442MOL0     H59630  -0.433   6.441   6.922 -2.3798 -1.7689  0.7504
  442MOL0     H59631  -0.730   6.456   7.071  0.8955 -0.6900  1.2352
  442MOL0     H59632  -0.559   6.478   7.098  0.7203  1.3790  1.1262
  442MOL0     H59633  -0.664   6.617   7.106  0.5406 -0.9943  1.2482
  442MOL0     H59634  -1.131   6.712   6.928 -0.7716  0.9476  2.5456
  442MOL0     H59635  -1.318   6.855   6.942 -1.3883  0.7649 -2.1168
  442MOL0     H59636  -1.492   7.005   6.892 -0.9661  1.0477 -0.8749
  442MOL0     H59637  -1.375   7.085   7.011 -0.4778  0.6919  0.4364
  442MOL0     H59638  -1.429   7.301   6.905  0.0287 -0.3996 -2.5151
  442MOL0     H59639  -1.554   7.221   6.814 -0.3978 -1.0263  0.8278
  442MOL0     H59640  -1.673   7.334   6.982 -2.7045 -0.7004 -1.0677
  442MOL0     H59641  -1.565   7.269   7.112  0.1672 -1.8403 -0.1800
  442MOL0     H59642  -1.759   7.104   6.929 -0.9496 -2.9431  2.3477
  442MOL0     H59643  -1.680   7.043   7.067  0.9146  0.9197  1.1389
  442MOL0     H59644  -1.854   7.291   7.082 -1.8313 -0.6106  0.3453
  442MOL0     H59645  -1.824   7.187   7.217 -3.6498  0.3331  0.3835
  442MOL0     H59646  -2.009   7.128   6.980 -0.9613 -4.4810 -1.6116
  442MOL0     H59647  -1.920   6.994   7.070  0.1895  1.0082  1.4889
  442MOL0     H59648  -2.082   7.207   7.220  0.0014  0.1459  3.2555
  442MOL0     H59649  -2.017   7.056   7.286  0.1994  1.6328  0.1561
  442MOL0     H59650  -2.169   6.916   7.128 -1.6775 -1.0321  2.6694
  442MOL0     H59651  -2.210   7.072   7.061  0.7432  1.5224  0.0958
  442MOL0     H59652  -1.153   7.117   6.655 -1.2125 -2.3255 -2.1984
  442MOL0     H59653  -0.940   6.980   6.645  0.4827 -0.3960  1.0339
  442MOL0     H59654  -0.734   6.672   6.608  2.5740  2.0423 -2.1287
  442MOL0     H59655  -0.519   6.615   6.546 -1.4253  0.5503  0.5078
  442MOL0     H59656   1.303   6.491   6.285 -1.9032  2.2247  1.7095
  442MOL0     H59657   1.493   6.637   6.395 -2.4934  1.9711  2.3804
  442MOL0     H59658   1.736   6.961   6.606  2.3517  1.6336 -1.1258
  442MOL0     H59659   1.938   7.054   6.672 -1.2495 -0.4889  0.8913
  442MOL0     H59660   2.286   6.826   6.851  0.8991 -1.3082 -0.8995
  442MOL0     H59661   2.320   6.817   6.681  0.9136  1.4565 -0.9130
  442MOL0     H59662   2.374   7.058   6.677  0.7112 -1.8514 -0.0789
  442MOL0     H59663   2.490   6.957   6.733  0.3023  0.3895 -2.0664
  442MOL0     H59664   2.403   7.040   6.981  1.5565  1.4875  1.3843
  442MOL0     H59665   2.287   7.141   6.887 -0.3274 -1.2851 -2.2346
  442MOL0     H59666   2.496   7.239   6.976 -0.0031 -2.1353  1.4948
  442MOL0     H59667   2.471   7.255   6.796  0.3018 -0.3627 -1.1631
  442MOL0     H59668   2.853   7.092   6.847 -0.7576 -1.3392 -1.2270
  442MOL0     H59669   2.137   6.674   6.675  0.8270 -0.2573 -0.0465
  442MOL0     H59670   1.918   6.570   6.633 -2.6574  0.1516 -0.5100
  443MOL0     O59671   0.716   0.489   1.910  0.2868  0.4353 -0.2480
  443MOL0     C59672   0.695   0.539   2.020  0.1363 -0.2830 -0.0668
  443MOL0     O59673   0.576   0.551   2.085  0.1668  0.3634 -0.3078
  443MOL0     C59674   0.470   0.491   2.025 -0.3831 -0.3564  0.1010
  443MOL0     C59675   0.385   0.411   2.101  0.4427 -0.5494 -0.7802
  443MOL0     C59676   0.261   0.366   2.047  0.2785  0.1785  0.5231
  443MOL0     C59677   0.232   0.396   1.908 -0.4504  0.1393  0.2814
  443MOL0     O59678   0.130   0.344   1.841  0.5498  0.5626 -0.9690
  443MOL0     C59679   0.032   0.259   1.920 -0.4712  0.0442  0.4054
  443MOL0     C59680  -0.079   0.196   1.831  0.1028  0.0183 -0.1407
  443MOL0     C59681  -0.186   0.278   1.779 -0.2865  0.2504  0.2441
  443MOL0     C59682  -0.290   0.204   1.695  0.9576 -0.7677 -0.4252
  443MOL0     C59683  -0.256   0.178   1.551 -0.6591 -0.6859  0.3311
  443MOL0     C59684  -0.367   0.086   1.496  0.7391 -0.4775  0.1372
  443MOL0     C59685  -0.353   0.035   1.352  0.0429 -0.1022  0.3461
  443MOL0     C59686  -0.323  -0.116   1.345 -0.0519 -0.3198 -0.1589
  443MOL0     N59687  -0.193  -0.149   1.417  0.6703 -0.2027  0.2834
  443MOL0     C59688  -0.070  -0.183   1.360  0.1693 -0.0784 -0.0196
  443MOL0     C59689   0.022  -0.208   1.455  1.6125  0.3846  0.5284
  443MOL0     C59690   0.168  -0.241   1.441  0.2588 -0.3367 -0.1641
  443MOL0     C59691   0.245  -0.133   1.365  0.6615 -0.3439  0.7499
  443MOL0     C59692   0.391  -0.169   1.364  0.5039  0.2196 -0.9858
  443MOL0     C59693   0.482  -0.069   1.286  0.7427 -0.5862  0.3814
  443MOL0     O59694   0.430  -0.029   1.158 -0.2114  0.0227 -0.6086
  443MOL0     C59695   0.431  -0.108   1.045  0.6159  0.2096 -0.4350
  443MOL0     C59696   0.480  -0.235   1.042 -0.8439 -0.0734  0.5218
  443MOL0     C59697   0.471  -0.314   0.928  0.8589 -0.4851  1.2081
  443MOL0     C59698   0.536  -0.454   0.925 -0.3907  0.7844  0.0193
  443MOL0     C59699   0.404  -0.262   0.817 -1.2703  0.0370 -0.4328
  443MOL0     C59700   0.390  -0.331   0.698 -0.0106  0.0479  0.0349
  443MOL0     O59701   0.270  -0.348   0.633  0.7181  0.9798 -0.2402
  443MOL0     C59702   0.149  -0.328   0.701 -0.3571 -0.4381 -0.7089
  443MOL0     C59703   0.094  -0.199   0.691 -0.7576  0.0057  0.3110
  443MOL0     C59704  -0.010  -0.165   0.774 -0.4684  0.2748 -0.3900
  443MOL0     C59705  -0.082  -0.262   0.849  0.2909  0.3238  0.1266
  443MOL0     O59706  -0.192  -0.236   0.927  0.1260  0.4421  0.3549
  443MOL0     C59707  -0.315  -0.282   0.872 -0.3598  0.2491 -0.0437
  443MOL0     C59708  -0.433  -0.227   0.958 -0.0187  0.4210 -0.0112
  443MOL0     C59709  -0.564  -0.292   0.899 -0.8616  0.5741  0.1053
  443MOL0     C59710  -0.687  -0.232   0.958 -0.0297  0.4726  0.4600
  443MOL0     C59711  -0.800  -0.325   0.910 -0.8145  0.7890 -0.1032
  443MOL0     C59712  -0.935  -0.285   0.964 -0.5356 -0.7414  0.2452
  443MOL0     C59713  -1.037  -0.403   0.925 -0.0497 -0.3608 -0.1687
  443MOL0     C59714  -1.166  -0.391   1.003  0.0303 -0.1285 -0.0750
  443MOL0    Cl59715  -1.138  -0.368   1.189  0.2470 -0.4712  0.0226
  443MOL0     C59716  -0.047  -0.393   0.829 -2.3102  0.0662 -0.4200
  443MOL0     C59717   0.076  -0.423   0.770  0.1778  1.0019 -0.1129
  443MOL0     O59718   0.493  -0.364   0.652 -0.3718  0.1205 -0.1905
  443MOL0     C59719   0.360  -0.126   0.821 -0.4206 -0.4812 -0.3946
  443MOL0     C59720   0.378  -0.052   0.935  0.7872 -0.2114  0.8145
  443MOL0     N59721  -0.042  -0.210   1.572  0.6589 -0.3007  0.9627
  443MOL0     N59722  -0.165  -0.168   1.547  0.9303  0.6322 -0.9121
  443MOL0     C59723   0.317   0.481   1.837 -0.2837  0.7606 -0.4800
  443MOL0     C59724   0.433   0.518   1.898  0.4192 -0.1442  0.5132
  443MOL0     C59725   0.802   0.619   2.072 -0.5864  0.2624 -0.1214
  443MOL0     C59726   0.836   0.617   2.210  0.0068  0.0629 -0.7389
  443MOL0     C59727   0.942   0.697   2.258  0.5503  1.0955  0.0383
  443MOL0     C59728   1.007   0.780   2.172 -0.5075 -0.5989  0.3458
  443MOL0     O59729   1.114   0.862   2.220  0.9682  0.6135  0.1945
  443MOL0     C59730   1.096   1.006   2.208  0.8744 -0.2005  0.2739
  443MOL0     C59731   0.979   1.061   2.296 -0.4964  0.5529  0.7338
  443MOL0     C59732   0.991   1.211   2.331 -0.6924  0.2121  0.1958
  443MOL0     C59733   0.881   1.248   2.429 -0.7950  0.0642  0.0631
  443MOL0     C59734   0.923   1.203   2.563  0.3155  0.1097  0.0477
  443MOL0     C59735   0.961   1.156   2.671  0.0829  0.0512 -0.4614
  443MOL0     C59736   0.987   0.781   2.034  0.7350  0.2690  0.9009
  443MOL0     C59737   0.883   0.696   1.981 -1.3752  0.1246 -0.2594
  443MOL0     H59738   0.410   0.383   2.203  0.1531  1.6897 -0.0475
  443MOL0     H59739   0.194   0.312   2.114  0.6105 -1.2123 -0.2428
  443MOL0     H59740   0.080   0.176   1.973 -1.6661 -0.8305  0.1609
  443MOL0     H59741  -0.026   0.299   2.004 -1.5790 -0.1679 -0.2462
  443MOL0     H59742  -0.032   0.142   1.748 -1.2528 -1.6653  0.1228
  443MOL0     H59743  -0.132   0.122   1.892 -0.1331 -0.9897 -1.5071
  443MOL0     H59744  -0.236   0.328   1.862 -2.7409  0.8076 -1.4328
  443MOL0     H59745  -0.136   0.355   1.720  0.9502 -1.5788 -1.2019
  443MOL0     H59746  -0.304   0.106   1.743  1.7245 -0.7020 -0.0529
  443MOL0     H59747  -0.388   0.250   1.708  0.3714 -2.1211  0.2533
  443MOL0     H59748  -0.240   0.274   1.501  0.1187  0.4653  2.6468
  443MOL0     H59749  -0.157   0.131   1.547  0.5143  1.5938  0.7749
  443MOL0     H59750  -0.383  -0.003   1.559 -0.5537  0.7922  1.6835
  443MOL0     H59751  -0.461   0.142   1.499  1.4913  0.7736  0.8294
  443MOL0     H59752  -0.448   0.056   1.301  0.4970 -0.7920 -0.8317
  443MOL0     H59753  -0.278   0.078   1.284  0.7525 -0.1405  1.0952
  443MOL0     H59754  -0.317  -0.140   1.238 -0.1483 -2.7656  0.3366
  443MOL0     H59755  -0.407  -0.178   1.378 -0.7894  1.0706  0.6847
  443MOL0     H59756  -0.044  -0.180   1.254  1.3149 -1.2550  0.2098
  443MOL0     H59757   0.219  -0.247   1.538  1.1751 -2.2906 -0.7166
  443MOL0     H59758   0.184  -0.330   1.380  0.5481 -1.0478  0.9112
  443MOL0     H59759   0.221  -0.042   1.422 -2.1311 -0.3787 -0.2056
  443MOL0     H59760   0.207  -0.121   1.263  1.1514 -0.3061  0.5709
  443MOL0     H59761   0.394  -0.265   1.312 -2.6441 -2.3869  2.9603
  443MOL0     H59762   0.426  -0.190   1.465  0.1702  1.4095 -0.6039
  443MOL0     H59763   0.585  -0.106   1.283  0.0099 -2.8227  0.3456
  443MOL0     H59764   0.484   0.022   1.346 -1.2696  0.7636 -1.4613
  443MOL0     H59765   0.536  -0.280   1.123  0.7395  1.4860  0.3553
  443MOL0     H59766   0.618  -0.457   0.853 -1.1157 -3.3860 -0.8960
  443MOL0     H59767   0.568  -0.486   1.024 -2.0948  2.6236  1.2451
  443MOL0     H59768   0.471  -0.534   0.887 -0.6038  1.2006 -0.5083
  443MOL0     H59769   0.130  -0.128   0.617 -0.2963 -2.3145 -1.8106
  443MOL0     H59770  -0.052  -0.066   0.788 -0.7424  0.0738  0.2466
  443MOL0     H59771  -0.311  -0.255   0.766 -0.4085 -2.6549 -0.8664
  443MOL0     H59772  -0.320  -0.390   0.857  1.9912  0.4963 -4.0887
  443MOL0     H59773  -0.419  -0.251   1.064  1.4905  1.2527  0.0024
  443MOL0     H59774  -0.452  -0.120   0.944 -0.1409  0.8607  2.9797
  443MOL0     H59775  -0.550  -0.398   0.923  2.0478  0.7927 -0.1940
  443MOL0     H59776  -0.570  -0.289   0.790 -2.1827  2.7587  0.1660
  443MOL0     H59777  -0.680  -0.211   1.065  2.2483 -0.2210  0.4912
  443MOL0     H59778  -0.704  -0.133   0.914 -0.8744 -1.1957 -3.3880
  443MOL0     H59779  -0.782  -0.422   0.958  0.2150  1.4335  0.8537
  443MOL0     H59780  -0.795  -0.342   0.802  1.0806 -0.7978  0.1677
  443MOL0     H59781  -0.933  -0.256   1.069 -2.0374 -0.9538  0.3500
  443MOL0     H59782  -0.958  -0.193   0.911 -0.1092  0.1312  1.5393
  443MOL0     H59783  -0.998  -0.497   0.967 -3.5860 -1.2765  1.5393
  443MOL0     H59784  -1.059  -0.408   0.818  0.8311 -1.2509 -0.3248
  443MOL0     H59785  -1.235  -0.475   1.002  0.3414 -0.4512  1.7174
  443MOL0     H59786  -1.217  -0.300   0.968 -0.8182 -0.3236  0.6020
  443MOL0     H59787  -0.106  -0.476   0.866  0.0533 -0.7265  1.8608
  443MOL0     H59788   0.101  -0.529   0.767 -1.5706  0.4631  1.8081
  443MOL0     H59789   0.308  -0.088   0.734  0.4607 -0.1192 -0.7790
  443MOL0     H59790   0.342   0.049   0.945  1.5913 -0.1273  3.9879
  443MOL0     H59791   0.319   0.493   1.729  1.0144 -0.1378 -0.5787
  443MOL0     H59792   0.497   0.564   1.823 -1.5164 -0.4452 -1.4468
  443MOL0     H59793   0.792   0.543   2.277 -1.4625  1.6771  0.1523
  443MOL0     H59794   0.976   0.691   2.361  0.0860 -0.6109  0.1233
  443MOL0     H59795   1.178   1.076   2.228 -0.4112  1.2651  0.5733
  443MOL0     H59796   1.069   1.026   2.104 -0.1229  1.4982  0.8208
  443MOL0     H59797   0.963   0.997   2.384 -3.3498  1.3284  0.8793
  443MOL0     H59798   0.888   1.053   2.236 -1.0892  0.1717  1.6512
  443MOL0     H59799   0.981   1.268   2.238  0.3773  0.7152  0.3730
  443MOL0     H59800   1.091   1.236   2.370 -0.4209 -1.4761  0.6913
  443MOL0     H59801   0.784   1.203   2.402  0.0417 -0.6641 -1.9457
  443MOL0     H59802   0.866   1.356   2.436  2.1425  0.4701  1.6246
  443MOL0     H59803   0.974   1.111   2.767 -0.5326 -1.3673 -1.0194
  443MOL0     H59804   1.039   0.848   1.966  0.5353  0.3979  0.8747
  443MOL0     H59805   0.866   0.688   1.874 -0.0240 -0.8904 -0.4200
  444MOL0     O59806   0.190   4.712   0.525  0.0586  0.0123  0.3978
  444MOL0     C59807   0.267   4.642   0.463  0.3706  0.4348 -0.0878
  444MOL0     O59808   0.240   4.523   0.410  0.5262  0.9722  1.0935
  444MOL0     C59809   0.110   4.482   0.394 -0.5055  0.1384 -0.2003
  444MOL0     C59810   0.043   4.505   0.272 -0.5085  0.7137  0.6613
  444MOL0     C59811  -0.088   4.466   0.257  0.2727 -0.0981  0.5988
  444MOL0     C59812  -0.158   4.397   0.362 -0.6267  0.5322 -0.2005
  444MOL0     O59813  -0.294   4.360   0.351  0.0436  0.4151 -0.7795
  444MOL0     C59814  -0.353   4.334   0.220 -0.7968 -0.4142 -0.2521
  444MOL0     C59815  -0.485   4.280   0.213  0.1931  0.7335  0.3203
  444MOL0     C59816  -0.593   4.382   0.244 -0.8292 -0.5097 -0.1097
  444MOL0     C59817  -0.625   4.487   0.139 -0.1252  0.1815  0.9855
  444MOL0     C59818  -0.734   4.581   0.192  0.5861  0.4859 -0.6149
  444MOL0     C59819  -0.869   4.521   0.230 -0.1647  0.2451 -0.0846
  444MOL0     C59820  -0.938   4.439   0.117 -0.9367 -0.0711  0.1643
  444MOL0     C59821  -1.096   4.430   0.126 -0.0624  0.2996  0.2899
  444MOL0     N59822  -1.164   4.551   0.149  0.4449 -0.4607 -0.3404
  444MOL0     C59823  -1.222   4.601   0.269 -0.5479  0.5942 -0.1735
  444MOL0     C59824  -1.291   4.708   0.228 -0.1971  0.9685  0.4142
  444MOL0     C59825  -1.369   4.801   0.323 -0.0260 -0.3514  0.1696
  444MOL0     C59826  -1.506   4.828   0.261  0.3839 -0.8892 -0.2845
  444MOL0     C59827  -1.602   4.880   0.374 -0.7455  0.0753 -0.0799
  444MOL0     C59828  -1.743   4.916   0.331  0.0396 -0.2796  0.3080
  444MOL0     O59829  -1.816   4.920   0.453  0.0921 -0.1665 -0.0144
  444MOL0     C59830  -1.947   4.971   0.437  0.9698 -0.1120 -0.2273
  444MOL0     C59831  -2.017   5.009   0.323  0.1026  1.0225 -0.5210
  444MOL0     C59832  -2.144   5.062   0.327  0.1777  0.1523 -0.2206
  444MOL0     C59833  -2.213   5.076   0.198  0.5059 -0.3109  0.3287
  444MOL0     C59834  -2.209   5.074   0.453  0.1528 -0.5181  0.1584
  444MOL0     C59835  -2.351   5.112   0.466 -0.1751  0.9983  0.6371
  444MOL0     O59836  -2.399   5.199   0.369  0.2598  0.3788  0.1093
  444MOL0     C59837  -2.527   5.236   0.380  0.3138  0.6891  0.4432
  444MOL0     C59838  -2.603   5.261   0.492 -0.4970 -0.0929 -0.5115
  444MOL0     C59839  -2.732   5.295   0.484 -0.2474 -0.0030 -0.7966
  444MOL0     C59840  -2.797   5.308   0.361  0.5499 -0.8629  0.1105
  444MOL0     O59841  -2.921   5.360   0.350  0.5622  0.2174  0.8591
  444MOL0     C59842  -2.920   5.500   0.374 -0.8376 -0.1867  0.5504
  444MOL0     C59843  -2.920   5.581   0.244 -0.2751  0.3829  0.2432
  444MOL0     C59844  -3.045   5.677   0.240  0.9017  0.3797  0.1512
  444MOL0     C59845  -3.048   5.759   0.104 -0.1206  0.1488 -1.0189
  444MOL0     C59846  -3.191   5.824   0.089 -1.2214  0.9739 -0.2459
  444MOL0     C59847  -3.183   5.904  -0.040  0.1686  1.1149  0.2409
  444MOL0     C59848  -3.319   5.959  -0.055 -0.5764 -0.0829  0.9155
  444MOL0     C59849  -3.316   6.056  -0.182 -0.8193 -0.2085 -0.2771
  444MOL0    Cl59850  -3.479   6.136  -0.202  0.0448  0.0206  0.4287
  444MOL0     C59851  -2.720   5.288   0.243  0.7878  0.0953  0.2344
  444MOL0     C59852  -2.586   5.258   0.252  0.0231 -0.3028 -0.3629
  444MOL0     O59853  -2.413   5.062   0.560  0.3565 -0.0371 -0.0016
  444MOL0     C59854  -2.144   5.043   0.570 -1.0900  0.2470  0.4306
  444MOL0     C59855  -2.014   4.996   0.561 -0.2458  1.1620 -0.4643
  444MOL0     N59856  -1.291   4.714   0.098  0.7358 -0.3325 -0.8908
  444MOL0     N59857  -1.219   4.617   0.048  0.7831 -0.0559 -0.3437
  444MOL0     C59858  -0.087   4.366   0.477  0.3727 -0.2499 -0.3193
  444MOL0     C59859   0.041   4.416   0.493 -0.1930  0.5751 -0.8868
  444MOL0     C59860   0.397   4.694   0.431 -0.0185  0.4845 -0.2902
  444MOL0     C59861   0.417   4.834   0.416 -0.2579  0.5113 -0.4858
  444MOL0     C59862   0.542   4.882   0.374 -0.2879  0.6491  0.0522
  444MOL0     C59863   0.648   4.791   0.355 -0.3672 -0.7217  0.7159
  444MOL0     O59864   0.774   4.824   0.320 -0.4211  0.0292  0.5807
  444MOL0     C59865   0.813   4.965   0.296  0.1669 -0.0104  0.7295
  444MOL0     C59866   0.834   5.043   0.424 -0.3075  0.3813  0.4061
  444MOL0     C59867   0.918   5.171   0.398 -0.2618 -0.1737  0.1877
  444MOL0     C59868   0.871   5.262   0.289  0.4631 -0.4199  0.3381
  444MOL0     C59869   0.731   5.309   0.316  0.6803  0.0555  0.1455
  444MOL0     C59870   0.608   5.329   0.342 -0.0574 -0.6813  0.2385
  444MOL0     C59871   0.635   4.655   0.377 -0.7727 -0.6644  0.4207
  444MOL0     C59872   0.510   4.606   0.415  0.0008  0.2737 -0.1574
  444MOL0     H59873   0.099   4.553   0.194 -1.0447 -0.1657 -0.2940
  444MOL0     H59874  -0.134   4.479   0.160  0.3316 -2.0324  0.2899
  444MOL0     H59875  -0.358   4.432   0.170 -1.5696  1.6957  3.5793
  444MOL0     H59876  -0.287   4.269   0.162 -0.8025 -0.1944 -0.5087
  444MOL0     H59877  -0.499   4.232   0.116 -0.8640  0.1374  0.7527
  444MOL0     H59878  -0.500   4.207   0.293 -0.4323  2.1169  1.5159
  444MOL0     H59879  -0.676   4.319   0.277 -0.0680 -1.6996 -0.4170
  444MOL0     H59880  -0.560   4.431   0.336 -2.1330  1.5816 -0.6937
  444MOL0     H59881  -0.536   4.546   0.117  0.2934 -0.3149  1.3361
  444MOL0     H59882  -0.657   4.424   0.056 -0.4978  1.8047 -0.1486
  444MOL0     H59883  -0.689   4.623   0.283  1.4682  1.2365 -1.3791
  444MOL0     H59884  -0.754   4.661   0.120  1.2346  1.9051  0.7161
  444MOL0     H59885  -0.860   4.457   0.318  0.0413 -0.6765 -0.7588
  444MOL0     H59886  -0.938   4.598   0.266 -3.0217 -1.7285 -0.9895
  444MOL0     H59887  -0.906   4.493   0.027  0.9836  1.1726  1.5053
  444MOL0     H59888  -0.896   4.338   0.117  0.0653  0.3188 -1.1290
  444MOL0     H59889  -1.113   4.358   0.206  0.3024 -0.7262 -0.5357
  444MOL0     H59890  -1.135   4.394   0.030  0.1858  0.7139  0.0314
  444MOL0     H59891  -1.217   4.555   0.367 -2.6659  0.4309 -0.0862
  444MOL0     H59892  -1.385   4.750   0.419  0.3438 -2.4601 -0.8215
  444MOL0     H59893  -1.313   4.894   0.335 -2.7176  1.4595 -0.4557
  444MOL0     H59894  -1.546   4.731   0.232 -0.3640 -0.4563 -0.7316
  444MOL0     H59895  -1.495   4.897   0.177 -0.1138 -0.4646 -0.0077
  444MOL0     H59896  -1.555   4.962   0.430  1.4660 -3.2973  3.5563
  444MOL0     H59897  -1.612   4.802   0.451 -3.3476 -0.9819 -1.3566
  444MOL0     H59898  -1.775   4.832   0.268  3.1958 -1.5040  0.1325
  444MOL0     H59899  -1.750   5.006   0.269  2.1773 -0.0973  0.2665
  444MOL0     H59900  -1.968   4.975   0.233 -2.7338 -0.8193 -1.4863
  444MOL0     H59901  -2.238   5.179   0.169 -1.9071 -1.1318 -0.7795
  444MOL0     H59902  -2.166   5.029   0.111 -0.6290 -0.3139 -0.2988
  444MOL0     H59903  -2.312   5.031   0.207  0.0594  0.8689  1.8319
  444MOL0     H59904  -2.556   5.251   0.590  0.4217  1.1028 -0.8079
  444MOL0     H59905  -2.789   5.306   0.575  0.7551 -0.5181 -0.0915
  444MOL0     H59906  -3.017   5.520   0.421 -0.9196 -0.4092  0.4736
  444MOL0     H59907  -2.841   5.533   0.442 -1.3791  3.8029 -0.4873
  444MOL0     H59908  -2.826   5.636   0.250  0.1978 -0.2630 -0.8180
  444MOL0     H59909  -2.918   5.510   0.161  1.1112 -1.6008  1.8559
  444MOL0     H59910  -3.047   5.746   0.325 -2.9334 -0.9948  1.4132
  444MOL0     H59911  -3.133   5.613   0.251  0.9204  0.5293  1.2880
  444MOL0     H59912  -2.979   5.843   0.108 -1.0804  0.9221  1.8070
  444MOL0     H59913  -3.026   5.685   0.027  0.3851 -0.9266  0.1256
  444MOL0     H59914  -3.223   5.886   0.172 -0.5641  0.3085  0.5261
  444MOL0     H59915  -3.265   5.745   0.071 -1.3938  1.2085 -0.5758
  444MOL0     H59916  -3.105   5.981  -0.031  1.4581 -0.1367  0.1311
  444MOL0     H59917  -3.166   5.834  -0.122 -1.3418  0.0757  0.7691
  444MOL0     H59918  -3.344   6.014   0.037  1.4208 -1.6457  2.5148
  444MOL0     H59919  -3.387   5.876  -0.075  1.7557 -1.6401 -1.1879
  444MOL0     H59920  -3.273   6.004  -0.268 -0.6812  2.4467 -1.9314
  444MOL0     H59921  -3.243   6.137  -0.180  1.5473 -2.1855 -1.3203
  444MOL0     H59922  -2.776   5.306   0.152  1.3087  2.6354  0.3644
  444MOL0     H59923  -2.524   5.271   0.164 -4.3277  1.9817 -3.4572
  444MOL0     H59924  -2.189   5.054   0.669  0.5178  0.5179  1.1581
  444MOL0     H59925  -1.959   4.980   0.653 -0.1932  0.0030 -0.6817
  444MOL0     H59926  -0.125   4.307   0.560  0.4545  0.2997  0.1114
  444MOL0     H59927   0.095   4.400   0.586  0.9837  0.1209 -1.6351
  444MOL0     H59928   0.342   4.904   0.450 -0.7629 -0.3180  0.1439
  444MOL0     H59929   0.549   4.990   0.376 -1.7237  0.8098 -1.4080
  444MOL0     H59930   0.911   4.964   0.247  1.8719 -0.2399  3.8438
  444MOL0     H59931   0.742   5.015   0.230  0.4260  0.1184  0.5459
  444MOL0     H59932   0.895   4.979   0.488  2.5453 -1.0769 -3.3827
  444MOL0     H59933   0.740   5.073   0.471  0.2996  2.4005  0.4405
  444MOL0     H59934   1.026   5.151   0.389  0.3719  3.0257 -0.7380
  444MOL0     H59935   0.904   5.225   0.492  0.9101  1.1364 -0.3498
  444MOL0     H59936   0.874   5.218   0.189  3.5891  0.5004 -0.0651
  444MOL0     H59937   0.939   5.348   0.287  0.5147 -0.4677 -0.1647
  444MOL0     H59938   0.509   5.364   0.361  0.8359  0.7026  2.7553
  444MOL0     H59939   0.721   4.589   0.369 -0.2248  0.1173 -0.4118
  444MOL0     H59940   0.498   4.504   0.451 -3.7615  0.3635 -0.6824
  445MOL0     O59941   9.502   4.175   9.190  0.2791 -0.0051 -0.4406
  445MOL0     C59942   9.596   4.103   9.197 -0.9353 -0.6260  0.7765
  445MOL0     O59943   9.594   3.962   9.206  0.1260 -0.5284 -0.1389
  445MOL0     C59944   9.480   3.889   9.164 -0.0101 -0.0205 -0.1482
  445MOL0     C59945   9.481   3.753   9.211  0.8940  0.2091 -0.1330
  445MOL0     C59946   9.370   3.669   9.193  0.7572  0.4097 -0.1967
  445MOL0     C59947   9.257   3.716   9.113  0.5380  0.6227 -0.6667
  445MOL0     O59948   9.143   3.641   9.079 -0.2763 -0.0740  0.2660
  445MOL0     C59949   9.127   3.525   9.154  0.3685  0.3666 -0.0984
  445MOL0     C59950   8.981   3.472   9.123  0.5039  0.2321  0.2849
  445MOL0     C59951   8.959   3.423   8.976  0.2914  0.9277 -0.1153
  445MOL0     C59952   8.854   3.307   8.982 -0.1097  0.1510 -0.4481
  445MOL0     C59953   8.702   3.341   9.014 -1.1873 -0.1376  0.4057
  445MOL0     C59954   8.624   3.201   9.023 -0.2410  1.2872 -0.8198
  445MOL0     C59955   8.472   3.217   9.028 -0.5133 -0.3233 -0.1044
  445MOL0     C59956   8.409   3.296   8.914 -0.4863  0.4549 -0.0155
  445MOL0     N59957   8.264   3.306   8.919  0.2791  0.0083  0.2224
  445MOL0     C59958   8.178   3.208   8.963  0.3131  0.0719 -0.0552
  445MOL0     C59959   8.050   3.256   8.940  0.7492  0.5607 -0.3868
  445MOL0     C59960   7.920   3.184   8.972 -0.0924 -0.1499 -0.4968
  445MOL0     C59961   7.828   3.190   8.849 -0.1190 -0.3455  0.5838
  445MOL0     C59962   7.711   3.090   8.829  0.5104  0.1078  0.2851
  445MOL0     C59963   7.600   3.096   8.934  1.0206 -0.0910  0.0204
  445MOL0     O59964   7.490   3.011   8.893  0.4528  0.1845 -0.9406
  445MOL0     C59965   7.395   3.067   8.809  0.1305  0.2517  0.2176
  445MOL0     C59966   7.276   2.996   8.796  0.1244 -0.2529  0.1155
  445MOL0     C59967   7.173   3.045   8.715  0.5475  0.1013 -1.1558
  445MOL0     C59968   7.049   2.968   8.702 -0.4109  1.3404  0.0898
  445MOL0     C59969   7.199   3.158   8.645 -0.3011 -0.0803 -0.1411
  445MOL0     C59970   7.094   3.216   8.550 -0.3336  1.0895  0.3470
  445MOL0     O59971   7.142   3.254   8.428  0.0046  0.4464  0.4835
  445MOL0     C59972   7.058   3.335   8.346  0.0392 -0.1779 -0.0991
  445MOL0     C59973   6.987   3.442   8.389  0.0170 -0.1621  0.4225
  445MOL0     C59974   6.911   3.516   8.297 -0.6615 -0.8729 -0.2171
  445MOL0     C59975   6.905   3.481   8.153  0.3227  0.5506  0.4980
  445MOL0     O59976   6.821   3.534   8.052  0.1037 -0.2451 -0.2996
  445MOL0     C59977   6.717   3.622   8.091 -0.5816  0.2149 -0.5131
  445MOL0     C59978   6.688   3.711   7.972  0.3438  0.0889  0.5397
  445MOL0     C59979   6.607   3.639   7.874  0.7103  0.3361  0.0238
  445MOL0     C59980   6.621   3.693   7.731 -0.4637 -1.3178 -0.5315
  445MOL0     C59981   6.531   3.626   7.621 -0.0315 -0.1826 -0.1584
  445MOL0     C59982   6.379   3.641   7.652  0.0593 -0.1586  0.7422
  445MOL0     C59983   6.307   3.534   7.574 -0.0620  0.7003  0.0032
  445MOL0     C59984   6.159   3.525   7.605 -0.1343 -0.8789 -0.0266
  445MOL0    Cl59985   6.130   3.543   7.776  0.4102 -0.4958  0.5294
  445MOL0     C59986   6.993   3.381   8.115 -0.1515  0.8125  0.8020
  445MOL0     C59987   7.073   3.312   8.210  0.0186  0.5748 -0.2393
  445MOL0     O59988   6.979   3.225   8.588  0.2161  0.2947 -0.0402
  445MOL0     C59989   7.313   3.230   8.663  0.2211  0.4934 -0.0240
  445MOL0     C59990   7.407   3.195   8.750 -0.1838 -0.6965 -0.1992
  445MOL0     N59991   8.059   3.386   8.908  0.0347 -0.2662  0.5156
  445MOL0     N59992   8.183   3.413   8.895 -0.3079  0.7252 -0.0614
  445MOL0     C59993   9.254   3.848   9.082  0.2406 -0.0989 -0.0027
  445MOL0     C59994   9.359   3.935   9.103  0.2899 -0.9106  0.1004
  445MOL0     C59995   9.728   4.163   9.188  0.3731 -0.6194  0.7114
  445MOL0     C59996   9.843   4.103   9.232 -1.0151  0.3830 -0.2776
  445MOL0     C59997   9.964   4.169   9.248 -0.2424 -1.0226  0.1259
  445MOL0     C59998   9.973   4.299   9.195  0.3050 -0.0582 -0.2500
  445MOL0     O59999  10.089   4.361   9.163  0.4712 -0.0148 -0.4327
  445MOL0     C60000  10.223   4.310   9.200  0.4944 -0.2484 -0.5567
  445MOL0     C60001  10.334   4.400   9.187 -0.1290 -0.3272  0.1803
  445MOL0     C60002  10.476   4.329   9.194 -0.0567 -0.3939  0.6889
  445MOL0     C60003  10.574   4.424   9.136 -0.0085  0.3192  0.5451
  445MOL0     C60004  10.703   4.386   9.193 -0.0892 -0.5815 -0.8183
  445MOL0     C60005  10.810   4.334   9.212 -0.1833  0.2406 -1.1026
  445MOL0     C60006   9.866   4.360   9.147  0.4792 -0.6549  1.1616
  445MOL0     C60007   9.738   4.301   9.145 -0.5402 -1.6319 -0.9618
  445MOL0     H60008   9.568   3.720   9.268  2.9602  2.2275 -1.9017
  445MOL0     H60009   9.366   3.569   9.235 -0.4306 -0.6176 -2.5728
  445MOL0     H60010   9.197   3.449   9.117  0.2953  0.2808 -0.0594
  445MOL0     H60011   9.147   3.532   9.261 -1.0622  1.5004  0.1244
  445MOL0     H60012   8.963   3.395   9.198 -2.4235  0.1337 -0.3909
  445MOL0     H60013   8.919   3.561   9.138  2.5372  2.0398 -1.2608
  445MOL0     H60014   8.922   3.511   8.922 -0.4569  0.9493  0.4260
  445MOL0     H60015   9.047   3.380   8.927 -0.8044 -1.5733 -0.0426
  445MOL0     H60016   8.859   3.249   8.889 -2.0002  0.6659 -0.9005
  445MOL0     H60017   8.881   3.231   9.056  0.9209  1.3072  0.4191
  445MOL0     H60018   8.683   3.399   9.104 -1.7749 -1.0287  0.8728
  445MOL0     H60019   8.663   3.389   8.924 -2.9848 -1.4861  0.4123
  445MOL0     H60020   8.661   3.140   8.940 -0.8854  1.5123 -1.2798
  445MOL0     H60021   8.645   3.141   9.112  0.1687 -0.8850 -2.2930
  445MOL0     H60022   8.432   3.116   9.046 -1.3722  0.4330  2.8424
  445MOL0     H60023   8.432   3.272   9.114 -1.2586 -0.0409 -0.6203
  445MOL0     H60024   8.432   3.254   8.816 -0.0407  0.2484  0.1723
  445MOL0     H60025   8.449   3.398   8.913  0.0487  0.2442 -0.8293
  445MOL0     H60026   8.203   3.108   8.995  0.0294  0.6911  2.3444
  445MOL0     H60027   7.944   3.078   8.989 -1.0030 -0.2097  0.5499
  445MOL0     H60028   7.868   3.222   9.060  0.8766 -0.0051  0.0367
  445MOL0     H60029   7.888   3.182   8.758 -0.5671 -0.5178  0.2994
  445MOL0     H60030   7.777   3.286   8.853 -1.2138 -0.8454 -0.6357
  445MOL0     H60031   7.743   2.985   8.835 -1.5521 -0.5059  1.9595
  445MOL0     H60032   7.673   3.105   8.727  0.9899 -2.6525 -0.4035
  445MOL0     H60033   7.567   3.195   8.967  0.4456 -0.3520  0.2525
  445MOL0     H60034   7.641   3.056   9.027  0.1747  0.8608  0.8422
  445MOL0     H60035   7.254   2.900   8.841 -1.7070 -0.0914 -0.3447
  445MOL0     H60036   7.056   2.879   8.765  1.2791 -0.0169 -1.9107
  445MOL0     H60037   6.954   3.012   8.734 -1.4276 -0.8322  0.2103
  445MOL0     H60038   7.040   2.939   8.597  0.0650  1.3973  0.0304
  445MOL0     H60039   6.990   3.481   8.490  1.0033 -2.5116  1.3580
  445MOL0     H60040   6.866   3.604   8.343  1.1123 -0.3722  0.6312
  445MOL0     H60041   6.630   3.571   8.133  0.6449 -2.1318 -0.6142
  445MOL0     H60042   6.749   3.690   8.170 -1.7228 -0.8747  0.9403
  445MOL0     H60043   6.646   3.807   8.004 -1.8963 -1.1669  1.6209
  445MOL0     H60044   6.787   3.724   7.929 -0.1409  0.3320 -0.5439
  445MOL0     H60045   6.503   3.643   7.908  0.9999 -0.3451  1.0309
  445MOL0     H60046   6.649   3.539   7.871  3.3042  1.3583 -0.6140
  445MOL0     H60047   6.600   3.799   7.748  1.2266 -1.1963  1.0853
  445MOL0     H60048   6.722   3.685   7.692 -0.2340  2.1212 -0.9858
  445MOL0     H60049   6.552   3.520   7.608 -2.3225 -0.4310 -2.6855
  445MOL0     H60050   6.562   3.664   7.524 -0.4069  0.7129  0.0586
  445MOL0     H60051   6.364   3.640   7.760 -0.1749 -0.8084  0.7044
  445MOL0     H60052   6.328   3.736   7.632 -0.6985 -0.1011  2.8035
  445MOL0     H60053   6.337   3.430   7.589 -2.2296 -0.7634 -4.1962
  445MOL0     H60054   6.318   3.553   7.467 -1.6313  0.2895 -0.2547
  445MOL0     H60055   6.108   3.435   7.569 -1.4843  0.1207 -0.7391
  445MOL0     H60056   6.112   3.609   7.552 -1.8579 -1.2625  0.8503
  445MOL0     H60057   7.008   3.355   8.011  1.3615  1.2766  0.8893
  445MOL0     H60058   7.152   3.242   8.183  1.9625  2.1782  0.9728
  445MOL0     H60059   7.344   3.322   8.615  3.8813  0.1875  1.4147
  445MOL0     H60060   7.498   3.253   8.761 -0.3184  0.2811 -3.3820
  445MOL0     H60061   9.167   3.902   9.046  0.3205 -0.1643 -0.2927
  445MOL0     H60062   9.352   4.039   9.073  0.2938 -1.4853 -2.0291
  445MOL0     H60063   9.843   4.000   9.265  3.9816  0.5414  0.9756
  445MOL0     H60064  10.053   4.115   9.281 -0.0983 -2.0229 -1.6973
  445MOL0     H60065  10.223   4.270   9.301  2.4178 -0.8953 -0.7748
  445MOL0     H60066  10.242   4.226   9.132 -2.1515 -0.2706 -1.3883
  445MOL0     H60067  10.320   4.477   9.264 -4.1210 -1.2987  0.6463
  445MOL0     H60068  10.325   4.451   9.091 -2.1719 -0.5133  0.2164
  445MOL0     H60069  10.483   4.237   9.136  3.9898  0.4288 -0.4048
  445MOL0     H60070  10.493   4.299   9.298  0.6183 -0.9306  0.4308
  445MOL0     H60071  10.550   4.527   9.161 -2.2371  0.1671 -0.7216
  445MOL0     H60072  10.579   4.412   9.027 -0.0303 -1.4008  0.7028
  445MOL0     H60073  10.897   4.271   9.211 -0.2903  0.0885 -0.9975
  445MOL0     H60074   9.878   4.465   9.124 -2.6504 -0.6075 -0.7770
  445MOL0     H60075   9.648   4.361   9.140 -0.0652  0.0328  4.1700
  446MOL0     O60076   0.820   2.554   0.928  0.0338  0.1305  0.3508
  446MOL0     C60077   0.885   2.605   1.025 -0.1593 -0.0721 -0.1821
  446MOL0     O60078   0.832   2.657   1.140  0.1217  0.0949 -0.2940
  446MOL0     C60079   0.699   2.657   1.161  0.1382  0.0438  0.4511
  446MOL0     C60080   0.635   2.578   1.251  0.4489 -0.6292 -0.0086
  446MOL0     C60081   0.497   2.568   1.251  1.1056  0.9769  0.4054
  446MOL0     C60082   0.422   2.642   1.165  0.4624 -0.6627  0.1786
  446MOL0     O60083   0.288   2.629   1.169  0.1175 -0.0352 -0.1823
  446MOL0     C60084   0.195   2.742   1.160 -0.2992  1.1370  0.1126
  446MOL0     C60085   0.065   2.708   1.232  0.5776 -0.1281  0.1251
  446MOL0     C60086  -0.021   2.616   1.154 -0.2957 -0.2390  0.1584
  446MOL0     C60087  -0.144   2.574   1.231 -0.3232 -0.3048 -0.2605
  446MOL0     C60088  -0.250   2.487   1.152 -0.3136  0.1385 -0.4248
  446MOL0     C60089  -0.372   2.471   1.233 -0.3230  1.3393 -0.0884
  446MOL0     C60090  -0.456   2.360   1.164  0.3491  0.4443 -0.1111
  446MOL0     C60091  -0.541   2.291   1.276 -0.2909 -0.6651 -0.7101
  446MOL0     N60092  -0.621   2.173   1.231  0.2718  0.3774  0.3936
  446MOL0     C60093  -0.562   2.081   1.142 -0.1927  0.4929 -0.2611
  446MOL0     C60094  -0.652   1.975   1.143  0.5860  0.0272  1.1776
  446MOL0     C60095  -0.640   1.837   1.094  0.2783  0.6349  0.1860
  446MOL0     C60096  -0.676   1.832   0.951 -0.1835 -1.0708 -0.2903
  446MOL0     C60097  -0.654   1.687   0.903  0.8386  0.2135 -0.4499
  446MOL0     C60098  -0.675   1.668   0.751 -0.1223  0.2937 -0.3504
  446MOL0     O60099  -0.805   1.719   0.702 -0.6082  0.1652 -0.1214
  446MOL0     C60100  -0.924   1.652   0.715  0.1160  0.5520 -0.5109
  446MOL0     C60101  -1.034   1.682   0.645  0.1710  0.0098  0.5785
  446MOL0     C60102  -1.159   1.623   0.658  0.0256  0.3079  0.1171
  446MOL0     C60103  -1.268   1.683   0.575 -0.1861 -0.5730  0.5606
  446MOL0     C60104  -1.174   1.514   0.744 -0.1271 -0.6228  0.0670
  446MOL0     C60105  -1.297   1.443   0.770  0.0259  0.1705  0.7114
  446MOL0     O60106  -1.321   1.410   0.903 -0.3039  0.0995  0.4193
  446MOL0     C60107  -1.449   1.350   0.917  0.1909  0.4115 -0.6252
  446MOL0     C60108  -1.563   1.420   0.940  0.3219  0.2126  0.0247
  446MOL0     C60109  -1.684   1.354   0.987 -0.5668  0.0218  1.1692
  446MOL0     C60110  -1.707   1.215   0.976 -0.4112 -0.1723  0.6351
  446MOL0     O60111  -1.824   1.149   0.986 -0.0055  0.1692  0.1703
  446MOL0     C60112  -1.947   1.221   0.997 -0.1072  0.1301  0.6867
  446MOL0     C60113  -2.068   1.121   0.963  0.6211 -0.0390  0.4959
  446MOL0     C60114  -2.056   1.028   0.834 -0.2218 -0.3332 -0.3355
  446MOL0     C60115  -2.005   1.097   0.703 -0.1529  0.2986 -0.0836
  446MOL0     C60116  -1.982   0.991   0.592 -0.0936  0.4319  0.2207
  446MOL0     C60117  -1.912   1.043   0.459 -0.5854  0.2794  0.0245
  446MOL0     C60118  -1.864   0.929   0.377 -0.1002 -0.0188 -0.8561
  446MOL0     C60119  -1.801   0.971   0.239  0.7512  0.2130 -0.3630
  446MOL0    Cl60120  -1.788   0.826   0.147  0.2990  0.2451  0.1993
  446MOL0     C60121  -1.592   1.139   0.945  0.2251  0.1005  0.1019
  446MOL0     C60122  -1.470   1.210   0.912  0.4256  0.0991  0.3159
  446MOL0     O60123  -1.360   1.398   0.664  0.7417  0.1713  0.1017
  446MOL0     C60124  -1.068   1.490   0.832 -0.7026  0.8045 -1.4571
  446MOL0     C60125  -0.944   1.547   0.812  0.5661 -0.8413  0.0101
  446MOL0     N60126  -0.758   2.009   1.227 -0.3025 -0.2221 -0.2572
  446MOL0     N60127  -0.741   2.127   1.262 -0.6131 -0.3938 -0.5963
  446MOL0     C60128   0.485   2.736   1.085 -0.1458 -0.0453  0.0563
  446MOL0     C60129   0.625   2.736   1.073 -0.3767  0.2501  0.2863
  446MOL0     C60130   1.024   2.646   1.007 -0.2980 -0.2752 -0.0339
  446MOL0     C60131   1.086   2.735   1.092 -0.2691 -0.0208 -0.9614
  446MOL0     C60132   1.220   2.780   1.077  1.2682 -0.7029 -0.8633
  446MOL0     C60133   1.302   2.721   0.982  0.0209 -0.2582 -0.7538
  446MOL0     O60134   1.440   2.750   0.968  0.2077 -0.2456  0.1961
  446MOL0     C60135   1.527   2.781   1.076  0.6326  0.5858  1.2401
  446MOL0     C60136   1.549   2.933   1.076 -0.0986 -0.7262  0.0483
  446MOL0     C60137   1.612   2.982   0.939  0.3847  0.2678 -0.4332
  446MOL0     C60138   1.690   3.115   0.948 -0.1821  0.1019 -0.1162
  446MOL0     C60139   1.629   3.218   1.029  0.7591  0.7650 -0.4121
  446MOL0     C60140   1.568   3.303   1.092  0.0764  0.0377  0.3584
  446MOL0     C60141   1.244   2.621   0.908  0.2850 -0.4228  0.3459
  446MOL0     C60142   1.110   2.587   0.910  0.4529  0.3849  0.0227
  446MOL0     H60143   0.697   2.544   1.333  3.0324  1.5503 -0.9038
  446MOL0     H60144   0.446   2.504   1.322 -0.0013  0.1491 -1.0779
  446MOL0     H60145   0.242   2.834   1.195  1.2024 -0.3127  2.2160
  446MOL0     H60146   0.179   2.750   1.053  1.2968 -0.1674 -0.2736
  446MOL0     H60147   0.094   2.665   1.328  1.1098 -3.9872 -1.6115
  446MOL0     H60148   0.010   2.801   1.249  3.4338  1.4700  1.2513
  446MOL0     H60149  -0.056   2.663   1.062 -0.6987 -1.4707 -0.3407
  446MOL0     H60150   0.032   2.526   1.122  0.7598  1.4290 -3.2472
  446MOL0     H60151  -0.117   2.511   1.317 -2.0360 -1.6063 -0.6114
  446MOL0     H60152  -0.199   2.656   1.279 -0.2808  0.6587 -1.8163
  446MOL0     H60153  -0.284   2.545   1.066 -2.4520  0.6627  0.7052
  446MOL0     H60154  -0.197   2.394   1.130 -0.5135  0.4455 -2.3953
  446MOL0     H60155  -0.338   2.428   1.328  0.6636 -1.2255 -1.4968
  446MOL0     H60156  -0.421   2.565   1.260 -0.5461  1.3217 -0.4211
  446MOL0     H60157  -0.516   2.427   1.101  2.7974  0.1618 -2.9473
  446MOL0     H60158  -0.397   2.281   1.117 -0.7777 -1.8896  2.1758
  446MOL0     H60159  -0.619   2.354   1.321  1.7281  1.1404  0.4791
  446MOL0     H60160  -0.482   2.261   1.364 -0.5958 -0.6938 -0.5134
  446MOL0     H60161  -0.458   2.075   1.111  0.3351  0.0899  1.4811
  446MOL0     H60162  -0.546   1.785   1.112 -0.5413 -0.3912  1.7623
  446MOL0     H60163  -0.715   1.775   1.143  0.4440  0.1652 -0.1524
  446MOL0     H60164  -0.602   1.893   0.897  1.3587 -2.1656  0.5072
  446MOL0     H60165  -0.777   1.864   0.923 -0.9701 -3.3557 -0.2720
  446MOL0     H60166  -0.718   1.618   0.959 -0.0015  0.6947 -0.7890
  446MOL0     H60167  -0.553   1.649   0.922 -0.8638 -3.0490  3.7150
  446MOL0     H60168  -0.671   1.564   0.716 -4.6691 -0.8657  1.9234
  446MOL0     H60169  -0.601   1.729   0.698  0.4754 -0.6025 -0.5646
  446MOL0     H60170  -1.021   1.752   0.563 -4.5078 -1.0230 -1.3730
  446MOL0     H60171  -1.316   1.620   0.499 -3.3112  3.7574 -1.4855
  446MOL0     H60172  -1.348   1.725   0.637  0.3683  0.2194  0.7523
  446MOL0     H60173  -1.243   1.770   0.513  0.0988 -0.6388  0.5830
  446MOL0     H60174  -1.559   1.527   0.924 -0.0572  0.2960  0.4410
  446MOL0     H60175  -1.756   1.425   1.026 -0.9973 -1.8798  4.1618
  446MOL0     H60176  -1.957   1.249   1.102 -0.6388  0.6611  0.4963
  446MOL0     H60177  -1.954   1.306   0.929  0.7154  0.2460  0.7401
  446MOL0     H60178  -2.074   1.052   1.047 -0.3755  1.4103  1.6703
  446MOL0     H60179  -2.155   1.188   0.969  0.2831 -0.2977 -1.1076
  446MOL0     H60180  -2.151   0.982   0.807 -0.6449  0.6496 -0.5832
  446MOL0     H60181  -1.993   0.941   0.852 -2.7995 -1.9638  1.5618
  446MOL0     H60182  -2.079   1.166   0.661  2.8253  2.3241 -2.4697
  446MOL0     H60183  -1.915   1.152   0.730 -0.2813  1.3392 -1.6307
  446MOL0     H60184  -2.070   0.927   0.579  0.4826 -0.5988  1.2534
  446MOL0     H60185  -1.903   0.932   0.638 -0.1154  1.1074  1.1513
  446MOL0     H60186  -1.990   1.103   0.409 -1.1309 -1.0844 -0.8063
  446MOL0     H60187  -1.832   1.112   0.487 -0.9105  0.6494  0.0553
  446MOL0     H60188  -1.954   0.867   0.366 -1.2955  1.2912  1.0808
  446MOL0     H60189  -1.792   0.866   0.430  0.6610  0.6494 -1.0785
  446MOL0     H60190  -1.704   1.022   0.244  0.3051  1.0801 -0.4401
  446MOL0     H60191  -1.867   1.037   0.182 -0.3252 -1.3336 -0.9866
  446MOL0     H60192  -1.587   1.031   0.932 -0.2850  0.1051 -0.1538
  446MOL0     H60193  -1.383   1.153   0.883 -0.9793 -0.7210 -2.6727
  446MOL0     H60194  -1.088   1.417   0.910 -2.2990  2.8120  0.1119
  446MOL0     H60195  -0.872   1.516   0.887  0.8666  1.0320  0.5346
  446MOL0     H60196   0.437   2.808   1.020  1.1555  1.1196  0.3654
  446MOL0     H60197   0.677   2.802   1.005  0.2521  1.4695  1.8661
  446MOL0     H60198   1.026   2.786   1.166 -0.9431 -1.8322 -0.2278
  446MOL0     H60199   1.260   2.855   1.145  0.7059 -1.7488  0.6814
  446MOL0     H60200   1.502   2.742   1.175  1.8508 -0.8871  1.0051
  446MOL0     H60201   1.623   2.732   1.059  0.5924  0.7899  0.3839
  446MOL0     H60202   1.618   2.956   1.159 -1.8302  4.2856  0.4254
  446MOL0     H60203   1.455   2.982   1.100 -0.3572 -0.2972 -1.7183
  446MOL0     H60204   1.530   3.003   0.870  1.0547 -0.5224 -1.5078
  446MOL0     H60205   1.670   2.900   0.895  3.0216  0.5391  2.2299
  446MOL0     H60206   1.705   3.153   0.847  1.3456 -2.5360 -0.9761
  446MOL0     H60207   1.785   3.094   0.998 -1.2899  2.4674  3.4255
  446MOL0     H60208   1.506   3.375   1.142 -1.2796  1.1904 -2.6843
  446MOL0     H60209   1.316   2.588   0.834  0.2454  1.1762 -0.4639
  446MOL0     H60210   1.081   2.504   0.846  0.1208 -1.4208  2.3876
  447MOL0     O60211   6.000   7.089   8.828 -0.3783  0.2837  0.3465
  447MOL0     C60212   6.058   7.198   8.810  0.5257 -0.1511 -0.0090
  447MOL0     O60213   6.051   7.272   8.699  0.1731 -0.2436 -0.2043
  447MOL0     C60214   5.958   7.246   8.601 -0.6075 -0.5140  0.5828
  447MOL0     C60215   5.832   7.187   8.610 -0.8104 -0.9550  0.3240
  447MOL0     C60216   5.746   7.181   8.496  0.6170  0.7181  0.4792
  447MOL0     C60217   5.779   7.226   8.369  0.6495 -0.2606  0.1732
  447MOL0     O60218   5.692   7.204   8.264  0.2751 -0.5440  0.8018
  447MOL0     C60219   5.717   7.280   8.142 -0.8496 -0.6478 -0.2465
  447MOL0     C60220   5.598   7.266   8.042  0.5111 -0.3458  0.2941
  447MOL0     C60221   5.487   7.368   8.089 -0.2516 -0.3932 -0.1236
  447MOL0     C60222   5.382   7.399   7.980  0.4924  0.4692  0.3538
  447MOL0     C60223   5.259   7.468   8.030  0.1899 -0.4094 -0.6126
  447MOL0     C60224   5.294   7.629   8.052  0.3291  0.3574  0.2826
  447MOL0     C60225   5.150   7.688   8.080  0.0819  1.1058  0.9912
  447MOL0     C60226   5.148   7.832   8.133  0.1652 -0.8437  0.0046
  447MOL0     N60227   5.009   7.875   8.132  0.6300  0.5817 -0.9824
  447MOL0     C60228   4.914   7.866   8.032  0.8119 -0.2019 -0.5348
  447MOL0     C60229   4.799   7.915   8.089 -0.7768  0.3316 -0.0740
  447MOL0     C60230   4.677   7.943   8.015  0.5278  0.9139 -0.5997
  447MOL0     C60231   4.602   7.809   7.986 -0.0879  0.1649 -1.4222
  447MOL0     C60232   4.525   7.773   8.114  0.1181  0.6884  0.8126
  447MOL0     C60233   4.390   7.837   8.112  0.2206  0.5010 -0.7013
  447MOL0     O60234   4.315   7.823   8.230 -0.3080 -0.6791  0.2331
  447MOL0     C60235   4.194   7.881   8.229  1.0909 -0.1963  0.4392
  447MOL0     C60236   4.134   7.887   8.356  0.0942 -0.5752 -0.5332
  447MOL0     C60237   4.014   7.957   8.388  0.2641 -0.7850  0.0762
  447MOL0     C60238   3.958   7.961   8.527  0.4586  1.0202  0.1327
  447MOL0     C60239   3.948   8.021   8.282 -0.0040 -0.3841  0.2383
  447MOL0     C60240   3.819   8.091   8.301 -0.0033 -0.2218  0.1874
  447MOL0     O60241   3.724   8.073   8.200  0.6281 -0.4572  0.7643
  447MOL0     C60242   3.602   8.125   8.202  1.1997  0.1613  0.0365
  447MOL0     C60243   3.546   8.142   8.077 -0.1242 -0.1092 -0.1103
  447MOL0     C60244   3.418   8.203   8.062 -0.3820  0.3170  0.9842
  447MOL0     C60245   3.358   8.254   8.177  0.8990  0.2988 -0.0196
  447MOL0     O60246   3.247   8.327   8.152 -0.2937 -0.9189 -0.0426
  447MOL0     C60247   3.244   8.464   8.193 -0.0171  0.1430 -0.1022
  447MOL0     C60248   3.121   8.526   8.113 -0.6935 -0.2054  0.0624
  447MOL0     C60249   2.982   8.478   8.163 -0.7802 -0.6712  0.0380
  447MOL0     C60250   2.864   8.531   8.081 -0.2958 -0.2399 -0.7395
  447MOL0     C60251   2.728   8.545   8.150  0.4294  0.0986  0.1334
  447MOL0     C60252   2.617   8.563   8.050 -0.0905  0.1158  0.5612
  447MOL0     C60253   2.492   8.599   8.129  0.5498  0.5296 -0.4026
  447MOL0     C60254   2.489   8.739   8.169 -1.0911 -0.6174  0.0922
  447MOL0    Cl60255   2.350   8.770   8.287 -0.0984 -0.0730 -0.2082
  447MOL0     C60256   3.415   8.233   8.298 -0.4677  0.1379 -0.4094
  447MOL0     C60257   3.527   8.157   8.317 -0.4774 -0.1946 -0.3954
  447MOL0     O60258   3.817   8.177   8.395  0.2020  0.0680  0.2102
  447MOL0     C60259   4.004   8.005   8.149 -0.4722  0.1301 -0.1447
  447MOL0     C60260   4.128   7.943   8.124  0.8204 -0.6614  0.3345
  447MOL0     N60261   4.818   7.947   8.221 -0.2411  0.1122  0.0350
  447MOL0     N60262   4.943   7.927   8.236  0.5358  0.2731  0.3179
  447MOL0     C60263   5.907   7.287   8.359  0.6425  1.3016 -0.8054
  447MOL0     C60264   5.992   7.304   8.472  0.6624 -0.2884  0.4973
  447MOL0     C60265   6.152   7.238   8.916 -0.2068  0.4957 -0.3129
  447MOL0     C60266   6.143   7.178   9.042 -0.3492 -0.1862 -0.1396
  447MOL0     C60267   6.229   7.222   9.145  0.9837 -0.0647 -0.7186
  447MOL0     C60268   6.322   7.319   9.123 -0.1918  0.5743  0.2419
  447MOL0     O60269   6.391   7.371   9.219 -0.3619 -0.0376 -0.5413
  447MOL0     C60270   6.337   7.364   9.357  0.4286 -0.4667 -0.4179
  447MOL0     C60271   6.429   7.453   9.445 -0.1010  0.7146 -0.2142
  447MOL0     C60272   6.552   7.365   9.477  0.2152  0.0715 -0.0296
  447MOL0     C60273   6.671   7.440   9.542 -0.2860  0.2503 -0.1653
  447MOL0     C60274   6.737   7.530   9.458 -0.3496  0.7097  0.3148
  447MOL0     C60275   6.788   7.617   9.393  0.5428  0.5948  0.1184
  447MOL0     C60276   6.349   7.363   8.993 -0.6184  0.1711 -0.5349
  447MOL0     C60277   6.257   7.330   8.895 -0.1855  0.1740 -0.0575
  447MOL0     H60278   5.798   7.148   8.706  1.4808 -2.6638  0.5260
  447MOL0     H60279   5.649   7.131   8.490  1.4920 -1.1566  1.1609
  447MOL0     H60280   5.740   7.386   8.150  1.6376 -0.9560 -2.1513
  447MOL0     H60281   5.804   7.233   8.095  1.0057  0.2418  2.0658
  447MOL0     H60282   5.629   7.290   7.940  1.8925  0.3100  0.8373
  447MOL0     H60283   5.550   7.168   8.037 -2.3429  0.9682  0.1966
  447MOL0     H60284   5.433   7.323   8.173  1.4391  0.7220  1.6726
  447MOL0     H60285   5.528   7.460   8.133  0.7195 -1.2613  0.8472
  447MOL0     H60286   5.419   7.454   7.893  1.4783  0.4019  0.7079
  447MOL0     H60287   5.366   7.300   7.935  2.8626  0.2243 -0.1279
  447MOL0     H60288   5.173   7.443   7.967  0.1075 -0.1492 -0.6058
  447MOL0     H60289   5.232   7.444   8.134 -2.9189  2.0260 -0.7160
  447MOL0     H60290   5.371   7.634   8.129  1.4646 -1.4403 -0.6675
  447MOL0     H60291   5.339   7.662   7.958 -1.6831 -3.0818 -2.1592
  447MOL0     H60292   5.095   7.692   7.986  1.2579  1.1437  0.2844
  447MOL0     H60293   5.099   7.623   8.152 -0.1685  1.8388  1.4776
  447MOL0     H60294   5.207   7.904   8.075 -1.4533  1.1153  0.6813
  447MOL0     H60295   5.201   7.833   8.228  1.4080  0.5716 -0.6671
  447MOL0     H60296   4.920   7.836   7.927  1.8786 -2.0805  0.0196
  447MOL0     H60297   4.618   8.021   8.065 -4.1206 -2.5215 -0.0642
  447MOL0     H60298   4.689   7.987   7.916  1.3801  0.1736 -0.8401
  447MOL0     H60299   4.670   7.727   7.959 -0.5340 -0.2247 -1.3724
  447MOL0     H60300   4.533   7.831   7.904 -2.0349 -0.7847 -0.1257
  447MOL0     H60301   4.585   7.789   8.204  1.6877  2.7366 -0.5160
  447MOL0     H60302   4.496   7.668   8.104  1.0255  0.5145 -0.1732
  447MOL0     H60303   4.320   7.800   8.036  0.0551  1.1850 -0.8865
  447MOL0     H60304   4.402   7.944   8.093  0.3638  0.4296 -1.0222
  447MOL0     H60305   4.181   7.831   8.437 -0.4648  3.7358  3.1794
  447MOL0     H60306   4.011   7.885   8.586  0.7779 -0.0081 -1.4021
  447MOL0     H60307   3.972   8.063   8.563 -0.5336  0.8453  1.0523
  447MOL0     H60308   3.852   7.937   8.536  1.0688 -1.3769  1.7190
  447MOL0     H60309   3.607   8.117   7.991  0.0123 -0.8650  0.1949
  447MOL0     H60310   3.380   8.234   7.965 -0.0780 -0.4075  0.6230
  447MOL0     H60311   3.239   8.484   8.301 -1.2802  0.4871 -0.2068
  447MOL0     H60312   3.334   8.504   8.145  0.0258 -0.2529 -0.3558
  447MOL0     H60313   3.119   8.635   8.123 -0.2414 -0.3231  1.6766
  447MOL0     H60314   3.137   8.511   8.006  0.3326  0.3669  0.1163
  447MOL0     H60315   2.971   8.493   8.270  2.0529  2.7572  0.0220
  447MOL0     H60316   2.986   8.370   8.150 -1.9200 -0.8530  1.0552
  447MOL0     H60317   2.892   8.620   8.024 -0.7169  0.0906 -0.4372
  447MOL0     H60318   2.840   8.454   8.006 -2.0066  0.2131 -0.7178
  447MOL0     H60319   2.739   8.621   8.228 -1.1986 -0.7239  1.2049
  447MOL0     H60320   2.718   8.459   8.217 -0.7833  0.8899  1.0256
  447MOL0     H60321   2.636   8.638   7.973 -1.0470  0.6654  0.8384
  447MOL0     H60322   2.607   8.467   7.999  0.9615  0.9426 -1.2976
  447MOL0     H60323   2.492   8.539   8.220  2.5114 -3.0383 -2.5494
  447MOL0     H60324   2.399   8.562   8.085  0.1486  3.0439 -1.8918
  447MOL0     H60325   2.475   8.797   8.077  2.8510  1.4769  0.5862
  447MOL0     H60326   2.586   8.773   8.205 -0.5563 -0.7655 -1.1632
  447MOL0     H60327   3.368   8.271   8.388  0.0534 -0.5663  0.1603
  447MOL0     H60328   3.571   8.116   8.407  2.9469 -3.7569 -3.2982
  447MOL0     H60329   3.948   8.031   8.060 -1.2956 -2.3998 -0.4567
  447MOL0     H60330   4.158   7.915   8.023 -0.8017  0.3214 -0.4504
  447MOL0     H60331   5.942   7.318   8.261  0.4625  1.9419 -0.6729
  447MOL0     H60332   6.091   7.347   8.456  1.3819 -1.8170  0.6931
  447MOL0     H60333   6.066   7.105   9.062 -0.6957  0.1827 -0.1215
  447MOL0     H60334   6.219   7.168   9.238 -0.2284  0.5116 -0.5008
  447MOL0     H60335   6.234   7.402   9.351  0.1742 -1.0131  0.2199
  447MOL0     H60336   6.330   7.261   9.394 -0.8621 -0.3687 -0.3286
  447MOL0     H60337   6.385   7.474   9.542 -1.5974 -1.3681 -0.3628
  447MOL0     H60338   6.451   7.546   9.392  2.1600 -0.2903 -1.1740
  447MOL0     H60339   6.590   7.315   9.387 -0.7631  2.0111 -1.5818
  447MOL0     H60340   6.520   7.286   9.547  0.9234 -1.4782 -1.3763
  447MOL0     H60341   6.739   7.356   9.563  0.0094  0.7071  0.7553
  447MOL0     H60342   6.641   7.482   9.639  0.6405 -0.7191  0.5700
  447MOL0     H60343   6.823   7.694   9.328  4.6045  0.1029  1.4338
  447MOL0     H60344   6.433   7.431   8.982  0.1972 -0.2253  2.3724
  447MOL0     H60345   6.264   7.380   8.799 -0.1755  0.2322 -0.0269
  448MOL0     O60346  10.427   2.474   2.541 -0.1849  0.3626 -0.9223
  448MOL0     C60347  10.377   2.379   2.485  0.0542  0.7882 -0.1859
  448MOL0     O60348  10.441   2.262   2.445  1.1346  0.7947  0.5706
  448MOL0     C60349  10.574   2.272   2.441 -1.0640  0.0457  0.6644
  448MOL0     C60350  10.643   2.163   2.491  0.1633 -0.0969  0.1834
  448MOL0     C60351  10.785   2.151   2.478 -1.0840 -0.4154 -0.1590
  448MOL0     C60352  10.865   2.258   2.430  0.6655  0.9023  0.5580
  448MOL0     O60353  11.000   2.260   2.423 -0.3845 -0.3673 -0.0696
  448MOL0     C60354  11.068   2.133   2.408 -0.0457 -0.1215  0.3168
  448MOL0     C60355  11.218   2.157   2.412 -0.3044 -1.0263 -0.1448
  448MOL0     C60356  11.286   2.024   2.379 -0.0603  0.2293  0.9150
  448MOL0     C60357  11.428   2.012   2.433 -0.2547 -0.1022  0.0095
  448MOL0     C60358  11.487   1.873   2.451 -0.8286 -0.1846 -0.0643
  448MOL0     C60359  11.618   1.896   2.527  0.1454  0.2590 -0.6541
  448MOL0     C60360  11.702   1.769   2.538 -0.5996  0.7208 -0.3709
  448MOL0     C60361  11.632   1.636   2.593 -0.1103  0.6157  0.6914
  448MOL0     N60362  11.568   1.652   2.724 -0.8438  0.0704  0.4507
  448MOL0     C60363  11.629   1.726   2.827 -0.2381  0.2066  0.0656
  448MOL0     C60364  11.533   1.733   2.924  0.5748  0.0314 -0.5724
  448MOL0     C60365  11.557   1.776   3.061 -0.2377  0.7973 -0.0162
  448MOL0     C60366  11.437   1.844   3.126  0.3774 -0.3328 -1.0393
  448MOL0     C60367  11.333   1.737   3.172  0.2926  0.8203 -0.0653
  448MOL0     C60368  11.191   1.796   3.171 -0.3433  0.7931  0.1522
  448MOL0     O60369  11.100   1.718   3.252  0.5504 -0.0858 -0.3198
  448MOL0     C60370  11.052   1.604   3.194  0.1350 -0.1614  0.2584
  448MOL0     C60371  11.082   1.549   3.064  0.0425 -0.3028  0.0450
  448MOL0     C60372  11.026   1.427   3.019  0.2776  0.0283 -0.3409
  448MOL0     C60373  11.093   1.363   2.900 -0.7698  0.8309  0.2629
  448MOL0     C60374  10.915   1.379   3.089 -0.2921 -0.3384 -0.5276
  448MOL0     C60375  10.824   1.283   3.026  0.2952  0.4798  0.4674
  448MOL0     O60376  10.814   1.290   2.890 -0.6264 -0.3505  0.4222
  448MOL0     C60377  10.719   1.222   2.822 -0.1080 -0.2822 -0.5191
  448MOL0     C60378  10.592   1.184   2.867 -0.2524  0.2699 -0.4881
  448MOL0     C60379  10.504   1.113   2.790  0.8455  0.5365 -0.5771
  448MOL0     C60380  10.541   1.063   2.663  0.1773  0.1302  0.1112
  448MOL0     O60381  10.458   0.980   2.585  0.3232 -0.7441  0.2544
  448MOL0     C60382  10.327   0.958   2.636 -0.2315 -0.2186  0.1608
  448MOL0     C60383  10.257   0.853   2.568 -0.0348  0.5549 -0.0880
  448MOL0     C60384  10.103   0.865   2.585 -0.0056 -0.2828  1.1297
  448MOL0     C60385  10.047   0.732   2.521  0.6783 -0.1475 -0.6813
  448MOL0     C60386   9.893   0.712   2.520 -0.1275 -0.3096  0.9541
  448MOL0     C60387   9.845   0.577   2.446  0.3147  0.0474  0.8902
  448MOL0     C60388   9.694   0.567   2.428 -0.4509  0.1957  0.1001
  448MOL0     C60389   9.645   0.442   2.363  0.7148  0.1424 -0.3143
  448MOL0    Cl60390   9.702   0.293   2.436  0.1950 -0.1924  0.1713
  448MOL0     C60391  10.669   1.089   2.620 -0.0356 -0.3066  0.0782
  448MOL0     C60392  10.754   1.171   2.697 -0.4826  0.1248 -0.0713
  448MOL0     O60393  10.761   1.204   3.099  0.1066 -0.6720 -0.3602
  448MOL0     C60394  10.880   1.437   3.213  0.3774 -0.1055  0.1072
  448MOL0     C60395  10.953   1.539   3.265  0.2503 -0.0402 -0.0326
  448MOL0     N60396  11.420   1.661   2.878  0.4096  0.1581 -0.1969
  448MOL0     N60397  11.441   1.623   2.757 -0.2630 -0.0148  0.6843
  448MOL0     C60398  10.796   2.368   2.395 -0.0714 -0.0496 -0.5156
  448MOL0     C60399  10.656   2.383   2.398 -0.2281  0.9636  0.2199
  448MOL0     C60400  10.232   2.378   2.471  0.2077 -0.4983  0.5218
  448MOL0     C60401  10.162   2.262   2.427  0.9513  0.1629 -0.5887
  448MOL0     C60402  10.023   2.266   2.411  0.7828 -0.6427  0.0583
  448MOL0     C60403   9.957   2.394   2.429  0.4185 -0.7088  0.1650
  448MOL0     O60404   9.816   2.399   2.427 -0.2843  0.2256  0.1512
  448MOL0     C60405   9.751   2.300   2.349 -0.9203  0.6602 -0.2474
  448MOL0     C60406   9.611   2.336   2.304 -0.2481  0.0034 -0.1381
  448MOL0     C60407   9.503   2.280   2.407 -0.4243 -0.5509  0.4782
  448MOL0     C60408   9.368   2.337   2.375  0.0426  0.2004  0.3825
  448MOL0     C60409   9.261   2.279   2.463  0.0436  0.4612 -0.6640
  448MOL0     C60410   9.184   2.226   2.545 -0.3653 -0.4860 -0.6021
  448MOL0     C60411  10.028   2.510   2.465 -0.0371  0.0200  0.0640
  448MOL0     C60412  10.164   2.497   2.489 -0.6547  0.1994 -0.7885
  448MOL0     H60413  10.583   2.093   2.548 -1.3407  1.4766  0.6378
  448MOL0     H60414  10.834   2.063   2.519  1.7617  0.9431 -0.4049
  448MOL0     H60415  11.048   2.053   2.480  3.6517 -1.4885  0.0092
  448MOL0     H60416  11.049   2.091   2.309 -0.7772 -0.8985  0.7784
  448MOL0     H60417  11.244   2.237   2.341  0.2043 -0.9680  0.1043
  448MOL0     H60418  11.242   2.204   2.508  1.4174  1.6499 -1.7456
  448MOL0     H60419  11.231   1.938   2.418 -1.5267  0.8577  0.3150
  448MOL0     H60420  11.285   2.021   2.269  2.3618 -0.5004  0.8512
  448MOL0     H60421  11.497   2.076   2.377 -1.2294  0.0850 -1.0014
  448MOL0     H60422  11.417   2.034   2.540  1.5529 -0.3782  0.2787
  448MOL0     H60423  11.413   1.808   2.498 -1.1234 -0.0516 -0.3393
  448MOL0     H60424  11.507   1.827   2.354  1.2484  2.1607 -0.8603
  448MOL0     H60425  11.678   1.971   2.474 -0.2943  1.1020  0.0328
  448MOL0     H60426  11.603   1.933   2.628  0.4097 -2.2752  0.4030
  448MOL0     H60427  11.743   1.748   2.439 -1.6174 -2.8295 -0.2007
  448MOL0     H60428  11.782   1.793   2.608 -1.2189 -1.6955  1.2777
  448MOL0     H60429  11.710   1.560   2.597 -0.9643 -0.3575 -0.6137
  448MOL0     H60430  11.565   1.591   2.519  0.7927 -2.0344  1.3984
  448MOL0     H60431  11.729   1.768   2.837  0.6398 -0.9809 -2.5780
  448MOL0     H60432  11.586   1.685   3.114 -1.4351 -0.2671 -1.1328
  448MOL0     H60433  11.644   1.842   3.069 -0.7745  1.8189 -2.0185
  448MOL0     H60434  11.398   1.925   3.064  0.2171 -0.4239 -1.0586
  448MOL0     H60435  11.474   1.887   3.220  2.0151 -1.7835 -0.9706
  448MOL0     H60436  11.359   1.695   3.269  0.9167 -3.9534 -1.9952
  448MOL0     H60437  11.331   1.652   3.103 -0.1549  0.7063  0.0895
  448MOL0     H60438  11.148   1.795   3.071 -0.2296 -2.4572  0.0316
  448MOL0     H60439  11.180   1.897   3.211 -1.3587  0.1153  1.6976
  448MOL0     H60440  11.153   1.600   2.999  1.3776 -2.2564 -0.1367
  448MOL0     H60441  11.202   1.372   2.900 -0.5296 -1.3123 -0.1872
  448MOL0     H60442  11.070   1.256   2.889  5.1305 -0.9276  1.2175
  448MOL0     H60443  11.055   1.409   2.809  2.3492  0.6758 -1.2663
  448MOL0     H60444  10.557   1.217   2.965 -0.6287 -0.9048 -0.2112
  448MOL0     H60445  10.410   1.087   2.837  0.0970 -0.0154 -2.2812
  448MOL0     H60446  10.323   0.925   2.740 -0.8814 -1.5559 -0.2728
  448MOL0     H60447  10.264   1.047   2.628 -3.0659 -2.2699 -2.1526
  448MOL0     H60448  10.275   0.871   2.462 -0.5193  0.8076 -0.1305
  448MOL0     H60449  10.286   0.753   2.601 -0.9354  0.0066 -0.9123
  448MOL0     H60450  10.070   0.945   2.519  0.5574  0.2946  1.5336
  448MOL0     H60451  10.061   0.894   2.682  2.5134  1.7759  1.6929
  448MOL0     H60452  10.084   0.749   2.419  0.4380 -0.4057 -0.8155
  448MOL0     H60453  10.083   0.645   2.576  1.5038  1.3789  1.3130
  448MOL0     H60454   9.847   0.796   2.467 -0.2418 -0.8223  0.2281
  448MOL0     H60455   9.845   0.716   2.618 -2.4737  0.1319 -0.1459
  448MOL0     H60456   9.889   0.573   2.346 -2.0321  1.3974 -0.2898
  448MOL0     H60457   9.870   0.483   2.496  0.2130  0.1869  1.2024
  448MOL0     H60458   9.649   0.650   2.372  0.9175  0.2543 -0.9879
  448MOL0     H60459   9.659   0.579   2.531  3.0830  1.3048  1.3372
  448MOL0     H60460   9.680   0.443   2.260 -1.3360 -2.5107 -1.1437
  448MOL0     H60461   9.536   0.444   2.351  0.9615  1.6244 -3.1047
  448MOL0     H60462  10.712   1.044   2.530  2.8219 -2.6292  2.3930
  448MOL0     H60463  10.857   1.186   2.669 -0.8998  3.3696 -0.2517
  448MOL0     H60464  10.802   1.399   3.279  0.3973  1.4805  1.0929
  448MOL0     H60465  10.939   1.563   3.371 -0.3582  0.5574 -0.2357
  448MOL0     H60466  10.852   2.445   2.343 -2.3708  2.1909  0.1463
  448MOL0     H60467  10.608   2.468   2.349 -0.2535  1.3208  0.8520
  448MOL0     H60468  10.217   2.168   2.425 -1.3780 -1.4445  2.5542
  448MOL0     H60469   9.967   2.175   2.391  0.1517  0.0907 -1.8146
  448MOL0     H60470   9.807   2.287   2.256 -3.8490  2.0538 -2.3836
  448MOL0     H60471   9.746   2.206   2.403 -1.7372  1.0469  0.3734
  448MOL0     H60472   9.603   2.293   2.204 -0.4360 -0.1320 -0.0649
  448MOL0     H60473   9.599   2.443   2.286 -1.0263 -0.2824 -1.4893
  448MOL0     H60474   9.534   2.322   2.503 -0.8275 -0.2725  0.4861
  448MOL0     H60475   9.497   2.171   2.399 -1.2355 -0.4956  0.2805
  448MOL0     H60476   9.349   2.304   2.272  3.2375 -1.0217  0.0684
  448MOL0     H60477   9.354   2.444   2.388  5.2676  1.2709 -0.8010
  448MOL0     H60478   9.132   2.175   2.623 -0.9997  2.1477  0.8298
  448MOL0     H60479   9.970   2.602   2.468  1.9666  1.4370 -1.5318
  448MOL0     H60480  10.233   2.578   2.512  1.4878 -0.7978 -3.1774
  449MOL0     O60481   1.662  11.172  10.980 -0.6852 -0.5383 -0.4072
  449MOL0     C60482   1.711  11.279  11.030  0.6640  0.2242 -0.4111
  449MOL0     O60483   1.690  11.332  11.155 -0.1988 -0.2191 -0.6187
  449MOL0     C60484   1.595  11.266  11.233 -0.5109 -0.0076  0.0247
  449MOL0     C60485   1.469  11.215  11.183 -1.3518 -0.0058  0.2967
  449MOL0     C60486   1.365  11.174  11.265 -0.2748 -0.0571  0.1370
  449MOL0     C60487   1.378  11.191  11.404  0.4409  0.1355 -0.1953
  449MOL0     O60488   1.282  11.156  11.493 -0.4592  0.0864  0.1684
  449MOL0     C60489   1.141  11.171  11.454 -0.7723  1.2003  0.0452
  449MOL0     C60490   1.060  11.145  11.586 -1.1410  0.3404  0.8943
  449MOL0     C60491   0.909  11.128  11.553 -1.2110 -0.5560 -0.3561
  449MOL0     C60492   0.821  11.159  11.674 -0.9655  0.0212  0.2774
  449MOL0     C60493   0.676  11.196  11.647  0.0646 -0.3624  0.8682
  449MOL0     C60494   0.584  11.081  11.602 -0.4855  0.9025 -0.6897
  449MOL0     C60495   0.444  11.140  11.597  0.0403 -0.2140 -0.0770
  449MOL0     C60496   0.348  11.057  11.519  0.2607  0.3962 -0.1745
  449MOL0     N60497   0.213  11.110  11.533 -0.1339 -0.5069  1.1329
  449MOL0     C60498   0.116  11.072  11.625 -0.7138 -0.0322 -0.7168
  449MOL0     C60499   0.016  11.166  11.605 -0.7445  0.6064  0.5487
  449MOL0     C60500  -0.114  11.171  11.687 -0.3093  0.1948  0.3898
  449MOL0     C60501  -0.196  11.044  11.677  0.4572 -0.7719  0.2885
  449MOL0     C60502  -0.325  11.078  11.757  0.3077  1.0342  0.2476
  449MOL0     C60503  -0.410  10.954  11.789 -0.2561  1.0447 -0.5379
  449MOL0     O60504  -0.548  10.987  11.799 -0.1063 -0.5390  0.2973
  449MOL0     C60505  -0.643  10.909  11.858 -0.4395 -0.1404  0.3686
  449MOL0     C60506  -0.626  10.787  11.917  0.4528  0.5711 -0.1382
  449MOL0     C60507  -0.735  10.703  11.942 -0.5725 -0.6440  0.7822
  449MOL0     C60508  -0.709  10.574  12.024 -0.6506 -0.3099  0.2913
  449MOL0     C60509  -0.865  10.740  11.897  0.6446  0.2066  0.0767
  449MOL0     C60510  -0.998  10.664  11.906 -0.6954  0.6654  0.0918
  449MOL0     O60511  -1.119  10.725  11.890 -0.2649 -0.1349 -0.3644
  449MOL0     C60512  -1.232  10.666  11.937  0.2621 -0.2633 -0.3733
  449MOL0     C60513  -1.260  10.627  12.073 -0.1713 -0.3471  0.1924
  449MOL0     C60514  -1.386  10.578  12.114  0.3227 -0.0312 -0.2569
  449MOL0     C60515  -1.491  10.571  12.020 -0.0940  0.5315 -0.4553
  449MOL0     O60516  -1.618  10.521  12.046  0.6747  0.5157 -0.2389
  449MOL0     C60517  -1.622  10.381  12.099  0.2815  0.1903  0.4911
  449MOL0     C60518  -1.769  10.349  12.118 -0.3001  0.1804 -0.0294
  449MOL0     C60519  -1.846  10.437  12.216  0.1277 -0.3147  0.0129
  449MOL0     C60520  -1.971  10.353  12.261  0.4822  0.0333  0.5134
  449MOL0     C60521  -2.081  10.418  12.350 -0.0759 -0.9105 -0.4015
  449MOL0     C60522  -2.176  10.323  12.412 -0.0815  0.5834  0.2331
  449MOL0     C60523  -2.284  10.400  12.493 -1.1729 -0.4339  0.6787
  449MOL0     C60524  -2.360  10.302  12.570 -0.0069 -0.8669 -0.6705
  449MOL0    Cl60525  -2.476  10.192  12.498 -0.1326  0.2401  0.2185
  449MOL0     C60526  -1.471  10.628  11.892 -0.1812 -0.4838 -0.0638
  449MOL0     C60527  -1.347  10.671  11.860 -0.2870  0.2055 -0.3926
  449MOL0     O60528  -0.988  10.541  11.924  0.7229  0.8741 -0.4975
  449MOL0     C60529  -0.883  10.864  11.837  0.4317 -1.1777 -0.1353
  449MOL0     C60530  -0.776  10.950  11.819 -0.6753 -0.8233 -0.1763
  449MOL0     N60531   0.056  11.260  11.507  0.2493  0.1460  0.1689
  449MOL0     N60532   0.177  11.224  11.471 -0.1321  0.2683 -0.1494
  449MOL0     C60533   1.499  11.236  11.456 -0.1539 -0.4983  0.1328
  449MOL0     C60534   1.608  11.272  11.374 -0.7826 -0.1780  0.1072
  449MOL0     C60535   1.788  11.362  10.935 -0.4657  0.4874  0.1835
  449MOL0     C60536   1.840  11.313  10.810 -0.1808  0.2823 -1.3690
  449MOL0     C60537   1.891  11.403  10.718  0.4928  0.6346  0.3438
  449MOL0     C60538   1.925  11.536  10.752  0.1009  0.4262  0.1732
  449MOL0     O60539   1.979  11.632  10.667  0.4951  0.1986  0.0072
  449MOL0     C60540   1.989  11.610  10.528 -0.1708 -0.1649  0.4581
  449MOL0     C60541   1.859  11.611  10.458  0.7064 -0.5020  0.1956
  449MOL0     C60542   1.785  11.745  10.499  0.0211  0.0549 -0.1818
  449MOL0     C60543   1.863  11.880  10.492  0.1046 -1.1126  0.1089
  449MOL0     C60544   1.767  11.986  10.526 -0.1730  0.3939 -0.2198
  449MOL0     C60545   1.696  12.083  10.542 -0.5739 -0.7411  0.1392
  449MOL0     C60546   1.887  11.575  10.881 -0.5135 -0.7916 -0.4394
  449MOL0     C60547   1.818  11.491  10.970  0.5140 -1.0656 -0.5812
  449MOL0     H60548   1.458  11.211  11.075  0.9848  2.0516 -0.0940
  449MOL0     H60549   1.288  11.109  11.224  0.9699 -2.7336  1.7146
  449MOL0     H60550   1.122  11.270  11.410 -1.6090  2.2829  2.6213
  449MOL0     H60551   1.117  11.098  11.376  0.9706 -0.6746  1.1667
  449MOL0     H60552   1.102  11.052  11.627 -1.5106 -0.1044  0.2926
  449MOL0     H60553   1.093  11.227  11.650 -0.7384  1.4251 -0.6430
  449MOL0     H60554   0.897  11.204  11.475 -1.6521  2.5173  2.4599
  449MOL0     H60555   0.876  11.032  11.514 -1.2016 -0.0380 -1.6819
  449MOL0     H60556   0.821  11.076  11.746 -1.2163 -1.0350 -0.9094
  449MOL0     H60557   0.865  11.241  11.733 -3.9928  1.6912  0.4064
  449MOL0     H60558   0.624  11.232  11.736 -1.2545  1.0621 -0.4144
  449MOL0     H60559   0.667  11.280  11.577 -1.1156 -0.4721  0.8593
  449MOL0     H60560   0.613  11.028  11.512  0.3892 -0.9716  0.6326
  449MOL0     H60561   0.591  11.011  11.685 -0.1620  2.6774  0.8624
  449MOL0     H60562   0.404  11.150  11.698  0.9555 -0.0582  0.2788
  449MOL0     H60563   0.435  11.242  11.558  0.2628 -0.9542 -2.1804
  449MOL0     H60564   0.358  10.953  11.552 -1.8529  0.2467  0.2013
  449MOL0     H60565   0.368  11.062  11.412 -2.1639 -0.4182 -0.7455
  449MOL0     H60566   0.115  10.985  11.690  0.1530 -0.6833 -1.5423
  449MOL0     H60567  -0.099  11.192  11.793 -1.0838  0.5252  0.4443
  449MOL0     H60568  -0.184  11.249  11.657  2.3216  2.0547 -1.2969
  449MOL0     H60569  -0.141  10.969  11.734 -0.4809 -0.4881  1.6399
  449MOL0     H60570  -0.214  11.011  11.575 -3.6972 -0.3294  0.7093
  449MOL0     H60571  -0.384  11.147  11.697  0.7845  0.5756 -0.7852
  449MOL0     H60572  -0.306  11.131  11.850 -1.3907  1.6796  0.2581
  449MOL0     H60573  -0.373  10.914  11.884  0.2366  1.1191 -0.6956
  449MOL0     H60574  -0.396  10.869  11.722  0.8677  0.5793  0.2608
  449MOL0     H60575  -0.532  10.752  11.958 -0.6115 -1.4744  0.7078
  449MOL0     H60576  -0.608  10.563  12.064 -1.4334 -0.2361  2.4033
  449MOL0     H60577  -0.780  10.571  12.107  2.9712 -0.9362  3.6213
  449MOL0     H60578  -0.722  10.481  11.968 -1.1535 -0.3572  0.4761
  449MOL0     H60579  -1.179  10.618  12.144 -1.7137 -3.5034  1.7880
  449MOL0     H60580  -1.397  10.550  12.218 -0.6171  2.1071  0.2683
  449MOL0     H60581  -1.573  10.321  12.022 -1.2879  2.2596 -2.2821
  449MOL0     H60582  -1.561  10.373  12.190 -0.3879  1.4493  1.0803
  449MOL0     H60583  -1.830  10.334  12.028  0.4044 -0.4676 -0.4097
  449MOL0     H60584  -1.762  10.250  12.164  0.2852 -0.9235 -2.3316
  449MOL0     H60585  -1.873  10.529  12.163 -1.2975 -0.9067 -0.3200
  449MOL0     H60586  -1.778  10.448  12.301  1.4671 -2.4132 -0.6967
  449MOL0     H60587  -2.026  10.328  12.169  0.4604  0.1172  0.5034
  449MOL0     H60588  -1.926  10.267  12.309  1.8130  0.0041 -0.7211
  449MOL0     H60589  -2.140  10.479  12.281 -2.4274  0.2467  2.4379
  449MOL0     H60590  -2.035  10.473  12.433  0.0936 -0.1079 -1.0206
  449MOL0     H60591  -2.213  10.274  12.321 -0.2224  1.2412 -0.0730
  449MOL0     H60592  -2.132  10.246  12.476  0.2665 -0.1777 -0.8940
  449MOL0     H60593  -2.348  10.450  12.420  0.1321  0.8239  0.3516
  449MOL0     H60594  -2.253  10.474  12.567 -1.5525 -1.3794  1.8253
  449MOL0     H60595  -2.408  10.366  12.645 -1.1556 -1.6386 -0.7223
  449MOL0     H60596  -2.285  10.243  12.624 -0.3441  0.6241  1.5731
  449MOL0     H60597  -1.554  10.635  11.823 -2.7708  2.5383  2.9696
  449MOL0     H60598  -1.328  10.708  11.759 -0.2324 -0.8511 -0.7853
  449MOL0     H60599  -0.978  10.891  11.791 -0.3493 -0.3263  1.8288
  449MOL0     H60600  -0.801  11.045  11.772  0.1925  0.1435  1.2176
  449MOL0     H60601   1.529  11.243  11.560  2.3133 -3.4895 -0.2179
  449MOL0     H60602   1.696  11.297  11.431 -0.2159 -1.9801  0.0586
  449MOL0     H60603   1.818  11.213  10.776 -2.1015  0.3726 -0.5089
  449MOL0     H60604   1.900  11.370  10.614 -0.4442 -0.5015  0.5901
  449MOL0     H60605   2.049  11.690  10.484 -1.2549  1.0879  1.1911
  449MOL0     H60606   2.043  11.515  10.519  3.3532  1.2428  4.1010
  449MOL0     H60607   1.798  11.523  10.480 -0.6201 -0.3990 -2.6570
  449MOL0     H60608   1.879  11.607  10.351 -1.1798 -2.1013 -0.1502
  449MOL0     H60609   1.737  11.735  10.597  1.3840  1.1765  0.6212
  449MOL0     H60610   1.693  11.745  10.439 -2.5407 -1.4681  3.3618
  449MOL0     H60611   1.897  11.894  10.389  0.8391 -1.6517  0.2677
  449MOL0     H60612   1.949  11.872  10.559 -0.6202 -1.3802  1.0376
  449MOL0     H60613   1.654  12.181  10.536  0.7754 -0.2217 -2.4174
  449MOL0     H60614   1.896  11.681  10.899  2.3273  0.1877 -5.6761
  449MOL0     H60615   1.802  11.530  11.070  3.8308  0.5094 -0.5469
  450MOL0     O60616   8.248   7.427   3.243  0.4279  0.7343  0.3965
  450MOL0     C60617   8.266   7.309   3.270  0.0673  0.0722 -0.6638
  450MOL0     O60618   8.166   7.213   3.277 -0.6018 -0.8255 -0.5782
  450MOL0     C60619   8.041   7.269   3.260 -1.4594  1.1727 -0.8394
  450MOL0     C60620   7.984   7.251   3.137  0.1752 -0.0366 -0.1400
  450MOL0     C60621   7.850   7.288   3.122 -0.4646  0.4373 -0.6110
  450MOL0     C60622   7.783   7.356   3.223 -0.5587  0.4202 -0.0123
  450MOL0     O60623   7.652   7.391   3.212  0.6560  0.5282 -0.5408
  450MOL0     C60624   7.578   7.364   3.330  0.1977 -0.4155 -0.1008
  450MOL0     C60625   7.433   7.409   3.303 -0.6493  0.1091  0.0088
  450MOL0     C60626   7.337   7.321   3.391 -0.4551  0.0357  0.6045
  450MOL0     C60627   7.190   7.360   3.371  0.2820  0.0007  0.3095
  450MOL0     C60628   7.090   7.289   3.467 -0.2130  0.0905 -0.6151
  450MOL0     C60629   6.948   7.350   3.439  0.2295 -0.3125 -0.2498
  450MOL0     C60630   6.856   7.275   3.535  1.0170  0.1252  0.2878
  450MOL0     C60631   6.729   7.355   3.569 -0.1339  1.0906 -0.1009
  450MOL0     N60632   6.642   7.370   3.451 -0.4059 -0.1827  0.9687
  450MOL0     C60633   6.619   7.270   3.356 -0.2175 -0.6123  0.1975
  450MOL0     C60634   6.524   7.324   3.275  0.7858  1.0541 -0.1639
  450MOL0     C60635   6.454   7.243   3.163  0.0278 -0.8345 -0.4825
  450MOL0     C60636   6.303   7.229   3.199 -0.4934 -0.7543  0.6522
  450MOL0     C60637   6.270   7.178   3.343 -0.3197 -0.4487 -0.1600
  450MOL0     C60638   6.142   7.087   3.350  0.8044 -1.0133 -0.5237
  450MOL0     O60639   6.042   7.185   3.320  0.1067 -0.0797  0.2505
  450MOL0     C60640   5.914   7.139   3.310 -0.4100 -0.1848 -0.2309
  450MOL0     C60641   5.834   7.222   3.236 -0.0066 -0.7607 -0.9950
  450MOL0     C60642   5.703   7.184   3.207 -0.4672  0.7605 -0.4233
  450MOL0     C60643   5.633   7.284   3.115  0.7164 -0.1741 -0.4821
  450MOL0     C60644   5.641   7.070   3.262 -0.2568  0.0374 -0.2939
  450MOL0     C60645   5.502   7.021   3.230 -0.2502 -0.0829 -0.0173
  450MOL0     O60646   5.409   7.115   3.185 -0.7256 -0.1793 -0.6068
  450MOL0     C60647   5.279   7.064   3.178  0.4696 -0.2005  0.6137
  450MOL0     C60648   5.221   7.042   3.052  0.2177 -0.0443 -0.1210
  450MOL0     C60649   5.083   6.999   3.042  0.0234 -0.6377  0.3746
  450MOL0     C60650   5.006   6.977   3.159 -0.9707  0.6041  0.4875
  450MOL0     O60651   4.873   6.971   3.162 -0.8992  0.0961 -0.1373
  450MOL0     C60652   4.807   7.010   3.043  0.6886 -0.5884  0.1102
  450MOL0     C60653   4.656   7.016   3.058 -0.3115  1.0314  0.2644
  450MOL0     C60654   4.604   7.019   2.912 -0.4642  0.2623 -0.2783
  450MOL0     C60655   4.460   7.086   2.912 -0.0617 -1.0577 -0.4602
  450MOL0     C60656   4.360   7.011   2.995 -0.0593 -0.0395  1.0617
  450MOL0     C60657   4.334   6.871   2.948 -0.4527  0.6574  0.4421
  450MOL0     C60658   4.228   6.791   3.032 -0.0977  0.3419 -0.2380
  450MOL0     C60659   4.267   6.643   3.061 -0.2129 -0.4689  0.0804
  450MOL0    Cl60660   4.132   6.569   3.156  0.0418  0.1327 -0.1237
  450MOL0     C60661   5.074   6.987   3.280  0.3672  0.0818 -0.1564
  450MOL0     C60662   5.205   7.031   3.292 -0.6289  0.3426  0.2160
  450MOL0     O60663   5.483   6.900   3.243 -0.4699  0.2534 -0.3305
  450MOL0     C60664   5.729   6.983   3.325  1.1455 -0.1913 -0.4236
  450MOL0     C60665   5.858   7.017   3.355  0.5175 -0.0877 -0.3044
  450MOL0     N60666   6.481   7.446   3.324  0.2058 -0.2517  0.4002
  450MOL0     N60667   6.562   7.474   3.427  0.0551 -0.4875 -0.3599
  450MOL0     C60668   7.850   7.376   3.345 -0.1547  0.0552  0.1667
  450MOL0     C60669   7.977   7.328   3.357  0.6152  0.4679  0.3041
  450MOL0     C60670   8.398   7.267   3.295 -0.2821 -0.1172 -0.5752
  450MOL0     C60671   8.426   7.135   3.337  0.2177  0.2941  0.9064
  450MOL0     C60672   8.558   7.095   3.369  0.0779 -0.6908  0.4179
  450MOL0     C60673   8.664   7.182   3.353  0.1168 -0.2669  0.1356
  450MOL0     O60674   8.790   7.154   3.390 -0.3813  0.3532  0.1697
  450MOL0     C60675   8.815   7.065   3.503 -0.3038  0.2186 -0.4682
  450MOL0     C60676   8.959   7.080   3.545  0.1262  0.0913  1.0292
  450MOL0     C60677   9.047   7.021   3.434 -0.0778  0.3453  0.4353
  450MOL0     C60678   9.198   7.029   3.457 -0.1302  0.6006 -0.5868
  450MOL0     C60679   9.233   7.165   3.467 -0.4677 -0.6033  0.4217
  450MOL0     C60680   9.277   7.275   3.489 -0.6801 -0.2511  0.2990
  450MOL0     C60681   8.638   7.308   3.300 -0.6350  0.0687 -0.0020
  450MOL0     C60682   8.507   7.354   3.277  0.8698 -0.6065 -0.6196
  450MOL0     H60683   8.050   7.208   3.063  1.5422  1.2213  0.2981
  450MOL0     H60684   7.819   7.278   3.018  2.7244 -0.4625 -1.6011
  450MOL0     H60685   7.577   7.258   3.357 -1.3799  0.3414  3.3209
  450MOL0     H60686   7.609   7.416   3.421  0.6276 -1.0262  0.1068
  450MOL0     H60687   7.429   7.515   3.329 -0.8909  0.5779 -1.8321
  450MOL0     H60688   7.384   7.400   3.206 -0.0845  3.3890 -0.6955
  450MOL0     H60689   7.349   7.217   3.360 -2.1753  0.7253 -2.8209
  450MOL0     H60690   7.371   7.330   3.495 -0.6744  1.3823  0.5683
  450MOL0     H60691   7.181   7.469   3.381 -2.2503 -0.2940  2.1899
  450MOL0     H60692   7.158   7.333   3.270 -0.3995 -2.6455  1.1586
  450MOL0     H60693   7.096   7.181   3.452  2.2045  0.1864 -0.8349
  450MOL0     H60694   7.114   7.305   3.573  4.8445  0.2877 -1.5521
  450MOL0     H60695   6.951   7.456   3.464 -0.7100 -0.4758  0.6292
  450MOL0     H60696   6.924   7.345   3.332  0.8590  0.5058 -0.4398
  450MOL0     H60697   6.820   7.177   3.501 -1.8948  1.5762 -1.1595
  450MOL0     H60698   6.901   7.259   3.633  0.1196 -1.8131  0.4473
  450MOL0     H60699   6.758   7.443   3.626  2.7801  1.7705 -2.3987
  450MOL0     H60700   6.676   7.292   3.641 -0.8634  0.3510 -1.2407
  450MOL0     H60701   6.673   7.177   3.338  0.0621 -0.2968 -0.5990
  450MOL0     H60702   6.468   7.287   3.064  4.0936 -2.1009 -0.6840
  450MOL0     H60703   6.509   7.148   3.160  2.4010  0.4225  0.9034
  450MOL0     H60704   6.248   7.167   3.128  0.6437 -0.0697 -0.8794
  450MOL0     H60705   6.249   7.324   3.194 -1.5924 -1.4345 -3.3550
  450MOL0     H60706   6.260   7.257   3.419  1.4768 -0.1726 -0.1487
  450MOL0     H60707   6.359   7.126   3.380  3.2589  3.8440 -1.7546
  450MOL0     H60708   6.122   7.052   3.452  0.5488 -2.3041 -1.0097
  450MOL0     H60709   6.159   7.005   3.281 -0.3012 -0.1194 -1.9084
  450MOL0     H60710   5.876   7.308   3.184  2.0580  0.7189  2.7342
  450MOL0     H60711   5.698   7.362   3.074  0.2263 -0.2087 -1.3315
  450MOL0     H60712   5.607   7.224   3.028 -2.1031  0.8670 -0.4556
  450MOL0     H60713   5.546   7.338   3.154  0.0589  0.3381 -2.5670
  450MOL0     H60714   5.283   7.056   2.963  1.1175 -3.7253 -0.2126
  450MOL0     H60715   5.033   6.999   2.946  0.0578 -1.1933  0.3530
  450MOL0     H60716   4.846   7.108   3.016  0.7218 -0.4446  0.6744
  450MOL0     H60717   4.838   6.938   2.967  1.6571  1.2423 -1.3079
  450MOL0     H60718   4.616   6.929   3.110  0.9723 -1.1105 -2.0877
  450MOL0     H60719   4.644   7.118   3.095 -1.2118  0.7298  0.8315
  450MOL0     H60720   4.605   6.918   2.868  1.9134  0.2857 -0.3943
  450MOL0     H60721   4.672   7.087   2.859  2.2728  2.4451  5.2809
  450MOL0     H60722   4.457   7.191   2.942 -1.7436 -1.5102  1.0864
  450MOL0     H60723   4.439   7.104   2.806  1.1918  1.3961 -0.3443
  450MOL0     H60724   4.266   7.067   2.992  0.3310  0.6542  1.3219
  450MOL0     H60725   4.405   7.005   3.094  0.0482  0.2004  1.0293
  450MOL0     H60726   4.316   6.868   2.840  1.3443  2.4900  0.0348
  450MOL0     H60727   4.430   6.821   2.964 -1.4844 -2.0122 -0.9315
  450MOL0     H60728   4.131   6.793   2.981 -0.8638  2.4305  1.1570
  450MOL0     H60729   4.216   6.837   3.130 -1.6319  0.3347 -0.3949
  450MOL0     H60730   4.360   6.625   3.114  0.7323 -1.0906 -1.7162
  450MOL0     H60731   4.271   6.592   2.964 -0.2933 -0.1227 -0.1101
  450MOL0     H60732   5.013   6.967   3.367  1.3739 -0.8419  0.3687
  450MOL0     H60733   5.252   7.017   3.389 -0.3771 -3.6523 -0.3253
  450MOL0     H60734   5.695   6.885   3.359  0.3081  0.1627 -0.2171
  450MOL0     H60735   5.918   6.942   3.405  1.3080 -0.6286 -1.9982
  450MOL0     H60736   7.808   7.444   3.419 -2.6277  0.1401 -1.2165
  450MOL0     H60737   8.022   7.356   3.452 -0.5710 -2.1924  1.7705
  450MOL0     H60738   8.347   7.061   3.347  0.2939 -0.0320 -0.6508
  450MOL0     H60739   8.586   6.998   3.408  1.6663 -0.6327 -0.5213
  450MOL0     H60740   8.753   7.088   3.590  2.0817 -1.1798  1.7277
  450MOL0     H60741   8.794   6.962   3.470  0.5091 -0.9065  2.2808
  450MOL0     H60742   8.974   7.025   3.638  0.4354  3.5224  3.1928
  450MOL0     H60743   8.981   7.187   3.548  1.5604 -0.1116 -0.3860
  450MOL0     H60744   9.029   7.067   3.336  4.9014 -0.3713 -1.0915
  450MOL0     H60745   9.027   6.914   3.431 -0.8698  0.4869  0.1063
  450MOL0     H60746   9.255   6.986   3.374  0.3096 -0.2251  0.1246
  450MOL0     H60747   9.234   6.969   3.541  2.4854 -0.4822 -2.3469
  450MOL0     H60748   9.295   7.379   3.506 -1.1783 -0.2103  0.6090
  450MOL0     H60749   8.723   7.371   3.277 -1.8846  1.9779  0.3578
  450MOL0     H60750   8.490   7.454   3.239  1.8241  0.6798  2.1272
  451MOL0     O60751   7.925   1.227   5.752  0.0050  0.1957  0.4842
  451MOL0     C60752   7.993   1.135   5.800 -0.2642 -0.0278  0.4599
  451MOL0     O60753   7.943   1.014   5.845 -0.9754 -0.3069  0.1438
  451MOL0     C60754   7.820   0.961   5.818 -0.4050 -0.2574  0.5441
  451MOL0     C60755   7.809   0.822   5.808  0.0848 -0.2445  0.2956
  451MOL0     C60756   7.686   0.777   5.775  0.3865  0.0087 -0.2604
  451MOL0     C60757   7.572   0.851   5.748  0.8496 -0.5903  0.2563
  451MOL0     O60758   7.470   0.776   5.690  0.2429  0.1983  0.0068
  451MOL0     C60759   7.348   0.840   5.653  0.5890 -0.2860  0.2561
  451MOL0     C60760   7.258   0.837   5.788  0.0270 -0.1579 -0.9101
  451MOL0     C60761   7.180   0.716   5.829  0.2292  0.6659 -0.2338
  451MOL0     C60762   7.266   0.599   5.892 -0.3770 -0.6006 -0.7469
  451MOL0     C60763   7.169   0.484   5.909  0.4129  0.1652 -0.1523
  451MOL0     C60764   7.046   0.508   6.005 -0.6228  0.2556  0.0764
  451MOL0     C60765   6.974   0.375   6.010 -0.9210  0.3453 -0.1710
  451MOL0     C60766   6.839   0.381   6.068  0.2579  0.0581 -0.4279
  451MOL0     N60767   6.778   0.254   6.094  0.2928  0.3166  0.2134
  451MOL0     C60768   6.771   0.143   6.004  0.1932  0.1358 -0.3095
  451MOL0     C60769   6.701   0.049   6.066 -0.3578  0.0568 -0.7617
  451MOL0     C60770   6.629  -0.068   6.007 -0.4855 -0.7841  0.1838
  451MOL0     C60771   6.484  -0.026   5.972 -0.2930 -0.3971 -0.5969
  451MOL0     C60772   6.476   0.060   5.839 -0.3254 -0.1481  0.2710
  451MOL0     C60773   6.332   0.081   5.795  0.3862 -0.0289  1.5433
  451MOL0     O60774   6.279  -0.027   5.720 -0.0689 -0.2921  0.4987
  451MOL0     C60775   6.158  -0.010   5.647  0.0817  0.1705  0.3113
  451MOL0     C60776   6.139  -0.065   5.522 -0.7983  0.1584 -0.0512
  451MOL0     C60777   6.018  -0.071   5.455 -0.0334  0.7105 -0.4177
  451MOL0     C60778   6.017  -0.148   5.324 -0.6609  0.3155 -0.8740
  451MOL0     C60779   5.903   0.006   5.508  0.0420 -0.1059  0.5067
  451MOL0     C60780   5.773   0.020   5.450  0.4040  0.0071 -0.2472
  451MOL0     O60781   5.669   0.068   5.537 -1.3512 -0.0008  0.8654
  451MOL0     C60782   5.562   0.126   5.478  0.0490 -0.3591  0.2306
  451MOL0     C60783   5.581   0.230   5.390  0.6042 -0.1957  0.3340
  451MOL0     C60784   5.465   0.287   5.328 -0.2405  1.7730 -0.5172
  451MOL0     C60785   5.338   0.251   5.373  0.3591 -0.4521 -0.7840
  451MOL0     O60786   5.228   0.308   5.323 -0.7783 -0.7041 -0.7866
  451MOL0     C60787   5.221   0.312   5.183  0.4878  0.0397 -0.2106
  451MOL0     C60788   5.087   0.380   5.149  0.9565  0.3989  0.2500
  451MOL0     C60789   4.967   0.298   5.174 -0.3688  1.4225 -0.4946
  451MOL0     C60790   4.838   0.386   5.165 -0.6336  0.5610 -0.0512
  451MOL0     C60791   4.712   0.304   5.210 -0.3479  0.0312 -0.0542
  451MOL0     C60792   4.581   0.382   5.212 -0.0403 -0.1790  0.8787
  451MOL0     C60793   4.555   0.481   5.331 -0.0388 -0.4695 -0.3303
  451MOL0     C60794   4.466   0.597   5.292  0.8077 -0.2811  0.1812
  451MOL0    Cl60795   4.291   0.555   5.308 -0.1499  0.3807  0.0931
  451MOL0     C60796   5.323   0.172   5.484 -1.1167  0.2281 -0.1585
  451MOL0     C60797   5.437   0.099   5.529  0.2554 -0.2635  0.0331
  451MOL0     O60798   5.763  -0.013   5.331  0.0996  0.5970  0.9103
  451MOL0     C60799   5.920   0.060   5.637 -0.8503  0.1069 -0.2771
  451MOL0     C60800   6.042   0.048   5.702  0.1629 -0.7116  1.2736
  451MOL0     N60801   6.676   0.093   6.196  0.6361 -0.1025  0.3253
  451MOL0     N60802   6.708   0.214   6.205 -0.5179  0.2796  0.1354
  451MOL0     C60803   7.581   0.990   5.755  1.0500 -0.0838 -0.2642
  451MOL0     C60804   7.710   1.041   5.795  1.0718 -0.6803  0.1731
  451MOL0     C60805   8.137   1.165   5.834  0.0716  0.3585  0.1718
  451MOL0     C60806   8.183   1.293   5.849  0.0787  0.6637  0.0385
  451MOL0     C60807   8.314   1.328   5.870  0.1104 -0.8278  0.3707
  451MOL0     C60808   8.414   1.225   5.892  0.4191 -0.0800  0.0753
  451MOL0     O60809   8.542   1.238   5.938 -0.2739 -0.2997 -0.3161
  451MOL0     C60810   8.595   1.367   5.956 -0.1516  0.8241  0.4141
  451MOL0     C60811   8.648   1.427   5.830 -0.6267 -0.1438  0.2405
  451MOL0     C60812   8.775   1.366   5.766 -0.8278 -0.3843 -0.8680
  451MOL0     C60813   8.899   1.441   5.807  0.6398  0.6120  0.0668
  451MOL0     C60814   9.010   1.399   5.721  0.3226 -0.3841 -0.3859
  451MOL0     C60815   9.100   1.362   5.653 -0.6626 -0.1655 -0.1666
  451MOL0     C60816   8.370   1.097   5.877  1.4670  1.0340  0.7842
  451MOL0     C60817   8.234   1.068   5.845 -0.6275 -0.1537 -0.4773
  451MOL0     H60818   7.889   0.751   5.825 -0.8348 -1.0338  1.5622
  451MOL0     H60819   7.676   0.670   5.762  0.2525 -0.0028 -0.0656
  451MOL0     H60820   7.358   0.939   5.609  0.8579  0.6052  2.2191
  451MOL0     H60821   7.298   0.774   5.581 -1.8414  2.0297 -0.3099
  451MOL0     H60822   7.321   0.866   5.873  1.6456  0.6093 -2.3076
  451MOL0     H60823   7.186   0.918   5.775  1.1776  1.5779  2.3593
  451MOL0     H60824   7.106   0.759   5.897 -0.1708  0.7125 -0.6954
  451MOL0     H60825   7.132   0.684   5.736  0.5073 -0.1311 -0.1079
  451MOL0     H60826   7.349   0.575   5.825  0.4240  0.9083 -0.3262
  451MOL0     H60827   7.312   0.629   5.986 -1.1009  1.7619 -1.0724
  451MOL0     H60828   7.125   0.442   5.818 -1.2276  1.8879 -0.2282
  451MOL0     H60829   7.233   0.403   5.943 -0.6593 -0.6846 -0.1024
  451MOL0     H60830   7.080   0.542   6.103 -0.2674 -1.7687  0.7003
  451MOL0     H60831   6.977   0.581   5.963 -1.4306 -0.0317  0.8859
  451MOL0     H60832   6.971   0.330   5.911  0.0912  0.3370 -0.2122
  451MOL0     H60833   7.045   0.305   6.055  2.0485  2.8538 -0.5382
  451MOL0     H60834   6.776   0.443   6.004 -0.6590 -3.5836 -3.4459
  451MOL0     H60835   6.845   0.429   6.166  1.6946  4.4120 -2.4272
  451MOL0     H60836   6.780   0.142   5.896 -0.1793 -0.3429 -0.3411
  451MOL0     H60837   6.676  -0.102   5.914  2.7386 -2.8856  2.3630
  451MOL0     H60838   6.642  -0.147   6.082 -1.7558  1.2318  2.6913
  451MOL0     H60839   6.434   0.020   6.058  0.1992 -2.4402  0.8604
  451MOL0     H60840   6.437  -0.122   5.951  0.7630 -1.1725  0.4502
  451MOL0     H60841   6.524   0.003   5.759  0.4385 -1.6202  1.7281
  451MOL0     H60842   6.523   0.158   5.847 -0.4932 -0.0821  0.4543
  451MOL0     H60843   6.327   0.174   5.738  0.3309 -0.0041  1.5888
  451MOL0     H60844   6.273   0.107   5.883 -0.9911  2.7215 -0.0464
  451MOL0     H60845   6.227  -0.109   5.478 -0.9498 -0.8527  0.6267
  451MOL0     H60846   5.923  -0.204   5.317 -1.8327  2.2334 -1.1326
  451MOL0     H60847   6.016  -0.084   5.235  0.5837 -0.5021 -1.5113
  451MOL0     H60848   6.105  -0.213   5.321 -1.1153 -0.4440  0.9104
  451MOL0     H60849   5.677   0.265   5.354 -1.4083  2.8143 -2.6803
  451MOL0     H60850   5.470   0.356   5.244  0.5450  2.5744  0.1688
  451MOL0     H60851   5.295   0.379   5.138 -2.1122  1.4544 -2.6944
  451MOL0     H60852   5.231   0.210   5.145  1.6706 -0.9093  2.3970
  451MOL0     H60853   5.077   0.463   5.218  1.7488  1.8583 -1.3126
  451MOL0     H60854   5.086   0.422   5.048 -1.7721  2.1818  0.9333
  451MOL0     H60855   4.970   0.247   5.271 -2.8929 -4.2782 -2.9510
  451MOL0     H60856   4.961   0.224   5.093  2.7634  2.4316 -1.7856
  451MOL0     H60857   4.858   0.478   5.221  0.4291 -1.1677  2.6454
  451MOL0     H60858   4.820   0.411   5.061  0.0657 -1.2769 -0.6548
  451MOL0     H60859   4.723   0.260   5.309  2.9433  0.1479 -0.2609
  451MOL0     H60860   4.699   0.215   5.148  0.7781 -1.6704  2.0310
  451MOL0     H60861   4.575   0.433   5.115 -1.6240 -1.1333  0.4213
  451MOL0     H60862   4.495   0.314   5.218 -1.8147  1.5129 -2.3976
  451MOL0     H60863   4.648   0.524   5.371 -0.1050 -1.2016  0.6489
  451MOL0     H60864   4.498   0.419   5.401 -0.9770 -3.0934 -3.2218
  451MOL0     H60865   4.478   0.629   5.188 -1.9330 -0.7543 -0.3535
  451MOL0     H60866   4.489   0.683   5.356 -2.6406  1.2252 -0.3497
  451MOL0     H60867   5.222   0.148   5.515 -0.3076 -1.7783  1.0680
  451MOL0     H60868   5.432   0.023   5.607 -1.8104 -1.2622 -0.9973
  451MOL0     H60869   5.845   0.105   5.701 -0.2054  1.5279 -0.4967
  451MOL0     H60870   6.046   0.086   5.803  0.8872 -0.6393  1.2171
  451MOL0     H60871   7.497   1.059   5.758  1.4772  0.5001 -1.3587
  451MOL0     H60872   7.711   1.148   5.812 -1.1947 -0.4715 -0.5684
  451MOL0     H60873   8.096   1.356   5.835 -0.4141  0.2440  1.0822
  451MOL0     H60874   8.328   1.435   5.868  2.4991 -1.1058  0.1609
  451MOL0     H60875   8.521   1.433   6.003  0.5331  0.5565  1.9184
  451MOL0     H60876   8.675   1.369   6.030  0.6952  2.4117 -0.4791
  451MOL0     H60877   8.651   1.535   5.843  0.2389 -0.0966 -0.2545
  451MOL0     H60878   8.571   1.413   5.753 -1.0120 -1.0777  0.7778
  451MOL0     H60879   8.762   1.369   5.658  3.4338 -0.0319 -1.5181
  451MOL0     H60880   8.779   1.261   5.797 -0.9961  0.4780  2.5082
  451MOL0     H60881   8.922   1.419   5.911 -1.2721  0.8666  0.5923
  451MOL0     H60882   8.883   1.549   5.793 -0.5508  0.4428  0.0324
  451MOL0     H60883   9.181   1.322   5.595  0.5793  2.7586 -0.6316
  451MOL0     H60884   8.447   1.021   5.870 -1.6592 -2.2759 -0.3465
  451MOL0     H60885   8.200   0.965   5.840 -4.7086  1.0619 -1.9078
  452MOL0     O60886   8.302   6.334   6.228  0.6084 -1.1496  0.4324
  452MOL0     C60887   8.411   6.280   6.244 -0.6995  0.0429 -0.0845
  452MOL0     O60888   8.443   6.155   6.204  0.1918 -0.3404  0.3935
  452MOL0     C60889   8.336   6.079   6.148 -0.3780 -0.5005 -0.0716
  452MOL0     C60890   8.316   6.078   6.012 -0.0779  0.5934  0.0816
  452MOL0     C60891   8.216   5.998   5.963  0.5530 -0.1171 -0.2926
  452MOL0     C60892   8.121   5.928   6.038  0.0277  0.7168 -0.7551
  452MOL0     O60893   8.010   5.859   5.988 -0.0713  0.6597  0.0208
  452MOL0     C60894   7.967   5.885   5.857 -0.2491 -0.3463  0.2810
  452MOL0     C60895   7.861   5.787   5.812 -0.4496  0.8092 -0.0584
  452MOL0     C60896   7.737   5.795   5.903 -0.6482 -0.4962 -0.3829
  452MOL0     C60897   7.655   5.662   5.916 -0.2382 -0.0974  0.3849
  452MOL0     C60898   7.534   5.681   6.000  0.2091  0.1744  0.2489
  452MOL0     C60899   7.470   5.538   6.035 -0.1452 -0.3425  0.4446
  452MOL0     C60900   7.340   5.558   6.103  0.2558 -0.2850 -1.0679
  452MOL0     C60901   7.261   5.429   6.140 -1.3822 -0.8793  0.4426
  452MOL0     N60902   7.138   5.466   6.212  0.4952 -0.7421 -0.4253
  452MOL0     C60903   7.062   5.582   6.193  1.0340 -0.6874 -1.1989
  452MOL0     C60904   6.964   5.583   6.292 -0.3901 -0.0369  0.5362
  452MOL0     C60905   6.853   5.682   6.299  0.2601  0.2089 -0.1749
  452MOL0     C60906   6.720   5.659   6.211 -0.5347  0.3035 -0.4770
  452MOL0     C60907   6.594   5.725   6.282 -0.5952  0.2880 -0.4700
  452MOL0     C60908   6.459   5.681   6.225 -1.0706 -0.0713  0.2824
  452MOL0     O60909   6.440   5.535   6.240 -0.1846  0.1077  0.5700
  452MOL0     C60910   6.318   5.480   6.188  0.0185 -0.4206 -0.0925
  452MOL0     C60911   6.218   5.561   6.133  0.4225  0.0658 -0.1255
  452MOL0     C60912   6.097   5.502   6.079  0.3648  0.9468  0.2897
  452MOL0     C60913   5.983   5.600   6.043 -0.2246 -0.0950  0.2111
  452MOL0     C60914   6.089   5.363   6.080  0.5722  0.3088  0.0711
  452MOL0     C60915   5.971   5.292   6.024  0.0937 -0.3393  0.2399
  452MOL0     O60916   5.925   5.340   5.901 -0.1414 -0.0297  0.2183
  452MOL0     C60917   5.811   5.277   5.861 -0.3510 -0.3430  0.5457
  452MOL0     C60918   5.690   5.322   5.900  0.2602  0.1492  0.7693
  452MOL0     C60919   5.572   5.255   5.848 -0.3921 -0.3319  0.0499
  452MOL0     C60920   5.575   5.142   5.774  0.2242 -0.7071  0.4848
  452MOL0     O60921   5.452   5.095   5.752 -0.4646  0.0773 -0.4048
  452MOL0     C60922   5.441   4.965   5.706 -0.7034  0.3413 -0.0572
  452MOL0     C60923   5.302   4.913   5.702 -0.1249 -0.0395  0.2983
  452MOL0     C60924   5.204   4.984   5.619 -0.5732 -0.4198 -0.3614
  452MOL0     C60925   5.079   4.901   5.589 -0.0163 -0.5525  0.4332
  452MOL0     C60926   4.955   4.975   5.533  0.2350 -0.4291  0.0249
  452MOL0     C60927   4.836   4.880   5.525  0.2639  0.0767 -0.2587
  452MOL0     C60928   4.713   4.962   5.488  0.5056 -0.3399 -0.3596
  452MOL0     C60929   4.593   4.876   5.501  0.2915  0.3969 -1.0491
  452MOL0    Cl60930   4.442   4.907   5.399 -0.1247  0.0464 -0.1805
  452MOL0     C60931   5.699   5.098   5.736  0.4463  0.2043  0.1367
  452MOL0     C60932   5.817   5.164   5.779  0.5588 -0.1152 -0.2360
  452MOL0     O60933   5.934   5.193   6.081  0.2192 -0.1633 -0.0973
  452MOL0     C60934   6.187   5.290   6.149  0.9995 -0.5918 -0.5341
  452MOL0     C60935   6.296   5.351   6.206 -0.4133 -0.7659 -0.2667
  452MOL0     N60936   6.986   5.479   6.374 -0.5307  0.2514 -1.3751
  452MOL0     N60937   7.079   5.409   6.328 -0.4047 -0.3672 -0.2855
  452MOL0     C60938   8.138   5.930   6.175  0.2690  0.0737 -0.4747
  452MOL0     C60939   8.247   6.004   6.231  0.2252  0.0721 -1.0404
  452MOL0     C60940   8.522   6.364   6.294 -0.4491 -0.5509  0.1661
  452MOL0     C60941   8.657   6.313   6.276 -0.3548 -0.3760  0.0479
  452MOL0     C60942   8.764   6.382   6.301 -0.8751  0.8518 -0.6204
  452MOL0     C60943   8.757   6.509   6.351  0.2666 -0.6959 -0.6641
  452MOL0     O60944   8.881   6.569   6.379 -0.5242  0.4245  1.1022
  452MOL0     C60945   8.880   6.699   6.443  0.0256  0.6040  0.1603
  452MOL0     C60946   9.018   6.727   6.483  0.0110  0.7499 -0.1536
  452MOL0     C60947   9.115   6.736   6.364 -0.5407  0.0419 -0.3284
  452MOL0     C60948   9.259   6.774   6.403  0.8962 -0.1738  0.4572
  452MOL0     C60949   9.348   6.780   6.282  0.2883  0.6332  0.3059
  452MOL0     C60950   9.433   6.774   6.196  0.8748 -0.8873 -0.3797
  452MOL0     C60951   8.631   6.558   6.385  0.0217 -0.5868  0.0611
  452MOL0     C60952   8.514   6.494   6.356  0.1630 -0.5944  0.1274
  452MOL0     H60953   8.360   6.144   5.938 -1.3374  1.1644 -0.1832
  452MOL0     H60954   8.206   6.007   5.855 -1.2920 -0.3625 -0.1701
  452MOL0     H60955   7.929   5.987   5.842  2.2691  0.5878 -0.2498
  452MOL0     H60956   8.046   5.872   5.783 -1.3990  2.4210 -1.6427
  452MOL0     H60957   7.818   5.806   5.713  1.7520  0.0889 -1.2144
  452MOL0     H60958   7.909   5.689   5.813 -5.1076 -1.8114  1.9399
  452MOL0     H60959   7.768   5.832   6.001 -0.7128 -2.7354  0.5339
  452MOL0     H60960   7.679   5.880   5.867 -0.2437 -0.6119 -1.3445
  452MOL0     H60961   7.635   5.606   5.824 -0.7068 -1.4478  1.2817
  452MOL0     H60962   7.717   5.587   5.966 -1.0082 -0.1917  1.2172
  452MOL0     H60963   7.554   5.736   6.093  0.3125  2.6593 -1.1387
  452MOL0     H60964   7.461   5.734   5.938 -0.1292 -0.4320  0.1292
  452MOL0     H60965   7.446   5.475   5.949  0.1194  0.0096  0.1049
  452MOL0     H60966   7.546   5.496   6.102  1.8278 -0.0225 -1.4731
  452MOL0     H60967   7.370   5.603   6.198 -0.9575 -2.4782  0.4303
  452MOL0     H60968   7.279   5.625   6.041  1.9637  3.1440  0.6685
  452MOL0     H60969   7.327   5.356   6.188  0.7234  0.7304  0.1711
  452MOL0     H60970   7.224   5.392   6.045  0.4003 -0.5000 -0.4437
  452MOL0     H60971   7.045   5.650   6.110 -1.1967  0.0732 -0.1830
  452MOL0     H60972   6.823   5.684   6.404  5.6432  0.4748  1.6483
  452MOL0     H60973   6.885   5.783   6.273 -0.5527  0.5962  0.2729
  452MOL0     H60974   6.694   5.553   6.197 -4.7187  1.0752  0.1867
  452MOL0     H60975   6.724   5.691   6.106 -3.2264  0.1751 -0.6916
  452MOL0     H60976   6.600   5.835   6.288 -0.1998  0.3322 -1.5033
  452MOL0     H60977   6.593   5.691   6.386 -0.0690  1.2196 -0.1462
  452MOL0     H60978   6.461   5.700   6.117  1.1686  1.4843  0.5094
  452MOL0     H60979   6.378   5.731   6.279 -0.7854  1.7306 -0.8634
  452MOL0     H60980   6.222   5.669   6.136  0.4760  0.0467  1.0029
  452MOL0     H60981   5.883   5.564   6.070 -1.1458  0.3673 -2.3107
  452MOL0     H60982   6.008   5.701   6.076  2.0650 -0.7059  0.5139
  452MOL0     H60983   5.972   5.603   5.934  0.2623 -1.9465  0.0616
  452MOL0     H60984   5.681   5.405   5.969  1.5851  2.5706 -1.7688
  452MOL0     H60985   5.477   5.290   5.888 -1.0301 -0.1057 -1.5826
  452MOL0     H60986   5.477   4.955   5.604 -2.0371  1.9394 -0.7346
  452MOL0     H60987   5.508   4.907   5.771  1.2060  1.7853 -0.6565
  452MOL0     H60988   5.310   4.815   5.655  1.4965  0.0723  0.2932
  452MOL0     H60989   5.261   4.904   5.803  0.8003 -0.5470  0.6390
  452MOL0     H60990   5.248   5.012   5.523 -1.0474 -0.4192 -0.5812
  452MOL0     H60991   5.177   5.081   5.663 -1.7194 -0.1822 -1.5081
  452MOL0     H60992   5.098   4.819   5.519 -0.4094  0.5247 -0.9807
  452MOL0     H60993   5.051   4.858   5.686  0.3583 -1.9766 -0.0611
  452MOL0     H60994   4.987   5.017   5.438 -0.4094  1.1584  0.4660
  452MOL0     H60995   4.940   5.050   5.611  0.2065  0.5302 -0.8832
  452MOL0     H60996   4.856   4.803   5.449  1.3949 -0.2640  0.3584
  452MOL0     H60997   4.834   4.824   5.619 -1.4992 -1.4577 -1.1304
  452MOL0     H60998   4.711   5.010   5.390 -3.0220  0.2782 -0.0860
  452MOL0     H60999   4.708   5.048   5.555  1.5420  0.4590 -1.2602
  452MOL0     H61000   4.565   4.868   5.607 -0.6417 -2.0512 -1.4028
  452MOL0     H61001   4.623   4.773   5.478  2.7564  0.6791  0.4731
  452MOL0     H61002   5.705   5.006   5.678 -0.0769 -0.8085  1.6187
  452MOL0     H61003   5.914   5.120   5.759  0.6885 -0.0539  0.2465
  452MOL0     H61004   6.167   5.184   6.150 -0.4289 -0.3467 -0.3416
  452MOL0     H61005   6.372   5.297   6.261  2.0151  1.5256 -1.1670
  452MOL0     H61006   8.081   5.876   6.250  1.3825 -0.7291 -0.1945
  452MOL0     H61007   8.258   6.015   6.338  0.9712  1.1080 -1.1995
  452MOL0     H61008   8.666   6.213   6.233 -0.4704  1.0009 -3.5293
  452MOL0     H61009   8.860   6.344   6.270 -0.2752  2.7956 -1.3194
  452MOL0     H61010   8.835   6.773   6.376 -0.6135  0.5679  0.5416
  452MOL0     H61011   8.826   6.696   6.538  3.2206 -2.0282  2.1441
  452MOL0     H61012   9.051   6.649   6.552 -1.0055  1.8296  1.6364
  452MOL0     H61013   9.031   6.825   6.532 -1.0191 -0.1775  2.1313
  452MOL0     H61014   9.071   6.799   6.286  0.9143  2.4569  0.6984
  452MOL0     H61015   9.134   6.639   6.318  0.7138  1.0815 -2.1337
  452MOL0     H61016   9.299   6.694   6.466  1.6844  0.5553  0.8974
  452MOL0     H61017   9.260   6.871   6.454 -0.0212 -0.2213  0.5941
  452MOL0     H61018   9.505   6.744   6.123  1.2986 -3.0458  0.8293
  452MOL0     H61019   8.631   6.659   6.425 -1.6352  0.2405 -1.8867
  452MOL0     H61020   8.415   6.538   6.363  0.7923  0.6673  1.4958
  453MOL0     O61021   3.379   6.453   1.460  0.6788  0.0362  0.5287
  453MOL0     C61022   3.452   6.374   1.397 -0.5858 -0.2601  0.0562
  453MOL0     O61023   3.399   6.264   1.327 -1.0880 -0.5267  0.1439
  453MOL0     C61024   3.267   6.234   1.352 -0.6750  0.0269  0.2325
  453MOL0     C61025   3.165   6.279   1.268  0.1110 -0.2056 -0.3197
  453MOL0     C61026   3.032   6.241   1.296 -0.4378  0.4031  0.1387
  453MOL0     C61027   3.005   6.140   1.392  0.5793 -0.9953  0.2095
  453MOL0     O61028   2.877   6.097   1.403 -0.8567  0.0464  0.6490
  453MOL0     C61029   2.825   6.023   1.510 -0.1462 -0.3370  0.2281
  453MOL0     C61030   2.693   5.973   1.464 -0.4540 -1.3018  0.6170
  453MOL0     C61031   2.616   5.910   1.585 -0.5441  0.0322 -0.2226
  453MOL0     C61032   2.478   5.883   1.535 -0.3878  0.2495  0.1118
  453MOL0     C61033   2.396   5.812   1.652  0.3552  0.2284  0.7361
  453MOL0     C61034   2.256   5.771   1.596  0.1312 -0.5561  0.1732
  453MOL0     C61035   2.172   5.715   1.715  0.6893 -0.1807 -0.5519
  453MOL0     C61036   2.211   5.590   1.802 -0.5528  1.0902  0.2884
  453MOL0     N61037   2.224   5.473   1.718 -0.4664 -0.0737  0.0258
  453MOL0     C61038   2.118   5.378   1.704 -0.7012 -0.7204 -0.2935
  453MOL0     C61039   2.170   5.274   1.628  0.0148  0.6383  0.6568
  453MOL0     C61040   2.107   5.143   1.591  0.7347  0.1963 -0.4793
  453MOL0     C61041   2.044   5.075   1.715 -0.1867  0.2462  0.0149
  453MOL0     C61042   1.984   4.946   1.662 -0.3600 -0.0491 -0.0418
  453MOL0     C61043   1.942   4.859   1.782 -0.0803  0.4052  0.5770
  453MOL0     O61044   1.821   4.898   1.843  0.1993 -0.4338  0.3643
  453MOL0     C61045   1.707   4.863   1.777  0.6390  0.2858  0.4970
  453MOL0     C61046   1.589   4.907   1.839 -0.6348  0.0918  0.3589
  453MOL0     C61047   1.463   4.888   1.792 -0.8937 -0.1594  0.9963
  453MOL0     C61048   1.352   4.936   1.878  0.4849 -0.4865  0.3507
  453MOL0     C61049   1.450   4.816   1.670 -0.2874  0.1589 -0.5089
  453MOL0     C61050   1.320   4.791   1.602  0.4506  1.1251 -0.5427
  453MOL0     O61051   1.227   4.888   1.598 -0.4565 -0.7538  0.3060
  453MOL0     C61052   1.108   4.848   1.546  0.9043 -1.1634 -0.2236
  453MOL0     C61053   1.088   4.820   1.411  0.5407 -0.6393 -0.8589
  453MOL0     C61054   0.960   4.786   1.362  0.3821 -0.2317 -0.3930
  453MOL0     C61055   0.849   4.773   1.447 -0.7698  0.1908  0.3205
  453MOL0     O61056   0.729   4.749   1.388 -0.2707  0.6533  0.6109
  453MOL0     C61057   0.631   4.695   1.471 -0.0954  0.3802  0.5992
  453MOL0     C61058   0.496   4.675   1.394 -1.5436 -0.1331  0.2449
  453MOL0     C61059   0.363   4.652   1.473 -0.2624 -0.4578  0.5899
  453MOL0     C61060   0.242   4.650   1.374 -0.2288  0.3481 -0.2228
  453MOL0     C61061   0.111   4.615   1.442  0.5568  0.1091  0.2913
  453MOL0     C61062   0.003   4.588   1.345 -0.1325 -0.1210  0.6485
  453MOL0     C61063  -0.127   4.545   1.412 -0.7502 -0.6508 -0.2200
  453MOL0     C61064  -0.212   4.474   1.304  0.6830  0.3815  0.0564
  453MOL0    Cl61065  -0.352   4.406   1.382 -0.1306  0.0555 -0.2540
  453MOL0     C61066   0.879   4.779   1.586  0.2325 -0.6635 -0.6505
  453MOL0     C61067   1.011   4.817   1.637  0.5638 -0.5472 -0.4918
  453MOL0     O61068   1.297   4.673   1.563  0.6804  0.3561  0.8711
  453MOL0     C61069   1.564   4.765   1.602  1.0560 -0.4129 -0.4414
  453MOL0     C61070   1.691   4.796   1.662  0.5561 -0.3625 -0.1984
  453MOL0     N61071   2.295   5.319   1.588  0.1954  0.6256 -0.0167
  453MOL0     N61072   2.321   5.429   1.637  0.1566  0.6653  0.4550
  453MOL0     C61073   3.112   6.092   1.467 -0.7139 -0.1759 -0.2983
  453MOL0     C61074   3.235   6.143   1.452  0.2703 -0.9191  0.4855
  453MOL0     C61075   3.600   6.399   1.376 -0.1527  0.0274 -0.4000
  453MOL0     C61076   3.666   6.318   1.279 -0.4687 -0.4496  0.5973
  453MOL0     C61077   3.805   6.323   1.272 -0.0024  0.4455 -0.1503
  453MOL0     C61078   3.880   6.405   1.365  0.6518 -0.3938  1.0090
  453MOL0     O61079   4.015   6.393   1.354 -0.2132  0.2900 -0.4033
  453MOL0     C61080   4.092   6.444   1.461 -0.3932 -0.6329 -0.7447
  453MOL0     C61081   4.224   6.366   1.473 -0.4439 -1.0101 -0.4015
  453MOL0     C61082   4.308   6.368   1.342 -0.0643  1.1997  0.5475
  453MOL0     C61083   4.455   6.327   1.369  0.3262 -0.1206  0.1583
  453MOL0     C61084   4.481   6.182   1.377 -0.0726 -0.1628 -0.4652
  453MOL0     C61085   4.499   6.060   1.377  0.2254  0.3348 -0.1168
  453MOL0     C61086   3.813   6.503   1.441  0.0673 -0.1641 -0.1815
  453MOL0     C61087   3.676   6.495   1.446 -0.4442 -0.4905 -0.6873
  453MOL0     H61088   3.188   6.342   1.182  1.3168  0.3735  0.4034
  453MOL0     H61089   2.952   6.279   1.234 -1.3230 -1.1309  0.2933
  453MOL0     H61090   2.890   5.943   1.545 -1.7556 -1.8306 -0.0318
  453MOL0     H61091   2.812   6.088   1.597  2.8641  0.2064  0.3642
  453MOL0     H61092   2.639   6.066   1.442 -0.8550 -2.3323 -3.3434
  453MOL0     H61093   2.692   5.901   1.382 -0.7962  0.7296 -1.2641
  453MOL0     H61094   2.668   5.817   1.607 -0.4254  0.6404  2.3195
  453MOL0     H61095   2.620   5.969   1.677 -0.3866 -0.9410  0.4004
  453MOL0     H61096   2.417   5.970   1.510 -0.9849 -0.1750  0.0773
  453MOL0     H61097   2.490   5.821   1.446  0.4309 -0.1370  0.4767
  453MOL0     H61098   2.452   5.724   1.686 -1.7246 -1.6166 -0.2917
  453MOL0     H61099   2.395   5.878   1.739 -1.3201  0.7361  0.3627
  453MOL0     H61100   2.205   5.857   1.553 -0.2552  1.1705  3.7489
  453MOL0     H61101   2.256   5.689   1.522 -1.3630 -0.3327 -0.1035
  453MOL0     H61102   2.152   5.798   1.783  0.2265 -0.7724  0.0364
  453MOL0     H61103   2.069   5.706   1.681 -0.1666 -0.1648  1.8785
  453MOL0     H61104   2.131   5.562   1.871  0.0759 -0.7590  0.3035
  453MOL0     H61105   2.299   5.610   1.863  2.3492 -0.2068 -3.1155
  453MOL0     H61106   2.023   5.387   1.756 -1.3363 -3.6923 -0.7736
  453MOL0     H61107   2.032   5.151   1.512  0.0247 -1.3598  0.0122
  453MOL0     H61108   2.190   5.081   1.556  2.9078  0.8832  2.9299
  453MOL0     H61109   1.965   5.143   1.750  0.7451  1.8856 -0.9553
  453MOL0     H61110   2.114   5.059   1.798 -0.6452 -1.0557  0.1703
  453MOL0     H61111   2.047   4.892   1.591  1.4871  0.1689  1.3481
  453MOL0     H61112   1.898   4.970   1.599  1.2624 -1.3338 -2.9326
  453MOL0     H61113   2.019   4.859   1.859  0.3606 -2.4192  0.2082
  453MOL0     H61114   1.919   4.753   1.768  0.9004  0.0697  1.4191
  453MOL0     H61115   1.604   4.952   1.936  4.2266  1.9512 -0.9936
  453MOL0     H61116   1.282   4.857   1.907 -2.2171  1.1080 -1.4473
  453MOL0     H61117   1.387   5.002   1.958 -1.3105 -1.5618  2.1079
  453MOL0     H61118   1.284   5.002   1.824  1.1787 -0.7021 -0.8152
  453MOL0     H61119   1.158   4.846   1.332 -0.5814  1.7613 -1.1602
  453MOL0     H61120   0.936   4.777   1.256  1.4652 -1.8495 -0.5307
  453MOL0     H61121   0.664   4.596   1.505  1.6615  1.2493  1.5420
  453MOL0     H61122   0.606   4.758   1.557 -3.0883 -1.4288  1.1818
  453MOL0     H61123   0.473   4.760   1.330  0.1036  0.6352  0.6315
  453MOL0     H61124   0.510   4.586   1.332  2.7515  0.9082 -0.6191
  453MOL0     H61125   0.347   4.738   1.539 -1.1995  0.9047 -1.3232
  453MOL0     H61126   0.359   4.560   1.532  0.1490 -0.5403  0.4879
  453MOL0     H61127   0.239   4.753   1.339  0.6026  0.4483 -0.0153
  453MOL0     H61128   0.265   4.582   1.291  2.4055 -0.5492  1.1052
  453MOL0     H61129   0.093   4.703   1.504 -0.1499  0.6266 -0.6233
  453MOL0     H61130   0.120   4.527   1.506  1.4431 -2.0699 -2.5974
  453MOL0     H61131  -0.016   4.673   1.279  0.6390  0.3459  1.0074
  453MOL0     H61132   0.039   4.514   1.273 -0.6937 -1.3214  1.5623
  453MOL0     H61133  -0.180   4.622   1.468 -1.0308 -0.4658 -0.7423
  453MOL0     H61134  -0.097   4.467   1.484 -0.6296  2.3436  3.2431
  453MOL0     H61135  -0.155   4.388   1.267 -0.2611  0.2100 -1.0376
  453MOL0     H61136  -0.239   4.539   1.221 -0.5116  1.3569  1.1581
  453MOL0     H61137   0.793   4.782   1.652  0.6568 -3.6110  0.1741
  453MOL0     H61138   1.035   4.847   1.739 -0.7923 -2.6230  0.5221
  453MOL0     H61139   1.557   4.707   1.511  1.2792 -1.5544  0.2460
  453MOL0     H61140   1.777   4.761   1.607  2.0538  0.4730  1.5130
  453MOL0     H61141   3.100   6.015   1.543  0.8767 -1.6804 -1.4933
  453MOL0     H61142   3.315   6.109   1.517  0.3441  1.7820  1.9405
  453MOL0     H61143   3.620   6.242   1.217 -0.0534 -1.3075  1.3028
  453MOL0     H61144   3.850   6.266   1.192 -1.4344 -0.2590 -0.4901
  453MOL0     H61145   4.102   6.551   1.440 -1.9594 -0.5801 -1.4002
  453MOL0     H61146   4.046   6.434   1.560  1.6225 -1.0274  0.2027
  453MOL0     H61147   4.209   6.266   1.517  1.2783 -1.9219 -1.7583
  453MOL0     H61148   4.281   6.424   1.546  0.8121 -2.1682 -0.4203
  453MOL0     H61149   4.313   6.468   1.299 -0.5241  0.8497 -0.3417
  453MOL0     H61150   4.261   6.296   1.274 -2.4261  2.0292  1.1907
  453MOL0     H61151   4.507   6.375   1.452  0.0318  4.6347 -2.0939
  453MOL0     H61152   4.501   6.359   1.275 -1.5711 -0.5163 -0.9546
  453MOL0     H61153   4.520   5.955   1.373  2.7716  0.7506  0.7988
  453MOL0     H61154   3.870   6.568   1.508 -0.0510 -0.1819 -0.0637
  453MOL0     H61155   3.612   6.555   1.511 -3.0094 -3.2378 -0.4383
  454MOL0     O61156  10.853   6.332   1.861 -0.7259  0.9474  0.1603
  454MOL0     C61157  10.852   6.322   1.732 -0.7234  0.7917  0.4807
  454MOL0     O61158  10.740   6.300   1.652  0.2429 -0.0923  0.6445
  454MOL0     C61159  10.614   6.300   1.711  0.1591  0.0348  0.0495
  454MOL0     C61160  10.570   6.188   1.778  0.4989 -0.2441 -1.0236
  454MOL0     C61161  10.433   6.173   1.818 -0.4824 -0.3561 -0.2612
  454MOL0     C61162  10.348   6.276   1.793  0.5633 -0.1559 -0.1289
  454MOL0     O61163  10.215   6.272   1.826 -0.2882 -0.3589 -0.0914
  454MOL0     C61164  10.145   6.188   1.738  0.3963  0.6249  0.7941
  454MOL0     C61165  10.015   6.140   1.799  0.2593  1.0674  0.9308
  454MOL0     C61166   9.905   6.241   1.783 -1.7550 -0.8519  0.2586
  454MOL0     C61167   9.764   6.186   1.812  0.4774  0.3771  0.1656
  454MOL0     C61168   9.658   6.293   1.811  0.2733 -0.0572 -0.2145
  454MOL0     C61169   9.512   6.232   1.825 -0.9206  0.6481  0.1605
  454MOL0     C61170   9.399   6.341   1.832 -0.0613  0.8078  0.2372
  454MOL0     C61171   9.257   6.281   1.852 -0.1254  0.9428  0.1745
  454MOL0     N61172   9.161   6.379   1.856  0.6350 -0.3846 -0.4430
  454MOL0     C61173   9.132   6.459   1.961 -0.2861  0.0338  0.4594
  454MOL0     C61174   9.038   6.544   1.905  0.6141 -0.4740 -0.7202
  454MOL0     C61175   8.977   6.661   1.986  0.5722 -0.2543  0.5095
  454MOL0     C61176   8.842   6.710   1.942  0.2762 -0.2177 -0.4185
  454MOL0     C61177   8.863   6.813   1.829  0.1172 -0.4005  0.8685
  454MOL0     C61178   8.732   6.880   1.782 -0.6291  0.1613  0.6670
  454MOL0     O61179   8.656   6.942   1.882  0.1295  0.6204 -1.0566
  454MOL0     C61180   8.538   6.887   1.929 -0.2187  0.2731  0.2032
  454MOL0     C61181   8.440   6.877   1.837  0.1193 -0.3022  0.0888
  454MOL0     C61182   8.315   6.824   1.863  0.2329 -0.6228 -0.4178
  454MOL0     C61183   8.207   6.835   1.760 -0.7264 -0.4721 -0.2030
  454MOL0     C61184   8.294   6.773   1.992  0.0845  0.0690  0.4007
  454MOL0     C61185   8.175   6.696   2.030 -1.2024 -0.4504 -0.1373
  454MOL0     O61186   8.136   6.600   1.940  0.0653  0.0372 -0.7807
  454MOL0     C61187   8.011   6.543   1.955  0.2111  0.0126 -0.9643
  454MOL0     C61188   7.997   6.402   1.943 -0.8382 -0.4060 -0.0808
  454MOL0     C61189   7.877   6.342   1.960  0.2890  0.2697 -0.2181
  454MOL0     C61190   7.760   6.417   1.973 -1.1973 -0.2984  0.4547
  454MOL0     O61191   7.632   6.367   2.006  0.0490  0.4141  0.3979
  454MOL0     C61192   7.624   6.228   2.050 -0.6120  0.0921 -0.2955
  454MOL0     C61193   7.480   6.180   2.083  0.0912  0.4602 -0.4647
  454MOL0     C61194   7.359   6.248   2.016 -0.5425  0.0532  0.2610
  454MOL0     C61195   7.235   6.196   2.098  0.3013 -0.8958 -0.0633
  454MOL0     C61196   7.105   6.261   2.051  0.2498 -0.1985 -0.1686
  454MOL0     C61197   6.999   6.161   2.099  0.2390  0.9708  0.7827
  454MOL0     C61198   6.865   6.226   2.069  0.2213  0.9594 -0.5663
  454MOL0     C61199   6.754   6.129   2.117 -0.4448 -0.6383  0.9089
  454MOL0    Cl61200   6.607   6.190   2.045 -0.1267 -0.1445  0.5638
  454MOL0     C61201   7.772   6.561   1.972  0.9403 -0.3869  0.0051
  454MOL0     C61202   7.890   6.622   1.970  0.0226 -0.0655 -0.3613
  454MOL0     O61203   8.110   6.740   2.123  0.0132 -0.3599 -0.4135
  454MOL0     C61204   8.380   6.809   2.094 -0.1755 -0.6463  0.1029
  454MOL0     C61205   8.511   6.859   2.061  0.2223 -0.4089  0.1747
  454MOL0     N61206   9.016   6.503   1.775  0.2555  0.1976  0.1842
  454MOL0     N61207   9.102   6.416   1.747  0.3080  0.7402 -0.9697
  454MOL0     C61208  10.394   6.385   1.722 -1.1330 -1.0169  0.2233
  454MOL0     C61209  10.528   6.397   1.678  0.0165 -0.0214  0.1835
  454MOL0     C61210  10.986   6.339   1.663 -0.2105  0.5298 -0.0112
  454MOL0     C61211  11.104   6.355   1.731  0.4586 -0.3599  0.6546
  454MOL0     C61212  11.226   6.354   1.673 -0.5113  0.2658  0.1749
  454MOL0     C61213  11.239   6.343   1.535  0.2788 -0.4138 -0.4857
  454MOL0     O61214  11.363   6.353   1.485  0.5290 -0.2940  0.3039
  454MOL0     C61215  11.381   6.409   1.356  0.7619  0.3043  0.0902
  454MOL0     C61216  11.529   6.435   1.334  0.1007  0.1885 -0.1904
  454MOL0     C61217  11.584   6.561   1.393 -0.2244  0.7817  0.0171
  454MOL0     C61218  11.581   6.571   1.546 -0.8100 -0.7163  0.3427
  454MOL0     C61219  11.681   6.480   1.606  0.0463  0.2473  0.2832
  454MOL0     C61220  11.770   6.423   1.657  0.0100  0.7909  0.1603
  454MOL0     C61221  11.124   6.344   1.457 -0.4239  0.0486  0.6504
  454MOL0     C61222  10.999   6.347   1.526  0.4792  0.3227  0.2672
  454MOL0     H61223  10.644   6.111   1.800 -0.4402 -1.7988 -2.9940
  454MOL0     H61224  10.411   6.088   1.881  0.2383 -0.5986 -0.3266
  454MOL0     H61225  10.114   6.242   1.648  1.2620  2.5563  1.5892
  454MOL0     H61226  10.210   6.107   1.702 -1.0633 -0.9258  1.5298
  454MOL0     H61227   9.988   6.053   1.739 -0.9609  2.6498 -0.9420
  454MOL0     H61228  10.028   6.112   1.904  1.1001  0.0995  0.5950
  454MOL0     H61229   9.927   6.321   1.854 -0.6134  0.5611 -1.6198
  454MOL0     H61230   9.907   6.271   1.678  0.6423 -0.7503  0.2805
  454MOL0     H61231   9.738   6.111   1.736 -0.3238  2.6033 -1.9039
  454MOL0     H61232   9.769   6.137   1.910 -1.4119 -0.8333 -0.2938
  454MOL0     H61233   9.683   6.363   1.892 -0.2622  0.1992 -0.2641
  454MOL0     H61234   9.660   6.348   1.716  0.3309 -0.0950 -0.2354
  454MOL0     H61235   9.496   6.172   1.735 -0.5720  1.3211 -0.3528
  454MOL0     H61236   9.506   6.169   1.915 -2.9823 -1.4323 -1.3198
  454MOL0     H61237   9.429   6.405   1.916  3.3267 -0.7663  0.3701
  454MOL0     H61238   9.409   6.395   1.738 -0.7291 -2.2970 -1.7582
  454MOL0     H61239   9.254   6.227   1.947 -0.5109 -1.9238 -1.3901
  454MOL0     H61240   9.236   6.208   1.774  1.4729 -0.2951  0.8498
  454MOL0     H61241   9.183   6.451   2.056  1.4046 -0.3337 -0.4388
  454MOL0     H61242   8.968   6.617   2.086 -0.5425  0.4350  0.7336
  454MOL0     H61243   9.054   6.739   1.994 -0.1072  0.7309 -1.7234
  454MOL0     H61244   8.793   6.761   2.027  1.4452 -0.3421  0.3496
  454MOL0     H61245   8.788   6.622   1.905  1.5585 -0.1133 -2.6541
  454MOL0     H61246   8.909   6.770   1.740  2.0392 -1.4579  2.3038
  454MOL0     H61247   8.936   6.888   1.859  1.5776 -1.8432  1.0904
  454MOL0     H61248   8.670   6.808   1.729 -1.1453  0.9551  0.1764
  454MOL0     H61249   8.751   6.963   1.713  0.5536 -0.9363 -0.3875
  454MOL0     H61250   8.459   6.909   1.735  1.8724  1.4792  0.9000
  454MOL0     H61251   8.111   6.795   1.791 -1.4883  1.0008 -0.5373
  454MOL0     H61252   8.188   6.942   1.747  3.0003  0.1757 -1.4733
  454MOL0     H61253   8.232   6.795   1.662 -0.7319  0.4338 -0.5893
  454MOL0     H61254   8.081   6.336   1.957  0.2140  1.5337  4.3747
  454MOL0     H61255   7.888   6.235   1.978 -0.0867  0.4721  1.3960
  454MOL0     H61256   7.658   6.170   1.963  0.8752  0.7691 -0.1918
  454MOL0     H61257   7.705   6.221   2.123 -0.7297  2.2178  0.0925
  454MOL0     H61258   7.470   6.077   2.047  1.8633  0.3701 -0.8186
  454MOL0     H61259   7.464   6.185   2.191  0.3547  0.6045 -0.4314
  454MOL0     H61260   7.360   6.227   1.908  1.5287  1.1424  0.0260
  454MOL0     H61261   7.359   6.356   2.031 -0.2603  0.0534  0.2513
  454MOL0     H61262   7.226   6.089   2.080  1.6378 -1.1588  0.7103
  454MOL0     H61263   7.249   6.215   2.205 -0.5041  0.9112 -0.2372
  454MOL0     H61264   7.106   6.282   1.944 -2.5383  0.4431 -0.1618
  454MOL0     H61265   7.096   6.361   2.094  0.1682  0.5537 -1.8591
  454MOL0     H61266   7.011   6.074   2.034  1.7023  3.2107 -2.1883
  454MOL0     H61267   7.003   6.126   2.203 -0.2447  0.7222  0.7245
  454MOL0     H61268   6.850   6.259   1.966  0.2759  0.2219 -0.8181
  454MOL0     H61269   6.860   6.320   2.125 -0.4597  1.7182 -1.8665
  454MOL0     H61270   6.750   6.138   2.226 -2.4207  0.4623  0.7931
  454MOL0     H61271   6.773   6.024   2.094  2.6154 -0.0731  0.4505
  454MOL0     H61272   7.679   6.616   1.982  1.0744  0.7404 -3.5995
  454MOL0     H61273   7.898   6.730   1.979  0.9619  0.1552 -3.0140
  454MOL0     H61274   8.351   6.784   2.195 -0.3073 -1.9951 -0.2368
  454MOL0     H61275   8.583   6.878   2.140 -0.5776 -2.7729  1.6048
  454MOL0     H61276  10.316   6.454   1.692  0.4500  0.0532 -1.7536
  454MOL0     H61277  10.566   6.480   1.620 -0.3828 -1.6238 -2.5551
  454MOL0     H61278  11.112   6.355   1.839  2.2950 -0.7228  0.5527
  454MOL0     H61279  11.314   6.364   1.735  2.2757 -0.2847 -3.4017
  454MOL0     H61280  11.342   6.338   1.282 -0.6684 -1.1383  2.1293
  454MOL0     H61281  11.318   6.498   1.344 -1.5093 -1.3160 -0.9474
  454MOL0     H61282  11.544   6.445   1.226 -3.3860  1.2571 -0.6776
  454MOL0     H61283  11.584   6.344   1.363  1.2380 -0.0424 -2.8184
  454MOL0     H61284  11.516   6.643   1.369 -0.7689  0.7064  1.2329
  454MOL0     H61285  11.684   6.583   1.357 -0.4676  0.0675 -1.1247
  454MOL0     H61286  11.484   6.563   1.597 -0.8192 -0.2132  0.4169
  454MOL0     H61287  11.615   6.671   1.573 -0.7783 -0.0483 -1.9891
  454MOL0     H61288  11.845   6.375   1.717  0.6963 -1.4808 -2.2871
  454MOL0     H61289  11.117   6.350   1.349 -2.5446  1.6169  0.8178
  454MOL0     H61290  10.913   6.346   1.459  2.4716 -1.6189 -2.5127
  455MOL0     O61291   7.791   4.849   2.505 -0.0765  0.4964 -0.5601
  455MOL0     C61292   7.782   4.961   2.562  0.6026  0.0610 -0.2283
  455MOL0     O61293   7.670   5.040   2.560 -0.1143  0.3625 -0.4124
  455MOL0     C61294   7.551   4.979   2.524 -0.1100 -0.6031  0.1245
  455MOL0     C61295   7.456   4.939   2.620 -0.3924 -0.6025 -0.4349
  455MOL0     C61296   7.345   4.871   2.585  0.0784 -0.2852  0.5745
  455MOL0     C61297   7.320   4.844   2.449  0.6694  0.2530 -0.4398
  455MOL0     O61298   7.211   4.769   2.401  0.4040 -0.2030  0.1520
  455MOL0     C61299   7.102   4.744   2.486 -0.5354  0.1200  0.3871
  455MOL0     C61300   6.985   4.687   2.414 -0.6150 -1.0977  0.1167
  455MOL0     C61301   6.917   4.807   2.350  0.3666  0.1571 -0.3997
  455MOL0     C61302   6.776   4.767   2.299  0.4039  0.9053  0.0469
  455MOL0     C61303   6.711   4.881   2.216 -0.1893  1.0007 -0.2946
  455MOL0     C61304   6.659   4.979   2.308 -0.1125 -0.7299  0.2148
  455MOL0     C61305   6.634   5.113   2.232  0.6380 -0.4596  1.0363
  455MOL0     C61306   6.525   5.197   2.304 -0.2200 -0.2896  0.4517
  455MOL0     N61307   6.577   5.226   2.442 -0.0604 -0.1563 -0.4581
  455MOL0     C61308   6.646   5.341   2.468  0.3305 -0.1330 -0.3192
  455MOL0     C61309   6.650   5.342   2.605 -0.5523 -0.6935  0.3746
  455MOL0     C61310   6.736   5.434   2.691 -0.3526  0.0799 -0.8119
  455MOL0     C61311   6.893   5.409   2.679  0.0276 -0.1372 -0.4732
  455MOL0     C61312   6.948   5.268   2.716 -0.1718 -0.7687  0.8843
  455MOL0     C61313   6.912   5.206   2.849  0.1890 -0.3572  0.6485
  455MOL0     O61314   6.978   5.080   2.868 -0.1312 -0.4453  0.2325
  455MOL0     C61315   6.927   4.963   2.820  0.3368  0.3251 -0.0034
  455MOL0     C61316   6.986   4.836   2.862  0.7696 -0.3243  0.1506
  455MOL0     C61317   6.934   4.720   2.831  0.1737  0.8932  0.3966
  455MOL0     C61318   6.994   4.601   2.896 -0.0410  0.4470 -0.3622
  455MOL0     C61319   6.828   4.713   2.737  0.4347  0.7413  0.4836
  455MOL0     C61320   6.771   4.584   2.679 -0.0526 -0.4571  0.0644
  455MOL0     O61321   6.648   4.606   2.625 -0.3441  1.5439 -0.1827
  455MOL0     C61322   6.570   4.492   2.609 -0.7542 -0.0789 -0.5215
  455MOL0     C61323   6.484   4.457   2.717 -0.4905  0.9931 -0.1742
  455MOL0     C61324   6.414   4.340   2.715 -0.0076  0.2838  0.2350
  455MOL0     C61325   6.418   4.254   2.607 -0.5110 -0.0963  0.5719
  455MOL0     O61326   6.339   4.142   2.618 -0.2610  0.2495 -0.0340
  455MOL0     C61327   6.303   4.071   2.504 -0.4419  0.3042 -0.0311
  455MOL0     C61328   6.182   3.982   2.542 -1.1792  0.0200 -0.6660
  455MOL0     C61329   6.059   4.068   2.577  0.0525  0.1313 -0.0396
  455MOL0     C61330   5.929   4.000   2.589 -0.1770  0.4435  0.1265
  455MOL0     C61331   5.807   4.094   2.566 -0.2658  0.3407  0.3264
  455MOL0     C61332   5.677   4.023   2.590  0.0955  0.5467 -0.3071
  455MOL0     C61333   5.552   4.114   2.570  0.8040 -0.7366  0.2388
  455MOL0     C61334   5.430   4.037   2.610  0.0307 -0.3417 -0.1202
  455MOL0    Cl61335   5.419   4.058   2.792 -0.6647  0.8670 -0.3462
  455MOL0     C61336   6.502   4.280   2.501 -0.3184  0.7184  0.3478
  455MOL0     C61337   6.583   4.401   2.504  0.4222  0.7492  0.7950
  455MOL0     O61338   6.829   4.475   2.694  0.6222 -0.6741 -0.1039
  455MOL0     C61339   6.778   4.834   2.683  0.0333 -0.0183 -0.0085
  455MOL0     C61340   6.820   4.959   2.727  0.3197  0.2668  0.6641
  455MOL0     N61341   6.571   5.244   2.650  0.4456  0.1622 -0.9455
  455MOL0     N61342   6.526   5.169   2.555 -0.3808  0.2785 -0.4507
  455MOL0     C61343   7.419   4.880   2.353  0.0598  0.6000  0.0430
  455MOL0     C61344   7.530   4.959   2.391 -0.9030  0.4251  0.2795
  455MOL0     C61345   7.909   5.009   2.628 -0.0818  0.6888 -0.2908
  455MOL0     C61346   8.031   4.939   2.622 -0.0573 -0.3988 -0.0223
  455MOL0     C61347   8.140   4.991   2.692  0.6044 -0.3510  0.5098
  455MOL0     C61348   8.125   5.104   2.773 -0.2762 -0.1422 -1.2673
  455MOL0     O61349   8.227   5.158   2.845 -0.3094  1.3307  0.1647
  455MOL0     C61350   8.361   5.097   2.843 -0.1005  0.8702 -0.2392
  455MOL0     C61351   8.446   5.152   2.961  0.0190  0.2305  0.5871
  455MOL0     C61352   8.593   5.141   2.930  0.0391 -0.1696  0.0400
  455MOL0     C61353   8.690   5.170   3.059  0.0073 -1.0150  0.5010
  455MOL0     C61354   8.823   5.133   3.026 -0.4409 -0.3542 -0.2219
  455MOL0     C61355   8.936   5.094   3.011  0.0216 -0.9476  0.0582
  455MOL0     C61356   8.007   5.174   2.768 -0.1178 -0.4534  0.0773
  455MOL0     C61357   7.895   5.128   2.702 -0.2023 -0.1501  0.2864
  455MOL0     H61358   7.479   4.966   2.723 -0.7546  0.0442 -0.5187
  455MOL0     H61359   7.265   4.843   2.653 -0.2399 -0.4115  0.1515
  455MOL0     H61360   7.132   4.655   2.542 -0.0845  0.6966  1.0902
  455MOL0     H61361   7.078   4.834   2.544 -0.8906  1.1387 -1.2761
  455MOL0     H61362   7.016   4.613   2.340  0.3209 -0.6798  0.0762
  455MOL0     H61363   6.919   4.634   2.484  0.1290  0.2432  1.9216
  455MOL0     H61364   6.913   4.889   2.422  0.5972 -0.6530  0.5687
  455MOL0     H61365   6.989   4.835   2.272  2.8238 -3.3829  0.3271
  455MOL0     H61366   6.794   4.678   2.239  0.8504 -0.1476  1.6808
  455MOL0     H61367   6.713   4.730   2.380 -0.4522  3.1420  0.4922
  455MOL0     H61368   6.795   4.924   2.161  0.4440 -1.6849 -1.5749
  455MOL0     H61369   6.638   4.832   2.150 -0.7985  2.5693 -0.8314
  455MOL0     H61370   6.568   4.940   2.355  1.1769 -1.3226  2.3363
  455MOL0     H61371   6.722   4.998   2.395  0.1414 -0.8408  0.0555
  455MOL0     H61372   6.728   5.160   2.199  0.2764  1.4605  2.5431
  455MOL0     H61373   6.588   5.075   2.140  5.2421 -3.3132 -0.4554
  455MOL0     H61374   6.430   5.143   2.307 -0.6966  0.5725  1.2812
  455MOL0     H61375   6.495   5.285   2.247 -0.6063  0.9940  2.5176
  455MOL0     H61376   6.703   5.406   2.402 -0.1296 -0.1271 -0.7112
  455MOL0     H61377   6.734   5.539   2.659 -3.0466  0.9764  1.8669
  455MOL0     H61378   6.704   5.427   2.796 -0.6177  2.8065 -0.6222
  455MOL0     H61379   6.937   5.483   2.747  0.8261 -0.9440 -0.0860
  455MOL0     H61380   6.921   5.423   2.575 -2.1238  0.4674 -1.0370
  455MOL0     H61381   7.056   5.270   2.701 -0.4628 -1.7871 -2.0488
  455MOL0     H61382   6.921   5.202   2.633  0.2931  1.7250 -1.3538
  455MOL0     H61383   6.804   5.188   2.847  0.5418 -3.3585  2.2104
  455MOL0     H61384   6.935   5.272   2.933  0.1436 -0.7433  0.9686
  455MOL0     H61385   7.071   4.838   2.931  0.7567  3.0655  0.2282
  455MOL0     H61386   6.921   4.539   2.950  1.5276 -1.0263  0.1729
  455MOL0     H61387   7.046   4.542   2.820  0.5580  1.0673 -0.4436
  455MOL0     H61388   7.074   4.631   2.965  0.1641  2.9819 -1.6266
  455MOL0     H61389   6.488   4.520   2.805  2.8033  0.6193  0.0844
  455MOL0     H61390   6.341   4.325   2.793 -2.3884  1.1654 -1.7049
  455MOL0     H61391   6.265   4.146   2.434  1.2441 -0.2969 -1.6559
  455MOL0     H61392   6.377   4.019   2.443 -1.6551  1.6328 -2.7813
  455MOL0     H61393   6.169   3.917   2.455 -1.3759 -0.0842 -0.5595
  455MOL0     H61394   6.217   3.929   2.631  1.8699  1.5995 -0.7699
  455MOL0     H61395   6.048   4.137   2.492 -2.8407 -1.1307 -0.8051
  455MOL0     H61396   6.074   4.114   2.676  2.8536  0.9448 -0.7431
  455MOL0     H61397   5.933   3.923   2.511  3.3265  0.9207 -0.3294
  455MOL0     H61398   5.910   3.944   2.681 -1.6642 -2.0302 -1.5453
  455MOL0     H61399   5.821   4.152   2.474  2.7113 -0.2499  0.3164
  455MOL0     H61400   5.813   4.170   2.645 -3.7027  0.8514  0.2240
  455MOL0     H61401   5.681   3.940   2.519  1.2523 -0.6561  1.0920
  455MOL0     H61402   5.676   3.983   2.692 -0.9525  0.2168 -0.4416
  455MOL0     H61403   5.544   4.141   2.464 -3.4247 -2.4212 -0.0454
  455MOL0     H61404   5.562   4.202   2.635 -0.3166  0.3731 -1.0234
  455MOL0     H61405   5.446   3.930   2.592 -1.8187 -0.7060  0.1866
  455MOL0     H61406   5.335   4.069   2.567 -0.2290  0.7206  1.1834
  455MOL0     H61407   6.515   4.218   2.412 -1.3335  2.0666 -0.7944
  455MOL0     H61408   6.657   4.421   2.427  0.1183  0.1686  0.3362
  455MOL0     H61409   6.699   4.834   2.609  0.2871  3.2729 -0.4571
  455MOL0     H61410   6.767   5.043   2.684  1.8271  0.9336  0.0340
  455MOL0     H61411   7.387   4.862   2.251 -1.3718  4.5914 -0.3638
  455MOL0     H61412   7.609   4.975   2.318  0.2532 -3.1621  0.5381
  455MOL0     H61413   8.043   4.840   2.579 -0.3185  0.9572 -3.5660
  455MOL0     H61414   8.230   4.931   2.705  1.4193  0.9646  1.1753
  455MOL0     H61415   8.361   4.989   2.855 -0.6899  0.7978 -0.8121
  455MOL0     H61416   8.405   5.115   2.744 -0.9571 -0.5239 -0.8946
  455MOL0     H61417   8.426   5.102   3.057  0.4180 -0.1927  0.4507
  455MOL0     H61418   8.424   5.258   2.977 -0.5492  0.0906  0.7931
  455MOL0     H61419   8.609   5.218   2.854  0.1692  1.2569  1.4542
  455MOL0     H61420   8.621   5.044   2.889  1.5001  0.9051 -1.6546
  455MOL0     H61421   8.653   5.106   3.140 -1.0047 -0.6902  0.3152
  455MOL0     H61422   8.679   5.272   3.097 -0.8423 -1.7867  2.4971
  455MOL0     H61423   9.038   5.062   3.008 -0.1257 -1.3701 -2.8596
  455MOL0     H61424   7.989   5.258   2.835  0.0624 -0.6461  0.3709
  455MOL0     H61425   7.808   5.191   2.719  0.4110  0.3143  2.0042
  456MOL0     O61426  10.771   5.433   4.844 -0.1713 -0.1398 -0.5196
  456MOL0     C61427  10.837   5.406   4.944 -0.4471 -0.0381  0.4833
  456MOL0     O61428  10.803   5.326   5.054 -0.2990 -0.0027  0.5862
  456MOL0     C61429  10.680   5.262   5.055  0.1628  0.1910  0.4444
  456MOL0     C61430  10.554   5.307   5.010  0.5105 -0.1630 -0.4151
  456MOL0     C61431  10.433   5.240   5.018  0.5806 -0.0981 -0.3772
  456MOL0     C61432  10.435   5.116   5.085 -0.3066  0.0203 -0.0323
  456MOL0     O61433  10.330   5.029   5.088  0.0379 -0.0154  0.1179
  456MOL0     C61434  10.192   5.076   5.071  0.8883 -0.3180  0.0623
  456MOL0     C61435  10.108   4.967   5.140  0.5475  0.0069  0.4006
  456MOL0     C61436   9.954   5.002   5.166  0.0777 -0.1859  0.0938
  456MOL0     C61437   9.938   5.110   5.270 -0.3509  0.0169 -0.8600
  456MOL0     C61438   9.807   5.182   5.275 -0.0960  1.1968 -0.3185
  456MOL0     C61439   9.708   5.097   5.361 -0.0040 -0.5366 -0.3162
  456MOL0     C61440   9.566   5.149   5.350 -0.0979 -0.9119  0.7423
  456MOL0     C61441   9.471   5.108   5.465 -0.7327 -0.1653 -0.8122
  456MOL0     N61442   9.344   5.165   5.453 -0.1453 -0.9310 -0.3309
  456MOL0     C61443   9.242   5.115   5.371  0.4796 -0.2940 -0.0526
  456MOL0     C61444   9.138   5.202   5.400  0.1052  0.3447 -0.8396
  456MOL0     C61445   9.009   5.221   5.323 -0.9431  0.1682 -0.3929
  456MOL0     C61446   8.972   5.114   5.230 -0.3295  0.1081  0.7147
  456MOL0     C61447   8.906   4.989   5.306 -0.5877 -1.0837  0.6676
  456MOL0     C61448   8.797   4.923   5.227  0.2877 -0.4166  0.7635
  456MOL0     O61449   8.698   5.027   5.196  0.0079 -0.3033  0.3551
  456MOL0     C61450   8.585   4.980   5.140  0.7168 -0.2761  0.1325
  456MOL0     C61451   8.556   4.851   5.098 -0.1057 -0.4717  0.7440
  456MOL0     C61452   8.427   4.818   5.045  0.0012  0.4932  1.0249
  456MOL0     C61453   8.409   4.672   5.009 -0.0236 -0.6716 -0.7244
  456MOL0     C61454   8.331   4.922   5.022  0.5943  0.7506  0.1692
  456MOL0     C61455   8.187   4.902   4.977 -0.7374 -0.8295  0.8949
  456MOL0     O61456   8.123   5.018   4.944  0.1358 -0.0921  0.5290
  456MOL0     C61457   8.001   4.991   4.878  0.3192 -0.2902  0.4740
  456MOL0     C61458   7.875   5.013   4.938  0.1672 -1.0853  0.7685
  456MOL0     C61459   7.766   4.979   4.871  0.6841 -0.2298  0.1341
  456MOL0     C61460   7.763   4.930   4.747 -0.2821  0.3117  0.3751
  456MOL0     O61461   7.643   4.908   4.686 -0.1702 -0.1345  0.2524
  456MOL0     C61462   7.646   4.821   4.564 -0.1803 -0.3291 -0.5024
  456MOL0     C61463   7.507   4.774   4.515 -0.0278 -0.1321  0.0504
  456MOL0     C61464   7.387   4.863   4.521  0.2008  0.1057 -0.7021
  456MOL0     C61465   7.410   4.995   4.445 -0.2858 -0.6507  0.5309
  456MOL0     C61466   7.305   5.096   4.471  0.4296 -0.0888 -0.2896
  456MOL0     C61467   7.174   5.062   4.398  0.5423  0.0115  0.6486
  456MOL0     C61468   7.070   5.173   4.402 -0.2547 -0.4275  1.4384
  456MOL0     C61469   6.935   5.148   4.340  1.3506 -0.0069 -0.3950
  456MOL0    Cl61470   6.854   5.308   4.311 -0.2068 -0.6333 -0.0015
  456MOL0     C61471   7.883   4.900   4.685 -0.7475  0.8241 -0.2311
  456MOL0     C61472   8.002   4.934   4.748 -0.0195  0.3493 -0.5221
  456MOL0     O61473   8.147   4.786   4.968 -0.6657  0.2682  0.7536
  456MOL0     C61474   8.373   5.052   5.052  0.4472  0.2028  0.0629
  456MOL0     C61475   8.496   5.077   5.112  0.4677  0.4586 -0.2349
  456MOL0     N61476   9.190   5.312   5.484 -0.3301  0.4461 -0.0908
  456MOL0     N61477   9.304   5.273   5.516  0.9102 -0.0519 -0.2271
  456MOL0     C61478  10.553   5.065   5.130 -0.3365 -0.3295  0.0304
  456MOL0     C61479  10.673   5.138   5.122  0.3879  0.6883  0.1401
  456MOL0     C61480  10.974   5.459   4.944 -0.1770  0.0488 -0.3135
  456MOL0     C61481  11.004   5.568   4.857  0.3263 -0.3652 -0.2079
  456MOL0     C61482  11.135   5.620   4.850  0.1079 -0.7526  0.4643
  456MOL0     C61483  11.234   5.585   4.945  0.8130 -0.3443  0.7729
  456MOL0     O61484  11.365   5.635   4.953 -0.1271  0.1556 -0.2171
  456MOL0     C61485  11.392   5.751   4.870  0.1258  0.4555 -0.7566
  456MOL0     C61486  11.538   5.789   4.909  0.1212 -0.2491 -0.0142
  456MOL0     C61487  11.580   5.923   4.832  0.4700  0.5921  0.3566
  456MOL0     C61488  11.625   6.033   4.929 -0.3746  0.2140  0.6717
  456MOL0     C61489  11.512   6.084   5.006  0.0517 -0.1965  0.1185
  456MOL0     C61490  11.410   6.126   5.056 -0.6274 -1.0043  1.3203
  456MOL0     C61491  11.203   5.471   5.025  0.4835  0.2859 -0.4742
  456MOL0     C61492  11.074   5.419   5.038 -0.2334 -0.4867  0.0592
  456MOL0     H61493  10.544   5.406   4.967 -3.9650 -0.6150 -0.9157
  456MOL0     H61494  10.351   5.287   4.966  0.4611 -0.0149 -0.1155
  456MOL0     H61495  10.178   5.173   5.119  2.4783  0.2760 -0.5788
  456MOL0     H61496  10.170   5.082   4.964  0.9283 -3.3549 -0.2034
  456MOL0     H61497  10.121   4.871   5.089  1.1774  0.2258  0.1410
  456MOL0     H61498  10.156   4.941   5.234  1.4670  0.4551  0.0712
  456MOL0     H61499   9.911   5.026   5.068  1.0929  0.0167 -0.3112
  456MOL0     H61500   9.900   4.913   5.202 -0.5896 -0.3171 -1.1591
  456MOL0     H61501   9.955   5.074   5.372 -0.7560  2.1468  0.0026
  456MOL0     H61502  10.017   5.184   5.254 -0.7481  0.2869 -1.6230
  456MOL0     H61503   9.815   5.281   5.321 -1.4851  2.4507 -2.5540
  456MOL0     H61504   9.776   5.197   5.171 -3.0117 -2.3916 -0.1571
  456MOL0     H61505   9.711   4.993   5.330  0.8262 -1.1806  1.7474
  456MOL0     H61506   9.740   5.097   5.466  1.7988 -1.0853 -0.8362
  456MOL0     H61507   9.572   5.258   5.365  0.8917 -1.3501  4.4134
  456MOL0     H61508   9.535   5.123   5.248 -0.5458 -0.0104  0.6351
  456MOL0     H61509   9.512   5.140   5.561 -1.1847 -1.5117 -0.1558
  456MOL0     H61510   9.463   5.000   5.454  0.0963 -0.1764 -1.4158
  456MOL0     H61511   9.246   5.032   5.301 -1.3641 -1.2771  0.9307
  456MOL0     H61512   8.932   5.244   5.397 -3.3376 -1.2023 -2.3038
  456MOL0     H61513   9.027   5.318   5.274  4.9455 -0.7596 -0.8752
  456MOL0     H61514   9.060   5.082   5.173  1.2529  1.0714  2.5149
  456MOL0     H61515   8.896   5.147   5.159 -0.9961 -1.2241  0.7629
  456MOL0     H61516   8.847   5.015   5.394  0.3891  0.1706  0.9752
  456MOL0     H61517   8.990   4.920   5.320  0.9811  0.4790 -0.6075
  456MOL0     H61518   8.746   4.847   5.286 -2.1469 -0.1536 -0.8369
  456MOL0     H61519   8.825   4.866   5.138 -2.8406 -0.8246 -0.0738
  456MOL0     H61520   8.613   4.760   5.114  1.0813  0.3417  1.3181
  456MOL0     H61521   8.507   4.626   4.995  1.2106  1.3082  0.8711
  456MOL0     H61522   8.364   4.629   5.100  0.1163  0.0135 -0.3211
  456MOL0     H61523   8.353   4.654   4.917 -1.4814  1.4744 -0.3347
  456MOL0     H61524   7.872   5.056   5.037  1.2556 -0.6379  0.6223
  456MOL0     H61525   7.669   4.996   4.916  1.3663  1.2825  1.1206
  456MOL0     H61526   7.691   4.876   4.482  3.5152 -3.3344 -0.7722
  456MOL0     H61527   7.709   4.735   4.588 -2.2016 -1.6573  0.3915
  456MOL0     H61528   7.505   4.729   4.416 -0.5585  0.6241 -0.2897
  456MOL0     H61529   7.480   4.694   4.584 -0.6652 -1.5165 -1.7336
  456MOL0     H61530   7.367   4.887   4.626 -1.3664  1.5411 -1.2741
  456MOL0     H61531   7.299   4.820   4.473 -0.3053 -0.7752  0.9428
  456MOL0     H61532   7.505   5.036   4.479  0.1032 -0.2486 -0.9438
  456MOL0     H61533   7.429   4.982   4.338  2.3328 -0.4401  0.9050
  456MOL0     H61534   7.337   5.193   4.432  2.2477 -0.5569 -0.0413
  456MOL0     H61535   7.285   5.106   4.578  2.0847  1.5577 -0.0855
  456MOL0     H61536   7.185   5.030   4.294  2.1637  0.2389  0.7159
  456MOL0     H61537   7.119   4.978   4.440  1.7313 -1.0535  0.1346
  456MOL0     H61538   7.105   5.271   4.368 -0.1160 -0.6682  0.8784
  456MOL0     H61539   7.066   5.167   4.511  1.8080 -2.3248  1.4945
  456MOL0     H61540   6.869   5.097   4.411 -0.8680  0.5904 -1.9296
  456MOL0     H61541   6.947   5.098   4.243  1.6218 -1.8797  0.5610
  456MOL0     H61542   7.895   4.854   4.588  1.3285 -1.1786  0.8694
  456MOL0     H61543   8.093   4.912   4.693  0.1478  0.9514 -0.4990
  456MOL0     H61544   8.311   5.141   5.044 -3.5813 -2.2361  1.3143
  456MOL0     H61545   8.526   5.177   5.142 -0.1845 -0.4460  4.1032
  456MOL0     H61546  10.543   4.963   5.165 -1.1078 -0.1428  0.3722
  456MOL0     H61547  10.768   5.101   5.160  0.7031 -1.3049 -2.3335
  456MOL0     H61548  10.935   5.607   4.782  0.0087  0.8125  0.6564
  456MOL0     H61549  11.141   5.700   4.777 -1.6931  1.8075  2.8880
  456MOL0     H61550  11.383   5.714   4.768 -1.2455  4.5891 -2.3184
  456MOL0     H61551  11.324   5.833   4.895  3.5269  2.6672  2.2845
  456MOL0     H61552  11.609   5.707   4.895  0.9519  0.6990 -1.6195
  456MOL0     H61553  11.531   5.811   5.016  0.6394 -2.5434  0.5428
  456MOL0     H61554  11.498   5.952   4.766 -1.8257  1.2730  3.2410
  456MOL0     H61555  11.666   5.902   4.768  2.4379 -0.2586  3.0963
  456MOL0     H61556  11.676   6.112   4.874  0.1216 -0.4040  0.2224
  456MOL0     H61557  11.698   5.986   4.996  0.8474 -1.4138 -1.6855
  456MOL0     H61558  11.317   6.168   5.091 -0.3640 -0.6392  1.5898
  456MOL0     H61559  11.274   5.429   5.094  1.1999 -0.3411 -1.5600
  456MOL0     H61560  11.060   5.357   5.126  0.7767 -0.9535 -0.0936
  457MOL0     O61561   8.817   1.269   2.361 -0.4883 -0.8510 -0.2946
  457MOL0     C61562   8.869   1.372   2.321  0.1813  0.6164  0.5240
  457MOL0     O61563   8.803   1.487   2.288  0.5189 -0.0645 -1.2106
  457MOL0     C61564   8.663   1.496   2.263 -0.5436 -0.0175  0.8724
  457MOL0     C61565   8.623   1.555   2.141 -0.7631  0.3282  0.1312
  457MOL0     C61566   8.490   1.562   2.111 -0.0183 -0.3342 -0.5307
  457MOL0     C61567   8.395   1.516   2.204 -0.4315 -0.3007  0.1204
  457MOL0     O61568   8.259   1.539   2.184 -0.3426  0.2541 -0.5602
  457MOL0     C61569   8.176   1.424   2.196  0.8405  0.4305 -0.2999
  457MOL0     C61570   8.037   1.470   2.158 -0.0270 -0.0850 -0.6273
  457MOL0     C61571   7.973   1.590   2.237 -0.1308 -0.1209  0.1698
  457MOL0     C61572   7.980   1.594   2.388 -0.0240  0.3120  0.5137
  457MOL0     C61573   7.919   1.718   2.453  0.2559 -0.8491 -0.0958
  457MOL0     C61574   7.776   1.753   2.407 -0.5563 -0.0804 -0.7353
  457MOL0     C61575   7.710   1.861   2.495  0.8178 -0.3243 -0.3335
  457MOL0     C61576   7.569   1.892   2.440 -0.1074  0.6809 -0.4594
  457MOL0     N61577   7.491   1.984   2.522  0.0039 -0.4489  0.5256
  457MOL0     C61578   7.494   2.120   2.516 -0.5705 -0.6724 -0.0893
  457MOL0     C61579   7.390   2.154   2.594 -0.4810 -0.3571  0.1877
  457MOL0     C61580   7.354   2.301   2.603  0.8604 -0.4444  0.3101
  457MOL0     C61581   7.201   2.331   2.606  0.3580  0.2277  1.3480
  457MOL0     C61582   7.129   2.307   2.472 -0.2987  0.0555  0.2786
  457MOL0     C61583   6.975   2.324   2.483 -1.2826 -0.1535 -0.2390
  457MOL0     O61584   6.939   2.463   2.486  0.1941 -0.2493 -0.1932
  457MOL0     C61585   6.805   2.476   2.531 -0.5330 -0.4209 -0.0924
  457MOL0     C61586   6.698   2.405   2.488  0.7481 -0.8848  1.0975
  457MOL0     C61587   6.571   2.439   2.541  0.8764 -0.5703  0.5455
  457MOL0     C61588   6.453   2.366   2.479  0.2329 -0.1285 -0.1235
  457MOL0     C61589   6.549   2.555   2.618  0.8979 -0.0715 -0.9036
  457MOL0     C61590   6.417   2.593   2.666 -0.0823  0.2119  0.1341
  457MOL0     O61591   6.323   2.493   2.704 -0.7357 -0.9719  0.5231
  457MOL0     C61592   6.199   2.508   2.750  0.2792 -0.4245  0.5945
  457MOL0     C61593   6.144   2.618   2.818  0.4620 -0.2107 -0.3610
  457MOL0     C61594   6.005   2.638   2.839 -0.3399  0.3881  0.0222
  457MOL0     C61595   5.914   2.541   2.791 -0.7203 -0.3833 -0.2634
  457MOL0     O61596   5.780   2.533   2.811 -0.7792 -0.5948 -0.2447
  457MOL0     C61597   5.723   2.629   2.897 -0.1106 -0.3262 -0.1939
  457MOL0     C61598   5.579   2.604   2.927  0.0415  0.3268 -0.5266
  457MOL0     C61599   5.486   2.597   2.800  0.4113 -0.2062 -0.6477
  457MOL0     C61600   5.345   2.588   2.856  0.0342  0.1901  0.3713
  457MOL0     C61601   5.242   2.567   2.741  0.2569  0.5347 -0.4757
  457MOL0     C61602   5.099   2.563   2.777 -0.7406  0.5336 -0.4305
  457MOL0     C61603   5.003   2.513   2.663 -0.5608  0.2267 -0.2117
  457MOL0     C61604   4.867   2.483   2.709 -0.2726 -0.1193  0.1273
  457MOL0    Cl61605   4.800   2.630   2.790  0.2592 -0.0545 -0.2171
  457MOL0     C61606   5.968   2.429   2.730 -0.5461  0.2936 -0.3398
  457MOL0     C61607   6.110   2.413   2.712  0.1550 -0.4080  0.3108
  457MOL0     O61608   6.396   2.710   2.664 -0.4903 -0.1010 -0.2512
  457MOL0     C61609   6.665   2.623   2.666  0.4213  0.0512 -0.3367
  457MOL0     C61610   6.790   2.588   2.613  0.7152  0.3492  0.5038
  457MOL0     N61611   7.328   2.041   2.647 -0.4569 -0.5872 -0.4049
  457MOL0     N61612   7.397   1.939   2.607  0.4127 -0.6243 -0.2621
  457MOL0     C61613   8.441   1.477   2.331  0.1076  0.5613 -0.8420
  457MOL0     C61614   8.574   1.449   2.356 -0.3100  0.4085 -0.2841
  457MOL0     C61615   9.008   1.367   2.279 -0.3782 -0.7520  0.0154
  457MOL0     C61616   9.071   1.480   2.209  0.2635  0.6195 -0.1734
  457MOL0     C61617   9.203   1.487   2.167  0.8728 -0.2303 -0.3913
  457MOL0     C61618   9.281   1.376   2.189 -0.5937 -1.0785  0.2006
  457MOL0     O61619   9.413   1.370   2.135 -0.1427 -0.9530 -0.2178
  457MOL0     C61620   9.492   1.455   2.215 -1.1832  0.0118 -0.6077
  457MOL0     C61621   9.643   1.411   2.201  0.3382  0.1726 -0.3526
  457MOL0     C61622   9.741   1.492   2.294 -0.1610 -0.5510 -0.3316
  457MOL0     C61623   9.885   1.444   2.264 -0.7451  0.4965  0.0172
  457MOL0     C61624   9.981   1.493   2.360 -0.4353  0.8898  0.1520
  457MOL0     C61625  10.068   1.548   2.424 -0.1546  0.0540 -0.6758
  457MOL0     C61626   9.230   1.269   2.263  0.0198 -0.0994 -0.1502
  457MOL0     C61627   9.093   1.257   2.294  0.4644  0.5545  0.3726
  457MOL0     H61628   8.698   1.594   2.073 -1.5955  0.1041 -0.9329
  457MOL0     H61629   8.454   1.615   2.024 -2.1251  0.8119  0.9432
  457MOL0     H61630   8.216   1.362   2.115  1.5355  0.5558 -0.0645
  457MOL0     H61631   8.173   1.366   2.288  1.5188  0.6410 -0.1325
  457MOL0     H61632   8.043   1.497   2.052  1.5918 -1.8807 -1.0504
  457MOL0     H61633   7.969   1.383   2.156  1.7801 -1.5678 -0.3052
  457MOL0     H61634   8.023   1.680   2.200  1.7324 -0.9353  0.6104
  457MOL0     H61635   7.866   1.583   2.214  0.1334 -2.2523 -0.6165
  457MOL0     H61636   7.922   1.513   2.434 -2.8950  4.2384  4.7474
  457MOL0     H61637   8.085   1.587   2.417 -0.6746 -0.3261  2.9097
  457MOL0     H61638   7.914   1.699   2.560  0.4128  2.3050  0.5615
  457MOL0     H61639   7.988   1.801   2.432 -1.4725  0.0428 -2.8929
  457MOL0     H61640   7.771   1.787   2.304  1.5494 -3.3494 -2.0823
  457MOL0     H61641   7.711   1.666   2.414 -1.4284  0.5198 -1.2586
  457MOL0     H61642   7.712   1.817   2.595  2.7047 -1.7719 -0.9379
  457MOL0     H61643   7.773   1.950   2.507 -1.9147  1.6842  0.0259
  457MOL0     H61644   7.515   1.798   2.424  1.4569 -0.1929 -0.8510
  457MOL0     H61645   7.579   1.941   2.343 -0.3956  0.9217 -0.3699
  457MOL0     H61646   7.560   2.181   2.455  0.7907 -0.5746  1.4054
  457MOL0     H61647   7.403   2.346   2.690  0.9890 -0.4714  0.2532
  457MOL0     H61648   7.403   2.344   2.515 -0.0744  0.9939  0.4698
  457MOL0     H61649   7.194   2.440   2.620 -0.2950  0.1763  1.4707
  457MOL0     H61650   7.148   2.275   2.683 -0.5340 -1.3069 -0.2907
  457MOL0     H61651   7.140   2.200   2.454  1.0173  0.1310  0.5452
  457MOL0     H61652   7.165   2.376   2.394 -0.9523 -0.8809 -0.8928
  457MOL0     H61653   6.936   2.273   2.572  0.3536 -1.3228 -0.1448
  457MOL0     H61654   6.921   2.285   2.396 -1.2338 -0.6461 -0.0541
  457MOL0     H61655   6.694   2.330   2.409 -1.4097  0.7647 -0.4674
  457MOL0     H61656   6.480   2.288   2.406 -2.8739  0.2279 -1.8292
  457MOL0     H61657   6.405   2.313   2.562 -0.9169 -1.4628 -1.5707
  457MOL0     H61658   6.383   2.436   2.431  0.6793  0.6121  0.2933
  457MOL0     H61659   6.212   2.694   2.854  1.3744 -0.6350 -1.1616
  457MOL0     H61660   5.963   2.724   2.889  0.4914  0.8744 -0.1108
  457MOL0     H61661   5.777   2.627   2.992  1.4353 -1.2851 -1.0384
  457MOL0     H61662   5.731   2.728   2.851 -1.3786 -0.3081 -0.4119
  457MOL0     H61663   5.564   2.509   2.978  1.8006 -1.0438 -2.3760
  457MOL0     H61664   5.548   2.685   2.993 -0.5376 -1.7271  1.8849
  457MOL0     H61665   5.515   2.507   2.745  0.7866  0.1050 -0.9741
  457MOL0     H61666   5.497   2.686   2.736 -0.1932  1.7068  1.7766
  457MOL0     H61667   5.334   2.509   2.930 -2.6667  0.6921  0.6112
  457MOL0     H61668   5.326   2.686   2.901 -3.0571  0.6094 -1.5116
  457MOL0     H61669   5.271   2.476   2.687  0.7536 -0.1326  0.8608
  457MOL0     H61670   5.262   2.651   2.673 -0.1091 -0.4321 -1.8266
  457MOL0     H61671   5.088   2.496   2.863 -0.3467  1.0155 -0.0006
  457MOL0     H61672   5.065   2.665   2.800 -2.1488 -0.1326  0.5874
  457MOL0     H61673   5.047   2.421   2.623  0.7435 -0.3729  2.3937
  457MOL0     H61674   4.987   2.589   2.586  1.0173  0.1152 -0.6808
  457MOL0     H61675   4.870   2.397   2.777 -0.0073 -0.0253  0.2335
  457MOL0     H61676   4.805   2.459   2.622 -0.1657  0.3039 -0.0674
  457MOL0     H61677   5.902   2.351   2.695 -1.3466 -0.5906  2.7560
  457MOL0     H61678   6.129   2.323   2.654 -1.7690 -0.0643 -0.9693
  457MOL0     H61679   6.653   2.715   2.723  1.4451 -1.1135  1.9126
  457MOL0     H61680   6.885   2.634   2.641  1.4268 -1.3606  0.9913
  457MOL0     H61681   8.365   1.440   2.399  0.5500  2.7013  0.9263
  457MOL0     H61682   8.610   1.415   2.453 -1.1256  1.2848  0.3496
  457MOL0     H61683   8.994   1.552   2.184 -1.4177 -1.3530 -1.0217
  457MOL0     H61684   9.233   1.580   2.119 -0.7233  0.5014 -0.0268
  457MOL0     H61685   9.491   1.556   2.173 -0.2535 -0.2808 -1.3704
  457MOL0     H61686   9.470   1.453   2.322 -2.3426  0.6179 -0.8188
  457MOL0     H61687   9.684   1.416   2.100 -2.7532 -1.9406 -1.8555
  457MOL0     H61688   9.654   1.309   2.238 -0.5652 -0.0703 -0.7292
  457MOL0     H61689   9.718   1.490   2.401 -1.1200  0.5958 -0.5015
  457MOL0     H61690   9.741   1.598   2.268  1.1139 -0.5786 -0.5231
  457MOL0     H61691   9.927   1.474   2.168 -0.0736  1.6470  0.6368
  457MOL0     H61692   9.893   1.336   2.277  3.1548  0.7993  1.7404
  457MOL0     H61693  10.148   1.592   2.480  0.9632 -0.2080 -2.0232
  457MOL0     H61694   9.294   1.181   2.262  1.9922  1.2065  1.5194
  457MOL0     H61695   9.059   1.160   2.329  1.0387 -1.9687 -5.0520
  458MOL0     O61696   8.214   1.554   8.145  0.1100  0.1233  0.0619
  458MOL0     C61697   8.302   1.520   8.064  0.9677  0.5445 -0.1322
  458MOL0     O61698   8.276   1.501   7.933  0.0680  0.5738 -0.3453
  458MOL0     C61699   8.150   1.509   7.883 -0.7561 -0.6123  0.0578
  458MOL0     C61700   8.061   1.406   7.909 -0.0962 -0.8384  0.6652
  458MOL0     C61701   7.931   1.423   7.858 -1.0477  1.1848 -0.4833
  458MOL0     C61702   7.889   1.524   7.772 -0.0292 -0.7081 -0.3357
  458MOL0     O61703   7.769   1.541   7.726 -0.4284  0.2511  0.4364
  458MOL0     C61704   7.650   1.475   7.785  0.6052 -0.3622  0.1755
  458MOL0     C61705   7.526   1.534   7.724 -0.5257  0.3421 -0.1515
  458MOL0     C61706   7.395   1.468   7.749  0.5578 -0.1902 -0.5876
  458MOL0     C61707   7.366   1.469   7.902 -0.2351  0.2832 -0.0766
  458MOL0     C61708   7.215   1.445   7.931 -0.3738  0.0777 -0.8370
  458MOL0     C61709   7.175   1.297   7.924  0.2813  0.7285  0.0054
  458MOL0     C61710   7.023   1.269   7.927  1.1316 -0.3519 -0.5554
  458MOL0     C61711   7.005   1.125   7.987 -0.3452 -1.3240 -0.4234
  458MOL0     N61712   6.910   1.047   7.915  0.3007  0.0806 -0.1714
  458MOL0     C61713   6.777   1.050   7.932 -0.9029  0.0814 -0.3723
  458MOL0     C61714   6.736   0.962   7.847 -0.2248  0.4688  0.8320
  458MOL0     C61715   6.593   0.929   7.814  0.3876  0.0890 -0.7140
  458MOL0     C61716   6.544   0.819   7.905 -0.5013 -0.4215  0.3919
  458MOL0     C61717   6.401   0.759   7.881 -0.5125 -1.4070 -0.0585
  458MOL0     C61718   6.369   0.734   7.731 -0.1903 -0.1904  0.3113
  458MOL0     O61719   6.243   0.656   7.728  0.0001 -0.6933  0.4930
  458MOL0     C61720   6.135   0.717   7.789  0.1896 -0.0319  0.6197
  458MOL0     C61721   6.050   0.626   7.863 -0.5114 -0.4693  1.0605
  458MOL0     C61722   5.925   0.664   7.907  0.7941 -0.1880  0.5180
  458MOL0     C61723   5.847   0.565   7.990  0.9359  0.0047 -0.4094
  458MOL0     C61724   5.878   0.793   7.869 -0.0416  0.1741  0.1326
  458MOL0     C61725   5.744   0.857   7.911 -0.6137  0.0254 -0.1978
  458MOL0     O61726   5.696   0.961   7.834  0.0107 -0.1174  0.0664
  458MOL0     C61727   5.588   1.037   7.877 -0.1553  0.1779  0.1160
  458MOL0     C61728   5.532   1.110   7.772 -0.7903  0.5101 -0.2020
  458MOL0     C61729   5.427   1.196   7.795  0.4809  1.1908  0.1230
  458MOL0     C61730   5.371   1.226   7.922 -0.5433 -0.3893  0.0447
  458MOL0     O61731   5.274   1.315   7.925  0.3427  0.1012  0.5479
  458MOL0     C61732   5.225   1.347   8.054 -0.3509 -0.0956 -0.2153
  458MOL0     C61733   5.118   1.464   8.025 -0.2262  0.6293  0.4876
  458MOL0     C61734   5.077   1.511   8.164  0.0298  0.7121 -0.4514
  458MOL0     C61735   4.975   1.622   8.153 -0.7112  0.3344 -0.4689
  458MOL0     C61736   4.926   1.666   8.290 -0.0516 -0.7055 -1.1926
  458MOL0     C61737   4.786   1.723   8.303 -0.1968  0.3482  0.1182
  458MOL0     C61738   4.759   1.851   8.220 -0.4279  0.2178  0.3581
  458MOL0     C61739   4.617   1.888   8.213  0.1814 -0.0158  0.8573
  458MOL0    Cl61740   4.540   1.891   8.376  0.5666  0.4449  0.0580
  458MOL0     C61741   5.436   1.159   8.027  0.6615  0.0897 -0.1105
  458MOL0     C61742   5.541   1.066   8.008 -0.0142  0.3385 -0.3629
  458MOL0     O61743   5.703   0.818   8.019  0.7007  0.7343  0.5560
  458MOL0     C61744   5.955   0.881   7.795 -0.1675  1.2363  0.0557
  458MOL0     C61745   6.083   0.845   7.760 -0.3379  0.3416  0.1662
  458MOL0     N61746   6.837   0.906   7.769 -0.3574 -0.2647 -0.6207
  458MOL0     N61747   6.942   0.959   7.811  0.2065  0.2491  0.1611
  458MOL0     C61748   7.994   1.610   7.739 -0.2375 -0.9335 -0.0944
  458MOL0     C61749   8.119   1.616   7.794  0.1019  0.9177 -0.0167
  458MOL0     C61750   8.447   1.515   8.116  0.4904 -0.1602  0.5992
  458MOL0     C61751   8.548   1.480   8.021  0.3317  0.5669  0.7339
  458MOL0     C61752   8.684   1.466   8.067 -0.1722  0.0871  1.0039
  458MOL0     C61753   8.717   1.480   8.198  0.3505 -0.1971  0.0889
  458MOL0     O61754   8.838   1.448   8.260  0.2074 -0.1154 -0.0578
  458MOL0     C61755   8.960   1.440   8.183 -0.6182 -0.6335 -0.7877
  458MOL0     C61756   9.084   1.456   8.273  0.1369  0.6176 -0.1659
  458MOL0     C61757   9.072   1.569   8.378 -0.5802 -0.4450 -0.2366
  458MOL0     C61758   9.213   1.605   8.441  0.4294 -0.1457  0.9716
  458MOL0     C61759   9.186   1.697   8.554 -0.2175 -0.4364 -0.1019
  458MOL0     C61760   9.167   1.764   8.649 -0.2335 -0.0854  0.8927
  458MOL0     C61761   8.618   1.518   8.287 -0.8449  0.6508  0.1580
  458MOL0     C61762   8.483   1.535   8.245 -0.7622  0.5707 -0.3339
  458MOL0     H61763   8.083   1.323   7.976 -0.1072  0.9295  2.9758
  458MOL0     H61764   7.857   1.354   7.897  1.3378 -1.4073 -0.2569
  458MOL0     H61765   7.661   1.368   7.765 -0.4107 -0.2412 -1.1327
  458MOL0     H61766   7.659   1.483   7.894  1.1591  0.6114  0.0734
  458MOL0     H61767   7.506   1.637   7.755  1.3771  0.9508 -0.8471
  458MOL0     H61768   7.550   1.528   7.618  1.9924  0.9356  0.3252
  458MOL0     H61769   7.314   1.508   7.688 -0.4937 -3.4742 -1.5295
  458MOL0     H61770   7.401   1.366   7.711 -2.1711  0.1372 -2.1408
  458MOL0     H61771   7.432   1.399   7.953  0.7299  0.0014 -1.6539
  458MOL0     H61772   7.390   1.569   7.940 -0.7128 -0.4829  2.4608
  458MOL0     H61773   7.205   1.489   8.030  1.8374 -0.8966 -0.1158
  458MOL0     H61774   7.141   1.490   7.864 -1.5290 -0.2587  0.1766
  458MOL0     H61775   7.232   1.259   7.839  1.1886  1.4425  0.2692
  458MOL0     H61776   7.225   1.247   8.008 -0.8000 -1.4991 -0.6206
  458MOL0     H61777   6.961   1.344   7.978 -0.6560 -1.4468 -1.0257
  458MOL0     H61778   7.001   1.269   7.820 -0.4250  0.6842 -0.2822
  458MOL0     H61779   6.971   1.135   8.091  3.2334 -1.0980  0.9032
  458MOL0     H61780   7.105   1.080   7.990 -0.1343 -0.8849 -0.7716
  458MOL0     H61781   6.726   1.114   8.003 -0.1809  1.0976 -0.7404
  458MOL0     H61782   6.535   1.021   7.820 -0.0450 -0.2918  2.7653
  458MOL0     H61783   6.582   0.893   7.711  1.0264 -2.1334 -0.0787
  458MOL0     H61784   6.553   0.852   8.009  0.3785 -2.2451  0.9381
  458MOL0     H61785   6.608   0.733   7.885  0.5279  0.8086 -1.9679
  458MOL0     H61786   6.336   0.829   7.935  1.4450  0.0534  0.5212
  458MOL0     H61787   6.390   0.667   7.939  2.5331 -2.6325 -1.2352
  458MOL0     H61788   6.451   0.691   7.673  0.4476  3.2545 -1.6414
  458MOL0     H61789   6.351   0.830   7.682 -2.1845 -1.8955 -2.6156
  458MOL0     H61790   6.087   0.525   7.877  0.8500 -0.0978  0.3146
  458MOL0     H61791   5.851   0.605   8.091 -1.2883  1.9292 -0.9785
  458MOL0     H61792   5.742   0.546   7.964  1.3866 -3.1990 -0.3221
  458MOL0     H61793   5.891   0.465   7.982 -0.2353 -0.5383 -0.3081
  458MOL0     H61794   5.569   1.096   7.671 -0.6712  1.6007 -0.3249
  458MOL0     H61795   5.396   1.243   7.702 -1.6427  1.3187  0.8410
  458MOL0     H61796   5.182   1.268   8.117  1.6293 -1.0018  0.0727
  458MOL0     H61797   5.303   1.389   8.119 -2.6363  1.9685  1.3714
  458MOL0     H61798   5.155   1.552   7.972  0.8295  0.5978  1.1436
  458MOL0     H61799   5.030   1.423   7.974 -0.7401  1.3833  0.7483
  458MOL0     H61800   5.167   1.537   8.221  2.0033 -1.7061 -2.2242
  458MOL0     H61801   5.028   1.428   8.216  1.6842 -0.9287 -1.3495
  458MOL0     H61802   5.004   1.710   8.094 -1.7718 -1.1615 -3.3875
  458MOL0     H61803   4.891   1.580   8.097  0.8859 -2.3585 -1.0420
  458MOL0     H61804   4.982   1.758   8.309 -1.3213  0.4964 -2.9944
  458MOL0     H61805   4.944   1.589   8.366  1.2540  1.1233  0.4568
  458MOL0     H61806   4.715   1.649   8.266  3.8437 -3.7954 -0.3467
  458MOL0     H61807   4.771   1.749   8.408  1.6206  1.3755  0.1745
  458MOL0     H61808   4.787   1.830   8.117  2.3760  1.2702  0.8060
  458MOL0     H61809   4.817   1.930   8.270  0.8986 -0.2878 -0.3255
  458MOL0     H61810   4.558   1.816   8.155  0.2457  0.0820  0.6713
  458MOL0     H61811   4.607   1.988   8.171  1.6312  0.0276  0.5699
  458MOL0     H61812   5.416   1.178   8.132 -2.9901 -0.7634 -0.4941
  458MOL0     H61813   5.609   1.023   8.081  1.1716  2.8359  0.0983
  458MOL0     H61814   5.928   0.985   7.783  1.2554  1.4956 -1.3440
  458MOL0     H61815   6.144   0.912   7.700 -2.0939  1.4156 -0.4881
  458MOL0     H61816   7.969   1.692   7.673 -0.2102 -1.9250 -1.3559
  458MOL0     H61817   8.180   1.702   7.769 -0.0564  0.8450 -0.6639
  458MOL0     H61818   8.526   1.458   7.917 -1.6264 -2.4502  1.6552
  458MOL0     H61819   8.761   1.425   8.002 -1.0095  0.0595  0.0106
  458MOL0     H61820   8.960   1.344   8.130  0.8450  0.1435 -2.3223
  458MOL0     H61821   8.961   1.517   8.105 -3.7057 -2.6491 -3.0325
  458MOL0     H61822   9.168   1.463   8.204 -0.0890 -0.6951 -0.6116
  458MOL0     H61823   9.098   1.362   8.329 -0.5522  0.4116 -0.3269
  458MOL0     H61824   9.017   1.531   8.465 -0.2426  0.4180  0.3788
  458MOL0     H61825   9.023   1.659   8.341 -1.0655  0.1779  1.7794
  458MOL0     H61826   9.287   1.642   8.370  0.2593  0.3250  1.0339
  458MOL0     H61827   9.251   1.514   8.489 -0.6449 -1.3497 -0.3690
  458MOL0     H61828   9.143   1.822   8.736 -0.3615  3.0184 -1.0617
  458MOL0     H61829   8.636   1.523   8.394 -1.5915 -1.6218  0.4361
  458MOL0     H61830   8.413   1.556   8.325  1.6921 -0.5872  2.3089
  459MOL0     O61831   1.675   6.612   0.972  0.4390  0.1076  0.3901
  459MOL0     C61832   1.716   6.720   0.937 -0.3697 -0.1768 -0.0298
  459MOL0     O61833   1.641   6.837   0.914  0.1294  0.2468  0.4558
  459MOL0     C61834   1.512   6.818   0.950 -0.6141 -0.1547  0.0134
  459MOL0     C61835   1.429   6.888   0.873 -0.1507 -0.3404 -0.1727
  459MOL0     C61836   1.298   6.898   0.905 -0.2342  0.4791  0.2898
  459MOL0     C61837   1.237   6.828   1.012  1.4708  0.0257  0.2047
  459MOL0     O61838   1.100   6.834   1.035 -0.5733 -0.1053  0.5926
  459MOL0     C61839   1.058   6.924   1.139 -0.0470  1.0433 -0.7492
  459MOL0     C61840   0.907   6.909   1.135 -0.9651 -0.2921  0.7633
  459MOL0     C61841   0.847   6.993   1.258  0.2371 -0.1433 -0.2151
  459MOL0     C61842   0.710   6.940   1.281  0.5086  0.1395  0.3413
  459MOL0     C61843   0.618   7.023   1.378 -0.3751 -0.0905 -0.0954
  459MOL0     C61844   0.473   6.972   1.370  0.1212 -0.2171  0.4326
  459MOL0     C61845   0.373   7.052   1.465 -0.3204  0.2374  0.3547
  459MOL0     C61846   0.295   7.171   1.397  0.6934 -0.1710 -0.3595
  459MOL0     N61847   0.173   7.230   1.473  0.5732  0.9598 -0.4020
  459MOL0     C61848   0.047   7.194   1.452 -0.7571 -0.1767  0.9716
  459MOL0     C61849  -0.033   7.255   1.546 -0.5950 -0.3255 -0.0595
  459MOL0     C61850  -0.183   7.252   1.571 -0.7389  0.6902 -0.0174
  459MOL0     C61851  -0.211   7.183   1.704 -0.6645 -0.1252 -0.1202
  459MOL0     C61852  -0.361   7.207   1.754  0.1280  0.2184 -0.5803
  459MOL0     C61853  -0.469   7.105   1.729  0.0872  0.0666  0.2157
  459MOL0     O61854  -0.556   7.134   1.619 -0.4036  0.1090  0.2893
  459MOL0     C61855  -0.676   7.206   1.625  0.5542  0.1348  1.1451
  459MOL0     C61856  -0.705   7.289   1.733  0.8544 -1.3432  0.0694
  459MOL0     C61857  -0.836   7.345   1.746  0.0087 -0.0531  0.4280
  459MOL0     C61858  -0.863   7.436   1.860 -0.4714  0.4943 -0.3639
  459MOL0     C61859  -0.936   7.313   1.653  0.6330  0.7662 -0.1712
  459MOL0     C61860  -1.081   7.345   1.663  0.4192 -0.1427 -0.1147
  459MOL0     O61861  -1.133   7.370   1.785 -0.2980 -0.0360  0.2419
  459MOL0     C61862  -1.254   7.408   1.811  1.1336  0.2151  0.7103
  459MOL0     C61863  -1.317   7.349   1.919 -0.1119  0.5935  0.2637
  459MOL0     C61864  -1.451   7.377   1.946 -0.0206  0.2728  0.4168
  459MOL0     C61865  -1.524   7.465   1.872 -0.1055  0.1175 -0.7676
  459MOL0     O61866  -1.659   7.481   1.892 -0.2668  0.2768  0.0957
  459MOL0     C61867  -1.727   7.442   2.014  0.1681 -0.3913  0.0943
  459MOL0     C61868  -1.832   7.544   2.066  0.0343  1.2428  0.6703
  459MOL0     C61869  -1.978   7.479   2.105 -0.1850  0.2303 -0.8560
  459MOL0     C61870  -2.041   7.568   2.209  0.4419  0.0348 -0.1236
  459MOL0     C61871  -2.159   7.500   2.271 -0.2914 -0.6835 -0.6656
  459MOL0     C61872  -2.244   7.596   2.355 -0.5896 -0.5545 -0.8577
  459MOL0     C61873  -2.355   7.532   2.434 -0.4049  0.1105 -0.3815
  459MOL0     C61874  -2.492   7.587   2.392 -0.3113  0.7915 -0.7134
  459MOL0    Cl61875  -2.627   7.527   2.487 -0.0113  0.1105 -0.1053
  459MOL0     C61876  -1.462   7.522   1.763  0.1452  0.2883  0.2613
  459MOL0     C61877  -1.327   7.503   1.728  0.0229 -0.8655  0.0956
  459MOL0     O61878  -1.153   7.342   1.556 -0.0439 -0.3240 -0.2002
  459MOL0     C61879  -0.893   7.240   1.537 -0.2933  0.6202  0.0360
  459MOL0     C61880  -0.766   7.190   1.515  0.6308 -0.1418  0.1845
  459MOL0     N61881   0.058   7.320   1.633 -0.5357  1.4998 -0.0603
  459MOL0     N61882   0.175   7.308   1.579 -0.3367 -0.2153 -0.9740
  459MOL0     C61883   1.319   6.757   1.101  0.1545  0.5548  0.8802
  459MOL0     C61884   1.458   6.751   1.068 -0.5559 -0.2613  0.4093
  459MOL0     C61885   1.862   6.735   0.942 -0.7072 -0.5493 -0.3610
  459MOL0     C61886   1.939   6.624   0.909 -0.7874  0.1055 -0.2937
  459MOL0     C61887   2.072   6.622   0.920  0.0728  0.5526 -0.2157
  459MOL0     C61888   2.132   6.734   0.985 -0.5526 -0.1572 -0.1631
  459MOL0     O61889   2.271   6.722   1.010 -0.7074  0.3599 -0.5331
  459MOL0     C61890   2.328   6.816   1.098 -0.4801 -0.0745 -0.6000
  459MOL0     C61891   2.478   6.786   1.114  0.1394  0.7368 -0.4061
  459MOL0     C61892   2.510   6.710   1.243 -0.2618 -0.1413  0.7353
  459MOL0     C61893   2.655   6.665   1.238 -0.0933 -0.2119 -0.2506
  459MOL0     C61894   2.677   6.556   1.144 -0.3183  0.7860  0.5403
  459MOL0     C61895   2.688   6.469   1.058  0.0820 -0.6983 -0.1743
  459MOL0     C61896   2.066   6.855   1.004  0.4936 -0.1844  0.4886
  459MOL0     C61897   1.930   6.849   0.982 -0.1831 -0.2978 -0.3452
  459MOL0     H61898   1.469   6.952   0.795 -0.2644  0.2345  0.2337
  459MOL0     H61899   1.237   6.964   0.844 -0.6288  0.5431  0.7452
  459MOL0     H61900   1.108   6.915   1.236  0.5155  0.8893 -1.0494
  459MOL0     H61901   1.078   7.027   1.108 -0.9228  1.6350  0.5306
  459MOL0     H61902   0.867   6.955   1.044  1.2403  0.2948  0.0267
  459MOL0     H61903   0.889   6.801   1.138  1.0900 -0.7135 -0.5502
  459MOL0     H61904   0.910   6.984   1.346  0.1526  1.9673  0.1109
  459MOL0     H61905   0.848   7.102   1.245 -1.6107  0.4033  3.1223
  459MOL0     H61906   0.670   6.934   1.179 -3.0334  1.0151  1.5561
  459MOL0     H61907   0.721   6.841   1.325 -1.5134 -0.1214  0.3582
  459MOL0     H61908   0.639   7.020   1.485  1.6357 -3.2623 -0.4513
  459MOL0     H61909   0.634   7.122   1.335 -1.0786 -0.1151 -0.4266
  459MOL0     H61910   0.439   6.978   1.267  0.8227 -0.3991  0.1835
  459MOL0     H61911   0.478   6.867   1.401  1.6875 -0.5730 -0.9042
  459MOL0     H61912   0.302   6.975   1.498  2.0395 -2.3282 -0.1291
  459MOL0     H61913   0.424   7.093   1.553 -0.6235  3.4257 -0.8488
  459MOL0     H61914   0.265   7.147   1.295  2.7270  0.5237 -1.1612
  459MOL0     H61915   0.362   7.258   1.392  0.7733 -0.1768  0.4587
  459MOL0     H61916   0.009   7.137   1.368  0.5054  3.7253 -2.5777
  459MOL0     H61917  -0.224   7.353   1.558  1.2513  1.3473 -1.8794
  459MOL0     H61918  -0.224   7.192   1.489 -0.8594  1.3572 -0.4536
  459MOL0     H61919  -0.144   7.222   1.781  2.7204 -1.2063 -2.2970
  459MOL0     H61920  -0.187   7.077   1.709 -0.1568 -0.0162 -0.1647
  459MOL0     H61921  -0.406   7.305   1.734 -0.8900  0.0854  0.8966
  459MOL0     H61922  -0.348   7.209   1.862  0.0658 -0.1105 -0.5646
  459MOL0     H61923  -0.522   7.078   1.821  0.8820  1.6359  1.1863
  459MOL0     H61924  -0.424   7.017   1.682 -0.0540  0.0052  0.1960
  459MOL0     H61925  -0.627   7.317   1.804 -0.0585  0.1015  0.5421
  459MOL0     H61926  -0.908   7.532   1.836  0.6082  1.4758  1.2775
  459MOL0     H61927  -0.930   7.403   1.940  1.6278  2.4873  2.4136
  459MOL0     H61928  -0.769   7.460   1.910 -0.5625  1.7156 -0.7667
  459MOL0     H61929  -1.269   7.267   1.972  0.3529  1.0814  0.5996
  459MOL0     H61930  -1.502   7.327   2.028 -0.3604  1.1697  0.7595
  459MOL0     H61931  -1.768   7.345   1.982  2.2138 -1.0255 -0.8301
  459MOL0     H61932  -1.654   7.419   2.092  0.5571 -2.2513 -0.7557
  459MOL0     H61933  -1.789   7.582   2.159  0.6135  0.9276  0.5342
  459MOL0     H61934  -1.859   7.621   1.993  0.0402  0.6768  0.0606
  459MOL0     H61935  -1.963   7.377   2.140 -0.0732  0.8612  1.0983
  459MOL0     H61936  -2.046   7.480   2.020  0.9698  2.0344 -1.8323
  459MOL0     H61937  -1.966   7.588   2.287  1.7262  1.6975 -1.6981
  459MOL0     H61938  -2.078   7.655   2.154 -0.1792 -0.1021  0.0752
  459MOL0     H61939  -2.122   7.425   2.342 -0.1185  1.1512  1.2690
  459MOL0     H61940  -2.221   7.455   2.193 -3.4005 -0.1376  1.3456
  459MOL0     H61941  -2.177   7.654   2.419 -1.5925  0.7765 -0.9659
  459MOL0     H61942  -2.280   7.672   2.284  1.0386 -1.6956 -3.0288
  459MOL0     H61943  -2.345   7.546   2.542 -0.3942  1.1547 -0.5067
  459MOL0     H61944  -2.354   7.423   2.427 -0.0349  0.0825  0.1061
  459MOL0     H61945  -2.507   7.554   2.288  1.2562 -3.3318  0.1601
  459MOL0     H61946  -2.488   7.695   2.407  1.4457  0.4545  1.7391
  459MOL0     H61947  -1.524   7.587   1.702 -3.4169 -0.1289  3.1242
  459MOL0     H61948  -1.297   7.558   1.640 -1.2995  0.5259  0.4624
  459MOL0     H61949  -0.963   7.222   1.456 -0.0464  0.2139 -0.0907
  459MOL0     H61950  -0.742   7.132   1.427  0.6615 -0.6884  0.5443
  459MOL0     H61951   1.271   6.720   1.191 -2.4736 -2.8624 -1.6519
  459MOL0     H61952   1.533   6.702   1.130  2.8271  0.7496 -2.5005
  459MOL0     H61953   1.893   6.532   0.875  3.4745 -2.6525  0.6090
  459MOL0     H61954   2.123   6.528   0.902  1.2389  1.2951 -0.8408
  459MOL0     H61955   2.318   6.911   1.044 -2.6100 -0.2312 -0.5892
  459MOL0     H61956   2.268   6.817   1.189  1.7943  1.7457  0.9709
  459MOL0     H61957   2.533   6.880   1.107 -1.2063  1.9554  3.0468
  459MOL0     H61958   2.504   6.723   1.028 -1.2881 -0.0694 -0.2725
  459MOL0     H61959   2.456   6.617   1.263  1.8856 -1.3261  1.3441
  459MOL0     H61960   2.493   6.778   1.327  0.5697  0.0463  0.7590
  459MOL0     H61961   2.672   6.630   1.340 -0.3305 -1.2562 -0.5569
  459MOL0     H61962   2.720   6.752   1.220  1.5025 -1.3385 -0.1925
  459MOL0     H61963   2.714   6.398   0.982 -0.2060  0.4238 -1.3523
  459MOL0     H61964   2.116   6.951   1.016 -1.5811  0.9773  0.3340
  459MOL0     H61965   1.876   6.939   1.009  0.3066  0.0691 -0.5738
  460MOL0     O61966   7.426   8.459   9.844  0.5451 -0.0155  0.2898
  460MOL0     C61967   7.478   8.463   9.951  0.3530 -0.2859 -0.3721
  460MOL0     O61968   7.500   8.572  10.029  0.0125  0.2314 -0.2880
  460MOL0     C61969   7.460   8.695   9.988 -1.0650 -0.5088  0.4288
  460MOL0     C61970   7.337   8.721   9.937  0.5372  0.3726 -0.2974
  460MOL0     C61971   7.294   8.851   9.906  0.5453  0.6542 -0.5845
  460MOL0     C61972   7.390   8.955   9.920  0.2864 -0.0585 -0.4113
  460MOL0     O61973   7.369   9.079   9.859  0.5505 -0.1800 -0.1596
  460MOL0     C61974   7.236   9.136   9.834 -0.5076  0.3876  0.3338
  460MOL0     C61975   7.249   9.277   9.781 -0.4915 -0.0025  0.9145
  460MOL0     C61976   7.117   9.351   9.736  0.0204  0.0982 -0.1349
  460MOL0     C61977   7.037   9.386   9.866 -0.1722 -0.1028 -0.2945
  460MOL0     C61978   6.904   9.455   9.822 -0.4612  0.5709  0.4466
  460MOL0     C61979   6.805   9.469   9.935 -0.1761  0.5183  0.3147
  460MOL0     C61980   6.686   9.560   9.903  0.8189  0.6783  0.2889
  460MOL0     C61981   6.590   9.566  10.019 -0.7725 -0.7157  0.2933
  460MOL0     N61982   6.497   9.679  10.018  0.9630 -0.1452 -0.3200
  460MOL0     C61983   6.413   9.715   9.917  0.4257 -0.2808  0.1433
  460MOL0     C61984   6.351   9.828   9.948  0.1411 -0.1427 -0.1867
  460MOL0     C61985   6.265   9.912   9.860 -0.6883 -0.2687  0.0622
  460MOL0     C61986   6.124   9.919   9.923 -0.1553 -0.3177 -0.1098
  460MOL0     C61987   6.031  10.014   9.849 -0.1227  0.0806  0.1355
  460MOL0     C61988   5.898  10.020   9.915  0.1372 -0.3234  0.3167
  460MOL0     O61989   5.819  10.109   9.829 -0.4360  0.0614 -0.2810
  460MOL0     C61990   5.732  10.191   9.893  0.5822 -0.7548 -0.3735
  460MOL0     C61991   5.691  10.305   9.818 -0.1425  0.0833  0.2058
  460MOL0     C61992   5.606  10.399   9.863 -0.3938 -0.3361  0.4001
  460MOL0     C61993   5.549  10.505   9.768 -0.1273  0.3114  0.5744
  460MOL0     C61994   5.540  10.381   9.992 -0.4371 -0.5397  0.2362
  460MOL0     C61995   5.431  10.468  10.056 -1.2900 -0.2950  0.0344
  460MOL0     O61996   5.353  10.416  10.163 -0.2333 -0.0210  0.6173
  460MOL0     C61997   5.271  10.505  10.216 -0.0809  0.1431  0.3080
  460MOL0     C61998   5.138  10.479  10.225 -0.0790 -0.2769  0.4818
  460MOL0     C61999   5.048  10.567  10.289 -0.3719 -0.6466  0.5111
  460MOL0     C62000   5.088  10.691  10.342  0.0968  0.4325 -1.2629
  460MOL0     O62001   5.017  10.789  10.406 -0.3854  0.3122  0.8304
  460MOL0     C62002   4.879  10.771  10.417 -0.1446  0.6758 -0.0531
  460MOL0     C62003   4.812  10.831  10.297  0.2462 -0.0477  0.2695
  460MOL0     C62004   4.670  10.866  10.321 -0.0389  0.4911  0.9317
  460MOL0     C62005   4.578  10.836  10.201 -0.3089  0.2146  0.6119
  460MOL0     C62006   4.429  10.871  10.231  0.2135  0.9380 -0.3860
  460MOL0     C62007   4.396  11.026  10.247  0.1176  0.2630  0.3604
  460MOL0     C62008   4.278  11.056  10.340  0.4072  0.0470  0.3850
  460MOL0     C62009   4.157  11.109  10.255  0.0876 -0.7317 -0.1869
  460MOL0    Cl62010   4.076  11.223  10.377 -0.3009 -0.0907  0.1814
  460MOL0     C62011   5.227  10.721  10.341  1.0231  0.1484  0.2958
  460MOL0     C62012   5.315  10.618  10.291 -0.1046 -0.2281 -0.8447
  460MOL0     O62013   5.413  10.579  10.000  0.1514 -0.2853 -0.4630
  460MOL0     C62014   5.573  10.260  10.061  0.0303  0.6338 -0.0115
  460MOL0     C62015   5.665  10.170  10.013  0.0579  1.0046  0.1209
  460MOL0     N62016   6.399   9.854  10.077  0.5808 -0.3660  0.1679
  460MOL0     N62017   6.483   9.769  10.120 -0.0334 -0.0270  0.9834
  460MOL0     C62018   7.519   8.932   9.963 -0.3132 -0.1403  0.0439
  460MOL0     C62019   7.548   8.802  10.006 -0.5709  0.3984 -1.0804
  460MOL0     C62020   7.534   8.324   9.989  0.6700  0.1625 -0.1820
  460MOL0     C62021   7.629   8.314  10.091 -0.5529 -0.0063  0.0367
  460MOL0     C62022   7.660   8.193  10.140  0.7964  0.1907 -0.0585
  460MOL0     C62023   7.600   8.070  10.087  0.2375  0.2616  0.2966
  460MOL0     O62024   7.631   7.943  10.137  0.8414 -0.8112  0.1377
  460MOL0     C62025   7.736   7.922  10.234  0.2525 -0.4506 -0.1521
  460MOL0     C62026   7.738   7.771  10.260 -0.0921 -0.1408 -0.6496
  460MOL0     C62027   7.802   7.737  10.394 -0.2475 -0.0075 -0.1589
  460MOL0     C62028   7.796   7.586  10.405  0.1341  0.3950  0.5448
  460MOL0     C62029   7.845   7.539  10.528 -0.4170 -0.5301  0.2427
  460MOL0     C62030   7.887   7.494  10.627 -1.1487 -0.6524 -0.7628
  460MOL0     C62031   7.512   8.087   9.977 -0.1295 -0.0830 -0.4971
  460MOL0     C62032   7.482   8.211   9.924 -0.0966  0.1879 -0.2757
  460MOL0     H62033   7.262   8.642   9.936 -0.7088  1.4405  1.7288
  460MOL0     H62034   7.193   8.848   9.868  0.5700 -1.0126 -0.5744
  460MOL0     H62035   7.188   9.075   9.757  2.1631  1.1052 -2.0497
  460MOL0     H62036   7.172   9.149   9.922 -0.5463 -0.4593  0.4418
  460MOL0     H62037   7.318   9.338   9.840  2.6700 -1.4502 -1.0035
  460MOL0     H62038   7.305   9.271   9.687  2.0486  0.2301  2.3399
  460MOL0     H62039   7.139   9.446   9.686 -0.7842  0.3099 -0.0971
  460MOL0     H62040   7.052   9.299   9.666 -0.8810 -1.8351  1.9905
  460MOL0     H62041   7.005   9.296   9.920 -0.4494  0.0783 -0.1500
  460MOL0     H62042   7.095   9.455   9.927  0.9386 -0.3512 -1.0433
  460MOL0     H62043   6.925   9.550   9.772  0.2177 -0.6857 -1.8067
  460MOL0     H62044   6.858   9.392   9.745  0.8459  0.9204 -0.6436
  460MOL0     H62045   6.768   9.368   9.956 -2.8116  1.0437 -1.2588
  460MOL0     H62046   6.862   9.506  10.021  0.9651  1.6337 -0.8743
  460MOL0     H62047   6.724   9.659   9.876 -0.2140  1.2060  0.7101
  460MOL0     H62048   6.628   9.524   9.817  2.5016 -2.1839  0.2075
  460MOL0     H62049   6.639   9.559  10.117 -0.2292 -1.3026 -0.0118
  460MOL0     H62050   6.517   9.485  10.022 -1.5975  0.0448  1.8247
  460MOL0     H62051   6.411   9.661   9.823  1.1650  1.4899 -0.9560
  460MOL0     H62052   6.298  10.016   9.855 -3.4828  0.8629  2.5450
  460MOL0     H62053   6.268   9.862   9.762  3.0324 -1.4093  0.5887
  460MOL0     H62054   6.138   9.951  10.026  0.6026  0.8583 -0.5559
  460MOL0     H62055   6.073   9.822   9.922 -0.7203 -0.1917  3.7419
  460MOL0     H62056   6.011   9.978   9.748 -4.0779 -1.3776  1.2544
  460MOL0     H62057   6.076  10.113   9.837 -1.1453  0.7371  1.4213
  460MOL0     H62058   5.905  10.069  10.013  0.6419 -0.5561  0.3984
  460MOL0     H62059   5.847   9.924   9.923 -1.7607  0.7220  1.4501
  460MOL0     H62060   5.722  10.318   9.715  0.2060 -0.3257  0.2588
  460MOL0     H62061   5.598  10.505   9.671  1.0816  0.0732  1.1654
  460MOL0     H62062   5.442  10.491   9.749 -0.1502 -0.2973  1.1127
  460MOL0     H62063   5.558  10.610   9.798 -1.3286  1.1199 -1.7153
  460MOL0     H62064   5.103  10.380  10.195 -1.1953 -0.4726  2.2513
  460MOL0     H62065   4.942  10.544  10.286 -0.6630  0.6515 -2.4800
  460MOL0     H62066   4.851  10.666  10.424  0.4370  0.4685 -0.7607
  460MOL0     H62067   4.848  10.817  10.512  0.5742 -0.6656  0.8712
  460MOL0     H62068   4.862  10.916  10.247 -0.8219 -0.9147 -2.4699
  460MOL0     H62069   4.823  10.763  10.212  4.0020  3.1833 -2.1973
  460MOL0     H62070   4.673  10.972  10.347 -4.1564  1.2273 -0.7406
  460MOL0     H62071   4.631  10.805  10.403  2.2012 -2.5934 -0.1061
  460MOL0     H62072   4.606  10.896  10.115  1.2228 -2.2647 -0.7448
  460MOL0     H62073   4.583  10.729  10.176 -0.6039  0.3856 -0.1993
  460MOL0     H62074   4.406  10.812  10.320  2.0319  0.0674 -0.4440
  460MOL0     H62075   4.364  10.836  10.150  1.0665 -0.4606 -0.4892
  460MOL0     H62076   4.483  11.072  10.295  2.3656 -1.0898 -2.1175
  460MOL0     H62077   4.375  11.066  10.147 -2.4960 -0.4311  0.5523
  460MOL0     H62078   4.311  11.129  10.415  0.2319  1.6874 -1.0549
  460MOL0     H62079   4.246  10.971  10.400 -0.4656  0.6772  0.8450
  460MOL0     H62080   4.091  11.036  10.207 -2.2009  1.4797 -0.6215
  460MOL0     H62081   4.191  11.175  10.176 -0.9536  1.2825  0.9578
  460MOL0     H62082   5.257  10.814  10.388 -3.6239  0.8718  2.3964
  460MOL0     H62083   5.422  10.632  10.281  0.0204 -1.0423 -0.7396
  460MOL0     H62084   5.517  10.238  10.151  1.0190 -1.7376  0.1186
  460MOL0     H62085   5.681  10.079  10.069  2.2352  1.7161  0.7987
  460MOL0     H62086   7.592   9.011   9.972 -0.2026 -0.4400  5.1024
  460MOL0     H62087   7.643   8.785  10.056 -1.7969 -1.9426  0.6328
  460MOL0     H62088   7.664   8.403  10.143  2.0882 -0.2842 -1.1402
  460MOL0     H62089   7.729   8.205  10.223  1.3708  0.2461 -0.5451
  460MOL0     H62090   7.828   7.963  10.190  0.7697 -1.2026  0.2075
  460MOL0     H62091   7.708   7.984  10.319 -0.2477  0.5351 -1.0204
  460MOL0     H62092   7.783   7.721  10.174 -1.0028 -1.4059 -0.4175
  460MOL0     H62093   7.636   7.732  10.256 -0.0848 -0.6143  2.0085
  460MOL0     H62094   7.746   7.787  10.474  1.7732  3.2444 -0.5849
  460MOL0     H62095   7.894   7.796  10.395 -1.3769  1.9252  2.2625
  460MOL0     H62096   7.865   7.545  10.330 -0.2906 -1.1657  0.9758
  460MOL0     H62097   7.699   7.542  10.384  0.3329 -1.0715  2.4454
  460MOL0     H62098   7.944   7.447  10.705 -0.5259 -2.2748 -2.1222
  460MOL0     H62099   7.486   8.002   9.915  1.6160 -1.7302  0.8804
  460MOL0     H62100   7.424   8.217   9.832  0.9802 -0.2280 -0.9965
  461MOL0     O62101   4.554   8.769   2.633 -0.1662  0.3679 -0.2200
  461MOL0     C62102   4.599   8.794   2.521  0.0458 -0.3673 -0.7693
  461MOL0     O62103   4.533   8.771   2.405 -0.0832  0.3182 -0.1057
  461MOL0     C62104   4.413   8.706   2.427 -0.0915  0.1033 -0.8712
  461MOL0     C62105   4.401   8.573   2.390 -0.0434 -0.3847  0.6724
  461MOL0     C62106   4.287   8.509   2.404  0.2875  0.0004  0.1555
  461MOL0     C62107   4.174   8.581   2.433  0.3505  0.8557 -0.1217
  461MOL0     O62108   4.061   8.503   2.441  0.4889  0.2588 -0.0065
  461MOL0     C62109   3.933   8.561   2.484 -0.0029  0.0698 -0.3403
  461MOL0     C62110   3.831   8.450   2.487  0.1017  0.3863  0.0516
  461MOL0     C62111   3.685   8.493   2.511 -0.0642 -0.9826 -0.6123
  461MOL0     C62112   3.614   8.362   2.523  0.4364  0.3496 -0.4606
  461MOL0     C62113   3.473   8.387   2.575 -0.4708  0.0683 -0.8162
  461MOL0     C62114   3.407   8.252   2.612 -0.0423 -0.2657  0.2332
  461MOL0     C62115   3.255   8.281   2.619  0.1149 -0.4476  0.3743
  461MOL0     C62116   3.193   8.145   2.639 -0.0123 -0.4104 -0.3222
  461MOL0     N62117   3.052   8.158   2.633  0.1779  0.0185  0.3354
  461MOL0     C62118   2.974   8.202   2.736 -0.2016  0.2511  0.8129
  461MOL0     C62119   2.844   8.176   2.705  0.1417 -0.4575 -0.6685
  461MOL0     C62120   2.714   8.218   2.776  0.2849 -0.5343 -0.0798
  461MOL0     C62121   2.715   8.166   2.918  0.9336 -0.3427  0.6022
  461MOL0     C62122   2.596   8.229   2.986 -0.4375  0.6409  0.4640
  461MOL0     C62123   2.623   8.369   3.049 -0.1695 -0.1418  0.0864
  461MOL0     O62124   2.649   8.482   2.962 -0.5385  0.3519  0.0573
  461MOL0     C62125   2.768   8.555   2.950 -0.4589  0.6967 -0.2350
  461MOL0     C62126   2.778   8.675   2.889 -0.2425 -1.2145  0.7880
  461MOL0     C62127   2.894   8.751   2.867  0.1055 -0.0891  0.6760
  461MOL0     C62128   2.881   8.881   2.783  0.6065 -0.6552 -0.6059
  461MOL0     C62129   3.016   8.707   2.918 -0.6198 -0.8582 -1.0215
  461MOL0     C62130   3.145   8.789   2.916 -0.4129  0.1440  0.4838
  461MOL0     O62131   3.239   8.753   3.003  0.5612  0.4087 -0.5514
  461MOL0     C62132   3.374   8.771   2.962  0.2889  0.3586  0.4067
  461MOL0     C62133   3.431   8.766   2.835  0.4761  0.0835 -0.2857
  461MOL0     C62134   3.567   8.785   2.811 -0.5912 -0.3019  0.1519
  461MOL0     C62135   3.649   8.828   2.917  0.3052 -0.5952  0.2902
  461MOL0     O62136   3.779   8.863   2.890 -0.4952 -0.2673 -0.0014
  461MOL0     C62137   3.828   8.868   2.752  0.1221  0.7627 -0.7898
  461MOL0     C62138   3.970   8.901   2.748  0.7840  0.0684 -0.3653
  461MOL0     C62139   4.009   9.039   2.775 -0.3757  0.4218 -0.0523
  461MOL0     C62140   4.159   9.051   2.743  1.1024 -0.0296 -0.1656
  461MOL0     C62141   4.243   9.003   2.868  0.1285  0.2523  0.0897
  461MOL0     C62142   4.392   9.019   2.842 -0.3710  0.2063  0.1456
  461MOL0     C62143   4.473   8.949   2.954  0.3150  0.3273  0.4927
  461MOL0     C62144   4.478   9.023   3.088  0.2940 -0.6545 -0.0126
  461MOL0    Cl62145   4.596   8.941   3.193  0.4116  0.3430 -0.0121
  461MOL0     C62146   3.593   8.847   3.047  0.8811 -0.1474 -0.4280
  461MOL0     C62147   3.461   8.806   3.069  0.2933  0.1236  0.0599
  461MOL0     O62148   3.158   8.881   2.838 -0.2734 -0.2441  0.4170
  461MOL0     C62149   3.007   8.589   2.993 -0.2138  0.6067 -0.5422
  461MOL0     C62150   2.893   8.510   3.011 -0.0276 -0.5618 -0.8993
  461MOL0     N62151   2.854   8.099   2.587  0.1292 -0.1365  0.3406
  461MOL0     N62152   2.981   8.086   2.550 -0.0447  0.3115  0.0632
  461MOL0     C62153   4.177   8.718   2.459 -0.6555  0.7288  0.0113
  461MOL0     C62154   4.298   8.784   2.456 -0.5873  0.4514  0.2617
  461MOL0     C62155   4.734   8.847   2.512  0.9779  0.2243 -0.5622
  461MOL0     C62156   4.778   8.928   2.408  0.0797 -0.0501 -0.3414
  461MOL0     C62157   4.912   8.973   2.405  0.5818 -0.9611  0.1298
  461MOL0     C62158   4.988   8.954   2.516 -1.2293  0.3768 -0.6431
  461MOL0     O62159   5.120   8.988   2.526 -0.4560  0.5648 -0.3610
  461MOL0     C62160   5.182   9.075   2.425  0.4413 -0.0791  0.6828
  461MOL0     C62161   5.325   9.091   2.448  0.6047 -0.0279  0.0004
  461MOL0     C62162   5.401   8.954   2.448  0.1464 -0.4316  0.2269
  461MOL0     C62163   5.552   8.965   2.395 -0.8212  0.1451 -0.3803
  461MOL0     C62164   5.614   9.089   2.448  0.4700 -0.1026 -0.0708
  461MOL0     C62165   5.666   9.191   2.487  1.2704  0.7879 -0.1404
  461MOL0     C62166   4.941   8.882   2.624 -0.4880  0.0683  0.5444
  461MOL0     C62167   4.815   8.831   2.622  0.2145 -0.3181  0.5298
  461MOL0     H62168   4.490   8.515   2.370  0.6486  0.2410  1.8464
  461MOL0     H62169   4.259   8.408   2.374 -3.2292  1.5617 -2.5976
  461MOL0     H62170   3.947   8.599   2.585  3.2587  0.2804 -0.7574
  461MOL0     H62171   3.897   8.641   2.419  0.3789  2.4580  2.2261
  461MOL0     H62172   3.838   8.394   2.394 -2.5736  0.3241 -0.1913
  461MOL0     H62173   3.860   8.370   2.555 -0.7131 -0.8354 -0.9868
  461MOL0     H62174   3.668   8.556   2.599  4.1681 -2.8948  1.8552
  461MOL0     H62175   3.643   8.545   2.425  1.8862 -1.4056 -1.8771
  461MOL0     H62176   3.622   8.308   2.429 -0.0683  1.7844 -1.3575
  461MOL0     H62177   3.664   8.304   2.601 -3.8168 -1.7269  1.0254
  461MOL0     H62178   3.474   8.461   2.656  0.2723 -0.1814 -0.5919
  461MOL0     H62179   3.423   8.439   2.493 -0.6288 -0.3724 -1.0011
  461MOL0     H62180   3.412   8.195   2.519 -1.1890  0.2833 -0.1754
  461MOL0     H62181   3.447   8.201   2.700  0.2687  1.5999  1.2359
  461MOL0     H62182   3.231   8.345   2.704 -0.5922 -1.9835  1.3938
  461MOL0     H62183   3.220   8.317   2.522 -0.3114  1.4870  1.2004
  461MOL0     H62184   3.227   8.089   2.726  3.4809 -2.1807 -2.5735
  461MOL0     H62185   3.236   8.087   2.557 -0.5303  2.4312 -2.7747
  461MOL0     H62186   3.004   8.248   2.830 -0.5109 -0.6336  1.3479
  461MOL0     H62187   2.711   8.327   2.777 -2.6210 -0.4059 -3.0942
  461MOL0     H62188   2.631   8.170   2.724  0.5915  0.7523 -1.8425
  461MOL0     H62189   2.806   8.182   2.976  0.2108  0.3310  1.5824
  461MOL0     H62190   2.692   8.059   2.918  0.1926 -0.1882  1.2525
  461MOL0     H62191   2.564   8.160   3.064 -0.5165 -1.2983 -1.2095
  461MOL0     H62192   2.519   8.233   2.909 -0.0262 -1.4002 -0.1208
  461MOL0     H62193   2.710   8.361   3.115  1.3752 -2.4748 -2.0686
  461MOL0     H62194   2.540   8.391   3.118  0.4470 -0.8925  1.1010
  461MOL0     H62195   2.690   8.704   2.833 -0.2547  0.6640  1.6991
  461MOL0     H62196   2.777   8.909   2.763  0.1226  1.1717  3.4501
  461MOL0     H62197   2.927   8.965   2.837  1.1787 -2.4049  1.8052
  461MOL0     H62198   2.940   8.870   2.692  0.6827 -1.3288 -0.4782
  461MOL0     H62199   3.375   8.734   2.748  0.1850  1.6512 -0.7195
  461MOL0     H62200   3.597   8.776   2.708 -0.4316 -1.0262  0.2605
  461MOL0     H62201   3.828   8.761   2.733  0.3606  0.5741  0.2089
  461MOL0     H62202   3.766   8.934   2.690 -2.5791  0.0620  0.9864
  461MOL0     H62203   4.010   8.836   2.827 -0.4746 -0.6562 -0.2867
  461MOL0     H62204   4.000   8.867   2.648 -1.5292  0.0817 -1.1226
  461MOL0     H62205   4.000   9.053   2.883  0.1161 -0.6090  0.1281
  461MOL0     H62206   3.951   9.111   2.716  2.0916  1.2255 -1.6785
  461MOL0     H62207   4.191   8.995   2.655 -1.8388 -1.8655 -0.2114
  461MOL0     H62208   4.188   9.155   2.724 -1.3357  1.3091  2.5821
  461MOL0     H62209   4.222   8.898   2.891  2.3913  0.1274  2.0109
  461MOL0     H62210   4.222   9.068   2.954  1.3999  1.0673 -0.1928
  461MOL0     H62211   4.409   8.956   2.754  2.0185 -0.2677  0.8938
  461MOL0     H62212   4.417   9.124   2.826  1.6766 -0.7264 -4.7208
  461MOL0     H62213   4.574   8.943   2.913  1.7639 -0.3201  3.8058
  461MOL0     H62214   4.438   8.847   2.972  0.4846  0.3000  0.6661
  461MOL0     H62215   4.379   9.005   3.129  0.0341 -1.4434 -0.9574
  461MOL0     H62216   4.505   9.128   3.075 -0.3193 -0.7436 -2.5362
  461MOL0     H62217   3.655   8.899   3.118 -1.2132  2.0056 -0.0539
  461MOL0     H62218   3.414   8.815   3.166 -0.2917  1.3361 -0.3128
  461MOL0     H62219   3.095   8.551   3.044  0.1458  0.9568 -0.9006
  461MOL0     H62220   2.901   8.420   3.070  1.5597  0.0989 -0.0501
  461MOL0     H62221   4.085   8.764   2.493  0.3047  1.3973  1.8449
  461MOL0     H62222   4.301   8.891   2.471  0.1860  0.4185  0.4141
  461MOL0     H62223   4.708   8.954   2.329  1.4810  1.7109 -1.0605
  461MOL0     H62224   4.952   9.023   2.317 -0.6422 -0.2433 -0.0434
  461MOL0     H62225   5.165   9.035   2.325  0.3415  1.3620  0.1005
  461MOL0     H62226   5.131   9.171   2.429  1.8279  0.6494  1.6722
  461MOL0     H62227   5.346   9.143   2.542 -0.5142 -1.8372  1.3167
  461MOL0     H62228   5.367   9.139   2.359 -0.5752 -1.4926 -1.4143
  461MOL0     H62229   5.352   8.882   2.382  0.2248  0.5189 -0.8999
  461MOL0     H62230   5.401   8.912   2.549  0.2324 -2.0925 -0.4397
  461MOL0     H62231   5.555   8.963   2.286 -1.6779 -1.0426 -0.4032
  461MOL0     H62232   5.604   8.883   2.446 -1.5861  0.0046  0.2105
  461MOL0     H62233   5.698   9.289   2.516  1.2188  1.6178 -2.6430
  461MOL0     H62234   5.017   8.854   2.696 -0.7817 -0.0659  0.8076
  461MOL0     H62235   4.784   8.770   2.707  1.1752 -1.4847  0.0769
  462MOL0     O62236   7.815   9.544   7.588 -0.6143 -0.5246  0.4033
  462MOL0     C62237   7.851   9.467   7.677  0.7230 -0.7781  0.1114
  462MOL0     O62238   7.768   9.410   7.766 -1.0042 -0.0886 -0.1121
  462MOL0     C62239   7.639   9.450   7.774  0.3849 -0.9213  0.0081
  462MOL0     C62240   7.585   9.447   7.903 -0.3345  0.3522  0.2645
  462MOL0     C62241   7.447   9.471   7.930 -0.7570  0.0997  0.0986
  462MOL0     C62242   7.361   9.500   7.818 -0.4565 -0.6640  0.3089
  462MOL0     O62243   7.228   9.517   7.837 -0.1078 -0.2422 -0.6129
  462MOL0     C62244   7.170   9.427   7.933  1.1205 -0.1403  0.4936
  462MOL0     C62245   7.027   9.427   7.911  0.8025  0.0604 -0.1417
  462MOL0     C62246   6.939   9.333   7.998 -0.2994 -0.1616  0.5705
  462MOL0     C62247   6.790   9.329   7.954 -0.5301 -0.4939 -0.5347
  462MOL0     C62248   6.716   9.208   8.018 -0.7464 -0.2333 -0.0095
  462MOL0     C62249   6.574   9.208   7.976 -0.7496  0.4053  0.5676
  462MOL0     C62250   6.477   9.113   8.048  0.3867 -0.5772 -0.5640
  462MOL0     C62251   6.465   8.979   7.979  0.9807  1.0893 -0.3618
  462MOL0     N62252   6.373   8.893   8.040  0.0263 -0.0437  0.4374
  462MOL0     C62253   6.264   8.841   7.983 -0.1774 -0.2699 -0.1089
  462MOL0     C62254   6.214   8.756   8.077 -0.0537 -0.3184  0.5987
  462MOL0     C62255   6.108   8.647   8.062  0.0330  0.1428  0.8355
  462MOL0     C62256   5.985   8.662   8.142  0.4199  0.1420  1.5026
  462MOL0     C62257   5.900   8.545   8.147  0.3561  0.5146  0.0958
  462MOL0     C62258   5.767   8.581   8.234 -0.8957  0.1765 -0.4588
  462MOL0     O62259   5.676   8.480   8.207  0.0750  0.0393 -1.0557
  462MOL0     C62260   5.594   8.472   8.328 -0.8664 -0.3002  0.5752
  462MOL0     C62261   5.505   8.580   8.342  0.8541  0.0143 -0.0175
  462MOL0     C62262   5.401   8.581   8.441  0.9433  0.7366 -1.5333
  462MOL0     C62263   5.303   8.700   8.427 -0.1204 -0.2709 -0.1976
  462MOL0     C62264   5.391   8.464   8.525  0.0754  0.4029  0.3537
  462MOL0     C62265   5.274   8.448   8.622 -0.2962  0.7827  0.1800
  462MOL0     O62266   5.235   8.320   8.652  0.6906  0.8253 -0.2440
  462MOL0     C62267   5.175   8.311   8.775  0.8480 -0.6593 -0.1492
  462MOL0     C62268   5.035   8.303   8.795  0.7672 -0.1792  0.2355
  462MOL0     C62269   4.988   8.307   8.928  0.0847 -0.9920 -0.0214
  462MOL0     C62270   5.080   8.316   9.040  0.6760 -0.5773  1.1125
  462MOL0     O62271   5.041   8.337   9.172 -0.7664 -0.2066  1.0934
  462MOL0     C62272   5.066   8.245   9.281  0.1380 -0.8478  0.0528
  462MOL0     C62273   4.981   8.277   9.407 -0.7067 -0.4425 -0.5858
  462MOL0     C62274   4.834   8.284   9.361  0.6847 -0.7194  0.2269
  462MOL0     C62275   4.769   8.158   9.313  0.1005  0.3265 -0.3309
  462MOL0     C62276   4.616   8.174   9.267  0.0935 -0.3608  0.2605
  462MOL0     C62277   4.563   8.046   9.213  0.4893  0.1627  0.2432
  462MOL0     C62278   4.422   8.065   9.145 -0.1993 -0.4048  0.3166
  462MOL0     C62279   4.339   7.936   9.149 -0.5110 -0.1350 -0.3987
  462MOL0    Cl62280   4.176   7.975   9.086 -0.2119  0.1786 -0.0706
  462MOL0     C62281   5.217   8.316   9.014 -0.8337  0.8243  0.6437
  462MOL0     C62282   5.264   8.311   8.882 -0.5706  0.3907  0.0542
  462MOL0     O62283   5.220   8.548   8.671  0.1384 -0.6997 -0.6957
  462MOL0     C62284   5.486   8.362   8.513 -0.2288 -0.1230  0.0496
  462MOL0     C62285   5.585   8.366   8.415  0.7673  0.2518  0.5414
  462MOL0     N62286   6.284   8.769   8.195  0.4172  0.1323  0.5465
  462MOL0     N62287   6.377   8.855   8.167  0.1173 -0.3650  0.0884
  462MOL0     C62288   7.412   9.506   7.687  0.0927 -0.0474 -0.1534
  462MOL0     C62289   7.551   9.476   7.665  0.2128 -0.1744 -0.4674
  462MOL0     C62290   7.996   9.452   7.676  0.0661 -0.2539  0.1724
  462MOL0     C62291   8.056   9.365   7.765  0.6701  0.3378  0.1408
  462MOL0     C62292   8.192   9.321   7.751 -0.2467 -0.5058 -0.0481
  462MOL0     C62293   8.275   9.369   7.651  0.5982  0.1176  0.8168
  462MOL0     O62294   8.401   9.303   7.638  1.0319 -0.0157  0.0964
  462MOL0     C62295   8.500   9.357   7.544  0.8638 -0.9051  0.0652
  462MOL0     C62296   8.640   9.297   7.578 -0.1874  0.9951 -0.5930
  462MOL0     C62297   8.673   9.331   7.730  0.5040 -0.0901  0.9007
  462MOL0     C62298   8.680   9.478   7.762 -1.1206 -1.1392 -0.4438
  462MOL0     C62299   8.748   9.566   7.658 -0.2477  0.6160 -0.0658
  462MOL0     C62300   8.792   9.641   7.570  0.3169 -0.4380  0.1347
  462MOL0     C62301   8.218   9.472   7.569 -0.1426 -0.1293 -0.0237
  462MOL0     C62302   8.081   9.516   7.583 -0.6598 -0.2570 -0.0395
  462MOL0     H62303   7.646   9.419   7.989 -1.6900 -0.4235  1.0030
  462MOL0     H62304   7.411   9.469   8.033 -2.4157 -0.1901 -0.4668
  462MOL0     H62305   7.209   9.325   7.933  0.5424 -0.3689 -0.0392
  462MOL0     H62306   7.194   9.472   8.029  0.3337  3.0125 -0.6815
  462MOL0     H62307   6.987   9.529   7.918 -1.2740 -0.5584 -1.7429
  462MOL0     H62308   7.026   9.385   7.810 -1.2704 -1.6986  0.5270
  462MOL0     H62309   6.979   9.232   7.986 -0.8670 -0.5040  1.4723
  462MOL0     H62310   6.943   9.374   8.099 -0.0500  1.6781 -0.1445
  462MOL0     H62311   6.740   9.422   7.985  2.0789  0.3979  1.3386
  462MOL0     H62312   6.785   9.323   7.845 -0.9252  2.6941 -0.7775
  462MOL0     H62313   6.762   9.114   7.984  2.2992  1.1364 -0.0683
  462MOL0     H62314   6.720   9.212   8.127 -2.2625 -0.6170  0.0769
  462MOL0     H62315   6.531   9.309   7.982  0.4532  1.0339 -0.7303
  462MOL0     H62316   6.564   9.177   7.872  0.2396 -3.1670  1.3991
  462MOL0     H62317   6.496   9.097   8.154 -1.4400  1.6655  0.2012
  462MOL0     H62318   6.378   9.160   8.043  1.2658  1.3472 -0.6305
  462MOL0     H62319   6.565   8.935   7.981  0.7114  0.4238  1.8851
  462MOL0     H62320   6.445   8.995   7.873  1.9420 -0.7546 -0.8684
  462MOL0     H62321   6.219   8.853   7.885 -1.8506 -2.5758  0.3009
  462MOL0     H62322   6.092   8.620   7.957 -2.2583 -1.0522  1.4413
  462MOL0     H62323   6.146   8.556   8.110  0.8163 -0.0905 -0.1949
  462MOL0     H62324   5.933   8.747   8.096  0.5758 -0.1019  0.8685
  462MOL0     H62325   6.004   8.688   8.247 -1.2048 -2.6067  2.6107
  462MOL0     H62326   5.944   8.461   8.201 -1.9414  0.4004  1.9473
  462MOL0     H62327   5.880   8.519   8.043  1.1227  0.1361  0.0319
  462MOL0     H62328   5.729   8.674   8.191  1.6054  0.9231 -1.2667
  462MOL0     H62329   5.800   8.593   8.338  0.7780 -0.7900 -0.8409
  462MOL0     H62330   5.499   8.645   8.256 -2.7947 -1.4564 -1.0345
  462MOL0     H62331   5.294   8.726   8.321  0.1282  2.3977  0.3637
  462MOL0     H62332   5.210   8.669   8.475  0.6165 -0.8365  0.9306
  462MOL0     H62333   5.341   8.786   8.484  0.5885 -1.2544  0.8804
  462MOL0     H62334   4.962   8.296   8.715  2.1965  1.2425 -1.2665
  462MOL0     H62335   4.886   8.339   8.947  0.1993 -0.7374  0.1807
  462MOL0     H62336   5.035   8.144   9.251 -1.0925 -0.0622 -1.4903
  462MOL0     H62337   5.173   8.252   9.300  0.2785 -0.0761 -0.9490
  462MOL0     H62338   4.991   8.209   9.493 -2.7480  1.2833  1.1233
  462MOL0     H62339   5.015   8.371   9.451 -0.7386 -2.1000  3.4998
  462MOL0     H62340   4.828   8.361   9.285  1.1328 -1.6581 -0.7943
  462MOL0     H62341   4.777   8.317   9.448  0.5947 -0.5352  0.0958
  462MOL0     H62342   4.820   8.120   9.224 -0.5462 -0.4991 -0.3606
  462MOL0     H62343   4.773   8.081   9.390 -0.3272  2.0157  1.4627
  462MOL0     H62344   4.616   8.237   9.177  4.5191 -1.1225 -0.5033
  462MOL0     H62345   4.551   8.209   9.348 -1.4224 -1.6645 -0.3572
  462MOL0     H62346   4.635   8.002   9.143  1.5011  0.5204  1.0307
  462MOL0     H62347   4.568   7.971   9.292 -0.2809  0.2239  0.3575
  462MOL0     H62348   4.435   8.103   9.043 -0.2613  2.9316  1.4291
  462MOL0     H62349   4.368   8.147   9.194  0.1146  0.5190 -0.8448
  462MOL0     H62350   4.323   7.902   9.252 -0.2956 -0.7576 -0.5657
  462MOL0     H62351   4.386   7.856   9.092  0.6720  1.8994 -2.4173
  462MOL0     H62352   5.294   8.309   9.090 -0.3235 -3.7642  0.0289
  462MOL0     H62353   5.364   8.300   8.843 -0.2298  0.8678  0.7593
  462MOL0     H62354   5.472   8.269   8.569  0.2428  0.4774  1.1912
  462MOL0     H62355   5.660   8.288   8.407  0.7734  0.3412 -0.3911
  462MOL0     H62356   7.355   9.523   7.596  3.7875  0.8982 -2.5147
  462MOL0     H62357   7.588   9.468   7.563  1.9977  0.1162  0.1260
  462MOL0     H62358   7.992   9.315   7.836 -2.5845  0.2861 -2.5441
  462MOL0     H62359   8.237   9.255   7.824 -0.7416 -0.0937  0.6322
  462MOL0     H62360   8.465   9.324   7.445  0.0041 -0.9467  0.3720
  462MOL0     H62361   8.510   9.465   7.548  0.2396 -0.8914  2.3819
  462MOL0     H62362   8.723   9.338   7.520  2.6590 -0.9525  1.8151
  462MOL0     H62363   8.635   9.190   7.558 -2.5005  0.7020  1.1412
  462MOL0     H62364   8.766   9.281   7.758  1.2708  0.9002  0.2182
  462MOL0     H62365   8.595   9.287   7.792 -1.8563  2.1061 -0.2896
  462MOL0     H62366   8.731   9.490   7.858  0.2392 -4.1117 -0.6730
  462MOL0     H62367   8.577   9.515   7.770 -1.3541 -1.7008 -0.7668
  462MOL0     H62368   8.836   9.703   7.494  2.5564 -1.4885  0.4876
  462MOL0     H62369   8.269   9.507   7.479 -0.5137 -2.2402 -1.1160
  462MOL0     H62370   8.054   9.592   7.512 -0.0105  0.8681  0.8711
  463MOL0     O62371   8.763   5.576   0.475  0.4743 -0.2216  0.0106
  463MOL0     C62372   8.796   5.549   0.593  1.0314 -0.1773  0.1072
  463MOL0     O62373   8.724   5.568   0.703  0.5494  0.4586 -0.2789
  463MOL0     C62374   8.594   5.608   0.694  0.9614 -0.4261 -0.3621
  463MOL0     C62375   8.491   5.526   0.738  0.0131  0.1422 -0.4944
  463MOL0     C62376   8.363   5.566   0.743  0.2025  0.4563 -0.8798
  463MOL0     C62377   8.327   5.687   0.688  0.4492 -0.4193 -0.4599
  463MOL0     O62378   8.197   5.710   0.699 -0.6199 -0.2465  0.3419
  463MOL0     C62379   8.128   5.806   0.614  0.2722  0.1213  0.0640
  463MOL0     C62380   8.006   5.734   0.563 -0.3963  0.3383 -0.0570
  463MOL0     C62381   7.921   5.812   0.463  0.6093  0.2591 -0.4477
  463MOL0     C62382   7.818   5.713   0.393  1.0973  0.0582 -0.3041
  463MOL0     C62383   7.730   5.783   0.292 -0.4168  0.1204 -0.6942
  463MOL0     C62384   7.658   5.691   0.198  0.1011  0.2464 -0.2523
  463MOL0     C62385   7.553   5.603   0.260  0.4801  0.0147  0.4311
  463MOL0     C62386   7.505   5.503   0.147 -0.9790 -0.0875  0.0623
  463MOL0     N62387   7.417   5.413   0.224 -0.8145 -0.1269 -0.6414
  463MOL0     C62388   7.464   5.301   0.289  1.0118  0.0302 -0.6007
  463MOL0     C62389   7.355   5.249   0.348  0.1046  0.0599 -0.3081
  463MOL0     C62390   7.374   5.143   0.462  0.6794  0.2562  0.0538
  463MOL0     C62391   7.268   5.032   0.453  0.4509 -0.8230  0.0553
  463MOL0     C62392   7.285   4.960   0.321 -0.9818 -0.3611 -0.3135
  463MOL0     C62393   7.186   4.844   0.336  0.0864  1.0326  0.6180
  463MOL0     O62394   7.049   4.889   0.340 -0.1890 -0.3523 -0.0161
  463MOL0     C62395   6.938   4.803   0.343  0.2252 -0.5789 -0.3225
  463MOL0     C62396   6.946   4.669   0.345  0.4447 -0.0045 -0.7070
  463MOL0     C62397   6.822   4.596   0.346  0.3388 -1.0265 -0.1862
  463MOL0     C62398   6.832   4.449   0.371  0.3544 -0.2014  0.2984
  463MOL0     C62399   6.693   4.667   0.334 -0.3762  0.0762  0.0125
  463MOL0     C62400   6.556   4.598   0.320 -0.0093  0.3750 -0.3211
  463MOL0     O62401   6.456   4.689   0.302  0.5961  0.4501 -0.6146
  463MOL0     C62402   6.326   4.667   0.332  0.3091  0.3475  0.1446
  463MOL0     C62403   6.247   4.757   0.262 -0.7365  0.3169  0.1354
  463MOL0     C62404   6.112   4.758   0.283 -0.6063 -0.2840 -0.8938
  463MOL0     C62405   6.048   4.668   0.374  0.0347 -0.3457  0.0656
  463MOL0     O62406   5.915   4.676   0.397  0.1316  0.4927  0.2448
  463MOL0     C62407   5.830   4.711   0.289 -0.5125  1.0775  0.6790
  463MOL0     C62408   5.685   4.673   0.315  0.4918  0.0686  0.6358
  463MOL0     C62409   5.599   4.694   0.198  0.4457 -0.5196 -1.2684
  463MOL0     C62410   5.450   4.697   0.239  0.1323 -1.6205 -0.0781
  463MOL0     C62411   5.348   4.755   0.131  0.4734 -0.2667  1.1042
  463MOL0     C62412   5.204   4.779   0.183 -0.5629  0.1620 -0.0333
  463MOL0     C62413   5.139   4.640   0.191 -0.6258 -0.5383  0.2291
  463MOL0     C62414   4.997   4.643   0.232 -0.3166 -0.8320  0.5419
  463MOL0    Cl62415   4.990   4.711   0.395 -0.1239  0.6276  0.1279
  463MOL0     C62416   6.124   4.573   0.438  0.3929  0.5802  0.4065
  463MOL0     C62417   6.267   4.573   0.413  0.2031  0.2139  1.1037
  463MOL0     O62418   6.546   4.475   0.330  0.0385  0.2121 -0.3329
  463MOL0     C62419   6.694   4.806   0.332 -0.2863 -0.2752 -0.7232
  463MOL0     C62420   6.815   4.877   0.335 -0.6020  0.1321  0.6060
  463MOL0     N62421   7.244   5.326   0.310  0.0257 -0.3185  0.1533
  463MOL0     N62422   7.285   5.416   0.235  1.2348 -0.2910  0.2799
  463MOL0     C62423   8.421   5.771   0.646 -0.9436  0.3679  0.0958
  463MOL0     C62424   8.554   5.730   0.642 -0.0940  0.1652 -0.3007
  463MOL0     C62425   8.931   5.494   0.619 -0.3265  0.3759  1.0842
  463MOL0     C62426   9.035   5.506   0.524 -0.1629  0.0090 -0.4698
  463MOL0     C62427   9.162   5.451   0.543  0.1258  0.0176  0.1414
  463MOL0     C62428   9.185   5.373   0.658  0.4742 -0.5733 -0.2434
  463MOL0     O62429   9.302   5.308   0.680  0.1751 -0.0446  0.3532
  463MOL0     C62430   9.412   5.314   0.583 -0.2368  0.7067 -0.6955
  463MOL0     C62431   9.524   5.233   0.655 -0.6258  0.1977 -0.2035
  463MOL0     C62432   9.638   5.228   0.557  0.0348 -0.0592 -0.5494
  463MOL0     C62433   9.766   5.194   0.621 -0.7183 -0.6051 -0.6704
  463MOL0     C62434   9.813   5.306   0.704  0.8712 -0.3516 -0.1002
  463MOL0     C62435   9.836   5.401   0.770 -0.5026  0.0512  0.2340
  463MOL0     C62436   9.085   5.367   0.756  0.4873 -1.0447 -0.0364
  463MOL0     C62437   8.962   5.419   0.735  0.0774  0.5383 -0.6842
  463MOL0     H62438   8.520   5.436   0.791  1.4897  1.2563  0.6921
  463MOL0     H62439   8.299   5.485   0.775  2.2004 -0.6982  0.4109
  463MOL0     H62440   8.082   5.894   0.661 -2.2834  0.1393 -2.2148
  463MOL0     H62441   8.196   5.836   0.534 -0.8756  0.0778 -0.9564
  463MOL0     H62442   8.038   5.637   0.524  2.0336  0.1904  2.0495
  463MOL0     H62443   7.930   5.711   0.638 -1.0543  1.5071 -0.3283
  463MOL0     H62444   7.869   5.894   0.514  0.4825 -0.5921  0.8613
  463MOL0     H62445   7.978   5.868   0.388 -2.5310  2.1537 -1.6093
  463MOL0     H62446   7.877   5.633   0.346  1.6143 -1.2133  2.3295
  463MOL0     H62447   7.747   5.673   0.465 -2.9525 -0.7803 -4.3346
  463MOL0     H62448   7.646   5.839   0.335 -1.4894 -0.6760 -1.6866
  463MOL0     H62449   7.788   5.856   0.234  0.8196 -1.6490 -1.7522
  463MOL0     H62450   7.599   5.742   0.122  0.3300  1.7340  0.5470
  463MOL0     H62451   7.728   5.631   0.138 -0.6216 -0.1460 -0.7172
  463MOL0     H62452   7.606   5.547   0.338  2.1526  0.7145 -0.1536
  463MOL0     H62453   7.475   5.667   0.302  1.1781  0.3457  1.2611
  463MOL0     H62454   7.586   5.454   0.092 -0.3976  1.1762 -0.2541
  463MOL0     H62455   7.452   5.553   0.066  1.9043  0.9045 -1.3571
  463MOL0     H62456   7.565   5.274   0.318 -0.0862 -3.1630  0.7267
  463MOL0     H62457   7.474   5.102   0.444 -0.1272 -1.2777 -1.1832
  463MOL0     H62458   7.369   5.184   0.563  1.4411 -0.5103  0.4138
  463MOL0     H62459   7.168   5.077   0.461  0.6768 -0.3724  0.3898
  463MOL0     H62460   7.272   4.973   0.545 -0.3753  1.8651  1.9364
  463MOL0     H62461   7.378   4.909   0.295 -1.2025 -0.2066 -1.4383
  463MOL0     H62462   7.261   5.031   0.242 -2.5728 -1.8927 -1.2540
  463MOL0     H62463   7.202   4.787   0.428 -1.4251 -0.5845 -0.0479
  463MOL0     H62464   7.203   4.777   0.250 -0.0039  1.8759 -0.0690
  463MOL0     H62465   7.044   4.624   0.359  1.1836  0.1868 -4.2934
  463MOL0     H62466   6.806   4.405   0.275 -0.5798 -0.4201  0.6459
  463MOL0     H62467   6.928   4.411   0.406 -0.1865 -1.5312  0.3650
  463MOL0     H62468   6.763   4.407   0.445  0.5847 -0.1876  0.5234
  463MOL0     H62469   6.290   4.831   0.195 -2.5903  2.1534  0.8785
  463MOL0     H62470   6.060   4.841   0.236  0.6296  0.2275 -1.4153
  463MOL0     H62471   5.846   4.819   0.281  0.8232  0.7784 -1.4448
  463MOL0     H62472   5.864   4.657   0.201  1.8055  2.1252  0.8602
  463MOL0     H62473   5.681   4.568   0.344 -0.3383 -0.3009 -0.7114
  463MOL0     H62474   5.649   4.724   0.405 -0.1225 -1.5628  1.3334
  463MOL0     H62475   5.614   4.608   0.132 -4.8670 -1.6256 -1.4702
  463MOL0     H62476   5.636   4.783   0.146  0.2729  0.4633  0.2286
  463MOL0     H62477   5.419   4.593   0.251 -1.8846 -1.2468 -1.4248
  463MOL0     H62478   5.439   4.754   0.332  0.8851 -2.8169  0.7705
  463MOL0     H62479   5.353   4.696   0.038 -2.0133  3.0473 -1.3722
  463MOL0     H62480   5.381   4.853   0.097 -4.4133  1.5182  0.7111
  463MOL0     H62481   5.196   4.829   0.281 -2.6631 -0.8287  0.3653
  463MOL0     H62482   5.154   4.845   0.110  1.9226  4.2345  1.5734
  463MOL0     H62483   5.190   4.580   0.266 -0.5547 -1.5391 -0.5925
  463MOL0     H62484   5.154   4.584   0.098  1.6286 -2.3585  1.6146
  463MOL0     H62485   4.941   4.549   0.220  1.0850 -1.7310  0.8352
  463MOL0     H62486   4.931   4.707   0.173 -0.1323  0.6558  1.8989
  463MOL0     H62487   6.080   4.504   0.509  0.1356  2.7432  2.4486
  463MOL0     H62488   6.336   4.502   0.456 -2.2527 -2.2158  1.3374
  463MOL0     H62489   6.607   4.870   0.314  1.9541  2.5214 -2.4818
  463MOL0     H62490   6.813   4.985   0.328  2.4091  0.2498 -5.2148
  463MOL0     H62491   8.395   5.868   0.605 -0.3160  0.4721 -0.0700
  463MOL0     H62492   8.628   5.789   0.588 -1.1808 -0.7509 -2.9010
  463MOL0     H62493   9.020   5.571   0.437 -1.1385  2.8178  1.6395
  463MOL0     H62494   9.240   5.474   0.472  0.3326  1.3972  0.7900
  463MOL0     H62495   9.391   5.274   0.483  3.5962 -1.9370 -0.6903
  463MOL0     H62496   9.442   5.418   0.571 -0.0020  1.0314  2.1064
  463MOL0     H62497   9.499   5.128   0.670  2.4070 -0.6447 -0.3131
  463MOL0     H62498   9.548   5.277   0.752  0.8163  0.8501 -0.8165
  463MOL0     H62499   9.659   5.317   0.497  0.7079  0.3008  0.2023
  463MOL0     H62500   9.603   5.154   0.484  0.4500 -0.5601 -0.2528
  463MOL0     H62501   9.833   5.173   0.537 -2.2539 -3.2890 -1.3356
  463MOL0     H62502   9.764   5.100   0.677  1.0152 -0.3812 -0.1593
  463MOL0     H62503   9.860   5.488   0.827  1.9389 -0.1240 -0.4085
  463MOL0     H62504   9.121   5.326   0.850  0.2000  2.9331  2.0490
  463MOL0     H62505   8.890   5.402   0.814 -0.1535  0.1598 -0.9739
  464MOL0     O62506   0.122   3.966   2.355  0.2727  0.0953 -0.3336
  464MOL0     C62507   0.230   4.024   2.374 -0.7253 -0.4921 -0.1497
  464MOL0     O62508   0.248   4.157   2.398  0.6442  0.1475 -0.4188
  464MOL0     C62509   0.137   4.223   2.452  0.3757 -0.0614 -0.1522
  464MOL0     C62510   0.154   4.266   2.580  0.8234 -0.0313 -0.3181
  464MOL0     C62511   0.052   4.344   2.636  0.2087 -0.1193 -1.7591
  464MOL0     C62512  -0.061   4.380   2.570  0.1206 -0.4324 -0.1787
  464MOL0     O62513  -0.157   4.456   2.626 -0.0157  0.1908 -0.0440
  464MOL0     C62514  -0.123   4.560   2.720  0.5628  1.0633 -0.1936
  464MOL0     C62515  -0.201   4.686   2.691  0.0555  0.1073 -0.2552
  464MOL0     C62516  -0.352   4.670   2.725 -0.3085  0.4981 -0.0242
  464MOL0     C62517  -0.411   4.782   2.802 -0.6672  0.9627  0.4068
  464MOL0     C62518  -0.571   4.784   2.805  0.0524 -0.6658 -0.3287
  464MOL0     C62519  -0.617   4.915   2.864  0.4713  0.1168 -0.5512
  464MOL0     C62520  -0.773   4.919   2.855 -0.3374  0.3000  0.5402
  464MOL0     C62521  -0.832   5.043   2.933  0.0660  0.3900  0.2942
  464MOL0     N62522  -0.968   5.053   2.888  0.0445 -0.0678  0.6613
  464MOL0     C62523  -1.073   4.990   2.939 -0.1341  0.1453  0.1701
  464MOL0     C62524  -1.183   5.035   2.869 -0.5581  0.2658 -0.1637
  464MOL0     C62525  -1.320   4.991   2.885  0.4413 -0.3106  1.0856
  464MOL0     C62526  -1.354   4.864   2.817 -0.5319  0.9981 -0.1904
  464MOL0     C62527  -1.333   4.865   2.670 -0.2958 -0.6345  0.1271
  464MOL0     C62528  -1.432   4.968   2.600 -0.5966  0.0348  0.4694
  464MOL0     O62529  -1.567   4.947   2.644 -0.0707 -0.3993 -0.4527
  464MOL0     C62530  -1.664   5.042   2.623 -0.1079 -0.0936  0.1902
  464MOL0     C62531  -1.646   5.154   2.535 -0.3267 -0.1077  0.2854
  464MOL0     C62532  -1.740   5.261   2.527  0.2567  0.0511 -0.1835
  464MOL0     C62533  -1.705   5.384   2.439 -0.2312 -0.3074 -0.5159
  464MOL0     C62534  -1.861   5.244   2.595  0.1889 -0.6701 -0.6279
  464MOL0     C62535  -1.976   5.344   2.581  0.2822  0.1089 -0.1611
  464MOL0     O62536  -2.090   5.302   2.634  0.0845  0.2718  0.4689
  464MOL0     C62537  -2.212   5.366   2.630  0.0368  0.0584  0.2333
  464MOL0     C62538  -2.309   5.287   2.684 -0.5352 -0.5001 -0.2429
  464MOL0     C62539  -2.439   5.339   2.691  1.0598  0.1653  0.1768
  464MOL0     C62540  -2.467   5.476   2.657  0.1572 -0.0093  0.0626
  464MOL0     O62541  -2.598   5.526   2.656  0.8983  0.4465  0.2413
  464MOL0     C62542  -2.673   5.466   2.547  0.1707  0.2963 -0.2227
  464MOL0     C62543  -2.784   5.568   2.506 -0.2465  0.1354 -0.4756
  464MOL0     C62544  -2.860   5.625   2.635  0.5724  0.4850  0.1489
  464MOL0     C62545  -2.928   5.507   2.707 -0.4559  0.2108  0.3601
  464MOL0     C62546  -3.021   5.546   2.820 -0.5201 -0.2789  0.8752
  464MOL0     C62547  -3.163   5.579   2.758 -0.0967 -0.5984  0.1378
  464MOL0     C62548  -3.274   5.582   2.866  0.5100 -0.1139 -0.2443
  464MOL0     C62549  -3.404   5.613   2.794 -0.5662 -0.1645  0.3191
  464MOL0    Cl62550  -3.519   5.610   2.919 -0.3073  0.0352 -0.2402
  464MOL0     C62551  -2.361   5.555   2.619  0.2495  0.2242  0.7083
  464MOL0     C62552  -2.232   5.502   2.601  1.3240 -0.3082 -0.9197
  464MOL0     O62553  -1.958   5.447   2.525  0.3756 -0.1175  0.1678
  464MOL0     C62554  -1.887   5.130   2.678 -1.3035  0.2377  0.3610
  464MOL0     C62555  -1.791   5.024   2.684 -0.0100  0.9947  0.4958
  464MOL0     N62556  -1.132   5.130   2.770  0.1754 -0.6127 -0.3898
  464MOL0     N62557  -1.008   5.131   2.783  0.2987  0.6092  0.0216
  464MOL0     C62558  -0.080   4.345   2.435 -0.2232 -0.4597 -1.5053
  464MOL0     C62559   0.021   4.262   2.381  0.3131 -0.0408 -0.6016
  464MOL0     C62560   0.342   3.928   2.376 -0.0845 -0.6828 -0.1495
  464MOL0     C62561   0.335   3.791   2.340 -0.3360  0.3101  0.3465
  464MOL0     C62562   0.450   3.707   2.334 -0.3929 -0.0041  0.2143
  464MOL0     C62563   0.580   3.765   2.359 -0.2640  0.4535 -0.1178
  464MOL0     O62564   0.684   3.681   2.345 -0.4240 -0.5281 -0.1253
  464MOL0     C62565   0.817   3.726   2.338 -0.4416  0.2668 -0.3238
  464MOL0     C62566   0.880   3.728   2.477 -0.5013 -0.7353 -0.3852
  464MOL0     C62567   1.028   3.771   2.463 -0.3605  0.8154  0.4589
  464MOL0     C62568   1.109   3.752   2.590  0.0720 -0.2891  0.5438
  464MOL0     C62569   1.246   3.812   2.578  0.1714 -0.0081 -0.1804
  464MOL0     C62570   1.362   3.853   2.574 -0.1099  0.0040  0.3030
  464MOL0     C62571   0.584   3.892   2.389 -0.1030 -0.4058 -0.4944
  464MOL0     C62572   0.476   3.973   2.402  0.8899 -0.4923 -0.4316
  464MOL0     H62573   0.240   4.249   2.644 -0.0398 -1.8691  0.4443
  464MOL0     H62574   0.057   4.366   2.742 -3.0554 -1.0933 -1.2922
  464MOL0     H62575  -0.150   4.524   2.820 -0.0096  0.6253 -0.5044
  464MOL0     H62576  -0.016   4.587   2.720  0.9788 -0.4970 -1.0302
  464MOL0     H62577  -0.174   4.755   2.772 -2.4525  0.8951 -0.0258
  464MOL0     H62578  -0.173   4.732   2.595 -0.5877  0.0083 -0.4935
  464MOL0     H62579  -0.408   4.671   2.631 -1.1563 -2.2122  0.3466
  464MOL0     H62580  -0.368   4.573   2.774  0.2427  1.1010  1.3831
  464MOL0     H62581  -0.380   4.769   2.906 -1.7602 -3.9211  0.3961
  464MOL0     H62582  -0.361   4.870   2.760  3.0090 -0.1483  2.1051
  464MOL0     H62583  -0.606   4.784   2.702  1.9201  0.2221 -1.0094
  464MOL0     H62584  -0.625   4.701   2.852  0.0347 -2.2863 -2.9945
  464MOL0     H62585  -0.586   4.908   2.969 -0.7374 -2.7764 -0.2906
  464MOL0     H62586  -0.590   5.009   2.815 -2.2362 -0.4749 -3.4602
  464MOL0     H62587  -0.802   4.929   2.750 -0.4923 -1.2138  0.4195
  464MOL0     H62588  -0.813   4.824   2.891  0.1775 -1.3719 -2.8191
  464MOL0     H62589  -0.788   5.141   2.914 -0.6330  1.0430  1.8784
  464MOL0     H62590  -0.817   5.033   3.041 -1.9033 -0.9260  0.5087
  464MOL0     H62591  -1.072   4.918   3.020 -0.4188  2.6032  2.4911
  464MOL0     H62592  -1.341   4.999   2.993  0.2269 -1.3786  1.1322
  464MOL0     H62593  -1.382   5.068   2.838 -2.1499 -2.1189  1.3272
  464MOL0     H62594  -1.459   4.837   2.830 -0.4692  1.5527  1.6494
  464MOL0     H62595  -1.308   4.778   2.866 -2.0920  0.4991  0.4713
  464MOL0     H62596  -1.362   4.765   2.638  0.7737 -0.8852 -0.0977
  464MOL0     H62597  -1.228   4.876   2.644 -1.1608 -0.0825 -3.5999
  464MOL0     H62598  -1.414   4.947   2.494  1.0424 -1.5582  0.9921
  464MOL0     H62599  -1.388   5.066   2.623  4.7696 -0.4470 -5.2208
  464MOL0     H62600  -1.558   5.160   2.471  0.0400 -0.9881  0.6909
  464MOL0     H62601  -1.600   5.379   2.408  0.4206  1.0067  1.2739
  464MOL0     H62602  -1.765   5.394   2.348 -2.6151  3.8156  1.2332
  464MOL0     H62603  -1.714   5.469   2.508  0.6124 -0.2606 -0.4566
  464MOL0     H62604  -2.286   5.190   2.727 -0.0120  0.0086  0.6413
  464MOL0     H62605  -2.513   5.270   2.732  1.0967 -0.8477 -1.3709
  464MOL0     H62606  -2.604   5.451   2.463  1.3813  0.4066  0.7261
  464MOL0     H62607  -2.710   5.370   2.584  0.1383  0.9632  1.5337
  464MOL0     H62608  -2.737   5.645   2.444  1.8663 -1.1500 -0.5567
  464MOL0     H62609  -2.857   5.528   2.435  0.3594 -1.8489 -0.0215
  464MOL0     H62610  -2.924   5.702   2.591  1.4152 -0.5639 -3.1860
  464MOL0     H62611  -2.789   5.682   2.696  2.9785 -0.7914 -1.3182
  464MOL0     H62612  -2.976   5.434   2.641  2.2804 -0.3895 -1.1316
  464MOL0     H62613  -2.847   5.455   2.759  1.7011  2.0198 -1.0416
  464MOL0     H62614  -2.990   5.635   2.876 -1.5135 -0.6805  2.1087
  464MOL0     H62615  -3.023   5.457   2.882  1.8433 -0.1739  1.1989
  464MOL0     H62616  -3.157   5.677   2.711 -0.7384 -0.6024  0.0349
  464MOL0     H62617  -3.187   5.500   2.686  0.3360 -1.6361  1.0825
  464MOL0     H62618  -3.265   5.662   2.940  0.2677 -1.5411  1.4126
  464MOL0     H62619  -3.274   5.490   2.926 -3.6174 -0.8268 -1.0208
  464MOL0     H62620  -3.431   5.532   2.726 -1.3802  0.4643 -0.1408
  464MOL0     H62621  -3.393   5.703   2.733  2.5303 -0.0904  0.8439
  464MOL0     H62622  -2.378   5.657   2.588 -1.2584 -0.0601  0.5270
  464MOL0     H62623  -2.148   5.562   2.568  1.3333  0.4084  0.3088
  464MOL0     H62624  -1.981   5.130   2.732 -1.1240  1.4103  0.7061
  464MOL0     H62625  -1.819   4.933   2.736 -2.7662  0.8269 -1.0909
  464MOL0     H62626  -0.177   4.368   2.392 -0.8626  0.3181  0.2352
  464MOL0     H62627   0.005   4.228   2.279  4.1480  2.1535 -2.1698
  464MOL0     H62628   0.240   3.752   2.304 -2.1381  2.8134  2.0482
  464MOL0     H62629   0.455   3.602   2.306  1.2352  0.0883  0.0587
  464MOL0     H62630   0.880   3.653   2.286 -1.7510  0.5317 -2.3987
  464MOL0     H62631   0.820   3.821   2.285 -0.5242 -0.0155 -0.8369
  464MOL0     H62632   0.870   3.626   2.514 -0.0199 -0.7524 -0.2901
  464MOL0     H62633   0.827   3.795   2.546  0.7498  1.7010 -1.6353
  464MOL0     H62634   1.035   3.880   2.455  4.0060  0.7414  0.5217
  464MOL0     H62635   1.069   3.725   2.373 -0.6157 -1.2020  1.3263
  464MOL0     H62636   1.114   3.645   2.613 -1.4338 -0.6858 -0.8621
  464MOL0     H62637   1.053   3.789   2.676  0.1865 -1.1513  1.0018
  464MOL0     H62638   1.452   3.910   2.578 -0.3010  0.5143 -1.6913
  464MOL0     H62639   0.680   3.933   2.418  0.4015 -1.2659 -0.9147
  464MOL0     H62640   0.494   4.080   2.413  0.0623 -0.4138  0.2750
  465MOL0     O62641   1.097  11.228   7.879  0.1658 -0.2033 -0.2050
  465MOL0     C62642   1.133  11.209   7.996 -0.4237  0.1601  0.1553
  465MOL0     O62643   1.066  11.141   8.097  0.9772 -0.5091 -0.5122
  465MOL0     C62644   0.935  11.091   8.071 -0.3467  1.1745  0.3387
  465MOL0     C62645   0.840  11.142   7.981 -0.1693  0.1445  0.3970
  465MOL0     C62646   0.703  11.095   7.973 -0.2162 -0.1347  0.8072
  465MOL0     C62647   0.659  10.995   8.069 -0.1409  0.5529  1.1325
  465MOL0     O62648   0.527  10.976   8.081  0.2606 -0.4239  0.1063
  465MOL0     C62649   0.495  10.838   8.062 -0.5038  0.2088 -0.9277
  465MOL0     C62650   0.348  10.818   8.095  0.0063 -0.2439  0.8582
  465MOL0     C62651   0.300  10.876   8.237 -0.1965 -0.3790  1.1042
  465MOL0     C62652   0.153  10.827   8.252  0.6802 -0.5586  0.1265
  465MOL0     C62653   0.081  10.864   8.380 -0.1918  1.3558  0.0382
  465MOL0     C62654   0.087  11.012   8.415  0.4199 -0.8585  0.5339
  465MOL0     C62655   0.042  11.045   8.558  0.1432 -0.3154 -0.0723
  465MOL0     C62656   0.036  11.196   8.584 -0.1925  0.2615 -0.5074
  465MOL0     N62657   0.073  11.228   8.721 -0.3280 -0.6943 -0.5526
  465MOL0     C62658   0.189  11.284   8.780 -0.0998  0.0879 -0.1717
  465MOL0     C62659   0.144  11.321   8.903  0.5126  0.7659  0.2014
  465MOL0     C62660   0.207  11.378   9.024  0.5133 -0.0509  0.5620
  465MOL0     C62661   0.163  11.519   9.036 -0.5280  0.3207  0.1782
  465MOL0     C62662   0.212  11.606   8.923  0.6418  0.2715 -0.5904
  465MOL0     C62663   0.361  11.592   8.892 -0.1267  0.0886  0.5479
  465MOL0     O62664   0.441  11.634   9.002  0.2478 -0.7765 -0.6439
  465MOL0     C62665   0.579  11.604   9.006 -0.2482 -0.5744 -0.0748
  465MOL0     C62666   0.650  11.654   9.118 -0.4119  0.1158 -0.2064
  465MOL0     C62667   0.785  11.637   9.138  0.4134 -0.1536 -0.5088
  465MOL0     C62668   0.849  11.707   9.258 -0.6524  0.6602  0.1553
  465MOL0     C62669   0.857  11.559   9.041 -0.0769 -1.1457 -0.0878
  465MOL0     C62670   1.005  11.540   9.040 -0.2091  0.0070 -0.7485
  465MOL0     O62671   1.054  11.502   8.919 -0.7880 -0.0629  0.7278
  465MOL0     C62672   1.185  11.523   8.885 -0.8890  0.3257  0.1457
  465MOL0     C62673   1.233  11.448   8.776 -0.7133 -0.0918  0.4368
  465MOL0     C62674   1.362  11.473   8.717  1.2532  0.4106  0.5182
  465MOL0     C62675   1.450  11.573   8.766 -0.9569 -0.3709 -1.0576
  465MOL0     O62676   1.570  11.598   8.697  0.7042  0.4655 -0.0914
  465MOL0     C62677   1.675  11.683   8.736 -0.2930 -0.7691 -0.0411
  465MOL0     C62678   1.772  11.688   8.604 -0.7498  0.6156  0.0918
  465MOL0     C62679   1.899  11.749   8.646  0.5554  0.4924 -0.6053
  465MOL0     C62680   1.981  11.812   8.539 -0.4922 -0.3198  0.8163
  465MOL0     C62681   2.133  11.834   8.585  0.5021  0.1067 -0.4694
  465MOL0     C62682   2.208  11.699   8.623  0.6736 -0.8513  0.0572
  465MOL0     C62683   2.355  11.729   8.627 -0.5693 -1.3094  0.5240
  465MOL0     C62684   2.409  11.821   8.740 -0.2970 -0.5442  0.0920
  465MOL0    Cl62685   2.587  11.832   8.718 -0.7795 -0.3988  0.1367
  465MOL0     C62686   1.404  11.640   8.881  0.6281  0.4433 -0.7490
  465MOL0     C62687   1.276  11.626   8.940  0.0567 -0.1504  0.5152
  465MOL0     O62688   1.067  11.553   9.148  0.4793 -0.3137 -0.0097
  465MOL0     C62689   0.787  11.524   8.923 -0.0034 -0.0766 -0.0151
  465MOL0     C62690   0.653  11.545   8.903  1.2007  0.5945 -0.7685
  465MOL0     N62691   0.007  11.299   8.913  0.2441 -0.9730 -0.3255
  465MOL0     N62692  -0.028  11.245   8.803 -0.0034  0.7609 -0.2083
  465MOL0     C62693   0.760  10.934   8.143 -0.0468  0.1900 -0.6251
  465MOL0     C62694   0.896  10.982   8.148  0.1563 -1.5052 -0.2457
  465MOL0     C62695   1.241  11.293   8.042 -0.0656  0.8517 -0.5731
  465MOL0     C62696   1.284  11.281   8.175  0.0585  0.1541  0.4099
  465MOL0     C62697   1.379  11.360   8.230 -0.2950  0.7066 -0.9838
  465MOL0     C62698   1.439  11.466   8.160  0.1852 -0.6402  0.0722
  465MOL0     O62699   1.526  11.558   8.219  1.0503 -0.0126  0.0955
  465MOL0     C62700   1.492  11.701   8.220  0.3573 -0.3699 -0.0425
  465MOL0     C62701   1.621  11.771   8.260  1.0560  0.5955 -0.3159
  465MOL0     C62702   1.681  11.869   8.161 -0.5157  0.4171 -0.0462
  465MOL0     C62703   1.823  11.911   8.207  0.3123 -1.0117  0.2669
  465MOL0     C62704   1.889  11.993   8.100 -0.1437  0.6632  0.2418
  465MOL0     C62705   1.958  12.060   8.021  0.2118 -0.9533 -0.0945
  465MOL0     C62706   1.402  11.482   8.025 -0.2707 -0.6121 -0.8091
  465MOL0     C62707   1.307  11.394   7.970  0.2966 -0.5626 -0.5767
  465MOL0     H62708   0.863  11.214   7.903 -1.5857 -0.5692 -0.7325
  465MOL0     H62709   0.632  11.148   7.909  0.3384  0.1712  0.4333
  465MOL0     H62710   0.527  10.802   7.964 -2.5308 -0.0066 -1.5593
  465MOL0     H62711   0.552  10.786   8.140 -1.6685  1.5142  0.8855
  465MOL0     H62712   0.295  10.871   8.016  1.2369  1.0540  0.8814
  465MOL0     H62713   0.319  10.715   8.072  0.6990 -0.0635 -0.9262
  465MOL0     H62714   0.371  10.844   8.314  0.0669  2.7529  2.3232
  465MOL0     H62715   0.305  10.986   8.235  0.0958 -0.4063  0.1827
  465MOL0     H62716   0.092  10.858   8.168 -2.3341 -1.5487  1.7990
  465MOL0     H62717   0.153  10.718   8.241  1.2997 -0.6636  1.0271
  465MOL0     H62718  -0.023  10.829   8.381  0.2841 -0.0910  1.2055
  465MOL0     H62719   0.139  10.808   8.454 -1.5947 -2.3843 -1.4224
  465MOL0     H62720   0.189  11.048   8.401  0.5716 -1.2004  0.7619
  465MOL0     H62721   0.027  11.070   8.344 -0.6477  0.0206  2.0767
  465MOL0     H62722  -0.046  10.984   8.584 -0.3278  0.6411  0.6295
  465MOL0     H62723   0.117  11.001   8.625  0.3936 -2.9171 -1.8939
  465MOL0     H62724  -0.066  11.231   8.563  0.2848  0.4317 -2.7684
  465MOL0     H62725   0.104  11.241   8.511  1.1654 -2.6299 -1.1591
  465MOL0     H62726   0.290  11.300   8.744 -1.1832  2.8144 -2.4248
  465MOL0     H62727   0.168  11.325   9.111 -3.1303 -1.6429 -1.7580
  465MOL0     H62728   0.315  11.367   9.017  0.2068 -2.8323 -1.3227
  465MOL0     H62729   0.197  11.558   9.132  0.2386  1.3771 -0.5000
  465MOL0     H62730   0.054  11.526   9.041 -1.0995  0.1407 -5.5851
  465MOL0     H62731   0.189  11.710   8.946 -3.1923 -1.0715  3.0333
  465MOL0     H62732   0.152  11.585   8.835  0.3048 -2.2479  0.1562
  465MOL0     H62733   0.388  11.653   8.805 -0.3884  0.3043  0.6173
  465MOL0     H62734   0.385  11.490   8.861  0.3941 -0.4954  2.6607
  465MOL0     H62735   0.583  11.701   9.189 -4.9731 -0.8767 -3.3527
  465MOL0     H62736   0.772  11.759   9.316 -3.1750 -0.9531 -1.5543
  465MOL0     H62737   0.891  11.632   9.326  0.0590 -0.5474 -1.5499
  465MOL0     H62738   0.924  11.775   9.217 -0.8779  1.4649  1.0355
  465MOL0     H62739   1.176  11.370   8.727  0.8071 -2.2806  1.9529
  465MOL0     H62740   1.396  11.427   8.625  2.2393  5.1212 -1.8314
  465MOL0     H62741   1.646  11.785   8.763  0.6567 -0.3654 -0.4849
  465MOL0     H62742   1.714  11.630   8.823 -3.4515 -1.5412  1.0377
  465MOL0     H62743   1.789  11.590   8.559  1.8195  1.2144 -0.3933
  465MOL0     H62744   1.727  11.747   8.524  0.3594  0.3296 -0.7531
  465MOL0     H62745   1.957  11.676   8.703  0.5837 -0.0151 -1.2776
  465MOL0     H62746   1.858  11.829   8.708 -1.4565  0.3721 -1.6967
  465MOL0     H62747   1.979  11.742   8.454  0.0192  0.3567  0.2360
  465MOL0     H62748   1.926  11.904   8.519 -1.0328 -0.4506  1.6467
  465MOL0     H62749   2.130  11.903   8.669 -2.1840  1.5381 -1.6238
  465MOL0     H62750   2.187  11.882   8.503  1.8744  1.3350  1.0804
  465MOL0     H62751   2.168  11.675   8.722 -2.9623  3.9151  0.0978
  465MOL0     H62752   2.183  11.622   8.549 -1.6223 -0.3455  0.2209
  465MOL0     H62753   2.383  11.779   8.534 -1.1916 -2.1683 -0.1404
  465MOL0     H62754   2.410  11.634   8.629  0.8026 -0.5307  1.2045
  465MOL0     H62755   2.375  11.789   8.839 -2.1885  1.3131  0.1087
  465MOL0     H62756   2.366  11.921   8.733  2.7821  1.0249  1.6673
  465MOL0     H62757   1.468  11.718   8.922  1.3708 -0.9714  0.9296
  465MOL0     H62758   1.242  11.686   9.024  1.2003  2.3160 -0.6723
  465MOL0     H62759   0.840  11.482   8.838  1.2325 -0.9314  1.1328
  465MOL0     H62760   0.603  11.505   8.815 -0.2520 -1.0388  0.7109
  465MOL0     H62761   0.739  10.861   8.221  1.8609  2.0014  1.7565
  465MOL0     H62762   0.962  10.949   8.227  0.8072 -1.2683 -0.6870
  465MOL0     H62763   1.249  11.203   8.242 -0.8348 -0.2396 -0.4846
  465MOL0     H62764   1.407  11.329   8.330 -1.8388 -1.4274 -1.1457
  465MOL0     H62765   1.452  11.733   8.123 -1.5627  0.6400  1.0260
  465MOL0     H62766   1.420  11.728   8.298  1.0303  3.1326 -0.4724
  465MOL0     H62767   1.696  11.692   8.269 -1.3092 -1.8704 -0.9765
  465MOL0     H62768   1.606  11.820   8.357 -0.0394  0.5934 -0.4788
  465MOL0     H62769   1.632  11.965   8.145  0.3712  0.6060 -1.9064
  465MOL0     H62770   1.689  11.816   8.065  0.6110 -0.4655  0.5120
  465MOL0     H62771   1.884  11.823   8.228  1.0594 -0.0616  2.2882
  465MOL0     H62772   1.817  11.981   8.290 -2.1809  0.2008 -0.8391
  465MOL0     H62773   1.999  12.125   7.946 -1.4409  0.4109  0.1256
  465MOL0     H62774   1.436  11.564   7.963 -0.0950  1.2833  1.6421
  465MOL0     H62775   1.275  11.410   7.867  0.0827  3.3463 -0.0615
  466MOL0     O62776   4.330   1.729   8.035  0.1832 -0.0512 -0.1429
  466MOL0     C62777   4.352   1.821   7.964  0.1322 -0.5100 -0.2142
  466MOL0     O62778   4.278   1.943   7.969  0.2671  0.4300 -0.5607
  466MOL0     C62779   4.159   1.936   8.040 -0.1101 -0.1794 -1.5792
  466MOL0     C62780   4.156   1.913   8.176  0.6683  0.4602 -0.7804
  466MOL0     C62781   4.031   1.948   8.243  0.0777  0.0647 -0.4312
  466MOL0     C62782   3.911   1.980   8.177 -0.6056 -0.5937  0.2622
  466MOL0     O62783   3.793   1.990   8.244  0.5146  0.3555  0.0471
  466MOL0     C62784   3.778   2.115   8.317 -0.0000  0.2914 -0.0179
  466MOL0     C62785   3.634   2.165   8.328 -0.0989 -0.1203 -0.0590
  466MOL0     C62786   3.581   2.216   8.192 -0.4065  0.1997 -0.3427
  466MOL0     C62787   3.440   2.262   8.209 -0.3409 -0.1430 -0.9755
  466MOL0     C62788   3.383   2.302   8.071  0.5140  0.5023 -0.3494
  466MOL0     C62789   3.259   2.393   8.098 -0.3786 -0.4523  0.0571
  466MOL0     C62790   3.190   2.427   7.964  0.7477  0.4311  0.2702
  466MOL0     C62791   3.069   2.520   7.978  0.2401  0.9305  1.0750
  466MOL0     N62792   2.984   2.540   7.854 -0.2920 -0.1165 -0.8244
  466MOL0     C62793   2.967   2.663   7.798 -0.4007 -0.1908  0.1950
  466MOL0     C62794   2.862   2.642   7.712  0.1377  0.2594 -0.9577
  466MOL0     C62795   2.789   2.751   7.626 -0.0085 -0.6695 -0.1521
  466MOL0     C62796   2.632   2.751   7.642  0.0845  0.3348 -0.0354
  466MOL0     C62797   2.557   2.832   7.537 -0.0978 -0.4326 -0.1906
  466MOL0     C62798   2.406   2.806   7.536 -0.1240 -0.7732  0.2882
  466MOL0     O62799   2.339   2.908   7.457  0.0729  0.0624 -0.9267
  466MOL0     C62800   2.207   2.900   7.445  0.4213  1.1061  0.4062
  466MOL0     C62801   2.145   3.013   7.404  1.0196 -0.4269 -0.1651
  466MOL0     C62802   2.004   3.021   7.400  0.0808  0.2395  0.0489
  466MOL0     C62803   1.941   3.156   7.373  0.2433 -0.0001 -0.0653
  466MOL0     C62804   1.927   2.906   7.415  0.2903  0.3115  0.2454
  466MOL0     C62805   1.777   2.901   7.412 -0.3998  0.0043  1.4094
  466MOL0     O62806   1.732   2.798   7.333 -0.1008 -0.3824  0.0056
  466MOL0     C62807   1.594   2.782   7.326  0.4928 -0.2572  0.2774
  466MOL0     C62808   1.507   2.872   7.276  0.8981  0.8250  0.4312
  466MOL0     C62809   1.374   2.838   7.273 -0.1792 -0.7538  0.2579
  466MOL0     C62810   1.323   2.711   7.307 -0.2001  0.1459  0.2847
  466MOL0     O62811   1.191   2.686   7.297  0.0025 -0.6117 -0.3466
  466MOL0     C62812   1.159   2.551   7.265  0.2402 -0.2080 -0.6703
  466MOL0     C62813   1.010   2.519   7.250 -0.6120 -0.0454 -0.5819
  466MOL0     C62814   0.928   2.593   7.144  0.6066 -0.1463  1.2641
  466MOL0     C62815   0.772   2.576   7.175 -0.9549  0.6234  0.4179
  466MOL0     C62816   0.693   2.625   7.055  0.5932 -0.6365 -0.5434
  466MOL0     C62817   0.539   2.625   7.084  0.5378  0.0392 -0.0439
  466MOL0     C62818   0.489   2.481   7.086 -0.2136  0.0925  0.4401
  466MOL0     C62819   0.341   2.478   7.124 -0.7626  0.3604  0.6371
  466MOL0    Cl62820   0.330   2.502   7.294  0.3411 -0.1012 -0.0894
  466MOL0     C62821   1.414   2.619   7.362 -0.0673 -0.2662 -0.2079
  466MOL0     C62822   1.549   2.655   7.383  0.8215 -0.2271 -0.0303
  466MOL0     O62823   1.709   2.984   7.478 -0.1121 -0.2434 -0.0316
  466MOL0     C62824   1.993   2.783   7.451  0.2564 -0.0451  0.0169
  466MOL0     C62825   2.126   2.782   7.464 -1.2138  0.6213  0.1732
  466MOL0     N62826   2.815   2.515   7.722  0.2924 -0.0408  0.1631
  466MOL0     N62827   2.888   2.455   7.808 -0.6598  1.5863  0.1455
  466MOL0     C62828   3.928   1.995   8.037 -0.1893 -0.4156 -0.3736
  466MOL0     C62829   4.048   1.985   7.970 -0.1752 -0.3404 -0.0357
  466MOL0     C62830   4.466   1.812   7.869  0.2192  0.1326  0.3639
  466MOL0     C62831   4.566   1.709   7.873 -0.0330  0.0830 -0.3861
  466MOL0     C62832   4.675   1.702   7.791 -0.1887 -0.0486  0.2545
  466MOL0     C62833   4.686   1.798   7.688  0.4632 -0.6796  0.9102
  466MOL0     O62834   4.791   1.796   7.602  0.3697 -0.0389 -0.0089
  466MOL0     C62835   4.787   1.687   7.511  0.5885 -0.3488  0.4459
  466MOL0     C62836   4.891   1.578   7.546 -0.3680  1.1332 -0.1101
  466MOL0     C62837   4.832   1.437   7.511  0.1730 -0.2334 -0.5380
  466MOL0     C62838   4.934   1.322   7.513 -0.1702 -0.5462 -0.0091
  466MOL0     C62839   5.028   1.351   7.394 -0.2571  0.0055  0.7703
  466MOL0     C62840   5.114   1.352   7.307 -0.0238 -0.0284 -0.5446
  466MOL0     C62841   4.588   1.893   7.667  0.2293 -0.1839  0.6364
  466MOL0     C62842   4.480   1.903   7.757  0.0058 -0.5816  0.7424
  466MOL0     H62843   4.239   1.875   8.235  1.4631  1.0592 -1.4945
  466MOL0     H62844   4.021   1.934   8.350  0.8652  3.4459  0.1774
  466MOL0     H62845   3.805   2.088   8.420 -1.3664 -2.6627 -0.3447
  466MOL0     H62846   3.846   2.191   8.277  0.5444 -0.6471 -0.9197
  466MOL0     H62847   3.562   2.091   8.365 -0.1506  0.1879  0.4592
  466MOL0     H62848   3.634   2.246   8.401  0.1045  0.0103 -0.2025
  466MOL0     H62849   3.651   2.281   8.139  2.5333 -1.9292  0.6517
  466MOL0     H62850   3.575   2.129   8.127 -4.3125 -0.5402  0.7352
  466MOL0     H62851   3.376   2.184   8.252 -0.4056 -1.2064 -2.8627
  466MOL0     H62852   3.437   2.341   8.284  1.3075 -2.0000  1.1822
  466MOL0     H62853   3.461   2.350   8.010  1.7243  1.3855  1.7735
  466MOL0     H62854   3.353   2.213   8.016  0.0764  1.1182 -1.1408
  466MOL0     H62855   3.200   2.325   8.161  0.1707 -0.1183  0.9503
  466MOL0     H62856   3.288   2.485   8.150  0.1423  1.5874 -3.4826
  466MOL0     H62857   3.257   2.468   7.889 -0.9367 -1.4158 -2.4628
  466MOL0     H62858   3.149   2.330   7.933 -0.2227 -0.0251  2.7232
  466MOL0     H62859   3.099   2.614   8.026 -1.0517  0.2652  3.3133
  466MOL0     H62860   3.008   2.474   8.056 -0.0980 -0.2458  0.1393
  466MOL0     H62861   3.018   2.757   7.816 -0.7931  0.1292 -0.3192
  466MOL0     H62862   2.816   2.855   7.642 -0.1242 -0.6978  0.2370
  466MOL0     H62863   2.801   2.728   7.520 -0.4829 -0.6215 -0.2186
  466MOL0     H62864   2.615   2.781   7.746 -0.5557 -0.7914  0.1961
  466MOL0     H62865   2.597   2.648   7.630 -1.3484  0.9619 -1.6279
  466MOL0     H62866   2.598   2.805   7.439  0.2728  0.7211 -0.3711
  466MOL0     H62867   2.570   2.938   7.561 -4.2596 -0.0690  1.4519
  466MOL0     H62868   2.371   2.804   7.639 -0.7328 -0.7386  0.0899
  466MOL0     H62869   2.381   2.707   7.497 -1.2607 -1.0590  1.6797
  466MOL0     H62870   2.194   3.106   7.378 -2.2556  1.9853  1.5279
  466MOL0     H62871   1.908   3.194   7.470 -0.9704  0.9745 -0.8292
  466MOL0     H62872   2.012   3.218   7.317  0.1223 -0.7765 -1.1151
  466MOL0     H62873   1.850   3.143   7.314 -0.3299 -0.9631  0.9893
  466MOL0     H62874   1.538   2.972   7.248  0.2187  1.0902  0.5953
  466MOL0     H62875   1.307   2.913   7.232  0.9774  0.6778  0.8746
  466MOL0     H62876   1.210   2.529   7.170 -0.8151  2.0141 -1.8304
  466MOL0     H62877   1.203   2.485   7.340  1.1151  1.5461  0.4164
  466MOL0     H62878   1.014   2.410   7.242  1.4849  0.0914 -2.3462
  466MOL0     H62879   0.966   2.547   7.346  2.8777  1.3290  0.7923
  466MOL0     H62880   0.950   2.558   7.043  0.0962  1.5609  0.5170
  466MOL0     H62881   0.943   2.702   7.141 -2.7978  0.4325  0.8327
  466MOL0     H62882   0.773   2.468   7.191 -0.7292  0.9217  2.7945
  466MOL0     H62883   0.741   2.630   7.265  1.0439 -0.0187  1.5764
  466MOL0     H62884   0.720   2.572   6.964  1.2851 -0.8875 -0.2058
  466MOL0     H62885   0.733   2.725   7.033 -2.1967  0.7901  0.3982
  466MOL0     H62886   0.503   2.681   7.170 -1.5002 -0.8701 -0.2485
  466MOL0     H62887   0.490   2.672   6.998 -0.8509  0.8305  1.1525
  466MOL0     H62888   0.546   2.414   7.151 -0.3995  0.3054  0.8253
  466MOL0     H62889   0.507   2.437   6.988  0.3253  1.1040  0.0666
  466MOL0     H62890   0.305   2.374   7.114  0.7592 -0.3796  2.3314
  466MOL0     H62891   0.280   2.541   7.058 -3.4542 -4.0435 -1.6002
  466MOL0     H62892   1.384   2.526   7.409 -0.5990  0.9996  2.1004
  466MOL0     H62893   1.618   2.585   7.428  1.9798  1.3224  0.7190
  466MOL0     H62894   1.940   2.689   7.466 -1.2362  0.5423 -1.3426
  466MOL0     H62895   2.181   2.690   7.481 -2.1348 -0.3056 -1.5816
  466MOL0     H62896   3.842   2.022   7.978 -0.9980 -1.5481  0.2534
  466MOL0     H62897   4.055   1.996   7.863  1.5523  0.5043  0.1396
  466MOL0     H62898   4.560   1.647   7.961  0.6961  1.1501  0.4411
  466MOL0     H62899   4.751   1.628   7.812 -0.4427  0.0792  1.7234
  466MOL0     H62900   4.689   1.641   7.497  0.9380 -0.7652 -0.7821
  466MOL0     H62901   4.820   1.729   7.415 -0.7073 -0.9591 -0.2918
  466MOL0     H62902   4.903   1.583   7.655 -1.9280  0.1396  0.1481
  466MOL0     H62903   4.986   1.600   7.497 -0.5937  3.3946  0.3740
  466MOL0     H62904   4.796   1.444   7.408  0.4813 -1.1823 -0.7213
  466MOL0     H62905   4.748   1.402   7.571  2.7939 -0.9646  2.9985
  466MOL0     H62906   4.878   1.231   7.492  1.4696 -0.8398 -4.1139
  466MOL0     H62907   4.986   1.326   7.609  0.3125  1.1430 -0.3026
  466MOL0     H62908   5.193   1.356   7.233  0.7580 -1.8224  0.1161
  466MOL0     H62909   4.605   1.958   7.581  1.4872 -1.1433  0.1240
  466MOL0     H62910   4.403   1.977   7.738  2.1704  1.8422  0.8470
  467MOL0     O62911   3.583   8.251   5.231 -0.1389  0.1551 -0.5571
  467MOL0     C62912   3.604   8.244   5.355 -0.2111  0.0007  1.2076
  467MOL0     O62913   3.511   8.262   5.453 -0.4145  0.2934 -0.5368
  467MOL0     C62914   3.379   8.281   5.436  0.1887  0.1197  0.1238
  467MOL0     C62915   3.311   8.327   5.548 -0.3092  0.7903  0.7620
  467MOL0     C62916   3.177   8.360   5.549  0.7337 -0.3258  0.1475
  467MOL0     C62917   3.110   8.370   5.424  0.3058 -0.2104  1.2243
  467MOL0     O62918   2.979   8.407   5.395  0.1105 -0.4103 -0.3987
  467MOL0     C62919   2.886   8.426   5.505  0.3965  0.5322 -0.9027
  467MOL0     C62920   2.754   8.347   5.479 -0.8305  0.0589 -0.1700
  467MOL0     C62921   2.656   8.354   5.597 -0.4538  0.7136  0.1719
  467MOL0     C62922   2.527   8.278   5.578  0.1955  0.7173 -0.9932
  467MOL0     C62923   2.423   8.316   5.690  0.3840 -0.3088 -0.3178
  467MOL0     C62924   2.309   8.206   5.683 -0.6780  0.0173  0.4318
  467MOL0     C62925   2.210   8.235   5.796 -0.3127 -0.1018 -0.3870
  467MOL0     C62926   2.085   8.156   5.787 -0.1790 -0.2670 -0.7448
  467MOL0     N62927   2.114   8.012   5.810 -0.3330 -0.2896 -0.5122
  467MOL0     C62928   2.155   7.922   5.721 -0.4450  0.4748 -0.2519
  467MOL0     C62929   2.186   7.813   5.795 -0.4347 -0.5491  0.6724
  467MOL0     C62930   2.236   7.680   5.744  1.3014  0.1833  0.3429
  467MOL0     C62931   2.129   7.590   5.679 -0.6086 -0.1628 -0.0477
  467MOL0     C62932   2.053   7.663   5.567  0.0754  0.4031 -0.4989
  467MOL0     C62933   1.942   7.570   5.512  0.0312  0.2360 -0.9222
  467MOL0     O62934   1.825   7.645   5.485 -0.0913  0.0083  0.4904
  467MOL0     C62935   1.734   7.575   5.413  0.8187 -0.9553 -0.3560
  467MOL0     C62936   1.694   7.641   5.301  0.4580  0.5571  0.2868
  467MOL0     C62937   1.583   7.598   5.217 -0.2058  0.1007 -0.2011
  467MOL0     C62938   1.533   7.691   5.112 -0.8845 -0.3474  0.1804
  467MOL0     C62939   1.536   7.466   5.246  0.3671  0.2216 -0.0584
  467MOL0     C62940   1.431   7.397   5.162  0.3222 -1.1470 -1.0440
  467MOL0     O62941   1.407   7.266   5.195 -0.7854 -0.2796  0.8361
  467MOL0     C62942   1.323   7.183   5.136 -0.3943 -0.8215 -0.0507
  467MOL0     C62943   1.253   7.208   5.020 -0.3427  0.5126  0.1934
  467MOL0     C62944   1.166   7.109   4.969  0.7183  0.1244 -0.4299
  467MOL0     C62945   1.164   6.979   5.020 -0.3604  0.5255 -0.2217
  467MOL0     O62946   1.084   6.886   4.960  0.5433 -0.2806  0.0822
  467MOL0     C62947   1.020   6.793   5.051  0.4150 -0.6468 -0.4055
  467MOL0     C62948   0.957   6.838   5.192 -0.1163  0.3578 -0.4495
  467MOL0     C62949   0.846   6.941   5.173  1.1144 -0.3714  0.4826
  467MOL0     C62950   0.738   6.909   5.067 -0.0563 -0.5498 -0.2495
  467MOL0     C62951   0.634   7.015   5.061 -0.3958  0.6071 -0.2492
  467MOL0     C62952   0.524   6.996   5.161 -0.2813 -0.4320 -0.6022
  467MOL0     C62953   0.430   6.883   5.134  0.0164  0.0329  0.2274
  467MOL0     C62954   0.293   6.890   5.214  0.2826 -0.1456 -0.3542
  467MOL0    Cl62955   0.189   7.019   5.141  0.5179 -0.2799 -0.0502
  467MOL0     C62956   1.252   6.950   5.127  0.9792 -0.2061  0.5114
  467MOL0     C62957   1.313   7.055   5.189 -0.1935 -0.3358 -0.6852
  467MOL0     O62958   1.373   7.462   5.073  0.9942  0.4201 -0.5000
  467MOL0     C62959   1.594   7.386   5.356 -0.8048  0.4301  0.6908
  467MOL0     C62960   1.690   7.449   5.438  0.5728 -0.2558  0.2933
  467MOL0     N62961   2.176   7.843   5.929 -0.3843 -0.0591  0.2824
  467MOL0     N62962   2.145   7.967   5.934 -0.0677 -0.0383  0.1166
  467MOL0     C62963   3.181   8.319   5.309  0.2014  0.6425  0.5494
  467MOL0     C62964   3.307   8.273   5.313  0.0238 -0.4047  0.2151
  467MOL0     C62965   3.741   8.211   5.395 -0.1291 -0.2485 -0.2458
  467MOL0     C62966   3.849   8.185   5.300 -0.4421 -0.4063 -0.2064
  467MOL0     C62967   3.982   8.143   5.336  0.4834  0.6336 -0.5767
  467MOL0     C62968   4.006   8.123   5.476 -0.0448 -0.4095  0.5446
  467MOL0     O62969   4.124   8.079   5.528 -0.2143  0.5563  0.2475
  467MOL0     C62970   4.242   8.091   5.446  0.8318 -0.7740  0.5779
  467MOL0     C62971   4.373   8.111   5.522  0.3871  0.5126  0.7059
  467MOL0     C62972   4.486   8.118   5.423  0.2639  0.1602  0.7500
  467MOL0     C62973   4.617   8.128   5.501  0.2544 -0.2368  0.4576
  467MOL0     C62974   4.650   8.014   5.576  0.0546  0.6079 -0.0730
  467MOL0     C62975   4.683   7.917   5.638 -0.3693  0.1478 -0.5766
  467MOL0     C62976   3.895   8.140   5.563  0.0804  0.2975 -0.3352
  467MOL0     C62977   3.771   8.187   5.528  0.2188 -0.5662  0.0239
  467MOL0     H62978   3.360   8.339   5.644 -0.3969  3.2420  0.5696
  467MOL0     H62979   3.121   8.384   5.639 -1.2915 -0.5105 -1.0112
  467MOL0     H62980   2.932   8.390   5.597  1.6869  0.9521 -1.3668
  467MOL0     H62981   2.858   8.531   5.511  1.8965  0.8908  0.6554
  467MOL0     H62982   2.703   8.376   5.386 -1.2077  0.5206  0.1752
  467MOL0     H62983   2.782   8.241   5.477 -0.4030  0.1789 -1.4003
  467MOL0     H62984   2.714   8.312   5.680 -0.9510 -0.8362 -0.2199
  467MOL0     H62985   2.625   8.454   5.626  0.1341  0.9074  0.1348
  467MOL0     H62986   2.478   8.297   5.482 -0.1997  1.0677 -0.7322
  467MOL0     H62987   2.547   8.171   5.587 -3.2713 -0.1170 -1.5822
  467MOL0     H62988   2.481   8.329   5.782  1.4197 -0.8138 -0.8792
  467MOL0     H62989   2.380   8.414   5.669 -1.8374 -0.6345  2.1930
  467MOL0     H62990   2.248   8.220   5.594  0.9040  2.9442 -0.3363
  467MOL0     H62991   2.351   8.106   5.689  1.0542  0.5606 -1.5870
  467MOL0     H62992   2.263   8.216   5.889  3.3704  1.6481 -1.9374
  467MOL0     H62993   2.188   8.343   5.793  0.8877  0.1408 -0.7920
  467MOL0     H62994   2.040   8.157   5.687  1.3973 -3.3921 -1.6217
  467MOL0     H62995   2.006   8.180   5.859 -0.7830  0.2729 -1.5656
  467MOL0     H62996   2.156   7.932   5.613 -0.1228 -0.0446 -0.3011
  467MOL0     H62997   2.317   7.709   5.676  1.5245  2.1408  1.3619
  467MOL0     H62998   2.283   7.623   5.824 -0.2396 -1.1419  0.3526
  467MOL0     H62999   2.069   7.539   5.755 -0.6523  0.0025  0.0308
  467MOL0     H63000   2.188   7.514   5.627  1.6777 -0.3697  2.6147
  467MOL0     H63001   2.124   7.683   5.487 -0.4674  0.2756 -1.0228
  467MOL0     H63002   2.015   7.757   5.608 -2.3801 -1.3621  1.6423
  467MOL0     H63003   1.911   7.495   5.585  0.7962  1.5228  0.7811
  467MOL0     H63004   1.991   7.524   5.426  4.1175  0.0096  1.2557
  467MOL0     H63005   1.753   7.730   5.279  1.6570 -0.2866 -0.0409
  467MOL0     H63006   1.424   7.697   5.120 -0.7915 -0.8396  2.7934
  467MOL0     H63007   1.582   7.785   5.138  0.9876 -1.3744  0.5738
  467MOL0     H63008   1.572   7.663   5.014  0.1483  0.8628  0.2180
  467MOL0     H63009   1.253   7.299   4.961 -2.4543 -0.5645 -1.6575
  467MOL0     H63010   1.114   7.142   4.880  3.7442  0.1760 -2.3327
  467MOL0     H63011   0.943   6.737   4.998  0.9071 -2.7933  0.9982
  467MOL0     H63012   1.100   6.719   5.067  2.5942  1.5064 -0.8245
  467MOL0     H63013   0.923   6.753   5.252  1.5666  0.9917  1.5536
  467MOL0     H63014   1.035   6.881   5.256 -0.6428  0.3743  0.1908
  467MOL0     H63015   0.882   7.037   5.134  2.0543 -1.5643 -1.7982
  467MOL0     H63016   0.798   6.964   5.269 -0.2726  1.6784 -0.6379
  467MOL0     H63017   0.779   6.906   4.965 -1.8114 -1.6875 -0.9680
  467MOL0     H63018   0.691   6.812   5.089 -0.9050  0.0335  0.5402
  467MOL0     H63019   0.580   7.010   4.966 -2.0835  0.8377  0.6483
  467MOL0     H63020   0.685   7.109   5.080  1.9034 -1.2188  3.9717
  467MOL0     H63021   0.561   6.985   5.263 -1.6468 -0.4662 -0.0873
  467MOL0     H63022   0.461   7.085   5.154  0.7232  0.3594  0.0561
  467MOL0     H63023   0.482   6.790   5.159  0.6639 -0.2184 -1.8188
  467MOL0     H63024   0.400   6.884   5.029  4.2057  1.1724 -1.1689
  467MOL0     H63025   0.310   6.910   5.321 -1.4831  1.9864 -0.3923
  467MOL0     H63026   0.239   6.796   5.203  2.7156 -1.4556 -1.9137
  467MOL0     H63027   1.249   6.847   5.161 -1.4402 -0.3330  0.0650
  467MOL0     H63028   1.384   7.029   5.267  0.1824  0.3343 -0.7972
  467MOL0     H63029   1.566   7.281   5.363  0.3226 -0.0051 -0.8236
  467MOL0     H63030   1.705   7.389   5.527 -0.2831  2.0507  2.0898
  467MOL0     H63031   3.131   8.322   5.212  1.7929  0.2431 -0.3330
  467MOL0     H63032   3.349   8.231   5.222  2.4023  1.0414  0.5772
  467MOL0     H63033   3.833   8.206   5.195 -1.1792  3.7675  0.5594
  467MOL0     H63034   4.049   8.119   5.254 -0.4836  1.0639 -1.5244
  467MOL0     H63035   4.243   8.007   5.376 -3.1413  0.7507 -1.6570
  467MOL0     H63036   4.235   8.180   5.382  2.9303 -0.0378  1.2793
  467MOL0     H63037   4.390   8.025   5.587  0.3639 -1.2340 -1.4725
  467MOL0     H63038   4.365   8.197   5.590 -0.9888  1.4627 -0.5865
  467MOL0     H63039   4.484   8.202   5.353 -2.0521 -1.6400 -1.5631
  467MOL0     H63040   4.481   8.034   5.353  0.2420  1.2941 -0.6640
  467MOL0     H63041   4.620   8.221   5.560 -0.8334  0.6636 -0.8496
  467MOL0     H63042   4.700   8.137   5.430  0.4187 -1.5802  0.4612
  467MOL0     H63043   4.705   7.830   5.696 -0.4113  0.7593  0.3632
  467MOL0     H63044   3.913   8.118   5.668 -0.9737  2.8856  0.4463
  467MOL0     H63045   3.703   8.215   5.608 -0.3449 -0.2038 -0.5676
  468MOL0     O63046   8.888   3.049   9.340 -0.3288 -0.0230 -0.1455
  468MOL0     C63047   8.906   3.053   9.463 -0.0177  0.5390 -0.4788
  468MOL0     O63048   8.809   3.068   9.560  0.3506  0.5436  0.5542
  468MOL0     C63049   8.689   3.117   9.509  0.1638 -0.0045  0.0211
  468MOL0     C63050   8.571   3.048   9.544 -0.7359 -0.0157  0.2617
  468MOL0     C63051   8.446   3.108   9.514  0.1815 -1.0977  0.3122
  468MOL0     C63052   8.437   3.230   9.446 -0.1000  0.7341 -0.8815
  468MOL0     O63053   8.321   3.300   9.408 -0.1291 -0.3779  0.8627
  468MOL0     C63054   8.196   3.230   9.421  0.1266 -0.7339  0.2093
  468MOL0     C63055   8.076   3.293   9.333 -0.2759  0.0813 -0.3121
  468MOL0     C63056   7.949   3.205   9.348 -0.6275  0.4980 -0.1875
  468MOL0     C63057   7.885   3.235   9.488  0.8238  0.0348  0.2823
  468MOL0     C63058   7.736   3.204   9.482  0.2370 -0.1263  0.2205
  468MOL0     C63059   7.650   3.309   9.404  0.0594  0.3337 -0.3708
  468MOL0     C63060   7.497   3.295   9.427  0.0235  0.8065  0.2956
  468MOL0     C63061   7.439   3.174   9.358 -0.8654 -0.3735  1.0295
  468MOL0     N63062   7.297   3.148   9.368 -0.5789  0.5588 -0.6715
  468MOL0     C63063   7.219   3.155   9.261 -1.2479 -0.1782 -0.2576
  468MOL0     C63064   7.092   3.140   9.295 -0.4175 -0.4178  0.1249
  468MOL0     C63065   6.971   3.128   9.207  0.0379 -0.1646  0.9128
  468MOL0     C63066   6.971   3.211   9.079  0.1924 -0.3579  0.0660
  468MOL0     C63067   6.856   3.168   8.993 -0.4351 -0.1697  0.7487
  468MOL0     C63068   6.719   3.220   9.043 -0.6717  0.6326  0.1641
  468MOL0     O63069   6.615   3.184   8.949 -0.6940 -0.0559 -0.1182
  468MOL0     C63070   6.491   3.229   8.988  0.3679  0.8937  0.4439
  468MOL0     C63071   6.395   3.216   8.893  0.1865  0.6908 -0.0504
  468MOL0     C63072   6.264   3.255   8.909  0.5132  0.2224  0.0523
  468MOL0     C63073   6.176   3.222   8.789  0.2955  0.1320  1.3613
  468MOL0     C63074   6.228   3.322   9.039 -0.7667  0.3405  0.5362
  468MOL0     C63075   6.096   3.377   9.072  0.1875 -0.3914  0.3269
  468MOL0     O63076   6.077   3.427   9.198 -0.1087  0.1832 -0.4653
  468MOL0     C63077   5.953   3.484   9.225 -0.5459  0.4863  0.1031
  468MOL0     C63078   5.866   3.398   9.299  0.1360 -0.3270  0.2859
  468MOL0     C63079   5.737   3.447   9.324 -0.7584  1.1725 -0.4069
  468MOL0     C63080   5.689   3.579   9.300 -0.5841 -0.0615  0.1624
  468MOL0     O63081   5.574   3.630   9.341  0.2983  0.0107  0.2433
  468MOL0     C63082   5.525   3.600   9.471  0.2041 -0.8924 -0.4022
  468MOL0     C63083   5.389   3.661   9.478 -0.2855 -1.0069  0.5668
  468MOL0     C63084   5.386   3.812   9.485 -0.4107  0.3266 -0.3342
  468MOL0     C63085   5.240   3.865   9.521  0.2794  0.9010  0.5939
  468MOL0     C63086   5.217   4.013   9.508  0.4277 -0.0959 -1.0704
  468MOL0     C63087   5.300   4.090   9.610 -0.1631  1.4971 -0.0328
  468MOL0     C63088   5.271   4.231   9.627 -0.2138  0.7493  0.0444
  468MOL0     C63089   5.393   4.303   9.683 -0.0471  0.9004 -0.2677
  468MOL0    Cl63090   5.358   4.465   9.730  0.0007 -0.2418 -0.6699
  468MOL0     C63091   5.782   3.654   9.229 -0.5361 -0.0186  0.9236
  468MOL0     C63092   5.912   3.614   9.190 -0.4231  0.0978 -0.7873
  468MOL0     O63093   6.014   3.364   8.992 -0.0637  0.2677 -0.3663
  468MOL0     C63094   6.338   3.342   9.133  0.0716 -0.2049 -0.8670
  468MOL0     C63095   6.464   3.290   9.109  0.3398 -0.0207  0.0605
  468MOL0     N63096   7.088   3.117   9.433 -0.5253  0.4796  0.3025
  468MOL0     N63097   7.213   3.116   9.467  0.1204  0.3743  0.1458
  468MOL0     C63098   8.551   3.304   9.431  0.5020  0.4929 -0.2302
  468MOL0     C63099   8.674   3.250   9.467 -0.3691  0.3081  0.2184
  468MOL0     C63100   9.043   3.011   9.510 -0.5628 -0.7938 -0.5306
  468MOL0     C63101   9.151   3.054   9.436  0.0257 -0.6942  0.1103
  468MOL0     C63102   9.282   3.032   9.488  0.1558  0.3419  0.4931
  468MOL0     C63103   9.300   2.959   9.610 -1.0704 -0.7420 -0.4027
  468MOL0     O63104   9.430   2.963   9.652  0.3769 -0.0165  0.0202
  468MOL0     C63105   9.467   2.882   9.766 -0.3516 -0.3908  0.5907
  468MOL0     C63106   9.623   2.868   9.764  0.2253  0.1206  0.5844
  468MOL0     C63107   9.685   2.909   9.899 -0.2942  0.4120  0.5709
  468MOL0     C63108   9.816   2.836   9.922 -0.3563 -0.2050  0.5285
  468MOL0     C63109   9.894   2.891  10.037 -0.1713 -0.1345 -0.2136
  468MOL0     C63110   9.962   2.912  10.138 -0.2525  1.0225 -0.4101
  468MOL0     C63111   9.186   2.917   9.682  0.2393 -1.0299  0.4150
  468MOL0     C63112   9.057   2.942   9.630  0.2499 -0.0062  0.0967
  468MOL0     H63113   8.564   2.948   9.585 -1.6567  0.2741  0.8466
  468MOL0     H63114   8.352   3.058   9.531 -1.7730  1.6993 -1.4527
  468MOL0     H63115   8.222   3.132   9.379  0.9623 -0.1260 -0.7249
  468MOL0     H63116   8.176   3.236   9.529 -0.8280  0.6357 -0.0266
  468MOL0     H63117   8.066   3.400   9.357 -4.2633 -0.6580  2.3067
  468MOL0     H63118   8.107   3.283   9.229 -0.2913 -0.6067 -0.2528
  468MOL0     H63119   7.882   3.221   9.263 -2.6903 -4.9570  0.0473
  468MOL0     H63120   7.983   3.101   9.350  0.0099  0.6840  2.3948
  468MOL0     H63121   7.933   3.169   9.561 -0.7377 -1.0681  0.3528
  468MOL0     H63122   7.890   3.340   9.519  2.4778  0.0322  0.1383
  468MOL0     H63123   7.733   3.107   9.432  4.1839 -0.5243  0.3854
  468MOL0     H63124   7.694   3.194   9.582  0.7564 -0.3710  0.4200
  468MOL0     H63125   7.671   3.410   9.442 -2.3894  0.5925  0.4704
  468MOL0     H63126   7.672   3.305   9.297  2.6394 -0.4853  0.1203
  468MOL0     H63127   7.473   3.286   9.534  1.1545  2.2453  0.6964
  468MOL0     H63128   7.443   3.383   9.390 -0.3983  1.2787  1.9618
  468MOL0     H63129   7.490   3.082   9.389  0.9310  0.1820 -0.1055
  468MOL0     H63130   7.465   3.181   9.252  1.4849 -1.8322  1.4108
  468MOL0     H63131   7.259   3.162   9.160 -1.1993 -0.0074 -0.2264
  468MOL0     H63132   6.959   3.022   9.187  1.4259 -0.0275 -0.9251
  468MOL0     H63133   6.885   3.156   9.269 -0.1065  1.2906  0.1141
  468MOL0     H63134   7.058   3.182   9.020 -1.0209 -1.7598 -1.1345
  468MOL0     H63135   6.969   3.316   9.109 -1.1137  0.0254 -1.2591
  468MOL0     H63136   6.854   3.059   8.986 -2.3974 -0.3036  2.2448
  468MOL0     H63137   6.861   3.215   8.895  0.4364  0.2783  1.0036
  468MOL0     H63138   6.726   3.328   9.058 -0.0399  1.0010 -2.3291
  468MOL0     H63139   6.695   3.180   9.141  1.0501  0.5385  0.5704
  468MOL0     H63140   6.425   3.178   8.796 -1.6422 -0.4849 -0.2242
  468MOL0     H63141   6.081   3.181   8.825 -0.8257  0.2602 -1.2270
  468MOL0     H63142   6.152   3.306   8.724  2.1211 -1.2667 -1.3473
  468MOL0     H63143   6.220   3.143   8.727  1.5546  0.8516  1.3123
  468MOL0     H63144   5.900   3.297   9.322 -0.2979 -0.4403  0.4326
  468MOL0     H63145   5.674   3.368   9.365  0.3952  0.7919  0.6862
  468MOL0     H63146   5.528   3.491   9.478 -0.4841 -0.8978 -0.0669
  468MOL0     H63147   5.578   3.635   9.560 -1.7002  1.0520  0.0628
  468MOL0     H63148   5.331   3.631   9.390 -2.0293 -3.8388  2.4868
  468MOL0     H63149   5.336   3.621   9.566 -0.7471  0.1419  0.8261
  468MOL0     H63150   5.419   3.858   9.392  0.0577  0.3147 -0.1733
  468MOL0     H63151   5.456   3.824   9.569  0.9889  4.5476 -1.8505
  468MOL0     H63152   5.171   3.803   9.463 -2.8687  0.0886  4.7870
  468MOL0     H63153   5.209   3.839   9.622 -1.6306 -0.1978 -0.2168
  468MOL0     H63154   5.108   4.024   9.516  0.2448 -2.6138  2.2268
  468MOL0     H63155   5.241   4.044   9.406 -2.2109  0.9268 -1.4494
  468MOL0     H63156   5.283   4.034   9.702 -1.4897 -1.9087 -2.1366
  468MOL0     H63157   5.404   4.069   9.584  0.2482 -0.5327  2.7902
  468MOL0     H63158   5.187   4.245   9.695 -0.5431  1.3399 -0.4765
  468MOL0     H63159   5.244   4.273   9.530 -1.3404 -0.0118  0.0203
  468MOL0     H63160   5.485   4.289   9.626  2.8477  2.7925  3.5173
  468MOL0     H63161   5.412   4.247   9.775  1.6810  0.4145 -0.8901
  468MOL0     H63162   5.738   3.746   9.194  0.9069  0.4121  0.1541
  468MOL0     H63163   5.973   3.677   9.126 -1.1293  0.2669 -1.3108
  468MOL0     H63164   6.316   3.394   9.226 -3.2680 -0.2875 -1.4697
  468MOL0     H63165   6.534   3.298   9.192  0.0229  0.0523  0.3217
  468MOL0     H63166   8.553   3.407   9.400  1.2961  0.1019 -1.5550
  468MOL0     H63167   8.754   3.323   9.483 -1.5518  1.5243  0.7363
  468MOL0     H63168   9.135   3.115   9.347  1.5248 -1.1672 -0.5182
  468MOL0     H63169   9.365   3.081   9.440  1.4068 -1.3198  0.8594
  468MOL0     H63170   9.422   2.931   9.853 -0.2142 -2.3918  1.8698
  468MOL0     H63171   9.425   2.782   9.784 -0.7708 -0.0933  1.3577
  468MOL0     H63172   9.674   2.922   9.684  3.4023 -2.8017  0.4021
  468MOL0     H63173   9.657   2.765   9.751 -1.2656 -0.1865 -1.2108
  468MOL0     H63174   9.624   2.881   9.985  2.1001 -0.9518  1.9093
  468MOL0     H63175   9.693   3.018   9.896 -1.6296  0.5199 -1.4146
  468MOL0     H63176   9.870   2.849   9.827  0.3563 -0.8873  0.8266
  468MOL0     H63177   9.811   2.728   9.940 -2.9679 -0.1641  0.3627
  468MOL0     H63178  10.031   2.927  10.218 -0.4459 -1.6529  0.3754
  468MOL0     H63179   9.189   2.859   9.773 -3.8161  1.5132  2.4646
  468MOL0     H63180   8.969   2.901   9.678 -0.5772 -0.3423 -1.6233
  469MOL0     O63181   8.245   2.218   6.284  0.0147 -0.6521 -0.1907
  469MOL0     C63182   8.309   2.124   6.330 -0.4372  0.4285 -0.2106
  469MOL0     O63183   8.261   1.993   6.356 -0.3807 -0.0335 -0.6143
  469MOL0     C63184   8.138   1.955   6.296 -0.1102 -0.1709  0.5224
  469MOL0     C63185   8.058   1.859   6.363 -0.5261  0.0754  0.3635
  469MOL0     C63186   7.940   1.809   6.311 -0.0904 -0.2100 -0.1655
  469MOL0     C63187   7.890   1.867   6.197 -0.0159 -0.3156 -0.0230
  469MOL0     O63188   7.761   1.852   6.157  0.8222 -0.3881 -0.8161
  469MOL0     C63189   7.677   1.755   6.224  0.3618 -0.2306 -0.6546
  469MOL0     C63190   7.548   1.746   6.154 -0.3681  0.2453 -0.2766
  469MOL0     C63191   7.433   1.664   6.224 -0.3988 -1.1130  0.3197
  469MOL0     C63192   7.301   1.667   6.135 -1.1797 -0.6730 -0.4981
  469MOL0     C63193   7.182   1.608   6.200  0.1143  0.0651  1.3070
  469MOL0     C63194   7.056   1.628   6.104 -0.6684 -0.2011 -0.7697
  469MOL0     C63195   6.939   1.540   6.143  0.4958  0.5782 -0.2028
  469MOL0     C63196   6.960   1.388   6.113 -0.5516 -0.3570 -0.1639
  469MOL0     N63197   6.834   1.314   6.110  0.3634 -0.1382 -0.6145
  469MOL0     C63198   6.720   1.351   6.035  0.2048 -0.9055  0.0627
  469MOL0     C63199   6.621   1.296   6.098 -0.8063  0.8608 -0.2910
  469MOL0     C63200   6.483   1.293   6.048 -0.7757 -0.7725 -0.2147
  469MOL0     C63201   6.370   1.244   6.144  0.0233 -0.2124  0.5920
  469MOL0     C63202   6.233   1.277   6.094 -0.0994 -0.0787  0.1589
  469MOL0     C63203   6.117   1.213   6.169 -0.8616 -0.2970 -0.3379
  469MOL0     O63204   5.998   1.261   6.099  0.0260 -0.0787  0.9785
  469MOL0     C63205   5.881   1.232   6.163  0.0030 -0.0470  0.0799
  469MOL0     C63206   5.768   1.278   6.097 -0.3287 -1.1254 -0.5485
  469MOL0     C63207   5.645   1.250   6.148 -0.0104 -0.0095  0.2385
  469MOL0     C63208   5.530   1.332   6.093 -0.4673 -0.1101 -0.2216
  469MOL0     C63209   5.632   1.160   6.256  0.4791 -0.2283 -0.5255
  469MOL0     C63210   5.502   1.124   6.323  1.1311  0.3655  0.1632
  469MOL0     O63211   5.512   1.061   6.442 -0.3208  0.2985 -0.6656
  469MOL0     C63212   5.393   1.026   6.514 -0.4808  0.6224  0.4827
  469MOL0     C63213   5.291   1.119   6.550 -0.3880 -0.0468 -0.9163
  469MOL0     C63214   5.174   1.078   6.604 -0.4795  0.3036 -0.0815
  469MOL0     C63215   5.149   0.944   6.615 -0.3139  0.4144 -0.8698
  469MOL0     O63216   5.015   0.922   6.666  0.3612 -0.3462 -0.3585
  469MOL0     C63217   4.966   0.787   6.672 -0.4362 -0.1003  1.4467
  469MOL0     C63218   4.940   0.736   6.807  0.7147 -0.4403  0.1831
  469MOL0     C63219   4.796   0.757   6.872  0.7332 -0.3238  0.2752
  469MOL0     C63220   4.788   0.709   7.015 -0.0320  0.0657 -0.0209
  469MOL0     C63221   4.647   0.731   7.075 -0.0880 -0.8423 -0.4135
  469MOL0     C63222   4.630   0.665   7.217  0.6420  0.3199  0.6158
  469MOL0     C63223   4.503   0.723   7.291  0.1710 -0.1081  0.4220
  469MOL0     C63224   4.450   0.645   7.404 -0.2754 -0.1719  0.0015
  469MOL0    Cl63225   4.544   0.672   7.558  0.4862  0.0347 -0.3484
  469MOL0     C63226   5.243   0.846   6.580  0.0347  0.8139  0.9348
  469MOL0     C63227   5.364   0.889   6.533 -0.0312  0.8354  0.3642
  469MOL0     O63228   5.400   1.128   6.260  0.4386  0.1967  0.6812
  469MOL0     C63229   5.746   1.092   6.307 -0.0429 -0.0089  0.3104
  469MOL0     C63230   5.869   1.134   6.272  0.3054  0.5515  0.3715
  469MOL0     N63231   6.666   1.221   6.210 -0.1749 -0.4494 -0.1605
  469MOL0     N63232   6.797   1.237   6.219 -0.3703  0.2762 -1.2185
  469MOL0     C63233   7.973   1.951   6.123 -0.4469  1.1208 -0.1025
  469MOL0     C63234   8.099   1.990   6.169 -0.1157 -0.9173 -0.7428
  469MOL0     C63235   8.452   2.144   6.377  0.5310  0.1168  0.4096
  469MOL0     C63236   8.501   2.277   6.387  0.0600  0.5608  0.2591
  469MOL0     C63237   8.639   2.294   6.399  0.0138 -0.4983 -1.2083
  469MOL0     C63238   8.728   2.181   6.410 -0.0295 -0.8892 -0.1589
  469MOL0     O63239   8.866   2.196   6.423  0.1520 -0.3194 -0.7407
  469MOL0     C63240   8.924   2.325   6.437 -0.7796 -0.4719 -0.4225
  469MOL0     C63241   9.075   2.314   6.446  0.2174  0.4547  0.0533
  469MOL0     C63242   9.134   2.416   6.554  0.0303  1.2386 -0.0448
  469MOL0     C63243   9.282   2.394   6.585 -0.5948  1.0756 -0.0361
  469MOL0     C63244   9.360   2.405   6.462  0.1327 -1.1911 -1.0479
  469MOL0     C63245   9.441   2.399   6.369  0.6022 -0.2811 -0.7327
  469MOL0     C63246   8.666   2.050   6.421 -0.1401 -0.7122  0.7208
  469MOL0     C63247   8.527   2.037   6.412 -0.1343  0.4046  0.2199
  469MOL0     H63248   8.085   1.817   6.460 -0.0043 -0.1168  0.1350
  469MOL0     H63249   7.895   1.731   6.371  0.2771  0.2371  0.7119
  469MOL0     H63250   7.728   1.659   6.232  1.3306  0.2782 -0.5336
  469MOL0     H63251   7.655   1.794   6.324  2.2412  1.9847 -1.0272
  469MOL0     H63252   7.514   1.849   6.144  1.5362  0.8112 -1.2571
  469MOL0     H63253   7.572   1.700   6.057  0.5868  1.4655 -0.6485
  469MOL0     H63254   7.461   1.561   6.245 -2.5663 -2.4876 -2.7171
  469MOL0     H63255   7.397   1.722   6.310 -1.9122 -0.3701 -0.7672
  469MOL0     H63256   7.284   1.774   6.121 -0.0536 -0.3890  0.1448
  469MOL0     H63257   7.320   1.625   6.036  2.7651  0.3823 -0.3346
  469MOL0     H63258   7.214   1.504   6.186 -1.2898 -0.1756 -0.4993
  469MOL0     H63259   7.159   1.625   6.305 -2.7090 -0.1219  0.7920
  469MOL0     H63260   7.022   1.731   6.112  1.1063  0.5343 -1.9739
  469MOL0     H63261   7.082   1.621   5.998  0.7142 -1.2734 -0.3927
  469MOL0     H63262   6.924   1.578   6.245  3.6200  6.2438 -1.4078
  469MOL0     H63263   6.856   1.585   6.087  0.4275  0.0086 -0.5703
  469MOL0     H63264   7.039   1.348   6.178  0.2570  2.8238  1.0025
  469MOL0     H63265   7.002   1.382   6.013  1.4405 -0.1776  0.6004
  469MOL0     H63266   6.712   1.421   5.953  5.2768 -1.3072 -1.0631
  469MOL0     H63267   6.469   1.397   6.015  0.7851 -0.6346 -0.4867
  469MOL0     H63268   6.487   1.221   5.966  0.5992 -0.9246 -0.0366
  469MOL0     H63269   6.384   1.284   6.245  0.6278  0.3506  0.2895
  469MOL0     H63270   6.378   1.135   6.146 -0.8908 -0.4410 -2.8045
  469MOL0     H63271   6.218   1.248   5.989  1.7658  1.0153 -0.4492
  469MOL0     H63272   6.219   1.385   6.098  0.0047 -0.0807  0.6216
  469MOL0     H63273   6.108   1.267   6.264 -2.5197 -1.9283  0.4851
  469MOL0     H63274   6.120   1.104   6.180  0.9052 -0.2385 -0.0018
  469MOL0     H63275   5.778   1.342   6.010  0.9643 -3.2768 -2.0675
  469MOL0     H63276   5.471   1.364   6.180  0.3615  1.8960 -0.3417
  469MOL0     H63277   5.551   1.415   6.025  0.1589  1.6392  1.9554
  469MOL0     H63278   5.469   1.258   6.042 -1.4766  0.0660  0.6825
  469MOL0     H63279   5.314   1.223   6.530  2.6350 -0.2175  1.1104
  469MOL0     H63280   5.100   1.149   6.639 -0.3445 -0.6326  2.2524
  469MOL0     H63281   4.877   0.778   6.608  1.4535  3.7244 -2.1730
  469MOL0     H63282   5.034   0.713   6.629 -1.9139 -1.4899  1.4016
  469MOL0     H63283   4.945   0.628   6.791 -0.9283 -0.6159  0.6670
  469MOL0     H63284   5.012   0.770   6.882  1.7546 -1.3923 -0.3590
  469MOL0     H63285   4.725   0.696   6.815  0.1100  1.9808 -1.5715
  469MOL0     H63286   4.771   0.862   6.852  2.0626 -0.6111 -3.8771
  469MOL0     H63287   4.814   0.603   7.020  0.0753  0.1189  0.7343
  469MOL0     H63288   4.857   0.769   7.075 -2.0648  4.0346 -1.2972
  469MOL0     H63289   4.560   0.696   7.018 -1.8172  2.5176 -0.1085
  469MOL0     H63290   4.632   0.839   7.085 -2.1918 -1.3169  3.4547
  469MOL0     H63291   4.617   0.557   7.209  0.0994  0.2382  2.1785
  469MOL0     H63292   4.720   0.678   7.278  0.3638  2.0698  0.7003
  469MOL0     H63293   4.430   0.729   7.210 -0.0497  0.3249  0.6446
  469MOL0     H63294   4.524   0.825   7.325 -0.9371  0.1129  0.4806
  469MOL0     H63295   4.449   0.537   7.387 -0.4205 -0.1348 -0.2259
  469MOL0     H63296   4.346   0.675   7.423 -0.8436 -0.8393 -1.8035
  469MOL0     H63297   5.225   0.740   6.595 -0.2838  0.8170  0.5825
  469MOL0     H63298   5.440   0.817   6.506 -2.7826 -2.7175  1.3597
  469MOL0     H63299   5.746   1.019   6.388 -3.1783 -1.3369 -0.7142
  469MOL0     H63300   5.952   1.075   6.310 -0.3587 -0.4189  0.3209
  469MOL0     H63301   7.935   1.991   6.029 -0.6541 -0.1214 -0.5611
  469MOL0     H63302   8.163   2.053   6.108  2.2667 -1.6988  0.7917
  469MOL0     H63303   8.433   2.357   6.362  0.8751  0.7723 -1.3759
  469MOL0     H63304   8.679   2.394   6.401  0.7707 -0.7874  0.9573
  469MOL0     H63305   8.904   2.395   6.355  1.8576 -1.2858 -1.8657
  469MOL0     H63306   8.894   2.379   6.528  0.3130  1.3020 -1.0556
  469MOL0     H63307   9.116   2.332   6.347 -0.7263  3.7876  0.1697
  469MOL0     H63308   9.099   2.212   6.478  0.3946  0.8417  1.1816
  469MOL0     H63309   9.092   2.391   6.651  1.1234 -1.4704 -0.1986
  469MOL0     H63310   9.117   2.523   6.535 -0.3934  0.7356 -2.9677
  469MOL0     H63311   9.290   2.299   6.638 -1.6403  0.1268 -1.4936
  469MOL0     H63312   9.302   2.474   6.657  2.3245  0.4760 -0.0857
  469MOL0     H63313   9.504   2.404   6.282  1.7838  0.4534  0.1561
  469MOL0     H63314   8.723   1.961   6.446 -2.2450 -2.3905 -0.0651
  469MOL0     H63315   8.485   1.937   6.417 -0.9169  0.7235  0.1123
  470MOL0     O63316   6.601   5.667   3.022  0.4262 -0.7083  0.7383
  470MOL0     C63317   6.692   5.684   2.939  0.7527  0.0633 -0.5015
  470MOL0     O63318   6.682   5.741   2.813 -0.7423 -0.8883  0.0412
  470MOL0     C63319   6.551   5.769   2.768 -0.4954 -0.5612 -0.4647
  470MOL0     C63320   6.463   5.664   2.739  0.3343  0.7558 -0.8907
  470MOL0     C63321   6.332   5.693   2.698 -0.5817  0.0834 -0.2338
  470MOL0     C63322   6.294   5.823   2.661  0.2744 -0.5895  0.0899
  470MOL0     O63323   6.170   5.856   2.616  0.4981  0.9286 -0.7752
  470MOL0     C63324   6.123   5.773   2.508 -0.0127 -0.0766  0.3513
  470MOL0     C63325   5.989   5.837   2.471 -0.5797 -0.2546 -0.6725
  470MOL0     C63326   5.910   5.754   2.368  0.0776 -0.2918 -0.0494
  470MOL0     C63327   5.845   5.622   2.416 -0.3988  0.2820  0.0688
  470MOL0     C63328   5.732   5.626   2.521 -0.1988  0.2711  0.7119
  470MOL0     C63329   5.605   5.710   2.481 -0.0827 -0.4727 -0.0954
  470MOL0     C63330   5.494   5.689   2.593  0.0689  0.0893 -0.2479
  470MOL0     C63331   5.367   5.749   2.533  0.1757 -0.6809  0.0796
  470MOL0     N63332   5.257   5.722   2.626  0.6071 -0.1954  0.5206
  470MOL0     C63333   5.252   5.775   2.760 -0.8051  0.4788 -0.2426
  470MOL0     C63334   5.137   5.709   2.813  0.1164 -0.4232  0.1295
  470MOL0     C63335   5.081   5.732   2.955  0.2989  0.3870 -0.6208
  470MOL0     C63336   4.939   5.787   2.943  0.6801  0.1995 -0.1578
  470MOL0     C63337   4.872   5.852   3.060 -0.7764  0.1826  0.0196
  470MOL0     C63338   4.762   5.945   3.025  0.1501  0.2135  0.4457
  470MOL0     O63339   4.646   5.883   2.965  0.1730 -0.0309 -0.6136
  470MOL0     C63340   4.527   5.955   2.963 -0.8696 -0.8891 -0.5104
  470MOL0     C63341   4.511   6.094   3.006 -0.1073 -0.0133  0.5710
  470MOL0     C63342   4.378   6.147   3.015 -0.5721 -0.2030  0.1589
  470MOL0     C63343   4.368   6.281   3.070  0.6453 -0.3030 -0.7947
  470MOL0     C63344   4.264   6.069   2.978  0.5639  0.0086  0.8103
  470MOL0     C63345   4.124   6.113   2.999 -0.1688  0.2829  0.3829
  470MOL0     O63346   4.099   6.168   3.117 -0.2985  0.5299  0.0947
  470MOL0     C63347   3.972   6.185   3.173  0.6006  0.7720 -0.0309
  470MOL0     C63348   3.862   6.107   3.146  0.3045  0.1612  0.4886
  470MOL0     C63349   3.739   6.137   3.195  0.3285  0.4284  0.5583
  470MOL0     C63350   3.722   6.244   3.286 -0.3981 -0.1003 -0.5304
  470MOL0     O63351   3.600   6.252   3.356  1.0020  0.2984  0.3473
  470MOL0     C63352   3.591   6.291   3.495  0.0193  0.4320  0.4870
  470MOL0     C63353   3.459   6.233   3.543 -0.4914 -0.2595  0.7713
  470MOL0     C63354   3.343   6.337   3.535 -0.0522  0.1347 -0.5160
  470MOL0     C63355   3.201   6.275   3.541 -0.4277  0.7043 -0.3384
  470MOL0     C63356   3.093   6.382   3.522  0.3374  0.6925 -0.5528
  470MOL0     C63357   2.958   6.330   3.569 -0.2831 -0.1531  0.7916
  470MOL0     C63358   2.855   6.440   3.554 -0.3246 -0.0771  0.3429
  470MOL0     C63359   2.738   6.390   3.643  0.2513  0.1014 -0.5206
  470MOL0    Cl63360   2.763   6.419   3.826  0.6385  0.0797 -0.1438
  470MOL0     C63361   3.834   6.307   3.335  0.0316  0.3226  0.4169
  470MOL0     C63362   3.957   6.278   3.274 -0.1483 -0.3058  0.3342
  470MOL0     O63363   4.035   6.082   2.915 -0.3420  0.0264 -0.2875
  470MOL0     C63364   4.286   5.941   2.923 -0.6357 -0.1525  0.1274
  470MOL0     C63365   4.418   5.886   2.917 -0.0713 -0.3024  0.6173
  470MOL0     N63366   5.090   5.621   2.711  0.5475 -0.7784 -0.4563
  470MOL0     N63367   5.155   5.646   2.607  0.7657  0.7146  0.3954
  470MOL0     C63368   6.384   5.930   2.681  0.2724  0.2692  0.1205
  470MOL0     C63369   6.509   5.900   2.738  0.0301  0.5487  0.4114
  470MOL0     C63370   6.830   5.664   2.985  0.5199  0.0404  0.0340
  470MOL0     C63371   6.931   5.749   2.936  0.6688 -0.0430 -0.5546
  470MOL0     C63372   7.068   5.730   2.970  0.8030 -0.2216 -0.7700
  470MOL0     C63373   7.107   5.630   3.054 -0.5440  0.2424  0.2367
  470MOL0     O63374   7.238   5.609   3.076 -0.3328 -0.0889  0.3974
  470MOL0     C63375   7.287   5.475   3.079 -0.5568 -0.0836  0.3819
  470MOL0     C63376   7.436   5.474   3.046  0.0973  0.4355 -0.1846
  470MOL0     C63377   7.495   5.336   3.079  0.3560  0.6436  0.4315
  470MOL0     C63378   7.558   5.261   2.954  0.3142  0.0076  0.9437
  470MOL0     C63379   7.434   5.199   2.890 -0.5625 -0.8588 -0.1024
  470MOL0     C63380   7.330   5.161   2.855  0.1247 -0.2861 -0.9793
  470MOL0     C63381   7.008   5.539   3.094 -0.2500  0.5791  0.5397
  470MOL0     C63382   6.869   5.556   3.062 -0.1029  1.0047  0.0016
  470MOL0     H63383   6.497   5.564   2.764  0.9556  1.5649  1.9716
  470MOL0     H63384   6.268   5.605   2.690 -1.4294  0.7721 -1.3308
  470MOL0     H63385   6.191   5.774   2.422 -0.6173  0.7923 -0.1175
  470MOL0     H63386   6.113   5.669   2.543 -1.2498 -0.2124 -0.3760
  470MOL0     H63387   5.925   5.858   2.557  0.8760  2.0959 -0.0890
  470MOL0     H63388   6.012   5.928   2.416 -2.5004 -0.5368 -2.0882
  470MOL0     H63389   5.837   5.813   2.312  1.7254  0.6834 -1.2448
  470MOL0     H63390   5.987   5.732   2.295 -0.7293 -1.3723 -0.6058
  470MOL0     H63391   5.797   5.579   2.328 -1.3277 -0.5225  0.9581
  470MOL0     H63392   5.921   5.550   2.446  0.0115  1.3586  1.7531
  470MOL0     H63393   5.703   5.523   2.545  0.2560  0.1069  0.5663
  470MOL0     H63394   5.761   5.672   2.616 -1.8431  1.7376  0.5604
  470MOL0     H63395   5.618   5.817   2.465  0.7358 -0.9103 -2.9734
  470MOL0     H63396   5.579   5.664   2.384  0.0356 -2.0002  0.5655
  470MOL0     H63397   5.487   5.582   2.611  0.0338  0.1114 -0.1305
  470MOL0     H63398   5.517   5.746   2.683 -0.9850 -3.0234  2.1384
  470MOL0     H63399   5.367   5.710   2.430  2.1409 -0.8191  0.0987
  470MOL0     H63400   5.365   5.858   2.531 -0.5032 -0.6883 -0.0346
  470MOL0     H63401   5.322   5.846   2.804  2.1774 -1.5605 -1.3591
  470MOL0     H63402   5.080   5.636   3.007  0.3385  0.5687 -0.2840
  470MOL0     H63403   5.149   5.798   3.010  0.3119 -1.4659  1.7770
  470MOL0     H63404   4.869   5.715   2.900  0.9826  0.7882 -1.6670
  470MOL0     H63405   4.941   5.864   2.866  0.1886 -0.5042 -0.8858
  470MOL0     H63406   4.947   5.908   3.117  0.9805  1.1098 -2.9599
  470MOL0     H63407   4.837   5.771   3.124 -0.7120 -1.3302 -1.7843
  470MOL0     H63408   4.799   6.016   2.950 -1.8368  1.0677  0.2180
  470MOL0     H63409   4.728   6.003   3.111 -1.9835 -0.5824  0.1780
  470MOL0     H63410   4.591   6.162   3.031  0.7765 -0.2879 -1.2987
  470MOL0     H63411   4.464   6.331   3.054  1.8138 -2.3718 -0.5213
  470MOL0     H63412   4.287   6.334   3.019  1.1964 -0.1115 -1.4930
  470MOL0     H63413   4.346   6.281   3.177 -1.9808  0.8453 -1.2407
  470MOL0     H63414   3.860   6.023   3.077 -2.6913 -0.6476  1.3975
  470MOL0     H63415   3.661   6.067   3.169  0.9300 -0.3970  0.9339
  470MOL0     H63416   3.673   6.252   3.555  0.7505  2.4092  0.8340
  470MOL0     H63417   3.590   6.400   3.505  2.2703  0.5135  0.3029
  470MOL0     H63418   3.433   6.145   3.484 -0.5289  0.0212  0.3650
  470MOL0     H63419   3.482   6.198   3.644  0.6571 -1.2624  0.1890
  470MOL0     H63420   3.355   6.376   3.434  0.3824 -1.9850 -1.3317
  470MOL0     H63421   3.356   6.414   3.611 -1.9205  0.8912 -0.9195
  470MOL0     H63422   3.184   6.182   3.486  1.1107  0.7940 -1.0110
  470MOL0     H63423   3.201   6.247   3.647  1.2919  0.5910 -0.3356
  470MOL0     H63424   3.083   6.410   3.417 -0.9037 -0.6454 -0.8217
  470MOL0     H63425   3.121   6.463   3.590 -2.3790 -1.9340  4.2649
  470MOL0     H63426   2.934   6.247   3.502  0.5757  0.8314 -0.8171
  470MOL0     H63427   2.959   6.301   3.674  1.1608  4.3614  2.2599
  470MOL0     H63428   2.830   6.462   3.450  0.4302 -0.2943  0.1100
  470MOL0     H63429   2.895   6.530   3.603 -0.4679 -0.7252  1.6813
  470MOL0     H63430   2.717   6.284   3.629  0.2991 -0.3937  2.4104
  470MOL0     H63431   2.653   6.455   3.622  0.4029  0.7106  0.6255
  470MOL0     H63432   3.823   6.383   3.411 -3.3994 -0.4821  0.8587
  470MOL0     H63433   4.044   6.330   3.315  0.8543 -3.0724  1.9509
  470MOL0     H63434   4.210   5.871   2.890  1.1521 -1.3708 -1.6687
  470MOL0     H63435   4.427   5.791   2.865  1.2614  0.9957 -1.7053
  470MOL0     H63436   6.362   6.031   2.649  2.9460  1.5475  1.9227
  470MOL0     H63437   6.584   5.977   2.755  1.0755 -0.3255 -0.0807
  470MOL0     H63438   6.898   5.836   2.880  2.5536  2.0610  1.3902
  470MOL0     H63439   7.136   5.797   2.917 -0.2764 -0.1632 -2.1346
  470MOL0     H63440   7.269   5.426   3.175 -0.1870  0.6489  0.8408
  470MOL0     H63441   7.235   5.412   3.007 -1.0396  0.7695 -0.0319
  470MOL0     H63442   7.480   5.538   3.122 -1.2589 -0.6367  1.5736
  470MOL0     H63443   7.460   5.508   2.945  1.1676  0.9023  0.2141
  470MOL0     H63444   7.421   5.275   3.133 -0.6989 -0.8123 -2.4269
  470MOL0     H63445   7.567   5.362   3.157 -1.0645  0.4545  1.8820
  470MOL0     H63446   7.624   5.179   2.982 -0.7856 -0.7003  1.5473
  470MOL0     H63447   7.603   5.336   2.889  0.9312 -2.9798 -2.3911
  470MOL0     H63448   7.237   5.127   2.814  0.0134  1.2197 -2.0766
  470MOL0     H63449   7.039   5.451   3.150 -0.4448  0.2442  0.1251
  470MOL0     H63450   6.791   5.490   3.096  1.6009 -0.6127  0.9436
  471MOL0     O63451   3.260   6.454   0.543 -1.3124 -0.3562  0.0466
  471MOL0     C63452   3.315   6.438   0.430 -0.5833  0.1626 -0.2098
  471MOL0     O63453   3.249   6.438   0.311  1.0065 -0.4452  0.5898
  471MOL0     C63454   3.110   6.410   0.304  0.0201 -0.1212  0.1411
  471MOL0     C63455   3.045   6.447   0.187 -0.2457  0.5839  0.9071
  471MOL0     C63456   2.909   6.414   0.161  0.0728 -0.4589  1.2424
  471MOL0     C63457   2.841   6.341   0.259 -0.0822  0.4658 -0.4586
  471MOL0     O63458   2.710   6.288   0.255  0.0178 -0.1335  0.3205
  471MOL0     C63459   2.663   6.283   0.118 -0.1215 -0.5347 -0.9092
  471MOL0     C63460   2.542   6.190   0.098 -0.0525 -0.1474  0.2592
  471MOL0     C63461   2.527   6.141  -0.041  0.7590  0.5979 -0.2676
  471MOL0     C63462   2.521   6.245  -0.150 -0.5545  0.5241  0.5448
  471MOL0     C63463   2.504   6.183  -0.289  0.0687 -0.9032  0.3622
  471MOL0     C63464   2.360   6.148  -0.314  0.1429  0.4793  0.9342
  471MOL0     C63465   2.247   6.260  -0.295 -0.3704 -0.4998 -0.0750
  471MOL0     C63466   2.257   6.366  -0.409  0.0754  0.3496  0.4096
  471MOL0     N63467   2.132   6.433  -0.432  0.8989  1.0531  0.8946
  471MOL0     C63468   2.044   6.463  -0.332  0.6251 -0.4803  0.8394
  471MOL0     C63469   1.928   6.495  -0.394  0.5200 -0.4057  0.5129
  471MOL0     C63470   1.819   6.544  -0.305  1.1724  0.4514  0.4663
  471MOL0     C63471   1.709   6.445  -0.291  1.3164 -0.0100  0.2091
  471MOL0     C63472   1.761   6.311  -0.227  0.2353  0.2242  0.1844
  471MOL0     C63473   1.652   6.199  -0.214 -0.1767  0.0636  0.0614
  471MOL0     O63474   1.538   6.239  -0.139  1.4025 -0.9892 -0.1177
  471MOL0     C63475   1.441   6.136  -0.113  0.1177 -0.4626 -0.1493
  471MOL0     C63476   1.354   6.163  -0.009  0.3321  0.6107  0.3203
  471MOL0     C63477   1.250   6.074   0.029 -0.4436 -0.4896  0.0678
  471MOL0     C63478   1.155   6.113   0.144  0.2929  0.1210 -0.6150
  471MOL0     C63479   1.233   5.964  -0.056  0.0139  0.0532  0.2625
  471MOL0     C63480   1.114   5.880  -0.040  0.3209  0.4521  0.2503
  471MOL0     O63481   1.126   5.749  -0.089 -1.1292  0.0037  0.4122
  471MOL0     C63482   1.021   5.664  -0.084 -0.7127  0.0126  0.3906
  471MOL0     C63483   1.041   5.530  -0.039 -0.5611  0.2138 -0.3320
  471MOL0     C63484   0.940   5.440  -0.024  0.2761 -1.0516 -0.1685
  471MOL0     C63485   0.812   5.471  -0.064  0.3938 -0.4037  0.0820
  471MOL0     O63486   0.708   5.383  -0.038  0.5746  0.1725 -0.5179
  471MOL0     C63487   0.593   5.438   0.028 -0.2311 -0.2172 -0.6603
  471MOL0     C63488   0.465   5.353   0.043 -0.2698 -0.6333  0.3210
  471MOL0     C63489   0.355   5.431   0.102 -0.1718  0.1404 -0.5417
  471MOL0     C63490   0.245   5.319   0.136 -0.3252  0.2764 -0.0958
  471MOL0     C63491   0.120   5.378   0.208 -0.5015 -0.4416  0.1273
  471MOL0     C63492   0.015   5.268   0.218 -0.5289  0.0281  0.7043
  471MOL0     C63493  -0.113   5.321   0.286  0.2220 -0.0509 -0.1860
  471MOL0     C63494  -0.221   5.206   0.269  1.0153 -0.4437 -0.5763
  471MOL0    Cl63495  -0.371   5.264   0.334 -0.2278  0.1935  0.0713
  471MOL0     C63496   0.793   5.604  -0.122 -0.5064 -0.2977  0.0191
  471MOL0     C63497   0.896   5.696  -0.138  0.7473 -0.9398  0.8085
  471MOL0     O63498   1.007   5.921   0.013 -0.1410  0.0021 -0.0461
  471MOL0     C63499   1.320   5.933  -0.154 -0.4214 -0.8762  0.2441
  471MOL0     C63500   1.432   6.018  -0.175  1.0785 -0.4248 -0.3137
  471MOL0     N63501   1.950   6.502  -0.533  0.0799 -0.0753 -0.5593
  471MOL0     N63502   2.074   6.463  -0.548  0.1169 -0.3109 -0.4462
  471MOL0     C63503   2.904   6.325   0.387 -0.0940 -0.1817  0.8563
  471MOL0     C63504   3.044   6.338   0.404  0.2930 -0.3467 -0.1323
  471MOL0     C63505   3.461   6.440   0.419  0.2530 -0.0411 -0.2445
  471MOL0     C63506   3.523   6.466   0.297 -0.1029 -0.8460  0.1874
  471MOL0     C63507   3.659   6.489   0.287 -0.5366  0.7367 -0.4745
  471MOL0     C63508   3.746   6.467   0.402  0.0778  0.4020  0.7975
  471MOL0     O63509   3.885   6.470   0.403 -0.2806  0.3040 -0.3351
  471MOL0     C63510   3.958   6.469   0.275  0.5533  0.6411 -0.2076
  471MOL0     C63511   3.989   6.613   0.242 -0.0223 -0.1474  0.1579
  471MOL0     C63512   4.058   6.612   0.111  0.0761  0.0311 -0.5337
  471MOL0     C63513   4.203   6.569   0.117  0.0669  0.7061 -1.1648
  471MOL0     C63514   4.256   6.549  -0.026 -0.1193 -0.2752 -0.5835
  471MOL0     C63515   4.311   6.518  -0.125 -0.6855  0.9549 -0.7529
  471MOL0     C63516   3.678   6.435   0.523 -0.3425 -0.4314 -0.1874
  471MOL0     C63517   3.539   6.438   0.531 -0.0414  0.3324 -0.4183
  471MOL0     H63518   3.108   6.492   0.111  2.3260  0.0427  2.5911
  471MOL0     H63519   2.868   6.447   0.065  4.0418  1.7552  0.0630
  471MOL0     H63520   2.645   6.388   0.089 -0.5334 -0.2856  0.2046
  471MOL0     H63521   2.739   6.243   0.051 -1.8363 -0.3884 -3.0983
  471MOL0     H63522   2.547   6.110   0.173 -1.0630 -0.6711 -0.2141
  471MOL0     H63523   2.447   6.242   0.115 -0.4911 -0.4706 -1.0793
  471MOL0     H63524   2.601   6.062  -0.058  3.5291  2.9183  0.2055
  471MOL0     H63525   2.432   6.088  -0.031  1.1254  0.3955  3.5632
  471MOL0     H63526   2.446   6.321  -0.129  0.1061  1.9746 -1.8717
  471MOL0     H63527   2.617   6.296  -0.144 -1.4727  2.5732 -1.0226
  471MOL0     H63528   2.533   6.255  -0.367  0.6192 -2.1583 -0.6257
  471MOL0     H63529   2.568   6.096  -0.302  2.8887  0.7286  2.1318
  471MOL0     H63530   2.348   6.114  -0.417 -0.5221  0.3512  1.0444
  471MOL0     H63531   2.330   6.058  -0.259 -1.0018  0.0391 -0.3601
  471MOL0     H63532   2.148   6.216  -0.304 -0.3637 -0.3309 -1.1584
  471MOL0     H63533   2.263   6.312  -0.200 -1.1330 -3.5583  1.8613
  471MOL0     H63534   2.291   6.315  -0.499  2.8338  0.7809  1.0988
  471MOL0     H63535   2.338   6.436  -0.384  0.7447 -0.6304  1.0513
  471MOL0     H63536   2.054   6.450  -0.225  1.2957 -0.4290  0.7907
  471MOL0     H63537   1.853   6.576  -0.206 -1.1704  1.9467  0.8534
  471MOL0     H63538   1.765   6.630  -0.346 -0.7828 -0.9912 -0.1529
  471MOL0     H63539   1.665   6.430  -0.390  1.3370 -2.7536  0.5292
  471MOL0     H63540   1.628   6.487  -0.231 -1.0141  0.2412 -2.9265
  471MOL0     H63541   1.803   6.327  -0.128 -2.5761 -1.4060  1.7447
  471MOL0     H63542   1.842   6.271  -0.290 -2.2128 -1.7595 -1.9199
  471MOL0     H63543   1.699   6.118  -0.157  1.2070  1.0081  0.3419
  471MOL0     H63544   1.620   6.162  -0.311  1.0130  1.2250 -0.8110
  471MOL0     H63545   1.365   6.253   0.051 -1.2064  0.0233  1.5351
  471MOL0     H63546   1.103   6.029   0.192 -0.8809  0.5743 -1.0651
  471MOL0     H63547   1.217   6.164   0.218 -0.1030 -0.8473  0.4235
  471MOL0     H63548   1.085   6.186   0.103  2.8419  2.5139 -0.9720
  471MOL0     H63549   1.140   5.502  -0.006 -1.1749 -1.6529  0.0643
  471MOL0     H63550   0.956   5.340   0.016  0.1599 -1.5552 -1.3488
  471MOL0     H63551   0.621   5.477   0.126  2.6893 -2.2811 -0.5466
  471MOL0     H63552   0.556   5.514  -0.042  1.1154 -0.8634 -2.1511
  471MOL0     H63553   0.437   5.331  -0.061 -2.6052  2.2033  0.2238
  471MOL0     H63554   0.492   5.259   0.092 -2.4056 -1.9159 -0.8214
  471MOL0     H63555   0.311   5.513   0.045  0.6921 -0.8914 -2.8368
  471MOL0     H63556   0.397   5.470   0.195 -1.1267  0.1990 -0.1243
  471MOL0     H63557   0.220   5.265   0.044 -2.9624  1.0595  0.0889
  471MOL0     H63558   0.299   5.245   0.197 -0.2738 -0.3345 -0.8588
  471MOL0     H63559   0.086   5.468   0.156 -1.7762  0.5171  2.4576
  471MOL0     H63560   0.157   5.410   0.306  3.1560  0.2284 -1.3257
  471MOL0     H63561  -0.007   5.246   0.113  1.6608  1.5328 -0.1480
  471MOL0     H63562   0.051   5.178   0.267  2.3620 -0.6374 -2.2557
  471MOL0     H63563  -0.163   5.409   0.246 -3.2169 -1.7602 -0.0452
  471MOL0     H63564  -0.089   5.333   0.392  1.9786 -0.4655 -0.5041
  471MOL0     H63565  -0.189   5.121   0.329 -0.8282 -1.0537 -0.3980
  471MOL0     H63566  -0.246   5.181   0.166 -0.9844  1.5586 -0.6686
  471MOL0     H63567   0.703   5.636  -0.174 -0.9608 -0.2931  0.7935
  471MOL0     H63568   0.872   5.793  -0.181  0.1309 -0.7123  1.6571
  471MOL0     H63569   1.323   5.844  -0.217 -1.1164 -1.3731  0.8962
  471MOL0     H63570   1.507   5.992  -0.249 -0.2344 -3.1100 -0.8104
  471MOL0     H63571   2.843   6.274   0.461 -1.3638  2.9962  2.1596
  471MOL0     H63572   3.085   6.301   0.497  0.6695  2.8639  1.0755
  471MOL0     H63573   3.457   6.467   0.210 -2.8150 -2.4540  2.0924
  471MOL0     H63574   3.702   6.497   0.187 -0.2082 -2.4654 -0.7172
  471MOL0     H63575   4.048   6.407   0.278  0.9300  1.2311  0.9610
  471MOL0     H63576   3.887   6.437   0.197  1.1083  2.7126 -1.6694
  471MOL0     H63577   4.059   6.669   0.304 -0.7569  1.2999 -0.2801
  471MOL0     H63578   3.893   6.666   0.245  0.1468  0.1283  1.1007
  471MOL0     H63579   4.050   6.713   0.071 -1.7442  0.4935  0.9075
  471MOL0     H63580   4.005   6.541   0.047  0.1132 -0.8856  0.4203
  471MOL0     H63581   4.221   6.477   0.172  2.7919  0.4414 -2.3208
  471MOL0     H63582   4.257   6.640   0.180  0.2653 -1.9257  1.8499
  471MOL0     H63583   4.359   6.495  -0.218 -1.6091  0.0452 -1.0118
  471MOL0     H63584   3.729   6.425   0.618 -1.3048 -1.6164  0.2197
  471MOL0     H63585   3.495   6.427   0.630 -0.2008 -2.1523 -0.6981
  472MOL0     O63586   0.828   2.573   3.774 -0.5837 -0.7107 -1.3601
  472MOL0     C63587   0.883   2.587   3.664 -0.6095  0.3811  0.6347
  472MOL0     O63588   0.838   2.661   3.564  0.3963  0.0456  0.8331
  472MOL0     C63589   0.756   2.766   3.573  0.2503 -0.9773 -0.5399
  472MOL0     C63590   0.745   2.856   3.469 -0.0753  0.2140  1.0935
  472MOL0     C63591   0.671   2.975   3.486 -0.3335 -0.0349  0.6562
  472MOL0     C63592   0.576   3.000   3.586 -0.8078  0.5690 -0.1514
  472MOL0     O63593   0.496   3.110   3.586  0.1950  1.1944 -0.2374
  472MOL0     C63594   0.487   3.195   3.473 -0.5677 -0.9705  0.2434
  472MOL0     C63595   0.395   3.138   3.362  0.4171  0.0758  0.4495
  472MOL0     C63596   0.254   3.076   3.410 -0.1856 -0.0754 -0.2843
  472MOL0     C63597   0.176   3.174   3.495  0.3553 -1.2377 -0.2223
  472MOL0     C63598   0.021   3.141   3.514  0.2579 -0.2060 -0.3776
  472MOL0     C63599  -0.063   3.217   3.412  0.3376 -0.3915 -0.2275
  472MOL0     C63600  -0.204   3.166   3.408  0.7692 -0.0080  0.5206
  472MOL0     C63601  -0.289   3.199   3.528 -0.3189  1.1475 -0.3648
  472MOL0     N63602  -0.426   3.164   3.497  0.5104 -0.2946  0.1102
  472MOL0     C63603  -0.479   3.039   3.478  0.1951 -0.5109 -0.4529
  472MOL0     C63604  -0.614   3.063   3.465 -0.0235 -0.3373  0.9210
  472MOL0     C63605  -0.716   2.952   3.460 -0.2381  0.2584  0.0940
  472MOL0     C63606  -0.741   2.911   3.602 -0.5478  1.3399 -0.0851
  472MOL0     C63607  -0.816   3.010   3.692 -0.4269 -0.2686  0.0089
  472MOL0     C63608  -0.851   2.949   3.822  0.0621  0.1505  0.3666
  472MOL0     O63609  -0.959   2.849   3.816 -0.0299 -0.8916  0.2356
  472MOL0     C63610  -1.087   2.882   3.849 -1.2458 -0.6348  0.0561
  472MOL0     C63611  -1.177   2.774   3.856  0.2418 -0.1003  0.6304
  472MOL0     C63612  -1.311   2.793   3.869 -0.3423 -0.2476  0.2815
  472MOL0     C63613  -1.396   2.671   3.822 -0.4984  0.0476 -0.8468
  472MOL0     C63614  -1.368   2.923   3.887 -0.8015  0.1799  0.1785
  472MOL0     C63615  -1.514   2.970   3.886 -0.2051  0.2469 -0.7153
  472MOL0     O63616  -1.604   2.870   3.863 -0.5772  0.0013 -0.1372
  472MOL0     C63617  -1.739   2.897   3.870  0.3661  0.1722 -0.2870
  472MOL0     C63618  -1.815   2.885   3.757  0.0101 -0.1404 -0.4156
  472MOL0     C63619  -1.950   2.905   3.763 -0.2701  0.3458  0.2664
  472MOL0     C63620  -2.015   2.912   3.882  0.2983 -0.4445  0.9294
  472MOL0     O63621  -2.156   2.909   3.877 -0.5499 -0.0433  0.2403
  472MOL0     C63622  -2.223   2.799   3.948 -0.7843  0.3031 -0.1648
  472MOL0     C63623  -2.373   2.829   3.945  0.2916 -0.1602  0.1931
  472MOL0     C63624  -2.442   2.804   3.813  0.2542 -0.6924  0.6403
  472MOL0     C63625  -2.581   2.870   3.807 -0.5825  0.7056  0.3536
  472MOL0     C63626  -2.687   2.795   3.892  0.2690 -0.6163 -0.1612
  472MOL0     C63627  -2.830   2.856   3.887  0.5065 -0.5546 -0.5720
  472MOL0     C63628  -2.893   2.821   3.745 -0.6920  0.5039 -0.8069
  472MOL0     C63629  -3.044   2.851   3.727  0.1927 -0.4241  0.5312
  472MOL0    Cl63630  -3.084   2.827   3.553 -0.2116  0.2256 -0.4486
  472MOL0     C63631  -1.952   2.927   4.002  0.5589 -0.8355  0.6283
  472MOL0     C63632  -1.812   2.926   3.989 -0.8418 -0.1675 -0.3442
  472MOL0     O63633  -1.538   3.090   3.910 -0.1709  0.4429  0.1710
  472MOL0     C63634  -1.271   3.030   3.904  0.6612  0.7149 -0.2629
  472MOL0     C63635  -1.134   3.012   3.868 -0.1365  0.0397 -0.2995
  472MOL0     N63636  -0.635   3.198   3.479  0.4242 -0.6112  0.6098
  472MOL0     N63637  -0.531   3.250   3.512 -0.1170 -0.4633 -0.1612
  472MOL0     C63638   0.569   2.894   3.680 -0.6635 -0.1098  0.1078
  472MOL0     C63639   0.660   2.786   3.679 -0.5337  0.1749  0.4824
  472MOL0     C63640   1.002   2.509   3.647 -0.2586  0.0594 -0.8645
  472MOL0     C63641   1.059   2.436   3.760 -0.2548  0.8283 -0.9870
  472MOL0     C63642   1.159   2.342   3.745 -0.3665  0.5004  0.0067
  472MOL0     C63643   1.206   2.314   3.616  1.5241 -0.5372 -0.0594
  472MOL0     O63644   1.309   2.225   3.593 -0.1617  0.1519  0.0578
  472MOL0     C63645   1.347   2.131   3.697  0.7843 -0.5730  0.1846
  472MOL0     C63646   1.435   2.024   3.639 -0.4037  0.3456 -0.0501
  472MOL0     C63647   1.572   2.066   3.582 -0.4062 -1.1523 -0.3503
  472MOL0     C63648   1.674   1.947   3.564 -0.1338 -0.7034 -0.6703
  472MOL0     C63649   1.820   1.993   3.565  0.1059 -0.4145  0.4524
  472MOL0     C63650   1.929   2.036   3.566 -0.4160  0.8571 -0.1930
  472MOL0     C63651   1.156   2.384   3.508  0.2359  0.0568  0.8198
  472MOL0     C63652   1.061   2.484   3.518 -0.1789 -0.5028 -0.2301
  472MOL0     H63653   0.812   2.846   3.384 -2.0384  0.4718 -0.5892
  472MOL0     H63654   0.694   3.041   3.403 -1.6760 -1.7689 -1.2000
  472MOL0     H63655   0.440   3.292   3.495  2.0603  0.6672 -0.8328
  472MOL0     H63656   0.585   3.234   3.443  0.0223 -0.8714  2.1689
  472MOL0     H63657   0.381   3.214   3.286  0.7086 -0.6066 -0.2969
  472MOL0     H63658   0.448   3.057   3.311  0.1725  0.4390 -0.3847
  472MOL0     H63659   0.190   3.045   3.327 -1.4192  0.5484  0.4022
  472MOL0     H63660   0.277   2.985   3.468 -0.6318  1.3967  2.3836
  472MOL0     H63661   0.232   3.156   3.587  1.2134 -1.8967 -0.8556
  472MOL0     H63662   0.200   3.276   3.465 -0.1943 -0.5806  1.4533
  472MOL0     H63663   0.010   3.032   3.513  3.1801 -0.5701 -1.7972
  472MOL0     H63664  -0.005   3.194   3.607  2.0771  0.1429 -0.0396
  472MOL0     H63665  -0.057   3.326   3.421  0.9314 -0.3752 -0.7302
  472MOL0     H63666  -0.017   3.194   3.315  1.8244 -0.8368  0.5532
  472MOL0     H63667  -0.256   3.218   3.327  1.2191  4.5390  2.7813
  472MOL0     H63668  -0.205   3.057   3.400 -0.9302  0.0135  0.1579
  472MOL0     H63669  -0.277   3.305   3.552 -2.0022  1.3939 -0.5004
  472MOL0     H63670  -0.242   3.153   3.615  1.1663  1.4299 -0.9847
  472MOL0     H63671  -0.426   2.945   3.476 -0.4164 -0.8607 -1.6503
  472MOL0     H63672  -0.810   2.992   3.423 -1.9883 -0.0802  3.7431
  472MOL0     H63673  -0.681   2.880   3.385 -0.4650  0.4556 -0.1999
  472MOL0     H63674  -0.648   2.880   3.651 -1.7320 -2.4177  0.1172
  472MOL0     H63675  -0.799   2.818   3.595  0.0750  1.0014 -0.8739
  472MOL0     H63676  -0.909   3.041   3.644 -0.7673 -1.2028  0.0587
  472MOL0     H63677  -0.769   3.109   3.699 -0.7299  0.1262 -2.7320
  472MOL0     H63678  -0.876   3.029   3.892 -0.8649  0.2744 -0.0760
  472MOL0     H63679  -0.759   2.906   3.862 -0.1439 -1.9903 -1.2587
  472MOL0     H63680  -1.134   2.677   3.835  1.5084  0.1351  2.0234
  472MOL0     H63681  -1.409   2.692   3.715  4.3032  1.0207 -1.4928
  472MOL0     H63682  -1.334   2.582   3.833 -0.9922 -0.3843 -1.4778
  472MOL0     H63683  -1.489   2.661   3.878  1.3342 -3.2049  2.0457
  472MOL0     H63684  -1.757   2.871   3.666  3.0404 -0.3801  1.4219
  472MOL0     H63685  -2.006   2.914   3.671  0.4713 -1.4737 -0.3935
  472MOL0     H63686  -2.203   2.708   3.891  1.0169  1.2052 -1.0710
  472MOL0     H63687  -2.183   2.804   4.050 -4.0991  3.6807  1.2008
  472MOL0     H63688  -2.432   2.775   4.020 -2.4778  0.4633 -1.3986
  472MOL0     H63689  -2.390   2.932   3.976 -0.1731 -0.4726  1.0015
  472MOL0     H63690  -2.455   2.697   3.798 -0.7749 -0.3754 -1.0320
  472MOL0     H63691  -2.379   2.848   3.736 -1.3604  1.6347  0.5201
  472MOL0     H63692  -2.562   2.967   3.854 -0.3252  0.7752  0.1087
  472MOL0     H63693  -2.615   2.881   3.704 -1.3623 -2.2022  0.2084
  472MOL0     H63694  -2.659   2.808   3.997 -1.5456  0.6994  0.2103
  472MOL0     H63695  -2.683   2.693   3.853  0.1729 -0.9194  0.5936
  472MOL0     H63696  -2.888   2.819   3.972  0.8746  0.4793  0.1582
  472MOL0     H63697  -2.815   2.963   3.906  0.7501 -0.8865  1.3337
  472MOL0     H63698  -2.889   2.712   3.751 -0.6765  0.5792  2.0959
  472MOL0     H63699  -2.836   2.876   3.670  0.7737  1.8051  1.1393
  472MOL0     H63700  -3.063   2.956   3.751  0.8961 -0.1375 -0.1183
  472MOL0     H63701  -3.110   2.791   3.790 -0.0004 -1.8953 -1.0025
  472MOL0     H63702  -2.006   2.948   4.093  2.4754  2.0848  1.2178
  472MOL0     H63703  -1.753   2.919   4.080 -0.0887  0.4959 -0.7781
  472MOL0     H63704  -1.300   3.130   3.936  0.0385 -0.0415  1.6266
  472MOL0     H63705  -1.074   3.103   3.860  2.7492 -1.6918  0.1447
  472MOL0     H63706   0.505   2.898   3.768 -1.3000 -0.8427 -0.3080
  472MOL0     H63707   0.641   2.707   3.750 -1.3971 -1.5256 -1.5354
  472MOL0     H63708   1.032   2.462   3.862 -1.9363  1.4596 -1.5501
  472MOL0     H63709   1.189   2.289   3.835 -4.8002 -0.7445  1.0064
  472MOL0     H63710   1.394   2.181   3.782  0.0480 -2.4702  1.7655
  472MOL0     H63711   1.251   2.093   3.734 -0.5137  2.6174  0.4369
  472MOL0     H63712   1.380   1.970   3.561 -0.9597  1.1215 -0.1987
  472MOL0     H63713   1.458   1.951   3.718 -0.8735  0.9626  0.6585
  472MOL0     H63714   1.611   2.128   3.664 -1.0602 -2.8715  1.3493
  472MOL0     H63715   1.549   2.125   3.493  0.1185 -0.9310 -0.3428
  472MOL0     H63716   1.652   1.905   3.466  1.5205 -1.4484 -0.7586
  472MOL0     H63717   1.657   1.866   3.635  0.1100 -1.3709 -1.3718
  472MOL0     H63718   2.028   2.076   3.562 -0.2691  0.4123 -2.6993
  472MOL0     H63719   1.207   2.366   3.414 -1.7147 -1.3242 -0.0427
  472MOL0     H63720   1.041   2.533   3.423  1.3729 -0.4648 -0.5734
  473MOL0     O63721   6.066   5.717   6.607 -0.2702 -0.6820  0.2802
  473MOL0     C63722   6.120   5.766   6.506 -0.4712 -0.1120  0.9546
  473MOL0     O63723   6.062   5.760   6.383  0.5567 -0.0563  0.2854
  473MOL0     C63724   5.936   5.711   6.372  0.5273  0.3487 -0.6378
  473MOL0     C63725   5.913   5.572   6.345 -0.8056 -0.2484  0.3264
  473MOL0     C63726   5.785   5.515   6.316 -0.3770  0.2544 -0.3921
  473MOL0     C63727   5.675   5.603   6.309 -1.4220  0.3473  0.7842
  473MOL0     O63728   5.554   5.552   6.274 -0.3188  0.2975  0.6345
  473MOL0     C63729   5.438   5.601   6.340 -0.1237 -0.2652 -0.2174
  473MOL0     C63730   5.312   5.517   6.304 -0.0426  0.0486  1.2413
  473MOL0     C63731   5.203   5.577   6.395  0.4977 -0.3389 -0.2514
  473MOL0     C63732   5.057   5.524   6.336 -0.4258  0.8295 -0.1121
  473MOL0     C63733   4.968   5.579   6.443 -0.4468 -0.3072  0.0302
  473MOL0     C63734   4.829   5.571   6.393 -0.6130 -0.3433 -0.4111
  473MOL0     C63735   4.731   5.617   6.504  0.0693  0.4137  0.5964
  473MOL0     C63736   4.584   5.647   6.457  0.2503  0.8001 -0.6170
  473MOL0     N63737   4.488   5.641   6.566  0.1725 -0.6062  0.1252
  473MOL0     C63738   4.436   5.753   6.640 -0.0181 -0.8906  0.0584
  473MOL0     C63739   4.378   5.696   6.744 -0.1426 -0.8057  0.0697
  473MOL0     C63740   4.294   5.769   6.846 -0.2644  0.0403  0.1959
  473MOL0     C63741   4.144   5.767   6.803  0.2104  0.6255 -0.4052
  473MOL0     C63742   4.083   5.635   6.853  0.3513  0.8793 -0.5305
  473MOL0     C63743   3.952   5.622   6.791  0.2811 -0.1751  0.2966
  473MOL0     O63744   3.877   5.742   6.818  0.1890  0.0790  0.0679
  473MOL0     C63745   3.785   5.786   6.728  0.1721 -0.8200 -0.2685
  473MOL0     C63746   3.754   5.725   6.603 -1.1411 -0.1438  0.1769
  473MOL0     C63747   3.650   5.767   6.521 -0.4636 -0.1315  0.2941
  473MOL0     C63748   3.628   5.711   6.388 -0.9102  0.8758 -0.2427
  473MOL0     C63749   3.566   5.872   6.566 -0.7679  0.5704  0.4415
  473MOL0     C63750   3.449   5.905   6.484 -0.3866 -0.5904  0.0994
  473MOL0     O63751   3.326   5.873   6.539 -0.1527 -0.2970  0.3113
  473MOL0     C63752   3.223   5.915   6.459 -0.4281 -0.8181 -0.1372
  473MOL0     C63753   3.175   6.050   6.451  0.2601  0.8143 -0.0030
  473MOL0     C63754   3.066   6.085   6.371 -0.2730 -0.4309 -0.3040
  473MOL0     C63755   2.991   5.974   6.302  0.2931 -0.0510 -1.0890
  473MOL0     O63756   2.864   6.013   6.263  0.1732  0.2408  0.6365
  473MOL0     C63757   2.764   5.926   6.289  0.5129  0.7221  0.3405
  473MOL0     C63758   2.631   5.999   6.264 -0.3165  0.2964 -0.2160
  473MOL0     C63759   2.512   5.917   6.309 -0.0113 -0.5396  0.5121
  473MOL0     C63760   2.378   6.001   6.307 -0.2537 -0.2461 -0.2080
  473MOL0     C63761   2.345   6.050   6.450  0.4680 -0.0707 -0.0056
  473MOL0     C63762   2.208   6.138   6.444 -0.2749  1.1129  0.7267
  473MOL0     C63763   2.162   6.197   6.578 -0.4675  0.0484 -0.4009
  473MOL0     C63764   2.016   6.219   6.579 -0.7103  0.9295 -0.6143
  473MOL0    Cl63765   1.974   6.352   6.461 -0.0688  0.3418 -0.4065
  473MOL0     C63766   3.041   5.841   6.310 -0.2365 -0.3698  0.6394
  473MOL0     C63767   3.158   5.816   6.384  0.4678 -0.3671  0.3840
  473MOL0     O63768   3.467   5.976   6.385 -0.0613  0.0577 -0.0415
  473MOL0     C63769   3.593   5.924   6.694 -0.5492 -0.1941 -0.6543
  473MOL0     C63770   3.697   5.880   6.775 -0.5167 -0.0414 -0.2434
  473MOL0     N63771   4.377   5.559   6.731 -0.0679  0.0525 -0.4502
  473MOL0     N63772   4.438   5.525   6.619 -0.3795 -0.2758  0.8683
  473MOL0     C63773   5.699   5.739   6.322  0.0842  0.0007 -0.3432
  473MOL0     C63774   5.823   5.798   6.351 -0.0829 -0.1600  0.0848
  473MOL0     C63775   6.252   5.839   6.523  0.5917 -0.9776 -0.3354
  473MOL0     C63776   6.335   5.823   6.641 -0.5388  0.4634  0.6720
  473MOL0     C63777   6.455   5.888   6.655 -0.2281  0.7058  0.1284
  473MOL0     C63778   6.499   5.974   6.558  1.4499 -0.0782  0.7349
  473MOL0     O63779   6.618   6.040   6.565  0.4991  0.4421 -0.2565
  473MOL0     C63780   6.737   5.975   6.617  0.7174  0.0318 -0.3580
  473MOL0     C63781   6.851   6.001   6.531  0.0067  0.6572  0.3306
  473MOL0     C63782   6.980   5.935   6.585 -0.4990 -0.0225 -0.0628
  473MOL0     C63783   7.100   5.979   6.502  0.2870  0.4045  0.1477
  473MOL0     C63784   7.222   5.939   6.574  0.5969  0.1884  0.6176
  473MOL0     C63785   7.327   5.909   6.627  0.3706  0.1857  0.5732
  473MOL0     C63786   6.410   6.007   6.451 -0.5240 -0.6093 -0.3693
  473MOL0     C63787   6.290   5.939   6.433  0.5518  0.2721 -0.0174
  473MOL0     H63788   5.994   5.501   6.355 -1.1456 -0.9165 -1.3471
  473MOL0     H63789   5.779   5.412   6.281 -0.8247  1.0765 -2.8625
  473MOL0     H63790   5.443   5.583   6.448  1.5072 -1.0744 -0.3875
  473MOL0     H63791   5.417   5.705   6.316 -1.5557 -0.0012  1.9052
  473MOL0     H63792   5.300   5.557   6.202  1.0807  1.0508  1.4786
  473MOL0     H63793   5.323   5.409   6.296 -1.7018 -0.0263 -1.7806
  473MOL0     H63794   5.210   5.549   6.501 -2.8715  1.5464  0.6317
  473MOL0     H63795   5.208   5.685   6.379  3.0501 -0.2247  0.9239
  473MOL0     H63796   5.031   5.568   6.239 -0.1232  2.6606  0.5853
  473MOL0     H63797   5.049   5.416   6.322 -0.4950  1.0312 -1.9063
  473MOL0     H63798   4.976   5.522   6.536 -1.2192 -3.3552 -1.6347
  473MOL0     H63799   4.981   5.686   6.464  1.9121 -0.1960 -1.5813
  473MOL0     H63800   4.828   5.631   6.302 -2.7759  0.3245 -0.0129
  473MOL0     H63801   4.792   5.472   6.364 -2.1750  0.2395 -0.5247
  473MOL0     H63802   4.734   5.533   6.574  1.0708 -1.2343 -1.3290
  473MOL0     H63803   4.772   5.703   6.559 -0.6242 -0.7725  3.0874
  473MOL0     H63804   4.562   5.559   6.395  0.8581  0.6153 -0.5796
  473MOL0     H63805   4.576   5.739   6.398 -1.1078  0.5266 -0.8899
  473MOL0     H63806   4.459   5.859   6.630 -2.5864 -0.1614  1.2178
  473MOL0     H63807   4.302   5.712   6.939 -1.0798 -0.7241 -0.1879
  473MOL0     H63808   4.325   5.874   6.850  1.4934 -0.3980 -0.8866
  473MOL0     H63809   4.128   5.795   6.698  3.2527  0.3904 -0.9977
  473MOL0     H63810   4.094   5.846   6.860  1.7373  0.8271  0.7050
  473MOL0     H63811   4.066   5.653   6.960 -1.6083  1.7410 -0.9379
  473MOL0     H63812   4.140   5.547   6.821 -1.5894 -0.4446 -0.5189
  473MOL0     H63813   3.904   5.534   6.834 -0.9211 -0.2360 -1.1031
  473MOL0     H63814   3.967   5.604   6.684 -1.2910  1.9301 -0.3587
  473MOL0     H63815   3.801   5.633   6.571 -0.4507  1.0229 -2.3330
  473MOL0     H63816   3.659   5.778   6.307 -0.8994 -1.7155 -2.5109
  473MOL0     H63817   3.670   5.610   6.383 -3.3885 -0.1778 -0.6935
  473MOL0     H63818   3.523   5.686   6.377 -0.9870  1.4373 -0.8272
  473MOL0     H63819   3.217   6.129   6.511  1.5805  1.3120 -1.5011
  473MOL0     H63820   3.040   6.190   6.365  0.4812 -0.1822  0.4747
  473MOL0     H63821   2.783   5.837   6.229  2.4086  0.4146  1.3374
  473MOL0     H63822   2.766   5.897   6.394 -1.0379 -3.3966 -0.5842
  473MOL0     H63823   2.630   6.097   6.312  0.6704  0.6560 -0.8747
  473MOL0     H63824   2.640   6.016   6.156  3.2792  0.8111  0.0391
  473MOL0     H63825   2.535   5.874   6.407  1.2283 -1.4414 -0.1404
  473MOL0     H63826   2.493   5.834   6.240 -1.0655  0.1712 -0.0864
  473MOL0     H63827   2.390   6.084   6.237 -0.8484 -1.0458 -1.2727
  473MOL0     H63828   2.288   5.946   6.278 -1.1701 -0.5434  2.7942
  473MOL0     H63829   2.426   6.111   6.492  1.5607 -0.8458 -0.9333
  473MOL0     H63830   2.330   5.961   6.512  1.0280  0.7852  1.4073
  473MOL0     H63831   2.237   6.217   6.374 -0.2754  0.8344  0.4052
  473MOL0     H63832   2.126   6.086   6.394 -1.2504  1.2911  2.0894
  473MOL0     H63833   2.213   6.293   6.595  0.6188 -0.2595 -1.6573
  473MOL0     H63834   2.179   6.129   6.661 -0.2887 -1.5145 -1.6733
  473MOL0     H63835   1.974   6.252   6.674  0.0146 -0.9022  0.4089
  473MOL0     H63836   1.970   6.122   6.557  1.7058 -0.4272  0.0035
  473MOL0     H63837   2.983   5.760   6.266 -1.8619  0.6378  0.8458
  473MOL0     H63838   3.197   5.715   6.395  1.4508 -0.1074 -0.5551
  473MOL0     H63839   3.519   5.999   6.722 -2.6991 -0.8504 -4.0226
  473MOL0     H63840   3.701   5.918   6.877  0.5181 -1.1642  0.1677
  473MOL0     H63841   5.610   5.802   6.322  1.3333  1.8566  0.1899
  473MOL0     H63842   5.847   5.902   6.374  1.3771 -0.0759 -1.6002
  473MOL0     H63843   6.304   5.745   6.710  0.5131 -0.4975  0.0798
  473MOL0     H63844   6.507   5.880   6.750 -0.2380  2.5192  0.3227
  473MOL0     H63845   6.757   6.000   6.722  0.4487 -0.0555 -0.2856
  473MOL0     H63846   6.720   5.867   6.616  0.1864  0.0587  1.5525
  473MOL0     H63847   6.862   6.109   6.543  0.5948  0.5005  1.2255
  473MOL0     H63848   6.832   5.976   6.426  0.1662  1.3079  0.1482
  473MOL0     H63849   6.974   5.828   6.564 -1.6783  0.6747 -4.4535
  473MOL0     H63850   6.999   5.962   6.689  1.1927  1.6983 -0.7647
  473MOL0     H63851   7.098   6.088   6.488 -2.9679  0.5016  0.6671
  473MOL0     H63852   7.105   5.932   6.404  2.1578 -1.1275  0.8974
  473MOL0     H63853   7.421   5.874   6.665 -0.5919 -3.2137  0.1555
  473MOL0     H63854   6.425   6.085   6.377 -3.8043 -1.5275 -2.1758
  473MOL0     H63855   6.227   5.967   6.349 -1.3652 -1.4767  0.7441
  474MOL0     O63856   6.977   8.770   9.143  0.8597 -0.3237  0.0642
  474MOL0     C63857   7.076   8.711   9.118 -0.1102  0.1787  0.0799
  474MOL0     O63858   7.091   8.570   9.119  0.8203 -0.5552 -0.2780
  474MOL0     C63859   6.982   8.490   9.139  0.4109  0.0128 -0.1063
  474MOL0     C63860   7.014   8.367   9.188 -0.5085 -0.1114 -1.0369
  474MOL0     C63861   6.920   8.269   9.196 -0.6472 -0.2997  0.3406
  474MOL0     C63862   6.787   8.293   9.160 -0.3392 -0.2133 -0.4073
  474MOL0     O63863   6.701   8.193   9.182 -0.0498 -0.0192 -0.3343
  474MOL0     C63864   6.574   8.228   9.231 -0.5613 -0.1072 -0.3571
  474MOL0     C63865   6.467   8.162   9.138 -0.7062  0.3400  0.2606
  474MOL0     C63866   6.334   8.229   9.144  0.6096  0.1904 -0.2458
  474MOL0     C63867   6.224   8.147   9.075  0.2846 -1.4766 -0.0606
  474MOL0     C63868   6.084   8.208   9.093 -0.3245  0.2650 -0.6473
  474MOL0     C63869   5.984   8.146   8.992  0.6072 -0.0916  0.9188
  474MOL0     C63870   5.959   8.002   8.985  0.6284  0.4989 -0.6887
  474MOL0     C63871   5.883   7.956   9.110  0.4834 -0.6970  0.4066
  474MOL0     N63872   5.742   8.009   9.106 -0.0154  0.1631 -0.2227
  474MOL0     C63873   5.643   7.951   9.032 -0.2152  0.3316  0.0002
  474MOL0     C63874   5.533   7.989   9.091 -0.1483 -0.5269 -0.6721
  474MOL0     C63875   5.395   7.956   9.037  0.3913  0.2475 -0.9725
  474MOL0     C63876   5.328   7.862   9.135  0.2212  0.0454  0.1558
  474MOL0     C63877   5.177   7.852   9.115  0.5950 -0.0069 -0.1663
  474MOL0     C63878   5.137   7.791   8.983  0.0392 -1.0168  0.3399
  474MOL0     O63879   4.996   7.803   8.961  0.4853 -0.0992  0.6154
  474MOL0     C63880   4.908   7.742   9.046 -0.2039 -0.5480 -0.1652
  474MOL0     C63881   4.934   7.637   9.142 -0.2427 -0.3255 -0.1594
  474MOL0     C63882   4.833   7.568   9.205  0.1700 -0.5707 -0.1785
  474MOL0     C63883   4.880   7.478   9.318 -0.8295  0.5765  0.8684
  474MOL0     C63884   4.698   7.595   9.178  0.8328 -0.1892  0.2538
  474MOL0     C63885   4.577   7.541   9.232  0.2586 -0.4195 -0.1691
  474MOL0     O63886   4.457   7.614   9.233 -0.5002  0.3372 -0.2672
  474MOL0     C63887   4.348   7.557   9.296  0.3122  0.8696 -0.0018
  474MOL0     C63888   4.312   7.599   9.421  0.0331 -0.2936 -0.8051
  474MOL0     C63889   4.196   7.549   9.483  0.6600  0.2680 -0.8356
  474MOL0     C63890   4.111   7.465   9.408  0.0001 -0.5250  0.1962
  474MOL0     O63891   3.985   7.427   9.452 -0.0034  0.9652 -0.0445
  474MOL0     C63892   3.919   7.511   9.549 -0.4851 -0.5382  0.3490
  474MOL0     C63893   3.772   7.473   9.591 -0.0736  1.0299  0.7174
  474MOL0     C63894   3.723   7.352   9.511  0.2771 -0.4498  0.2217
  474MOL0     C63895   3.567   7.361   9.505 -0.3155 -0.2085  0.2705
  474MOL0     C63896   3.509   7.236   9.437  0.1106 -0.0360 -0.6491
  474MOL0     C63897   3.523   7.108   9.531  0.1463  0.6363  0.7761
  474MOL0     C63898   3.436   6.987   9.490 -0.3339 -0.5971 -0.5339
  474MOL0     C63899   3.294   7.033   9.492  0.0984 -0.4041 -0.2933
  474MOL0    Cl63900   3.178   6.891   9.462  0.8482 -0.1445  0.4122
  474MOL0     C63901   4.149   7.417   9.286 -0.5327  0.1613 -0.0688
  474MOL0     C63902   4.268   7.457   9.239 -0.1660  0.3139 -0.4502
  474MOL0     O63903   4.591   7.423   9.264 -0.3285 -0.4683 -0.7732
  474MOL0     C63904   4.678   7.712   9.098 -0.2197  0.0467  0.4687
  474MOL0     C63905   4.777   7.781   9.028  0.1844 -0.1210 -0.2961
  474MOL0     N63906   5.563   8.070   9.207 -0.2158  0.1067  0.3057
  474MOL0     N63907   5.687   8.081   9.210  0.3800  0.2264  0.1076
  474MOL0     C63908   6.757   8.414   9.097 -0.1324 -0.2739  0.1666
  474MOL0     C63909   6.856   8.508   9.087 -0.0312  0.1552  0.1481
  474MOL0     C63910   7.205   8.784   9.085  0.8807  0.0292 -0.2594
  474MOL0     C63911   7.199   8.927   9.090 -0.7054 -0.1459 -0.4461
  474MOL0     C63912   7.312   9.003   9.062  0.5946  0.7629  0.6708
  474MOL0     C63913   7.427   8.943   9.022 -0.5349  0.4196  0.3283
  474MOL0     O63914   7.526   9.031   8.989  0.3672 -1.0046 -0.3475
  474MOL0     C63915   7.663   8.999   8.980 -0.3799 -0.7862  0.3550
  474MOL0     C63916   7.736   9.061   9.106 -0.0899  0.2520 -0.1039
  474MOL0     C63917   7.881   9.024   9.106  0.0672 -0.5896 -0.3866
  474MOL0     C63918   7.984   9.120   9.042 -0.3224 -0.5864 -0.4679
  474MOL0     C63919   8.113   9.097   9.111  0.3582  0.1641  1.3210
  474MOL0     C63920   8.223   9.083   9.160  0.5150 -0.4629  0.4641
  474MOL0     C63921   7.432   8.802   9.018  0.2937  0.2817 -1.2828
  474MOL0     C63922   7.323   8.725   9.046  0.9126 -0.0269  0.6324
  474MOL0     H63923   7.116   8.340   9.214  1.4555  3.9120 -3.4442
  474MOL0     H63924   6.939   8.170   9.238 -2.3878 -0.4490  0.8674
  474MOL0     H63925   6.560   8.181   9.329  2.3904  0.1683  0.3098
  474MOL0     H63926   6.560   8.336   9.225  1.4037  0.0782 -3.7184
  474MOL0     H63927   6.517   8.172   9.041  0.3215  2.7854  0.9681
  474MOL0     H63928   6.457   8.057   9.168  0.5900  0.7230  2.2648
  474MOL0     H63929   6.301   8.241   9.248  0.8289 -0.6135 -0.0816
  474MOL0     H63930   6.336   8.330   9.101  1.8691  0.6816  0.9009
  474MOL0     H63931   6.248   8.158   8.969  1.8708  2.6833  0.5481
  474MOL0     H63932   6.230   8.043   9.109 -1.5308 -1.9124 -0.9792
  474MOL0     H63933   6.054   8.184   9.196  0.6291  0.6487 -0.2715
  474MOL0     H63934   6.081   8.317   9.081  0.8972  0.0947 -2.9274
  474MOL0     H63935   5.891   8.204   8.994 -1.2725 -2.9215  2.2615
  474MOL0     H63936   6.032   8.175   8.898  0.7446  0.3604  1.1260
  474MOL0     H63937   5.893   7.981   8.899  1.1918  0.3205 -1.0822
  474MOL0     H63938   6.048   7.943   8.962 -0.2240 -0.8556 -0.6432
  474MOL0     H63939   5.943   7.993   9.194  1.4373 -0.5604 -0.3166
  474MOL0     H63940   5.871   7.847   9.116 -1.6345 -0.4749  1.1409
  474MOL0     H63941   5.653   7.869   8.961 -0.1162 -0.0413  0.4395
  474MOL0     H63942   5.354   8.056   9.015  2.2144  1.2411 -0.0293
  474MOL0     H63943   5.409   7.904   8.942 -0.1511 -0.3506 -0.7303
  474MOL0     H63944   5.342   7.905   9.235  1.0892  0.4298 -0.1243
  474MOL0     H63945   5.368   7.761   9.136  0.4244  0.0668  3.3424
  474MOL0     H63946   5.134   7.951   9.136  1.8332  0.2882  1.1163
  474MOL0     H63947   5.140   7.783   9.191 -0.7727  1.7955  0.9025
  474MOL0     H63948   5.184   7.692   8.974  0.9764 -0.6083  0.5615
  474MOL0     H63949   5.185   7.842   8.899  0.0554  0.3030  1.1208
  474MOL0     H63950   5.035   7.599   9.155  0.1733  0.9120  0.3554
  474MOL0     H63951   4.955   7.532   9.375  0.3628 -0.1827  0.0612
  474MOL0     H63952   4.799   7.454   9.388 -0.4369  2.0433  1.8685
  474MOL0     H63953   4.925   7.395   9.262 -2.1213  1.6739 -2.0005
  474MOL0     H63954   4.371   7.672   9.476  1.1378 -1.6593 -0.1077
  474MOL0     H63955   4.173   7.591   9.580  3.2770 -1.5820  0.7041
  474MOL0     H63956   3.987   7.520   9.634  0.8903  2.8252 -0.9000
  474MOL0     H63957   3.915   7.616   9.515 -2.2411 -0.5577  0.4074
  474MOL0     H63958   3.767   7.445   9.697  2.9004 -0.5935  0.5481
  474MOL0     H63959   3.709   7.558   9.566  0.0702  0.7741 -0.6186
  474MOL0     H63960   3.759   7.256   9.548 -1.0323 -1.0096  0.0683
  474MOL0     H63961   3.756   7.354   9.406 -3.2699 -3.0107 -1.1276
  474MOL0     H63962   3.521   7.387   9.601  1.0975  0.4292  0.8035
  474MOL0     H63963   3.546   7.443   9.435 -2.7809 -0.1711  0.9532
  474MOL0     H63964   3.565   7.220   9.344  2.8951  3.9155  0.0706
  474MOL0     H63965   3.409   7.270   9.411 -0.8579 -1.8542  0.5380
  474MOL0     H63966   3.625   7.070   9.531 -0.4739 -1.1946  2.0624
  474MOL0     H63967   3.494   7.139   9.632  1.2408  0.9187  1.0095
  474MOL0     H63968   3.459   6.912   9.567  2.7132 -1.6869 -2.3147
  474MOL0     H63969   3.471   6.953   9.392  1.9580 -1.0915  0.3757
  474MOL0     H63970   3.281   7.101   9.407 -0.5504 -0.5686 -0.3321
  474MOL0     H63971   3.281   7.091   9.583  1.1234  1.5320 -1.3175
  474MOL0     H63972   4.077   7.357   9.231 -1.9126  0.4618  1.3400
  474MOL0     H63973   4.297   7.432   9.138 -1.8619 -0.3094 -0.8015
  474MOL0     H63974   4.581   7.758   9.087 -0.3284 -0.2027  0.3682
  474MOL0     H63975   4.755   7.867   8.965 -3.9534  0.5178  1.6945
  474MOL0     H63976   6.657   8.438   9.065  0.5561  1.0530 -1.1162
  474MOL0     H63977   6.842   8.601   9.034 -0.1146  0.1452  0.1527
  474MOL0     H63978   7.107   8.973   9.125 -1.3181 -0.9454 -0.9651
  474MOL0     H63979   7.330   9.106   9.093  2.0208  1.2015 -1.4407
  474MOL0     H63980   7.672   8.891   8.970 -2.9490 -1.1368  1.0686
  474MOL0     H63981   7.705   9.053   8.895  0.5499  1.1362  1.9290
  474MOL0     H63982   7.693   9.006   9.190 -0.2176  1.0745  0.3766
  474MOL0     H63983   7.707   9.161   9.140 -1.1539 -1.1345  3.4508
  474MOL0     H63984   7.887   8.926   9.058  1.5090  0.0445 -1.5789
  474MOL0     H63985   7.902   9.019   9.213 -1.2753  3.7202  0.2809
  474MOL0     H63986   7.954   9.224   9.053 -0.1604 -0.3966 -1.7198
  474MOL0     H63987   7.995   9.104   8.934 -0.0756 -0.5793 -0.4436
  474MOL0     H63988   8.318   9.072   9.208  1.2335  1.5241 -0.3804
  474MOL0     H63989   7.508   8.738   8.973 -1.0780 -2.9775  0.7350
  474MOL0     H63990   7.331   8.618   9.031 -0.3948 -0.0568  0.0153
  475MOL0     O63991   9.210   5.937   2.029  0.8270 -0.4945 -0.6060
  475MOL0     C63992   9.212   5.877   2.138 -0.1244 -1.2735  0.4968
  475MOL0     O63993   9.104   5.847   2.210  0.7018 -0.2835 -0.0483
  475MOL0     C63994   8.972   5.842   2.170  0.2618 -0.2052  0.6266
  475MOL0     C63995   8.933   5.826   2.036  0.3509  0.3448  0.2599
  475MOL0     C63996   8.794   5.843   2.000  0.0186  0.4075 -0.4579
  475MOL0     C63997   8.702   5.851   2.099 -0.3445  0.0675 -0.9100
  475MOL0     O63998   8.569   5.835   2.068  0.2453 -0.1680  0.3802
  475MOL0     C63999   8.518   5.912   1.961  0.7349 -0.0206 -0.4602
  475MOL0     C64000   8.375   5.957   1.996  0.9874  0.0457 -0.9110
  475MOL0     C64001   8.268   5.857   2.023  0.5981 -0.3647 -0.6554
  475MOL0     C64002   8.136   5.937   2.040 -0.3190 -0.4487  0.6580
  475MOL0     C64003   8.015   5.858   2.013 -0.5225  0.0072 -0.2966
  475MOL0     C64004   7.887   5.945   2.026 -0.5680  0.1592 -0.8145
  475MOL0     C64005   7.756   5.861   2.015  0.2998 -0.4657  0.3691
  475MOL0     C64006   7.771   5.721   1.943  0.6041 -0.1514  0.2972
  475MOL0     N64007   7.646   5.652   1.899 -0.0519  0.1425 -0.2183
  475MOL0     C64008   7.576   5.560   1.971  0.1905 -0.1231  0.3706
  475MOL0     C64009   7.491   5.516   1.880  0.7995  0.4744  0.1371
  475MOL0     C64010   7.402   5.392   1.906 -0.0719  0.6824  0.6565
  475MOL0     C64011   7.464   5.275   1.996  0.5319 -0.6554 -0.5468
  475MOL0     C64012   7.571   5.197   1.917 -1.0788 -0.2252  0.6560
  475MOL0     C64013   7.618   5.066   1.981  0.5612 -0.4951  0.4352
  475MOL0     O64014   7.668   5.086   2.111  0.1626  0.0047  0.0739
  475MOL0     C64015   7.780   5.156   2.141 -0.2815 -1.1719 -0.2990
  475MOL0     C64016   7.803   5.231   2.265  0.4169  1.1136  0.5723
  475MOL0     C64017   7.920   5.301   2.290 -0.4370  0.7517  0.9660
  475MOL0     C64018   7.921   5.358   2.428 -0.3895  0.3280 -0.1761
  475MOL0     C64019   8.017   5.310   2.198  0.0824  0.7366  0.8510
  475MOL0     C64020   8.149   5.383   2.209 -0.3339  0.5924 -0.0783
  475MOL0     O64021   8.226   5.372   2.098 -0.8120  0.2122 -0.1981
  475MOL0     C64022   8.367   5.374   2.109 -0.0046 -0.7584 -0.0789
  475MOL0     C64023   8.445   5.274   2.055 -0.2420 -0.5891  0.0670
  475MOL0     C64024   8.587   5.283   2.057 -0.2253 -0.6287  0.7496
  475MOL0     C64025   8.649   5.396   2.130 -0.5390 -0.5448  0.2445
  475MOL0     O64026   8.787   5.406   2.127  0.9511  0.0814  0.5290
  475MOL0     C64027   8.873   5.490   2.204 -0.9548 -0.9003 -0.2818
  475MOL0     C64028   8.966   5.397   2.281  0.1020 -0.3931 -0.7452
  475MOL0     C64029   9.065   5.318   2.193 -0.3685 -0.0028  0.5116
  475MOL0     C64030   9.181   5.258   2.272  0.4689 -0.3557  0.8971
  475MOL0     C64031   9.244   5.155   2.175  0.0587  0.3950  0.3484
  475MOL0     C64032   9.393   5.139   2.220 -0.3441  0.0387 -0.1458
  475MOL0     C64033   9.464   5.035   2.127  1.4536 -0.3805 -0.2320
  475MOL0     C64034   9.602   5.013   2.174 -0.6812  0.0974 -0.5145
  475MOL0    Cl64035   9.689   4.882   2.064 -0.1206  0.0758  0.8720
  475MOL0     C64036   8.567   5.495   2.177  0.2157 -0.0286 -0.0341
  475MOL0     C64037   8.430   5.487   2.160 -0.3348 -0.1629  0.2823
  475MOL0     O64038   8.177   5.444   2.309  0.2234  0.0894 -0.1198
  475MOL0     C64039   7.997   5.242   2.069 -0.0868 -1.0901  0.4998
  475MOL0     C64040   7.879   5.172   2.045 -0.2884  0.1178 -0.5693
  475MOL0     N64041   7.491   5.591   1.767 -0.1311  0.2708 -0.3735
  475MOL0     N64042   7.585   5.675   1.777 -0.2332  0.2236  0.7839
  475MOL0     C64043   8.735   5.864   2.234 -0.1831 -0.0399  0.9903
  475MOL0     C64044   8.868   5.868   2.267  0.2935 -0.1012 -0.6810
  475MOL0     C64045   9.345   5.842   2.180 -0.0449  0.5637  1.3669
  475MOL0     C64046   9.468   5.898   2.121 -0.4621  0.4233 -0.2572
  475MOL0     C64047   9.593   5.847   2.154  0.4560 -0.4358 -0.4594
  475MOL0     C64048   9.607   5.736   2.243  0.3427 -0.2612  0.1215
  475MOL0     O64049   9.727   5.676   2.270 -0.4321  0.2790 -0.3215
  475MOL0     C64050   9.843   5.754   2.287  0.4086 -0.0793 -0.3356
  475MOL0     C64051   9.975   5.683   2.274 -1.0577 -0.8922  0.4613
  475MOL0     C64052  10.000   5.563   2.367  0.0442  0.3283  1.1872
  475MOL0     C64053  10.002   5.590   2.517 -0.2332  0.1172  0.0077
  475MOL0     C64054   9.915   5.503   2.595  0.3082 -0.0104 -0.3867
  475MOL0     C64055   9.853   5.445   2.678 -0.2134 -0.7695 -0.9657
  475MOL0     C64056   9.487   5.679   2.292  0.4059  0.0131  0.4748
  475MOL0     C64057   9.361   5.736   2.273 -0.0937  0.3796 -0.5651
  475MOL0     H64058   9.009   5.817   1.959 -2.1117  1.6005 -2.4847
  475MOL0     H64059   8.757   5.824   1.900  4.4478  0.4770 -2.3376
  475MOL0     H64060   8.573   6.002   1.931  2.3926 -0.4436  1.1521
  475MOL0     H64061   8.509   5.850   1.871  0.4693 -0.7921  0.0888
  475MOL0     H64062   8.378   6.021   2.084 -0.3253  0.5856 -1.2429
  475MOL0     H64063   8.346   6.012   1.905 -2.5803 -0.7728 -0.3834
  475MOL0     H64064   8.270   5.787   1.939  2.0613  0.8239 -1.6713
  475MOL0     H64065   8.291   5.811   2.119  0.3104  1.5940  0.3951
  475MOL0     H64066   8.147   5.978   2.141  1.6811 -0.4369  0.4695
  475MOL0     H64067   8.131   6.026   1.977 -1.6575 -1.9897 -1.5324
  475MOL0     H64068   8.026   5.827   1.909 -2.4547  0.7489 -0.7507
  475MOL0     H64069   8.006   5.770   2.078 -3.5558  0.7022  0.3804
  475MOL0     H64070   7.881   5.988   2.126 -0.7247 -2.0359  0.1816
  475MOL0     H64071   7.896   6.026   1.952 -0.2166  1.9956  1.1499
  475MOL0     H64072   7.709   5.839   2.112 -2.5401  0.2407 -0.7359
  475MOL0     H64073   7.679   5.915   1.961 -0.3937 -1.8873 -0.1140
  475MOL0     H64074   7.830   5.659   2.012  1.0826 -0.6859 -0.5648
  475MOL0     H64075   7.837   5.730   1.856  1.7689 -1.6319  0.9724
  475MOL0     H64076   7.602   5.512   2.065  0.3715 -1.1843 -0.2111
  475MOL0     H64077   7.306   5.419   1.951 -0.7573 -1.2054  0.4070
  475MOL0     H64078   7.378   5.355   1.806  2.9279  0.5662 -0.1158
  475MOL0     H64079   7.389   5.204   2.029  1.0844 -0.3922  1.4146
  475MOL0     H64080   7.504   5.322   2.086 -1.1583 -0.0554 -0.0806
  475MOL0     H64081   7.666   5.251   1.906  0.1086 -2.3233  0.0686
  475MOL0     H64082   7.538   5.188   1.813  2.6353 -2.1257 -0.5240
  475MOL0     H64083   7.694   5.019   1.916  3.4120  3.1672  0.7938
  475MOL0     H64084   7.533   4.998   1.987 -0.2516  0.3635 -0.7877
  475MOL0     H64085   7.724   5.225   2.339  0.3444 -0.5471  0.4015
  475MOL0     H64086   7.821   5.358   2.471  0.8509  0.3616  3.0024
  475MOL0     H64087   7.988   5.295   2.487 -2.0415 -1.4691 -0.1077
  475MOL0     H64088   7.960   5.460   2.429  0.0189  0.1789 -0.3266
  475MOL0     H64089   8.390   5.199   1.999  0.3766 -2.0897  1.3717
  475MOL0     H64090   8.648   5.207   2.011  1.8806  0.3556  1.7353
  475MOL0     H64091   8.936   5.550   2.137 -3.7438 -0.1848 -2.4733
  475MOL0     H64092   8.816   5.554   2.272  1.2434  0.0993  0.7188
  475MOL0     H64093   9.039   5.457   2.336 -1.0360 -0.4686  0.9330
  475MOL0     H64094   8.906   5.346   2.357 -0.3622  0.9094 -0.2015
  475MOL0     H64095   9.101   5.387   2.116  1.2123  2.2021  3.0396
  475MOL0     H64096   9.013   5.235   2.144 -0.5319  1.7894 -2.5680
  475MOL0     H64097   9.249   5.336   2.308 -1.4206  1.9396 -0.2194
  475MOL0     H64098   9.141   5.203   2.357  1.9502 -3.8339 -0.4894
  475MOL0     H64099   9.234   5.194   2.074 -0.2452 -3.2547 -1.2022
  475MOL0     H64100   9.186   5.062   2.172 -2.0785  1.6767 -0.2329
  475MOL0     H64101   9.440   5.237   2.210 -0.2055 -0.0154 -0.0238
  475MOL0     H64102   9.385   5.110   2.325 -1.1719 -3.4029 -1.0245
  475MOL0     H64103   9.469   5.079   2.027  0.6163  0.0368 -0.0972
  475MOL0     H64104   9.408   4.941   2.116  2.8310 -1.3781  0.9603
  475MOL0     H64105   9.587   4.975   2.275  1.2403  2.2245  0.6756
  475MOL0     H64106   9.654   5.110   2.177 -0.7033  0.0900  0.9615
  475MOL0     H64107   8.611   5.581   2.226  4.1325 -0.5544 -2.2020
  475MOL0     H64108   8.371   5.574   2.187 -1.0237 -0.4426 -0.2898
  475MOL0     H64109   8.072   5.237   1.991 -0.9632  0.7565 -0.5300
  475MOL0     H64110   7.863   5.122   1.950 -0.8373 -2.3001  0.7295
  475MOL0     H64111   8.665   5.869   2.317 -1.9179 -0.6993 -0.3454
  475MOL0     H64112   8.896   5.883   2.371  1.0469  2.6440 -1.1933
  475MOL0     H64113   9.468   5.975   2.043  0.6568 -1.4418 -2.2084
  475MOL0     H64114   9.676   5.900   2.110  0.5160 -1.1163 -1.1768
  475MOL0     H64115   9.844   5.832   2.211 -2.8078 -0.1414 -0.6042
  475MOL0     H64116   9.845   5.803   2.385  1.5432 -1.5570  0.4133
  475MOL0     H64117  10.059   5.751   2.289 -1.0302 -0.6397 -0.7220
  475MOL0     H64118   9.993   5.651   2.171  1.3823  0.5649  0.3560
  475MOL0     H64119  10.094   5.511   2.351 -1.2186 -1.6568 -0.1532
  475MOL0     H64120   9.918   5.493   2.348 -0.4449  0.5064  2.5330
  475MOL0     H64121   9.973   5.693   2.541  0.6534  0.1227  1.1147
  475MOL0     H64122  10.105   5.591   2.553  0.2295 -1.4621 -1.1706
  475MOL0     H64123   9.799   5.391   2.754 -1.0649  3.1078  1.4543
  475MOL0     H64124   9.492   5.599   2.365 -2.4529 -1.8510 -1.1637
  475MOL0     H64125   9.278   5.694   2.328  0.6240 -0.4156 -0.0465
  476MOL0     O64126   8.580   4.912   5.881  0.3577  0.1989  0.6778
  476MOL0     C64127   8.606   4.832   5.964  0.1366  0.4098  0.6237
  476MOL0     O64128   8.513   4.762   6.036  0.8772  0.0905 -0.0629
  476MOL0     C64129   8.381   4.773   6.002 -0.0784 -0.7020 -0.0520
  476MOL0     C64130   8.311   4.673   5.933 -0.7289  0.3823 -0.3607
  476MOL0     C64131   8.181   4.692   5.889  1.1947  0.1709 -0.0209
  476MOL0     C64132   8.117   4.818   5.919 -0.1182  0.0538  0.1625
  476MOL0     O64133   7.980   4.846   5.893  0.2700 -0.3405 -0.2502
  476MOL0     C64134   7.906   4.753   5.810 -0.6142 -0.0246 -0.8469
  476MOL0     C64135   7.754   4.755   5.850 -0.5472 -0.0308  0.0529
  476MOL0     C64136   7.689   4.647   5.761  0.1837  0.5404  0.5993
  476MOL0     C64137   7.526   4.647   5.777 -0.5529 -0.4581  0.6571
  476MOL0     C64138   7.465   4.782   5.743 -0.1683 -1.0933 -0.0635
  476MOL0     C64139   7.322   4.790   5.731  0.8505 -0.2901 -0.0491
  476MOL0     C64140   7.256   4.726   5.846  1.0588  0.2871  0.3256
  476MOL0     C64141   7.109   4.765   5.851  0.2247  0.3672 -0.3332
  476MOL0     N64142   7.031   4.701   5.955  0.0115  0.2103  0.0830
  476MOL0     C64143   7.058   4.691   6.090  0.0442 -0.0009 -0.7026
  476MOL0     C64144   6.962   4.603   6.135  1.1451 -1.0536  0.2128
  476MOL0     C64145   6.932   4.571   6.282 -0.3767  0.6481 -0.1016
  476MOL0     C64146   6.811   4.610   6.347 -0.3788  0.1311  0.0282
  476MOL0     C64147   6.804   4.761   6.368 -0.6882 -0.2282 -0.3038
  476MOL0     C64148   6.674   4.805   6.428 -0.6593  0.1117 -0.8347
  476MOL0     O64149   6.660   4.746   6.558 -0.0807  0.2815 -0.6762
  476MOL0     C64150   6.534   4.728   6.618 -0.1185 -0.3150 -0.3707
  476MOL0     C64151   6.457   4.616   6.600 -0.1361  0.1584 -0.0759
  476MOL0     C64152   6.327   4.592   6.651 -0.6053  0.2893 -0.5419
  476MOL0     C64153   6.263   4.454   6.631  0.5922 -0.9802  0.5244
  476MOL0     C64154   6.268   4.705   6.725 -0.2331 -0.0111 -0.9181
  476MOL0     C64155   6.123   4.717   6.767  0.0616 -0.2141  0.4766
  476MOL0     O64156   6.088   4.829   6.832  0.5863  0.8274  0.0449
  476MOL0     C64157   5.961   4.869   6.843 -1.0760  0.0148 -0.2174
  476MOL0     C64158   5.935   4.960   6.949  0.1929  0.0861 -0.0653
  476MOL0     C64159   5.800   4.996   6.978 -0.0104 -0.1580  0.5167
  476MOL0     C64160   5.695   4.963   6.890  0.1808 -0.3274  0.9173
  476MOL0     O64161   5.562   4.985   6.923 -0.1862 -0.1593 -0.1628
  476MOL0     C64162   5.458   4.908   6.859  0.6405 -0.4121 -0.5244
  476MOL0     C64163   5.331   4.936   6.946 -1.2867 -0.3485  0.2372
  476MOL0     C64164   5.212   4.883   6.865 -0.9011  0.1441 -0.9647
  476MOL0     C64165   5.085   4.897   6.936 -0.5826 -0.0484 -0.0726
  476MOL0     C64166   4.980   4.808   6.880 -0.4025 -0.4060  0.4116
  476MOL0     C64167   4.847   4.814   6.962 -0.2607  0.0862  0.4121
  476MOL0     C64168   4.754   4.708   6.910  0.6175 -0.0836  1.1619
  476MOL0     C64169   4.609   4.737   6.933  0.2231 -0.4317  0.0969
  476MOL0    Cl64170   4.570   4.722   7.111  0.1375 -0.3617 -0.0423
  476MOL0     C64171   5.731   4.872   6.785 -0.1076 -0.4827 -0.2146
  476MOL0     C64172   5.862   4.828   6.761 -0.0850  0.0793 -0.2386
  476MOL0     O64173   6.046   4.625   6.741 -0.1277 -0.1579 -0.3508
  476MOL0     C64174   6.352   4.816   6.746  0.2667 -0.4813 -0.7439
  476MOL0     C64175   6.479   4.831   6.685  0.5811 -0.0397 -0.3602
  476MOL0     N64176   6.889   4.558   6.028  0.0087 -0.5835  0.0790
  476MOL0     N64177   6.931   4.613   5.923  0.4007  0.4289 -1.1591
  476MOL0     C64178   8.182   4.911   5.998 -0.0477 -0.4219  0.4694
  476MOL0     C64179   8.313   4.884   6.041  0.2007 -0.0836  0.5424
  476MOL0     C64180   8.755   4.811   5.991 -0.4821 -0.1772  0.6669
  476MOL0     C64181   8.799   4.745   6.104  0.7471 -0.5985 -0.4356
  476MOL0     C64182   8.932   4.758   6.153  0.0093 -0.1055 -0.0627
  476MOL0     C64183   9.033   4.822   6.078  0.3689  0.6122  0.0225
  476MOL0     O64184   9.167   4.832   6.103 -0.4555 -0.3338 -0.1272
  476MOL0     C64185   9.228   4.756   6.208 -0.3319  0.1625 -0.3667
  476MOL0     C64186   9.362   4.815   6.246  0.1972  0.3823  0.0383
  476MOL0     C64187   9.456   4.843   6.117 -0.1844  1.0004 -0.6760
  476MOL0     C64188   9.513   4.711   6.065  0.2355 -0.2164 -0.0719
  476MOL0     C64189   9.637   4.721   5.988 -0.3589  0.4713 -0.5206
  476MOL0     C64190   9.740   4.712   5.918  0.2157  0.2361  0.4488
  476MOL0     C64191   8.990   4.873   5.958 -0.8564 -0.0553  0.3741
  476MOL0     C64192   8.859   4.870   5.915 -0.0289  0.4678 -0.5429
  476MOL0     H64193   8.358   4.577   5.920 -0.0161  0.6405  0.2287
  476MOL0     H64194   8.130   4.618   5.827 -1.0203  0.1871  1.6388
  476MOL0     H64195   7.917   4.763   5.701  0.3302 -0.7259 -0.8304
  476MOL0     H64196   7.935   4.651   5.834 -3.0112 -0.2859  1.3092
  476MOL0     H64197   7.721   4.740   5.953  0.8515 -0.4380  0.4587
  476MOL0     H64198   7.712   4.852   5.821 -3.5866 -1.6970 -1.6729
  476MOL0     H64199   7.707   4.661   5.655 -0.4582  0.7418  0.5140
  476MOL0     H64200   7.726   4.546   5.785  1.6238  1.4321  2.3890
  476MOL0     H64201   7.479   4.580   5.704 -1.4823  0.2478  0.5870
  476MOL0     H64202   7.497   4.617   5.878 -1.9794  0.0682  0.4196
  476MOL0     H64203   7.493   4.845   5.828 -0.5152  0.0932 -0.8148
  476MOL0     H64204   7.512   4.829   5.656  2.2545 -0.4632  1.4797
  476MOL0     H64205   7.289   4.894   5.732 -0.0001 -0.5479 -0.1863
  476MOL0     H64206   7.284   4.743   5.640  1.1103 -1.0330  0.2199
  476MOL0     H64207   7.247   4.620   5.823 -1.8285  0.4988  0.0329
  476MOL0     H64208   7.307   4.744   5.941 -0.8571 -2.3281  1.9836
  476MOL0     H64209   7.064   4.742   5.754 -0.3028 -0.0285  0.0031
  476MOL0     H64210   7.102   4.873   5.866  2.0983  0.4727  0.0321
  476MOL0     H64211   7.133   4.744   6.147 -0.0357 -1.4488  0.8368
  476MOL0     H64212   6.932   4.465   6.308 -2.3451  0.8824  1.0219
  476MOL0     H64213   7.018   4.606   6.340  1.8986 -3.4536 -0.6402
  476MOL0     H64214   6.800   4.564   6.446 -4.6455 -1.7992 -1.1122
  476MOL0     H64215   6.724   4.583   6.286 -0.8898 -0.0629  0.8304
  476MOL0     H64216   6.813   4.817   6.274 -1.6529  1.4029  0.5213
  476MOL0     H64217   6.890   4.802   6.421 -2.7135  1.6418  1.7295
  476MOL0     H64218   6.592   4.788   6.357 -0.2398  1.2445 -1.6180
  476MOL0     H64219   6.673   4.914   6.435 -2.0243  0.1150 -0.7141
  476MOL0     H64220   6.504   4.545   6.533 -0.0560  1.0914 -1.0188
  476MOL0     H64221   6.219   4.414   6.723 -1.6755  1.3585  0.5598
  476MOL0     H64222   6.175   4.464   6.567  1.9017  0.0720 -1.2030
  476MOL0     H64223   6.329   4.391   6.570  2.3891  3.9739 -3.3659
  476MOL0     H64224   6.013   5.005   7.010  0.3356 -0.2380 -0.0058
  476MOL0     H64225   5.774   5.049   7.069 -1.5255 -0.1803  0.1261
  476MOL0     H64226   5.444   4.943   6.757  1.9049 -0.8960 -0.8799
  476MOL0     H64227   5.480   4.801   6.860  1.1322 -0.3117 -0.0200
  476MOL0     H64228   5.352   4.889   7.043  1.0135  3.0093  1.5568
  476MOL0     H64229   5.307   5.042   6.964  0.4994  0.2433 -0.6901
  476MOL0     H64230   5.220   4.782   6.822 -2.5815 -0.4347 -0.0145
  476MOL0     H64231   5.210   4.941   6.772  4.1640 -0.7514 -1.9755
  476MOL0     H64232   5.104   4.895   7.044 -3.7517 -0.0175  0.5957
  476MOL0     H64233   5.053   5.001   6.926 -0.3805  0.0966  0.7333
  476MOL0     H64234   5.016   4.705   6.878  1.3468  0.1470  1.2885
  476MOL0     H64235   4.955   4.836   6.777  1.4657  1.7238  0.4758
  476MOL0     H64236   4.864   4.788   7.067 -0.1539 -1.8288 -0.0349
  476MOL0     H64237   4.804   4.914   6.953 -1.8241 -0.3230  2.4071
  476MOL0     H64238   4.781   4.615   6.960  1.5379 -1.0941 -1.0945
  476MOL0     H64239   4.772   4.702   6.802 -0.8970 -0.8647  0.9178
  476MOL0     H64240   4.544   4.675   6.871 -1.0132 -0.3568  1.2596
  476MOL0     H64241   4.602   4.839   6.893 -1.3162 -0.1949  0.8729
  476MOL0     H64242   5.655   4.840   6.715 -1.0991  2.0256 -0.3829
  476MOL0     H64243   5.869   4.764   6.674  0.2543 -2.5535  1.5952
  476MOL0     H64244   6.314   4.907   6.791  1.7596 -0.4574  0.5803
  476MOL0     H64245   6.530   4.927   6.687 -1.6676  1.2586 -1.2271
  476MOL0     H64246   8.139   5.008   6.023 -3.8239 -2.1573  1.3848
  476MOL0     H64247   8.371   4.959   6.094 -0.2710  0.0783  0.8428
  476MOL0     H64248   8.746   4.677   6.170  1.6395  0.2754  1.2833
  476MOL0     H64249   8.965   4.710   6.245  1.7935 -0.6959 -0.9456
  476MOL0     H64250   9.162   4.755   6.295  0.3675 -3.5817  0.2724
  476MOL0     H64251   9.237   4.655   6.167  0.2273  0.0023  0.1332
  476MOL0     H64252   9.408   4.746   6.317 -0.7733 -0.2079  0.1112
  476MOL0     H64253   9.343   4.908   6.300  0.3248  1.0237 -0.9921
  476MOL0     H64254   9.538   4.912   6.137 -0.5756  1.5341 -0.8965
  476MOL0     H64255   9.395   4.885   6.036 -1.8029  1.6178  0.8050
  476MOL0     H64256   9.451   4.659   5.992 -0.4477 -0.8037  0.9012
  476MOL0     H64257   9.535   4.645   6.150  0.2038 -0.8472 -0.5469
  476MOL0     H64258   9.830   4.715   5.860  0.3890 -2.2492  0.4851
  476MOL0     H64259   9.070   4.911   5.895 -1.6615  1.3905  0.1648
  476MOL0     H64260   8.825   4.922   5.826  2.3746  0.2462 -1.6739
  477MOL0     O64261   9.564   8.429   4.688  0.2208  0.9634 -0.3515
  477MOL0     C64262   9.598   8.362   4.792  0.6265  0.5466  0.0820
  477MOL0     O64263   9.505   8.320   4.884  0.2288  0.1620 -0.6246
  477MOL0     C64264   9.375   8.324   4.850  0.1336 -0.9074 -0.3421
  477MOL0     C64265   9.301   8.207   4.815  0.6746 -0.0024 -0.2510
  477MOL0     C64266   9.165   8.217   4.772  0.0012  0.1572  0.9585
  477MOL0     C64267   9.103   8.348   4.774 -0.5492 -0.1452 -0.0722
  477MOL0     O64268   8.975   8.366   4.729 -0.4106 -0.0468 -0.3487
  477MOL0     C64269   8.918   8.277   4.635  0.2689  0.3158 -1.4289
  477MOL0     C64270   8.807   8.338   4.565  0.7536 -0.3839  0.4962
  477MOL0     C64271   8.739   8.261   4.450 -0.4086  0.5814  0.3123
  477MOL0     C64272   8.642   8.357   4.368 -0.3957  0.4706 -0.6644
  477MOL0     C64273   8.509   8.365   4.447 -0.0243 -0.3112 -0.3807
  477MOL0     C64274   8.422   8.491   4.428 -0.4776 -0.2352 -0.2599
  477MOL0     C64275   8.362   8.478   4.282 -0.4970 -0.3604  0.4678
  477MOL0     C64276   8.286   8.603   4.255  0.6376 -0.8967 -0.3428
  477MOL0     N64277   8.195   8.597   4.138  0.0439  0.1876  0.5355
  477MOL0     C64278   8.229   8.610   4.006 -0.6056 -0.4018 -0.4006
  477MOL0     C64279   8.113   8.584   3.935  0.2146  0.0747  0.2185
  477MOL0     C64280   8.080   8.606   3.795  0.2083  0.2713  0.9641
  477MOL0     C64281   7.946   8.680   3.788 -0.6211  0.3238 -1.0038
  477MOL0     C64282   7.916   8.733   3.654 -0.3578 -0.4893  0.2508
  477MOL0     C64283   7.783   8.809   3.662 -0.0595  0.4970  0.0737
  477MOL0     O64284   7.679   8.719   3.702  0.5053  0.1821  0.0973
  477MOL0     C64285   7.557   8.786   3.727  0.7887  0.3957 -0.2998
  477MOL0     C64286   7.453   8.703   3.762  1.2904  0.3711  0.7558
  477MOL0     C64287   7.330   8.756   3.790  0.4389  0.0000  0.8123
  477MOL0     C64288   7.219   8.655   3.810 -0.0454  0.0518  0.0056
  477MOL0     C64289   7.306   8.892   3.796  0.3179  0.2266 -0.3094
  477MOL0     C64290   7.171   8.957   3.810  0.1493 -0.6351  0.7658
  477MOL0     O64291   7.065   8.889   3.779  0.1631 -0.8922 -0.3956
  477MOL0     C64292   6.940   8.918   3.811  0.0014  0.0615 -0.2948
  477MOL0     C64293   6.895   9.009   3.915 -1.3467  0.1041 -0.3428
  477MOL0     C64294   6.759   9.028   3.941 -0.4132 -0.5460  1.5545
  477MOL0     C64295   6.665   8.958   3.864 -0.9199  0.5615  0.4931
  477MOL0     O64296   6.535   8.995   3.891  0.3961 -0.2883  0.2773
  477MOL0     C64297   6.429   8.892   3.891 -0.4954 -0.1785  1.1087
  477MOL0     C64298   6.296   8.953   3.909  0.6549 -0.1761 -0.7507
  477MOL0     C64299   6.182   8.859   3.875  0.8753 -0.5870 -0.3257
  477MOL0     C64300   6.046   8.924   3.897 -0.2530  0.6933 -0.7757
  477MOL0     C64301   5.929   8.831   3.868 -0.1952 -0.3427 -0.4125
  477MOL0     C64302   5.808   8.929   3.886  0.4333  0.2691  0.1897
  477MOL0     C64303   5.676   8.856   3.859 -0.1937 -0.1464 -0.2473
  477MOL0     C64304   5.561   8.955   3.864 -0.6568 -0.1340  0.5293
  477MOL0    Cl64305   5.408   8.857   3.862  0.0692 -0.0734 -0.2641
  477MOL0     C64306   6.706   8.868   3.763 -0.3816  0.0105  0.7708
  477MOL0     C64307   6.842   8.844   3.747  0.0289  0.0670 -0.7609
  477MOL0     O64308   7.178   9.069   3.854 -0.2316  0.7407 -0.3798
  477MOL0     C64309   7.418   8.979   3.775  0.7527 -0.4112 -0.1719
  477MOL0     C64310   7.545   8.928   3.743  0.4260 -0.0431 -0.4564
  477MOL0     N64311   8.020   8.551   4.029 -0.6856 -0.3215  0.2968
  477MOL0     N64312   8.065   8.557   4.151  0.6528  0.1638  0.2045
  477MOL0     C64313   9.179   8.459   4.811 -0.6903 -1.1634  0.3976
  477MOL0     C64314   9.314   8.451   4.843 -0.9805  0.4134 -0.0672
  477MOL0     C64315   9.740   8.326   4.805  0.0511 -0.0462  0.0681
  477MOL0     C64316   9.834   8.399   4.720 -0.1393  1.1197 -0.1013
  477MOL0     C64317   9.969   8.368   4.734  0.4139  0.2284  0.4864
  477MOL0     C64318  10.012   8.263   4.814  0.1862 -0.0957 -0.2967
  477MOL0     O64319  10.145   8.224   4.837 -0.6867  0.0560  0.2495
  477MOL0     C64320  10.250   8.320   4.788 -0.3200 -0.0820 -0.0674
  477MOL0     C64321  10.261   8.464   4.840 -0.0782  0.0881 -0.3448
  477MOL0     C64322  10.253   8.469   4.996  0.6302 -0.3132  0.3468
  477MOL0     C64323  10.303   8.604   5.054  0.3892  0.5403 -0.2909
  477MOL0     C64324  10.444   8.623   5.042  0.2595 -0.4835  0.4106
  477MOL0     C64325  10.559   8.636   5.013 -0.7292  0.2672  0.9198
  477MOL0     C64326   9.920   8.189   4.880  0.4575 -0.6873  0.6685
  477MOL0     C64327   9.782   8.221   4.879  0.1959 -0.5205  0.6532
  477MOL0     H64328   9.343   8.108   4.805 -1.9072 -0.9502 -5.2061
  477MOL0     H64329   9.117   8.129   4.731  0.7963 -0.1841  0.7258
  477MOL0     H64330   8.999   8.254   4.564  0.7551 -2.9837 -0.0118
  477MOL0     H64331   8.878   8.187   4.682  1.8223  0.5124  0.3726
  477MOL0     H64332   8.738   8.360   4.646  1.6468 -1.9053  1.7181
  477MOL0     H64333   8.844   8.431   4.520 -0.2594 -0.2795 -0.1574
  477MOL0     H64334   8.822   8.228   4.388  0.4268 -0.6299  1.9894
  477MOL0     H64335   8.693   8.167   4.482  0.7771 -0.6888 -1.5405
  477MOL0     H64336   8.682   8.453   4.336 -3.6237  1.6555 -1.5291
  477MOL0     H64337   8.633   8.311   4.269  0.3290  1.4137 -1.1838
  477MOL0     H64338   8.458   8.272   4.422  1.3751 -0.9758 -0.8571
  477MOL0     H64339   8.540   8.352   4.551 -0.2619 -1.4493 -0.4332
  477MOL0     H64340   8.351   8.500   4.511  0.5981 -0.4947  0.7203
  477MOL0     H64341   8.488   8.577   4.440  0.5227 -1.2041  1.5700
  477MOL0     H64342   8.430   8.457   4.200  0.8842  1.1749  1.1640
  477MOL0     H64343   8.282   8.404   4.291 -1.8669  0.7429 -1.6977
  477MOL0     H64344   8.360   8.683   4.244 -0.6149  0.1739 -1.3111
  477MOL0     H64345   8.230   8.643   4.340  2.3696  2.0196 -0.4280
  477MOL0     H64346   8.323   8.650   3.970  0.9147 -1.6592  1.9138
  477MOL0     H64347   8.166   8.658   3.752 -1.2278  2.0720  0.1684
  477MOL0     H64348   8.083   8.506   3.750  2.4172  0.5116  0.4650
  477MOL0     H64349   7.957   8.763   3.858  0.2226 -0.2908 -0.3903
  477MOL0     H64350   7.868   8.612   3.822 -0.8350  0.4282 -1.2791
  477MOL0     H64351   7.896   8.643   3.595 -3.0395  0.6636 -0.7574
  477MOL0     H64352   8.000   8.789   3.613 -1.2171 -0.8998 -2.2417
  477MOL0     H64353   7.756   8.866   3.572  2.3472  1.8624  0.1510
  477MOL0     H64354   7.791   8.886   3.739 -0.8094  2.4746 -1.6902
  477MOL0     H64355   7.475   8.598   3.746  3.6069  0.9785 -0.5777
  477MOL0     H64356   7.165   8.663   3.905  0.9008  1.1901  0.4850
  477MOL0     H64357   7.143   8.665   3.732 -1.3391  0.1569  1.2260
  477MOL0     H64358   7.257   8.553   3.817  1.2454  0.2977 -2.5330
  477MOL0     H64359   6.963   9.069   3.975 -2.3902 -1.4157  2.5475
  477MOL0     H64360   6.725   9.097   4.017  1.4078  2.3803 -0.0914
  477MOL0     H64361   6.430   8.852   3.789 -0.5481  0.4844  0.8358
  477MOL0     H64362   6.444   8.812   3.964  1.7410  0.0093  0.9348
  477MOL0     H64363   6.282   8.990   4.011 -2.4633 -1.8123 -0.4583
  477MOL0     H64364   6.278   9.041   3.846 -0.5477  0.2427  0.1388
  477MOL0     H64365   6.201   8.778   3.945  0.7608  0.0975  0.5230
  477MOL0     H64366   6.196   8.839   3.768  1.0686  2.2222 -0.9037
  477MOL0     H64367   6.042   8.946   4.004  1.3709 -4.2381  0.5517
  477MOL0     H64368   6.047   9.019   3.843  1.4298  1.0901 -0.1151
  477MOL0     H64369   5.919   8.743   3.932  3.0102 -0.8292 -0.4227
  477MOL0     H64370   5.943   8.800   3.764 -0.7504 -2.6922  0.1655
  477MOL0     H64371   5.807   8.969   3.987 -0.2432  1.2795 -0.2066
  477MOL0     H64372   5.817   9.011   3.815  1.6484  0.6337  0.7492
  477MOL0     H64373   5.661   8.780   3.936 -1.7930 -0.7218 -1.0803
  477MOL0     H64374   5.684   8.798   3.766  2.8979 -0.5214  0.1275
  477MOL0     H64375   5.557   9.020   3.775 -0.3546 -0.1045  0.5367
  477MOL0     H64376   5.574   9.023   3.948  0.6509  0.4683 -0.1282
  477MOL0     H64377   6.641   8.811   3.697  1.3883 -1.0111 -0.1954
  477MOL0     H64378   6.871   8.773   3.670 -0.7005 -2.3421  1.0473
  477MOL0     H64379   7.410   9.087   3.784  1.4420 -0.2293 -1.4281
  477MOL0     H64380   7.620   9.003   3.720 -0.2034  0.9921  0.7504
  477MOL0     H64381   9.137   8.557   4.831  2.5623  0.5078 -0.1665
  477MOL0     H64382   9.376   8.534   4.875 -1.9094  2.2304 -2.6629
  477MOL0     H64383   9.820   8.470   4.639  3.4356  1.4081 -0.6247
  477MOL0     H64384  10.047   8.424   4.683  0.3841  0.6598  0.9012
  477MOL0     H64385  10.347   8.272   4.808 -1.0124 -1.1670  0.7977
  477MOL0     H64386  10.229   8.324   4.681  0.6996 -2.3388 -0.4135
  477MOL0     H64387  10.196   8.534   4.787  0.2188  1.1741  0.6798
  477MOL0     H64388  10.364   8.488   4.810 -0.1568 -1.4529 -2.0492
  477MOL0     H64389  10.289   8.377   5.043  1.1150  0.0652  0.7227
  477MOL0     H64390  10.146   8.457   5.018  0.2354  1.7042 -0.2647
  477MOL0     H64391  10.278   8.597   5.160 -1.3921 -4.4452 -0.7795
  477MOL0     H64392  10.258   8.692   5.007  1.1763  0.8964 -0.3935
  477MOL0     H64393  10.661   8.648   4.982 -0.2513 -0.0660  2.2969
  477MOL0     H64394   9.970   8.103   4.921  1.5791 -0.8502 -0.9353
  477MOL0     H64395   9.712   8.161   4.938  0.4922 -2.5936 -0.9710
  478MOL0     O64396   5.736   6.772   8.453  0.0951 -0.4053  0.7513
  478MOL0     C64397   5.806   6.843   8.378  0.6465 -0.1539 -0.1313
  478MOL0     O64398   5.762   6.903   8.259  0.1065 -0.0530 -0.3453
  478MOL0     C64399   5.633   6.870   8.227  0.3803 -0.2821  1.1000
  478MOL0     C64400   5.520   6.948   8.254 -0.1557 -0.6539 -0.0000
  478MOL0     C64401   5.390   6.918   8.214 -0.0523  0.9960  0.0960
  478MOL0     C64402   5.372   6.797   8.132 -0.0952 -0.1647 -0.0991
  478MOL0     O64403   5.250   6.761   8.076 -0.7438  0.0414  0.0371
  478MOL0     C64404   5.136   6.849   8.076 -0.5870 -0.2462  0.3496
  478MOL0     C64405   5.144   6.941   7.947  0.1895 -0.3269 -0.5415
  478MOL0     C64406   5.023   7.031   7.945 -0.0703 -1.0980  1.0353
  478MOL0     C64407   5.039   7.153   7.846  0.0580  0.1788 -0.8454
  478MOL0     C64408   4.926   7.251   7.871  0.0040 -1.0027  0.2761
  478MOL0     C64409   4.941   7.356   7.768 -0.0308  0.1505 -0.0259
  478MOL0     C64410   4.859   7.472   7.809 -0.3804  0.2091 -0.1002
  478MOL0     C64411   4.850   7.588   7.710  0.6524  0.0641  0.4092
  478MOL0     N64412   4.796   7.558   7.573 -0.0581 -0.2779 -0.3093
  478MOL0     C64413   4.862   7.504   7.474  0.0154  0.0505  1.2407
  478MOL0     C64414   4.771   7.497   7.375  0.7149 -0.5311 -0.3632
  478MOL0     C64415   4.795   7.431   7.237 -0.1716  0.4247  0.1709
  478MOL0     C64416   4.751   7.284   7.214  0.5706 -0.1821 -0.3039
  478MOL0     C64417   4.600   7.262   7.204 -0.2365  1.2594  0.0092
  478MOL0     C64418   4.570   7.114   7.217 -0.0652 -0.2761 -0.0028
  478MOL0     O64419   4.529   7.059   7.095 -0.2956 -0.0394 -0.2651
  478MOL0     C64420   4.393   7.083   7.054 -0.3348 -0.7084  0.5502
  478MOL0     C64421   4.367   7.107   6.912 -1.0077 -0.2277 -0.2660
  478MOL0     C64422   4.236   7.132   6.869 -0.2693 -0.3166 -0.3693
  478MOL0     C64423   4.217   7.169   6.727  0.7129 -0.0148 -0.7489
  478MOL0     C64424   4.127   7.106   6.952  0.2537 -0.0985  0.2757
  478MOL0     C64425   3.980   7.107   6.910 -1.3687 -0.6977 -0.1866
  478MOL0     O64426   3.897   7.053   7.006 -0.5179  0.4887 -0.0088
  478MOL0     C64427   3.771   7.006   6.979 -0.4303  0.3406  0.3463
  478MOL0     C64428   3.743   6.924   6.867  0.0108 -0.3599  0.3612
  478MOL0     C64429   3.615   6.874   6.845  0.2419  0.7570  0.0777
  478MOL0     C64430   3.505   6.901   6.927 -0.0651 -0.4748  0.5583
  478MOL0     O64431   3.382   6.853   6.913  0.0697 -0.3303  0.9698
  478MOL0     C64432   3.344   6.786   6.793 -0.5890 -0.5683 -0.5524
  478MOL0     C64433   3.208   6.719   6.799  0.6257 -0.3808  0.7707
  478MOL0     C64434   3.084   6.806   6.846  0.1061 -0.0007 -0.0607
  478MOL0     C64435   2.995   6.736   6.954  0.3839  0.1829 -0.1395
  478MOL0     C64436   2.919   6.850   7.032 -0.1546 -0.0976  0.3455
  478MOL0     C64437   2.813   6.786   7.131 -0.9313  0.2229  0.1750
  478MOL0     C64438   2.741   6.897   7.206  0.0967  0.2546 -0.0389
  478MOL0     C64439   2.605   6.850   7.252  1.2290 -0.2504 -0.0134
  478MOL0    Cl64440   2.534   6.973   7.362  0.2195  0.1320 -0.5306
  478MOL0     C64441   3.530   6.974   7.052  0.1102  0.0394 -0.3414
  478MOL0     C64442   3.660   7.017   7.074 -1.2067  0.0454 -1.2574
  478MOL0     O64443   3.948   7.150   6.804  0.0945 -0.2281 -0.4674
  478MOL0     C64444   4.155   7.073   7.088 -0.0949 -0.3284 -0.0696
  478MOL0     C64445   4.289   7.072   7.142 -0.7112  0.5550  0.2687
  478MOL0     N64446   4.646   7.536   7.419 -0.0142 -0.9130  0.0884
  478MOL0     N64447   4.664   7.586   7.535  1.0059  0.4723 -0.7678
  478MOL0     C64448   5.481   6.714   8.112  0.1638 -0.5535  0.3205
  478MOL0     C64449   5.610   6.752   8.152  0.4272  0.2992 -0.8495
  478MOL0     C64450   5.950   6.867   8.419  0.7993  0.1341  0.2095
  478MOL0     C64451   6.027   6.964   8.354  0.6793  0.8930 -0.9315
  478MOL0     C64452   6.164   6.961   8.367 -0.3296 -0.7369  0.0517
  478MOL0     C64453   6.230   6.862   8.433  0.8558 -0.6804  0.4437
  478MOL0     O64454   6.365   6.865   8.432 -0.1349 -0.4254 -0.5693
  478MOL0     C64455   6.434   6.860   8.554  0.0696  0.8321  0.0723
  478MOL0     C64456   6.398   6.981   8.654 -0.5330  0.7981  0.6474
  478MOL0     C64457   6.512   6.994   8.763 -0.1191  0.6178 -0.5887
  478MOL0     C64458   6.551   7.135   8.785 -0.3922  0.6902 -0.6786
  478MOL0     C64459   6.634   7.191   8.678  0.1372 -0.7849 -0.0989
  478MOL0     C64460   6.699   7.233   8.587  0.3477 -0.6711 -0.2397
  478MOL0     C64461   6.154   6.763   8.498 -0.0438 -0.4713 -0.4353
  478MOL0     C64462   6.016   6.764   8.491 -0.0059 -0.2275 -0.1302
  478MOL0     H64463   5.532   7.031   8.323  1.7073  0.0039 -1.0379
  478MOL0     H64464   5.303   6.979   8.236  1.0679  2.5022  0.4939
  478MOL0     H64465   5.049   6.783   8.072 -2.1799  1.4289  3.4465
  478MOL0     H64466   5.124   6.898   8.173 -3.0401  1.6982 -0.8135
  478MOL0     H64467   5.235   7.002   7.951  0.1950 -0.3718  0.1710
  478MOL0     H64468   5.150   6.878   7.857  0.7279  1.4097 -1.7699
  478MOL0     H64469   4.932   6.977   7.918 -0.5381  0.9225 -1.8327
  478MOL0     H64470   4.996   7.062   8.046 -2.1417  0.9623 -0.0759
  478MOL0     H64471   5.129   7.213   7.866  0.4745  0.0942 -2.3550
  478MOL0     H64472   5.029   7.113   7.745  0.3384 -1.0597 -0.3899
  478MOL0     H64473   4.827   7.205   7.877 -0.0471 -0.9212  0.0669
  478MOL0     H64474   4.934   7.295   7.971 -2.2618 -1.4251  0.6989
  478MOL0     H64475   5.042   7.395   7.755  0.3654 -1.2038 -1.3311
  478MOL0     H64476   4.906   7.318   7.671 -1.3994 -0.8566  0.8221
  478MOL0     H64477   4.756   7.447   7.836 -0.1955 -0.0079  0.4076
  478MOL0     H64478   4.908   7.504   7.901 -1.7213 -0.9639  1.0742
  478MOL0     H64479   4.954   7.621   7.696  0.9497 -0.6404  0.8884
  478MOL0     H64480   4.791   7.666   7.758  3.1797  1.5247  1.3779
  478MOL0     H64481   4.962   7.463   7.459  0.6922  2.2614 -1.0523
  478MOL0     H64482   4.744   7.497   7.166 -1.3929 -0.2396  0.3980
  478MOL0     H64483   4.899   7.442   7.206 -0.8092  1.4198 -1.7888
  478MOL0     H64484   4.788   7.222   7.297 -0.6893  0.4441  0.7532
  478MOL0     H64485   4.800   7.250   7.122 -2.9269  1.0580 -2.8076
  478MOL0     H64486   4.569   7.287   7.102  2.5839 -1.3727 -1.6627
  478MOL0     H64487   4.546   7.321   7.278  0.3132  2.2766 -0.3870
  478MOL0     H64488   4.495   7.103   7.295  0.3565  0.0968  0.4670
  478MOL0     H64489   4.666   7.068   7.241  0.9752  1.9180  0.3563
  478MOL0     H64490   4.454   7.115   6.847  1.2631  3.2961  2.7908
  478MOL0     H64491   4.189   7.077   6.674  1.4234 -0.9191  0.3839
  478MOL0     H64492   4.143   7.247   6.710  1.2159  0.8984  1.0035
  478MOL0     H64493   4.310   7.206   6.683  1.6339 -0.4639  0.7491
  478MOL0     H64494   3.829   6.908   6.803  1.5606  2.7464  1.4459
  478MOL0     H64495   3.599   6.818   6.753 -0.2672 -0.1567  0.7152
  478MOL0     H64496   3.335   6.855   6.709 -2.5179 -1.3162 -1.0167
  478MOL0     H64497   3.418   6.708   6.773 -0.5788 -0.9086  0.6943
  478MOL0     H64498   3.170   6.686   6.702  0.5063  0.8207  0.3914
  478MOL0     H64499   3.221   6.634   6.867  0.0403 -2.5707 -1.6616
  478MOL0     H64500   3.017   6.833   6.764 -0.1578  1.1810  0.5241
  478MOL0     H64501   3.124   6.900   6.884  0.7546  0.4386 -1.7606
  478MOL0     H64502   2.922   6.670   6.907  0.0050 -0.7791  1.7040
  478MOL0     H64503   3.064   6.682   7.019 -0.7023  0.8458  1.6557
  478MOL0     H64504   2.861   6.914   6.964 -3.3803 -2.0174  1.0375
  478MOL0     H64505   2.991   6.913   7.086  1.4962 -0.9888 -0.7502
  478MOL0     H64506   2.748   6.730   7.064 -1.1331  0.6806 -0.0154
  478MOL0     H64507   2.871   6.718   7.194 -1.7715  1.2177  2.1169
  478MOL0     H64508   2.721   6.978   7.136  3.6219  1.4353  0.1339
  478MOL0     H64509   2.808   6.936   7.284 -1.8094  1.1602  1.2235
  478MOL0     H64510   2.603   6.754   7.303 -0.3415  0.0413  0.5233
  478MOL0     H64511   2.546   6.835   7.161  1.3561 -1.4015  0.0765
  478MOL0     H64512   3.447   6.988   7.121  0.9411  1.6034  0.3905
  478MOL0     H64513   3.703   7.061   7.163 -1.1601 -3.3881  0.6068
  478MOL0     H64514   4.075   7.072   7.161 -1.8962  1.9474 -1.8901
  478MOL0     H64515   4.299   7.050   7.248 -0.8851 -0.5394  0.0651
  478MOL0     H64516   5.458   6.623   8.057 -1.9053  0.7484 -1.0871
  478MOL0     H64517   5.688   6.678   8.138 -0.1244 -1.3391  3.3290
  478MOL0     H64518   5.973   7.039   8.298 -0.9538  2.1724  2.1222
  478MOL0     H64519   6.211   7.047   8.320 -2.6715 -1.0956 -3.3840
  478MOL0     H64520   6.409   6.768   8.608  0.7755  0.0570 -0.8953
  478MOL0     H64521   6.543   6.848   8.550  0.3639 -1.2063  5.5084
  478MOL0     H64522   6.303   6.966   8.704 -2.6945  0.1450 -3.2220
  478MOL0     H64523   6.401   7.072   8.593 -1.5531  0.2577 -0.2408
  478MOL0     H64524   6.595   6.926   8.743  0.1714 -0.3104  3.1017
  478MOL0     H64525   6.471   6.945   8.852 -0.6452  0.0625 -1.1242
  478MOL0     H64526   6.605   7.131   8.880 -2.3409  3.2161  0.6803
  478MOL0     H64527   6.460   7.196   8.793 -1.8690 -1.5045  0.0232
  478MOL0     H64528   6.756   7.280   8.509  0.9953 -2.1137 -0.6776
  478MOL0     H64529   6.209   6.683   8.548  4.2923  0.8578 -2.6374
  478MOL0     H64530   5.943   6.699   8.540 -1.3362  0.0635 -1.6314
  479MOL0     O64531   1.094   4.444   3.626 -0.0285  0.0830 -0.8954
  479MOL0     C64532   1.111   4.328   3.678  0.1284 -0.2625  0.0060
  479MOL0     O64533   1.046   4.217   3.631  0.0492  0.3934 -0.2049
  479MOL0     C64534   0.975   4.219   3.515  0.3902 -0.1124 -0.2154
  479MOL0     C64535   1.032   4.228   3.391  0.3559 -0.7678  0.9783
  479MOL0     C64536   0.959   4.212   3.272  1.0722  0.3490  0.4463
  479MOL0     C64537   0.822   4.179   3.286  0.6563  0.5588 -0.1008
  479MOL0     O64538   0.737   4.144   3.183  0.0094  0.0326  0.2223
  479MOL0     C64539   0.781   4.041   3.091  0.2177  0.5500  0.2164
  479MOL0     C64540   0.683   4.035   2.964  0.0522 -0.7947 -0.6384
  479MOL0     C64541   0.706   3.902   2.890 -0.7619 -0.0768 -0.5778
  479MOL0     C64542   0.600   3.874   2.778  0.7801 -0.0143 -0.3056
  479MOL0     C64543   0.456   3.851   2.829 -0.2563 -0.2640  0.3331
  479MOL0     C64544   0.354   3.829   2.714  0.1054 -0.5151  0.0132
  479MOL0     C64545   0.218   3.840   2.782 -0.4999  0.0520 -0.7536
  479MOL0     C64546   0.101   3.865   2.682 -0.8830  0.2443  0.2452
  479MOL0     N64547  -0.026   3.873   2.748  0.5473 -0.3306  0.6076
  479MOL0     C64548  -0.087   3.998   2.778 -1.2354 -0.5711 -0.5372
  479MOL0     C64549  -0.202   3.968   2.831  0.4463 -0.5365  0.4864
  479MOL0     C64550  -0.306   4.066   2.872  0.1345 -0.2292  0.5704
  479MOL0     C64551  -0.391   4.123   2.742 -0.1091  0.8242  0.5071
  479MOL0     C64552  -0.472   4.247   2.775 -0.2740 -0.0515 -0.7056
  479MOL0     C64553  -0.524   4.333   2.662  0.0310 -0.1498  0.3184
  479MOL0     O64554  -0.619   4.424   2.718  0.5811 -0.3127  0.3537
  479MOL0     C64555  -0.692   4.506   2.632 -0.3967 -0.2810  0.2730
  479MOL0     C64556  -0.795   4.570   2.692  1.0249 -0.3041 -0.2777
  479MOL0     C64557  -0.886   4.655   2.627 -0.5704  0.6024  0.4996
  479MOL0     C64558  -1.000   4.705   2.707  0.9158 -0.3336  0.2573
  479MOL0     C64559  -0.879   4.665   2.485  0.5132  0.1624  0.3346
  479MOL0     C64560  -0.978   4.735   2.402  0.0918 -0.0194  0.4417
  479MOL0     O64561  -1.029   4.851   2.449 -0.0440 -0.0012  0.0043
  479MOL0     C64562  -1.118   4.932   2.375 -0.6529 -0.1636 -0.0456
  479MOL0     C64563  -1.207   4.887   2.278  0.0447 -0.1869 -0.2039
  479MOL0     C64564  -1.300   4.984   2.213 -0.8236 -0.0729 -0.5770
  479MOL0     C64565  -1.297   5.121   2.252  0.1161 -0.2558 -0.7161
  479MOL0     O64566  -1.381   5.215   2.201  0.1287 -0.3088 -0.8247
  479MOL0     C64567  -1.393   5.221   2.061 -0.5869 -0.2566  1.1449
  479MOL0     C64568  -1.453   5.355   2.015  0.7102  0.3094 -0.1018
  479MOL0     C64569  -1.606   5.365   2.045 -0.1005  0.8598  0.2493
  479MOL0     C64570  -1.684   5.494   1.991 -0.7281  0.2235  0.3345
  479MOL0     C64571  -1.835   5.469   2.012 -0.3407 -1.3616  0.8000
  479MOL0     C64572  -1.905   5.581   1.930 -0.0796 -0.1863  0.4599
  479MOL0     C64573  -2.047   5.565   1.954  0.5679  0.8574  0.1626
  479MOL0     C64574  -2.110   5.465   1.859 -0.0974 -0.4342 -0.1509
  479MOL0    Cl64575  -2.287   5.438   1.894 -0.1270  0.5698 -0.2575
  479MOL0     C64576  -1.207   5.165   2.356  0.2284 -0.0551 -0.5113
  479MOL0     C64577  -1.123   5.066   2.411 -1.0374 -0.5374  0.0070
  479MOL0     O64578  -1.004   4.690   2.294  0.5850 -0.1690 -0.2584
  479MOL0     C64579  -0.767   4.613   2.420 -0.3192 -0.8026 -0.2611
  479MOL0     C64580  -0.673   4.537   2.494  0.0917 -0.0236  0.3288
  479MOL0     N64581  -0.211   3.827   2.828  0.2087  0.4373  0.1684
  479MOL0     N64582  -0.107   3.767   2.773  0.7644 -0.2394  0.3650
  479MOL0     C64583   0.764   4.174   3.412  0.4139 -0.7521 -0.4214
  479MOL0     C64584   0.839   4.194   3.523 -0.2808 -0.2443  0.8924
  479MOL0     C64585   1.198   4.312   3.792 -0.5725 -0.1022  0.4088
  479MOL0     C64586   1.211   4.193   3.870 -1.7899 -0.3098 -0.0097
  479MOL0     C64587   1.309   4.193   3.972 -0.0854 -0.0326 -0.2140
  479MOL0     C64588   1.393   4.299   4.008  0.3899 -0.2558 -0.3416
  479MOL0     O64589   1.485   4.288   4.115 -0.2427  0.8788  0.4211
  479MOL0     C64590   1.561   4.399   4.160  0.1591  0.9716  0.3785
  479MOL0     C64591   1.652   4.358   4.284  0.4355 -0.3418 -0.3644
  479MOL0     C64592   1.741   4.229   4.249  0.3206  0.3105  0.3982
  479MOL0     C64593   1.826   4.188   4.376  0.2380  0.3663  0.7261
  479MOL0     C64594   1.949   4.113   4.340 -0.5416  0.0898 -0.4505
  479MOL0     C64595   2.047   4.044   4.317  0.5070  0.2775  0.2516
  479MOL0     C64596   1.375   4.410   3.930 -0.6925  1.1108 -0.8400
  479MOL0     C64597   1.279   4.418   3.831  0.5303  0.2884  0.4692
  479MOL0     H64598   1.139   4.245   3.379 -0.1350  3.3772  1.1471
  479MOL0     H64599   1.006   4.238   3.177 -2.8391  2.6477 -1.0827
  479MOL0     H64600   0.885   4.058   3.062  1.0955  1.3412  3.4636
  479MOL0     H64601   0.765   3.945   3.141 -2.7493  0.1554 -1.2620
  479MOL0     H64602   0.585   4.042   3.013  0.3411 -0.5023 -0.1014
  479MOL0     H64603   0.687   4.119   2.894  2.0148  1.9717  2.4877
  479MOL0     H64604   0.806   3.905   2.845  0.7395  0.1697  2.5417
  479MOL0     H64605   0.716   3.816   2.957  0.6870  0.7728  0.3569
  479MOL0     H64606   0.592   3.965   2.717  0.3505  0.1795  0.0350
  479MOL0     H64607   0.618   3.791   2.709 -4.7242 -2.1431  0.2827
  479MOL0     H64608   0.453   3.759   2.888 -3.8641 -1.1124 -0.9221
  479MOL0     H64609   0.430   3.934   2.896  1.0415  0.1779  0.3287
  479MOL0     H64610   0.365   3.915   2.648 -1.5015 -0.2693  0.0218
  479MOL0     H64611   0.376   3.733   2.668 -0.5189 -0.1461 -1.0888
  479MOL0     H64612   0.202   3.745   2.834  1.6690 -0.8511 -1.6068
  479MOL0     H64613   0.203   3.910   2.864 -0.3132 -1.8059  0.9483
  479MOL0     H64614   0.098   3.779   2.615  0.6983 -1.5819  2.4036
  479MOL0     H64615   0.123   3.961   2.633  1.1841 -0.3333 -0.0294
  479MOL0     H64616  -0.048   4.096   2.753 -0.8280 -0.1458  1.5221
  479MOL0     H64617  -0.380   4.005   2.926 -3.3551  1.1823 -2.1641
  479MOL0     H64618  -0.276   4.143   2.944  0.6799 -1.5184  1.7579
  479MOL0     H64619  -0.457   4.046   2.702  1.1204  1.1355 -2.3477
  479MOL0     H64620  -0.313   4.140   2.667  1.9548  0.1248  2.3709
  479MOL0     H64621  -0.412   4.316   2.835 -0.9840 -0.4972  0.5590
  479MOL0     H64622  -0.559   4.223   2.837  0.0768  1.7297  0.5530
  479MOL0     H64623  -0.566   4.274   2.581 -0.0638  2.0237 -1.3041
  479MOL0     H64624  -0.440   4.395   2.629 -0.4947  1.8746  2.5057
  479MOL0     H64625  -0.813   4.549   2.796 -6.9796  1.0203 -0.7855
  479MOL0     H64626  -1.013   4.648   2.799  0.1676 -0.1938  0.2495
  479MOL0     H64627  -0.988   4.812   2.728 -3.8087  0.2681  0.9940
  479MOL0     H64628  -1.099   4.699   2.661  0.6612 -0.9146  0.8787
  479MOL0     H64629  -1.215   4.779   2.264  0.6580 -0.3791  0.7907
  479MOL0     H64630  -1.370   4.952   2.136 -0.5943 -4.1469  0.6816
  479MOL0     H64631  -1.291   5.212   2.024  0.1402 -1.8214  3.3183
  479MOL0     H64632  -1.450   5.141   2.013 -1.3856 -1.0107  3.2325
  479MOL0     H64633  -1.407   5.436   2.072  2.5683 -0.9069  0.1986
  479MOL0     H64634  -1.423   5.380   1.913  2.3995 -0.2513  0.2193
  479MOL0     H64635  -1.637   5.351   2.149 -0.7916  0.1427 -0.0427
  479MOL0     H64636  -1.646   5.271   2.006  1.7286 -0.6009  1.6648
  479MOL0     H64637  -1.643   5.574   2.052  0.1422  0.2871 -0.3216
  479MOL0     H64638  -1.650   5.517   1.890  0.5236 -3.5094 -0.2460
  479MOL0     H64639  -1.857   5.484   2.118 -0.8541 -0.4058  0.5654
  479MOL0     H64640  -1.872   5.371   1.982 -0.9901 -0.9251  0.1432
  479MOL0     H64641  -1.870   5.680   1.960 -1.3431  0.7905 -1.0817
  479MOL0     H64642  -1.886   5.573   1.822  1.7973  0.0054  0.7475
  479MOL0     H64643  -2.088   5.663   1.927 -1.1255 -0.0301 -0.6236
  479MOL0     H64644  -2.060   5.533   2.058  0.3754  0.5989  0.0588
  479MOL0     H64645  -2.061   5.367   1.867 -0.0724 -0.2535  2.6365
  479MOL0     H64646  -2.108   5.505   1.757 -2.1425  0.0319 -0.0424
  479MOL0     H64647  -1.204   5.264   2.400 -2.1263  0.7440 -1.9426
  479MOL0     H64648  -1.055   5.093   2.492 -0.6838 -1.1310 -0.0909
  479MOL0     H64649  -0.743   4.634   2.317  2.0583  0.4058  0.4753
  479MOL0     H64650  -0.581   4.496   2.452 -1.2960 -2.7051 -0.3095
  479MOL0     H64651   0.662   4.143   3.430  0.5609 -0.8157  0.3602
  479MOL0     H64652   0.794   4.158   3.615 -1.5825 -1.2667 -0.1029
  479MOL0     H64653   1.159   4.099   3.854  0.0136 -1.9115  2.7767
  479MOL0     H64654   1.320   4.105   4.035  0.8741  0.0873 -0.1974
  479MOL0     H64655   1.630   4.431   4.082  0.6465  0.4535  0.5889
  479MOL0     H64656   1.496   4.481   4.193  1.0568  2.5379 -1.5664
  479MOL0     H64657   1.587   4.326   4.366  0.0247  2.1502  0.3624
  479MOL0     H64658   1.712   4.447   4.306 -0.5677  0.3794 -0.4558
  479MOL0     H64659   1.812   4.271   4.177 -0.8362  1.9743  0.1707
  479MOL0     H64660   1.680   4.149   4.207 -0.2824  0.3447  1.1984
  479MOL0     H64661   1.765   4.139   4.453 -3.4720  0.8687 -1.6219
  479MOL0     H64662   1.850   4.286   4.419 -3.6067  2.0464 -0.4334
  479MOL0     H64663   2.135   3.983   4.317  1.2013  1.2526  0.3928
  479MOL0     H64664   1.421   4.503   3.962 -0.8069  0.6092  0.8745
  479MOL0     H64665   1.274   4.513   3.778 -0.1881 -1.1150 -2.1622
  480MOL0     O64666   9.224   2.644  10.658 -0.4012 -0.7653  0.5146
  480MOL0     C64667   9.283   2.723  10.579  0.1139 -1.0871 -0.2765
  480MOL0     O64668   9.218   2.811  10.491 -0.7330 -0.3997  0.3819
  480MOL0     C64669   9.081   2.823  10.462  0.3377 -0.4276  0.2020
  480MOL0     C64670   9.001   2.710  10.484 -0.5230  0.5255 -0.1893
  480MOL0     C64671   8.870   2.708  10.437  0.0181 -0.3966 -0.0807
  480MOL0     C64672   8.816   2.825  10.387  0.5440 -0.0720  0.5984
  480MOL0     O64673   8.684   2.837  10.338 -0.2449  0.3069  0.1818
  480MOL0     C64674   8.594   2.827  10.453 -0.6070 -0.3166 -0.1805
  480MOL0     C64675   8.446   2.815  10.392 -0.4568  0.7803 -0.7601
  480MOL0     C64676   8.405   2.944  10.324  0.6784  0.0923  0.5969
  480MOL0     C64677   8.272   2.934  10.257  0.0820 -0.7498 -0.5706
  480MOL0     C64678   8.220   3.083  10.245  0.0985 -0.0716  0.6722
  480MOL0     C64679   8.100   3.104  10.152 -0.6005 -1.0573 -0.4535
  480MOL0     C64680   7.963   3.033  10.192 -0.3083 -0.1075 -0.4863
  480MOL0     C64681   7.899   3.096  10.322 -0.0848 -0.3571 -0.6509
  480MOL0     N64682   7.852   3.237  10.304 -0.0358 -0.2245  0.2987
  480MOL0     C64683   7.740   3.283  10.238  1.1869  1.2854  0.3305
  480MOL0     C64684   7.746   3.421  10.253 -0.3209 -0.3236  0.4519
  480MOL0     C64685   7.645   3.526  10.211  0.0852 -0.4025 -0.4028
  480MOL0     C64686   7.544   3.482  10.102  0.4518 -0.2033  0.1538
  480MOL0     C64687   7.411   3.417  10.158 -0.8519 -0.5853  0.1986
  480MOL0     C64688   7.323   3.505  10.250  0.3158  0.3798  0.1435
  480MOL0     O64689   7.297   3.634  10.194 -0.4762 -0.6420  0.2797
  480MOL0     C64690   7.209   3.685  10.102  0.3369  0.6113 -0.2807
  480MOL0     C64691   7.241   3.814  10.054 -0.3574  0.1152  1.3314
  480MOL0     C64692   7.155   3.879   9.966 -0.5379  0.1049 -1.0132
  480MOL0     C64693   7.197   4.018   9.928 -0.4222 -0.1957  0.0728
  480MOL0     C64694   7.034   3.815   9.927  0.6438 -0.3230 -0.3778
  480MOL0     C64695   6.933   3.875   9.852  0.1567 -0.5279  0.8809
  480MOL0     O64696   6.835   3.803   9.788 -0.4396  0.3353 -0.0197
  480MOL0     C64697   6.725   3.866   9.736 -0.2442 -0.6446  0.0487
  480MOL0     C64698   6.730   3.925   9.607 -0.7180 -0.4235  0.5547
  480MOL0     C64699   6.614   3.992   9.563 -0.5115  0.1835  0.8198
  480MOL0     C64700   6.499   3.986   9.639 -0.7425 -0.2670 -0.6007
  480MOL0     O64701   6.378   4.028   9.603 -0.0335 -0.5173  0.2028
  480MOL0     C64702   6.356   4.134   9.506  0.1356  0.5625 -0.0179
  480MOL0     C64703   6.216   4.192   9.528  0.1018 -0.1155  0.2992
  480MOL0     C64704   6.214   4.333   9.470  0.3415 -0.0333 -0.2850
  480MOL0     C64705   6.078   4.404   9.484  0.5359  0.5487 -0.1946
  480MOL0     C64706   6.081   4.523   9.389  0.2865 -0.7476 -1.0567
  480MOL0     C64707   5.937   4.586   9.377  0.9679 -0.1574 -0.3662
  480MOL0     C64708   5.829   4.489   9.302  0.4145 -0.0469 -0.0179
  480MOL0     C64709   5.686   4.547   9.309 -0.5340 -1.0190 -0.1845
  480MOL0    Cl64710   5.674   4.674   9.179  0.0800 -0.1488  0.0423
  480MOL0     C64711   6.507   3.923   9.765 -0.1015  0.2318  0.0172
  480MOL0     C64712   6.619   3.867   9.824  0.9809  0.0138  0.6655
  480MOL0     O64713   6.938   4.001   9.857  0.1959 -0.1950 -0.3943
  480MOL0     C64714   7.005   3.686   9.973  0.1567  0.4998  0.7165
  480MOL0     C64715   7.098   3.622  10.050 -0.4330  0.8541 -0.9433
  480MOL0     N64716   7.863   3.452  10.320 -0.5665 -0.0534  0.4176
  480MOL0     N64717   7.923   3.343  10.346  0.4237  0.6967 -0.8164
  480MOL0     C64718   8.899   2.934  10.361 -0.9406  0.2991  0.3517
  480MOL0     C64719   9.030   2.939  10.409  0.9622  0.7001  0.1205
  480MOL0     C64720   9.422   2.763  10.596 -0.2850  0.4988  0.4143
  480MOL0     C64721   9.500   2.691  10.685  0.3656 -0.6597  0.0907
  480MOL0     C64722   9.633   2.729  10.702  0.0533  0.1653 -0.3069
  480MOL0     C64723   9.684   2.847  10.640 -0.0056  0.3509 -0.3327
  480MOL0     O64724   9.809   2.902  10.659 -0.5152  0.4822  0.6652
  480MOL0     C64725   9.910   2.825  10.731  0.4676  0.7925  0.4157
  480MOL0     C64726  10.024   2.925  10.739 -1.1053  0.4350  0.3735
  480MOL0     C64727  10.144   2.867  10.817 -1.0135 -0.4159 -0.2853
  480MOL0     C64728  10.263   2.960  10.812 -1.4752 -0.0303  0.0444
  480MOL0     C64729  10.382   2.889  10.870  0.1656  0.3168  0.4784
  480MOL0     C64730  10.470   2.813  10.904 -0.2874  0.3428  0.6299
  480MOL0     C64731   9.601   2.912  10.552 -0.3119 -0.5463 -0.4270
  480MOL0     C64732   9.467   2.876  10.534 -0.0272  0.2031 -0.4716
  480MOL0     H64733   9.034   2.612  10.518 -0.4635 -0.5012 -2.9587
  480MOL0     H64734   8.808   2.619  10.443 -0.4793  0.0001  1.0383
  480MOL0     H64735   8.607   2.740  10.518 -1.5368  1.2361  2.2364
  480MOL0     H64736   8.607   2.918  10.512  0.2659 -0.3700 -0.2894
  480MOL0     H64737   8.442   2.725  10.330  1.7242  0.0481  0.0544
  480MOL0     H64738   8.370   2.807  10.471 -0.0251 -0.8992 -0.4735
  480MOL0     H64739   8.405   3.027  10.396  0.4387 -0.7312  1.5762
  480MOL0     H64740   8.476   2.976  10.248  0.9309 -2.5718 -0.3979
  480MOL0     H64741   8.272   2.883  10.160  1.3672 -0.8723 -0.5239
  480MOL0     H64742   8.202   2.880  10.322  1.6616  0.4096  2.2583
  480MOL0     H64743   8.196   3.116  10.346 -1.2934 -0.0572  0.3567
  480MOL0     H64744   8.296   3.155  10.210  1.9212 -2.1869  0.0315
  480MOL0     H64745   8.088   3.213  10.144  0.3660 -0.8782  0.3392
  480MOL0     H64746   8.125   3.067  10.053  0.6458  1.4073 -1.1266
  480MOL0     H64747   7.890   3.030  10.110 -1.1273 -0.8149  0.2506
  480MOL0     H64748   7.985   2.928  10.209  1.7856  0.7398  3.0810
  480MOL0     H64749   7.973   3.089  10.402 -0.7952  0.3055  0.0823
  480MOL0     H64750   7.820   3.026  10.352  1.1786 -2.1875 -1.4239
  480MOL0     H64751   7.661   3.213  10.209  3.2915 -1.7105  1.3313
  480MOL0     H64752   7.594   3.561  10.301 -1.6704  2.0131 -2.1965
  480MOL0     H64753   7.704   3.611  10.176 -0.8347  1.7353  2.8275
  480MOL0     H64754   7.596   3.416  10.032 -0.9816  0.5264 -1.6828
  480MOL0     H64755   7.514   3.578  10.059  1.5276  1.3125  2.5330
  480MOL0     H64756   7.441   3.329  10.216 -1.1211 -1.0587 -0.3650
  480MOL0     H64757   7.363   3.383  10.066  3.6833 -0.9996 -2.3422
  480MOL0     H64758   7.366   3.517  10.349  0.9542  0.4660 -0.1416
  480MOL0     H64759   7.224   3.459  10.253  0.4586  0.1199  1.7237
  480MOL0     H64760   7.334   3.860  10.086 -0.7755  0.2369  2.4051
  480MOL0     H64761   7.306   4.027   9.927  0.0084 -3.9335 -0.6508
  480MOL0     H64762   7.180   4.039   9.822  0.4423  0.9218  0.1368
  480MOL0     H64763   7.147   4.098   9.985  0.4292 -0.5384  1.3424
  480MOL0     H64764   6.817   3.921   9.542 -0.4683 -0.2672  0.8806
  480MOL0     H64765   6.626   4.042   9.467  3.3159 -1.5835  0.2155
  480MOL0     H64766   6.433   4.210   9.521  0.0890  0.5096  0.5052
  480MOL0     H64767   6.372   4.088   9.408 -0.6089 -2.7718  1.2724
  480MOL0     H64768   6.142   4.132   9.473  1.9999 -1.7069 -0.6681
  480MOL0     H64769   6.202   4.187   9.636 -1.1924  0.0172  0.1438
  480MOL0     H64770   6.262   4.329   9.372  0.3552 -0.3417 -0.2671
  480MOL0     H64771   6.284   4.392   9.531  0.1673 -1.2480  1.1690
  480MOL0     H64772   5.998   4.333   9.459 -0.0708  0.5306  1.6507
  480MOL0     H64773   6.069   4.445   9.585 -0.6411 -0.1071 -0.0127
  480MOL0     H64774   6.110   4.499   9.287  2.2239  0.4736 -0.8438
  480MOL0     H64775   6.163   4.588   9.421  0.0082 -0.3852 -1.0693
  480MOL0     H64776   5.892   4.612   9.474  0.9046 -0.4910 -0.3047
  480MOL0     H64777   5.941   4.679   9.319  0.0382 -0.1575 -0.4423
  480MOL0     H64778   5.833   4.387   9.339 -0.4457 -0.5274 -1.1893
  480MOL0     H64779   5.849   4.487   9.194  2.1102 -0.9194  0.2865
  480MOL0     H64780   5.652   4.576   9.409  2.2781 -1.5081  1.0115
  480MOL0     H64781   5.604   4.483   9.275 -2.8196  0.9107  1.4266
  480MOL0     H64782   6.416   3.911   9.822 -0.2425 -0.7037 -0.3815
  480MOL0     H64783   6.616   3.835   9.927 -0.7677 -0.2587  0.5688
  480MOL0     H64784   6.928   3.624   9.928  1.2232 -1.1958  1.1274
  480MOL0     H64785   7.067   3.530  10.098  2.7337 -0.1523 -0.6596
  480MOL0     H64786   8.868   3.016  10.298  2.7267  1.1793 -0.5462
  480MOL0     H64787   9.098   3.024  10.407  1.5970  0.1862 -1.1038
  480MOL0     H64788   9.458   2.602  10.731  0.5866 -0.6343  0.3421
  480MOL0     H64789   9.701   2.676  10.768  2.2255  2.9726 -0.1003
  480MOL0     H64790   9.877   2.807  10.834 -0.9989  0.0030 -0.1524
  480MOL0     H64791   9.932   2.727  10.687 -4.0880  0.2006 -1.0201
  480MOL0     H64792   9.987   3.014  10.790 -0.4787  0.4408  0.8308
  480MOL0     H64793  10.052   2.951  10.637 -3.6746 -0.9151 -0.7881
  480MOL0     H64794  10.176   2.765  10.791 -0.0914 -1.1564  3.1804
  480MOL0     H64795  10.114   2.850  10.921 -1.6411  0.7749 -0.2548
  480MOL0     H64796  10.242   3.057  10.857 -3.8003 -0.6602  0.4526
  480MOL0     H64797  10.273   2.988  10.706  0.6059  1.0832  0.4843
  480MOL0     H64798  10.548   2.745  10.932 -1.2079 -0.2200  1.8862
  480MOL0     H64799   9.647   2.992  10.494 -2.4107  0.7010 -0.5034
  480MOL0     H64800   9.406   2.937  10.468  0.4950  0.0912 -1.0566
  481MOL0     O64801   6.305   8.532   2.973  0.0985 -0.6569 -0.3116
  481MOL0     C64802   6.333   8.420   2.929 -0.5415 -0.5830  0.5827
  481MOL0     O64803   6.250   8.349   2.855 -0.4959  0.3005 -0.0595
  481MOL0     C64804   6.116   8.364   2.837 -0.0582 -0.2749 -0.1680
  481MOL0     C64805   6.051   8.259   2.763 -0.2246  0.2175 -1.2667
  481MOL0     C64806   5.912   8.265   2.753 -0.4826  0.8978  0.9554
  481MOL0     C64807   5.835   8.358   2.814 -0.1209 -0.0400  0.4297
  481MOL0     O64808   5.698   8.349   2.820  0.3767  0.4586  0.2886
  481MOL0     C64809   5.633   8.218   2.794 -0.4912 -0.4832  0.0210
  481MOL0     C64810   5.490   8.242   2.790  0.0262 -0.3891  0.7794
  481MOL0     C64811   5.411   8.111   2.767  0.2317  0.4212  0.2561
  481MOL0     C64812   5.261   8.141   2.780 -0.1119 -0.2902  0.3383
  481MOL0     C64813   5.178   8.016   2.766  0.1538 -0.3351 -0.8106
  481MOL0     C64814   5.034   8.052   2.724  0.9751  0.0991 -0.5883
  481MOL0     C64815   4.938   7.933   2.736 -0.9248  0.4741 -0.3664
  481MOL0     C64816   4.787   7.981   2.725  1.1118  0.0496  0.3666
  481MOL0     N64817   4.750   7.987   2.587  0.1087  0.3925 -0.1611
  481MOL0     C64818   4.776   8.094   2.497 -0.0524 -0.1489 -0.5408
  481MOL0     C64819   4.732   8.047   2.377  0.1880  0.5847  0.7422
  481MOL0     C64820   4.733   8.121   2.248 -0.7787 -0.1336 -0.7560
  481MOL0     C64821   4.598   8.193   2.216 -0.3334  0.2147  0.4034
  481MOL0     C64822   4.482   8.095   2.193 -1.0180 -0.0822  0.1784
  481MOL0     C64823   4.346   8.160   2.213 -0.4766  0.3469 -0.0892
  481MOL0     O64824   4.322   8.225   2.089  0.2983  0.9506  0.2846
  481MOL0     C64825   4.189   8.236   2.056  0.4141  0.2365 -0.1580
  481MOL0     C64826   4.160   8.255   1.919  0.5190  0.4168 -0.1421
  481MOL0     C64827   4.023   8.262   1.872 -0.3038 -0.6482 -0.1862
  481MOL0     C64828   4.006   8.273   1.724  0.2026 -1.1454 -0.0855
  481MOL0     C64829   3.915   8.261   1.964  0.3668  0.0368  0.7432
  481MOL0     C64830   3.772   8.244   1.914 -0.2474 -0.5994 -0.6686
  481MOL0     O64831   3.719   8.312   1.803 -0.8728 -0.0596  0.3428
  481MOL0     C64832   3.589   8.310   1.777  0.1386  0.2640  0.3953
  481MOL0     C64833   3.487   8.358   1.862 -0.0924  0.0113 -0.0690
  481MOL0     C64834   3.359   8.360   1.820 -0.3894 -1.3838  0.3462
  481MOL0     C64835   3.313   8.309   1.699  0.0009 -0.5820  0.2376
  481MOL0     O64836   3.183   8.318   1.654  0.0760 -0.0510 -0.7205
  481MOL0     C64837   3.084   8.312   1.762 -0.2193 -1.0956  0.2969
  481MOL0     C64838   2.950   8.285   1.704  0.3494 -1.1875  0.1763
  481MOL0     C64839   2.908   8.405   1.619  0.2525 -0.3271  0.5469
  481MOL0     C64840   2.765   8.379   1.574 -0.3200 -0.1214 -0.4476
  481MOL0     C64841   2.738   8.492   1.477  0.4597  0.3647 -1.4744
  481MOL0     C64842   2.596   8.484   1.421  0.6284  0.2386 -0.4566
  481MOL0     C64843   2.487   8.490   1.534 -0.3394 -0.2804  1.2045
  481MOL0     C64844   2.344   8.509   1.484 -0.4917  0.0015  0.3690
  481MOL0    Cl64845   2.289   8.392   1.370 -0.1978  0.0330 -0.1220
  481MOL0     C64846   3.412   8.275   1.611  0.1528  0.8008  1.8094
  481MOL0     C64847   3.551   8.276   1.646  0.5189 -0.5387 -0.3633
  481MOL0     O64848   3.709   8.165   1.984 -0.0052 -0.4612  0.4335
  481MOL0     C64849   3.942   8.246   2.103 -0.3480 -0.1881 -0.5832
  481MOL0     C64850   4.078   8.236   2.149 -0.0451 -0.0685 -0.5831
  481MOL0     N64851   4.691   7.913   2.396 -0.2759 -0.1316 -0.0669
  481MOL0     N64852   4.708   7.878   2.520  0.7083  0.0453  0.2566
  481MOL0     C64853   5.903   8.463   2.877 -0.4072 -0.1957 -0.3463
  481MOL0     C64854   6.041   8.471   2.888 -0.4878  1.4290 -0.6811
  481MOL0     C64855   6.480   8.369   2.943  0.0980 -0.5492 -0.0113
  481MOL0     C64856   6.582   8.447   2.998 -0.1613 -0.8788  0.2216
  481MOL0     C64857   6.709   8.389   3.030  0.1356 -0.2042  0.2651
  481MOL0     C64858   6.740   8.255   3.003 -0.3919  0.4074  0.7403
  481MOL0     O64859   6.863   8.213   3.038  0.3442 -0.7059 -0.0592
  481MOL0     C64860   6.899   8.092   2.967  0.0132 -0.4885 -0.0087
  481MOL0     C64861   7.046   8.078   3.004  0.3604 -1.0185 -0.6262
  481MOL0     C64862   7.142   8.152   2.919 -0.4664 -0.1782 -0.0532
  481MOL0     C64863   7.166   8.290   2.962  0.3477 -0.6972  0.3451
  481MOL0     C64864   7.260   8.355   2.861 -0.6825  0.0723 -0.9553
  481MOL0     C64865   7.340   8.413   2.789 -0.1520 -0.3511 -0.0559
  481MOL0     C64866   6.641   8.180   2.931 -0.3849 -0.9257  0.1502
  481MOL0     C64867   6.514   8.239   2.896 -0.2068  0.4314  0.2924
  481MOL0     H64868   6.112   8.181   2.719  1.8489  2.0377 -1.8172
  481MOL0     H64869   5.866   8.189   2.692 -0.4673  1.2976  0.4381
  481MOL0     H64870   5.649   8.174   2.695 -2.3763 -2.2563  0.4474
  481MOL0     H64871   5.663   8.143   2.868 -2.8021 -1.2484  0.2704
  481MOL0     H64872   5.453   8.288   2.882 -1.1153 -0.1868  0.2389
  481MOL0     H64873   5.467   8.304   2.703 -0.8522  2.9986  3.2263
  481MOL0     H64874   5.445   8.078   2.668 -1.1090 -0.1282 -0.0377
  481MOL0     H64875   5.442   8.035   2.839  0.6532 -0.1250 -0.4824
  481MOL0     H64876   5.250   8.196   2.874 -0.0174  1.6289 -0.7121
  481MOL0     H64877   5.236   8.212   2.700  0.4941  0.3097  0.6643
  481MOL0     H64878   5.224   7.949   2.694  3.5534 -1.9279  2.5112
  481MOL0     H64879   5.176   7.976   2.867  1.7839 -3.1226 -1.7796
  481MOL0     H64880   4.989   8.121   2.796 -2.4102 -2.2896 -0.1359
  481MOL0     H64881   5.031   8.107   2.630  0.7821  3.1315  1.0816
  481MOL0     H64882   4.960   7.873   2.647  0.7644  2.6088 -1.5103
  481MOL0     H64883   4.957   7.870   2.823  0.1137  2.1658  0.6838
  481MOL0     H64884   4.783   8.085   2.760  2.6960  0.5753 -0.8674
  481MOL0     H64885   4.723   7.912   2.781 -0.3507  2.5614  2.0225
  481MOL0     H64886   4.808   8.196   2.515 -1.3264 -0.2856  3.4617
  481MOL0     H64887   4.809   8.200   2.253 -0.5772 -0.1916 -2.3395
  481MOL0     H64888   4.764   8.057   2.165  1.4578  0.4443 -0.4524
  481MOL0     H64889   4.613   8.251   2.124 -0.8742 -0.2310  0.0269
  481MOL0     H64890   4.573   8.261   2.298  3.4552  3.4859 -0.8217
  481MOL0     H64891   4.484   8.007   2.258 -0.3142  0.4486  0.8866
  481MOL0     H64892   4.484   8.045   2.096 -0.6819 -1.3883  0.8399
  481MOL0     H64893   4.358   8.236   2.291  1.9393 -0.1717  0.1287
  481MOL0     H64894   4.269   8.087   2.238  0.1049 -0.1223  0.3485
  481MOL0     H64895   4.249   8.264   1.858  2.1396  0.6120  2.1179
  481MOL0     H64896   3.950   8.365   1.704 -3.3672 -2.4256  3.0264
  481MOL0     H64897   4.102   8.277   1.671 -1.1280 -0.8539 -2.6238
  481MOL0     H64898   3.956   8.189   1.675  0.3845 -1.0896 -0.3721
  481MOL0     H64899   3.520   8.392   1.960 -0.3827  0.8920 -0.2689
  481MOL0     H64900   3.293   8.410   1.890 -0.1356  1.9713 -1.5961
  481MOL0     H64901   3.098   8.232   1.835  1.7453 -0.0022  1.2226
  481MOL0     H64902   3.084   8.410   1.812  0.1414 -0.5848 -0.6704
  481MOL0     H64903   2.947   8.194   1.644  0.4494 -0.1722 -1.4505
  481MOL0     H64904   2.887   8.276   1.793  1.5329  0.7699  1.2883
  481MOL0     H64905   2.972   8.403   1.531 -1.4549  0.9246 -0.8003
  481MOL0     H64906   2.905   8.501   1.671 -1.1836  0.0427 -0.1698
  481MOL0     H64907   2.757   8.276   1.536  2.1082 -0.4647 -0.2244
  481MOL0     H64908   2.710   8.383   1.668  4.0082 -3.6298  2.7019
  481MOL0     H64909   2.818   8.494   1.402  0.2333 -3.4997 -2.0392
  481MOL0     H64910   2.744   8.585   1.533  1.2338  0.2996 -1.4471
  481MOL0     H64911   2.581   8.554   1.339  1.5469 -0.7144 -1.4659
  481MOL0     H64912   2.588   8.385   1.375  1.1946  0.5824 -1.3200
  481MOL0     H64913   2.512   8.575   1.597  2.9093 -0.5565  0.4513
  481MOL0     H64914   2.475   8.393   1.582  0.6267 -0.8964  0.2633
  481MOL0     H64915   2.329   8.604   1.431  2.6566 -1.0338 -2.8068
  481MOL0     H64916   2.281   8.512   1.573  0.0414 -0.9067  0.7892
  481MOL0     H64917   3.388   8.224   1.518  3.9078  1.6234  0.1786
  481MOL0     H64918   3.621   8.227   1.579  0.3856  2.7693 -3.1718
  481MOL0     H64919   3.871   8.228   2.183 -0.5643  1.5836 -0.3356
  481MOL0     H64920   4.102   8.227   2.254  2.2814  2.9813 -0.7065
  481MOL0     H64921   5.840   8.534   2.929  0.1637 -0.3807  0.6346
  481MOL0     H64922   6.088   8.542   2.955  0.7544 -0.7606  0.8846
  481MOL0     H64923   6.547   8.544   3.032  1.6063 -0.1176 -0.0339
  481MOL0     H64924   6.786   8.454   3.070  0.1461 -0.5592  0.8270
  481MOL0     H64925   6.839   8.006   2.998  1.1247 -0.8802  1.1765
  481MOL0     H64926   6.884   8.108   2.860 -1.8595 -0.6484  0.2077
  481MOL0     H64927   7.078   7.974   3.000 -2.0936 -1.8670 -0.2771
  481MOL0     H64928   7.054   8.097   3.111 -1.3593 -1.4433 -0.3870
  481MOL0     H64929   7.103   8.141   2.817 -1.3615 -0.4413  0.3048
  481MOL0     H64930   7.235   8.094   2.918  0.5200  1.3740 -0.3954
  481MOL0     H64931   7.214   8.294   3.061 -0.8805  0.2149  0.9311
  481MOL0     H64932   7.069   8.338   2.981 -0.9638 -2.5969 -1.2637
  481MOL0     H64933   7.406   8.461   2.719  0.9886  0.2977  1.3937
  481MOL0     H64934   6.653   8.073   2.916  0.4630 -0.8167 -0.0264
  481MOL0     H64935   6.445   8.193   2.827  1.3745  0.7805 -1.6331
  482MOL0     O64936   5.716   3.848   9.957 -0.0372  0.7348 -0.5897
  482MOL0     C64937   5.689   3.908   9.854  0.7461 -0.0486 -0.6877
  482MOL0     O64938   5.572   3.981   9.827  0.2276  0.0552  0.9122
  482MOL0     C64939   5.478   3.986   9.929 -0.9166 -1.0128  0.0577
  482MOL0     C64940   5.473   4.101  10.017 -0.0846  0.4230 -0.4641
  482MOL0     C64941   5.387   4.111  10.127 -0.3057 -0.6492  0.7190
  482MOL0     C64942   5.281   4.021  10.130  0.5824  0.3470  1.4347
  482MOL0     O64943   5.167   4.027  10.215 -0.6226  0.2656  0.3270
  482MOL0     C64944   5.213   4.021  10.349  0.1832  0.7758 -0.2772
  482MOL0     C64945   5.102   4.064  10.446 -0.7315  0.4395 -0.2332
  482MOL0     C64946   5.076   3.982  10.574 -0.0611 -0.8987 -0.1980
  482MOL0     C64947   4.979   4.053  10.669  0.1044 -0.6400 -0.0487
  482MOL0     C64948   4.939   3.972  10.800 -0.4938  0.3582  0.0851
  482MOL0     C64949   5.050   3.946  10.898 -0.2063  1.0985 -0.6846
  482MOL0     C64950   5.001   3.855  11.013  0.5519 -0.0787  0.2317
  482MOL0     C64951   5.006   3.704  10.979 -0.0017  0.1153  0.1552
  482MOL0     N64952   4.955   3.624  11.094 -0.8278  0.1687 -0.3635
  482MOL0     C64953   4.830   3.565  11.097  0.2052  0.6019  0.3478
  482MOL0     C64954   4.812   3.504  11.214  0.4455  0.6251 -0.6678
  482MOL0     C64955   4.699   3.417  11.256 -0.2172 -0.0067  0.0632
  482MOL0     C64956   4.567   3.495  11.292 -0.7459  0.4642 -0.3621
  482MOL0     C64957   4.495   3.576  11.171 -0.1701  0.5031 -0.2077
  482MOL0     C64958   4.471   3.476  11.047 -0.5762 -0.2396 -1.2537
  482MOL0     O64959   4.375   3.529  10.959  0.2448  0.3438  0.0889
  482MOL0     C64960   4.250   3.556  11.010  0.5288 -0.9420 -0.7585
  482MOL0     C64961   4.198   3.488  11.126  0.3844 -0.0379 -0.4943
  482MOL0     C64962   4.070   3.527  11.183 -0.4265 -0.2596  0.6083
  482MOL0     C64963   4.030   3.447  11.308 -0.0085  0.2719 -0.0130
  482MOL0     C64964   3.991   3.626  11.118  0.9971 -0.4042 -0.4281
  482MOL0     C64965   3.844   3.653  11.168 -0.5633 -0.2020  0.0552
  482MOL0     O64966   3.773   3.725  11.076  0.2739  0.1383 -0.0784
  482MOL0     C64967   3.643   3.755  11.106 -0.0506 -0.4493  0.0461
  482MOL0     C64968   3.615   3.856  11.198  0.3213 -0.0963 -0.6356
  482MOL0     C64969   3.486   3.890  11.234 -0.5533  0.7104 -0.8652
  482MOL0     C64970   3.379   3.815  11.171 -0.1164 -0.0662  0.5562
  482MOL0     O64971   3.247   3.821  11.217 -0.8771 -0.0325  0.6501
  482MOL0     C64972   3.212   3.941  11.288 -0.8863 -0.2678  0.5528
  482MOL0     C64973   3.066   3.943  11.304 -0.6666 -0.2823  0.3562
  482MOL0     C64974   2.988   3.926  11.178 -0.3188  0.1973  0.1040
  482MOL0     C64975   2.859   4.005  11.181  0.0460 -0.4253  0.1134
  482MOL0     C64976   2.775   3.975  11.060  0.2337  0.3459 -0.4746
  482MOL0     C64977   2.648   4.059  11.075 -0.3007  0.3442 -0.2444
  482MOL0     C64978   2.559   4.043  10.960 -0.2758 -0.6988 -0.0407
  482MOL0     C64979   2.414   4.073  10.998  0.6202 -0.2748  0.0119
  482MOL0    Cl64980   2.342   3.934  11.073  0.3829 -0.2611  0.1317
  482MOL0     C64981   3.413   3.715  11.075  0.2422  0.7380  0.0495
  482MOL0     C64982   3.542   3.690  11.043 -0.6021 -0.6448  0.9604
  482MOL0     O64983   3.796   3.591  11.263  0.2640 -0.2381  0.3277
  482MOL0     C64984   4.041   3.693  11.003 -0.0955 -0.6699  1.0436
  482MOL0     C64985   4.171   3.661  10.949 -0.5281  0.6958  0.5174
  482MOL0     N64986   4.930   3.529  11.291  0.4587 -0.0815 -0.3934
  482MOL0     N64987   5.008   3.601  11.219 -0.3441 -0.4549  0.4407
  482MOL0     C64988   5.276   3.914  10.037 -0.3103  0.1922 -0.0706
  482MOL0     C64989   5.381   3.889   9.954 -0.1898  0.1039  0.9755
  482MOL0     C64990   5.787   3.900   9.744  0.3738  0.2701 -0.3597
  482MOL0     C64991   5.738   3.935   9.614  0.2176  0.7636 -0.5462
  482MOL0     C64992   5.819   3.906   9.507  0.3227 -0.2182 -0.1406
  482MOL0     C64993   5.951   3.871   9.522  0.2714 -0.3205  0.3219
  482MOL0     O64994   6.028   3.871   9.404 -0.0894  0.3286  0.4753
  482MOL0     C64995   6.144   3.790   9.405 -0.1220  0.5501 -0.1585
  482MOL0     C64996   6.235   3.812   9.278 -0.2593 -0.5772  0.3220
  482MOL0     C64997   6.352   3.709   9.272  0.1169  0.1689  0.4018
  482MOL0     C64998   6.478   3.766   9.340  0.4824  0.6648 -0.8801
  482MOL0     C64999   6.579   3.665   9.343  0.0375 -0.4993  0.3348
  482MOL0     C65000   6.675   3.588   9.349 -0.1040 -0.2926  0.1437
  482MOL0     C65001   6.001   3.848   9.648  0.8486  0.6605 -0.7219
  482MOL0     C65002   5.921   3.868   9.758  0.0097  0.1589  0.0676
  482MOL0     H65003   5.550   4.177  10.019  0.8868 -0.5346  1.3211
  482MOL0     H65004   5.395   4.199  10.190  2.0232 -0.5222  0.3317
  482MOL0     H65005   5.252   3.922  10.375  0.3634  0.3567 -1.9731
  482MOL0     H65006   5.291   4.095  10.371  0.7798  1.0623 -3.0117
  482MOL0     H65007   5.106   4.169  10.476 -4.9038  0.3488  1.4094
  482MOL0     H65008   5.006   4.060  10.393 -1.2468  1.4659  0.5982
  482MOL0     H65009   5.045   3.887  10.529 -0.6713  0.8112 -3.7121
  482MOL0     H65010   5.164   3.959  10.635 -0.2567 -1.7579 -0.2292
  482MOL0     H65011   5.023   4.151  10.689  1.0740 -1.1099  0.2103
  482MOL0     H65012   4.887   4.069  10.612  0.2055 -1.1399 -0.3600
  482MOL0     H65013   4.853   4.022  10.844 -0.1227  1.9128 -0.8616
  482MOL0     H65014   4.892   3.878  10.770 -2.4816  1.4237 -0.2839
  482MOL0     H65015   5.133   3.898  10.844  0.1461  0.3745  0.4746
  482MOL0     H65016   5.087   4.037  10.946 -2.1968  1.6004 -0.0286
  482MOL0     H65017   5.060   3.884  11.100 -0.7126 -0.5270  1.2808
  482MOL0     H65018   4.904   3.901  11.038  1.4288  1.5372  0.8259
  482MOL0     H65019   5.107   3.674  10.952  2.2987  4.6528  2.6276
  482MOL0     H65020   4.946   3.684  10.890 -2.2265 -2.5244  2.0479
  482MOL0     H65021   4.765   3.565  11.010 -0.1861 -1.6542  0.5728
  482MOL0     H65022   4.678   3.344  11.178  0.1665 -2.7580  2.3880
  482MOL0     H65023   4.720   3.343  11.333 -0.3284  0.3809  0.4746
  482MOL0     H65024   4.597   3.569  11.367  3.4212 -0.1693 -1.1575
  482MOL0     H65025   4.501   3.422  11.340 -2.8653  1.7645 -1.2169
  482MOL0     H65026   4.557   3.654  11.125 -2.2694  1.8015 -0.9599
  482MOL0     H65027   4.404   3.626  11.203 -1.2416 -1.3044 -0.2804
  482MOL0     H65028   4.441   3.377  11.081 -0.0185 -0.0964 -0.3002
  482MOL0     H65029   4.568   3.464  10.997  0.3179 -3.0033  0.8932
  482MOL0     H65030   4.251   3.406  11.173 -1.6015 -0.4949  1.0892
  482MOL0     H65031   4.112   3.404  11.366  0.6699  1.4853 -0.0320
  482MOL0     H65032   3.986   3.520  11.376 -1.2910  0.6643 -1.2014
  482MOL0     H65033   3.964   3.362  11.288  0.2332 -1.0006  3.7685
  482MOL0     H65034   3.687   3.921  11.247  2.0604 -1.8142 -0.7738
  482MOL0     H65035   3.479   3.963  11.314 -0.3919  0.1014 -0.2802
  482MOL0     H65036   3.256   3.935  11.388 -0.6293 -2.6131  0.3487
  482MOL0     H65037   3.245   4.028  11.230  2.2246 -0.3474  1.9746
  482MOL0     H65038   3.039   3.874  11.384 -2.6021 -1.1515 -0.9662
  482MOL0     H65039   3.054   4.046  11.340  2.8839  0.0972  0.7900
  482MOL0     H65040   2.972   3.820  11.159 -0.9285  0.7288 -2.7569
  482MOL0     H65041   3.047   3.952  11.089 -1.1287  2.9984  0.2689
  482MOL0     H65042   2.802   3.973  11.268  1.2156 -1.8882  0.3822
  482MOL0     H65043   2.874   4.113  11.177  0.6666 -0.3665  2.5361
  482MOL0     H65044   2.757   3.867  11.053  1.5177  0.2237 -3.0817
  482MOL0     H65045   2.819   4.001  10.964 -1.3676  0.8060 -1.1242
  482MOL0     H65046   2.604   4.015  11.165  0.2172 -0.1082 -0.2065
  482MOL0     H65047   2.671   4.165  11.087  1.3564 -0.1930  1.9800
  482MOL0     H65048   2.572   3.944  10.915  2.2795 -1.1620  1.4908
  482MOL0     H65049   2.592   4.110  10.881  1.5976 -1.4196  0.0604
  482MOL0     H65050   2.354   4.097  10.910 -0.5083  1.5102  1.1828
  482MOL0     H65051   2.396   4.158  11.065 -1.3983 -1.3635  0.9601
  482MOL0     H65052   3.327   3.666  11.031  0.2953 -1.1215  1.8630
  482MOL0     H65053   3.574   3.608  10.979 -0.1503 -0.2356  0.6555
  482MOL0     H65054   3.973   3.762  10.954  0.5821 -0.2234  0.7212
  482MOL0     H65055   4.225   3.707  10.867  2.6685 -0.3888  1.8351
  482MOL0     H65056   5.185   3.856  10.054 -1.0525  1.3010 -0.1753
  482MOL0     H65057   5.375   3.791   9.907 -1.2386  0.4481  0.3489
  482MOL0     H65058   5.641   3.981   9.596  1.4580  2.5325 -3.8019
  482MOL0     H65059   5.800   3.933   9.404  3.4722  2.1628 -0.2456
  482MOL0     H65060   6.214   3.813   9.486 -0.0231  0.1296 -0.1204
  482MOL0     H65061   6.112   3.686   9.393 -0.4671  0.6855 -0.4519
  482MOL0     H65062   6.288   3.907   9.282  1.2260 -1.4106  3.2466
  482MOL0     H65063   6.182   3.813   9.183  0.3576  1.8457 -0.0539
  482MOL0     H65064   6.390   3.690   9.171 -2.4542  0.7561 -0.7455
  482MOL0     H65065   6.313   3.618   9.319 -2.0196  1.0278  0.3792
  482MOL0     H65066   6.451   3.780   9.446  1.0331  0.9548 -0.7752
  482MOL0     H65067   6.518   3.859   9.300 -0.2580  2.6010  2.4373
  482MOL0     H65068   6.756   3.519   9.359  0.0602 -0.2411 -0.7727
  482MOL0     H65069   6.101   3.807   9.651  0.3520 -0.5019  1.0833
  482MOL0     H65070   5.957   3.854   9.859  0.6950  1.0589 -0.0478
  483MOL0     O65071   3.284   4.381   1.231 -0.4500 -0.2972 -0.0221
  483MOL0     C65072   3.368   4.328   1.310  0.0969 -0.0558  0.1755
  483MOL0     O65073   3.357   4.207   1.371 -0.1031 -0.1351 -0.0963
  483MOL0     C65074   3.244   4.144   1.356  0.1702 -0.0176 -0.7790
  483MOL0     C65075   3.148   4.177   1.453  0.3247 -0.9353 -0.0010
  483MOL0     C65076   3.022   4.115   1.455  0.5924  0.6432 -0.4408
  483MOL0     C65077   2.977   4.042   1.348 -0.0017  0.5386 -0.1096
  483MOL0     O65078   2.869   3.972   1.363  0.6767  0.5260  0.2569
  483MOL0     C65079   2.797   3.931   1.244 -0.1468 -0.0718  0.8938
  483MOL0     C65080   2.647   3.949   1.249  0.1609  0.8906  0.2663
  483MOL0     C65081   2.619   4.100   1.294 -0.5457  0.6315  0.1823
  483MOL0     C65082   2.469   4.126   1.313 -0.1197  0.0564  0.0307
  483MOL0     C65083   2.432   4.278   1.333 -0.3697 -0.6943  0.2677
  483MOL0     C65084   2.281   4.291   1.348 -0.1781  0.1384  1.0748
  483MOL0     C65085   2.208   4.255   1.219  0.6103 -0.4312  0.2852
  483MOL0     C65086   2.059   4.249   1.251  0.2068 -0.6407  0.2781
  483MOL0     N65087   1.987   4.202   1.137 -0.3613 -0.8197 -0.7466
  483MOL0     C65088   2.008   4.239   1.012  0.4049 -0.7680  0.3816
  483MOL0     C65089   1.936   4.158   0.933  1.1300 -0.3538 -0.6088
  483MOL0     C65090   1.915   4.160   0.784  0.4825  0.2197 -0.7442
  483MOL0     C65091   1.782   4.093   0.749  0.3866  0.4726 -0.2562
  483MOL0     C65092   1.767   4.076   0.599 -0.1803 -0.3705 -0.0969
  483MOL0     C65093   1.648   3.993   0.562  0.4990  0.1263 -0.0483
  483MOL0     O65094   1.664   3.863   0.617 -0.3284  0.9958 -0.5728
  483MOL0     C65095   1.561   3.774   0.593 -0.0213 -0.5707 -0.1373
  483MOL0     C65096   1.588   3.643   0.640 -0.4356 -0.5424 -0.3270
  483MOL0     C65097   1.508   3.532   0.611  0.6609  0.0270 -0.8582
  483MOL0     C65098   1.560   3.404   0.667  0.0447  0.4687  0.1462
  483MOL0     C65099   1.383   3.554   0.543 -0.5091  0.5540 -0.2969
  483MOL0     C65100   1.290   3.447   0.509  0.1731 -0.2504  0.4251
  483MOL0     O65101   1.174   3.489   0.445  0.2867  0.7838  0.1250
  483MOL0     C65102   1.066   3.415   0.410 -0.2443 -0.3870 -0.3459
  483MOL0     C65103   0.958   3.479   0.357  0.1157  0.0022 -0.5900
  483MOL0     C65104   0.840   3.413   0.315 -0.2772  0.4431  0.0863
  483MOL0     C65105   0.821   3.276   0.350  0.1084  0.4263  0.7110
  483MOL0     O65106   0.712   3.218   0.296 -0.0396 -0.4330  0.1218
  483MOL0     C65107   0.683   3.089   0.356  0.4258 -0.0697 -0.0047
  483MOL0     C65108   0.553   3.039   0.305 -0.3752 -0.7280  0.1685
  483MOL0     C65109   0.494   2.916   0.372  0.2105  0.0172  0.2002
  483MOL0     C65110   0.353   2.879   0.316 -0.0392  0.3957  0.1806
  483MOL0     C65111   0.243   2.989   0.337  0.9763 -0.4631 -0.1320
  483MOL0     C65112   0.127   2.958   0.248  0.0081  0.4442  0.1413
  483MOL0     C65113   0.005   3.038   0.293 -0.5820 -0.0894 -0.1241
  483MOL0     C65114  -0.071   2.988   0.413 -0.2605  0.1191 -0.1831
  483MOL0    Cl65115  -0.140   2.830   0.390 -0.1203 -0.0415 -0.3616
  483MOL0     C65116   0.923   3.209   0.418 -0.2873  0.3472  0.2496
  483MOL0     C65117   1.045   3.274   0.432  0.1829  0.0138 -1.0986
  483MOL0     O65118   1.318   3.331   0.527 -0.4583  0.2695 -0.0272
  483MOL0     C65119   1.350   3.689   0.509 -0.1532 -0.0586  0.5550
  483MOL0     C65120   1.438   3.796   0.527 -0.7017  0.6281  0.2740
  483MOL0     N65121   1.866   4.076   1.027  0.9314  0.3573  0.3894
  483MOL0     N65122   1.893   4.106   1.146 -0.2086  0.5132  0.2107
  483MOL0     C65123   3.070   4.015   1.242  0.8216 -0.4340  1.2272
  483MOL0     C65124   3.198   4.067   1.241  0.3033  0.3380 -1.0526
  483MOL0     C65125   3.499   4.395   1.309  0.3830  0.3266  0.0433
  483MOL0     C65126   3.610   4.336   1.367  0.1094  0.4112  0.1622
  483MOL0     C65127   3.736   4.388   1.349  0.9275  0.3273  0.8332
  483MOL0     C65128   3.739   4.508   1.267 -0.5369 -0.5643 -0.5659
  483MOL0     O65129   3.858   4.574   1.234 -0.1648  0.0596 -0.2049
  483MOL0     C65130   3.973   4.543   1.308 -0.0716  0.0623  0.0027
  483MOL0     C65131   4.069   4.663   1.274 -0.3410 -0.2181  0.6491
  483MOL0     C65132   4.202   4.647   1.355  0.5774 -0.0334  0.2182
  483MOL0     C65133   4.297   4.547   1.296 -0.2143 -0.2192 -0.0525
  483MOL0     C65134   4.376   4.604   1.185 -0.1867  0.1661  0.3938
  483MOL0     C65135   4.446   4.653   1.100  0.7068 -0.3245  1.0429
  483MOL0     C65136   3.625   4.574   1.222  0.5027  0.3671  0.2260
  483MOL0     C65137   3.502   4.515   1.248 -0.4801 -0.7367  0.8063
  483MOL0     H65138   3.185   4.229   1.541  0.9392 -1.4308  0.0462
  483MOL0     H65139   2.951   4.139   1.534 -0.3661 -0.5392 -0.9066
  483MOL0     H65140   2.818   3.998   1.160 -2.8650  0.0222  0.1968
  483MOL0     H65141   2.832   3.829   1.226 -1.6621 -0.4611 -0.0597
  483MOL0     H65142   2.607   3.937   1.148 -1.7238  0.0292  1.0438
  483MOL0     H65143   2.603   3.876   1.318  0.2677 -0.2129 -0.7983
  483MOL0     H65144   2.677   4.118   1.386 -1.8470  0.5066  1.0547
  483MOL0     H65145   2.646   4.173   1.217 -1.4064  1.1002  0.3126
  483MOL0     H65146   2.428   4.100   1.215  2.5673  1.7897 -1.6926
  483MOL0     H65147   2.432   4.069   1.399 -0.1166  1.1248  0.7626
  483MOL0     H65148   2.481   4.323   1.420 -2.1366 -3.2390  2.7633
  483MOL0     H65149   2.455   4.332   1.241 -0.4023 -0.8208  0.1854
  483MOL0     H65150   2.260   4.233   1.439  0.7154  1.9361  2.5075
  483MOL0     H65151   2.255   4.396   1.367  3.3608  1.3866 -0.1652
  483MOL0     H65152   2.228   4.322   1.134  1.0648 -0.3717  0.4359
  483MOL0     H65153   2.239   4.159   1.178  2.4531  0.6444 -1.0136
  483MOL0     H65154   2.024   4.351   1.271  2.0030  0.7525 -2.8969
  483MOL0     H65155   2.040   4.186   1.338  2.7166  1.6618  2.7218
  483MOL0     H65156   2.069   4.326   0.991  0.8237 -1.2572 -0.4757
  483MOL0     H65157   1.916   4.257   0.731 -1.0032  0.5399 -0.2298
  483MOL0     H65158   1.986   4.100   0.726 -0.8180 -0.6308 -1.5209
  483MOL0     H65159   1.707   4.169   0.775  0.8087  1.1485 -0.9873
  483MOL0     H65160   1.754   4.009   0.813  0.2614  1.0092  0.4106
  483MOL0     H65161   1.854   4.031   0.551 -1.6262 -1.0684 -2.1794
  483MOL0     H65162   1.751   4.174   0.553 -0.4912 -0.7340 -0.7742
  483MOL0     H65163   1.629   3.995   0.454 -2.0468  1.7401  0.3536
  483MOL0     H65164   1.569   4.033   0.625  1.4646  0.9460  0.6786
  483MOL0     H65165   1.675   3.632   0.704 -0.8807  0.6894  0.5265
  483MOL0     H65166   1.539   3.320   0.600  0.2736 -0.1618  0.8527
  483MOL0     H65167   1.667   3.391   0.687 -0.2256 -1.3354  0.5720
  483MOL0     H65168   1.509   3.389   0.762 -0.8632  0.5326 -0.3271
  483MOL0     H65169   0.974   3.583   0.329  0.0826  0.2799  0.4077
  483MOL0     H65170   0.764   3.460   0.253 -0.4873 -1.9516 -1.5866
  483MOL0     H65171   0.754   3.011   0.327 -1.2074 -0.9445 -1.9050
  483MOL0     H65172   0.664   3.092   0.464 -2.7091 -0.1479 -0.4522
  483MOL0     H65173   0.494   3.130   0.320  0.7891  0.3731 -1.6134
  483MOL0     H65174   0.567   3.023   0.198 -2.2648  0.2802 -0.2599
  483MOL0     H65175   0.480   2.936   0.479  1.9787  0.5304  0.3635
  483MOL0     H65176   0.556   2.827   0.357 -1.7613 -1.8885  2.5248
  483MOL0     H65177   0.365   2.870   0.208 -0.3226 -0.8124  0.2326
  483MOL0     H65178   0.324   2.782   0.358  2.4268 -1.9081 -2.9998
  483MOL0     H65179   0.275   3.088   0.306  0.2458 -0.0628  0.3698
  483MOL0     H65180   0.205   2.988   0.440 -2.8027 -2.5946 -1.3070
  483MOL0     H65181   0.146   2.987   0.144 -0.8476 -0.0827 -0.1754
  483MOL0     H65182   0.098   2.852   0.247  0.9009  0.1717 -2.0093
  483MOL0     H65183  -0.062   3.071   0.213  1.9044  2.8808 -1.1623
  483MOL0     H65184   0.045   3.136   0.320  0.9137 -1.1779  1.9109
  483MOL0     H65185  -0.156   3.054   0.435 -1.5941 -1.9959  1.3323
  483MOL0     H65186  -0.003   2.984   0.499 -0.9524 -1.1230  0.3241
  483MOL0     H65187   0.923   3.102   0.435  0.0140  0.0699 -1.2708
  483MOL0     H65188   1.123   3.215   0.480  1.2003  1.7095 -0.5537
  483MOL0     H65189   1.260   3.718   0.456  0.9521  1.5626 -0.5418
  483MOL0     H65190   1.409   3.895   0.493  0.5645  0.7142 -0.6251
  483MOL0     H65191   3.041   3.962   1.152  0.2658  0.7887  0.6520
  483MOL0     H65192   3.267   4.041   1.160 -1.0469  0.5291 -2.3113
  483MOL0     H65193   3.603   4.244   1.424  0.7592  1.0609  1.3146
  483MOL0     H65194   3.821   4.339   1.395  0.5062 -1.2588  0.0011
  483MOL0     H65195   3.951   4.532   1.415  2.9250 -2.5045  0.4864
  483MOL0     H65196   4.029   4.453   1.281  0.4241  0.1191  0.8212
  483MOL0     H65197   4.022   4.761   1.287 -0.4486 -0.1287 -0.3195
  483MOL0     H65198   4.101   4.666   1.170  0.9333  0.0669  1.0371
  483MOL0     H65199   4.174   4.621   1.458 -0.4325 -0.4907 -0.1627
  483MOL0     H65200   4.257   4.742   1.359  1.3358 -0.4460 -0.1805
  483MOL0     H65201   4.252   4.455   1.258  1.0495  0.4159 -3.5000
  483MOL0     H65202   4.353   4.516   1.384  0.8885  2.1213  0.1511
  483MOL0     H65203   4.508   4.694   1.023 -0.7883 -2.3735 -1.4382
  483MOL0     H65204   3.630   4.677   1.188  3.1539  1.0284  2.2292
  483MOL0     H65205   3.418   4.564   1.200 -0.4602 -0.8347  0.6708
  484MOL0     O65206   0.711   1.699   2.463 -0.2779 -0.4673 -0.0454
  484MOL0     C65207   0.826   1.673   2.499  1.0048  0.2463 -1.2180
  484MOL0     O65208   0.862   1.594   2.608  0.5043 -0.3899  0.7036
  484MOL0     C65209   0.770   1.559   2.706 -0.0324  0.9391  0.4536
  484MOL0     C65210   0.703   1.444   2.687 -0.6597  0.6774 -0.6463
  484MOL0     C65211   0.629   1.392   2.789  0.0346 -0.1647 -0.4794
  484MOL0     C65212   0.604   1.462   2.907 -1.2064  0.2435 -0.3403
  484MOL0     O65213   0.532   1.409   3.012  0.2776 -0.1369  1.0153
  484MOL0     C65214   0.389   1.382   2.977  0.2841 -0.1789 -0.2282
  484MOL0     C65215   0.343   1.315   3.104 -0.5228  0.5617 -0.9306
  484MOL0     C65216   0.187   1.310   3.096 -0.6852  0.4413 -0.3888
  484MOL0     C65217   0.121   1.242   3.205 -0.2425  0.2553  0.5342
  484MOL0     C65218  -0.031   1.217   3.178 -0.3736  1.1951  0.2604
  484MOL0     C65219  -0.079   1.112   3.282 -0.1269 -0.3724  0.4389
  484MOL0     C65220  -0.231   1.068   3.254 -0.4852  0.1565  0.5283
  484MOL0     C65221  -0.278   0.935   3.337 -0.6937  0.0153 -1.1983
  484MOL0     N65222  -0.423   0.910   3.324 -0.9723  0.1013 -0.4904
  484MOL0     C65223  -0.522   1.000   3.324 -0.2763 -0.1281 -0.2949
  484MOL0     C65224  -0.631   0.929   3.344  1.2043 -0.0522  0.2687
  484MOL0     C65225  -0.771   0.977   3.371 -0.5646 -1.0671 -0.7954
  484MOL0     C65226  -0.821   1.043   3.250 -0.0837 -0.4695  0.4407
  484MOL0     C65227  -0.970   1.077   3.263  0.2148  0.2100 -0.4319
  484MOL0     C65228  -1.011   1.138   3.125  0.2906 -0.3536  0.3463
  484MOL0     O65229  -1.050   1.032   3.037 -0.1465  0.3963  0.3616
  484MOL0     C65230  -1.168   0.962   3.053  0.5130 -0.0338 -0.0136
  484MOL0     C65231  -1.286   1.013   3.107 -0.4563 -0.5275  0.2390
  484MOL0     C65232  -1.407   0.940   3.098  0.6478  0.2352 -0.1209
  484MOL0     C65233  -1.525   0.996   3.165 -0.0869  0.4814  0.5588
  484MOL0     C65234  -1.404   0.809   3.043 -0.1851  0.2126  0.7407
  484MOL0     C65235  -1.518   0.714   3.021 -0.3405  0.1130 -0.7259
  484MOL0     O65236  -1.488   0.591   2.967  0.3708  0.4884 -0.4667
  484MOL0     C65237  -1.590   0.537   2.899 -0.7579  0.5167 -0.1111
  484MOL0     C65238  -1.659   0.605   2.806 -0.2819  0.0665  0.1470
  484MOL0     C65239  -1.776   0.549   2.750 -1.3004  0.1124 -0.3092
  484MOL0     C65240  -1.830   0.430   2.800  0.3519 -0.2769  0.6090
  484MOL0     O65241  -1.943   0.389   2.737  0.2625 -0.2865 -0.3230
  484MOL0     C65242  -1.972   0.247   2.728 -0.2605  0.1676 -0.1833
  484MOL0     C65243  -2.082   0.221   2.621  0.0795  0.7428 -0.0880
  484MOL0     C65244  -2.045   0.249   2.473  0.5766  0.3794  0.0885
  484MOL0     C65245  -1.918   0.166   2.434  1.3883  0.1230 -0.1662
  484MOL0     C65246  -1.919   0.015   2.447  0.1300 -0.1414 -0.4374
  484MOL0     C65247  -1.810  -0.060   2.371 -0.2859 -0.2518 -0.1506
  484MOL0     C65248  -1.865  -0.187   2.304 -0.0449  0.9553  0.1189
  484MOL0     C65249  -1.765  -0.265   2.222  0.0045  0.4612 -0.2160
  484MOL0    Cl65250  -1.667  -0.172   2.103  0.2885  0.3830 -0.1247
  484MOL0     C65251  -1.752   0.359   2.890 -0.1135 -1.0976 -0.4066
  484MOL0     C65252  -1.624   0.410   2.936  0.7647 -0.3301  0.3073
  484MOL0     O65253  -1.631   0.743   3.059  0.0053  0.2080  0.0673
  484MOL0     C65254  -1.278   0.761   2.997  0.0169  0.5690 -0.5304
  484MOL0     C65255  -1.169   0.842   2.992  0.2600 -0.5931 -0.5989
  484MOL0     N65256  -0.605   0.788   3.346 -0.0286  0.1789  0.6531
  484MOL0     N65257  -0.471   0.784   3.343  1.0781 -0.0390  0.8875
  484MOL0     C65258   0.681   1.581   2.924 -0.1709  0.0820  0.3089
  484MOL0     C65259   0.774   1.623   2.821 -0.3859 -0.9489  0.4113
  484MOL0     C65260   0.937   1.719   2.419 -0.2189 -0.9355  0.0682
  484MOL0     C65261   0.912   1.776   2.295 -0.1291  0.2533  0.6124
  484MOL0     C65262   1.015   1.837   2.220  0.4498 -0.0638 -0.1243
  484MOL0     C65263   1.148   1.850   2.268  0.1182  0.0885  0.4765
  484MOL0     O65264   1.256   1.908   2.202 -0.1176 -0.3522 -0.7443
  484MOL0     C65265   1.222   1.988   2.084  0.1166  0.5588  1.1517
  484MOL0     C65266   1.177   2.130   2.132 -0.4239  0.1159 -0.8092
  484MOL0     C65267   1.297   2.207   2.207  0.0489 -0.2921  0.0810
  484MOL0     C65268   1.268   2.349   2.245  0.8132  0.1000  0.6390
  484MOL0     C65269   1.221   2.428   2.129  0.2901  0.2148  0.2321
  484MOL0     C65270   1.214   2.514   2.041 -0.6405 -0.1764  0.5573
  484MOL0     C65271   1.169   1.796   2.397 -0.2389 -0.4221  0.3486
  484MOL0     C65272   1.069   1.734   2.470  0.6610  0.3686  0.0113
  484MOL0     H65273   0.726   1.395   2.593  0.2428 -2.0032  0.8650
  484MOL0     H65274   0.575   1.299   2.771 -0.3744 -0.6642  2.8134
  484MOL0     H65275   0.330   1.472   2.959 -0.1669 -0.7404 -1.7476
  484MOL0     H65276   0.376   1.313   2.892 -2.0375 -1.7789  1.2965
  484MOL0     H65277   0.389   1.218   3.126 -0.4412  0.0665 -3.0780
  484MOL0     H65278   0.371   1.371   3.194  0.2118 -2.3460  0.8134
  484MOL0     H65279   0.146   1.411   3.101 -0.7404  0.4204 -0.4089
  484MOL0     H65280   0.162   1.265   2.999 -1.1317 -0.6242  0.1980
  484MOL0     H65281   0.166   1.142   3.210 -2.3102 -0.9196 -2.0175
  484MOL0     H65282   0.131   1.294   3.300  3.5214  0.9478 -0.0824
  484MOL0     H65283  -0.083   1.313   3.187 -1.8244  0.3053  2.1507
  484MOL0     H65284  -0.043   1.169   3.081  0.0480  2.3149 -0.3560
  484MOL0     H65285  -0.016   1.023   3.275 -2.3370 -2.0928  1.0552
  484MOL0     H65286  -0.067   1.143   3.386 -1.3236  2.8136 -0.2497
  484MOL0     H65287  -0.298   1.149   3.286 -1.7065 -0.7641  0.3802
  484MOL0     H65288  -0.247   1.054   3.147  0.5674 -3.6682  0.7358
  484MOL0     H65289  -0.254   0.944   3.443  0.0885  0.5597 -1.4134
  484MOL0     H65290  -0.222   0.844   3.310 -2.4083 -1.4499 -0.0559
  484MOL0     H65291  -0.521   1.108   3.323 -0.1834 -0.1239  0.2756
  484MOL0     H65292  -0.839   0.893   3.390 -0.1417 -1.0520  0.9597
  484MOL0     H65293  -0.769   1.044   3.457 -0.0814 -2.1704  0.0851
  484MOL0     H65294  -0.805   0.979   3.163  1.0971  0.5163 -0.0856
  484MOL0     H65295  -0.762   1.134   3.234  0.9536 -1.1450  0.3465
  484MOL0     H65296  -0.990   1.152   3.340 -1.5677  0.4582 -1.0992
  484MOL0     H65297  -1.029   0.991   3.298 -0.6413  1.7230  2.1808
  484MOL0     H65298  -0.927   1.180   3.068 -0.4196  0.5814 -0.0265
  484MOL0     H65299  -1.083   1.220   3.133  1.2285  0.7477 -1.6872
  484MOL0     H65300  -1.298   1.113   3.146 -0.3686 -0.3940 -0.0700
  484MOL0     H65301  -1.521   1.104   3.184 -0.7824  0.6374 -0.1272
  484MOL0     H65302  -1.613   0.988   3.100  1.8856  3.3383 -2.8228
  484MOL0     H65303  -1.542   0.946   3.261 -0.0022  3.6322  2.3596
  484MOL0     H65304  -1.643   0.709   2.777  0.8800 -0.7855 -2.5548
  484MOL0     H65305  -1.823   0.607   2.672  0.5100  2.1661  0.0345
  484MOL0     H65306  -1.881   0.186   2.727  0.1925  0.8208  0.1143
  484MOL0     H65307  -2.022   0.226   2.823  0.8626  0.9759  0.6213
  484MOL0     H65308  -2.100   0.114   2.635 -0.7866  0.9269  0.2638
  484MOL0     H65309  -2.177   0.271   2.642 -0.8513 -0.5091 -1.1113
  484MOL0     H65310  -2.027   0.357   2.467  0.7542  0.4463  1.4925
  484MOL0     H65311  -2.121   0.223   2.399  1.2255 -1.5295  0.0480
  484MOL0     H65312  -1.888   0.192   2.332  1.6820 -0.2649 -0.1823
  484MOL0     H65313  -1.840   0.208   2.498 -1.9220  3.4993  2.0904
  484MOL0     H65314  -2.013  -0.016   2.401  0.5750 -1.1775 -0.6677
  484MOL0     H65315  -1.912  -0.013   2.552  2.5511  1.5905 -0.0454
  484MOL0     H65316  -1.774   0.013   2.298  1.8689  3.4211  4.0910
  484MOL0     H65317  -1.723  -0.086   2.431 -0.3470  0.0134  0.0533
  484MOL0     H65318  -1.950  -0.165   2.239 -0.1387 -1.3812 -0.6465
  484MOL0     H65319  -1.894  -0.259   2.381  0.8314 -1.7030 -1.8992
  484MOL0     H65320  -1.831  -0.337   2.173 -0.9318  0.4434  1.0286
  484MOL0     H65321  -1.706  -0.335   2.282 -0.6423  0.4220  0.3890
  484MOL0     H65322  -1.779   0.257   2.918  1.7134 -2.1899 -2.2715
  484MOL0     H65323  -1.565   0.344   2.999 -0.2695 -0.2445  1.3990
  484MOL0     H65324  -1.258   0.662   2.957  2.1806 -0.6028  3.0090
  484MOL0     H65325  -1.074   0.819   2.945 -0.1583 -0.3784 -1.5625
  484MOL0     H65326   0.667   1.639   3.015  1.7791  0.4716  0.3967
  484MOL0     H65327   0.825   1.718   2.831  1.6004 -1.5836 -2.4522
  484MOL0     H65328   0.814   1.763   2.252  0.2693 -2.6021  0.3706
  484MOL0     H65329   0.983   1.865   2.120 -1.9018  0.7191  0.7964
  484MOL0     H65330   1.310   2.008   2.022  0.2143 -0.1441  1.0589
  484MOL0     H65331   1.155   1.940   2.012  2.0434  1.2802 -1.2527
  484MOL0     H65332   1.094   2.121   2.203 -0.5441  0.5324 -0.8899
  484MOL0     H65333   1.142   2.198   2.053 -0.9115  0.5243 -0.2512
  484MOL0     H65334   1.389   2.210   2.148  0.0913 -1.2286  0.0733
  484MOL0     H65335   1.321   2.151   2.298  0.0073  1.9256  1.5325
  484MOL0     H65336   1.355   2.406   2.279 -0.4615  1.6303  1.4923
  484MOL0     H65337   1.196   2.352   2.327  0.8287  1.2858  0.6363
  484MOL0     H65338   1.213   2.579   1.956  3.1155  0.3640  0.7614
  484MOL0     H65339   1.271   1.798   2.436 -0.9183 -1.0424  2.2479
  484MOL0     H65340   1.092   1.699   2.570  1.0251  3.9466  1.3221
  485MOL0     O65341   2.464   7.220   1.164 -0.3633  0.1122  0.3525
  485MOL0     C65342   2.434   7.159   1.270 -0.5560  0.1369 -0.5745
  485MOL0     O65343   2.312   7.141   1.329 -0.6601  0.1863  0.2097
  485MOL0     C65344   2.203   7.215   1.282 -0.6501 -0.1384  0.2588
  485MOL0     C65345   2.122   7.286   1.370  0.1491 -0.1026  0.9351
  485MOL0     C65346   2.009   7.354   1.322 -0.1128 -0.3414 -0.1449
  485MOL0     C65347   1.980   7.360   1.190 -0.5581 -0.0308 -0.2089
  485MOL0     O65348   1.877   7.422   1.125  0.5766  0.0069 -0.1305
  485MOL0     C65349   1.796   7.514   1.199 -0.9474 -0.4381 -0.3963
  485MOL0     C65350   1.706   7.433   1.299  0.3969 -0.1627  0.0200
  485MOL0     C65351   1.560   7.486   1.286 -0.8195 -0.1195 -0.7070
  485MOL0     C65352   1.543   7.622   1.357 -0.8434  0.0245  0.9074
  485MOL0     C65353   1.399   7.675   1.327  0.2362 -0.2404 -0.0189
  485MOL0     C65354   1.363   7.800   1.412 -0.7332  0.1614  1.1943
  485MOL0     C65355   1.215   7.816   1.389 -0.8057  0.2816  0.0616
  485MOL0     C65356   1.153   7.916   1.494 -0.8038 -0.4453 -0.4279
  485MOL0     N65357   1.012   7.921   1.485 -0.0066 -0.0924 -0.4851
  485MOL0     C65358   0.933   8.022   1.436  0.4727  0.4055 -0.2113
  485MOL0     C65359   0.804   7.985   1.446 -0.3728 -0.5823  0.5544
  485MOL0     C65360   0.690   8.057   1.377  0.4008 -0.0847 -0.0597
  485MOL0     C65361   0.582   7.970   1.307 -0.2009  1.0810  0.2747
  485MOL0     C65362   0.512   7.878   1.393 -0.8035 -0.0043 -0.5057
  485MOL0     C65363   0.376   7.816   1.354  0.0088  0.6848  0.0169
  485MOL0     O65364   0.304   7.932   1.327 -0.5693 -0.2616 -0.0754
  485MOL0     C65365   0.165   7.921   1.316 -0.0521 -0.9508 -0.5546
  485MOL0     C65366   0.087   7.804   1.311  0.0424 -0.3951 -0.6675
  485MOL0     C65367  -0.056   7.819   1.288 -0.5337 -0.1743  0.2302
  485MOL0     C65368  -0.141   7.699   1.296 -0.3827  0.4010 -0.2504
  485MOL0     C65369  -0.109   7.945   1.258  0.2479  0.0809  0.3745
  485MOL0     C65370  -0.244   7.975   1.218 -0.0115  1.2544 -0.1585
  485MOL0     O65371  -0.300   8.089   1.249  0.3279 -0.7201  0.5539
  485MOL0     C65372  -0.438   8.107   1.261 -0.8957 -0.6921  0.5081
  485MOL0     C65373  -0.512   8.192   1.180 -0.1991  0.8554 -0.1689
  485MOL0     C65374  -0.644   8.223   1.209 -0.0321 -0.5948 -0.1850
  485MOL0     C65375  -0.704   8.176   1.330 -0.4509  0.5670 -0.1276
  485MOL0     O65376  -0.829   8.211   1.374  0.3943 -0.1110 -0.5026
  485MOL0     C65377  -0.867   8.335   1.315  0.8913 -0.1950  0.0095
  485MOL0     C65378  -1.013   8.372   1.366 -0.1605 -0.3079 -0.1703
  485MOL0     C65379  -1.127   8.292   1.296 -0.5996 -0.2855 -0.6227
  485MOL0     C65380  -1.263   8.323   1.361 -0.2275 -0.6360 -0.2924
  485MOL0     C65381  -1.387   8.235   1.317 -0.2598 -1.1373  0.3635
  485MOL0     C65382  -1.511   8.318   1.359 -0.0174 -0.2259 -0.0200
  485MOL0     C65383  -1.640   8.273   1.274  0.4068 -0.0623 -0.3961
  485MOL0     C65384  -1.692   8.143   1.334 -0.2837  0.4432  0.3968
  485MOL0    Cl65385  -1.850   8.093   1.263 -0.0200 -0.2186 -0.3438
  485MOL0     C65386  -0.627   8.102   1.419 -0.3022  0.2218 -0.0006
  485MOL0     C65387  -0.497   8.068   1.379  0.2440  0.3191  0.6549
  485MOL0     O65388  -0.301   7.881   1.159 -0.6160  0.0256 -0.3834
  485MOL0     C65389  -0.023   8.057   1.266  0.8414 -0.1516  0.6081
  485MOL0     C65390   0.110   8.044   1.284 -0.0744 -0.0351  1.3523
  485MOL0     N65391   0.806   7.858   1.504 -0.1492  0.1365 -0.1519
  485MOL0     N65392   0.928   7.826   1.520 -0.1217  0.5285 -0.6550
  485MOL0     C65393   2.066   7.299   1.097  0.3070 -0.0478 -0.0080
  485MOL0     C65394   2.180   7.220   1.144  0.4597  0.6724 -0.0729
  485MOL0     C65395   2.541   7.089   1.350 -0.0556 -0.7267  0.6892
  485MOL0     C65396   2.662   7.059   1.292 -0.0716  0.3238  0.2492
  485MOL0     C65397   2.762   6.984   1.369  0.2006  0.6507  0.2881
  485MOL0     C65398   2.748   6.955   1.503 -0.7680  0.5995 -1.3757
  485MOL0     O65399   2.836   6.900   1.587 -0.0920  0.4074 -0.4834
  485MOL0     C65400   2.965   6.865   1.548  0.2245  0.1647  0.4863
  485MOL0     C65401   2.962   6.712   1.498 -0.2334  0.4485  0.0030
  485MOL0     C65402   3.101   6.649   1.459 -0.7726  0.5101  0.1020
  485MOL0     C65403   3.158   6.713   1.333  0.1561 -0.4642 -0.2479
  485MOL0     C65404   3.065   6.697   1.219 -1.1291 -0.9169 -0.3374
  485MOL0     C65405   2.995   6.703   1.114  0.0923 -0.0885 -0.1789
  485MOL0     C65406   2.626   6.987   1.561 -0.1578  1.1647  0.2184
  485MOL0     C65407   2.525   7.050   1.487  0.4442 -0.6465  0.6832
  485MOL0     H65408   2.140   7.282   1.477 -0.6684 -0.2546  1.0677
  485MOL0     H65409   1.949   7.409   1.394 -0.8932  0.5802 -1.4646
  485MOL0     H65410   1.864   7.589   1.241 -0.0562 -1.9113  0.9560
  485MOL0     H65411   1.735   7.571   1.129 -0.6611 -1.5457 -1.5746
  485MOL0     H65412   1.703   7.325   1.277 -0.1572 -0.0051 -0.7272
  485MOL0     H65413   1.742   7.457   1.399  0.2412  2.2674 -0.4637
  485MOL0     H65414   1.534   7.498   1.180  1.5807  0.6670 -1.2582
  485MOL0     H65415   1.510   7.411   1.348  0.4239 -0.0732  0.4012
  485MOL0     H65416   1.558   7.597   1.463  1.5466  1.0190  0.8781
  485MOL0     H65417   1.620   7.694   1.328 -1.9190  0.7804 -0.1723
  485MOL0     H65418   1.396   7.709   1.223  0.3310 -1.2315 -0.3547
  485MOL0     H65419   1.325   7.595   1.335  0.2594 -0.2153  0.5157
  485MOL0     H65420   1.384   7.778   1.517  0.0753 -1.4427  0.7247
  485MOL0     H65421   1.420   7.888   1.383 -0.0306 -0.3592  0.9815
  485MOL0     H65422   1.200   7.856   1.288  0.7250  0.6037 -0.0655
  485MOL0     H65423   1.162   7.721   1.402 -2.3423  1.3085  1.7783
  485MOL0     H65424   1.195   8.015   1.478  3.1568 -1.3192  2.9808
  485MOL0     H65425   1.187   7.881   1.591 -0.0683  1.2774 -0.0366
  485MOL0     H65426   0.952   8.123   1.398 -0.5868  0.4804 -0.5844
  485MOL0     H65427   0.646   8.110   1.462 -1.5708 -2.0652  0.2569
  485MOL0     H65428   0.728   8.127   1.303 -3.1799  1.0325 -1.0703
  485MOL0     H65429   0.625   7.913   1.224 -1.5558 -0.4197  0.5550
  485MOL0     H65430   0.510   8.038   1.260 -0.4573  1.7809  1.6157
  485MOL0     H65431   0.488   7.930   1.486 -0.8316 -1.3884  0.2876
  485MOL0     H65432   0.567   7.786   1.413 -1.4165 -0.7226 -1.9729
  485MOL0     H65433   0.318   7.753   1.422  0.6146 -0.9672 -0.9339
  485MOL0     H65434   0.384   7.758   1.261  0.5923 -1.5267  1.3670
  485MOL0     H65435   0.131   7.708   1.338  1.1908  0.1686 -0.4579
  485MOL0     H65436  -0.087   7.614   1.339  0.7870  1.4809  0.4728
  485MOL0     H65437  -0.224   7.718   1.365 -0.0500 -4.9978  2.1390
  485MOL0     H65438  -0.175   7.662   1.199  1.4873 -3.6444  0.4491
  485MOL0     H65439  -0.461   8.224   1.089 -0.7472  0.0528 -0.7637
  485MOL0     H65440  -0.694   8.295   1.145  2.9195  1.3898 -0.4215
  485MOL0     H65441  -0.797   8.409   1.355  1.2212  0.0720 -1.0394
  485MOL0     H65442  -0.869   8.327   1.206 -0.3065  0.8347 -0.0650
  485MOL0     H65443  -1.024   8.356   1.473 -0.0600 -3.1136 -0.5268
  485MOL0     H65444  -1.017   8.481   1.358 -0.4742 -0.2268  0.9631
  485MOL0     H65445  -1.114   8.184   1.297 -2.0279 -0.4690 -0.1884
  485MOL0     H65446  -1.131   8.314   1.189 -1.3276  0.1221 -0.5240
  485MOL0     H65447  -1.262   8.310   1.470 -0.4804 -1.8622 -0.4224
  485MOL0     H65448  -1.287   8.429   1.352 -0.0473 -0.0192  4.0808
  485MOL0     H65449  -1.383   8.143   1.376 -0.3963  0.2264  2.6124
  485MOL0     H65450  -1.393   8.213   1.210 -1.1259 -2.8593  0.7328
  485MOL0     H65451  -1.531   8.311   1.467 -1.4773  1.4523 -0.1348
  485MOL0     H65452  -1.505   8.423   1.329 -1.0986 -0.2139 -0.2168
  485MOL0     H65453  -1.628   8.263   1.166 -0.4296 -2.9884 -0.2764
  485MOL0     H65454  -1.720   8.346   1.289  0.1938 -0.5373  0.8719
  485MOL0     H65455  -1.708   8.147   1.442 -1.9888  0.8010  0.1740
  485MOL0     H65456  -1.617   8.068   1.309 -1.0933 -0.4116  0.4841
  485MOL0     H65457  -0.667   8.077   1.517 -0.1870 -0.0588 -0.0261
  485MOL0     H65458  -0.440   8.015   1.455 -3.8208 -2.9684  1.7757
  485MOL0     H65459  -0.060   8.154   1.235 -2.6336 -2.0394 -1.7919
  485MOL0     H65460   0.172   8.131   1.266 -2.5686  1.8842  1.4488
  485MOL0     H65461   2.045   7.299   0.991  2.8337 -0.3900 -0.5849
  485MOL0     H65462   2.239   7.180   1.063  1.6202  3.9388 -1.0319
  485MOL0     H65463   2.679   7.080   1.187  1.7273  2.3678  0.8574
  485MOL0     H65464   2.855   6.966   1.316 -0.1650 -0.1223 -0.1010
  485MOL0     H65465   2.997   6.937   1.473 -4.0298  2.5137  0.5916
  485MOL0     H65466   3.033   6.874   1.633 -1.0507  0.1956  1.5578
  485MOL0     H65467   2.896   6.695   1.412 -2.4890 -3.7293  2.2609
  485MOL0     H65468   2.927   6.648   1.579  2.8958 -1.3730  0.0970
  485MOL0     H65469   3.095   6.541   1.443  0.6008  0.7157 -2.2662
  485MOL0     H65470   3.174   6.663   1.539 -0.7449 -2.1783  0.6512
  485MOL0     H65471   3.249   6.657   1.309 -0.0247 -0.3614 -1.2115
  485MOL0     H65472   3.187   6.818   1.343 -0.1929 -0.5690  2.3373
  485MOL0     H65473   2.934   6.718   1.027  0.1118 -0.0134 -0.1804
  485MOL0     H65474   2.604   6.954   1.662 -3.1300 -1.9002 -1.2130
  485MOL0     H65475   2.436   7.077   1.543  1.2404  2.7455  0.5778
  486MOL0     O65476   8.821   3.657   3.828  0.6019 -0.2490 -0.0652
  486MOL0     C65477   8.813   3.689   3.946 -0.3890  0.8139  0.0252
  486MOL0     O65478   8.705   3.749   4.004 -0.7281  0.0345  0.5411
  486MOL0     C65479   8.584   3.771   3.938 -0.5235 -0.2306 -0.8519
  486MOL0     C65480   8.523   3.684   3.850 -0.2234  0.0681 -0.3404
  486MOL0     C65481   8.401   3.716   3.785  0.4016  0.2185  0.3569
  486MOL0     C65482   8.331   3.842   3.817 -0.4874  1.1696  0.1081
  486MOL0     O65483   8.204   3.863   3.753  0.4692  0.0237 -0.0587
  486MOL0     C65484   8.091   3.879   3.835 -0.3638 -0.6253 -0.8928
  486MOL0     C65485   7.965   3.918   3.759 -0.1813 -0.2913 -0.1473
  486MOL0     C65486   7.851   3.951   3.850 -0.1578 -0.2745  1.1206
  486MOL0     C65487   7.757   4.043   3.782  0.4408 -0.4062 -0.4804
  486MOL0     C65488   7.639   4.064   3.868  0.0591  0.0116  0.3659
  486MOL0     C65489   7.540   4.158   3.785 -0.7790 -0.5980  0.4299
  486MOL0     C65490   7.392   4.174   3.853 -0.2731  0.3340  0.0024
  486MOL0     C65491   7.310   4.268   3.769  0.8602  0.2537 -0.3407
  486MOL0     N65492   7.165   4.282   3.800 -0.7120 -0.1270  0.0078
  486MOL0     C65493   7.069   4.199   3.764  0.7484 -0.1604 -0.1946
  486MOL0     C65494   6.955   4.278   3.736 -0.3930 -0.2633  0.2639
  486MOL0     C65495   6.819   4.232   3.698 -0.7253  0.4020 -0.2867
  486MOL0     C65496   6.710   4.323   3.743 -0.8282 -0.3014  0.5728
  486MOL0     C65497   6.578   4.257   3.684 -0.1425  0.1094  0.9280
  486MOL0     C65498   6.458   4.313   3.754  0.2488 -0.0229 -0.0296
  486MOL0     O65499   6.349   4.242   3.702  0.7404  0.1038 -0.7227
  486MOL0     C65500   6.235   4.273   3.757  0.4262  0.1582  0.8107
  486MOL0     C65501   6.218   4.349   3.875 -0.5838 -0.4550  0.5683
  486MOL0     C65502   6.093   4.365   3.936  0.0621  0.1842  0.3500
  486MOL0     C65503   6.093   4.471   4.038  0.5986  0.4205 -0.4122
  486MOL0     C65504   5.976   4.309   3.881 -0.6193 -0.0825  0.5738
  486MOL0     C65505   5.842   4.334   3.933  0.4516 -0.0735 -0.8873
  486MOL0     O65506   5.747   4.330   3.835 -0.3564  0.2522 -0.3250
  486MOL0     C65507   5.616   4.357   3.854 -0.2936  0.4020 -0.5896
  486MOL0     C65508   5.551   4.396   3.749  0.1225  0.6921  0.4448
  486MOL0     C65509   5.418   4.421   3.745 -0.2055 -0.3444 -0.1929
  486MOL0     C65510   5.344   4.412   3.868  0.6827 -0.4333 -1.0183
  486MOL0     O65511   5.208   4.430   3.852 -0.2484 -0.3056 -0.5510
  486MOL0     C65512   5.122   4.385   3.955  0.0607  0.5222 -0.0037
  486MOL0     C65513   4.979   4.412   3.900 -0.2977 -0.0926 -0.5046
  486MOL0     C65514   4.949   4.564   3.898 -0.1441 -0.8376  0.1320
  486MOL0     C65515   4.802   4.586   3.863  0.2997  0.7310 -0.0909
  486MOL0     C65516   4.782   4.736   3.849 -0.3270 -0.2640  0.3160
  486MOL0     C65517   4.627   4.751   3.817 -0.1630 -0.0833  0.4968
  486MOL0     C65518   4.592   4.897   3.825  0.1978  0.5513 -0.1476
  486MOL0     C65519   4.443   4.918   3.813  0.1199  0.0449  0.1173
  486MOL0    Cl65520   4.365   4.870   3.659  0.5164  0.0993  0.1523
  486MOL0     C65521   5.416   4.371   3.989  0.4998  0.7342  0.2430
  486MOL0     C65522   5.548   4.340   3.977 -0.6150  0.1976  0.3015
  486MOL0     O65523   5.817   4.355   4.054  0.2557  0.2205 -0.8595
  486MOL0     C65524   6.002   4.243   3.760  1.1225 -1.0053 -0.2967
  486MOL0     C65525   6.118   4.219   3.698  0.0274  0.7203  0.1596
  486MOL0     N65526   6.996   4.409   3.775  0.6708 -0.1586  0.1304
  486MOL0     N65527   7.114   4.404   3.826 -0.4738  0.1849  0.1782
  486MOL0     C65528   8.396   3.926   3.905  0.5987  0.0683  0.0839
  486MOL0     C65529   8.516   3.894   3.967 -0.3971 -0.0061  0.2885
  486MOL0     C65530   8.938   3.668   4.030 -0.5421  0.6587 -0.0815
  486MOL0     C65531   8.952   3.732   4.152  0.2323  0.7614  0.4502
  486MOL0     C65532   9.078   3.728   4.216  0.1476  0.0259 -0.1998
  486MOL0     C65533   9.183   3.651   4.180  0.4704 -0.3838  0.7118
  486MOL0     O65534   9.298   3.658   4.247 -0.1515 -0.7770  0.0062
  486MOL0     C65535   9.418   3.617   4.186 -0.3305 -0.3791 -0.5338
  486MOL0     C65536   9.521   3.706   4.248 -0.4824 -0.3576 -0.5050
  486MOL0     C65537   9.664   3.666   4.193 -0.1916  0.2824  0.0431
  486MOL0     C65538   9.754   3.602   4.300 -0.3864 -1.0734 -0.4815
  486MOL0     C65539   9.872   3.552   4.229 -0.1535 -0.3753  1.1343
  486MOL0     C65540   9.977   3.519   4.181  0.0979 -0.1188 -0.1564
  486MOL0     C65541   9.165   3.578   4.066 -0.5876 -0.7139  0.0005
  486MOL0     C65542   9.048   3.585   3.985 -1.0091  0.8814  0.8563
  486MOL0     H65543   8.582   3.593   3.843 -1.6796 -0.9406  0.0581
  486MOL0     H65544   8.353   3.651   3.713 -0.8387 -0.4851  1.7679
  486MOL0     H65545   8.078   3.786   3.890 -1.9351  1.0628  1.8296
  486MOL0     H65546   8.115   3.951   3.914  0.7671 -2.4301  0.4934
  486MOL0     H65547   7.998   4.001   3.696  2.1079 -0.8366  0.2662
  486MOL0     H65548   7.947   3.839   3.686  1.0618 -2.2978  1.6009
  486MOL0     H65549   7.804   3.863   3.894 -2.5348  0.6016  0.4674
  486MOL0     H65550   7.883   4.006   3.939  4.2627 -1.2168  0.3924
  486MOL0     H65551   7.807   4.140   3.772  0.0831  0.3277  3.3916
  486MOL0     H65552   7.714   4.002   3.690 -0.6239  1.4209 -0.8316
  486MOL0     H65553   7.582   3.972   3.885 -1.7248  0.4004 -2.8201
  486MOL0     H65554   7.671   4.107   3.964  0.3257 -1.4340  0.9539
  486MOL0     H65555   7.595   4.253   3.785  1.1455 -1.6657 -0.0036
  486MOL0     H65556   7.536   4.128   3.680  0.5589 -0.4022  0.2936
  486MOL0     H65557   7.334   4.082   3.865 -1.9202  1.1654 -1.1519
  486MOL0     H65558   7.413   4.223   3.948 -2.7391 -2.0147  1.9205
  486MOL0     H65559   7.329   4.226   3.670  0.0989  0.2966 -0.5060
  486MOL0     H65560   7.358   4.367   3.770  1.0038  0.1800  0.4145
  486MOL0     H65561   7.074   4.094   3.738 -1.9179 -1.4637  3.6744
  486MOL0     H65562   6.820   4.240   3.589 -0.6479  1.4086 -0.2182
  486MOL0     H65563   6.800   4.128   3.726 -0.1542 -0.0281 -1.4291
  486MOL0     H65564   6.721   4.426   3.709 -0.1154 -1.2829 -2.4730
  486MOL0     H65565   6.707   4.314   3.852  3.1179 -0.1135  0.8646
  486MOL0     H65566   6.582   4.150   3.708  2.4904 -0.0770  0.0542
  486MOL0     H65567   6.566   4.276   3.577 -2.5940  1.8332  1.4193
  486MOL0     H65568   6.448   4.422   3.744 -0.0501 -0.1017 -0.5829
  486MOL0     H65569   6.469   4.287   3.860  0.9876 -0.6278 -0.2491
  486MOL0     H65570   6.297   4.403   3.925  0.7331 -1.2808 -0.5671
  486MOL0     H65571   6.034   4.438   4.124 -1.3897  0.5201 -1.6643
  486MOL0     H65572   6.192   4.510   4.062  0.7490 -0.1360 -0.1195
  486MOL0     H65573   6.032   4.558   4.010 -1.5604 -0.1888  2.0139
  486MOL0     H65574   5.608   4.405   3.657 -2.3650  0.2896 -1.2375
  486MOL0     H65575   5.379   4.438   3.645 -2.8361 -2.1304  0.4381
  486MOL0     H65576   5.128   4.276   3.964 -0.8793 -0.2002 -5.0697
  486MOL0     H65577   5.145   4.434   4.050 -0.8703 -1.1027  1.1226
  486MOL0     H65578   4.974   4.366   3.801  2.2445 -0.6177 -0.4392
  486MOL0     H65579   4.912   4.357   3.967  0.9890 -1.2608 -0.1429
  486MOL0     H65580   5.011   4.612   3.821 -1.0888  0.5889  0.2257
  486MOL0     H65581   4.974   4.612   3.992  1.2937 -1.3930  0.0682
  486MOL0     H65582   4.789   4.543   3.764  2.4346  1.3434 -0.6951
  486MOL0     H65583   4.731   4.540   3.932 -0.0499 -1.8995 -2.0662
  486MOL0     H65584   4.848   4.771   3.769  1.3057  0.5367  1.9385
  486MOL0     H65585   4.803   4.786   3.944 -0.2796  0.6398 -0.1539
  486MOL0     H65586   4.602   4.712   3.718 -2.6180 -2.5602  1.9639
  486MOL0     H65587   4.568   4.691   3.887 -0.2642 -0.8267 -0.2081
  486MOL0     H65588   4.643   4.942   3.739  3.3972  0.9044  1.7649
  486MOL0     H65589   4.628   4.957   3.909  0.0955  2.2907 -1.2860
  486MOL0     H65590   4.413   5.022   3.822 -0.9974 -0.3295  0.9255
  486MOL0     H65591   4.399   4.860   3.895 -1.4739  0.9189 -0.1021
  486MOL0     H65592   5.357   4.345   4.076 -0.5296 -0.5564 -0.7956
  486MOL0     H65593   5.588   4.285   4.062 -1.9926 -3.2413 -1.0916
  486MOL0     H65594   5.917   4.193   3.715  2.5315 -3.7307 -0.1641
  486MOL0     H65595   6.126   4.168   3.602 -2.0630  1.4752 -0.4573
  486MOL0     H65596   8.333   4.009   3.934 -1.8288 -1.9449  1.0257
  486MOL0     H65597   8.549   3.964   4.043 -1.1981 -0.7845  1.3984
  486MOL0     H65598   8.875   3.795   4.194  0.9658  2.7019 -0.9573
  486MOL0     H65599   9.093   3.796   4.300 -0.0506  1.5039 -1.3299
  486MOL0     H65600   9.448   3.517   4.220  2.8254  1.1871  1.8262
  486MOL0     H65601   9.424   3.626   4.078  0.5875 -1.3834 -0.5826
  486MOL0     H65602   9.517   3.703   4.357  0.2088  1.3911 -0.3857
  486MOL0     H65603   9.498   3.810   4.221  0.2666 -0.1947 -0.5470
  486MOL0     H65604   9.709   3.760   4.160 -2.1021  1.4145  0.4381
  486MOL0     H65605   9.652   3.596   4.110 -1.8159  0.5288  0.0214
  486MOL0     H65606   9.705   3.512   4.337 -0.7936 -0.2043  1.1741
  486MOL0     H65607   9.782   3.665   4.385  0.0917 -1.5386 -0.2843
  486MOL0     H65608  10.077   3.491   4.152  0.4610  1.0646 -0.1084
  486MOL0     H65609   9.244   3.507   4.043 -1.7141 -1.5109 -1.6268
  486MOL0     H65610   9.040   3.528   3.893 -2.1604  2.7211 -0.2472
  487MOL0     O65611   5.600  10.952   3.860 -0.6381  0.0894  0.7898
  487MOL0     C65612   5.583  10.902   3.967  0.3518 -0.7562  0.8016
  487MOL0     O65613   5.481  10.932   4.052  0.4764 -0.8205 -0.2223
  487MOL0     C65614   5.394  11.033   4.009  0.1967 -0.9902  0.2886
  487MOL0     C65615   5.438  11.168   4.020 -0.1082 -0.0090 -0.3262
  487MOL0     C65616   5.341  11.267   3.973 -1.4672  0.5723  0.4738
  487MOL0     C65617   5.212  11.241   3.930 -0.5139 -0.2743 -0.2923
  487MOL0     O65618   5.123  11.341   3.900 -0.2739  0.2744 -0.0906
  487MOL0     C65619   5.146  11.475   3.944  0.4183  0.3815 -0.1657
  487MOL0     C65620   5.007  11.544   3.937 -0.3464 -1.0838 -0.9515
  487MOL0     C65621   4.989  11.630   3.812  0.4889 -0.4374 -0.6746
  487MOL0     C65622   4.841  11.660   3.801  0.6908 -0.0896 -0.6062
  487MOL0     C65623   4.809  11.747   3.684 -0.1030 -0.1206 -0.4922
  487MOL0     C65624   4.773  11.663   3.562 -0.6600  0.0011 -0.0458
  487MOL0     C65625   4.723  11.745   3.445  0.2028  0.2338  0.1462
  487MOL0     C65626   4.831  11.833   3.370  0.4174  0.0741 -0.1729
  487MOL0     N65627   4.748  11.914   3.283 -0.2941  0.7975  0.4038
  487MOL0     C65628   4.705  12.043   3.319 -0.6759  0.3436 -0.0831
  487MOL0     C65629   4.614  12.067   3.224 -0.3740  0.4814 -0.1204
  487MOL0     C65630   4.527  12.188   3.207 -0.6618  0.5832  0.0489
  487MOL0     C65631   4.445  12.225   3.328  0.4545 -1.0547 -0.5225
  487MOL0     C65632   4.351  12.347   3.307 -0.1787 -0.8939 -0.1147
  487MOL0     C65633   4.219  12.306   3.248 -0.2499  0.6944  0.7072
  487MOL0     O65634   4.127  12.409   3.223 -0.0795 -1.0203 -0.4131
  487MOL0     C65635   4.023  12.389   3.142 -0.1456 -0.7826  0.1262
  487MOL0     C65636   3.980  12.263   3.113  0.5449 -0.0766  1.2275
  487MOL0     C65637   3.885  12.237   3.009 -0.4709 -0.2352 -0.6228
  487MOL0     C65638   3.857  12.094   2.985  0.2934  1.3213  0.6556
  487MOL0     C65639   3.825  12.342   2.940 -0.3371  0.1949 -0.5311
  487MOL0     C65640   3.703  12.321   2.853 -0.2243  0.7997 -0.2646
  487MOL0     O65641   3.650  12.437   2.820 -0.4387  0.2031 -0.3524
  487MOL0     C65642   3.548  12.461   2.730 -0.1978  0.0867 -0.2298
  487MOL0     C65643   3.524  12.384   2.612  0.1457  0.0819  0.1904
  487MOL0     C65644   3.419  12.409   2.522  0.2382  0.5064 -0.0138
  487MOL0     C65645   3.314  12.500   2.550 -0.2781 -0.6712 -0.0849
  487MOL0     O65646   3.208  12.529   2.473  0.2162 -0.8522  0.2975
  487MOL0     C65647   3.164  12.439   2.377 -0.5177  0.1005 -0.4353
  487MOL0     C65648   3.020  12.468   2.352  0.3886 -0.2200  0.4526
  487MOL0     C65649   2.931  12.445   2.469  0.5847  0.1354 -0.4696
  487MOL0     C65650   2.781  12.470   2.432 -0.8431  0.1182  0.4561
  487MOL0     C65651   2.688  12.425   2.546  0.0060 -0.1910 -0.2187
  487MOL0     C65652   2.546  12.474   2.527 -0.2214 -0.2233  0.0253
  487MOL0     C65653   2.471  12.425   2.408 -0.1259  0.2664 -0.3365
  487MOL0     C65654   2.325  12.477   2.417  0.5580  0.1570  0.1645
  487MOL0    Cl65655   2.340  12.650   2.371 -0.4911 -0.3400 -0.4458
  487MOL0     C65656   3.338  12.562   2.675  0.0406  0.9722  0.2896
  487MOL0     C65657   3.449  12.548   2.750  0.2906  0.2051 -1.5722
  487MOL0     O65658   3.664  12.213   2.814  0.2993  0.5282  0.2706
  487MOL0     C65659   3.878  12.468   2.969  0.5185  0.0220  0.0948
  487MOL0     C65660   3.980  12.490   3.062  0.0158 -0.5690  0.1255
  487MOL0     N65661   4.595  11.961   3.141  0.7436  0.4996 -0.0458
  487MOL0     N65662   4.679  11.869   3.177  0.2599 -0.5655 -0.0600
  487MOL0     C65663   5.176  11.102   3.921 -0.1342  0.3729 -0.8859
  487MOL0     C65664   5.269  11.006   3.951  0.5429 -0.1977  0.4352
  487MOL0     C65665   5.680  10.792   3.994 -0.4551 -0.0906  0.5889
  487MOL0     C65666   5.682  10.737   4.123  0.8451  0.0485  0.0417
  487MOL0     C65667   5.780  10.641   4.161 -0.4701 -0.2967  0.0496
  487MOL0     C65668   5.871  10.585   4.061 -0.6940  0.0094 -0.3633
  487MOL0     O65669   5.959  10.488   4.106  0.2021  0.1372  0.6891
  487MOL0     C65670   6.048  10.426   4.007  0.2973 -0.2051  0.1347
  487MOL0     C65671   6.151  10.325   4.060  0.3885  0.5047 -0.4939
  487MOL0     C65672   6.251  10.285   3.952 -0.2623 -0.0847  0.6597
  487MOL0     C65673   6.215  10.178   3.848 -0.1881 -0.1667 -0.6166
  487MOL0     C65674   6.125  10.075   3.906  0.2552  0.1430  0.0416
  487MOL0     C65675   6.031   9.998   3.941 -0.3452  0.2831  0.3792
  487MOL0     C65676   5.858  10.619   3.932  0.1844 -0.3804 -0.3514
  487MOL0     C65677   5.768  10.730   3.901 -0.8085  0.2036  0.2018
  487MOL0     H65678   5.530  11.192   4.071 -0.6898 -0.0468  0.7754
  487MOL0     H65679   5.366  11.372   3.977 -2.2667  0.8239 -0.7156
  487MOL0     H65680   5.182  11.464   4.047 -0.5073 -2.0204 -0.0364
  487MOL0     H65681   5.219  11.527   3.881 -1.1090  1.5627 -1.0361
  487MOL0     H65682   4.927  11.470   3.949 -1.7610  0.5128 -0.1914
  487MOL0     H65683   4.997  11.612   4.022  0.2329 -0.5052 -1.3401
  487MOL0     H65684   5.044  11.724   3.800 -1.5534  0.8400 -0.5896
  487MOL0     H65685   5.006  11.567   3.724  2.8789  1.3645 -1.6197
  487MOL0     H65686   4.785  11.567   3.807  1.8061 -0.6670  2.7024
  487MOL0     H65687   4.811  11.716   3.890 -0.0954 -1.4551  0.0022
  487MOL0     H65688   4.719  11.808   3.696 -0.4210 -0.2839 -1.8191
  487MOL0     H65689   4.897  11.811   3.671 -1.3136  2.1898  1.8779
  487MOL0     H65690   4.865  11.612   3.531  2.2308  4.5284  0.1289
  487MOL0     H65691   4.702  11.586   3.594  2.5115 -3.5845 -0.9547
  487MOL0     H65692   4.686  11.670   3.375  0.7664 -0.6091  0.7368
  487MOL0     H65693   4.640  11.813   3.469  2.1723  1.9092  2.7432
  487MOL0     H65694   4.891  11.780   3.296  0.6685  2.4763 -1.7902
  487MOL0     H65695   4.884  11.891   3.446 -1.1471  0.6755  0.5268
  487MOL0     H65696   4.720  12.113   3.401  0.9731  0.0648 -0.1243
  487MOL0     H65697   4.586  12.274   3.172 -2.0535  1.5804  0.0592
  487MOL0     H65698   4.463  12.159   3.124 -0.3368 -5.2011  1.4359
  487MOL0     H65699   4.518  12.247   3.407 -1.6956  1.8134  0.8401
  487MOL0     H65700   4.383  12.141   3.364  0.4188 -0.7993  0.0241
  487MOL0     H65701   4.397  12.419   3.239  0.9253 -0.9096  0.5915
  487MOL0     H65702   4.335  12.404   3.400 -0.5472 -0.6099 -0.3497
  487MOL0     H65703   4.176  12.228   3.312 -1.8552  1.5304  0.6922
  487MOL0     H65704   4.239  12.258   3.151 -0.4587  0.1265  0.9381
  487MOL0     H65705   4.021  12.183   3.174 -0.7145 -2.0475 -0.3403
  487MOL0     H65706   3.847  12.077   2.878 -0.6321  0.9386  0.8028
  487MOL0     H65707   3.935  12.033   3.032 -2.2746  1.2092  5.4068
  487MOL0     H65708   3.763  12.060   3.028  0.6876 -0.1162  0.4201
  487MOL0     H65709   3.601  12.312   2.588  0.3773  0.3839  0.0231
  487MOL0     H65710   3.412  12.353   2.429  0.0978  0.0010  0.3011
  487MOL0     H65711   3.220  12.454   2.285  0.3070  0.4610  0.1101
  487MOL0     H65712   3.185  12.338   2.413  1.4018  0.9681  1.1221
  487MOL0     H65713   2.995  12.568   2.317 -1.1887 -1.2900 -1.7365
  487MOL0     H65714   2.993  12.391   2.278  1.5628 -1.2518  1.0538
  487MOL0     H65715   2.958  12.507   2.555 -1.5562  0.1614  0.2542
  487MOL0     H65716   2.946  12.340   2.495  1.2209 -0.3563 -2.6697
  487MOL0     H65717   2.770  12.578   2.422 -1.7466  0.4486  3.7796
  487MOL0     H65718   2.765  12.410   2.342 -0.8272 -0.6378  0.9445
  487MOL0     H65719   2.719  12.461   2.644 -1.7768 -0.5541  0.5123
  487MOL0     H65720   2.696  12.317   2.561  0.5576  0.1354  2.0975
  487MOL0     H65721   2.489  12.446   2.616 -0.9764 -0.3394 -0.4858
  487MOL0     H65722   2.548  12.583   2.518  1.1166 -0.2504 -0.1259
  487MOL0     H65723   2.456  12.317   2.421  1.2610  0.2550  1.6228
  487MOL0     H65724   2.530  12.445   2.318  3.4831 -1.4144  1.4451
  487MOL0     H65725   2.286  12.451   2.515  0.0090 -0.1193 -0.1213
  487MOL0     H65726   2.261  12.427   2.344 -1.9463 -0.4123  2.5918
  487MOL0     H65727   3.260  12.627   2.713  0.6462  0.5624  2.3848
  487MOL0     H65728   3.435  12.584   2.852 -1.5518  0.7824 -1.9860
  487MOL0     H65729   3.852  12.566   2.932  1.1697  0.4301  0.6801
  487MOL0     H65730   4.034  12.584   3.073 -0.0929 -0.5637  0.6544
  487MOL0     H65731   5.079  11.066   3.889 -0.3674 -0.2176  0.4180
  487MOL0     H65732   5.235  10.904   3.939  1.6360 -0.4144 -1.2637
  487MOL0     H65733   5.622  10.783   4.202  0.8809  3.5184 -1.7687
  487MOL0     H65734   5.773  10.620   4.267 -0.7464  2.2454  0.5981
  487MOL0     H65735   6.000  10.383   3.918 -1.5003  0.2561  0.8416
  487MOL0     H65736   6.108  10.509   3.969  1.6012 -1.4695 -0.6500
  487MOL0     H65737   6.099  10.243   4.111 -0.2144  1.9659  1.3577
  487MOL0     H65738   6.193  10.374   4.148  0.4945  0.5500 -0.5690
  487MOL0     H65739   6.349  10.259   3.992 -0.4218  1.0721  1.8508
  487MOL0     H65740   6.265  10.373   3.888 -0.6656 -1.9270 -2.1874
  487MOL0     H65741   6.302  10.133   3.799 -2.1028 -0.4789 -4.0028
  487MOL0     H65742   6.171  10.227   3.761 -2.0835  0.5409  0.6581
  487MOL0     H65743   5.954   9.932   3.975 -1.0745  0.9502  0.0501
  487MOL0     H65744   5.907  10.561   3.855 -1.9069 -1.7413 -0.7566
  487MOL0     H65745   5.755  10.765   3.799 -0.2478 -1.1052 -0.3343
  488MOL0     O65746  10.278   4.256   0.678  0.3774  0.2669 -0.2086
  488MOL0     C65747  10.268   4.376   0.653  0.2906  0.0744  0.7374
  488MOL0     O65748  10.149   4.437   0.620  0.5031  0.1512  0.4477
  488MOL0     C65749  10.037   4.372   0.577 -0.2888 -0.0731  0.1726
  488MOL0     C65750   9.910   4.432   0.572 -0.5969 -0.7611 -0.9275
  488MOL0     C65751   9.790   4.373   0.535  0.0864  0.9727 -0.6186
  488MOL0     C65752   9.798   4.250   0.471 -0.4899 -0.1025  0.3085
  488MOL0     O65753   9.674   4.201   0.432 -0.3851  0.0003  0.2615
  488MOL0     C65754   9.646   4.060   0.437  0.4512  0.0539  0.3150
  488MOL0     C65755   9.500   4.036   0.377 -0.4821  0.1150 -0.6276
  488MOL0     C65756   9.394   4.089   0.472 -0.6591 -0.0449  0.0476
  488MOL0     C65757   9.270   4.145   0.398  1.5325 -0.3390  0.2027
  488MOL0     C65758   9.155   4.161   0.495 -0.3713  0.3268  0.3958
  488MOL0     C65759   9.021   4.176   0.419  0.0208  0.0578 -0.1756
  488MOL0     C65760   8.958   4.039   0.380 -0.2062 -0.3770  0.3592
  488MOL0     C65761   8.818   4.043   0.323  0.6723 -0.3993  0.3893
  488MOL0     N65762   8.778   3.903   0.293  0.5487 -0.4821  0.0277
  488MOL0     C65763   8.811   3.819   0.190 -0.4929 -0.3804  0.3370
  488MOL0     C65764   8.731   3.713   0.204  0.0186 -0.3005 -0.0254
  488MOL0     C65765   8.703   3.610   0.096  0.0912 -0.5413 -0.2706
  488MOL0     C65766   8.563   3.627   0.020 -0.7860  0.7603  0.5172
  488MOL0     C65767   8.531   3.506  -0.064 -0.4742  0.6576 -0.2422
  488MOL0     C65768   8.388   3.512  -0.140 -0.1549 -0.1300 -0.3368
  488MOL0     O65769   8.282   3.519  -0.043  0.4041 -0.1772 -0.0124
  488MOL0     C65770   8.148   3.539  -0.080  0.0089  0.1300 -0.0576
  488MOL0     C65771   8.115   3.570  -0.211 -0.4439  0.7030  0.3896
  488MOL0     C65772   7.981   3.587  -0.260 -0.2539  1.0605 -0.0245
  488MOL0     C65773   7.957   3.612  -0.403  0.4485 -0.5121  1.1547
  488MOL0     C65774   7.874   3.576  -0.166 -0.0705  0.0381 -0.6343
  488MOL0     C65775   7.731   3.579  -0.199 -0.4959  0.1591  0.7948
  488MOL0     O65776   7.652   3.612  -0.094 -0.0656  0.1227 -0.5718
  488MOL0     C65777   7.519   3.643  -0.103 -0.2886  0.0372  0.1966
  488MOL0     C65778   7.464   3.735  -0.011  0.2456 -0.3590 -0.5186
  488MOL0     C65779   7.332   3.771  -0.003  0.8413  0.1685  0.3086
  488MOL0     C65780   7.236   3.714  -0.091 -0.1043 -0.3805  0.2326
  488MOL0     O65781   7.097   3.721  -0.095 -0.3767  0.4491 -0.8682
  488MOL0     C65782   7.030   3.771   0.018  0.3868  0.0318 -0.2282
  488MOL0     C65783   6.989   3.667   0.129 -0.5480  0.1160 -0.1436
  488MOL0     C65784   6.891   3.569   0.062 -0.8301 -0.5419  0.4233
  488MOL0     C65785   6.758   3.633   0.032  0.3044  0.9917 -0.5801
  488MOL0     C65786   6.681   3.527  -0.048 -0.1116 -0.0643 -0.6790
  488MOL0     C65787   6.540   3.585  -0.084  0.4453 -0.2560 -0.2249
  488MOL0     C65788   6.429   3.559   0.023  1.0978 -0.3625 -1.1622
  488MOL0     C65789   6.299   3.601  -0.043  0.1371 -0.3114  0.0261
  488MOL0    Cl65790   6.305   3.775  -0.081 -0.5764  0.0231  0.0703
  488MOL0     C65791   7.287   3.618  -0.182  0.2069 -0.4417 -0.2768
  488MOL0     C65792   7.420   3.590  -0.190  0.1280 -0.0991  0.9282
  488MOL0     O65793   7.695   3.548  -0.313 -0.1981  0.2977  0.9423
  488MOL0     C65794   7.913   3.545  -0.028  0.3807  0.2016  0.1488
  488MOL0     C65795   8.044   3.536   0.011 -0.4771  0.6856 -0.3061
  488MOL0     N65796   8.662   3.732   0.312 -0.5829 -0.1461  0.0072
  488MOL0     N65797   8.687   3.845   0.374  0.6346 -0.4694  0.5102
  488MOL0     C65798   9.930   4.190   0.456 -0.3306 -0.0892 -0.1907
  488MOL0     C65799  10.044   4.248   0.514  0.7657  0.0064  0.6074
  488MOL0     C65800  10.387   4.465   0.642 -1.0286  0.3431  1.1394
  488MOL0     C65801  10.386   4.589   0.575 -0.4610  1.2434  0.5043
  488MOL0     C65802  10.505   4.659   0.576 -0.2371 -0.3880  0.2155
  488MOL0     C65803  10.627   4.624   0.633  0.4571 -0.4438  0.4257
  488MOL0     O65804  10.731   4.696   0.610  0.0435 -0.5194 -0.1182
  488MOL0     C65805  10.854   4.624   0.631 -0.4430 -0.6132 -0.0807
  488MOL0     C65806  10.952   4.715   0.551 -0.5273 -0.5219 -0.1272
  488MOL0     C65807  10.943   4.715   0.395  0.2363  0.2875  0.5825
  488MOL0     C65808  10.990   4.851   0.337  0.7571 -0.6772 -0.2187
  488MOL0     C65809  11.134   4.875   0.354  0.2914  0.7229  0.2913
  488MOL0     C65810  11.255   4.889   0.355  0.1812  0.1737 -0.2443
  488MOL0     C65811  10.628   4.506   0.698 -0.3497 -0.3675  0.5514
  488MOL0     C65812  10.509   4.428   0.707 -0.6193 -0.1696  0.1810
  488MOL0     H65813   9.910   4.530   0.619 -1.3905 -1.3262  0.3130
  488MOL0     H65814   9.693   4.419   0.551 -0.7250 -0.7930 -0.2500
  488MOL0     H65815   9.723   4.009   0.378  0.1562  0.3718 -0.3593
  488MOL0     H65816   9.662   4.028   0.540  1.5379 -0.2481  0.0670
  488MOL0     H65817   9.496   4.081   0.278  0.9980  2.7439  0.4096
  488MOL0     H65818   9.466   3.932   0.370  0.6693 -0.4544  1.3568
  488MOL0     H65819   9.362   4.013   0.543 -2.7489  1.4966  0.8605
  488MOL0     H65820   9.439   4.172   0.527  3.3203 -0.0459 -2.7635
  488MOL0     H65821   9.298   4.246   0.366 -0.7216  0.6912  1.2140
  488MOL0     H65822   9.236   4.094   0.308 -2.2581 -1.9681  2.2991
  488MOL0     H65823   9.143   4.076   0.563 -1.5117  0.2188  0.0799
  488MOL0     H65824   9.179   4.251   0.551 -2.0123  0.9821  0.1060
  488MOL0     H65825   8.952   4.231   0.483  0.7344  2.6023 -1.4411
  488MOL0     H65826   9.033   4.241   0.332 -0.9202  2.5968  1.4905
  488MOL0     H65827   9.025   3.980   0.317 -2.2828 -1.4610 -0.9628
  488MOL0     H65828   8.954   3.972   0.466 -2.0277 -1.3933 -0.4443
  488MOL0     H65829   8.813   4.106   0.234 -1.5576  1.0818  1.4603
  488MOL0     H65830   8.749   4.084   0.398  2.4865 -0.2342  2.0429
  488MOL0     H65831   8.875   3.854   0.109 -3.3181 -3.1993 -3.4902
  488MOL0     H65832   8.784   3.622   0.024  0.2545 -1.4747 -0.2547
  488MOL0     H65833   8.696   3.508   0.135  0.6195 -0.4096  0.1691
  488MOL0     H65834   8.548   3.715  -0.043 -2.2200  0.6466  0.6738
  488MOL0     H65835   8.494   3.624   0.105  0.1053 -0.6017  1.2187
  488MOL0     H65836   8.519   3.422   0.006  0.4542 -0.5577 -1.4909
  488MOL0     H65837   8.611   3.472  -0.130 -1.0901 -2.6123  0.5034
  488MOL0     H65838   8.374   3.423  -0.203  1.6502  0.9594 -2.4225
  488MOL0     H65839   8.387   3.596  -0.210 -0.5164 -0.8233 -1.1769
  488MOL0     H65840   8.186   3.606  -0.284 -2.2089  1.3174 -1.0976
  488MOL0     H65841   7.881   3.541  -0.437  1.5667 -0.8550 -0.7633
  488MOL0     H65842   7.919   3.713  -0.421 -1.5615 -0.8447  3.1327
  488MOL0     H65843   8.041   3.594  -0.470 -0.4874  0.7930 -0.4499
  488MOL0     H65844   7.516   3.788   0.068 -1.9388  0.1131  0.6808
  488MOL0     H65845   7.304   3.847   0.070  1.0211  1.0550 -0.5185
  488MOL0     H65846   7.084   3.855   0.063  0.5543  1.0741 -2.2764
  488MOL0     H65847   6.942   3.817  -0.028 -0.3004 -0.2242  0.8096
  488MOL0     H65848   7.081   3.626   0.172 -0.2684  1.4100  0.5485
  488MOL0     H65849   6.937   3.713   0.214  1.0802 -1.8336  2.0465
  488MOL0     H65850   6.887   3.478   0.122  0.7953 -0.4991  0.6613
  488MOL0     H65851   6.936   3.534  -0.031  2.4964 -0.5325  1.8471
  488MOL0     H65852   6.705   3.650   0.127 -0.9056 -5.5382  0.3878
  488MOL0     H65853   6.755   3.720  -0.034 -1.9632  2.1540  0.9208
  488MOL0     H65854   6.668   3.431   0.004  1.8060  1.0161  2.0580
  488MOL0     H65855   6.747   3.503  -0.132  2.9220 -0.8090  1.6952
  488MOL0     H65856   6.544   3.694  -0.093 -1.2308 -0.0465  0.9994
  488MOL0     H65857   6.509   3.543  -0.180  1.1670 -2.3980  0.4042
  488MOL0     H65858   6.463   3.606   0.115  0.0183 -1.8298  0.0331
  488MOL0     H65859   6.423   3.450   0.036  0.1841 -0.2167 -0.2626
  488MOL0     H65860   6.223   3.578   0.031  0.7665 -2.8004 -0.0268
  488MOL0     H65861   6.295   3.547  -0.138  0.9980  2.1141 -1.4858
  488MOL0     H65862   7.219   3.562  -0.245 -0.6591  0.0336  0.2107
  488MOL0     H65863   7.453   3.511  -0.257  1.1590  1.8704 -1.0017
  488MOL0     H65864   7.839   3.538   0.051  0.1297 -1.6264 -0.1991
  488MOL0     H65865   8.061   3.515   0.116 -1.0357  3.4615  0.4295
  488MOL0     H65866   9.925   4.097   0.402 -0.1355 -0.2683  0.0955
  488MOL0     H65867  10.137   4.195   0.493 -0.7360 -2.4560 -0.2034
  488MOL0     H65868  10.290   4.627   0.541 -1.1022  0.5806  1.5099
  488MOL0     H65869  10.513   4.755   0.526 -0.4090  0.5028  1.8373
  488MOL0     H65870  10.894   4.635   0.733 -1.2469 -1.0479  0.2937
  488MOL0     H65871  10.867   4.523   0.592 -2.1385 -0.9216  0.0723
  488MOL0     H65872  11.053   4.703   0.592 -1.3171  0.1938  2.1880
  488MOL0     H65873  10.931   4.819   0.577  0.5434 -0.3720  0.2124
  488MOL0     H65874  10.839   4.692   0.370  0.9528 -3.4290  0.5543
  488MOL0     H65875  11.002   4.627   0.367 -1.4528 -1.1952  1.4862
  488MOL0     H65876  10.936   4.928   0.393 -1.6846 -2.2995 -0.1760
  488MOL0     H65877  10.971   4.847   0.230 -1.4182 -0.8298  0.1206
  488MOL0     H65878  11.362   4.896   0.353  0.3282  0.3335  2.9224
  488MOL0     H65879  10.717   4.484   0.757  0.2228 -0.4552 -0.3263
  488MOL0     H65880  10.515   4.334   0.762  2.4213 -0.7772 -0.9982
  489MOL0     O65881   6.782   0.819   9.789  0.3046 -0.2012 -0.0295
  489MOL0     C65882   6.824   0.833   9.903 -0.5129  0.2229 -0.2760
  489MOL0     O65883   6.742   0.807  10.010  0.0074  0.0335 -0.3268
  489MOL0     C65884   6.614   0.766   9.990 -0.3800  1.4767 -0.8671
  489MOL0     C65885   6.524   0.807   9.894  0.1325 -0.0586  0.7971
  489MOL0     C65886   6.397   0.747   9.880 -0.0559 -0.3804  0.8872
  489MOL0     C65887   6.352   0.647   9.974 -0.7759 -0.3918  0.3772
  489MOL0     O65888   6.234   0.581   9.967 -0.0954 -0.1259  0.5592
  489MOL0     C65889   6.164   0.569   9.851 -0.1230 -0.8007  0.4601
  489MOL0     C65890   6.106   0.425   9.840 -0.0737 -0.1844  0.5227
  489MOL0     C65891   6.013   0.407   9.713 -0.1542 -0.6863  0.3919
  489MOL0     C65892   5.979   0.255   9.694  0.7805 -0.2116  0.7217
  489MOL0     C65893   5.875   0.240   9.584 -0.2605  0.1641  0.4286
  489MOL0     C65894   5.844   0.091   9.566  0.1698  0.9234  0.0470
  489MOL0     C65895   5.743   0.062   9.455 -0.0762  0.2148  0.5300
  489MOL0     C65896   5.702  -0.093   9.454  0.2928  0.3106 -0.1867
  489MOL0     N65897   5.808  -0.176   9.398 -0.3591 -0.1421 -0.7979
  489MOL0     C65898   5.901  -0.243   9.480  0.2843  0.6423 -0.1607
  489MOL0     C65899   5.983  -0.290   9.389 -0.3210 -0.1532 -0.5205
  489MOL0     C65900   6.118  -0.352   9.431  0.1167  0.5312  0.5295
  489MOL0     C65901   6.217  -0.266   9.508  0.1759 -0.4571  0.1353
  489MOL0     C65902   6.349  -0.346   9.523 -0.3362 -0.1287 -1.0619
  489MOL0     C65903   6.432  -0.271   9.629 -0.3337 -0.1684  0.5917
  489MOL0     O65904   6.564  -0.328   9.640  0.3459 -0.2519  0.0045
  489MOL0     C65905   6.681  -0.261   9.632 -0.4385  1.5919 -0.7089
  489MOL0     C65906   6.696  -0.129   9.650  1.0908  0.3219 -0.9205
  489MOL0     C65907   6.823  -0.068   9.639  0.3934  0.1249 -0.5217
  489MOL0     C65908   6.828   0.083   9.649  0.3773  0.5551 -0.2852
  489MOL0     C65909   6.939  -0.150   9.623 -0.4551 -0.5827  0.2355
  489MOL0     C65910   7.073  -0.093   9.605 -0.1604 -0.3819  0.1021
  489MOL0     O65911   7.108   0.017   9.675  0.0720 -0.1620 -0.0279
  489MOL0     C65912   7.226   0.084   9.646 -0.0981 -0.5081 -0.0721
  489MOL0     C65913   7.320   0.107   9.746 -0.3162  0.7321 -0.7152
  489MOL0     C65914   7.436   0.173   9.709 -0.1339  0.3365 -0.6134
  489MOL0     C65915   7.475   0.196   9.577  1.2010 -0.2890  0.0932
  489MOL0     O65916   7.600   0.255   9.558  0.4014 -0.0723  0.1151
  489MOL0     C65917   7.663   0.243   9.428 -0.3119 -0.0338  0.1511
  489MOL0     C65918   7.811   0.263   9.444  0.6143 -0.3244 -0.2779
  489MOL0     C65919   7.886   0.230   9.312 -0.7461  0.5143  0.0403
  489MOL0     C65920   8.031   0.232   9.337 -0.0026 -0.2461 -0.7140
  489MOL0     C65921   8.121   0.202   9.220  0.6399 -0.0800  0.7084
  489MOL0     C65922   8.261   0.213   9.267 -0.4428 -0.3199 -0.2174
  489MOL0     C65923   8.342   0.204   9.143 -0.4105 -0.4548  1.3157
  489MOL0     C65924   8.482   0.151   9.165 -0.1333  0.4336 -0.3416
  489MOL0    Cl65925   8.577   0.284   9.239  0.1972 -0.2918  0.2895
  489MOL0     C65926   7.384   0.159   9.470 -0.8747 -0.2662 -0.4285
  489MOL0     C65927   7.253   0.118   9.509  0.1092  0.0157 -0.4349
  489MOL0     O65928   7.158  -0.167   9.556 -0.5467  0.2748  0.5943
  489MOL0     C65929   6.917  -0.286   9.595  0.5293 -0.3249  0.5750
  489MOL0     C65930   6.790  -0.345   9.605 -0.0842  0.3647 -1.1896
  489MOL0     N65931   5.936  -0.269   9.263 -0.3593  0.1814  1.0822
  489MOL0     N65932   5.827  -0.204   9.265 -0.2345 -0.0462 -0.1573
  489MOL0     C65933   6.437   0.628  10.088 -0.1827  0.2081 -0.1022
  489MOL0     C65934   6.568   0.673  10.088  0.4360 -0.1023  0.0245
  489MOL0     C65935   6.969   0.862   9.925 -0.5183 -0.8255  0.4513
  489MOL0     C65936   7.015   0.904  10.057  0.3694  0.3598 -0.0468
  489MOL0     C65937   7.146   0.945  10.075  0.1041  0.4428 -0.3213
  489MOL0     C65938   7.239   0.955   9.968 -0.6783 -0.2990  0.6094
  489MOL0     O65939   7.367   1.001   9.983  0.5635  0.0984  0.1385
  489MOL0     C65940   7.448   1.020   9.868  0.6060  0.0763  0.4995
  489MOL0     C65941   7.586   1.076   9.917 -0.4619  1.0920  0.6379
  489MOL0     C65942   7.669   0.961   9.981 -0.3624 -0.2362  0.3568
  489MOL0     C65943   7.820   0.994   9.986 -0.1636  0.1050  0.4300
  489MOL0     C65944   7.884   0.902  10.084 -0.0431 -1.1085  0.5742
  489MOL0     C65945   7.929   0.820  10.161  0.2412 -0.0725  0.3313
  489MOL0     C65946   7.193   0.915   9.840 -0.2562  0.1758  0.0508
  489MOL0     C65947   7.059   0.880   9.816 -0.4373 -0.3636 -0.1764
  489MOL0     H65948   6.540   0.888   9.824 -0.7254  0.5145  1.2468
  489MOL0     H65949   6.335   0.769   9.794 -1.1356 -4.9291  0.2424
  489MOL0     H65950   6.090   0.649   9.857  1.9309  1.3231 -0.7961
  489MOL0     H65951   6.221   0.590   9.760 -2.7542 -2.0065 -1.6336
  489MOL0     H65952   6.191   0.357   9.835  1.4273  1.6367 -0.0097
  489MOL0     H65953   6.042   0.410   9.927  1.2792  1.2107  1.8091
  489MOL0     H65954   5.927   0.475   9.715  1.9165  2.1011  0.9462
  489MOL0     H65955   6.071   0.440   9.627  1.8299 -1.1840  1.4797
  489MOL0     H65956   6.074   0.205   9.670  2.1756  1.6073  2.1757
  489MOL0     H65957   5.935   0.221   9.788 -0.3713  2.3677  1.2195
  489MOL0     H65958   5.783   0.297   9.603  0.8720  1.9925  0.6582
  489MOL0     H65959   5.920   0.273   9.490  3.5882  3.3812  3.0692
  489MOL0     H65960   5.943   0.047   9.550 -0.4977 -1.3605  1.7352
  489MOL0     H65961   5.810   0.064   9.666  1.5369  2.5428  1.0111
  489MOL0     H65962   5.649   0.114   9.470 -0.0168  0.7762 -0.8512
  489MOL0     H65963   5.776   0.090   9.354 -2.5363 -2.9248 -1.3390
  489MOL0     H65964   5.611  -0.111   9.396  0.3388  0.1196 -0.1997
  489MOL0     H65965   5.694  -0.128   9.558  1.9866 -0.4681 -0.2837
  489MOL0     H65966   5.915  -0.253   9.587 -2.2515  0.7893  0.2279
  489MOL0     H65967   6.087  -0.443   9.483  0.9420 -1.3700 -2.0646
  489MOL0     H65968   6.176  -0.381   9.342  1.8908 -2.1283  2.3805
  489MOL0     H65969   6.180  -0.239   9.607 -1.2897 -0.7269 -0.3145
  489MOL0     H65970   6.220  -0.172   9.453 -0.4052 -0.7490 -0.4089
  489MOL0     H65971   6.410  -0.350   9.432  2.2932  3.7775  0.2720
  489MOL0     H65972   6.337  -0.445   9.567  1.0309 -0.2691 -0.9593
  489MOL0     H65973   6.374  -0.263   9.721 -0.6621 -1.3844  0.5025
  489MOL0     H65974   6.448  -0.167   9.597 -0.2587  0.3472  2.1933
  489MOL0     H65975   6.618  -0.058   9.678  0.1059 -0.9826 -0.2719
  489MOL0     H65976   6.871   0.145   9.569 -0.9278  0.1926 -1.3057
  489MOL0     H65977   6.727   0.120   9.663  0.8904  1.9704 -0.1653
  489MOL0     H65978   6.866   0.112   9.747 -0.8736  0.4152  0.2542
  489MOL0     H65979   7.292   0.077   9.846  1.3002  0.0198 -0.4505
  489MOL0     H65980   7.515   0.187   9.783  0.9441 -1.2879 -1.3939
  489MOL0     H65981   7.647   0.139   9.396  1.8294  0.0792 -1.5611
  489MOL0     H65982   7.625   0.323   9.364 -1.6853 -1.9916 -1.6492
  489MOL0     H65983   7.831   0.366   9.473 -0.0825  0.1677 -1.5116
  489MOL0     H65984   7.843   0.207   9.533  1.9421 -1.8682 -1.6394
  489MOL0     H65985   7.859   0.303   9.235 -1.7840 -0.4412 -0.5384
  489MOL0     H65986   7.854   0.130   9.280  1.4589 -0.3386  0.3241
  489MOL0     H65987   8.056   0.330   9.379 -2.6814  0.0205  0.4822
  489MOL0     H65988   8.060   0.166   9.419  2.6357  1.7112  0.0483
  489MOL0     H65989   8.093   0.277   9.146  2.0136  0.0957  0.3429
  489MOL0     H65990   8.095   0.103   9.181 -0.5484  1.4427 -2.7967
  489MOL0     H65991   8.276   0.312   9.313 -2.7266 -0.3452  0.7155
  489MOL0     H65992   8.281   0.130   9.335 -0.5388 -1.0615 -1.0711
  489MOL0     H65993   8.356   0.296   9.085 -4.5762 -1.4430 -1.7350
  489MOL0     H65994   8.303   0.131   9.072  1.0926 -0.6597  0.6724
  489MOL0     H65995   8.535   0.115   9.076 -0.3783  1.8878 -1.1045
  489MOL0     H65996   8.464   0.068   9.234  0.5438 -0.8210 -1.6127
  489MOL0     H65997   7.402   0.171   9.364  1.4528 -3.4236 -0.5349
  489MOL0     H65998   7.181   0.104   9.429 -0.7722  3.3860 -0.3967
  489MOL0     H65999   6.996  -0.349   9.555 -1.5948 -2.4227 -0.5807
  489MOL0     H66000   6.782  -0.453   9.595  0.9734  0.2877 -1.3272
  489MOL0     H66001   6.413   0.568  10.175  0.5604 -0.7967 -0.5731
  489MOL0     H66002   6.621   0.640  10.176 -1.1168 -2.7866  0.0657
  489MOL0     H66003   6.949   0.890  10.142 -0.8840 -1.1562 -1.2058
  489MOL0     H66004   7.176   0.973  10.175  2.2401  0.5138 -0.9305
  489MOL0     H66005   7.464   0.923   9.820 -0.6520  0.1730 -0.1493
  489MOL0     H66006   7.395   1.084   9.796 -0.4217 -0.3799  0.8348
  489MOL0     H66007   7.570   1.156   9.991  1.1784  3.1008 -1.0644
  489MOL0     H66008   7.632   1.119   9.828 -2.0656 -0.6827 -1.1536
  489MOL0     H66009   7.651   0.877   9.914  0.2546  1.0087 -1.4544
  489MOL0     H66010   7.633   0.941  10.082 -2.2662  1.4508  0.0695
  489MOL0     H66011   7.833   1.098  10.016  1.3507 -0.1117  0.5950
  489MOL0     H66012   7.877   0.973   9.896 -0.1182  1.3962  0.1447
  489MOL0     H66013   7.986   0.747  10.215  1.2804  0.2850 -0.2596
  489MOL0     H66014   7.262   0.910   9.756  0.2506 -3.5570  0.5014
  489MOL0     H66015   7.034   0.856   9.713 -3.5031 -3.3483  1.0763
  490MOL0     O66016   4.075   3.577  10.179  0.8109  0.3974 -0.5477
  490MOL0     C66017   4.115   3.683  10.126 -0.0641 -0.6437 -0.8060
  490MOL0     O66018   4.044   3.798  10.106  0.6232  0.2614  0.0900
  490MOL0     C66019   3.915   3.802  10.123 -0.0251 -0.0624 -0.0863
  490MOL0     C66020   3.865   3.916  10.192  0.3696  0.6166  0.2849
  490MOL0     C66021   3.726   3.917  10.219  0.2538  0.4354 -0.1413
  490MOL0     C66022   3.637   3.823  10.178  0.5818  0.2968 -0.5774
  490MOL0     O66023   3.503   3.820  10.211  0.2929 -0.3651 -0.4160
  490MOL0     C66024   3.442   3.937  10.271  0.0669 -0.3720  0.3609
  490MOL0     C66025   3.436   3.912  10.428 -0.6403  0.1561  0.0760
  490MOL0     C66026   3.362   3.776  10.469  0.2237 -0.2333  0.5461
  490MOL0     C66027   3.244   3.807  10.560  0.4929  0.1634 -0.3595
  490MOL0     C66028   3.126   3.863  10.483 -0.5933  0.1561  0.1214
  490MOL0     C66029   2.996   3.840  10.556 -0.1435 -0.3722  0.1810
  490MOL0     C66030   2.883   3.945  10.524 -0.2298  0.3197  0.0070
  490MOL0     C66031   2.763   3.923  10.615  0.2693  0.2641  1.3167
  490MOL0     N66032   2.632   3.976  10.565 -0.1201 -0.4903  0.4216
  490MOL0     C66033   2.541   3.904  10.495 -0.1465 -0.7473  0.3396
  490MOL0     C66034   2.434   3.990  10.483  0.7765  0.4030 -0.7568
  490MOL0     C66035   2.304   3.953  10.408 -0.2291 -0.1357 -0.6728
  490MOL0     C66036   2.201   3.922  10.515  0.1030  0.5280  0.6379
  490MOL0     C66037   2.156   4.042  10.593  0.4576  0.4286  0.1092
  490MOL0     C66038   2.039   3.993  10.675 -0.3327 -0.2958 -0.3230
  490MOL0     O66039   1.926   3.943  10.595 -0.2593 -0.7154 -0.0920
  490MOL0     C66040   1.813   3.912  10.653  0.4782  0.0539 -0.1707
  490MOL0     C66041   1.698   3.931  10.571 -0.1925  0.9495 -0.5553
  490MOL0     C66042   1.567   3.937  10.628  0.3690  0.6904  0.4524
  490MOL0     C66043   1.455   3.987  10.540  0.3934 -0.3043  0.8745
  490MOL0     C66044   1.553   3.910  10.765  0.2893  0.1472 -0.9009
  490MOL0     C66045   1.425   3.922  10.823 -0.5423 -0.3738 -0.6206
  490MOL0     O66046   1.361   4.048  10.819 -0.2403 -0.9201  0.2691
  490MOL0     C66047   1.230   4.057  10.858  0.3792 -0.1849 -0.5088
  490MOL0     C66048   1.185   4.183  10.890  0.1967  1.5145 -0.1839
  490MOL0     C66049   1.048   4.209  10.929 -0.2860  0.2898  0.4341
  490MOL0     C66050   0.961   4.095  10.933  0.3329 -0.0675  0.1322
  490MOL0     O66051   0.827   4.100  10.972 -0.8529  0.1385  0.9305
  490MOL0     C66052   0.773   4.227  10.943  0.3234 -0.1636 -0.0292
  490MOL0     C66053   0.628   4.232  10.989 -0.1844  0.6864  0.5801
  490MOL0     C66054   0.524   4.157  10.901 -0.2170  0.4217  1.0120
  490MOL0     C66055   0.377   4.159  10.949 -0.9061 -0.5483  0.1630
  490MOL0     C66056   0.281   4.073  10.868  0.2158 -0.4101  0.1612
  490MOL0     C66057   0.144   4.053  10.939 -0.8707  0.3473  0.1036
  490MOL0     C66058   0.075   3.931  10.897  0.0717  0.8336  1.0470
  490MOL0     C66059   0.006   3.954  10.756  0.7243 -0.1471  0.4280
  490MOL0    Cl66060  -0.086   3.818  10.708 -0.1352  0.1851 -0.0135
  490MOL0     C66061   1.002   3.974  10.888 -0.3498  0.5693  0.3520
  490MOL0     C66062   1.133   3.952  10.845 -0.7494 -0.1070  0.0732
  490MOL0     O66063   1.387   3.821  10.882 -0.0683 -0.5738  0.6093
  490MOL0     C66064   1.668   3.877  10.841  0.4267  0.7657  0.4875
  490MOL0     C66065   1.795   3.876  10.783  0.4077  0.1764 -0.1364
  490MOL0     N66066   2.470   4.112  10.542 -0.3033  0.0783  0.5681
  490MOL0     N66067   2.584   4.102  10.593 -0.9445  0.6533  0.3126
  490MOL0     C66068   3.685   3.713  10.099  0.0490 -0.2500 -0.6973
  490MOL0     C66069   3.822   3.704  10.073 -0.0072 -1.0953  0.6502
  490MOL0     C66070   4.257   3.699  10.076 -0.4189  0.6942  0.5362
  490MOL0     C66071   4.357   3.595  10.093  0.4497 -0.2890 -0.5284
  490MOL0     C66072   4.480   3.613  10.030 -0.5826  0.3340 -0.1334
  490MOL0     C66073   4.515   3.727   9.958  0.7807 -0.8483 -0.1811
  490MOL0     O66074   4.640   3.732   9.888  0.1785  0.9926  0.4769
  490MOL0     C66075   4.671   3.852   9.821 -0.9534 -0.7606  0.2613
  490MOL0     C66076   4.816   3.842   9.758 -0.2910  0.5945 -0.1304
  490MOL0     C66077   4.922   3.915   9.841 -1.0230  0.7467 -0.2056
  490MOL0     C66078   4.911   4.070   9.835  0.9501  0.1894  0.7083
  490MOL0     C66079   4.968   4.144   9.943 -0.1211 -0.5100 -0.2805
  490MOL0     C66080   5.014   4.208  10.032  0.1991  0.3936 -0.5255
  490MOL0     C66081   4.415   3.835   9.960 -1.5394  0.1457 -0.0133
  490MOL0     C66082   4.290   3.817  10.013 -0.0961  0.1977 -0.2825
  490MOL0     H66083   3.932   3.994  10.226 -1.2281  2.2509 -0.1727
  490MOL0     H66084   3.696   4.000  10.282 -1.5790 -0.2878  0.0066
  490MOL0     H66085   3.496   4.026  10.238 -2.4900  1.6865  1.3155
  490MOL0     H66086   3.340   3.944  10.232  1.1515  0.9570 -2.4593
  490MOL0     H66087   3.539   3.897  10.461 -0.3397 -0.5967 -1.1353
  490MOL0     H66088   3.392   4.001  10.473 -0.9934  0.5734 -1.0597
  490MOL0     H66089   3.332   3.717  10.382 -0.1831 -0.8793  1.1116
  490MOL0     H66090   3.435   3.714  10.523  0.6291  0.2413  0.5512
  490MOL0     H66091   3.216   3.712  10.607 -2.3236  0.8698 -0.3929
  490MOL0     H66092   3.279   3.877  10.637 -1.2191  0.8925 -0.1796
  490MOL0     H66093   3.149   3.967  10.462  0.4787  0.1054  0.9634
  490MOL0     H66094   3.129   3.812  10.386  1.3685  0.9735 -0.2848
  490MOL0     H66095   2.960   3.738  10.541  0.3513 -0.7030  1.1581
  490MOL0     H66096   3.024   3.853  10.661  1.4210  0.2784 -0.2863
  490MOL0     H66097   2.927   4.045  10.521 -2.7836  1.5023 -1.8821
  490MOL0     H66098   2.842   3.919  10.426 -2.2384  0.2334  0.8225
  490MOL0     H66099   2.784   3.946  10.720  0.8175 -1.8100  1.7262
  490MOL0     H66100   2.761   3.813  10.620  1.4965  0.1841  0.7015
  490MOL0     H66101   2.567   3.808  10.452 -1.7417 -1.6749  1.3380
  490MOL0     H66102   2.272   4.034  10.342  3.3543  0.9155 -1.3667
  490MOL0     H66103   2.325   3.865  10.347  0.8302  0.3928 -1.1082
  490MOL0     H66104   2.256   3.852  10.579  2.6565  1.8624  0.0274
  490MOL0     H66105   2.120   3.868  10.465  0.8659  0.3781 -0.4782
  490MOL0     H66106   2.123   4.119  10.524  3.1957  0.4814 -1.2554
  490MOL0     H66107   2.239   4.072  10.658  1.7932 -1.8801 -0.3958
  490MOL0     H66108   2.010   4.064  10.753  1.4766  2.8155 -2.2963
  490MOL0     H66109   2.069   3.909  10.738 -0.8421  0.1828  0.5661
  490MOL0     H66110   1.719   3.950  10.466  1.9276 -1.6232 -0.6881
  490MOL0     H66111   1.372   3.916  10.538 -0.8631  1.0993  1.7652
  490MOL0     H66112   1.403   4.078  10.570 -1.0000 -1.0132  0.6926
  490MOL0     H66113   1.487   4.020  10.440 -1.6862  1.3024  0.6698
  490MOL0     H66114   1.254   4.267  10.897  3.1535 -0.7969  0.3746
  490MOL0     H66115   1.022   4.312  10.951 -0.1568 -0.4100  4.5584
  490MOL0     H66116   0.821   4.303  11.006 -0.3231 -0.1740  0.4840
  490MOL0     H66117   0.783   4.252  10.837  1.6833  0.7254  0.2771
  490MOL0     H66118   0.611   4.186  11.087 -4.5910  0.5937 -0.0175
  490MOL0     H66119   0.604   4.338  11.002 -1.1971  0.5632 -0.1736
  490MOL0     H66120   0.558   4.054  10.888  0.4505  0.8578 -1.1868
  490MOL0     H66121   0.536   4.194  10.799  2.2329 -3.5799 -0.4168
  490MOL0     H66122   0.379   4.134  11.056 -0.3231  2.1482  0.8636
  490MOL0     H66123   0.347   4.264  10.951  1.0394  0.2819 -3.7399
  490MOL0     H66124   0.311   3.968  10.858 -1.0189 -0.7033 -0.6913
  490MOL0     H66125   0.278   4.123  10.770  0.4630  1.2180  0.9459
  490MOL0     H66126   0.166   4.033  11.045  2.4400  1.3540 -0.2779
  490MOL0     H66127   0.082   4.143  10.937 -2.0714 -0.4301  0.9770
  490MOL0     H66128  -0.002   3.903  10.969  0.8759 -0.8765  1.3136
  490MOL0     H66129   0.150   3.853  10.878  0.3057  1.3774 -0.3930
  490MOL0     H66130   0.077   3.987  10.680 -1.0524  2.1792 -0.3674
  490MOL0     H66131  -0.052   4.047  10.764 -1.4492 -1.6103  3.6995
  490MOL0     H66132   0.927   3.895  10.885 -0.2228  0.4223  1.0706
  490MOL0     H66133   1.167   3.856  10.809 -1.3369 -1.0873  2.0087
  490MOL0     H66134   1.659   3.838  10.942  0.6892  0.6083  0.4522
  490MOL0     H66135   1.880   3.857  10.849  0.8572 -0.2580 -0.8219
  490MOL0     H66136   3.614   3.638  10.066  0.2844  0.0867 -2.0476
  490MOL0     H66137   3.865   3.634  10.002  0.4746  0.1430 -0.2971
  490MOL0     H66138   4.321   3.512  10.152 -0.8990 -0.5975 -1.7300
  490MOL0     H66139   4.550   3.531  10.043 -2.1731 -0.9714  0.5560
  490MOL0     H66140   4.597   3.892   9.752 -2.1972 -0.2068  1.8551
  490MOL0     H66141   4.678   3.923   9.904  2.7613  0.8399 -1.2407
  490MOL0     H66142   4.819   3.868   9.652 -0.2944  1.5103  0.0881
  490MOL0     H66143   4.836   3.734   9.757  1.1185  0.8338 -1.4474
  490MOL0     H66144   5.021   3.895   9.798 -2.0119  0.6968 -2.5735
  490MOL0     H66145   4.924   3.885   9.947  1.5349  1.6672  0.0966
  490MOL0     H66146   4.803   4.091   9.833  0.5888 -1.4604 -1.7518
  490MOL0     H66147   4.957   4.102   9.741 -1.8963 -1.0847 -1.2882
  490MOL0     H66148   5.035   4.266  10.119  2.1970 -1.5214  0.3538
  490MOL0     H66149   4.440   3.928   9.909  1.4258 -0.3918  0.2897
  490MOL0     H66150   4.217   3.897  10.008 -2.4313 -1.6622  1.8395
  491MOL0     O66151   0.211  10.340   8.090  0.2649 -0.0833  0.2932
  491MOL0     C66152   0.266  10.396   8.187 -0.1230  0.6161  0.4974
  491MOL0     O66153   0.207  10.425   8.306  0.4917  0.0342  0.2889
  491MOL0     C66154   0.080  10.387   8.335  0.4355  0.8775 -0.4257
  491MOL0     C66155   0.032  10.257   8.310 -0.1771 -0.2111  0.5996
  491MOL0     C66156  -0.089  10.220   8.353  0.4651  1.3014 -0.5520
  491MOL0     C66157  -0.171  10.295   8.428 -0.8494 -0.6281 -0.2020
  491MOL0     O66158  -0.290  10.245   8.474 -0.0646  0.2522 -0.5563
  491MOL0     C66159  -0.327  10.286   8.606 -0.1873 -1.1273 -0.4641
  491MOL0     C66160  -0.433  10.384   8.611 -0.2406 -0.0210 -0.1129
  491MOL0     C66161  -0.490  10.410   8.746  0.4175 -0.2557 -0.1925
  491MOL0     C66162  -0.626  10.486   8.745 -0.4246 -0.0525  0.1303
  491MOL0     C66163  -0.659  10.522   8.890 -0.6173 -0.0523 -0.1917
  491MOL0     C66164  -0.801  10.575   8.900  0.0525  0.1755  0.2410
  491MOL0     C66165  -0.882  10.552   9.030  0.4952  0.2463  0.4020
  491MOL0     C66166  -0.967  10.423   9.029 -0.6290  0.2296  0.3550
  491MOL0     N66167  -1.078  10.427   8.927 -0.1363  0.0733  0.1516
  491MOL0     C66168  -1.067  10.365   8.802  0.8079  0.5248 -0.6181
  491MOL0     C66169  -1.180  10.400   8.740  0.5672 -0.6547  0.3876
  491MOL0     C66170  -1.222  10.351   8.598 -0.2330 -0.1990 -1.3615
  491MOL0     C66171  -1.109  10.363   8.500  0.0616 -0.5030 -0.7641
  491MOL0     C66172  -1.177  10.313   8.370  0.4155 -1.1910 -0.2010
  491MOL0     C66173  -1.092  10.354   8.243  0.4637  0.2309 -0.1629
  491MOL0     O66174  -0.957  10.330   8.277  0.2873 -0.1579 -0.8738
  491MOL0     C66175  -0.863  10.292   8.188 -0.4427 -0.3403  0.2033
  491MOL0     C66176  -0.743  10.254   8.248  0.0413  0.6385  0.5253
  491MOL0     C66177  -0.638  10.207   8.164 -0.1994  0.7469 -0.5635
  491MOL0     C66178  -0.524  10.147   8.239 -0.4823  0.0944 -0.2345
  491MOL0     C66179  -0.653  10.215   8.023 -0.3354 -1.3899  0.1961
  491MOL0     C66180  -0.539  10.189   7.936  0.1844  0.2759 -0.0014
  491MOL0     O66181  -0.407  10.184   7.975  0.2590  0.3404 -0.0712
  491MOL0     C66182  -0.297  10.179   7.895 -0.2369 -0.0419 -0.0580
  491MOL0     C66183  -0.176  10.218   7.956 -0.1073 -0.3169 -0.2312
  491MOL0     C66184  -0.050  10.213   7.888  0.1644  0.0356 -0.2520
  491MOL0     C66185  -0.046  10.185   7.755 -0.2868 -0.4713 -0.9345
  491MOL0     O66186   0.071  10.187   7.679  0.7422 -0.2075 -0.2182
  491MOL0     C66187   0.197  10.240   7.748  0.0981 -0.1356  0.2214
  491MOL0     C66188   0.310  10.196   7.657 -0.3420 -0.0627  0.0115
  491MOL0     C66189   0.432  10.270   7.717 -0.2135 -0.3000  0.4475
  491MOL0     C66190   0.555  10.255   7.624 -0.5830 -0.0586  0.4240
  491MOL0     C66191   0.692  10.321   7.674 -0.0017  0.1438  0.5693
  491MOL0     C66192   0.810  10.288   7.586  0.1022  0.1774  0.0750
  491MOL0     C66193   0.948  10.315   7.660  0.0114  0.5945  1.0578
  491MOL0     C66194   1.059  10.359   7.569 -0.4459 -0.6144  0.8417
  491MOL0    Cl66195   1.106  10.226   7.461  0.3986 -0.0216 -0.4546
  491MOL0     C66196  -0.167  10.150   7.690 -0.3240 -0.3344  0.2359
  491MOL0     C66197  -0.283  10.143   7.756 -0.0337  0.0914  0.3235
  491MOL0     O66198  -0.579  10.184   7.820 -0.4217 -0.2127  0.6390
  491MOL0     C66199  -0.771  10.265   7.968 -0.4849 -0.3274 -0.2047
  491MOL0     C66200  -0.876  10.298   8.052 -1.2382 -0.4603  0.2234
  491MOL0     N66201  -1.245  10.489   8.823  0.5427 -0.6333 -1.5643
  491MOL0     N66202  -1.187  10.504   8.938 -0.3043 -0.2460  0.5577
  491MOL0     C66203  -0.127  10.428   8.448 -0.0097  0.0491 -0.6780
  491MOL0     C66204  -0.007  10.473   8.398 -0.8682  0.4240  0.0025
  491MOL0     C66205   0.407  10.444   8.162 -0.1749  0.5189 -0.7052
  491MOL0     C66206   0.479  10.520   8.257  0.1334 -0.6988 -0.5550
  491MOL0     C66207   0.610  10.558   8.237  0.7799 -0.3191 -0.4741
  491MOL0     C66208   0.664  10.527   8.119  0.1183 -0.2545  0.2657
  491MOL0     O66209   0.800  10.562   8.110  0.0646  0.1310  0.2941
  491MOL0     C66210   0.861  10.532   7.985 -0.4456 -0.2452 -0.4522
  491MOL0     C66211   0.999  10.596   7.978  0.0840 -0.2996  0.3221
  491MOL0     C66212   1.103  10.528   8.070 -0.0191 -0.4260  0.0740
  491MOL0     C66213   1.244  10.587   8.051 -0.1410 -0.7691  0.7610
  491MOL0     C66214   1.248  10.729   8.080 -0.8187  0.3494  0.2356
  491MOL0     C66215   1.273  10.846   8.084  0.4460  0.1281  0.2064
  491MOL0     C66216   0.585  10.464   8.017  0.1545  0.1082  0.1250
  491MOL0     C66217   0.461  10.432   8.040  0.8803  0.0841  0.3395
  491MOL0     H66218   0.085  10.191   8.243 -1.0485  0.5080 -0.8440
  491MOL0     H66219  -0.134  10.125   8.329 -0.8913  1.9659 -0.7432
  491MOL0     H66220  -0.365  10.196   8.655 -0.4565  0.0251  1.5436
  491MOL0     H66221  -0.236  10.304   8.665 -0.1053 -0.7365 -0.7088
  491MOL0     H66222  -0.388  10.475   8.572  0.5143 -0.8043 -1.1399
  491MOL0     H66223  -0.508  10.360   8.535 -0.0142  0.5425 -0.5186
  491MOL0     H66224  -0.511  10.317   8.799  3.4092 -0.8512  0.0836
  491MOL0     H66225  -0.413  10.463   8.803  1.6765 -1.6824 -0.5207
  491MOL0     H66226  -0.635  10.564   8.669  0.9467 -1.1306 -1.1943
  491MOL0     H66227  -0.692  10.411   8.701  1.9574 -0.4499 -3.1066
  491MOL0     H66228  -0.642  10.432   8.950  1.6290 -0.2153 -0.9918
  491MOL0     H66229  -0.597  10.609   8.916 -2.3450  0.6308  2.0462
  491MOL0     H66230  -0.805  10.682   8.878 -0.5868  0.1781  0.3657
  491MOL0     H66231  -0.857  10.530   8.817 -0.7226 -1.3797  1.5509
  491MOL0     H66232  -0.811  10.545   9.113 -0.6052 -0.0538  1.3387
  491MOL0     H66233  -0.955  10.629   9.055  0.8156  0.6540  0.1058
  491MOL0     H66234  -1.011  10.401   9.127 -0.6899 -2.1175 -0.1624
  491MOL0     H66235  -0.906  10.338   8.996 -2.2759 -0.9465  0.2622
  491MOL0     H66236  -0.991  10.298   8.764 -0.1163  1.0420 -3.6616
  491MOL0     H66237  -1.251  10.249   8.624  1.2986  0.6076  5.4292
  491MOL0     H66238  -1.308  10.407   8.560  0.3478  1.6449 -0.1108
  491MOL0     H66239  -1.024  10.299   8.523 -0.6344 -1.9468 -2.0089
  491MOL0     H66240  -1.078  10.466   8.483 -1.6561  0.5782  1.9010
  491MOL0     H66241  -1.269  10.370   8.356  1.7089  0.9054 -0.5020
  491MOL0     H66242  -1.206  10.207   8.379 -2.7167 -0.3001  2.0351
  491MOL0     H66243  -1.098  10.461   8.224  0.2542  0.3172  0.3892
  491MOL0     H66244  -1.125  10.286   8.164  1.4201 -3.2766  2.2206
  491MOL0     H66245  -0.731  10.261   8.355 -0.0244  0.4371  0.5468
  491MOL0     H66246  -0.535  10.140   8.347  1.7420 -2.7311 -0.0530
  491MOL0     H66247  -0.510  10.046   8.198  2.3167  0.5116 -0.5380
  491MOL0     H66248  -0.434  10.205   8.217 -0.8728  1.2632  1.1196
  491MOL0     H66249  -0.171  10.244   8.061  2.5632 -0.6645 -0.2017
  491MOL0     H66250   0.037  10.244   7.946 -1.7782  1.3050  2.1771
  491MOL0     H66251   0.200  10.349   7.746  1.4167 -0.1562 -2.4685
  491MOL0     H66252   0.215  10.197   7.848 -0.0608 -0.6409  0.0348
  491MOL0     H66253   0.319  10.088   7.648 -3.6664 -0.4692  0.2885
  491MOL0     H66254   0.296  10.247   7.561 -0.8021  0.7005  0.4649
  491MOL0     H66255   0.452  10.222   7.814 -0.2519 -0.5359  0.3412
  491MOL0     H66256   0.423  10.378   7.724  0.8611 -0.2117  0.7105
  491MOL0     H66257   0.562  10.146   7.617 -1.9538 -0.2222  1.2907
  491MOL0     H66258   0.516  10.299   7.532  1.8478  1.0568 -0.1577
  491MOL0     H66259   0.706  10.283   7.776 -1.0211  1.4998  1.2583
  491MOL0     H66260   0.675  10.429   7.689 -4.1450 -0.4845  1.8364
  491MOL0     H66261   0.799  10.184   7.552  0.2057  0.5774 -1.2507
  491MOL0     H66262   0.801  10.348   7.495  0.5534 -2.2196 -1.6709
  491MOL0     H66263   0.981  10.222   7.707  1.3772 -0.2740 -1.4336
  491MOL0     H66264   0.944  10.393   7.736  1.8628  1.2975  0.4912
  491MOL0     H66265   1.142  10.403   7.626 -0.0629 -0.4573  0.1733
  491MOL0     H66266   1.014  10.435   7.506  2.7753 -0.4702 -1.5501
  491MOL0     H66267  -0.165  10.151   7.581  0.1564 -0.2480  0.2407
  491MOL0     H66268  -0.370  10.098   7.708 -1.0632 -0.5676  2.6620
  491MOL0     H66269  -0.788  10.283   7.862 -0.4957  0.0232 -0.1442
  491MOL0     H66270  -0.964  10.347   8.012  0.2333  1.5132 -0.7863
  491MOL0     H66271  -0.181  10.505   8.503  2.7392  1.6127  0.0343
  491MOL0     H66272   0.018  10.577   8.419  0.1824  0.1651  0.0812
  491MOL0     H66273   0.443  10.550   8.355  0.8528  2.6248 -1.1936
  491MOL0     H66274   0.669  10.613   8.309  0.9593  0.2490 -1.0366
  491MOL0     H66275   0.876  10.424   7.984 -0.6715 -0.2766 -0.9307
  491MOL0     H66276   0.805  10.560   7.895  0.3200  0.7610 -0.6407
  491MOL0     H66277   0.990  10.702   8.000 -0.6170  0.0386 -1.4458
  491MOL0     H66278   1.040  10.583   7.877  0.3796 -3.8794  0.7632
  491MOL0     H66279   1.114  10.423   8.043  2.1609 -0.1668 -0.1586
  491MOL0     H66280   1.073  10.542   8.175 -1.5293  2.6744 -0.6768
  491MOL0     H66281   1.286  10.559   7.954 -0.2676  0.5629  0.3073
  491MOL0     H66282   1.301  10.536   8.130  0.4614 -0.0487  0.8026
  491MOL0     H66283   1.283  10.949   8.111 -0.9397 -0.2347  2.4065
  491MOL0     H66284   0.622  10.434   7.919 -0.6088  1.9662 -0.7884
  491MOL0     H66285   0.410  10.392   7.953  1.6390 -0.4015  0.1053
  492MOL0     O66286   0.470  10.763   3.548  0.3077  0.1690  0.8502
  492MOL0     C66287   0.451  10.682   3.454 -1.1660 -0.2956 -0.1198
  492MOL0     O66288   0.326  10.642   3.423  0.5466  0.6240  0.3321
  492MOL0     C66289   0.222  10.711   3.471 -0.2766  0.9492  0.3585
  492MOL0     C66290   0.140  10.664   3.571 -0.2073  0.4895  0.3232
  492MOL0     C66291   0.032  10.740   3.620  0.2351  0.9993 -0.1634
  492MOL0     C66292   0.008  10.870   3.567 -0.4635  0.0407 -0.0595
  492MOL0     O66293  -0.088  10.960   3.614  0.5556 -0.2713  0.4889
  492MOL0     C66294  -0.183  10.912   3.714 -1.0594 -0.8623  0.4627
  492MOL0     C66295  -0.117  10.918   3.855  0.6942  0.3181 -0.1229
  492MOL0     C66296  -0.053  11.052   3.890  0.0348  0.3071 -0.4067
  492MOL0     C66297  -0.149  11.173   3.905  0.7471 -0.8108  0.5934
  492MOL0     C66298  -0.246  11.150   4.025  0.6625 -0.5371  0.8393
  492MOL0     C66299  -0.336  11.267   4.041  0.0821 -0.1890  0.3460
  492MOL0     C66300  -0.439  11.213   4.131 -0.0503  0.5964 -0.0469
  492MOL0     C66301  -0.555  11.304   4.164  0.3823  0.1682  0.3205
  492MOL0     N66302  -0.631  11.330   4.044  0.0026  0.4649  0.0655
  492MOL0     C66303  -0.680  11.453   4.012 -0.2450  0.2045  0.5557
  492MOL0     C66304  -0.737  11.439   3.888 -0.2590  0.0502 -0.2381
  492MOL0     C66305  -0.795  11.534   3.787  0.5140  0.3197  1.5262
  492MOL0     C66306  -0.855  11.663   3.852 -0.2608 -0.3376  0.6445
  492MOL0     C66307  -0.892  11.750   3.737 -0.2011 -0.4873 -0.2547
  492MOL0     C66308  -1.030  11.727   3.683  0.6060 -0.1818 -0.8413
  492MOL0     O66309  -1.108  11.815   3.769 -0.1179 -0.2763  0.1996
  492MOL0     C66310  -1.248  11.808   3.768 -0.1752 -0.0347 -0.8502
  492MOL0     C66311  -1.314  11.889   3.860 -0.8957 -0.0256 -0.0585
  492MOL0     C66312  -1.449  11.887   3.871 -0.1071  0.3276 -0.1221
  492MOL0     C66313  -1.501  11.993   3.965  0.0670 -0.4729 -0.5264
  492MOL0     C66314  -1.530  11.797   3.796  0.6616 -0.2229  0.4374
  492MOL0     C66315  -1.679  11.784   3.794 -0.5313 -0.0609 -0.2730
  492MOL0     O66316  -1.733  11.683   3.714 -0.1159 -0.1416  0.2355
  492MOL0     C66317  -1.870  11.653   3.726  0.1289 -0.0547 -0.3365
  492MOL0     C66318  -1.911  11.526   3.773 -0.1700 -0.4503  0.4900
  492MOL0     C66319  -2.045  11.499   3.814  0.8730  0.3498 -0.1323
  492MOL0     C66320  -2.148  11.608   3.802 -1.1329 -0.1826  0.3492
  492MOL0     O66321  -2.276  11.583   3.850 -0.5856 -0.3475  0.6713
  492MOL0     C66322  -2.389  11.652   3.795 -0.3936  0.0640 -0.6894
  492MOL0     C66323  -2.515  11.563   3.788  0.0285 -0.0408 -1.3912
  492MOL0     C66324  -2.513  11.478   3.657 -0.1969 -0.6959 -1.3075
  492MOL0     C66325  -2.618  11.367   3.675  0.8785  0.1096  0.2748
  492MOL0     C66326  -2.598  11.248   3.584 -0.2398  0.5240  0.4586
  492MOL0     C66327  -2.643  11.287   3.438  0.1724 -0.1069 -0.4221
  492MOL0     C66328  -2.622  11.169   3.347  0.6153  0.5014 -0.1034
  492MOL0     C66329  -2.653  11.205   3.194  0.5840  0.1327  0.0548
  492MOL0    Cl66330  -2.822  11.244   3.168  0.4959  0.2178 -0.0792
  492MOL0     C66331  -2.105  11.717   3.724  0.5618 -0.6244 -0.1492
  492MOL0     C66332  -1.968  11.745   3.689 -0.2453  0.6614 -0.7252
  492MOL0     O66333  -1.737  11.844   3.884 -0.4310 -0.0703 -0.7445
  492MOL0     C66334  -1.457  11.710   3.709  0.5667  0.0214 -0.0479
  492MOL0     C66335  -1.322  11.717   3.696 -0.5963 -0.5996  0.3765
  492MOL0     N66336  -0.729  11.301   3.855 -0.8338 -0.4701 -0.0705
  492MOL0     N66337  -0.665  11.246   3.945 -0.3735 -0.6145 -0.7477
  492MOL0     C66338   0.081  10.914   3.453  0.1609 -0.2431 -0.7975
  492MOL0     C66339   0.194  10.841   3.413 -0.2586 -0.9260 -0.0697
  492MOL0     C66340   0.569  10.626   3.385  0.1665  0.6934 -0.2863
  492MOL0     C66341   0.692  10.683   3.407  0.3016 -0.0747 -0.4796
  492MOL0     C66342   0.808  10.628   3.350 -1.0270  0.3140 -0.6057
  492MOL0     C66343   0.801  10.538   3.243 -0.0903 -0.1990  1.2024
  492MOL0     O66344   0.922  10.500   3.183 -0.4148 -0.4746  0.0855
  492MOL0     C66345   0.923  10.469   3.043 -0.5604 -0.1097  0.4803
  492MOL0     C66346   1.065  10.418   3.003  0.2818  0.0955  1.3216
  492MOL0     C66347   1.127  10.326   3.109 -0.2534 -0.1096 -0.0751
  492MOL0     C66348   1.221  10.394   3.205 -0.1453 -0.2166  0.0554
  492MOL0     C66349   1.165  10.388   3.339 -1.0356  0.0207  0.0178
  492MOL0     C66350   1.119  10.399   3.453  0.9183  0.2768 -0.1384
  492MOL0     C66351   0.672  10.490   3.208 -0.8733 -0.8036  0.1007
  492MOL0     C66352   0.552  10.526   3.285  0.0088  0.6609 -0.6478
  492MOL0     H66353   0.168  10.565   3.607 -0.1986  0.9886  1.7284
  492MOL0     H66354  -0.029  10.704   3.703  1.1638  2.2938  1.1351
  492MOL0     H66355  -0.264  10.986   3.716  1.1147  1.9204  5.2928
  492MOL0     H66356  -0.225  10.814   3.691  0.4219 -0.6760 -3.8615
  492MOL0     H66357  -0.183  10.897   3.940  1.8611  2.2421  1.3739
  492MOL0     H66358  -0.044  10.838   3.870  1.2373  1.2317  2.8349
  492MOL0     H66359  -0.005  11.040   3.988  1.2838  0.8307 -0.9358
  492MOL0     H66360   0.018  11.093   3.817  0.1714  0.8052  0.0028
  492MOL0     H66361  -0.076  11.252   3.922  2.0715 -1.3822 -1.9805
  492MOL0     H66362  -0.207  11.198   3.815 -2.3506  0.0245  2.6637
  492MOL0     H66363  -0.298  11.055   4.010  1.1567 -0.6335 -0.4731
  492MOL0     H66364  -0.181  11.142   4.112  0.1788  0.2105  1.2829
  492MOL0     H66365  -0.287  11.354   4.083  1.3910 -0.7698  0.0835
  492MOL0     H66366  -0.378  11.292   3.943  0.7893 -0.2643  0.0157
  492MOL0     H66367  -0.486  11.124   4.089 -3.2756  2.9982 -2.0144
  492MOL0     H66368  -0.382  11.190   4.222 -0.3727  2.9788  0.8286
  492MOL0     H66369  -0.529  11.402   4.206  0.8977  0.4628 -0.6719
  492MOL0     H66370  -0.616  11.257   4.242  2.5308 -1.6991  0.9589
  492MOL0     H66371  -0.671  11.544   4.071  1.9257  0.3572  0.0932
  492MOL0     H66372  -0.711  11.570   3.727  0.2327  1.0537  1.5623
  492MOL0     H66373  -0.875  11.485   3.731  1.5023  0.0548  0.3057
  492MOL0     H66374  -0.792  11.713   3.926 -0.2402 -0.7622  0.9202
  492MOL0     H66375  -0.938  11.643   3.920  1.6418 -1.3268  2.8331
  492MOL0     H66376  -0.822  11.740   3.654 -1.6215  0.7919 -1.6946
  492MOL0     H66377  -0.883  11.857   3.758  0.3878 -0.4890 -0.5018
  492MOL0     H66378  -1.070  11.625   3.688  1.1609 -0.3413  2.3339
  492MOL0     H66379  -1.027  11.770   3.583  0.5244  1.7460 -0.0575
  492MOL0     H66380  -1.250  11.955   3.918  0.5938  0.0141 -1.6670
  492MOL0     H66381  -1.559  11.944   4.043 -1.0734  0.8787 -0.4813
  492MOL0     H66382  -1.418  12.055   4.001 -1.5434  3.2137 -2.5606
  492MOL0     H66383  -1.554  12.068   3.906 -0.7091 -0.6162 -0.0320
  492MOL0     H66384  -1.835  11.449   3.781  0.9728  0.5165 -0.6154
  492MOL0     H66385  -2.081  11.413   3.868  0.0910  1.7005  1.5982
  492MOL0     H66386  -2.401  11.743   3.856 -0.0428  1.0313 -2.0131
  492MOL0     H66387  -2.361  11.700   3.700 -3.2850  0.0756 -1.6329
  492MOL0     H66388  -2.518  11.497   3.875 -0.6703  1.9322  0.1371
  492MOL0     H66389  -2.606  11.623   3.785 -1.0739 -1.5002  0.6390
  492MOL0     H66390  -2.409  11.444   3.649  0.4266  0.4115  1.1627
  492MOL0     H66391  -2.535  11.544   3.573 -0.2830  0.0973 -0.6800
  492MOL0     H66392  -2.609  11.335   3.779 -1.3987  1.2253  0.8906
  492MOL0     H66393  -2.718  11.412   3.669  0.5009 -0.3570  2.3983
  492MOL0     H66394  -2.663  11.169   3.624  1.0243 -1.5085 -1.2871
  492MOL0     H66395  -2.493  11.217   3.578 -0.2523  0.6676 -0.8275
  492MOL0     H66396  -2.749  11.315   3.442  0.4144  1.5602 -3.1036
  492MOL0     H66397  -2.585  11.375   3.406  0.2876 -0.1341 -0.2897
  492MOL0     H66398  -2.689  11.087   3.374  0.3476  0.0129 -2.0502
  492MOL0     H66399  -2.521  11.127   3.355  0.8551  1.1566  0.4049
  492MOL0     H66400  -2.629  11.121   3.127  1.1507  1.2292 -1.1623
  492MOL0     H66401  -2.581  11.279   3.159  1.0945 -1.6972 -3.2170
  492MOL0     H66402  -2.176  11.797   3.707  0.9444 -0.8492 -3.2775
  492MOL0     H66403  -1.940  11.843   3.653  2.1600  0.6088  0.7803
  492MOL0     H66404  -1.502  11.623   3.661 -0.8696 -0.4641  2.0187
  492MOL0     H66405  -1.272  11.648   3.629 -0.6193  0.2328 -0.5319
  492MOL0     H66406   0.066  11.006   3.398  2.0045 -0.6346 -2.0668
  492MOL0     H66407   0.257  10.893   3.341  0.1128  0.1329  0.9769
  492MOL0     H66408   0.702  10.762   3.481  2.0891 -1.0320  0.3432
  492MOL0     H66409   0.901  10.674   3.382 -1.6156  0.2725  1.2496
  492MOL0     H66410   0.847  10.393   3.024 -0.9733  0.0116  1.5735
  492MOL0     H66411   0.898  10.554   2.978  1.2509  1.0459  1.2306
  492MOL0     H66412   1.124  10.505   2.975 -1.1112  1.6899  3.0042
  492MOL0     H66413   1.047  10.363   2.910  2.7396  2.5527 -0.7623
  492MOL0     H66414   1.182  10.243   3.062 -3.0681 -1.5847 -1.0235
  492MOL0     H66415   1.043  10.277   3.160 -0.5491  2.4421  2.0738
  492MOL0     H66416   1.250  10.495   3.172  1.6327 -1.0881 -1.2130
  492MOL0     H66417   1.318  10.344   3.211  0.4402  1.0377  1.9251
  492MOL0     H66418   1.094  10.420   3.554  2.5477 -1.4204  0.6900
  492MOL0     H66419   0.668  10.434   3.114  0.1186 -0.5670 -0.0909
  492MOL0     H66420   0.454  10.483   3.265  0.3298  0.2560 -1.4275
  493MOL0     O66421   1.549   8.675  10.808 -0.0765  0.2710 -0.5159
  493MOL0     C66422   1.602   8.649  10.704 -0.8999  0.0958  0.1210
  493MOL0     O66423   1.548   8.669  10.573  0.1100  0.4253 -0.2202
  493MOL0     C66424   1.414   8.697  10.568 -0.5211 -0.2060  0.7205
  493MOL0     C66425   1.315   8.635  10.636 -0.0870  0.3189 -0.4251
  493MOL0     C66426   1.175   8.659  10.614  0.4218  0.2452  0.3759
  493MOL0     C66427   1.134   8.759  10.527 -0.5444  0.3983 -0.3595
  493MOL0     O66428   1.006   8.787  10.478 -0.1407  0.0875  0.4213
  493MOL0     C66429   0.895   8.771  10.571  0.1826 -0.1314  0.1166
  493MOL0     C66430   0.787   8.689  10.506 -0.0662  0.3666  0.1763
  493MOL0     C66431   0.675   8.659  10.600  0.7613 -0.0802 -0.5252
  493MOL0     C66432   0.558   8.753  10.559 -0.6456 -0.5470  0.3622
  493MOL0     C66433   0.434   8.705  10.638 -1.1861 -0.6155 -0.5747
  493MOL0     C66434   0.313   8.786  10.610  1.0147  0.7047 -0.6914
  493MOL0     C66435   0.176   8.738  10.664 -0.4005 -0.0066 -0.4190
  493MOL0     C66436   0.069   8.842  10.641  1.0781  0.3166  0.5295
  493MOL0     N66437  -0.061   8.779  10.673  0.4681 -0.2284 -0.3167
  493MOL0     C66438  -0.139   8.680  10.616  0.7672  0.3395  1.0920
  493MOL0     C66439  -0.252   8.678  10.694  0.1426 -0.5923  0.8578
  493MOL0     C66440  -0.349   8.568  10.680  0.9096  0.0862 -0.4590
  493MOL0     C66441  -0.487   8.619  10.619  0.9525 -0.3569  0.6858
  493MOL0     C66442  -0.606   8.512  10.643 -0.2811  0.5546  0.1781
  493MOL0     C66443  -0.740   8.566  10.586  0.0156 -0.7584  0.1499
  493MOL0     O66444  -0.711   8.579  10.442 -0.1186  0.8348 -0.0037
  493MOL0     C66445  -0.815   8.571  10.353  0.6271  1.0382  0.1627
  493MOL0     C66446  -0.793   8.598  10.222  0.1679 -0.2691  0.8906
  493MOL0     C66447  -0.898   8.592  10.126  0.8732 -0.2419 -0.8023
  493MOL0     C66448  -0.865   8.617   9.982  1.1474  0.1887  0.1392
  493MOL0     C66449  -1.030   8.556  10.163  0.3252  0.4223  0.4488
  493MOL0     C66450  -1.150   8.554  10.074  0.3342  0.0906  0.3033
  493MOL0     O66451  -1.274   8.601  10.127  0.1133 -0.3157 -0.4117
  493MOL0     C66452  -1.387   8.611  10.055 -0.2966  0.6197 -0.3612
  493MOL0     C66453  -1.479   8.711  10.084 -1.2680  0.3952  0.4045
  493MOL0     C66454  -1.589   8.736  10.003  0.4680  0.2276  0.6336
  493MOL0     C66455  -1.611   8.656   9.894  0.1264 -0.4290 -0.4378
  493MOL0     O66456  -1.718   8.678   9.807  0.1377 -0.3138  0.1167
  493MOL0     C66457  -1.811   8.789   9.822  0.9957  0.3025 -0.5270
  493MOL0     C66458  -1.918   8.779   9.714 -0.2116 -0.6735  0.1335
  493MOL0     C66459  -2.052   8.847   9.750 -0.6285 -0.0442  0.0673
  493MOL0     C66460  -2.146   8.799   9.640  0.3633  0.9216  0.6230
  493MOL0     C66461  -2.270   8.895   9.623 -0.3660  0.5434  0.6478
  493MOL0     C66462  -2.331   8.837   9.487  1.0792  0.0520 -0.4762
  493MOL0     C66463  -2.427   8.939   9.427  0.3955 -0.8514 -0.4417
  493MOL0     C66464  -2.554   8.859   9.386  0.0106  0.0408  0.2156
  493MOL0    Cl66465  -2.633   8.800   9.524 -0.4072  0.2406 -0.2138
  493MOL0     C66466  -1.533   8.549   9.863 -0.6768 -0.2972  0.2863
  493MOL0     C66467  -1.416   8.532   9.943  0.4898  0.2090 -0.3513
  493MOL0     O66468  -1.135   8.512   9.959 -0.2809 -0.0068  0.9952
  493MOL0     C66469  -1.049   8.519  10.296  0.0899 -0.0459 -0.0755
  493MOL0     C66470  -0.945   8.541  10.391  0.7990 -0.0369 -0.7554
  493MOL0     N66471  -0.248   8.777  10.794 -0.5401 -0.4803  0.2641
  493MOL0     N66472  -0.135   8.831  10.780  0.4421  0.6107 -0.1432
  493MOL0     C66473   1.233   8.839  10.464  0.1548 -0.2001  0.5933
  493MOL0     C66474   1.370   8.809  10.482 -0.0847  0.7252  0.2312
  493MOL0     C66475   1.750   8.633  10.714  0.5594  0.3945  0.6926
  493MOL0     C66476   1.816   8.668  10.833  0.0350 -0.8930  0.2480
  493MOL0     C66477   1.958   8.655  10.841 -0.4509  1.2361 -0.2885
  493MOL0     C66478   2.044   8.627  10.733 -0.6348  0.9248  0.1667
  493MOL0     O66479   2.183   8.620  10.759 -0.0896  0.0470 -0.0398
  493MOL0     C66480   2.254   8.659  10.643  0.3698  1.2946 -0.3815
  493MOL0     C66481   2.398   8.659  10.666 -0.3758  0.0481 -0.8078
  493MOL0     C66482   2.464   8.533  10.638 -0.4625 -0.4352 -0.6790
  493MOL0     C66483   2.612   8.537  10.677 -0.0500 -0.8538  0.2536
  493MOL0     C66484   2.681   8.410  10.659  0.2485 -0.1613  0.0225
  493MOL0     C66485   2.749   8.308  10.642 -0.2156 -0.8010 -0.4958
  493MOL0     C66486   1.971   8.595  10.617 -0.0040  0.5230 -0.1732
  493MOL0     C66487   1.830   8.596  10.606 -0.9692  0.3481  1.0340
  493MOL0     H66488   1.340   8.545  10.691 -1.8671 -1.6006 -2.5436
  493MOL0     H66489   1.109   8.586  10.660  0.6312  1.1450  2.1953
  493MOL0     H66490   0.919   8.724  10.667  0.5231 -1.5747 -0.6488
  493MOL0     H66491   0.866   8.875  10.588  1.6237  0.8473 -2.6672
  493MOL0     H66492   0.763   8.742  10.413  4.1491  0.1017 -1.2803
  493MOL0     H66493   0.830   8.594  10.472 -1.1108  1.1804 -3.9622
  493MOL0     H66494   0.640   8.556  10.586 -0.1624  0.0610  0.5454
  493MOL0     H66495   0.708   8.670  10.704  1.3387 -1.8158 -0.4808
  493MOL0     H66496   0.575   8.859  10.579 -1.2314 -0.2807 -0.5130
  493MOL0     H66497   0.549   8.751  10.450  1.6393  0.1600  0.1282
  493MOL0     H66498   0.409   8.601  10.614 -1.1755 -0.6975 -0.2437
  493MOL0     H66499   0.457   8.713  10.745  0.5461  0.5433 -0.9810
  493MOL0     H66500   0.331   8.888  10.645 -4.1240  2.1789 -1.4426
  493MOL0     H66501   0.306   8.789  10.501  0.2083  1.2701 -0.6418
  493MOL0     H66502   0.144   8.647  10.612 -2.3398  0.0011  0.6617
  493MOL0     H66503   0.185   8.713  10.770 -0.4333  0.8510 -0.2035
  493MOL0     H66504   0.078   8.860  10.534  2.2091 -1.2714  0.3305
  493MOL0     H66505   0.079   8.926  10.710 -0.7324  0.1905  1.0091
  493MOL0     H66506  -0.112   8.606  10.541 -1.5549 -0.5964  1.1054
  493MOL0     H66507  -0.299   8.485  10.629  0.5033 -1.6627  1.8173
  493MOL0     H66508  -0.362   8.534  10.784  1.9321 -2.5242 -1.1122
  493MOL0     H66509  -0.473   8.645  10.514 -1.6155  1.1915  0.6609
  493MOL0     H66510  -0.505   8.711  10.676  0.0968 -0.8953  1.2975
  493MOL0     H66511  -0.620   8.488  10.749 -1.1847 -0.3873 -0.1322
  493MOL0     H66512  -0.580   8.427  10.580 -1.0559  1.0708 -0.8730
  493MOL0     H66513  -0.745   8.663  10.635 -0.5583 -0.9668  0.5165
  493MOL0     H66514  -0.827   8.503  10.610 -0.6890  0.9131  2.2367
  493MOL0     H66515  -0.692   8.612  10.184 -0.4546 -1.1766 -1.2264
  493MOL0     H66516  -0.764   8.647   9.955  1.1793 -0.1933 -0.1703
  493MOL0     H66517  -0.881   8.521   9.932  1.5081 -0.6034  1.5096
  493MOL0     H66518  -0.934   8.675   9.920  1.8512 -1.3941 -2.2555
  493MOL0     H66519  -1.465   8.768  10.175  0.1224  0.6120  0.0653
  493MOL0     H66520  -1.663   8.804  10.043 -0.3657  0.0912 -0.6422
  493MOL0     H66521  -1.861   8.788   9.919 -3.5705  0.6230 -2.6266
  493MOL0     H66522  -1.747   8.876   9.803  2.1626 -0.5305 -0.5611
  493MOL0     H66523  -1.883   8.804   9.613  1.5434 -0.6802  0.7146
  493MOL0     H66524  -1.941   8.673   9.697 -1.6711 -0.0850 -1.9458
  493MOL0     H66525  -2.054   8.957   9.753 -3.5226  0.1539 -2.7213
  493MOL0     H66526  -2.085   8.808   9.846  0.0602  0.8647  0.6924
  493MOL0     H66527  -2.094   8.804   9.543 -0.4733 -1.7451 -0.0373
  493MOL0     H66528  -2.186   8.700   9.661 -3.9831  1.8945 -1.7583
  493MOL0     H66529  -2.245   9.001   9.618  1.2558  0.1645  0.2647
  493MOL0     H66530  -2.336   8.877   9.708 -0.9489  0.0727  0.1072
  493MOL0     H66531  -2.251   8.831   9.412  1.0694 -0.1732 -0.4701
  493MOL0     H66532  -2.366   8.735   9.504  0.5067  0.1804 -0.8804
  493MOL0     H66533  -2.391   8.993   9.339 -2.9942  3.7753  0.5697
  493MOL0     H66534  -2.458   9.020   9.494 -0.9778  0.0692 -2.1126
  493MOL0     H66535  -2.529   8.770   9.327  0.9168 -0.8170  1.8043
  493MOL0     H66536  -2.621   8.923   9.328  1.6621 -0.2513 -2.1712
  493MOL0     H66537  -1.563   8.484   9.782  1.9123 -1.4142  0.1307
  493MOL0     H66538  -1.353   8.445   9.930 -1.3596 -1.3045  0.3544
  493MOL0     H66539  -1.142   8.483  10.338 -0.4845 -0.7131 -1.8102
  493MOL0     H66540  -0.987   8.524  10.490  2.6417 -0.9457 -0.0799
  493MOL0     H66541   1.204   8.919  10.397  0.8297  0.1105  0.6656
  493MOL0     H66542   1.437   8.871  10.424  0.5323  0.1509  0.3264
  493MOL0     H66543   1.763   8.683  10.927 -0.4261 -3.3761  0.4374
  493MOL0     H66544   2.013   8.671  10.933  2.5049  0.7225 -1.8599
  493MOL0     H66545   2.236   8.595  10.556  4.6691  2.8006 -2.6844
  493MOL0     H66546   2.225   8.761  10.616 -1.3191  0.4272 -2.0859
  493MOL0     H66547   2.417   8.689  10.770  1.5741  1.7746 -1.5940
  493MOL0     H66548   2.449   8.735  10.606 -0.7348  0.8443 -0.1152
  493MOL0     H66549   2.473   8.518  10.530  2.6717 -1.1523 -0.3934
  493MOL0     H66550   2.425   8.453  10.700  0.9403  0.5400  1.5890
  493MOL0     H66551   2.619   8.563  10.783 -0.6888 -2.5533  0.7575
  493MOL0     H66552   2.663   8.623  10.634 -1.3219 -0.2472 -0.1092
  493MOL0     H66553   2.807   8.218  10.637  2.1954  0.6897 -1.0787
  493MOL0     H66554   2.021   8.565  10.526  1.1990 -0.5376  0.8028
  493MOL0     H66555   1.792   8.563  10.510  0.6878 -0.3921  0.5985
  494MOL0     O66556   5.814   2.855   5.413 -0.2884 -0.2288 -0.4364
  494MOL0     C66557   5.819   2.896   5.297 -1.1537  0.4069  0.0029
  494MOL0     O66558   5.708   2.924   5.228  0.5223 -0.5263 -0.7061
  494MOL0     C66559   5.590   2.948   5.303  0.1924  0.6794 -0.6108
  494MOL0     C66560   5.564   3.070   5.350  0.4393 -0.5137  0.8953
  494MOL0     C66561   5.454   3.093   5.435  0.3951  0.5019 -0.5537
  494MOL0     C66562   5.373   2.989   5.462 -0.6078 -0.3083 -0.0394
  494MOL0     O66563   5.270   3.019   5.551  0.6997 -0.0568  0.1855
  494MOL0     C66564   5.163   2.925   5.590  0.4976  0.6959 -0.3664
  494MOL0     C66565   5.062   3.000   5.678  0.1901 -0.3506 -0.3832
  494MOL0     C66566   4.938   2.915   5.706  0.3554 -0.4283 -0.1464
  494MOL0     C66567   4.850   2.972   5.819  0.0561 -0.4729  0.2139
  494MOL0     C66568   4.713   2.913   5.831 -0.2237  0.4780 -1.4764
  494MOL0     C66569   4.709   2.770   5.876 -0.0294  0.7151 -0.4826
  494MOL0     C66570   4.566   2.704   5.863 -0.3063  0.0643  0.5018
  494MOL0     C66571   4.561   2.570   5.935  0.6616 -0.2471 -0.1368
  494MOL0     N66572   4.419   2.513   5.930 -0.5719 -0.1336  0.3386
  494MOL0     C66573   4.378   2.394   5.868  0.3773  0.1304  0.0008
  494MOL0     C66574   4.241   2.389   5.886 -0.3690 -1.2377 -0.1069
  494MOL0     C66575   4.149   2.281   5.836 -0.2332 -0.2552  0.3714
  494MOL0     C66576   4.103   2.311   5.698 -0.0657  0.8985  0.0587
  494MOL0     C66577   4.027   2.174   5.657 -0.0144 -0.6330 -1.3096
  494MOL0     C66578   3.993   2.179   5.503  0.5243 -0.0523 -0.0722
  494MOL0     O66579   3.910   2.288   5.477  0.2030 -0.3091  0.2474
  494MOL0     C66580   3.778   2.280   5.470  0.2074  0.1237  0.3299
  494MOL0     C66581   3.699   2.174   5.517 -0.5788 -0.0679  0.1498
  494MOL0     C66582   3.560   2.165   5.497 -0.1943 -0.0339 -0.2652
  494MOL0     C66583   3.496   2.027   5.527 -0.9833 -0.2896 -0.6367
  494MOL0     C66584   3.491   2.283   5.451 -0.1115  0.3027  0.0884
  494MOL0     C66585   3.333   2.294   5.455 -0.8228  1.0898  0.4742
  494MOL0     O66586   3.284   2.407   5.403 -0.2659 -0.0608 -0.3002
  494MOL0     C66587   3.151   2.427   5.380 -0.1161 -0.1825  1.0019
  494MOL0     C66588   3.067   2.500   5.467 -1.2856 -0.0835  0.0584
  494MOL0     C66589   2.937   2.525   5.433 -0.3123  0.3237  0.7563
  494MOL0     C66590   2.885   2.464   5.323  0.0681  0.7301  0.3027
  494MOL0     O66591   2.748   2.484   5.302  0.7644 -0.2746  0.0187
  494MOL0     C66592   2.705   2.513   5.169  0.0591  1.0474  1.0826
  494MOL0     C66593   2.660   2.663   5.168 -0.4534  0.1762  0.0364
  494MOL0     C66594   2.780   2.760   5.154 -1.2330 -0.2977  0.9670
  494MOL0     C66595   2.742   2.908   5.134  0.2053 -0.1580 -0.6797
  494MOL0     C66596   2.688   2.968   5.270  0.5651 -0.3323  0.1886
  494MOL0     C66597   2.668   3.122   5.263  0.7549 -0.2143 -0.0087
  494MOL0     C66598   2.545   3.186   5.339  0.2633  0.4356  0.1225
  494MOL0     C66599   2.544   3.329   5.309 -0.1608 -0.2443 -0.5759
  494MOL0    Cl66600   2.421   3.390   5.418  0.4182 -0.1114 -0.4376
  494MOL0     C66601   2.965   2.397   5.233 -0.5515 -0.5790 -0.0231
  494MOL0     C66602   3.098   2.378   5.262 -0.0313 -0.7392 -0.1247
  494MOL0     O66603   3.267   2.212   5.526  0.5617  0.4274 -0.4817
  494MOL0     C66604   3.574   2.396   5.412  0.1964  0.3712  0.5888
  494MOL0     C66605   3.710   2.393   5.428 -0.9177  0.1690 -0.0214
  494MOL0     N66606   4.201   2.498   5.971 -0.2265 -0.4603 -0.1546
  494MOL0     N66607   4.312   2.567   5.990  0.6241  0.6874  0.4718
  494MOL0     C66608   5.407   2.859   5.429 -0.6176  0.0072  0.2350
  494MOL0     C66609   5.510   2.839   5.346  0.5470 -0.4776  0.3579
  494MOL0     C66610   5.954   2.925   5.232 -0.9861  0.3308 -0.5564
  494MOL0     C66611   5.965   2.933   5.096  0.1611  0.3209  1.1247
  494MOL0     C66612   6.087   2.946   5.031  0.6957 -0.2664  0.8289
  494MOL0     C66613   6.207   2.957   5.108 -0.6639 -0.0801  0.1591
  494MOL0     O66614   6.314   2.972   5.023  0.5754 -0.5289 -0.7230
  494MOL0     C66615   6.441   2.995   5.091  0.8204  0.0381 -0.2763
  494MOL0     C66616   6.502   2.856   5.126  0.3970  0.4095 -0.5485
  494MOL0     C66617   6.619   2.875   5.224 -0.3195 -0.1816 -0.8693
  494MOL0     C66618   6.745   2.872   5.145  0.5972 -0.4270  0.3692
  494MOL0     C66619   6.866   2.866   5.227 -0.5848 -0.0651  0.6883
  494MOL0     C66620   6.973   2.880   5.291  0.2257  0.4135  0.1408
  494MOL0     C66621   6.200   2.933   5.249 -0.1731  0.2300 -0.5208
  494MOL0     C66622   6.074   2.929   5.304 -0.8831 -0.3389 -0.7060
  494MOL0     H66623   5.637   3.147   5.328 -0.1182  0.6874  2.9603
  494MOL0     H66624   5.434   3.193   5.471  2.3998  0.6966  0.1241
  494MOL0     H66625   5.128   2.881   5.496  2.3813  1.4067 -1.4757
  494MOL0     H66626   5.198   2.836   5.643  0.3568  0.7366 -0.2060
  494MOL0     H66627   5.108   3.033   5.772  2.2849  0.1808 -1.5285
  494MOL0     H66628   5.037   3.093   5.627 -0.0458  0.5491  1.3140
  494MOL0     H66629   4.883   2.920   5.612  0.3914  1.5094 -0.1010
  494MOL0     H66630   4.971   2.812   5.726 -0.9304 -1.0574 -1.1133
  494MOL0     H66631   4.907   2.953   5.911 -0.0415 -0.6544  0.2373
  494MOL0     H66632   4.842   3.080   5.806  0.5977 -0.2584  1.4723
  494MOL0     H66633   4.663   2.970   5.910  2.2368 -0.7744  1.1642
  494MOL0     H66634   4.661   2.917   5.735 -1.5841  0.0062 -0.7880
  494MOL0     H66635   4.771   2.704   5.815 -1.5963 -0.5380 -0.7721
  494MOL0     H66636   4.738   2.761   5.981 -2.2732  1.6490  0.2739
  494MOL0     H66637   4.490   2.774   5.896 -1.1632 -1.0534  0.9699
  494MOL0     H66638   4.546   2.685   5.757 -1.2966  1.4195  0.4237
  494MOL0     H66639   4.598   2.573   6.038  0.3954 -0.6146 -0.0280
  494MOL0     H66640   4.622   2.494   5.885  0.3498 -1.2540  0.9691
  494MOL0     H66641   4.444   2.325   5.816  1.5987  2.2474 -1.4060
  494MOL0     H66642   4.207   2.188   5.833  0.2498  0.0688 -0.8857
  494MOL0     H66643   4.062   2.270   5.902 -0.5792 -2.7731 -0.3678
  494MOL0     H66644   4.189   2.330   5.633  0.0863  0.5556  0.1613
  494MOL0     H66645   4.045   2.403   5.689  0.7604  1.2100 -3.3972
  494MOL0     H66646   3.937   2.167   5.717 -0.9807  1.0563 -2.4732
  494MOL0     H66647   4.101   2.094   5.667  1.1842  0.6551  0.8007
  494MOL0     H66648   3.940   2.087   5.473 -1.1493  0.5942  0.7649
  494MOL0     H66649   4.086   2.185   5.446 -0.4666 -0.5658 -1.8433
  494MOL0     H66650   3.747   2.098   5.578 -2.2184  1.5842  3.7898
  494MOL0     H66651   3.432   1.995   5.445 -0.3008  1.6654 -2.0264
  494MOL0     H66652   3.579   1.960   5.551 -2.1570 -0.8042  2.4407
  494MOL0     H66653   3.436   2.035   5.617 -2.2296 -2.3216 -1.2282
  494MOL0     H66654   3.110   2.555   5.550  0.4877  0.4429 -1.1585
  494MOL0     H66655   2.865   2.582   5.491  0.3132  0.5235  1.3478
  494MOL0     H66656   2.781   2.495   5.092 -0.4044 -2.7510  1.3483
  494MOL0     H66657   2.621   2.445   5.153  0.8877 -0.5155  2.9328
  494MOL0     H66658   2.595   2.676   5.080  0.3561  0.3743 -0.5417
  494MOL0     H66659   2.597   2.687   5.254 -0.4260  0.4471 -0.0190
  494MOL0     H66660   2.841   2.731   5.068 -1.6053  1.6078  0.0181
  494MOL0     H66661   2.856   2.749   5.232  1.6188 -0.8426 -1.6879
  494MOL0     H66662   2.831   2.951   5.087 -0.3610 -0.4341 -2.0859
  494MOL0     H66663   2.661   2.911   5.060  1.0297 -0.6018 -1.6281
  494MOL0     H66664   2.760   2.944   5.349 -0.8199 -0.8705  1.3478
  494MOL0     H66665   2.591   2.922   5.292  0.1809 -0.0058 -0.7774
  494MOL0     H66666   2.756   3.167   5.310  0.5910 -0.5038  0.5857
  494MOL0     H66667   2.654   3.150   5.158 -0.0871  2.1759  0.6721
  494MOL0     H66668   2.548   3.178   5.448 -1.3821 -2.4095  0.0786
  494MOL0     H66669   2.448   3.140   5.317 -0.4712  1.9089  0.1427
  494MOL0     H66670   2.517   3.349   5.205 -0.3510 -0.5823 -0.5914
  494MOL0     H66671   2.642   3.374   5.330  0.7628 -3.1157  2.0266
  494MOL0     H66672   2.914   2.359   5.145 -0.5501  0.8795 -0.6833
  494MOL0     H66673   3.163   2.321   5.195 -1.3469  0.2728 -2.4004
  494MOL0     H66674   3.528   2.485   5.370 -1.8604 -1.8638 -2.2617
  494MOL0     H66675   3.762   2.482   5.391  0.2219 -0.4139  0.1403
  494MOL0     H66676   5.357   2.769   5.463  2.6193 -2.3837 -0.7955
  494MOL0     H66677   5.553   2.746   5.311 -1.5554 -1.1818 -0.5170
  494MOL0     H66678   5.878   2.940   5.031  2.0352 -0.8914 -1.7068
  494MOL0     H66679   6.093   2.949   4.922 -2.3846 -2.4601  0.4623
  494MOL0     H66680   6.511   3.051   5.028 -0.7835  2.2732 -0.1913
  494MOL0     H66681   6.429   3.056   5.181 -0.6627 -1.6912  0.7603
  494MOL0     H66682   6.538   2.795   5.043  3.0143 -1.3389  1.6703
  494MOL0     H66683   6.427   2.800   5.182 -0.5681  3.0751  1.0047
  494MOL0     H66684   6.631   2.794   5.296  2.0918 -0.5457 -1.5739
  494MOL0     H66685   6.606   2.966   5.284 -0.8910 -1.2189  0.6485
  494MOL0     H66686   6.738   2.965   5.090  0.5946 -0.0160  1.0472
  494MOL0     H66687   6.747   2.787   5.077  2.1470 -0.2883  0.2104
  494MOL0     H66688   7.069   2.882   5.338 -0.3215 -0.7379  1.3510
  494MOL0     H66689   6.291   2.938   5.308  0.6183  1.6733 -1.7713
  494MOL0     H66690   6.065   2.928   5.413 -1.2258  0.6292 -0.7159
  495MOL0     O66691   9.174   4.813   2.481 -0.2411  0.1570 -0.7319
  495MOL0     C66692   9.183   4.818   2.607  0.4346 -0.3961  0.5671
  495MOL0     O66693   9.090   4.883   2.686  0.0449  0.5971  0.1752
  495MOL0     C66694   8.959   4.912   2.637  0.3294  0.1920  0.5253
  495MOL0     C66695   8.936   4.979   2.519  0.1043  0.1960  0.0574
  495MOL0     C66696   8.807   5.003   2.476  0.3631  0.2891  0.2249
  495MOL0     C66697   8.697   4.953   2.535  0.8452  0.0145  0.2165
  495MOL0     O66698   8.562   4.945   2.483  0.0672  0.4380 -0.5097
  495MOL0     C66699   8.534   5.057   2.401 -0.2238 -1.1817 -0.6738
  495MOL0     C66700   8.386   5.095   2.398 -0.0637 -0.4322  0.5718
  495MOL0     C66701   8.295   4.974   2.353 -0.3717 -1.1496 -0.2417
  495MOL0     C66702   8.300   4.962   2.203  0.7795  0.1346  0.1078
  495MOL0     C66703   8.216   4.843   2.159 -0.3287  0.3891 -0.0577
  495MOL0     C66704   8.066   4.887   2.137 -0.0832 -0.0651  0.0691
  495MOL0     C66705   7.978   4.767   2.092  0.3926  0.8487  0.2063
  495MOL0     C66706   7.978   4.642   2.180 -0.7579  0.2659  0.7276
  495MOL0     N66707   7.848   4.581   2.179  0.0199 -0.1904 -0.2743
  495MOL0     C66708   7.741   4.617   2.260 -0.2445  0.1280  0.0263
  495MOL0     C66709   7.641   4.535   2.231  0.0637 -0.3892 -0.3529
  495MOL0     C66710   7.505   4.537   2.290 -0.7870 -0.3069 -0.6341
  495MOL0     C66711   7.491   4.418   2.392 -0.1171  0.1922  0.0669
  495MOL0     C66712   7.384   4.448   2.482 -0.3185 -0.4598 -0.8029
  495MOL0     C66713   7.350   4.331   2.572  0.1678 -1.2614  0.5002
  495MOL0     O66714   7.312   4.209   2.498  0.0867 -0.8861 -0.4471
  495MOL0     C66715   7.191   4.196   2.430  1.0571  0.3854 -0.0101
  495MOL0     C66716   7.177   4.093   2.336  0.7136  0.1174  0.3905
  495MOL0     C66717   7.054   4.065   2.279 -0.0748 -0.6356  1.4946
  495MOL0     C66718   7.048   3.937   2.189  0.6291 -0.0604  0.1648
  495MOL0     C66719   6.941   4.151   2.296 -0.8022  0.0150  0.3549
  495MOL0     C66720   6.810   4.129   2.225  0.2829 -0.6210  0.2696
  495MOL0     O66721   6.700   4.204   2.242 -0.0111  0.4649 -0.2749
  495MOL0     C66722   6.579   4.180   2.184 -0.1177  0.0488  0.1629
  495MOL0     C66723   6.503   4.297   2.148 -0.1010 -0.1072 -1.1346
  495MOL0     C66724   6.369   4.292   2.112  0.0260  0.7538 -0.1876
  495MOL0     C66725   6.312   4.167   2.096 -0.1496  0.9916 -0.0385
  495MOL0     O66726   6.186   4.136   2.042  0.7008 -0.6236  0.4499
  495MOL0     C66727   6.100   4.249   2.038  0.7138 -0.0235 -0.3119
  495MOL0     C66728   5.962   4.215   1.980 -0.8879  0.4261 -1.1292
  495MOL0     C66729   5.894   4.110   2.070 -0.6162  0.1918  0.3173
  495MOL0     C66730   5.766   4.067   2.000  0.1460 -0.7487  0.6437
  495MOL0     C66731   5.652   4.181   2.003 -0.0987 -0.5138  0.3648
  495MOL0     C66732   5.502   4.130   1.990 -0.0745 -0.2078  0.0420
  495MOL0     C66733   5.404   4.246   1.985  0.3826 -0.0616  0.2470
  495MOL0     C66734   5.256   4.213   1.975  0.4993 -0.4196  0.2566
  495MOL0    Cl66735   5.187   4.197   2.141 -0.0433  0.1306 -0.1737
  495MOL0     C66736   6.385   4.053   2.128  0.0319  0.3593 -0.3470
  495MOL0     C66737   6.517   4.055   2.170 -0.2707  0.3824 -0.0449
  495MOL0     O66738   6.810   4.051   2.135 -0.0141  0.1450 -0.1920
  495MOL0     C66739   6.953   4.256   2.386 -0.0688 -0.2566  0.0566
  495MOL0     C66740   7.076   4.273   2.454 -1.0774  0.0182  0.0290
  495MOL0     N66741   7.684   4.455   2.130 -0.0403 -0.0039  0.4452
  495MOL0     N66742   7.808   4.482   2.097  0.1517 -0.3354  0.3086
  495MOL0     C66743   8.714   4.882   2.648 -0.1516  0.0159 -0.4858
  495MOL0     C66744   8.849   4.866   2.707 -0.2398 -1.0160  0.5038
  495MOL0     C66745   9.302   4.752   2.676 -0.2347  0.0350 -0.4164
  495MOL0     C66746   9.420   4.703   2.604  0.0280  0.3924  0.7673
  495MOL0     C66747   9.528   4.641   2.675 -0.0609 -0.7986 -0.4402
  495MOL0     C66748   9.523   4.627   2.814  0.1766  0.4942  0.2557
  495MOL0     O66749   9.620   4.561   2.889 -0.1208 -0.1816 -0.2063
  495MOL0     C66750   9.736   4.500   2.817 -0.6796 -0.1262 -0.5992
  495MOL0     C66751   9.843   4.496   2.916 -0.5535 -0.1900 -0.3424
  495MOL0     C66752   9.812   4.406   3.039 -0.7515 -0.2440 -0.1508
  495MOL0     C66753   9.875   4.267   3.013  0.1486 -0.7092 -0.1247
  495MOL0     C66754  10.010   4.243   3.079  0.3278 -0.9207  0.2773
  495MOL0     C66755  10.129   4.235   3.123 -0.1623 -0.9442 -0.1511
  495MOL0     C66756   9.408   4.666   2.880  0.4466 -0.2234  0.2359
  495MOL0     C66757   9.294   4.727   2.812 -0.5780  0.8315 -0.7649
  495MOL0     H66758   9.019   5.029   2.470  0.8161 -0.5503  0.4738
  495MOL0     H66759   8.785   5.046   2.379 -2.3736  3.0506  1.9068
  495MOL0     H66760   8.586   5.144   2.442 -3.0583  0.6485 -0.6684
  495MOL0     H66761   8.571   5.044   2.299 -0.2491 -1.7235 -0.6149
  495MOL0     H66762   8.357   5.122   2.500 -1.8804 -1.9137  0.4996
  495MOL0     H66763   8.378   5.183   2.334  0.0693 -0.9268 -0.1358
  495MOL0     H66764   8.336   4.885   2.402 -1.3720 -0.4633  2.0143
  495MOL0     H66765   8.197   4.990   2.399  0.7168  1.9186  1.3426
  495MOL0     H66766   8.268   5.053   2.151 -2.4486  0.6054  2.5993
  495MOL0     H66767   8.409   4.956   2.193  0.9843  0.0285  2.0699
  495MOL0     H66768   8.246   4.815   2.058 -1.5951  1.8994 -0.8927
  495MOL0     H66769   8.231   4.763   2.233  0.7542  0.0247 -0.6577
  495MOL0     H66770   8.031   4.947   2.221 -0.9177  1.2906 -1.1927
  495MOL0     H66771   8.062   4.964   2.059 -0.4250  1.2756  1.3725
  495MOL0     H66772   7.877   4.808   2.094  0.5921  1.4096 -0.6514
  495MOL0     H66773   8.007   4.743   1.990  2.0702  1.9837  0.3715
  495MOL0     H66774   8.009   4.677   2.279 -0.8170  0.0477  0.8231
  495MOL0     H66775   8.051   4.572   2.139 -2.8227 -2.0391  0.7654
  495MOL0     H66776   7.747   4.691   2.339  0.5954  1.2293 -1.0366
  495MOL0     H66777   7.495   4.632   2.343 -0.1289  0.2659 -1.5096
  495MOL0     H66778   7.425   4.531   2.216 -0.7678 -0.3348 -0.6517
  495MOL0     H66779   7.585   4.404   2.446 -0.7408 -0.6643  0.9805
  495MOL0     H66780   7.462   4.330   2.333  1.2947 -0.5680  0.4700
  495MOL0     H66781   7.287   4.473   2.437 -1.0879  0.4199  1.1753
  495MOL0     H66782   7.423   4.529   2.545  1.1379 -1.9775  0.3012
  495MOL0     H66783   7.264   4.357   2.634  0.5039 -1.0040  0.8578
  495MOL0     H66784   7.436   4.300   2.631  1.3720  0.1122 -0.4646
  495MOL0     H66785   7.266   4.034   2.317 -0.3037 -1.0387 -0.9467
  495MOL0     H66786   7.146   3.889   2.181  0.3552 -0.9290  1.7091
  495MOL0     H66787   6.980   3.857   2.219  3.1175 -2.5404 -0.3519
  495MOL0     H66788   7.027   3.956   2.083  1.6292 -1.7232 -0.3666
  495MOL0     H66789   6.547   4.390   2.183  1.1665 -0.8039 -0.7839
  495MOL0     H66790   6.319   4.388   2.106  1.1129  1.5957  2.4727
  495MOL0     H66791   6.082   4.293   2.137  0.1130 -0.5849 -0.1645
  495MOL0     H66792   6.152   4.325   1.979  4.5337 -0.9349  1.6003
  495MOL0     H66793   5.893   4.300   1.981 -1.9690 -0.4013  0.4813
  495MOL0     H66794   5.977   4.173   1.880  0.1194  2.3761 -1.8420
  495MOL0     H66795   5.866   4.151   2.167  0.0413  0.2849  0.4721
  495MOL0     H66796   5.957   4.024   2.095  1.0156  1.4266  0.6094
  495MOL0     H66797   5.792   4.047   1.896 -2.4930 -0.8434 -0.0756
  495MOL0     H66798   5.731   3.978   2.052 -0.5299 -1.0474 -0.2875
  495MOL0     H66799   5.672   4.240   1.913  2.1827 -0.5784  0.7701
  495MOL0     H66800   5.676   4.244   2.089  1.6432  0.5387 -0.8323
  495MOL0     H66801   5.508   4.076   1.895 -3.1047 -0.7942  0.1014
  495MOL0     H66802   5.466   4.063   2.068 -1.3029 -0.5011 -0.7488
  495MOL0     H66803   5.438   4.314   1.906  2.0041 -1.0030  0.0777
  495MOL0     H66804   5.426   4.298   2.078  2.1767 -1.4553  0.6545
  495MOL0     H66805   5.241   4.123   1.916 -1.4058  1.4559 -2.3529
  495MOL0     H66806   5.206   4.300   1.930  0.4007  0.1013  1.3229
  495MOL0     H66807   6.341   3.956   2.108 -0.5922  0.3763  0.8133
  495MOL0     H66808   6.571   3.963   2.190  2.7695  1.2981 -3.0322
  495MOL0     H66809   6.874   4.330   2.400  0.3905  0.0696  1.0704
  495MOL0     H66810   7.081   4.357   2.522 -0.6827  0.9466 -1.1116
  495MOL0     H66811   8.631   4.836   2.701  1.2617 -1.2966  0.6920
  495MOL0     H66812   8.864   4.809   2.799  0.9193 -0.2009  0.8416
  495MOL0     H66813   9.409   4.718   2.498  1.1778  1.8942  0.8198
  495MOL0     H66814   9.613   4.608   2.615 -0.6501 -1.5454 -0.8757
  495MOL0     H66815   9.715   4.400   2.776 -0.0168 -1.3320  1.8560
  495MOL0     H66816   9.775   4.563   2.736 -1.4330  2.7371  1.1283
  495MOL0     H66817   9.862   4.598   2.949 -1.6790 -0.2921  0.6786
  495MOL0     H66818   9.932   4.453   2.869  0.4025  0.2964  0.9786
  495MOL0     H66819   9.703   4.406   3.052 -0.5662 -0.2170  1.5374
  495MOL0     H66820   9.850   4.456   3.128  2.6281 -3.5964  0.5379
  495MOL0     H66821   9.874   4.247   2.906  1.1785  2.4554 -0.8422
  495MOL0     H66822   9.805   4.200   3.064 -3.4092  2.0441 -0.9367
  495MOL0     H66823  10.235   4.242   3.141 -0.2760  3.0246 -0.1036
  495MOL0     H66824   9.390   4.635   2.982  1.6661 -3.9347 -0.5355
  495MOL0     H66825   9.208   4.753   2.873  1.0635  1.9844  1.1805
  496MOL0     O66826   1.665   4.420   0.632  0.8271  0.5526  0.2121
  496MOL0     C66827   1.602   4.521   0.653 -0.8971 -0.6087  0.7321
  496MOL0     O66828   1.469   4.539   0.640 -0.4584  0.0311  0.2436
  496MOL0     C66829   1.391   4.427   0.636  0.6995  0.2639 -0.5142
  496MOL0     C66830   1.339   4.367   0.757 -0.4665  0.7767  0.6221
  496MOL0     C66831   1.274   4.247   0.754 -0.2984  0.6039 -0.3866
  496MOL0     C66832   1.267   4.180   0.633 -0.6561  0.7868  0.1764
  496MOL0     O66833   1.233   4.048   0.614 -0.1020  0.3677  0.5163
  496MOL0     C66834   1.190   3.972   0.729  0.3566  0.3869 -0.7476
  496MOL0     C66835   1.057   4.025   0.789 -0.7944  0.6332  0.5853
  496MOL0     C66836   0.949   3.921   0.804 -0.0340  0.0385  0.2473
  496MOL0     C66837   0.907   3.859   0.674  0.0298 -0.3585 -0.2162
  496MOL0     C66838   0.758   3.820   0.694 -0.1959  0.5423  0.4635
  496MOL0     C66839   0.716   3.742   0.566  0.2194  0.3418 -0.5359
  496MOL0     C66840   0.595   3.641   0.591 -1.1960  0.3937 -0.5179
  496MOL0     C66841   0.470   3.718   0.629  0.3673  0.6759  0.2039
  496MOL0     N66842   0.353   3.633   0.622 -0.4341  0.2519 -0.1097
  496MOL0     C66843   0.311   3.560   0.513 -0.2260  0.3364 -0.3119
  496MOL0     C66844   0.196   3.494   0.555 -0.4036  0.7826  0.8451
  496MOL0     C66845   0.106   3.398   0.476  0.2250  0.8032  0.4016
  496MOL0     C66846  -0.046   3.415   0.480 -0.1020  0.2175 -0.3494
  496MOL0     C66847  -0.084   3.375   0.621 -0.5380  0.2208 -0.6989
  496MOL0     C66848  -0.242   3.361   0.632 -0.3607 -0.0008  0.9609
  496MOL0     O66849  -0.314   3.483   0.614  0.3669 -0.1862  0.4174
  496MOL0     C66850  -0.396   3.531   0.709  0.6694 -0.3734 -0.0638
  496MOL0     C66851  -0.487   3.452   0.779  0.2706 -0.0513  1.3227
  496MOL0     C66852  -0.556   3.504   0.888 -0.2738  0.5829  0.3763
  496MOL0     C66853  -0.630   3.402   0.971 -0.1461 -0.2797  0.5519
  496MOL0     C66854  -0.552   3.643   0.925 -0.0789  0.3830  0.0518
  496MOL0     C66855  -0.613   3.704   1.043 -0.2240  0.1669  0.4146
  496MOL0     O66856  -0.592   3.646   1.163  0.0155  0.5774  0.8219
  496MOL0     C66857  -0.669   3.687   1.273  0.7145 -0.0572  0.1945
  496MOL0     C66858  -0.608   3.696   1.408  0.1867  0.1460 -0.1089
  496MOL0     C66859  -0.683   3.725   1.523  0.7958  0.4465  0.9541
  496MOL0     C66860  -0.824   3.756   1.509  0.2003  0.3421 -0.2883
  496MOL0     O66861  -0.901   3.814   1.604  0.2301 -0.3009  0.2115
  496MOL0     C66862  -0.892   3.782   1.741 -0.2523  0.6320 -0.6521
  496MOL0     C66863  -0.825   3.895   1.812 -0.7966  0.4522 -0.5538
  496MOL0     C66864  -0.765   3.872   1.954  0.4945  1.0008  0.1854
  496MOL0     C66865  -0.693   3.992   1.991 -0.3461  0.3240 -0.1562
  496MOL0     C66866  -0.655   3.964   2.140  1.2678  0.7447 -0.0865
  496MOL0     C66867  -0.579   4.075   2.219 -0.4979  0.0774 -0.8092
  496MOL0     C66868  -0.435   4.090   2.172  0.7784  0.0871 -0.4497
  496MOL0     C66869  -0.363   4.187   2.275 -0.3132  1.1637  0.2900
  496MOL0    Cl66870  -0.431   4.353   2.269  0.2140  0.4112  0.1553
  496MOL0     C66871  -0.883   3.734   1.384 -0.1906  0.0546  0.0566
  496MOL0     C66872  -0.812   3.708   1.268  0.2860 -0.5508  0.1726
  496MOL0     O66873  -0.676   3.806   1.020 -0.3259 -0.8765  0.0767
  496MOL0     C66874  -0.473   3.726   0.846  0.0256 -0.1843  0.1528
  496MOL0     C66875  -0.396   3.667   0.747 -0.3520  0.2270  0.2179
  496MOL0     N66876   0.187   3.518   0.686 -0.2797  0.3059  0.2629
  496MOL0     N66877   0.274   3.603   0.728  1.4967  0.0159 -0.1523
  496MOL0     C66878   1.308   4.244   0.515 -0.0629  0.0474 -0.3614
  496MOL0     C66879   1.365   4.365   0.516 -0.3194  0.3096  0.4551
  496MOL0     C66880   1.684   4.641   0.670 -1.1183  0.5077  0.4461
  496MOL0     C66881   1.829   4.627   0.672  0.3177 -0.5035  0.5232
  496MOL0     C66882   1.907   4.739   0.700  0.2723 -0.8447 -0.3521
  496MOL0     C66883   1.852   4.870   0.713  0.1571 -0.4050 -0.1144
  496MOL0     O66884   1.919   4.987   0.739  0.2263  0.2280 -0.0635
  496MOL0     C66885   2.053   4.971   0.768 -0.4196 -0.2365  0.1654
  496MOL0     C66886   2.119   5.104   0.781  0.2809  0.2399 -0.7812
  496MOL0     C66887   2.126   5.195   0.655 -0.2740  0.8150 -0.0701
  496MOL0     C66888   2.241   5.290   0.674  0.0818 -0.1456  0.5994
  496MOL0     C66889   2.240   5.395   0.567  0.0949 -0.1651 -0.0069
  496MOL0     C66890   2.250   5.484   0.476  0.9102 -0.1147 -0.4559
  496MOL0     C66891   1.717   4.886   0.704 -0.1389  0.2862 -0.3727
  496MOL0     C66892   1.632   4.772   0.692 -0.0814  0.6718 -0.3551
  496MOL0     H66893   1.360   4.426   0.846  0.9286  1.5996 -0.2260
  496MOL0     H66894   1.235   4.206   0.846  2.8314 -2.0526 -0.0642
  496MOL0     H66895   1.169   3.872   0.688  2.4807 -0.4949  0.1628
  496MOL0     H66896   1.273   3.961   0.799  0.4361  0.5862 -0.8126
  496MOL0     H66897   1.065   4.060   0.892 -3.9436  1.4076  0.6758
  496MOL0     H66898   1.012   4.101   0.725 -1.7974 -3.2713 -3.9332
  496MOL0     H66899   0.986   3.841   0.869 -1.7243 -1.8223 -0.9743
  496MOL0     H66900   0.867   3.975   0.854  0.9467 -0.4193  2.4752
  496MOL0     H66901   0.914   3.923   0.586 -1.8978 -2.0790 -1.7379
  496MOL0     H66902   0.960   3.764   0.666  2.6064  1.0091 -0.2834
  496MOL0     H66903   0.738   3.771   0.789 -0.8878  0.3931  0.2479
  496MOL0     H66904   0.701   3.914   0.694 -0.6318  0.2819  0.6278
  496MOL0     H66905   0.680   3.821   0.499  1.9821  2.2764  0.6737
  496MOL0     H66906   0.796   3.690   0.512 -1.5104 -0.3281 -2.6107
  496MOL0     H66907   0.570   3.590   0.497 -1.3869  0.6245 -0.5924
  496MOL0     H66908   0.619   3.571   0.672 -1.0508  0.3232 -0.6198
  496MOL0     H66909   0.457   3.800   0.557  0.4050  1.2448  0.8286
  496MOL0     H66910   0.480   3.761   0.730 -1.8316  1.7457  0.0114
  496MOL0     H66911   0.356   3.556   0.414 -1.8944 -1.6642 -1.0468
  496MOL0     H66912   0.137   3.409   0.372  0.8568 -0.5938  0.4160
  496MOL0     H66913   0.149   3.300   0.497  1.5323  0.0412 -4.4902
  496MOL0     H66914  -0.087   3.348   0.404 -0.8817  0.1980  0.0775
  496MOL0     H66915  -0.076   3.520   0.470 -0.1264  0.3092  0.5792
  496MOL0     H66916  -0.057   3.449   0.695 -2.5310 -0.6833  1.0543
  496MOL0     H66917  -0.036   3.282   0.654 -3.6190 -1.7904 -1.3711
  496MOL0     H66918  -0.264   3.310   0.726 -0.0602 -1.9894  0.0131
  496MOL0     H66919  -0.269   3.289   0.554  0.3933  0.3396  0.3796
  496MOL0     H66920  -0.483   3.345   0.759 -0.1877 -0.0114  1.0138
  496MOL0     H66921  -0.570   3.372   1.057  1.1714  2.4704  0.6904
  496MOL0     H66922  -0.722   3.441   1.016 -0.2060 -1.8118  1.8536
  496MOL0     H66923  -0.653   3.327   0.894  2.7931  0.5317 -1.2794
  496MOL0     H66924  -0.503   3.676   1.429  0.0680  0.1516  0.4794
  496MOL0     H66925  -0.624   3.754   1.609  3.6141  1.2991 -1.0902
  496MOL0     H66926  -0.992   3.759   1.780 -0.2399  0.0594 -0.9450
  496MOL0     H66927  -0.845   3.684   1.751 -2.0935 -0.1933  0.4210
  496MOL0     H66928  -0.742   3.924   1.747 -1.0366  1.5825 -0.3633
  496MOL0     H66929  -0.893   3.980   1.814 -1.4826 -0.0840 -0.4482
  496MOL0     H66930  -0.689   3.793   1.947  1.8678  2.3544 -1.0032
  496MOL0     H66931  -0.837   3.832   2.026 -0.9709  1.1869 -1.1066
  496MOL0     H66932  -0.603   4.004   1.930  1.2349 -2.6876  1.3500
  496MOL0     H66933  -0.754   4.081   2.002 -0.8724 -0.1745  1.1122
  496MOL0     H66934  -0.591   3.875   2.141  1.3541  0.8027 -0.4429
  496MOL0     H66935  -0.745   3.946   2.200  0.3206  2.7888 -0.7947
  496MOL0     H66936  -0.613   4.176   2.196  2.1874  1.8846  2.1510
  496MOL0     H66937  -0.582   4.065   2.328 -2.1219 -1.1971 -0.9237
  496MOL0     H66938  -0.438   4.135   2.073 -2.5699  1.5128  0.1801
  496MOL0     H66939  -0.382   3.994   2.174  1.3424  0.3604 -1.4323
  496MOL0     H66940  -0.261   4.196   2.237 -0.9845  2.3617 -1.3606
  496MOL0     H66941  -0.361   4.142   2.375 -0.4627 -0.2727 -0.3449
  496MOL0     H66942  -0.991   3.731   1.383 -0.1780 -1.5346 -1.1177
  496MOL0     H66943  -0.871   3.715   1.178 -3.4108 -0.2826  2.4288
  496MOL0     H66944  -0.466   3.831   0.874 -0.9135  0.4758 -1.8504
  496MOL0     H66945  -0.324   3.728   0.692 -1.2842  1.7180  0.5978
  496MOL0     H66946   1.304   4.173   0.433  3.3699  0.5656 -1.1010
  496MOL0     H66947   1.421   4.399   0.429  0.4232  1.5531  1.3936
  496MOL0     H66948   1.866   4.525   0.680 -0.4916 -0.6674  3.5236
  496MOL0     H66949   2.015   4.724   0.701  0.3405 -0.4988 -1.5474
  496MOL0     H66950   2.061   4.913   0.861 -0.1763 -1.4273 -0.5642
  496MOL0     H66951   2.115   4.915   0.697  1.1887  1.2152  0.3540
  496MOL0     H66952   2.218   5.085   0.823 -0.6649  0.6866  1.8578
  496MOL0     H66953   2.059   5.148   0.861 -0.4541 -0.7472 -0.7637
  496MOL0     H66954   2.033   5.252   0.644 -1.2134 -0.6232  0.1320
  496MOL0     H66955   2.133   5.131   0.567 -0.5703  0.2865  0.2842
  496MOL0     H66956   2.332   5.230   0.665  1.1440  1.4921  0.0902
  496MOL0     H66957   2.250   5.346   0.768  0.2151  0.3902  0.2700
  496MOL0     H66958   2.263   5.571   0.415 -2.6098  1.1229  0.3163
  496MOL0     H66959   1.677   4.986   0.715  1.9616  1.5970 -3.5063
  496MOL0     H66960   1.525   4.789   0.703 -0.4486 -0.9963 -0.9645
  497MOL0     O66961   2.939   6.571   5.689 -0.0416  0.0092  0.5135
  497MOL0     C66962   3.002   6.546   5.584  0.5946 -1.1926 -0.4290
  497MOL0     O66963   2.941   6.524   5.464 -0.1606 -0.6151 -0.2550
  497MOL0     C66964   2.810   6.537   5.441  0.3259 -0.2381 -0.1880
  497MOL0     C66965   2.715   6.459   5.496  0.9439  0.6886  0.1021
  497MOL0     C66966   2.581   6.473   5.466  0.3306  0.6205  0.1965
  497MOL0     C66967   2.530   6.564   5.380 -0.1085 -0.6266  0.0195
  497MOL0     O66968   2.399   6.568   5.357  0.1700 -0.4107  0.1238
  497MOL0     C66969   2.335   6.677   5.281 -0.1919 -0.1123 -0.0230
  497MOL0     C66970   2.184   6.681   5.288  0.1399  0.4496 -0.5166
  497MOL0     C66971   2.135   6.542   5.230  0.0649  0.4702  0.2067
  497MOL0     C66972   1.979   6.556   5.234  0.4706  0.1933  0.0302
  497MOL0     C66973   1.920   6.431   5.165  1.0653 -0.9024 -0.4611
  497MOL0     C66974   1.794   6.387   5.239  0.0622  0.4724  0.4239
  497MOL0     C66975   1.719   6.268   5.165  0.6287  0.2134  0.7624
  497MOL0     C66976   1.565   6.292   5.157  0.1493  0.1692  0.1099
  497MOL0     N66977   1.509   6.178   5.073 -0.2499  0.5475 -0.6088
  497MOL0     C66978   1.480   6.060   5.123 -0.6724  0.2544 -0.6779
  497MOL0     C66979   1.443   5.986   5.012  0.3409 -0.7391  0.0996
  497MOL0     C66980   1.388   5.846   5.016 -0.3475  0.2608  0.4308
  497MOL0     C66981   1.247   5.845   4.964  0.0646 -0.0189  0.4024
  497MOL0     C66982   1.187   5.708   4.965  0.5448 -0.3773 -0.3846
  497MOL0     C66983   1.039   5.717   4.933  0.4043  0.8400  0.4292
  497MOL0     O66984   0.992   5.575   4.924  0.1837 -0.5889  0.3666
  497MOL0     C66985   0.862   5.551   4.871 -0.2785 -0.0717 -0.3654
  497MOL0     C66986   0.812   5.424   4.880  0.6506  0.2268 -0.8950
  497MOL0     C66987   0.683   5.389   4.825  0.1074  0.0213 -0.2340
  497MOL0     C66988   0.652   5.238   4.815  0.3211  1.1701 -0.6057
  497MOL0     C66989   0.598   5.480   4.766  0.3297 -0.3044  0.8441
  497MOL0     C66990   0.467   5.461   4.700  0.0417  0.0640 -0.4233
  497MOL0     O66991   0.416   5.336   4.690 -0.5496  0.5295 -0.0945
  497MOL0     C66992   0.288   5.326   4.637  0.3174  0.1284  0.6607
  497MOL0     C66993   0.259   5.266   4.508 -0.4320  0.1656 -1.0040
  497MOL0     C66994   0.125   5.240   4.476  0.0290 -0.0952  0.5315
  497MOL0     C66995   0.014   5.274   4.565 -1.0069  0.4142  0.1079
  497MOL0     O66996  -0.106   5.233   4.517 -0.2248 -0.8274  0.1665
  497MOL0     C66997  -0.224   5.309   4.559  0.2667 -0.8037  0.3197
  497MOL0     C66998  -0.342   5.277   4.460  1.2655  0.4017  0.3608
  497MOL0     C66999  -0.470   5.317   4.527  0.0892 -0.0025 -0.5676
  497MOL0     C67000  -0.586   5.305   4.435 -0.9371  0.6968  0.4875
  497MOL0     C67001  -0.708   5.393   4.481  0.0372  0.4797  0.5824
  497MOL0     C67002  -0.842   5.360   4.408  0.1092 -0.0816 -0.4270
  497MOL0     C67003  -0.954   5.455   4.459  0.3383  0.1881  0.1974
  497MOL0     C67004  -1.092   5.412   4.404  0.3444  0.4029 -0.3654
  497MOL0    Cl67005  -1.083   5.419   4.221 -0.1516 -0.2284 -0.5670
  497MOL0     C67006   0.050   5.338   4.681  0.3108 -0.2103  0.8501
  497MOL0     C67007   0.178   5.366   4.717 -0.7143 -0.1751  0.2858
  497MOL0     O67008   0.409   5.558   4.664 -0.1676 -0.3500  0.5841
  497MOL0     C67009   0.652   5.612   4.766 -0.1597 -0.1800  0.5309
  497MOL0     C67010   0.778   5.642   4.821 -0.2410 -0.2734 -0.1511
  497MOL0     N67011   1.446   6.067   4.902  0.0628 -0.2495  0.1121
  497MOL0     N67012   1.492   6.183   4.939  0.4351  0.5013  0.0878
  497MOL0     C67013   2.626   6.658   5.324 -0.2001 -0.4334  0.3372
  497MOL0     C67014   2.763   6.643   5.352 -1.0686  0.1189  0.4715
  497MOL0     C67015   3.151   6.530   5.586 -0.3505 -0.6914 -0.0982
  497MOL0     C67016   3.219   6.492   5.709  0.2959 -0.1028  0.2425
  497MOL0     C67017   3.357   6.468   5.702  0.1205 -0.0046  0.6556
  497MOL0     C67018   3.421   6.482   5.576 -0.5542  0.8121 -0.1772
  497MOL0     O67019   3.558   6.463   5.583 -0.3006 -0.8449  0.6562
  497MOL0     C67020   3.637   6.477   5.466 -0.6321  0.2216  1.1641
  497MOL0     C67021   3.784   6.447   5.499  0.2577  0.2516  0.5534
  497MOL0     C67022   3.881   6.454   5.379 -0.0813  0.1518 -0.5938
  497MOL0     C67023   4.022   6.434   5.424  0.8587 -0.4598 -0.8045
  497MOL0     C67024   4.117   6.454   5.313 -0.0018  0.2668 -0.4646
  497MOL0     C67025   4.183   6.446   5.214 -0.2280 -0.0565  0.2742
  497MOL0     C67026   3.355   6.515   5.458 -0.2112  0.1244  0.6863
  497MOL0     C67027   3.221   6.537   5.457 -0.0459 -0.3210 -1.1043
  497MOL0     H67028   2.728   6.376   5.564 -3.5692 -1.9737 -1.8378
  497MOL0     H67029   2.509   6.410   5.517 -0.7820  3.3877  2.3086
  497MOL0     H67030   2.370   6.768   5.330  1.9021  0.0592 -1.6647
  497MOL0     H67031   2.373   6.679   5.178  2.6578 -1.0967  0.9168
  497MOL0     H67032   2.156   6.694   5.393  0.9271  2.4036 -0.5025
  497MOL0     H67033   2.146   6.764   5.229 -0.3188  2.2551  2.1396
  497MOL0     H67034   2.176   6.527   5.130 -0.9555 -1.2198  0.0056
  497MOL0     H67035   2.168   6.457   5.290  0.6127  0.2070 -0.4545
  497MOL0     H67036   1.938   6.559   5.336 -1.3333  2.1489 -0.6848
  497MOL0     H67037   1.941   6.645   5.184  0.7906  0.0461 -0.4757
  497MOL0     H67038   1.898   6.449   5.060 -2.2276  0.1305  0.2843
  497MOL0     H67039   1.997   6.354   5.174  0.7515 -1.2076 -0.3989
  497MOL0     H67040   1.826   6.354   5.339  1.2663 -1.8458 -0.6502
  497MOL0     H67041   1.730   6.475   5.252 -0.1701  0.0379  2.6866
  497MOL0     H67042   1.752   6.267   5.060 -1.8655 -1.4875 -0.0860
  497MOL0     H67043   1.735   6.166   5.199 -0.5246  0.2070  1.3228
  497MOL0     H67044   1.535   6.387   5.112  1.3406 -0.0301 -1.1490
  497MOL0     H67045   1.527   6.282   5.259 -1.8604 -0.0202 -0.6078
  497MOL0     H67046   1.464   6.039   5.228 -1.5181  0.4504 -0.7594
  497MOL0     H67047   1.454   5.781   4.957  0.0076  1.9683 -1.1438
  497MOL0     H67048   1.389   5.818   5.121 -2.5026  2.0346  0.9768
  497MOL0     H67049   1.232   5.898   4.869  0.8012  1.7666  1.2282
  497MOL0     H67050   1.188   5.905   5.034 -0.3771 -0.8852  0.7801
  497MOL0     H67051   1.199   5.668   5.066 -2.5196 -0.0271  0.2141
  497MOL0     H67052   1.231   5.639   4.892 -0.7764 -0.3072 -1.2739
  497MOL0     H67053   1.025   5.774   4.841  0.7839  0.6470  0.2476
  497MOL0     H67054   0.980   5.765   5.011 -1.3718  3.0498 -2.0869
  497MOL0     H67055   0.875   5.344   4.916  0.4252  0.7290  0.6689
  497MOL0     H67056   0.694   5.184   4.730 -2.3707 -0.2720 -1.1298
  497MOL0     H67057   0.694   5.182   4.899 -3.6453 -1.7308 -0.2770
  497MOL0     H67058   0.546   5.221   4.833  0.4335  0.8758 -0.2071
  497MOL0     H67059   0.343   5.243   4.442  0.6903  0.7347  0.1676
  497MOL0     H67060   0.103   5.191   4.382 -0.2823 -0.8441  0.9797
  497MOL0     H67061  -0.244   5.272   4.660 -0.9913  0.6332  0.6366
  497MOL0     H67062  -0.201   5.416   4.565 -0.5507 -0.6016 -0.0371
  497MOL0     H67063  -0.324   5.315   4.359 -0.7105  1.3148  0.3160
  497MOL0     H67064  -0.345   5.168   4.449 -1.2409  0.4891 -0.4392
  497MOL0     H67065  -0.467   5.421   4.560  0.8978 -0.0653 -0.4188
  497MOL0     H67066  -0.482   5.265   4.622  1.0356  2.2900  0.8705
  497MOL0     H67067  -0.559   5.333   4.333  0.5402 -2.2187 -0.0160
  497MOL0     H67068  -0.604   5.197   4.425 -0.6688  0.6934  0.0264
  497MOL0     H67069  -0.687   5.497   4.456  0.1512  0.4095  0.3850
  497MOL0     H67070  -0.721   5.373   4.588  1.1508 -1.9656  0.3218
  497MOL0     H67071  -0.833   5.363   4.299 -1.4825 -1.3427 -0.6351
  497MOL0     H67072  -0.878   5.260   4.433 -2.1909  0.8184  0.0583
  497MOL0     H67073  -0.934   5.558   4.427  0.9227 -0.3305 -1.1856
  497MOL0     H67074  -0.949   5.457   4.568  2.9549 -3.7309  0.3289
  497MOL0     H67075  -1.155   5.495   4.437 -0.4652  0.1788 -1.3202
  497MOL0     H67076  -1.135   5.325   4.455 -1.6902  3.1460  3.0553
  497MOL0     H67077  -0.031   5.373   4.745  0.3228  2.1011 -0.2714
  497MOL0     H67078   0.215   5.415   4.807 -0.1607  3.6012 -1.7779
  497MOL0     H67079   0.607   5.701   4.722  1.1770  0.6072  0.7237
  497MOL0     H67080   0.803   5.747   4.820 -1.0660  0.0231  2.3937
  497MOL0     H67081   2.592   6.740   5.262  0.6985  0.1955  0.6638
  497MOL0     H67082   2.844   6.700   5.309  0.8641 -3.3280 -0.7962
  497MOL0     H67083   3.164   6.495   5.803  0.7705  0.0846  0.5164
  497MOL0     H67084   3.409   6.440   5.793 -0.5686  0.2758  1.1467
  497MOL0     H67085   3.590   6.409   5.395  1.0313  0.1562  0.0687
  497MOL0     H67086   3.636   6.581   5.432 -0.1182  0.0857  0.7214
  497MOL0     H67087   3.786   6.344   5.536  2.3166  1.2659  3.7249
  497MOL0     H67088   3.816   6.515   5.579 -0.1033 -0.2727  1.1577
  497MOL0     H67089   3.880   6.554   5.334  0.8026  0.5791  0.3005
  497MOL0     H67090   3.861   6.368   5.314  1.9726 -0.8011 -0.0626
  497MOL0     H67091   4.018   6.327   5.442  0.2426 -0.1871  0.9386
  497MOL0     H67092   4.054   6.481   5.518  0.1552 -2.6318  0.5968
  497MOL0     H67093   4.243   6.442   5.125  0.5497  2.0748  0.6485
  497MOL0     H67094   3.397   6.518   5.358 -1.5089 -0.3899  0.1035
  497MOL0     H67095   3.170   6.542   5.362 -0.4767  0.1923 -0.8465
  498MOL0     O67096   5.630   0.225  11.020  0.0201 -0.2971  0.3547
  498MOL0     C67097   5.699   0.235  10.919  0.5450 -0.0401 -0.8578
  498MOL0     O67098   5.648   0.242  10.792  0.3970 -0.1257  0.0777
  498MOL0     C67099   5.517   0.226  10.764  0.3926 -0.5323  1.0119
  498MOL0     C67100   5.467   0.297  10.658  0.6449 -0.2572 -0.8593
  498MOL0     C67101   5.323   0.299  10.648 -0.5910 -0.2992 -1.3080
  498MOL0     C67102   5.240   0.232  10.732  0.2380  0.1384  0.1255
  498MOL0     O67103   5.102   0.238  10.702 -0.8364 -0.4740 -0.4111
  498MOL0     C67104   5.032   0.303  10.808  0.0717 -0.4205 -0.2960
  498MOL0     C67105   5.068   0.447  10.838 -0.0825 -0.0496 -0.1130
  498MOL0     C67106   4.951   0.535  10.793 -0.2400  0.1261 -0.3958
  498MOL0     C67107   4.883   0.584  10.920  0.7400 -0.5280 -0.5372
  498MOL0     C67108   4.768   0.677  10.892  0.6488 -0.1180 -0.0505
  498MOL0     C67109   4.649   0.611  10.835 -0.1997  0.6366 -0.4542
  498MOL0     C67110   4.519   0.688  10.864  0.4673  0.2775  0.5118
  498MOL0     C67111   4.474   0.665  11.005 -0.1132  0.5432  0.1363
  498MOL0     N67112   4.338   0.721  11.022 -1.5452  0.0037 -0.5358
  498MOL0     C67113   4.311   0.851  11.044 -0.0930  0.1936 -0.6331
  498MOL0     C67114   4.178   0.869  11.028 -0.1094 -0.7308  0.5380
  498MOL0     C67115   4.111   1.009  11.032 -0.2900  0.6359  0.6099
  498MOL0     C67116   4.005   1.018  10.926  0.2317 -0.8447  0.4739
  498MOL0     C67117   3.928   1.151  10.935 -0.0024 -0.1140  0.3709
  498MOL0     C67118   3.853   1.182  10.803 -0.2396  0.2264  0.3634
  498MOL0     O67119   3.747   1.089  10.800 -0.4292 -0.7002 -0.1169
  498MOL0     C67120   3.625   1.133  10.774  0.2576  0.9160  0.1507
  498MOL0     C67121   3.550   1.194  10.876 -0.0564 -0.3646  0.6866
  498MOL0     C67122   3.422   1.252  10.856 -0.0489 -0.1351 -0.1684
  498MOL0     C67123   3.365   1.322  10.976 -0.5010 -0.0720  0.6298
  498MOL0     C67124   3.364   1.232  10.729 -0.5336 -0.3411  0.2929
  498MOL0     C67125   3.231   1.286  10.701 -0.4229 -0.9233  0.9056
  498MOL0     O67126   3.156   1.334  10.805  0.1963 -0.2358  0.5046
  498MOL0     C67127   3.029   1.378  10.792  1.1300 -0.8643  0.3291
  498MOL0     C67128   2.999   1.479  10.885 -0.2102  0.1338 -0.2472
  498MOL0     C67129   2.866   1.529  10.887 -0.4465 -0.3347 -0.5373
  498MOL0     C67130   2.762   1.483  10.803 -0.0630  0.3328 -0.4321
  498MOL0     O67131   2.633   1.526  10.821  0.0191  0.5391  0.6135
  498MOL0     C67132   2.546   1.455  10.912 -0.0135 -0.3955  1.0032
  498MOL0     C67133   2.408   1.523  10.908 -0.4343  0.1200 -0.4211
  498MOL0     C67134   2.330   1.492  10.781 -0.5974  0.0325  0.1645
  498MOL0     C67135   2.185   1.536  10.793  0.5171 -0.4620 -0.4409
  498MOL0     C67136   2.095   1.441  10.877 -0.0346  0.0896  0.6101
  498MOL0     C67137   1.960   1.514  10.907  0.4191 -0.1749 -0.0653
  498MOL0     C67138   1.889   1.577  10.791  0.3182 -0.2218  0.0448
  498MOL0     C67139   1.736   1.586  10.819 -0.3243 -0.2132 -0.3105
  498MOL0    Cl67140   1.647   1.432  10.760  0.1361  0.5390  0.0118
  498MOL0     C67141   2.791   1.364  10.727  0.2991  0.9743 -0.3389
  498MOL0     C67142   2.920   1.318  10.715 -0.2390 -0.5415 -0.4904
  498MOL0     O67143   3.193   1.293  10.583 -0.6870  0.1440 -0.1423
  498MOL0     C67144   3.426   1.151  10.629  1.1768  0.9667 -0.6169
  498MOL0     C67145   3.561   1.114  10.650  0.1887  0.7026  0.1400
  498MOL0     N67146   4.131   0.742  11.003  0.1812 -0.4566 -0.9397
  498MOL0     N67147   4.222   0.654  11.002 -0.8800  0.4761  0.3802
  498MOL0     C67148   5.297   0.145  10.825  1.1673 -0.1018 -0.2282
  498MOL0     C67149   5.431   0.149  10.844 -0.0133  0.1265  0.6264
  498MOL0     C67150   5.842   0.244  10.928 -0.4268  0.0015  0.3031
  498MOL0     C67151   5.917   0.301  10.829  0.4884 -0.7739  0.2109
  498MOL0     C67152   6.051   0.304  10.833 -0.2458  0.1170 -0.3783
  498MOL0     C67153   6.127   0.256  10.939 -0.1125 -0.3546 -0.8412
  498MOL0     O67154   6.270   0.260  10.944  0.4974  0.2289 -0.4621
  498MOL0     C67155   6.331   0.377  11.000 -0.2541 -0.0379 -0.4593
  498MOL0     C67156   6.484   0.369  11.001 -0.0831  0.1548 -0.1998
  498MOL0     C67157   6.534   0.368  10.856  0.6290  0.1491  0.8000
  498MOL0     C67158   6.683   0.373  10.837  0.7610  0.3535 -0.1661
  498MOL0     C67159   6.736   0.512  10.835  0.4132 -0.3662  0.1325
  498MOL0     C67160   6.795   0.617  10.834  0.4215  0.6941  0.0368
  498MOL0     C67161   6.049   0.200  11.043 -0.5219  0.0734  0.0778
  498MOL0     C67162   5.909   0.191  11.038 -0.5316 -0.3859 -0.0042
  498MOL0     H67163   5.538   0.349  10.595 -0.1832  1.9210 -0.1053
  498MOL0     H67164   5.290   0.363  10.566 -0.6645  3.5601  1.4761
  498MOL0     H67165   4.925   0.298  10.787 -0.2420  2.7298  0.0293
  498MOL0     H67166   5.052   0.249  10.901  2.1312  1.3047  0.3406
  498MOL0     H67167   5.100   0.452  10.942 -0.3844 -0.4793  0.0011
  498MOL0     H67168   5.161   0.475  10.787  0.0031  1.0120  0.5902
  498MOL0     H67169   4.987   0.622  10.737  3.8462 -0.2238  1.3090
  498MOL0     H67170   4.878   0.482  10.731  0.6745 -1.3220 -0.2703
  498MOL0     H67171   4.842   0.492  10.962 -0.8634  0.6196  0.5628
  498MOL0     H67172   4.954   0.637  10.984  0.6184 -0.8522 -0.1283
  498MOL0     H67173   4.735   0.723  10.986  0.0484  0.8857 -0.7239
  498MOL0     H67174   4.800   0.758  10.826  1.7955 -0.4465  0.0895
  498MOL0     H67175   4.666   0.594  10.728  4.6171  1.1138  0.0192
  498MOL0     H67176   4.630   0.523  10.897 -0.4880  0.9762 -0.0571
  498MOL0     H67177   4.553   0.792  10.854 -1.0542  0.7642  0.1651
  498MOL0     H67178   4.442   0.667  10.789  1.1919 -0.1594 -0.1145
  498MOL0     H67179   4.550   0.708  11.072  2.4270  1.8762 -3.3158
  498MOL0     H67180   4.465   0.557  11.017  1.8650  0.1780 -1.1359
  498MOL0     H67181   4.385   0.925  11.071  1.3565 -1.4763  0.2014
  498MOL0     H67182   4.073   1.034  11.132 -0.5481 -1.1667  0.9930
  498MOL0     H67183   4.185   1.087  11.012 -0.6976  1.4643  2.1446
  498MOL0     H67184   3.931   0.944  10.958 -0.1993  0.2302  2.0665
  498MOL0     H67185   4.039   1.000  10.824  0.8573 -0.8395  0.6802
  498MOL0     H67186   4.005   1.227  10.953  2.1626 -1.7605 -1.3620
  498MOL0     H67187   3.855   1.141  11.016  0.6341  1.2633  1.1559
  498MOL0     H67188   3.918   1.169  10.715 -0.3207 -0.6580  0.4242
  498MOL0     H67189   3.824   1.288  10.807 -0.8425  0.0728  0.1519
  498MOL0     H67190   3.601   1.217  10.970 -1.4096  1.0187  1.1237
  498MOL0     H67191   3.348   1.427  10.949  1.5091 -0.0198 -0.6476
  498MOL0     H67192   3.273   1.266  10.996 -0.7820 -0.3486 -1.2419
  498MOL0     H67193   3.439   1.321  11.057  0.1481  0.0476  0.0445
  498MOL0     H67194   3.073   1.514  10.956 -1.2138  1.5281  0.1510
  498MOL0     H67195   2.835   1.609  10.955 -2.8174 -1.8334  0.2592
  498MOL0     H67196   2.532   1.349  10.887  1.7739 -0.8103  1.5730
  498MOL0     H67197   2.599   1.450  11.008  1.4811 -0.2354  0.2065
  498MOL0     H67198   2.358   1.482  10.997  4.4815 -0.9779  2.2010
  498MOL0     H67199   2.410   1.629  10.932 -2.1601  0.3595 -1.1777
  498MOL0     H67200   2.340   1.389  10.745 -1.0381  0.2532 -0.6257
  498MOL0     H67201   2.371   1.558  10.703 -1.9252 -0.0139 -0.6038
  498MOL0     H67202   2.183   1.638  10.834  2.6214  0.0660 -1.5465
  498MOL0     H67203   2.137   1.551  10.696  0.6934 -1.0363 -0.6194
  498MOL0     H67204   2.145   1.425  10.973  0.2943 -2.0555  0.1143
  498MOL0     H67205   2.072   1.348  10.825  0.5683  0.4380 -0.2945
  498MOL0     H67206   1.893   1.447  10.961 -1.4213  2.3841  1.0358
  498MOL0     H67207   1.984   1.593  10.979 -1.6755 -0.4095  0.9522
  498MOL0     H67208   1.895   1.507  10.707  0.9872  0.5027 -0.5264
  498MOL0     H67209   1.937   1.673  10.774  1.9711 -0.4152  2.8560
  498MOL0     H67210   1.695   1.676  10.771  3.2763  1.4659 -0.5126
  498MOL0     H67211   1.725   1.599  10.927  1.4934 -4.3079  0.5211
  498MOL0     H67212   2.715   1.315  10.668 -0.2936  0.6813  0.6522
  498MOL0     H67213   2.936   1.227  10.658  2.3616 -3.6051  4.4845
  498MOL0     H67214   3.385   1.133  10.530 -2.9584 -2.3569  1.3721
  498MOL0     H67215   3.614   1.060  10.572 -0.1379  0.9552 -0.2615
  498MOL0     H67216   5.236   0.070  10.874  0.0759  0.2463 -0.9989
  498MOL0     H67217   5.458   0.067  10.911 -3.2604 -2.6048 -1.0769
  498MOL0     H67218   5.870   0.337  10.739  1.0456 -2.8384 -0.9678
  498MOL0     H67219   6.101   0.348  10.747  1.7844 -1.7978 -0.2635
  498MOL0     H67220   6.309   0.464  10.936  0.2866  1.6539  1.5354
  498MOL0     H67221   6.295   0.395  11.101 -2.7741  1.7354 -1.5757
  498MOL0     H67222   6.510   0.288  11.069 -2.9965  1.1991  2.3469
  498MOL0     H67223   6.527   0.456  11.051 -0.9275 -0.1980  1.1971
  498MOL0     H67224   6.487   0.455  10.810 -0.1716 -0.9580 -0.5452
  498MOL0     H67225   6.491   0.279  10.808  0.5055 -0.7402  2.4795
  498MOL0     H67226   6.713   0.324  10.744  1.9255  1.7534 -0.5704
  498MOL0     H67227   6.719   0.317  10.923  0.9467 -1.2978 -1.2815
  498MOL0     H67228   6.853   0.707  10.828 -1.3870  2.1951  2.7756
  498MOL0     H67229   6.111   0.165  11.125  0.1729 -2.7681 -1.5197
  498MOL0     H67230   5.853   0.147  11.120 -1.9495 -0.5089 -1.0026
  499MOL0     O67231   3.924   3.077   2.038 -0.3603 -0.2235 -0.4242
  499MOL0     C67232   3.963   3.157   1.957 -0.5444 -0.2126 -0.3135
  499MOL0     O67233   3.979   3.291   1.974 -0.0224 -0.4262  0.5214
  499MOL0     C67234   3.995   3.335   2.101 -0.8774 -0.2440  0.6615
  499MOL0     C67235   4.109   3.326   2.180 -0.0599  0.4884 -0.2986
  499MOL0     C67236   4.121   3.387   2.310  0.3850  0.7139 -0.0826
  499MOL0     C67237   4.018   3.466   2.360 -0.0317  0.0324  0.5903
  499MOL0     O67238   4.029   3.535   2.481  0.2870  0.2675 -0.3950
  499MOL0     C67239   4.158   3.542   2.542 -0.4855  0.2149 -0.5850
  499MOL0     C67240   4.160   3.599   2.679 -0.3826  0.0428  0.9112
  499MOL0     C67241   4.141   3.754   2.674 -0.4189  0.0596  0.6330
  499MOL0     C67242   4.183   3.814   2.802  0.4418 -0.8852 -0.8078
  499MOL0     C67243   4.147   3.966   2.800 -0.0050 -0.5224 -0.8016
  499MOL0     C67244   4.215   4.034   2.909  0.9226 -0.9456 -0.0395
  499MOL0     C67245   4.190   4.185   2.912 -0.0061  0.0662 -0.6534
  499MOL0     C67246   4.064   4.230   2.985  0.3392  1.2790 -1.2622
  499MOL0     N67247   4.071   4.208   3.132  0.2304  0.3602  0.4059
  499MOL0     C67248   4.018   4.103   3.202 -0.6730  0.7337  0.2100
  499MOL0     C67249   4.048   4.125   3.329  0.3067  0.3003  0.0872
  499MOL0     C67250   4.003   4.025   3.437  0.0778 -0.1944 -0.1290
  499MOL0     C67251   3.852   3.982   3.431  0.5386  0.2501 -0.0291
  499MOL0     C67252   3.750   4.085   3.399 -0.2908  0.7471  0.0392
  499MOL0     C67253   3.618   4.051   3.459  0.5651  0.3578 -0.1022
  499MOL0     O67254   3.528   4.146   3.417  0.5968 -0.3567  0.2965
  499MOL0     C67255   3.397   4.143   3.453  0.1651  0.0197  0.5312
  499MOL0     C67256   3.322   4.035   3.496 -0.0532  0.2646 -0.3199
  499MOL0     C67257   3.186   4.042   3.533  0.7965 -0.0018  0.2423
  499MOL0     C67258   3.112   3.913   3.563  0.2974 -0.5381  0.2481
  499MOL0     C67259   3.110   4.157   3.512  0.4586  0.1800 -0.0632
  499MOL0     C67260   2.963   4.179   3.538 -0.6365  0.5684  0.3328
  499MOL0     O67261   2.907   4.084   3.618  0.7948 -0.0603  0.2830
  499MOL0     C67262   2.772   4.090   3.617 -0.5623  0.4233 -0.6694
  499MOL0     C67263   2.711   3.982   3.558 -0.5153 -0.3416  0.3283
  499MOL0     C67264   2.568   3.971   3.567 -0.8041  0.2236 -0.3019
  499MOL0     C67265   2.494   4.073   3.630  0.9157  1.5718  0.4165
  499MOL0     O67266   2.355   4.056   3.637  0.3012 -0.1780 -0.0518
  499MOL0     C67267   2.324   3.945   3.729  0.0680 -0.8403  0.2889
  499MOL0     C67268   2.192   3.963   3.810  0.2961  0.3211  0.2686
  499MOL0     C67269   2.151   3.838   3.885 -0.3847  0.1628  0.6151
  499MOL0     C67270   2.262   3.795   3.978  0.1060  1.0928  0.0109
  499MOL0     C67271   2.201   3.686   4.065 -0.7927 -0.3634 -0.3159
  499MOL0     C67272   2.298   3.617   4.170 -0.0196  0.1516  0.8090
  499MOL0     C67273   2.428   3.573   4.102 -0.2669 -0.6240  0.3743
  499MOL0     C67274   2.528   3.490   4.178 -0.1001  0.4642  1.0939
  499MOL0    Cl67275   2.595   3.599   4.311 -0.5124  0.3306 -0.3472
  499MOL0     C67276   2.564   4.176   3.701  0.9064  0.0521 -0.0401
  499MOL0     C67277   2.704   4.184   3.689 -0.0437 -0.2567  0.1254
  499MOL0     O67278   2.917   4.289   3.510  0.2083 -0.5734 -0.1246
  499MOL0     C67279   3.188   4.267   3.471 -0.9501 -0.0118  0.3388
  499MOL0     C67280   3.324   4.254   3.433  0.3084  0.7231 -0.6621
  499MOL0     N67281   4.138   4.234   3.339  0.2166 -0.2311 -0.4620
  499MOL0     N67282   4.137   4.292   3.222  0.8346  0.3623 -0.7596
  499MOL0     C67283   3.897   3.466   2.281 -0.1894 -0.1341 -0.5633
  499MOL0     C67284   3.888   3.409   2.152  0.6357 -0.8114 -0.2087
  499MOL0     C67285   3.974   3.107   1.817  1.4424 -0.0669  0.6383
  499MOL0     C67286   4.044   3.177   1.715 -0.2210 -0.3725  0.0314
  499MOL0     C67287   4.073   3.114   1.595 -0.3201  0.2931 -0.3497
  499MOL0     C67288   4.026   2.989   1.553 -0.0287 -0.1022 -0.4453
  499MOL0     O67289   4.031   2.944   1.430  0.1017 -0.4125  0.1106
  499MOL0     C67290   4.113   3.004   1.333 -0.1548  1.2460 -0.3108
  499MOL0     C67291   4.098   2.931   1.201  0.6071  0.3471 -0.0575
  499MOL0     C67292   4.122   2.781   1.191 -1.0767  0.4973 -0.5538
  499MOL0     C67293   4.244   2.751   1.282 -0.1964  0.3902 -0.6599
  499MOL0     C67294   4.368   2.796   1.210  0.5341 -0.4783  0.0458
  499MOL0     C67295   4.470   2.828   1.147  0.5378 -0.5728  0.3679
  499MOL0     C67296   3.947   2.922   1.644  0.8966  0.0467  0.1036
  499MOL0     C67297   3.927   2.976   1.774 -1.0093 -0.5353 -0.0051
  499MOL0     H67298   4.193   3.264   2.150 -1.4404 -3.3845  2.9398
  499MOL0     H67299   4.215   3.375   2.363 -0.5602  1.3740  1.8482
  499MOL0     H67300   4.211   3.447   2.553 -0.4900  0.4117  1.6185
  499MOL0     H67301   4.222   3.607   2.482 -0.5590  1.5633  0.7272
  499MOL0     H67302   4.085   3.559   2.749  0.7903  0.0281  2.2001
  499MOL0     H67303   4.258   3.579   2.722 -0.9879 -1.0983  1.8237
  499MOL0     H67304   4.200   3.798   2.592 -1.4001  1.1091  0.4548
  499MOL0     H67305   4.041   3.790   2.649 -0.5504  0.2120  1.3586
  499MOL0     H67306   4.131   3.764   2.885 -1.5105  0.8001 -0.9371
  499MOL0     H67307   4.288   3.789   2.818 -0.0161 -1.9525  0.8084
  499MOL0     H67308   4.188   4.005   2.705 -0.3897  0.3050 -0.6410
  499MOL0     H67309   4.038   3.972   2.806  0.0634 -0.1813  0.2552
  499MOL0     H67310   4.190   3.990   3.006 -0.1815 -1.6543 -0.6346
  499MOL0     H67311   4.322   4.016   2.893  0.4898 -2.3616 -1.5415
  499MOL0     H67312   4.279   4.237   2.948 -0.8325  0.7048  0.4935
  499MOL0     H67313   4.183   4.225   2.810 -1.1303  3.2398  0.5524
  499MOL0     H67314   3.978   4.186   2.933  0.4738  3.4272 -3.5309
  499MOL0     H67315   4.045   4.336   2.965 -4.5835  0.8464  0.0022
  499MOL0     H67316   3.960   4.021   3.161  0.5947 -0.7573  1.2621
  499MOL0     H67317   4.071   3.939   3.431  1.8379  1.0523  0.8598
  499MOL0     H67318   4.019   4.071   3.535 -1.8012  0.1311  0.0514
  499MOL0     H67319   3.821   3.934   3.524  0.0216 -0.9522 -0.7921
  499MOL0     H67320   3.843   3.899   3.361 -0.3312 -0.2661  0.6749
  499MOL0     H67321   3.744   4.093   3.290 -0.2774  0.7613  0.0392
  499MOL0     H67322   3.775   4.188   3.426 -0.4947  1.0732 -0.9703
  499MOL0     H67323   3.630   4.055   3.567  0.4377 -0.2669 -0.0574
  499MOL0     H67324   3.595   3.947   3.430  0.3792 -0.4075  2.5607
  499MOL0     H67325   3.376   3.941   3.507  1.0000  0.6316 -1.9533
  499MOL0     H67326   3.019   3.906   3.507 -0.9739  0.4970  2.1289
  499MOL0     H67327   3.172   3.825   3.539  0.9381  0.3521 -1.6109
  499MOL0     H67328   3.088   3.907   3.670 -3.4334  0.2042 -0.4214
  499MOL0     H67329   2.770   3.909   3.505 -0.3270  0.7260 -0.9791
  499MOL0     H67330   2.523   3.882   3.524 -0.7932 -0.3648  0.8570
  499MOL0     H67331   2.310   3.851   3.674  0.0080 -1.4526  1.3134
  499MOL0     H67332   2.407   3.937   3.800 -1.4710  0.1769  2.2793
  499MOL0     H67333   2.208   4.046   3.879  2.0595  0.1444  0.1144
  499MOL0     H67334   2.112   3.992   3.741  0.5004  0.0436 -0.0879
  499MOL0     H67335   2.120   3.758   3.816  0.2944  1.1189 -0.8540
  499MOL0     H67336   2.060   3.880   3.928 -0.4404  1.8683 -1.0369
  499MOL0     H67337   2.350   3.754   3.928  1.0207 -0.7402  2.9042
  499MOL0     H67338   2.303   3.883   4.029 -0.2524  0.8233  0.7691
  499MOL0     H67339   2.169   3.610   3.993  1.6346  0.9983 -3.0433
  499MOL0     H67340   2.109   3.725   4.110  0.4584  0.6544  1.4625
  499MOL0     H67341   2.316   3.678   4.259 -1.5389 -0.4014  1.5353
  499MOL0     H67342   2.253   3.526   4.212  1.9973 -1.1909  0.1763
  499MOL0     H67343   2.481   3.660   4.062 -2.2123 -0.6809 -2.6444
  499MOL0     H67344   2.408   3.516   4.011  1.1924 -0.6575  0.0448
  499MOL0     H67345   2.612   3.455   4.117 -2.1388 -1.1205 -0.9407
  499MOL0     H67346   2.465   3.408   4.214  2.7512 -2.0301  0.8452
  499MOL0     H67347   2.507   4.252   3.753  0.0931 -0.7046  0.1945
  499MOL0     H67348   2.742   4.265   3.751 -3.1766  2.5717 -1.3111
  499MOL0     H67349   3.143   4.363   3.447 -2.5508 -1.3951 -2.8950
  499MOL0     H67350   3.378   4.343   3.402 -0.2928  1.7849  1.1940
  499MOL0     H67351   3.818   3.530   2.318  1.0115  0.0603  1.8054
  499MOL0     H67352   3.796   3.422   2.096 -0.3640  1.5026  1.7695
  499MOL0     H67353   4.090   3.275   1.726  0.5257 -0.8846  1.7552
  499MOL0     H67354   4.140   3.175   1.536  0.2975 -0.6772 -0.6645
  499MOL0     H67355   4.087   3.109   1.319 -1.9330  0.7922 -0.5685
  499MOL0     H67356   4.216   3.004   1.371 -0.1791 -1.5170 -0.0776
  499MOL0     H67357   4.156   2.980   1.123  2.7262 -3.7635 -1.3327
  499MOL0     H67358   3.991   2.942   1.177 -0.0455 -0.6100  2.1074
  499MOL0     H67359   4.133   2.754   1.086 -2.5370  0.2656 -0.6740
  499MOL0     H67360   4.034   2.723   1.219  0.3453 -2.3402 -1.5865
  499MOL0     H67361   4.243   2.642   1.283 -2.3570  0.3666 -0.6564
  499MOL0     H67362   4.221   2.782   1.384 -1.5983  1.6081 -1.3104
  499MOL0     H67363   4.553   2.873   1.096  1.1563 -2.1721 -0.1070
  499MOL0     H67364   3.886   2.835   1.621 -0.4445  0.9283  0.2179
  499MOL0     H67365   3.866   2.922   1.846 -3.4561  3.4158  1.1803
  500MOL0     O67366   1.027   7.231   8.471 -0.0535  0.1326  0.5870
  500MOL0     C67367   1.112   7.200   8.386 -0.1719 -0.1508 -0.3032
  500MOL0     O67368   1.099   7.092   8.292 -0.4449  0.2289 -0.7929
  500MOL0     C67369   0.990   7.004   8.275 -0.0990 -0.2719  0.4770
  500MOL0     C67370   1.009   6.903   8.184  0.1670 -0.6287  0.6345
  500MOL0     C67371   0.907   6.813   8.154  0.4115 -0.0904  1.2052
  500MOL0     C67372   0.788   6.810   8.231 -0.7647  0.9158  0.2214
  500MOL0     O67373   0.694   6.720   8.216  0.4429  0.6187  0.3148
  500MOL0     C67374   0.642   6.679   8.083  0.0556  0.4536  0.3625
  500MOL0     C67375   0.555   6.787   8.015 -0.2934 -0.8034 -0.3939
  500MOL0     C67376   0.409   6.783   8.068 -0.6814 -0.1190  0.1359
  500MOL0     C67377   0.316   6.857   7.975 -0.2213 -0.0018  0.0219
  500MOL0     C67378   0.164   6.858   8.007 -0.6485 -0.1837  0.4654
  500MOL0     C67379   0.137   6.907   8.152  0.3975 -0.4643 -0.2209
  500MOL0     C67380  -0.006   6.875   8.195  0.0682  0.2742  0.5141
  500MOL0     C67381  -0.114   6.949   8.108  0.7874  0.3001 -0.1542
  500MOL0     N67382  -0.248   6.931   8.159 -0.0122  0.1271  0.3925
  500MOL0     C67383  -0.308   6.811   8.194 -0.5441  0.8319 -0.8632
  500MOL0     C67384  -0.436   6.836   8.231 -0.9478  0.4414 -0.2764
  500MOL0     C67385  -0.527   6.729   8.280 -0.1822  1.0541 -0.1580
  500MOL0     C67386  -0.677   6.754   8.230  0.6340  0.5698  0.1931
  500MOL0     C67387  -0.761   6.644   8.289  0.6039  1.3086  0.2474
  500MOL0     C67388  -0.909   6.661   8.244  0.2750  0.1240 -0.9731
  500MOL0     O67389  -0.987   6.553   8.300 -0.8748 -0.2970  0.1633
  500MOL0     C67390  -1.123   6.562   8.279  0.2039 -0.1982  0.0121
  500MOL0     C67391  -1.206   6.463   8.341  0.6470 -0.2978  0.6411
  500MOL0     C67392  -1.346   6.462   8.317  0.4687 -0.3534 -0.4414
  500MOL0     C67393  -1.414   6.339   8.368  0.1553 -0.0795  0.3651
  500MOL0     C67394  -1.409   6.562   8.237 -0.5545  0.9570 -0.1640
  500MOL0     C67395  -1.553   6.568   8.199  0.2359 -0.8690  0.3219
  500MOL0     O67396  -1.586   6.676   8.126  0.4063  0.0212 -0.8399
  500MOL0     C67397  -1.722   6.699   8.098 -0.2085  0.0484 -0.7505
  500MOL0     C67398  -1.791   6.811   8.154  0.2828 -0.0805 -0.5473
  500MOL0     C67399  -1.926   6.833   8.136  0.6693 -0.7368  0.2262
  500MOL0     C67400  -2.005   6.751   8.057 -0.0775  0.0020 -0.5073
  500MOL0     O67401  -2.131   6.781   8.025 -0.2410 -0.3456  0.0835
  500MOL0     C67402  -2.219   6.803   8.137  0.5837 -0.7225 -0.7657
  500MOL0     C67403  -2.365   6.791   8.088 -1.1745 -1.2448 -0.7084
  500MOL0     C67404  -2.414   6.659   8.038 -0.8802 -0.0870 -0.7091
  500MOL0     C67405  -2.564   6.678   8.008  0.4022  0.0810  0.9081
  500MOL0     C67406  -2.626   6.562   7.949 -0.2259  0.0767 -0.1221
  500MOL0     C67407  -2.772   6.584   7.928  0.2416 -0.4492 -0.8212
  500MOL0     C67408  -2.844   6.484   7.840  0.3642  0.5187  1.1691
  500MOL0     C67409  -2.987   6.525   7.817 -0.0197  0.5436 -0.3798
  500MOL0    Cl67410  -3.068   6.383   7.744 -0.5117 -0.3045  0.0146
  500MOL0     C67411  -1.932   6.642   7.994 -0.2491 -0.5589  1.0070
  500MOL0     C67412  -1.799   6.614   8.019  0.8834  0.5048 -0.4820
  500MOL0     O67413  -1.630   6.478   8.237  0.2850  0.4814  0.7344
  500MOL0     C67414  -1.321   6.658   8.180 -0.0563  0.3157 -0.3406
  500MOL0     C67415  -1.185   6.653   8.193 -0.4397  0.5953 -0.7006
  500MOL0     N67416  -0.449   6.976   8.228  0.4841  0.3162  0.5013
  500MOL0     N67417  -0.343   7.033   8.177  0.9145 -0.2462 -0.2805
  500MOL0     C67418   0.775   6.910   8.325  0.0738 -0.2063  0.8426
  500MOL0     C67419   0.873   7.011   8.343  1.2377 -0.3029  0.4621
  500MOL0     C67420   1.245   7.265   8.396  0.9661  0.6213 -0.0639
  500MOL0     C67421   1.355   7.194   8.345 -0.3789  0.2619  0.4851
  500MOL0     C67422   1.482   7.249   8.363 -1.1109  0.5954 -0.5544
  500MOL0     C67423   1.507   7.361   8.450  0.7861 -0.0654 -0.1552
  500MOL0     O67424   1.627   7.418   8.488 -0.0648 -0.2416  0.0307
  500MOL0     C67425   1.743   7.391   8.411 -1.0703 -0.1962  0.1143
  500MOL0     C67426   1.825   7.261   8.449 -0.4981  0.9811  0.0542
  500MOL0     C67427   1.953   7.267   8.358  0.0791  1.1525 -0.1323
  500MOL0     C67428   1.939   7.186   8.223  0.1796 -0.0519 -0.1096
  500MOL0     C67429   1.965   7.045   8.233 -0.3950  0.3137  0.1130
  500MOL0     C67430   1.981   6.927   8.246 -0.5828 -0.7920  0.7749
  500MOL0     C67431   1.395   7.434   8.495  0.5072  0.9543 -0.8995
  500MOL0     C67432   1.265   7.376   8.482 -0.0104 -0.8993 -0.7961
  500MOL0     H67433   1.105   6.882   8.138 -0.3262 -2.6313  0.4272
  500MOL0     H67434   0.932   6.738   8.079 -4.9602  0.0124 -1.0819
  500MOL0     H67435   0.717   6.675   8.003 -0.8424 -0.0193 -0.4785
  500MOL0     H67436   0.582   6.588   8.095 -1.6500  1.4364 -0.2815
  500MOL0     H67437   0.606   6.880   8.039  0.9068 -1.4090 -0.5489
  500MOL0     H67438   0.560   6.778   7.906  4.0083 -2.7779 -0.2407
  500MOL0     H67439   0.393   6.675   8.078 -0.7286 -0.9167 -5.2932
  500MOL0     H67440   0.404   6.834   8.165  0.6162 -0.6154  0.4884
  500MOL0     H67441   0.351   6.960   7.978  1.7612 -0.5999 -0.6309
  500MOL0     H67442   0.319   6.813   7.875 -2.3295 -0.0712 -0.0564
  500MOL0     H67443   0.112   6.925   7.938  0.5520 -0.7011 -0.9789
  500MOL0     H67444   0.112   6.762   7.998 -3.4701  1.0917  1.9561
  500MOL0     H67445   0.209   6.857   8.218  0.3920  1.8715  1.6432
  500MOL0     H67446   0.156   7.014   8.161 -3.1262  0.4573 -2.1443
  500MOL0     H67447  -0.023   6.768   8.187  0.9968  0.1360  0.2331
  500MOL0     H67448  -0.026   6.903   8.299 -1.8654  1.6911 -0.1843
  500MOL0     H67449  -0.114   6.907   8.007  0.2987  1.0288 -0.4663
  500MOL0     H67450  -0.101   7.057   8.100 -1.6455  0.5973 -1.0316
  500MOL0     H67451  -0.264   6.712   8.193 -4.0071 -0.8875 -0.0129
  500MOL0     H67452  -0.501   6.631   8.239  1.2851  0.7307  1.4026
  500MOL0     H67453  -0.518   6.723   8.389 -1.0326 -1.0749 -0.1686
  500MOL0     H67454  -0.672   6.753   8.121  2.5823 -1.7543  0.2128
  500MOL0     H67455  -0.732   6.843   8.261 -4.3822 -1.0534 -2.8041
  500MOL0     H67456  -0.743   6.654   8.396 -2.9756 -1.8544  1.3888
  500MOL0     H67457  -0.735   6.545   8.250 -3.2183  0.0437  0.4936
  500MOL0     H67458  -0.923   6.649   8.136  0.8707 -2.4504 -0.8205
  500MOL0     H67459  -0.943   6.758   8.282  3.0929  0.4487  1.0309
  500MOL0     H67460  -1.145   6.393   8.396 -0.0049 -1.0582  0.4163
  500MOL0     H67461  -1.449   6.281   8.282  6.2400  0.1428 -2.8047
  500MOL0     H67462  -1.348   6.277   8.429  1.9781  3.5370  2.3627
  500MOL0     H67463  -1.498   6.358   8.436  1.8779  2.6082  1.9151
  500MOL0     H67464  -1.736   6.890   8.205  0.0979 -1.0291  1.1991
  500MOL0     H67465  -1.968   6.922   8.182 -1.3405 -1.5525  0.0356
  500MOL0     H67466  -2.200   6.741   8.224 -0.4824  2.6691  2.1160
  500MOL0     H67467  -2.210   6.905   8.176 -1.9047  0.2363 -2.4569
  500MOL0     H67468  -2.420   6.828   8.175  0.6991  1.5861 -0.6151
  500MOL0     H67469  -2.379   6.876   8.021  1.3843  0.4091  0.7033
  500MOL0     H67470  -2.400   6.577   8.109 -0.3123 -0.1564 -0.8966
  500MOL0     H67471  -2.370   6.628   7.943  1.0365  0.9259 -0.2002
  500MOL0     H67472  -2.622   6.695   8.099 -0.9747 -2.5416  0.6150
  500MOL0     H67473  -2.570   6.769   7.948  2.4172  1.0319  2.0567
  500MOL0     H67474  -2.604   6.472   8.006 -1.4379 -0.2721 -0.1782
  500MOL0     H67475  -2.584   6.548   7.849  0.9099 -3.8707  0.7298
  500MOL0     H67476  -2.814   6.592   8.029 -1.8362  1.8094 -1.7888
  500MOL0     H67477  -2.788   6.686   7.893  1.1715 -0.4004 -1.1379
  500MOL0     H67478  -2.832   6.387   7.889 -0.6958  0.0603  0.5365
  500MOL0     H67479  -2.795   6.479   7.742 -1.3207 -0.2636  0.3291
  500MOL0     H67480  -3.000   6.607   7.746  1.5011  1.2488  0.0969
  500MOL0     H67481  -3.025   6.560   7.914 -0.2125  1.2554 -0.7027
  500MOL0     H67482  -1.974   6.576   7.919 -0.0881  0.4684 -0.0055
  500MOL0     H67483  -1.750   6.528   7.974  4.5033  0.8181  2.4253
  500MOL0     H67484  -1.358   6.738   8.116 -4.0799 -2.2550 -1.6407
  500MOL0     H67485  -1.131   6.734   8.147  3.4163  0.8215  3.4869
  500MOL0     H67486   0.688   6.911   8.391 -0.7015  1.1552 -0.1433
  500MOL0     H67487   0.845   7.089   8.413 -4.6821 -1.1440 -0.4266
  500MOL0     H67488   1.341   7.105   8.284 -0.7010  0.8525 -0.3244
  500MOL0     H67489   1.565   7.202   8.313  0.3946  2.1061  0.4324
  500MOL0     H67490   1.720   7.394   8.304 -1.0793  1.0248  0.1265
  500MOL0     H67491   1.808   7.475   8.436 -2.4941  0.4387  1.9454
  500MOL0     H67492   1.765   7.171   8.435 -1.5013  1.6483 -0.0083
  500MOL0     H67493   1.848   7.274   8.555  0.1337  0.9627 -0.0730
  500MOL0     H67494   2.037   7.221   8.412 -0.9160 -0.0902  0.4101
  500MOL0     H67495   1.978   7.372   8.338 -0.6003  1.6144  1.2908
  500MOL0     H67496   2.014   7.223   8.153  2.5509  0.2180  2.4232
  500MOL0     H67497   1.832   7.200   8.202  0.3674  0.7940 -0.5554
  500MOL0     H67498   1.983   6.826   8.282  0.9095 -1.1729 -0.2825
  500MOL0     H67499   1.411   7.518   8.562 -0.0263  0.6296 -0.3587
  500MOL0     H67500   1.182   7.421   8.534  1.3042  0.2212  0.4314
  501MOL0     O67501   8.111   8.194   4.651 -0.5527  0.0922  0.4497
  501MOL0     C67502   8.182   8.288   4.690  0.8139 -0.1165 -0.3171
  501MOL0     O67503   8.148   8.419   4.682  0.4694  0.2428 -0.2101
  501MOL0     C67504   8.026   8.454   4.628  1.0355 -0.4120 -0.1477
  501MOL0     C67505   8.002   8.490   4.493 -0.3988 -0.4917  0.3035
  501MOL0     C67506   7.876   8.514   4.456  0.4518 -0.3903  0.4649
  501MOL0     C67507   7.774   8.524   4.544  0.4958 -0.0996  0.4139
  501MOL0     O67508   7.648   8.552   4.488 -0.2037 -0.3907 -0.2898
  501MOL0     C67509   7.556   8.449   4.500 -0.3968  0.5094  0.2307
  501MOL0     C67510   7.415   8.476   4.441 -0.1540 -0.1482 -0.9221
  501MOL0     C67511   7.299   8.387   4.499  0.2665  0.3578  0.8972
  501MOL0     C67512   7.162   8.428   4.429  0.2153  0.0686  0.5091
  501MOL0     C67513   7.047   8.338   4.458 -0.3910  0.2371  0.1755
  501MOL0     C67514   6.933   8.361   4.355 -0.3649 -0.0624 -0.0402
  501MOL0     C67515   6.810   8.282   4.407 -1.0603  0.2547  0.0217
  501MOL0     C67516   6.708   8.262   4.288  0.3199 -0.3837  0.1493
  501MOL0     N67517   6.578   8.219   4.346  0.3889  0.5925  0.1522
  501MOL0     C67518   6.548   8.123   4.440  0.1315 -0.4533  0.1883
  501MOL0     C67519   6.419   8.146   4.478  0.0719 -0.5157 -0.2075
  501MOL0     C67520   6.342   8.060   4.583 -0.5557 -0.2668  0.8043
  501MOL0     C67521   6.278   7.941   4.517  0.4182  1.3598 -0.0286
  501MOL0     C67522   6.201   7.869   4.629 -0.4025 -0.8908  0.1554
  501MOL0     C67523   6.119   7.750   4.594  0.2330 -0.3603 -0.2335
  501MOL0     O67524   6.003   7.816   4.536 -0.1911  0.3118 -0.6401
  501MOL0     C67525   5.885   7.742   4.532  0.1522  0.3439  0.1378
  501MOL0     C67526   5.877   7.598   4.554  1.0577 -0.3797  0.0527
  501MOL0     C67527   5.756   7.535   4.558  0.0727  0.3113  0.2133
  501MOL0     C67528   5.758   7.384   4.582 -0.2461 -0.2448  0.5051
  501MOL0     C67529   5.638   7.602   4.534 -0.2193 -0.0274 -0.3036
  501MOL0     C67530   5.506   7.529   4.522 -0.0086 -0.9028 -1.0760
  501MOL0     O67531   5.399   7.619   4.521  0.0281 -0.5752  0.6221
  501MOL0     C67532   5.270   7.583   4.543 -0.5489  1.0987  0.0452
  501MOL0     C67533   5.171   7.673   4.507  0.5532 -0.0225  0.4009
  501MOL0     C67534   5.034   7.651   4.518 -0.0642  0.3704 -0.1421
  501MOL0     C67535   4.988   7.537   4.591  0.2307  0.0929 -0.5502
  501MOL0     O67536   4.860   7.526   4.608 -0.5504 -0.3018 -0.1153
  501MOL0     C67537   4.804   7.480   4.738 -1.1375  0.4577 -1.0849
  501MOL0     C67538   4.825   7.588   4.852 -0.4413  1.3142 -0.7206
  501MOL0     C67539   4.698   7.668   4.877 -0.9002  0.4231  0.6944
  501MOL0     C67540   4.705   7.772   4.766  0.2708 -1.0564  0.3676
  501MOL0     C67541   4.574   7.834   4.729  0.3089  0.5611 -0.5002
  501MOL0     C67542   4.592   7.977   4.699  0.5412 -0.2638 -0.5066
  501MOL0     C67543   4.449   8.042   4.694 -0.3481 -0.6835 -0.7877
  501MOL0     C67544   4.447   8.182   4.624 -0.2591  0.8156 -0.3845
  501MOL0    Cl67545   4.290   8.272   4.638 -0.3243  0.0937  0.3215
  501MOL0     C67546   5.085   7.434   4.630 -0.6570 -0.4300 -0.2701
  501MOL0     C67547   5.223   7.465   4.613 -0.8962  0.4488  0.1829
  501MOL0     O67548   5.491   7.407   4.507  0.2608 -0.4055 -0.3144
  501MOL0     C67549   5.643   7.740   4.531 -0.7570 -0.8693  0.3707
  501MOL0     C67550   5.760   7.817   4.526 -0.2815 -0.1876  0.8457
  501MOL0     N67551   6.374   8.259   4.409 -0.5620  0.3523  0.2644
  501MOL0     N67552   6.472   8.302   4.336 -0.7103  1.0452  1.1048
  501MOL0     C67553   7.802   8.514   4.681  0.5072 -0.6997  0.9625
  501MOL0     C67554   7.928   8.470   4.727  0.0150 -0.1311  0.6543
  501MOL0     C67555   8.316   8.266   4.737 -0.1863 -0.5822 -0.4840
  501MOL0     C67556   8.401   8.161   4.695 -0.2546  0.9145 -0.2803
  501MOL0     C67557   8.524   8.136   4.747 -0.7915 -0.3198  1.0187
  501MOL0     C67558   8.572   8.215   4.851 -1.0102 -0.1771  0.6383
  501MOL0     O67559   8.696   8.182   4.886 -0.0329  0.4923 -0.1223
  501MOL0     C67560   8.775   8.263   4.965 -0.8243 -0.8365 -0.1185
  501MOL0     C67561   8.880   8.176   5.047  0.2389  0.0134 -0.2028
  501MOL0     C67562   8.815   8.129   5.180 -0.0094 -0.9814  1.2996
  501MOL0     C67563   8.879   7.994   5.219  0.2044 -0.6331  0.6164
  501MOL0     C67564   9.016   8.005   5.252 -0.1915  0.5651 -0.1373
  501MOL0     C67565   9.131   8.003   5.287 -0.0573  0.4316  0.0350
  501MOL0     C67566   8.499   8.326   4.895  0.1753  1.4445 -0.4763
  501MOL0     C67567   8.374   8.349   4.840  0.8490 -0.0561 -0.0740
  501MOL0     H67568   8.068   8.468   4.410  0.7646 -2.8906  1.7376
  501MOL0     H67569   7.862   8.540   4.352  1.6382  2.3196  0.8892
  501MOL0     H67570   7.591   8.358   4.451 -0.8900  0.3198  0.2161
  501MOL0     H67571   7.548   8.419   4.605  1.0484  1.9582  0.7932
  501MOL0     H67572   7.391   8.577   4.474  0.1375 -0.4440  0.2519
  501MOL0     H67573   7.424   8.467   4.332  0.3412  0.7138 -0.9577
  501MOL0     H67574   7.326   8.282   4.482  1.3389  0.6249  0.8910
  501MOL0     H67575   7.290   8.396   4.607  1.3033  2.6081  0.8554
  501MOL0     H67576   7.143   8.534   4.445 -0.5763  0.0142  0.0026
  501MOL0     H67577   7.174   8.421   4.320 -0.5016  0.3820  0.4080
  501MOL0     H67578   7.083   8.236   4.444 -3.0722 -0.3032 -5.4004
  501MOL0     H67579   7.011   8.346   4.561 -3.3084 -1.5149 -0.5993
  501MOL0     H67580   6.915   8.469   4.353  3.1435  0.7631  2.6401
  501MOL0     H67581   6.963   8.312   4.262  1.0119 -2.0561  1.3678
  501MOL0     H67582   6.842   8.182   4.439  0.0874  0.5695 -0.0934
  501MOL0     H67583   6.759   8.333   4.489  0.1461 -1.5747  2.0260
  501MOL0     H67584   6.754   8.192   4.218  1.2793  0.5646 -0.2083
  501MOL0     H67585   6.699   8.361   4.242 -1.4682 -0.8415 -0.5390
  501MOL0     H67586   6.608   8.046   4.488 -0.5405 -0.8875  0.3452
  501MOL0     H67587   6.415   8.026   4.656  0.4079 -3.1564 -1.3388
  501MOL0     H67588   6.281   8.138   4.629  2.2161  1.5722  1.5770
  501MOL0     H67589   6.347   7.870   4.470 -3.8281 -3.4654  0.1457
  501MOL0     H67590   6.207   7.973   4.440 -2.5763  1.0926  2.4116
  501MOL0     H67591   6.133   7.940   4.675 -0.8243 -0.6848 -0.7659
  501MOL0     H67592   6.278   7.837   4.700 -1.2381 -2.6295  0.3301
  501MOL0     H67593   6.098   7.699   4.688  1.3370  0.2444  0.3604
  501MOL0     H67594   6.172   7.685   4.524  1.2654 -1.6772  1.7086
  501MOL0     H67595   5.958   7.528   4.571 -1.2295 -3.0233  0.8098
  501MOL0     H67596   5.675   7.354   4.646 -1.8174 -0.2519 -1.4210
  501MOL0     H67597   5.757   7.330   4.486  0.1044  2.1267 -0.9174
  501MOL0     H67598   5.852   7.358   4.631 -0.3220 -1.1796  0.1785
  501MOL0     H67599   5.203   7.767   4.464 -0.0032  0.3988  0.8938
  501MOL0     H67600   4.956   7.718   4.482  0.0068  0.4286 -0.1874
  501MOL0     H67601   4.698   7.457   4.725 -0.5582 -1.6908 -2.5088
  501MOL0     H67602   4.839   7.380   4.767  0.0818  1.7904  2.6506
  501MOL0     H67603   4.833   7.523   4.940  0.6571 -0.3390 -1.9971
  501MOL0     H67604   4.921   7.638   4.838  0.4914 -0.0107  0.6423
  501MOL0     H67605   4.692   7.716   4.976 -3.5579  0.2838  0.6854
  501MOL0     H67606   4.609   7.605   4.870 -1.0361  0.7723 -1.0810
  501MOL0     H67607   4.760   7.856   4.811 -1.8858  0.3889  0.4542
  501MOL0     H67608   4.766   7.739   4.681  0.3611 -0.6468  0.2687
  501MOL0     H67609   4.507   7.819   4.814  1.9290 -1.4468  0.4953
  501MOL0     H67610   4.528   7.780   4.646  2.3761 -0.2778 -1.1532
  501MOL0     H67611   4.639   8.031   4.782 -1.3813  0.4292  0.1779
  501MOL0     H67612   4.643   7.986   4.602 -0.8832 -3.6741 -1.7262
  501MOL0     H67613   4.406   8.053   4.794 -2.0853  1.3582 -1.6747
  501MOL0     H67614   4.373   7.980   4.646 -3.7517  0.1218  3.0576
  501MOL0     H67615   4.469   8.166   4.518 -0.1190  0.4707 -0.3049
  501MOL0     H67616   4.523   8.244   4.673 -1.4697  1.2180  1.0822
  501MOL0     H67617   5.056   7.342   4.681  0.4739 -1.6714 -1.7779
  501MOL0     H67618   5.296   7.396   4.653  0.6834  1.8588 -0.1596
  501MOL0     H67619   5.552   7.799   4.521 -0.7881 -0.7303  1.3713
  501MOL0     H67620   5.759   7.925   4.521  1.4992 -0.1903 -0.4630
  501MOL0     H67621   7.718   8.533   4.747  1.4533  1.2292  1.6979
  501MOL0     H67622   7.934   8.448   4.833  2.4448 -3.1350  0.0261
  501MOL0     H67623   8.375   8.083   4.624 -1.1441  2.6749 -1.9679
  501MOL0     H67624   8.580   8.049   4.714 -0.6364  0.8623 -2.1858
  501MOL0     H67625   8.826   8.334   4.900 -3.5165 -0.3524 -1.8496
  501MOL0     H67626   8.726   8.334   5.032  0.3204  0.1699 -0.3208
  501MOL0     H67627   8.973   8.232   5.064  0.2367 -0.2276  0.6442
  501MOL0     H67628   8.904   8.090   4.984  2.9356 -0.2392  1.0414
  501MOL0     H67629   8.710   8.106   5.160  0.5036 -1.1970 -1.5774
  501MOL0     H67630   8.822   8.207   5.257 -2.6696  0.7842 -0.0863
  501MOL0     H67631   8.861   7.914   5.147 -3.2301 -1.4241  2.1289
  501MOL0     H67632   8.828   7.964   5.312 -0.0152  0.5490  0.8912
  501MOL0     H67633   9.234   7.984   5.309  0.5850  0.0845 -2.8736
  501MOL0     H67634   8.531   8.396   4.972 -0.8865  0.1649  1.2110
  501MOL0     H67635   8.314   8.430   4.880  1.2588 -0.8618  2.3298
  502MOL0     O67636   0.911   2.429   9.569 -0.9061  0.4195 -0.3708
  502MOL0     C67637   0.970   2.319   9.574 -0.4189  0.1860  0.2186
  502MOL0     O67638   0.911   2.199   9.599  0.6893  0.7758 -0.1496
  502MOL0     C67639   0.776   2.182   9.610 -0.4517  0.0743  0.1086
  502MOL0     C67640   0.746   2.062   9.679 -0.6270 -0.0970 -0.8098
  502MOL0     C67641   0.623   2.020   9.705  0.3197  0.2150  0.2104
  502MOL0     C67642   0.512   2.090   9.652  0.4063  1.1300  0.2243
  502MOL0     O67643   0.392   2.030   9.685  0.0806  0.5610 -0.1002
  502MOL0     C67644   0.272   2.079   9.615 -0.4201 -0.5477  0.2969
  502MOL0     C67645   0.259   1.996   9.492  0.1388  0.2755 -0.1207
  502MOL0     C67646   0.114   1.993   9.434  0.0264  0.3608  0.3754
  502MOL0     C67647   0.133   1.932   9.294  0.0417 -0.3394 -0.4681
  502MOL0     C67648   0.007   1.908   9.216  0.4389  0.1772 -0.1015
  502MOL0     C67649  -0.116   1.859   9.297  0.0365  0.2236  0.0460
  502MOL0     C67650  -0.250   1.895   9.230  0.0487 -0.2205 -0.6572
  502MOL0     C67651  -0.301   1.792   9.127 -0.8779 -0.1098  0.3382
  502MOL0     N67652  -0.437   1.815   9.092  0.8339 -0.1430 -1.0553
  502MOL0     C67653  -0.546   1.810   9.175 -0.5748  0.1449 -0.2529
  502MOL0     C67654  -0.654   1.793   9.101 -0.0087 -0.8085 -0.3708
  502MOL0     C67655  -0.793   1.764   9.154  0.5013 -0.0595 -0.5160
  502MOL0     C67656  -0.819   1.622   9.120 -0.0518 -0.6708  0.1417
  502MOL0     C67657  -0.942   1.575   9.196  0.0694  0.2171 -0.4710
  502MOL0     C67658  -0.991   1.440   9.144 -0.1245 -0.4703 -0.5243
  502MOL0     O67659  -1.100   1.403   9.234  0.4088 -0.5098 -0.3562
  502MOL0     C67660  -1.199   1.324   9.188  0.0286 -0.9006 -0.2336
  502MOL0     C67661  -1.191   1.216   9.098 -0.3225  0.8996 -0.0409
  502MOL0     C67662  -1.293   1.142   9.051  0.0216  0.1444  0.5454
  502MOL0     C67663  -1.266   1.021   8.964  0.6423  1.2249 -0.2762
  502MOL0     C67664  -1.424   1.173   9.078  0.4391 -0.7176  0.3414
  502MOL0     C67665  -1.549   1.124   9.009  0.4878  0.7086  0.5761
  502MOL0     O67666  -1.662   1.147   9.076 -0.3420  0.0740  0.6934
  502MOL0     C67667  -1.782   1.090   9.060  0.1670  0.3146 -0.2611
  502MOL0     C67668  -1.887   1.169   9.099 -0.4356 -0.0348 -0.0897
  502MOL0     C67669  -2.022   1.131   9.076  0.8124 -0.1060 -0.0480
  502MOL0     C67670  -2.048   1.010   9.015 -0.3515 -0.0139 -0.1774
  502MOL0     O67671  -2.180   0.990   9.001 -0.1216  0.2087  0.7860
  502MOL0     C67672  -2.219   0.887   8.905  0.2337 -0.5570 -0.3301
  502MOL0     C67673  -2.369   0.923   8.864 -0.9792  0.1704  0.0368
  502MOL0     C67674  -2.471   0.927   8.978 -0.5685  0.2869  0.0908
  502MOL0     C67675  -2.604   0.992   8.931 -0.1217  0.0258  0.7923
  502MOL0     C67676  -2.719   0.955   9.032  0.4485 -0.3978 -0.0988
  502MOL0     C67677  -2.862   0.999   8.991 -0.6244  0.7541  0.0948
  502MOL0     C67678  -2.967   0.958   9.092 -0.2763 -0.0519 -0.4351
  502MOL0     C67679  -3.107   1.002   9.044 -0.6311 -0.0968 -0.7519
  502MOL0    Cl67680  -3.235   0.913   9.136  0.2047 -0.2312 -0.0140
  502MOL0     C67681  -1.946   0.928   8.978 -0.4922 -0.0681  0.5234
  502MOL0     C67682  -1.815   0.968   8.999 -0.8366 -0.5407 -0.2354
  502MOL0     O67683  -1.544   1.054   8.906 -0.1213  0.4297 -0.6821
  502MOL0     C67684  -1.439   1.277   9.176  0.0850 -0.5911 -0.3649
  502MOL0     C67685  -1.327   1.353   9.227 -0.2531 -0.1245  0.4056
  502MOL0     N67686  -0.607   1.800   8.970  0.2071 -0.4688  0.2429
  502MOL0     N67687  -0.478   1.801   8.966  0.2795 -0.6267 -0.3429
  502MOL0     C67688   0.529   2.215   9.591  0.0578 -0.2332 -0.5204
  502MOL0     C67689   0.663   2.262   9.562  0.2237 -0.2925 -1.3978
  502MOL0     C67690   1.123   2.320   9.564  0.7249  0.4175 -0.8461
  502MOL0     C67691   1.186   2.425   9.492  0.3884 -0.0222 -0.4693
  502MOL0     C67692   1.322   2.423   9.471  0.1157 -0.3501 -0.2343
  502MOL0     C67693   1.402   2.321   9.518  0.3391 -0.5526  0.6533
  502MOL0     O67694   1.540   2.326   9.509  0.2355  0.9613  0.8067
  502MOL0     C67695   1.612   2.205   9.468 -0.3366  0.0660 -0.0321
  502MOL0     C67696   1.746   2.248   9.399  0.2764 -0.6825 -0.5218
  502MOL0     C67697   1.725   2.368   9.298 -0.8287  0.3949  0.1066
  502MOL0     C67698   1.860   2.409   9.235 -0.7512 -0.0920  0.7676
  502MOL0     C67699   1.953   2.467   9.332 -0.3773 -0.1936  0.0430
  502MOL0     C67700   2.034   2.510   9.417 -0.5583 -0.3176 -0.0892
  502MOL0     C67701   1.341   2.228   9.595 -0.1317  1.0909  0.0843
  502MOL0     C67702   1.195   2.215   9.610 -0.5303 -0.3095 -0.4278
  502MOL0     H67703   0.819   1.998   9.725 -1.9843 -0.3059  1.1903
  502MOL0     H67704   0.598   1.923   9.748  0.8830  0.1646  0.4205
  502MOL0     H67705   0.177   2.057   9.664 -2.2907 -0.1150 -2.8626
  502MOL0     H67706   0.267   2.185   9.587  1.6182 -0.9603 -1.9620
  502MOL0     H67707   0.333   2.031   9.420 -0.1060  1.8556  0.3621
  502MOL0     H67708   0.278   1.891   9.516 -0.5722  0.0614 -0.4498
  502MOL0     H67709   0.055   1.924   9.495 -1.6557  1.5553  0.1798
  502MOL0     H67710   0.066   2.092   9.435  2.8334  1.8473  2.4151
  502MOL0     H67711   0.209   1.978   9.231  1.8133 -4.1463 -1.4512
  502MOL0     H67712   0.191   1.839   9.302  0.3671 -0.3988 -2.7844
  502MOL0     H67713  -0.032   2.006   9.184 -0.3258 -0.4443 -1.1528
  502MOL0     H67714   0.028   1.843   9.131 -0.8855 -1.0862  0.5014
  502MOL0     H67715  -0.101   1.751   9.312  1.3190  0.4036  0.0830
  502MOL0     H67716  -0.123   1.905   9.396  2.1957  0.0403  0.3121
  502MOL0     H67717  -0.325   1.899   9.309  0.7604 -0.7065  0.0561
  502MOL0     H67718  -0.246   1.992   9.181 -0.4924 -0.4980 -1.2669
  502MOL0     H67719  -0.294   1.690   9.164 -4.5517 -0.5871  0.0427
  502MOL0     H67720  -0.245   1.791   9.033 -0.0527 -0.9103  0.8197
  502MOL0     H67721  -0.549   1.783   9.280 -1.1281 -0.8483 -0.5143
  502MOL0     H67722  -0.805   1.780   9.262 -3.3874 -1.6228 -0.5354
  502MOL0     H67723  -0.863   1.834   9.107  0.7759 -0.2959 -1.2979
  502MOL0     H67724  -0.725   1.572   9.144  0.5991 -0.2499 -1.4230
  502MOL0     H67725  -0.829   1.617   9.011  1.1020 -1.7502  0.0618
  502MOL0     H67726  -1.014   1.657   9.195  1.5182  1.5518  0.3748
  502MOL0     H67727  -0.933   1.563   9.304 -5.1154 -1.2675  0.0600
  502MOL0     H67728  -0.906   1.371   9.146 -0.0223 -0.3413 -0.1324
  502MOL0     H67729  -1.027   1.466   9.044  1.2637  2.0366 -0.4806
  502MOL0     H67730  -1.091   1.183   9.071 -0.9282 -2.0764  0.9051
  502MOL0     H67731  -1.306   1.026   8.863 -0.3582  1.3690  0.1144
  502MOL0     H67732  -1.160   0.999   8.951  0.3693 -0.0036 -0.5477
  502MOL0     H67733  -1.315   0.936   9.013  2.1746 -0.4750 -1.5633
  502MOL0     H67734  -1.853   1.260   9.146 -1.2642 -0.5683  1.6327
  502MOL0     H67735  -2.104   1.199   9.097  0.4079 -1.0153  1.5054
  502MOL0     H67736  -2.157   0.877   8.815  2.7442 -0.5038  1.3123
  502MOL0     H67737  -2.220   0.795   8.964  2.3359 -0.5842 -0.2805
  502MOL0     H67738  -2.357   1.012   8.802 -0.8893 -0.5682 -1.0391
  502MOL0     H67739  -2.402   0.860   8.781  1.0213  0.1401 -0.7855
  502MOL0     H67740  -2.440   0.984   9.066 -2.0309 -0.5026  1.1779
  502MOL0     H67741  -2.491   0.824   9.009  0.4724 -0.0985 -0.4837
  502MOL0     H67742  -2.589   1.100   8.922 -0.2896  0.1808  2.1570
  502MOL0     H67743  -2.628   0.963   8.828  0.3734  0.4265  0.5599
  502MOL0     H67744  -2.692   1.004   9.126  0.1393  0.8741 -0.6426
  502MOL0     H67745  -2.724   0.847   9.045  0.6743 -0.6712 -1.9980
  502MOL0     H67746  -2.850   1.104   8.961 -0.8732  0.3219 -1.6530
  502MOL0     H67747  -2.886   0.938   8.903 -0.0269 -1.0639  1.1586
  502MOL0     H67748  -2.944   0.994   9.192 -1.3109 -1.7122  0.4502
  502MOL0     H67749  -2.965   0.848   9.091  1.7758 -0.0497 -1.0634
  502MOL0     H67750  -3.130   0.983   8.939 -1.0850  0.7939 -0.8258
  502MOL0     H67751  -3.128   1.109   9.051 -0.4521 -0.0857 -0.3366
  502MOL0     H67752  -1.965   0.835   8.926  0.5216  0.1227 -0.2371
  502MOL0     H67753  -1.729   0.913   8.963  0.1075  0.1451  0.9278
  502MOL0     H67754  -1.536   1.318   9.200 -0.1550 -0.9493 -0.7170
  502MOL0     H67755  -1.351   1.443   9.282 -4.0177  0.3816 -1.7783
  502MOL0     H67756   0.440   2.258   9.546 -0.7731  1.5299  2.5014
  502MOL0     H67757   0.675   2.341   9.488  4.1083  1.1313  0.4522
  502MOL0     H67758   1.120   2.507   9.467 -1.1851 -1.0552  0.1177
  502MOL0     H67759   1.375   2.499   9.415 -0.4918 -0.0207 -0.3574
  502MOL0     H67760   1.620   2.144   9.558 -5.0722  1.6543  1.8238
  502MOL0     H67761   1.554   2.152   9.392  0.9185  0.1828 -1.0909
  502MOL0     H67762   1.779   2.161   9.341  0.8654  1.9249 -4.4819
  502MOL0     H67763   1.814   2.278   9.479 -0.8888 -1.8904  0.9807
  502MOL0     H67764   1.694   2.462   9.346  5.1572  3.0734 -0.3590
  502MOL0     H67765   1.664   2.334   9.214 -2.6078  0.8037  1.1840
  502MOL0     H67766   1.853   2.486   9.158  0.0401 -1.9320 -1.2670
  502MOL0     H67767   1.910   2.330   9.178  1.1259  1.3674  0.2795
  502MOL0     H67768   2.106   2.546   9.488 -0.1874  2.5915 -1.7755
  502MOL0     H67769   1.408   2.149   9.629 -1.0307  1.0542  1.8906
  502MOL0     H67770   1.140   2.136   9.659 -1.0857 -1.2454 -2.4363
  503MOL0     O67771   0.779   3.272   2.634  0.5872 -0.4456  0.8737
  503MOL0     C67772   0.770   3.381   2.684  0.1188  0.3665  0.6348
  503MOL0     O67773   0.657   3.454   2.693  0.1092 -0.5439  0.0230
  503MOL0     C67774   0.538   3.415   2.641 -0.1554  0.5492 -0.2241
  503MOL0     C67775   0.429   3.387   2.718 -0.1299  0.4025 -0.7852
  503MOL0     C67776   0.303   3.366   2.669 -0.6191 -0.5885  0.2567
  503MOL0     C67777   0.287   3.363   2.537  0.1172  0.9041  0.2921
  503MOL0     O67778   0.172   3.346   2.466  0.2061 -0.2698 -0.1522
  503MOL0     C67779   0.054   3.348   2.555 -0.3581 -0.7137 -0.7253
  503MOL0     C67780  -0.055   3.302   2.456 -0.4037 -0.3601 -0.0379
  503MOL0     C67781  -0.197   3.331   2.509 -0.5014  0.6071 -1.0069
  503MOL0     C67782  -0.293   3.266   2.411 -0.0929  0.1629  0.3591
  503MOL0     C67783  -0.436   3.300   2.450  0.3953 -0.2382 -0.6228
  503MOL0     C67784  -0.492   3.208   2.559  0.3438  0.0986 -0.4996
  503MOL0     C67785  -0.647   3.233   2.579  0.5949  0.7641  0.0443
  503MOL0     C67786  -0.669   3.382   2.620  0.0878 -0.1226  0.0441
  503MOL0     N67787  -0.810   3.420   2.647  0.4321 -0.6075  0.6954
  503MOL0     C67788  -0.893   3.366   2.738  0.7857 -0.3730  0.6330
  503MOL0     C67789  -1.006   3.434   2.727  1.0659  0.7054  0.4549
  503MOL0     C67790  -1.124   3.393   2.816  0.1541 -0.5855 -0.1148
  503MOL0     C67791  -1.245   3.352   2.732  0.6166  0.0231  0.8964
  503MOL0     C67792  -1.363   3.310   2.828  0.1572 -0.5091 -0.5232
  503MOL0     C67793  -1.484   3.250   2.748  0.2114  0.2656 -0.4847
  503MOL0     O67794  -1.591   3.203   2.844 -0.9418  0.2358 -0.0119
  503MOL0     C67795  -1.703   3.135   2.792  0.2657 -0.4460  0.3170
  503MOL0     C67796  -1.781   3.077   2.890  0.3274 -0.2601  0.1622
  503MOL0     C67797  -1.889   2.995   2.858 -0.3699  0.8190 -0.4689
  503MOL0     C67798  -1.946   2.929   2.981  0.4721 -0.2343  0.0654
  503MOL0     C67799  -1.926   2.973   2.724 -0.0993 -0.6706  0.8121
  503MOL0     C67800  -2.031   2.888   2.672  0.9552  0.2193  0.0993
  503MOL0     O67801  -2.058   2.866   2.537  0.1758 -0.0359  0.3525
  503MOL0     C67802  -2.174   2.794   2.505  0.7350  0.2305  0.3785
  503MOL0     C67803  -2.175   2.656   2.474 -0.0234 -0.4710 -0.2655
  503MOL0     C67804  -2.299   2.590   2.454  0.6908 -0.0032  0.5258
  503MOL0     C67805  -2.420   2.654   2.462  0.1760 -0.5200 -0.4406
  503MOL0     O67806  -2.537   2.587   2.440 -0.1679 -0.2586  0.4283
  503MOL0     C67807  -2.661   2.653   2.440 -0.5449  0.8425 -1.1429
  503MOL0     C67808  -2.763   2.555   2.379  0.3235  1.3368 -0.2235
  503MOL0     C67809  -2.808   2.430   2.464 -0.4313 -0.0728  0.8974
  503MOL0     C67810  -2.705   2.317   2.440  0.0226  0.0094 -0.8498
  503MOL0     C67811  -2.756   2.188   2.513 -0.2508 -0.7484 -0.4242
  503MOL0     C67812  -2.665   2.059   2.490 -0.1324  0.4264  0.3976
  503MOL0     C67813  -2.520   2.113   2.514 -0.2032  0.7033  0.0566
  503MOL0     C67814  -2.429   2.008   2.561  0.4262  1.0688  0.1473
  503MOL0    Cl67815  -2.433   1.872   2.440  0.2340  0.3660  0.4877
  503MOL0     C67816  -2.411   2.792   2.480  0.6713 -0.0988  0.3329
  503MOL0     C67817  -2.297   2.858   2.511 -0.3771 -0.1603 -0.3187
  503MOL0     O67818  -2.110   2.853   2.757  0.2027 -0.6734 -0.1357
  503MOL0     C67819  -1.839   3.036   2.622  0.1992  0.3685  0.3731
  503MOL0     C67820  -1.727   3.109   2.658 -0.1649  0.2993  0.2678
  503MOL0     N67821  -0.993   3.529   2.623 -0.1498  0.8467  0.5442
  503MOL0     N67822  -0.876   3.531   2.583  0.3452  0.0849  0.4156
  503MOL0     C67823   0.396   3.374   2.448 -0.1099  0.4583  0.1194
  503MOL0     C67824   0.528   3.394   2.502  0.3426  0.1022 -1.1126
  503MOL0     C67825   0.886   3.436   2.761  0.2637  0.2501  0.5632
  503MOL0     C67826   0.996   3.353   2.790 -0.6855 -0.3057  0.0450
  503MOL0     C67827   1.106   3.414   2.859 -0.4724  0.1644 -0.1423
  503MOL0     C67828   1.103   3.542   2.901  0.3152 -0.6070 -0.0758
  503MOL0     O67829   1.194   3.609   2.974 -0.0744  0.2681 -0.5790
  503MOL0     C67830   1.326   3.562   3.002 -0.1770  0.0022  0.3315
  503MOL0     C67831   1.427   3.685   3.005  1.4596 -0.0017  0.0695
  503MOL0     C67832   1.504   3.697   2.877 -0.6195 -0.5990  0.1458
  503MOL0     C67833   1.570   3.839   2.871  0.3999  0.6779 -0.0204
  503MOL0     C67834   1.629   3.874   3.003 -0.0590  0.6208 -0.6882
  503MOL0     C67835   1.696   3.896   3.099  0.3292  0.1459 -0.4435
  503MOL0     C67836   0.988   3.624   2.873  0.1715  0.7230  0.0250
  503MOL0     C67837   0.876   3.570   2.801 -0.2486  0.2427 -0.0829
  503MOL0     H67838   0.440   3.403   2.824 -0.7319  1.6544 -0.8904
  503MOL0     H67839   0.224   3.343   2.739 -0.2171  1.8552  1.6262
  503MOL0     H67840   0.060   3.291   2.648  1.6400 -0.0035 -0.3551
  503MOL0     H67841   0.030   3.451   2.586 -1.0640 -1.2584  0.6320
  503MOL0     H67842  -0.027   3.337   2.357 -0.0312 -3.5172 -1.1497
  503MOL0     H67843  -0.053   3.193   2.442  0.3604 -0.1162 -2.1263
  503MOL0     H67844  -0.195   3.295   2.612 -0.1316  0.1010 -1.1846
  503MOL0     H67845  -0.215   3.439   2.516  0.8181  0.8337 -0.8219
  503MOL0     H67846  -0.273   3.302   2.310  2.4391  0.5281  0.9255
  503MOL0     H67847  -0.291   3.157   2.401  1.4978  0.3074 -1.4354
  503MOL0     H67848  -0.431   3.400   2.494  1.7060 -1.5042  2.4310
  503MOL0     H67849  -0.505   3.302   2.366 -0.7859 -0.1709  0.3128
  503MOL0     H67850  -0.487   3.104   2.528 -2.9251 -0.0190 -0.9973
  503MOL0     H67851  -0.430   3.214   2.649  0.5653  0.3334 -0.6645
  503MOL0     H67852  -0.693   3.226   2.480  1.7384 -0.4722 -0.4239
  503MOL0     H67853  -0.702   3.161   2.640 -2.8563  3.8747  1.0042
  503MOL0     H67854  -0.639   3.441   2.533 -0.0266  0.7885  0.6096
  503MOL0     H67855  -0.607   3.416   2.704  0.6619  2.5648 -1.3613
  503MOL0     H67856  -0.874   3.296   2.819  1.4225 -0.4251  0.4438
  503MOL0     H67857  -1.088   3.309   2.877  2.5800  0.2165 -0.3319
  503MOL0     H67858  -1.151   3.473   2.886 -0.0915  0.8436 -1.7830
  503MOL0     H67859  -1.204   3.277   2.663  1.0541  0.7128  0.3926
  503MOL0     H67860  -1.276   3.435   2.668 -0.9136 -1.2864 -0.1556
  503MOL0     H67861  -1.395   3.399   2.881 -4.5541 -3.1353  1.7281
  503MOL0     H67862  -1.330   3.241   2.906  1.1442  2.5879  2.0066
  503MOL0     H67863  -1.439   3.173   2.685 -3.1989 -2.3143 -0.1012
  503MOL0     H67864  -1.538   3.317   2.680  0.6118  0.4651 -0.6091
  503MOL0     H67865  -1.740   3.089   2.989 -2.9440  2.4229  1.3909
  503MOL0     H67866  -2.055   2.942   2.982  0.5929  1.1987  2.6250
  503MOL0     H67867  -1.920   2.823   2.974  0.4038 -0.1242 -2.9632
  503MOL0     H67868  -1.916   2.974   3.076  0.3056 -0.0056  0.0088
  503MOL0     H67869  -2.083   2.597   2.469  0.4089  0.3058 -2.0102
  503MOL0     H67870  -2.292   2.486   2.424  1.5563  0.2966 -0.3344
  503MOL0     H67871  -2.695   2.689   2.537  0.3818  3.3942 -1.6614
  503MOL0     H67872  -2.652   2.740   2.374  1.9528  0.7786 -0.9761
  503MOL0     H67873  -2.855   2.614   2.380  0.9764  2.3841 -0.3043
  503MOL0     H67874  -2.731   2.523   2.279 -0.4026 -1.7259  0.4097
  503MOL0     H67875  -2.908   2.398   2.432 -0.6699  2.1436 -0.8152
  503MOL0     H67876  -2.820   2.448   2.572  1.3171 -2.0552  1.4933
  503MOL0     H67877  -2.695   2.284   2.336  0.5969 -2.5755 -0.0456
  503MOL0     H67878  -2.609   2.344   2.484  0.1999 -0.6143 -0.8392
  503MOL0     H67879  -2.858   2.172   2.475 -0.1844  0.7927 -1.3386
  503MOL0     H67880  -2.761   2.203   2.621 -0.5914 -1.4763 -0.3362
  503MOL0     H67881  -2.700   1.994   2.571  2.1458  2.2875  3.0722
  503MOL0     H67882  -2.664   2.005   2.395 -0.0416 -1.3706  1.3740
  503MOL0     H67883  -2.519   2.180   2.601  0.8985 -1.2494  1.6508
  503MOL0     H67884  -2.481   2.147   2.418 -0.6801 -4.0557 -2.0585
  503MOL0     H67885  -2.458   1.966   2.658  0.6219 -0.6076 -0.4932
  503MOL0     H67886  -2.325   2.040   2.561  0.2512  1.7265 -1.4931
  503MOL0     H67887  -2.496   2.859   2.474  2.0042  1.8648  1.8660
  503MOL0     H67888  -2.302   2.965   2.529  4.3505  0.7468 -2.8637
  503MOL0     H67889  -1.856   3.010   2.518  2.5766 -0.4882  0.1325
  503MOL0     H67890  -1.678   3.153   2.572  1.2311  0.6398  1.1868
  503MOL0     H67891   0.374   3.389   2.343  1.6677  2.5720 -0.0134
  503MOL0     H67892   0.611   3.395   2.432  0.3282 -0.9893 -1.1631
  503MOL0     H67893   0.998   3.247   2.770 -1.5191 -0.6018  1.4005
  503MOL0     H67894   1.193   3.356   2.886 -0.2210  0.1617 -0.9209
  503MOL0     H67895   1.312   3.508   3.096  0.9507  0.0083  0.5208
  503MOL0     H67896   1.347   3.479   2.935 -0.5388  0.9461 -0.9910
  503MOL0     H67897   1.489   3.670   3.094 -0.7842  0.4021  1.7661
  503MOL0     H67898   1.368   3.772   3.035  1.5230 -0.8872  3.0987
  503MOL0     H67899   1.443   3.672   2.789 -1.1614 -1.2853  0.7023
  503MOL0     H67900   1.591   3.630   2.877  1.8412  2.3641  2.2743
  503MOL0     H67901   1.503   3.917   2.835  1.2483  0.3311 -2.5796
  503MOL0     H67902   1.649   3.834   2.796  1.7272 -1.7428  1.3941
  503MOL0     H67903   1.765   3.911   3.179  0.5848  0.8272 -0.7833
  503MOL0     H67904   0.982   3.728   2.903 -1.1369  1.3856 -2.3005
  503MOL0     H67905   0.788   3.630   2.778  0.4338  1.7397  1.0549
  504MOL0     O67906   0.247  10.052   8.471 -0.4628  0.2851  0.6667
  504MOL0     C67907   0.335   9.980   8.520  0.1323 -0.4918  0.5796
  504MOL0     O67908   0.313   9.862   8.579 -0.2078 -0.6839  0.7029
  504MOL0     C67909   0.185   9.805   8.564 -0.9241 -0.1392 -1.1673
  504MOL0     C67910   0.148   9.735   8.452  0.5612 -0.0332 -0.1187
  504MOL0     C67911   0.015   9.676   8.448  0.0639 -0.7591 -0.0475
  504MOL0     C67912  -0.073   9.696   8.554  0.0032 -0.0733 -0.1313
  504MOL0     O67913  -0.196   9.649   8.547 -0.4794 -0.5776  0.6580
  504MOL0     C67914  -0.293   9.744   8.508 -0.2492 -0.2665 -0.2806
  504MOL0     C67915  -0.429   9.670   8.527 -0.1921  0.8630  0.1201
  504MOL0     C67916  -0.557   9.747   8.499  0.3473 -0.7303  0.0728
  504MOL0     C67917  -0.577   9.889   8.563  0.6010 -0.3642 -0.0444
  504MOL0     C67918  -0.721   9.937   8.527  0.6984  0.0916  0.4371
  504MOL0     C67919  -0.835   9.895   8.624 -0.8411 -0.1529  1.0155
  504MOL0     C67920  -0.951   9.986   8.600  0.0122 -0.0109 -0.4159
  504MOL0     C67921  -1.020   9.986   8.464 -0.0654 -0.1806 -0.1442
  504MOL0     N67922  -1.092   9.862   8.461 -0.1661  0.8237  0.1766
  504MOL0     C67923  -1.057   9.752   8.375  0.1064 -0.0210 -0.1635
  504MOL0     C67924  -1.152   9.661   8.394 -0.1345 -0.0616 -0.7273
  504MOL0     C67925  -1.158   9.523   8.335 -0.3709 -0.1670 -0.4090
  504MOL0     C67926  -1.299   9.487   8.296  0.4627 -0.1337 -0.3221
  504MOL0     C67927  -1.346   9.560   8.163  0.3490  0.3536  0.2308
  504MOL0     C67928  -1.474   9.491   8.108 -0.0100 -1.2445 -0.0535
  504MOL0     O67929  -1.445   9.369   8.049  0.9880 -0.2554  0.0536
  504MOL0     C67930  -1.556   9.294   7.996  0.1588  0.5779 -0.3752
  504MOL0     C67931  -1.685   9.348   7.976 -0.1337  0.4793 -0.5643
  504MOL0     C67932  -1.795   9.262   7.932 -0.0547 -0.2939 -0.3247
  504MOL0     C67933  -1.926   9.327   7.928  0.2134 -0.3626  0.1159
  504MOL0     C67934  -1.768   9.130   7.894  0.2720  0.0546 -0.2711
  504MOL0     C67935  -1.876   9.041   7.821 -0.0953 -0.4701 -0.0615
  504MOL0     O67936  -1.984   9.105   7.783 -0.0986 -0.4258 -0.0244
  504MOL0     C67937  -2.078   9.057   7.693 -0.3989  1.2973 -0.1741
  504MOL0     C67938  -2.190   9.140   7.707  0.4315  0.0912  0.3801
  504MOL0     C67939  -2.300   9.113   7.633 -0.0697  0.5465 -0.2560
  504MOL0     C67940  -2.304   9.014   7.539  0.9464 -0.4744  1.1038
  504MOL0     O67941  -2.422   8.999   7.472  0.6455  0.7330 -0.3780
  504MOL0     C67942  -2.414   8.907   7.353  0.3927  0.0868 -0.7169
  504MOL0     C67943  -2.546   8.896   7.280 -0.4572 -0.9367  0.2490
  504MOL0     C67944  -2.660   8.811   7.341  0.4436  0.2423 -0.7863
  504MOL0     C67945  -2.762   8.778   7.232 -0.4053 -0.2057 -0.5874
  504MOL0     C67946  -2.907   8.808   7.267  0.1556  0.3711 -0.7197
  504MOL0     C67947  -2.937   8.958   7.274  0.4201  0.4589 -1.1182
  504MOL0     C67948  -3.085   8.983   7.299  0.5960 -0.3901 -0.8083
  504MOL0     C67949  -3.115   9.115   7.373  1.1414  1.2626 -0.1736
  504MOL0    Cl67950  -3.057   9.265   7.276 -0.1297  0.7510 -0.3386
  504MOL0     C67951  -2.187   8.934   7.524  0.1008 -0.5959  0.0359
  504MOL0     C67952  -2.077   8.957   7.609  0.0931  1.1952  0.3800
  504MOL0     O67953  -1.860   8.917   7.805  0.7197 -0.2696 -0.4760
  504MOL0     C67954  -1.638   9.082   7.924 -0.0506  0.7053  0.5183
  504MOL0     C67955  -1.532   9.159   7.969  0.0395  0.5247 -0.2743
  504MOL0     N67956  -1.245   9.708   8.481 -1.2035 -0.1141 -0.2071
  504MOL0     N67957  -1.206   9.822   8.532 -0.1422  0.5096 -0.8134
  504MOL0     C67958  -0.028   9.764   8.673  0.1642 -0.5557  0.9349
  504MOL0     C67959   0.104   9.815   8.675  0.3511 -0.2342  0.7911
  504MOL0     C67960   0.474  10.030   8.516  0.3278 -1.0298 -0.4369
  504MOL0     C67961   0.576   9.948   8.577  0.2401 -0.1455  0.4891
  504MOL0     C67962   0.710   9.976   8.572 -0.3266  1.0703  0.0809
  504MOL0     C67963   0.747  10.089   8.504 -0.7746  0.4213  0.2991
  504MOL0     O67964   0.871  10.138   8.476 -0.7072 -0.3376  0.4707
  504MOL0     C67965   0.983  10.075   8.535 -0.2923  0.1695  0.1406
  504MOL0     C67966   1.114  10.131   8.477 -0.1929 -0.4534  0.2305
  504MOL0     C67967   1.234  10.095   8.565 -0.2987  0.5769 -0.1829
  504MOL0     C67968   1.271  10.211   8.665  0.1845  0.9020 -0.4389
  504MOL0     C67969   1.404  10.186   8.724 -0.4909  0.1323  0.2026
  504MOL0     C67970   1.505  10.184   8.791  0.2150  0.3073  0.0875
  504MOL0     C67971   0.652  10.165   8.433 -0.6895 -0.0463  0.2343
  504MOL0     C67972   0.515  10.141   8.435 -0.5100  1.0020  0.6067
  504MOL0     H67973   0.223   9.719   8.375  1.7564 -2.3094  1.4029
  504MOL0     H67974  -0.021   9.623   8.361  0.0417  3.6351 -3.0545
  504MOL0     H67975  -0.300   9.837   8.566  0.7946  0.0935 -0.6961
  504MOL0     H67976  -0.267   9.769   8.405  1.7839 -1.9797 -0.2575
  504MOL0     H67977  -0.425   9.588   8.455  1.0984 -0.0752  1.2016
  504MOL0     H67978  -0.440   9.635   8.630 -2.4843  0.3742 -0.2447
  504MOL0     H67979  -0.562   9.759   8.390  0.0166  2.4140  0.3502
  504MOL0     H67980  -0.643   9.683   8.519  0.0869 -0.5377 -0.3927
  504MOL0     H67981  -0.561   9.869   8.670  2.1328  0.3766 -0.1151
  504MOL0     H67982  -0.498   9.956   8.530  0.8589  0.2454  1.6747
  504MOL0     H67983  -0.724  10.046   8.516  0.7317  0.1719  1.1681
  504MOL0     H67984  -0.753   9.902   8.428  0.1185  0.4090  0.5083
  504MOL0     H67985  -0.861   9.791   8.604 -0.3700 -0.3160  1.2368
  504MOL0     H67986  -0.801   9.915   8.726  0.7158 -0.3620  0.5567
  504MOL0     H67987  -1.031   9.954   8.668 -0.3454 -1.9146 -1.6382
  504MOL0     H67988  -0.916  10.085   8.632  2.3028 -1.4913  2.0121
  504MOL0     H67989  -0.952   9.990   8.378 -1.8617  2.5894 -1.6121
  504MOL0     H67990  -1.088  10.072   8.462  1.6441  1.3439  2.1292
  504MOL0     H67991  -0.975   9.750   8.303  1.0818  0.7529  0.8948
  504MOL0     H67992  -1.091   9.517   8.248  0.1500  1.0703 -0.1216
  504MOL0     H67993  -1.126   9.451   8.411 -0.0462 -0.0193 -0.4040
  504MOL0     H67994  -1.363   9.519   8.379  1.8798  0.6539  0.5051
  504MOL0     H67995  -1.310   9.379   8.279 -0.6914 -0.2506  0.9937
  504MOL0     H67996  -1.262   9.549   8.095  0.7423 -0.0346  0.7709
  504MOL0     H67997  -1.363   9.666   8.185 -0.2912  0.5824 -1.2881
  504MOL0     H67998  -1.532   9.563   8.048 -0.3535 -0.9771  0.5881
  504MOL0     H67999  -1.546   9.473   8.188 -0.0426  2.1587  0.8452
  504MOL0     H68000  -1.711   9.447   8.012  0.6697 -0.3863  2.8107
  504MOL0     H68001  -1.956   9.360   7.828 -1.2103 -1.8785 -0.0058
  504MOL0     H68002  -2.003   9.257   7.963 -0.0517  0.5683  1.4745
  504MOL0     H68003  -1.924   9.415   7.992 -1.3952  0.3926 -0.7974
  504MOL0     H68004  -2.188   9.237   7.756  2.8246  0.5992 -0.5863
  504MOL0     H68005  -2.393   9.163   7.655 -0.6430 -0.5494 -0.1202
  504MOL0     H68006  -2.349   8.957   7.280 -0.0490  0.1288 -1.0845
  504MOL0     H68007  -2.372   8.808   7.376  0.4002  0.6504  1.9578
  504MOL0     H68008  -2.577   9.001   7.268 -1.4595 -1.2929 -0.4003
  504MOL0     H68009  -2.523   8.856   7.181 -0.9374 -2.0500  0.5749
  504MOL0     H68010  -2.707   8.854   7.430 -0.8361 -3.8728  0.7459
  504MOL0     H68011  -2.620   8.721   7.389 -0.2375 -0.4614 -1.4994
  504MOL0     H68012  -2.741   8.812   7.130  0.9349 -1.3585 -0.7210
  504MOL0     H68013  -2.745   8.670   7.224 -1.6205 -0.3051 -2.5923
  504MOL0     H68014  -2.928   8.769   7.367  0.5726 -0.5905 -0.9975
  504MOL0     H68015  -2.975   8.760   7.195 -0.2131  0.3554 -0.3643
  504MOL0     H68016  -2.881   9.001   7.358 -0.4451 -1.0370  0.2830
  504MOL0     H68017  -2.900   9.001   7.181  2.6869  0.7711 -0.1294
  504MOL0     H68018  -3.134   8.899   7.348  3.5825 -1.1635  1.1122
  504MOL0     H68019  -3.135   8.997   7.202  0.5142 -0.7438 -0.8177
  504MOL0     H68020  -3.067   9.126   7.470  0.5882 -0.7931  0.3741
  504MOL0     H68021  -3.223   9.129   7.379  0.8614  0.5942 -2.5436
  504MOL0     H68022  -2.183   8.865   7.440  0.7518  2.5997 -2.7403
  504MOL0     H68023  -1.988   8.896   7.598  0.6396  1.5040  2.6529
  504MOL0     H68024  -1.626   8.976   7.906 -0.1611  0.6768  0.6133
  504MOL0     H68025  -1.427   9.134   7.970  0.5108  2.3832  0.5405
  504MOL0     H68026  -0.084   9.773   8.766  1.6291 -1.0768  1.9115
  504MOL0     H68027   0.133   9.875   8.761 -2.4631 -0.7760  2.2440
  504MOL0     H68028   0.544   9.857   8.626 -0.0781 -1.6293 -2.3180
  504MOL0     H68029   0.777   9.901   8.613  0.1972 -1.0740 -4.1560
  504MOL0     H68030   0.978  10.086   8.644 -0.3497  0.4384  0.1131
  504MOL0     H68031   0.975   9.970   8.505  3.0614  0.6610 -3.0836
  504MOL0     H68032   1.121  10.240   8.466  1.1526 -0.7914 -3.7762
  504MOL0     H68033   1.126  10.088   8.378  0.5392  2.3401 -0.9803
  504MOL0     H68034   1.319  10.066   8.502  1.3518  1.3298  1.5938
  504MOL0     H68035   1.221  10.002   8.622  1.9493 -0.7208 -1.6657
  504MOL0     H68036   1.201  10.193   8.746  0.0650 -0.6223 -0.8476
  504MOL0     H68037   1.264  10.315   8.632  2.7491  2.5260  3.5043
  504MOL0     H68038   1.596  10.181   8.846 -0.0721 -1.9415  0.5507
  504MOL0     H68039   0.691  10.251   8.379  0.8428 -0.5737  0.4540
  504MOL0     H68040   0.444  10.196   8.374  0.2158  1.7877  0.4539
  505MOL0     O68041   2.720   4.785   7.204  0.8042  0.3644 -0.6202
  505MOL0     C68042   2.796   4.815   7.117  0.3743  0.3994  0.0559
  505MOL0     O68043   2.791   4.936   7.045 -1.0677  0.1175 -0.0348
  505MOL0     C68044   2.673   5.005   7.021 -0.2556 -0.2567  0.6185
  505MOL0     C68045   2.549   4.945   7.016 -1.0992 -0.4240 -0.4840
  505MOL0     C68046   2.443   5.024   6.985 -0.2923  1.1142 -0.0411
  505MOL0     C68047   2.453   5.158   6.957  0.3951 -0.5728  0.0050
  505MOL0     O68048   2.326   5.211   6.946 -0.3334  0.3499  0.1027
  505MOL0     C68049   2.297   5.342   6.906 -0.4997 -0.8961  0.6255
  505MOL0     C68050   2.147   5.371   6.900 -0.5551  0.0527  0.1565
  505MOL0     C68051   2.079   5.264   6.814 -0.2605  0.0699  0.9776
  505MOL0     C68052   1.930   5.296   6.782  0.2715  0.8011  0.2706
  505MOL0     C68053   1.929   5.385   6.662  0.0069 -0.6714  0.3547
  505MOL0     C68054   1.796   5.416   6.583 -0.2407  0.6230  0.8915
  505MOL0     C68055   1.683   5.460   6.674  0.3190  0.4483  0.4295
  505MOL0     C68056   1.545   5.460   6.604 -0.7743 -0.3235 -0.1573
  505MOL0     N68057   1.528   5.569   6.501  0.1802  0.4075 -0.1047
  505MOL0     C68058   1.428   5.662   6.501 -0.1459  0.3055  0.5163
  505MOL0     C68059   1.444   5.739   6.390  0.1924 -0.5872 -0.0260
  505MOL0     C68060   1.350   5.841   6.333 -0.3882 -0.0019 -0.7625
  505MOL0     C68061   1.219   5.784   6.294 -0.5751  1.1204  0.3356
  505MOL0     C68062   1.129   5.904   6.272 -0.1091 -0.6523  0.4336
  505MOL0     C68063   0.995   5.867   6.210 -0.4196  0.3080 -0.3991
  505MOL0     O68064   1.022   5.798   6.083 -0.7541  0.4637 -0.1370
  505MOL0     C68065   0.910   5.753   6.015 -0.0838 -0.3647  0.2650
  505MOL0     C68066   0.786   5.809   6.019 -0.0764  0.3927 -0.0531
  505MOL0     C68067   0.675   5.751   5.947  0.2828  0.3279  0.1285
  505MOL0     C68068   0.540   5.817   5.959  0.3588  0.4154  0.0254
  505MOL0     C68069   0.696   5.637   5.862  0.9395 -0.1727 -0.0951
  505MOL0     C68070   0.587   5.561   5.800 -0.4404 -0.1102  0.3803
  505MOL0     O68071   0.623   5.493   5.681 -0.1851  0.4855 -0.5123
  505MOL0     C68072   0.534   5.407   5.631  0.4989 -1.1020 -0.2450
  505MOL0     C68073   0.576   5.279   5.610  0.3094  0.7423 -0.0527
  505MOL0     C68074   0.486   5.178   5.580 -0.3671  0.2944 -0.4019
  505MOL0     C68075   0.353   5.209   5.555  0.9440 -0.1394  0.3292
  505MOL0     O68076   0.273   5.102   5.516 -0.0075  0.0068  0.2982
  505MOL0     C68077   0.137   5.116   5.566 -0.8686  1.0081  0.3984
  505MOL0     C68078   0.073   4.982   5.567 -0.2411  0.1721 -0.4383
  505MOL0     C68079  -0.046   4.988   5.668 -0.5867  0.3133 -0.1494
  505MOL0     C68080  -0.121   4.852   5.682 -0.1505  0.5612 -0.2047
  505MOL0     C68081  -0.208   4.824   5.566 -0.2097 -0.1458  0.3913
  505MOL0     C68082  -0.226   4.681   5.518 -0.2784  0.3452  0.1078
  505MOL0     C68083  -0.288   4.605   5.629 -0.0164  0.2215 -0.2146
  505MOL0     C68084  -0.303   4.461   5.599  0.0179 -0.5362 -0.4489
  505MOL0    Cl68085  -0.393   4.428   5.444 -0.5262 -0.6805 -0.2187
  505MOL0     C68086   0.313   5.341   5.568  1.4551  0.3167 -0.3550
  505MOL0     C68087   0.399   5.447   5.606  0.4125  0.8111  0.2702
  505MOL0     O68088   0.485   5.551   5.863 -0.0036 -0.4872 -0.2920
  505MOL0     C68089   0.830   5.589   5.843  0.7950 -0.2805 -0.3072
  505MOL0     C68090   0.928   5.647   5.921  0.3644  0.1974 -0.4736
  505MOL0     N68091   1.563   5.705   6.329 -1.0073 -0.2430 -0.3101
  505MOL0     N68092   1.606   5.596   6.394 -0.8565 -0.0739 -0.0063
  505MOL0     C68093   2.584   5.225   6.950  0.2293 -0.0642 -0.4005
  505MOL0     C68094   2.688   5.141   6.979  0.2119  0.0813 -0.0803
  505MOL0     C68095   2.914   4.738   7.109 -0.1887  0.0103 -0.1930
  505MOL0     C68096   3.022   4.789   7.039 -0.1112  0.1079 -1.0536
  505MOL0     C68097   3.148   4.716   7.033  0.1532  0.5996  0.6634
  505MOL0     C68098   3.158   4.586   7.075  0.7817  0.5914 -0.8033
  505MOL0     O68099   3.280   4.522   7.064  0.4129  0.0455 -0.3177
  505MOL0     C68100   3.286   4.379   7.095  0.1691  0.4402 -0.2379
  505MOL0     C68101   3.418   4.316   7.055 -0.6012  0.2737 -0.9413
  505MOL0     C68102   3.466   4.342   6.912 -0.6607  0.1412  0.0637
  505MOL0     C68103   3.597   4.419   6.911 -0.0779 -0.3053 -0.7331
  505MOL0     C68104   3.629   4.432   6.768  0.8104  0.4589  0.0905
  505MOL0     C68105   3.675   4.425   6.661 -0.2612  0.4193  0.1970
  505MOL0     C68106   3.040   4.529   7.130 -0.3894 -0.1571 -0.4293
  505MOL0     C68107   2.921   4.600   7.140  0.5619  0.1600 -0.3467
  505MOL0     H68108   2.537   4.839   7.035 -2.1723 -1.0603 -4.0152
  505MOL0     H68109   2.345   4.976   6.983 -0.5756  1.7051 -0.9240
  505MOL0     H68110   2.345   5.408   6.978 -0.9089  0.9951 -0.7608
  505MOL0     H68111   2.342   5.354   6.807 -0.2796 -3.3440  0.3564
  505MOL0     H68112   2.117   5.359   7.005 -1.8106  2.4596  0.1714
  505MOL0     H68113   2.130   5.474   6.866  1.6551  0.2288 -0.5516
  505MOL0     H68114   2.131   5.257   6.718 -0.9533  0.7957  0.5375
  505MOL0     H68115   2.080   5.165   6.860 -0.3811 -1.8404 -2.7461
  505MOL0     H68116   1.881   5.200   6.762 -0.7882  1.0031  1.7119
  505MOL0     H68117   1.881   5.347   6.866  1.9855  1.1064  1.1308
  505MOL0     H68118   1.966   5.482   6.696 -0.0646 -0.1171 -1.1048
  505MOL0     H68119   2.000   5.351   6.586  1.0265 -0.6398  1.2678
  505MOL0     H68120   1.822   5.490   6.506  0.9411 -3.0389 -2.5445
  505MOL0     H68121   1.769   5.321   6.537  2.3681  0.0212  0.3961
  505MOL0     H68122   1.685   5.388   6.756  1.1283 -0.1656 -0.1121
  505MOL0     H68123   1.704   5.558   6.717 -1.4936  1.4259 -0.8150
  505MOL0     H68124   1.478   5.469   6.690 -0.8034  1.5339 -0.3354
  505MOL0     H68125   1.530   5.365   6.552 -2.1589  0.2802 -0.9199
  505MOL0     H68126   1.342   5.686   6.562 -1.4997  3.0820 -2.1932
  505MOL0     H68127   1.337   5.916   6.411  1.8918 -2.6146  2.3668
  505MOL0     H68128   1.395   5.894   6.248  0.9559 -1.3233 -0.9128
  505MOL0     H68129   1.189   5.726   6.382 -1.3545  2.1552  0.7689
  505MOL0     H68130   1.224   5.721   6.205  1.4108  1.6550  0.0247
  505MOL0     H68131   1.176   5.981   6.211  0.3753  0.3656  2.0236
  505MOL0     H68132   1.114   5.949   6.371  1.1026 -0.6049  0.6128
  505MOL0     H68133   0.926   5.952   6.208 -0.3265  0.4463  1.1370
  505MOL0     H68134   0.946   5.797   6.278 -1.8870 -0.0006 -1.7235
  505MOL0     H68135   0.763   5.885   6.092 -0.3839  1.6504 -1.4058
  505MOL0     H68136   0.479   5.744   6.013  0.3339 -0.6756 -1.4056
  505MOL0     H68137   0.539   5.907   6.021  0.8616  1.6740 -1.6946
  505MOL0     H68138   0.494   5.827   5.860 -2.3499 -0.0346  1.1656
  505MOL0     H68139   0.680   5.260   5.634  0.5523  0.7900 -1.0227
  505MOL0     H68140   0.531   5.080   5.566 -0.2850  0.2035  0.4014
  505MOL0     H68141   0.142   5.157   5.668  0.4195 -0.2538  0.8723
  505MOL0     H68142   0.078   5.182   5.503 -0.3124  0.4374 -0.7406
  505MOL0     H68143   0.036   4.961   5.466  0.8880  1.8058 -1.2313
  505MOL0     H68144   0.133   4.893   5.592 -1.6112  0.1526  3.4319
  505MOL0     H68145  -0.120   5.061   5.635 -2.0071  0.1289  2.4091
  505MOL0     H68146  -0.006   5.014   5.766  0.0485  0.5891 -0.4717
  505MOL0     H68147  -0.066   4.760   5.704 -1.0241 -0.4153 -1.9238
  505MOL0     H68148  -0.191   4.866   5.765  1.4413 -0.9025  1.4537
  505MOL0     H68149  -0.160   4.865   5.477 -1.6094 -3.0703 -1.9157
  505MOL0     H68150  -0.303   4.872   5.591 -0.9924 -2.3069  1.8306
  505MOL0     H68151  -0.282   4.684   5.424  3.7941  3.5974 -2.5333
  505MOL0     H68152  -0.124   4.664   5.483 -0.1810  2.1231 -0.5480
  505MOL0     H68153  -0.387   4.635   5.662  0.1417 -1.1146  1.6384
  505MOL0     H68154  -0.232   4.600   5.723 -1.7034 -0.8538  0.7814
  505MOL0     H68155  -0.346   4.404   5.682 -1.2112 -1.5240 -1.7379
  505MOL0     H68156  -0.204   4.416   5.583 -0.2376 -1.3452  0.1824
  505MOL0     H68157   0.209   5.360   5.543  0.7726 -0.5709  1.6592
  505MOL0     H68158   0.365   5.550   5.603 -0.2005  0.6048 -2.3708
  505MOL0     H68159   0.852   5.513   5.769 -0.8435  1.2229 -2.4289
  505MOL0     H68160   1.026   5.602   5.914  1.1105  1.5237  0.8381
  505MOL0     H68161   2.606   5.329   6.925 -1.8558  1.0174  1.7837
  505MOL0     H68162   2.790   5.177   6.977 -0.1727  1.2078 -0.7683
  505MOL0     H68163   3.030   4.895   7.015 -0.0892  0.0952 -1.1014
  505MOL0     H68164   3.232   4.771   6.992  0.6000 -0.5779 -0.0421
  505MOL0     H68165   3.263   4.354   7.199  1.5748 -0.3246 -0.0963
  505MOL0     H68166   3.202   4.332   7.044 -1.5148  1.2566  1.6272
  505MOL0     H68167   3.381   4.213   7.061 -1.6174  0.6741  0.3034
  505MOL0     H68168   3.495   4.338   7.129 -0.2226  0.9156 -1.5138
  505MOL0     H68169   3.389   4.397   6.857 -2.1413 -1.7567  0.1057
  505MOL0     H68170   3.487   4.243   6.871  2.8159 -1.0687  4.0466
  505MOL0     H68171   3.678   4.359   6.953  0.8965  0.8051 -0.9781
  505MOL0     H68172   3.589   4.510   6.971 -1.4968 -1.1662  0.4544
  505MOL0     H68173   3.729   4.423   6.569  0.0008  0.5977  0.3427
  505MOL0     H68174   3.049   4.426   7.163 -3.0311 -0.7355 -1.2250
  505MOL0     H68175   2.832   4.545   7.169  0.3657 -0.8508 -2.6318
  506MOL0     O68176  11.276   7.677   8.985  0.0515  0.4699 -0.1049
  506MOL0     C68177  11.327   7.789   8.964  0.7924  0.5552  0.0080
  506MOL0     O68178  11.256   7.899   8.951  0.1716 -0.0219  0.7297
  506MOL0     C68179  11.118   7.889   8.959  0.7646 -0.1445  0.2531
  506MOL0     C68180  11.039   7.889   8.841  0.0924 -0.6604 -0.1134
  506MOL0     C68181  10.905   7.870   8.850  0.0902 -0.3108 -0.6792
  506MOL0     C68182  10.839   7.857   8.978 -0.0274  0.2997 -0.0997
  506MOL0     O68183  10.705   7.868   8.978  0.0686 -0.1195  0.0833
  506MOL0     C68184  10.641   7.910   9.099  0.5183 -0.6886  0.2076
  506MOL0     C68185  10.487   7.908   9.078  0.1778  0.1609 -0.3110
  506MOL0     C68186  10.399   7.967   9.188 -0.0377 -0.0562 -1.0086
  506MOL0     C68187  10.260   7.929   9.147 -0.0899  0.4763  0.2584
  506MOL0     C68188  10.165   7.958   9.263 -0.5721 -0.4411  0.0463
  506MOL0     C68189  10.130   8.111   9.264 -0.0992  0.1166  0.6285
  506MOL0     C68190   9.997   8.121   9.335  0.0636 -0.1969  0.2083
  506MOL0     C68191   9.968   8.261   9.399 -0.2721  0.4999  0.3245
  506MOL0     N68192   9.840   8.254   9.464  0.6171  0.2927  0.4991
  506MOL0     C68193   9.755   8.363   9.488  0.1139 -0.7563 -0.7058
  506MOL0     C68194   9.657   8.322   9.575  0.1519  0.4270  0.7010
  506MOL0     C68195   9.529   8.391   9.619  0.3723 -0.2557 -0.7786
  506MOL0     C68196   9.410   8.330   9.545  0.2117  0.1140  0.0415
  506MOL0     C68197   9.273   8.373   9.600 -1.2333  0.7088  0.6221
  506MOL0     C68198   9.165   8.326   9.509 -0.2749 -0.4185  0.6641
  506MOL0     O68199   9.040   8.401   9.534 -0.2844  0.8875  0.0103
  506MOL0     C68200   8.912   8.338   9.519 -0.0359 -0.8440 -0.0581
  506MOL0     C68201   8.803   8.418   9.484  0.4789 -0.3123 -0.3468
  506MOL0     C68202   8.677   8.357   9.453 -0.1035 -0.2939  0.8481
  506MOL0     C68203   8.579   8.456   9.395 -0.1632 -0.0494  0.2398
  506MOL0     C68204   8.669   8.213   9.437  0.7007 -0.3287  0.0485
  506MOL0     C68205   8.545   8.133   9.391 -0.7022  0.2669 -0.6597
  506MOL0     O68206   8.467   8.183   9.297  0.8045 -0.7293 -0.3576
  506MOL0     C68207   8.347   8.131   9.258  0.1207 -0.2812 -0.0048
  506MOL0     C68208   8.266   8.032   9.311  0.7003 -0.1161 -0.6183
  506MOL0     C68209   8.135   8.023   9.274 -0.3391  0.9992  0.0293
  506MOL0     C68210   8.075   8.106   9.179 -0.7988  1.2551 -0.9586
  506MOL0     O68211   7.944   8.084   9.158  0.7052  0.2922 -0.0491
  506MOL0     C68212   7.862   8.182   9.101 -0.5163 -0.4077 -0.4269
  506MOL0     C68213   7.727   8.125   9.070 -0.0226  0.6224  0.6352
  506MOL0     C68214   7.632   8.142   9.186 -0.0574 -0.1811  0.2059
  506MOL0     C68215   7.494   8.089   9.146  0.8171  0.9051  0.4643
  506MOL0     C68216   7.403   8.027   9.254 -1.1469 -0.1977 -0.6744
  506MOL0     C68217   7.261   7.975   9.205  1.1661  0.5948  0.1724
  506MOL0     C68218   7.255   7.856   9.107  0.6823 -0.7423  0.4629
  506MOL0     C68219   7.116   7.840   9.044  0.3046 -0.1476 -0.0693
  506MOL0    Cl68220   7.015   7.788   9.181  0.2124  0.3020 -0.1322
  506MOL0     C68221   8.150   8.201   9.119 -0.7150 -0.4214 -0.3652
  506MOL0     C68222   8.280   8.215   9.169  0.5025  0.1131 -0.2079
  506MOL0     O68223   8.533   8.023   9.442  0.1317 -0.7389 -0.2740
  506MOL0     C68224   8.777   8.146   9.481 -0.1286  0.2886  0.2815
  506MOL0     C68225   8.899   8.201   9.520 -0.4493  0.0453  0.7056
  506MOL0     N68226   9.676   8.189   9.608  0.1199  0.8751  0.2819
  506MOL0     N68227   9.783   8.148   9.539  0.1410 -0.3570 -0.4885
  506MOL0     C68228  10.923   7.876   9.092 -0.4859  0.3618 -0.7259
  506MOL0     C68229  11.060   7.887   9.090  0.0320  0.5077 -0.4492
  506MOL0     C68230  11.475   7.798   8.966  0.5365 -0.2047 -0.7447
  506MOL0     C68231  11.553   7.915   8.956  0.0497  0.1277  0.6129
  506MOL0     C68232  11.695   7.917   8.920 -0.3854 -0.5261  0.2348
  506MOL0     C68233  11.756   7.795   8.907 -0.7024  0.2298 -0.5501
  506MOL0     O68234  11.890   7.776   8.879  0.0874 -0.1861  0.1420
  506MOL0     C68235  11.957   7.896   8.841 -0.2918  0.3628 -0.4667
  506MOL0     C68236  12.111   7.856   8.818  1.0127  0.2034 -0.1371
  506MOL0     C68237  12.169   7.786   8.945  1.3765  0.3731 -0.3207
  506MOL0     C68238  12.317   7.799   8.947 -0.6063 -0.3350  0.4619
  506MOL0     C68239  12.376   7.722   9.059 -0.0743  0.1309  0.7669
  506MOL0     C68240  12.434   7.675   9.148 -0.3643 -0.0256 -0.5067
  506MOL0     C68241  11.680   7.676   8.930  0.1241  0.8055  0.5984
  506MOL0     C68242  11.542   7.681   8.953  0.2311  0.1952  0.3586
  506MOL0     H68243  11.091   7.891   8.746  0.7065 -2.1165  0.1747
  506MOL0     H68244  10.843   7.847   8.763  0.2648 -0.3075 -0.8039
  506MOL0     H68245  10.658   7.846   9.186 -1.3263  1.8398  2.6387
  506MOL0     H68246  10.680   8.011   9.114  3.2156 -1.2970 -1.9575
  506MOL0     H68247  10.469   7.952   8.980 -2.4437 -0.4659 -0.1855
  506MOL0     H68248  10.459   7.803   9.071 -2.5824  0.8507 -0.4691
  506MOL0     H68249  10.429   7.921   9.282  1.5764 -1.1460 -2.0017
  506MOL0     H68250  10.407   8.075   9.203 -1.6507 -0.0379  0.0499
  506MOL0     H68251  10.243   7.976   9.049 -1.0592 -2.4713 -1.1023
  506MOL0     H68252  10.252   7.823   9.124 -0.1468  0.3528  0.8450
  506MOL0     H68253  10.074   7.898   9.250 -1.0108  0.2879 -0.3495
  506MOL0     H68254  10.203   7.933   9.362  2.3035  0.5913 -0.7177
  506MOL0     H68255  10.214   8.166   9.308  1.8197  0.0303 -2.5593
  506MOL0     H68256  10.116   8.139   9.159 -2.2634  2.1424  1.3796
  506MOL0     H68257   9.914   8.088   9.272 -1.4361  1.5281  1.1619
  506MOL0     H68258  10.010   8.052   9.419  0.6753  0.4512  0.6516
  506MOL0     H68259   9.966   8.342   9.326 -0.5245  2.6633  2.5969
  506MOL0     H68260  10.041   8.272   9.480 -0.7658 -1.8032  1.1606
  506MOL0     H68261   9.780   8.462   9.452 -0.7691  0.1201  0.9400
  506MOL0     H68262   9.504   8.376   9.725 -1.5388  4.0149 -0.4155
  506MOL0     H68263   9.542   8.499   9.607  1.7146 -0.5425 -2.1483
  506MOL0     H68264   9.408   8.221   9.555  1.7379  0.0540 -0.0955
  506MOL0     H68265   9.416   8.355   9.439 -1.3545  0.5018  0.0113
  506MOL0     H68266   9.275   8.482   9.612  2.8880  0.9871 -0.9512
  506MOL0     H68267   9.259   8.327   9.699 -1.0973  1.8873  1.2144
  506MOL0     H68268   9.159   8.217   9.494 -2.1003  0.0713 -3.7470
  506MOL0     H68269   9.196   8.357   9.409 -0.6278 -3.3592 -0.4709
  506MOL0     H68270   8.829   8.523   9.472  3.2550 -0.8480  0.2601
  506MOL0     H68271   8.541   8.425   9.297 -0.4205  1.0253 -0.0156
  506MOL0     H68272   8.500   8.455   9.471 -2.7074  2.0349 -2.1367
  506MOL0     H68273   8.621   8.555   9.377  3.4146 -1.1650  1.5781
  506MOL0     H68274   8.307   7.971   9.391  0.9204  0.0427 -0.6087
  506MOL0     H68275   8.075   7.945   9.320  1.9872 -1.8876 -1.5002
  506MOL0     H68276   7.865   8.266   9.171  0.4382 -0.8936  0.1351
  506MOL0     H68277   7.906   8.232   9.015  1.6232  1.7582  1.7643
  506MOL0     H68278   7.675   8.168   8.984  0.3060 -1.9957 -1.0136
  506MOL0     H68279   7.740   8.017   9.055  1.9339  0.8522  0.4436
  506MOL0     H68280   7.619   8.246   9.215  0.9934 -0.3589  1.4324
  506MOL0     H68281   7.666   8.083   9.271  3.4757 -0.8276 -1.4817
  506MOL0     H68282   7.439   8.155   9.077  1.0762 -0.6922 -1.3433
  506MOL0     H68283   7.506   7.996   9.090 -5.3919  0.4565 -0.9199
  506MOL0     H68284   7.391   8.113   9.320  3.4583  0.3099 -0.1173
  506MOL0     H68285   7.462   7.955   9.311  3.5219  2.8961 -0.9838
  506MOL0     H68286   7.203   7.955   9.296  1.3983  1.1049  0.4419
  506MOL0     H68287   7.193   8.052   9.168 -0.8735 -0.7855  0.8671
  506MOL0     H68288   7.279   7.762   9.158 -0.3526 -0.8270  0.8149
  506MOL0     H68289   7.331   7.865   9.029  0.1453 -0.3166 -0.0218
  506MOL0     H68290   7.098   7.781   8.955 -0.6736  0.0669 -0.0217
  506MOL0     H68291   7.081   7.940   9.015  0.2334 -0.1775 -0.0850
  506MOL0     H68292   8.106   8.261   9.040  0.6197  0.7257 -0.2826
  506MOL0     H68293   8.339   8.288   9.115  1.7777 -1.1597 -0.5685
  506MOL0     H68294   8.767   8.038   9.488 -1.9356  0.3298 -0.9816
  506MOL0     H68295   8.983   8.135   9.542  1.5479  2.6897  1.5128
  506MOL0     H68296  10.876   7.866   9.189 -0.0559 -0.9502 -0.6316
  506MOL0     H68297  11.110   7.873   9.185  0.2677 -1.5468 -0.8206
  506MOL0     H68298  11.504   8.010   8.972 -0.4586 -0.0004 -0.1085
  506MOL0     H68299  11.751   8.010   8.915  0.7031 -0.9043  3.4405
  506MOL0     H68300  11.920   7.933   8.745 -1.6210 -0.3458 -0.2587
  506MOL0     H68301  11.955   7.976   8.916 -2.3499  1.7440 -1.9056
  506MOL0     H68302  12.169   7.940   8.778 -0.3620  0.9393 -0.6433
  506MOL0     H68303  12.118   7.784   8.736 -1.9284 -0.1715 -0.1487
  506MOL0     H68304  12.143   7.680   8.950 -1.6655  1.0773  1.7959
  506MOL0     H68305  12.123   7.836   9.030  0.6797  0.6117 -0.8220
  506MOL0     H68306  12.345   7.904   8.965 -2.2471  0.0237  1.0981
  506MOL0     H68307  12.359   7.770   8.850 -0.4721  2.7656 -0.5139
  506MOL0     H68308  12.493   7.621   9.219  1.6794  2.0623 -0.4776
  506MOL0     H68309  11.731   7.580   8.924  0.6426  1.0553  0.9263
  506MOL0     H68310  11.500   7.581   8.941  1.9325 -0.5653  0.4401
  507MOL0     O68311   2.604   0.968   7.229 -0.2409  0.4702  0.7287
  507MOL0     C68312   2.663   0.911   7.132  0.1150  0.0005 -0.0276
  507MOL0     O68313   2.607   0.842   7.038 -0.1652  0.3051  0.3057
  507MOL0     C68314   2.471   0.833   7.028  0.0983  0.0652  0.5975
  507MOL0     C68315   2.412   0.851   6.907  0.2604  0.6709  0.6618
  507MOL0     C68316   2.277   0.850   6.887 -0.5598  0.1153 -0.0573
  507MOL0     C68317   2.185   0.828   6.996 -0.1777 -0.5920 -0.2624
  507MOL0     O68318   2.058   0.836   6.966  0.3524  0.0788 -0.8846
  507MOL0     C68319   2.018   0.966   6.933  0.7250 -0.3099 -0.1997
  507MOL0     C68320   1.868   0.986   6.980  0.6074  1.0185 -0.1825
  507MOL0     C68321   1.767   0.906   6.891 -0.1944  0.1200 -0.5456
  507MOL0     C68322   1.794   0.755   6.872 -0.0947  0.6609 -0.3074
  507MOL0     C68323   1.673   0.687   6.810 -0.0171 -0.4854  0.3312
  507MOL0     C68324   1.703   0.540   6.774  0.8336 -0.0042 -0.0243
  507MOL0     C68325   1.574   0.460   6.774 -0.4666 -0.4660 -1.1618
  507MOL0     C68326   1.501   0.451   6.636  0.6000 -0.4333 -0.0927
  507MOL0     N68327   1.405   0.335   6.640  0.1453 -0.1546  0.3106
  507MOL0     C68328   1.445   0.204   6.612 -0.2435 -0.0357 -0.2335
  507MOL0     C68329   1.324   0.139   6.623 -0.5578 -0.2281  0.2109
  507MOL0     C68330   1.298  -0.008   6.606 -0.2144 -0.3076  0.0386
  507MOL0     C68331   1.357  -0.082   6.729 -0.3270 -0.3511  0.3676
  507MOL0     C68332   1.248  -0.118   6.841 -0.0284 -0.1707  0.8251
  507MOL0     C68333   1.165  -0.003   6.880 -0.3536  0.0547 -0.5258
  507MOL0     O68334   1.121  -0.038   7.012  0.0063  0.3588 -0.3446
  507MOL0     C68335   0.988  -0.065   7.039 -0.1235 -0.0393 -0.0263
  507MOL0     C68336   0.912  -0.172   6.980 -0.7834  0.3800  0.1498
  507MOL0     C68337   0.780  -0.197   7.007  0.2574  0.9596  0.6920
  507MOL0     C68338   0.728  -0.312   6.923  0.5935  0.2115 -0.1683
  507MOL0     C68339   0.710  -0.117   7.105  0.2461  0.1369 -0.4250
  507MOL0     C68340   0.567  -0.138   7.140  0.0673 -0.5149 -0.3412
  507MOL0     O68341   0.515  -0.260   7.106  0.5121  0.4707  0.1715
  507MOL0     C68342   0.386  -0.295   7.142  0.2740 -0.4356  0.5421
  507MOL0     C68343   0.349  -0.352   7.263  0.2487  0.8034  0.1123
  507MOL0     C68344   0.219  -0.359   7.298  0.5592 -0.9974 -0.0709
  507MOL0     C68345   0.117  -0.307   7.213  0.7634  1.3414 -0.3390
  507MOL0     O68346  -0.024  -0.306   7.245 -0.4619  0.1828 -0.1344
  507MOL0     C68347  -0.081  -0.369   7.363  0.0601  0.2161 -0.1511
  507MOL0     C68348  -0.083  -0.268   7.480  0.4052 -0.3475  0.1393
  507MOL0     C68349  -0.215  -0.233   7.549 -0.1626  0.3120  0.3302
  507MOL0     C68350  -0.314  -0.165   7.450 -0.0749  0.8391  0.1345
  507MOL0     C68351  -0.449  -0.127   7.524 -0.2405  1.2331  0.2537
  507MOL0     C68352  -0.516  -0.252   7.581  0.4025  0.6982 -0.6291
  507MOL0     C68353  -0.668  -0.241   7.599 -0.9971  0.0000 -0.0631
  507MOL0     C68354  -0.731  -0.348   7.689 -0.9527  0.3071 -0.4234
  507MOL0    Cl68355  -0.686  -0.344   7.863 -0.0660  0.3064 -0.5015
  507MOL0     C68356   0.148  -0.255   7.095  0.9993 -0.6172 -0.6594
  507MOL0     C68357   0.285  -0.243   7.053 -1.4137  0.4794  0.2738
  507MOL0     O68358   0.501  -0.052   7.205  0.0694  0.7524  1.0019
  507MOL0     C68359   0.792  -0.025   7.179 -0.3369 -0.0895  0.4600
  507MOL0     C68360   0.922   0.001   7.142  0.1376 -0.8937 -0.3062
  507MOL0     N68361   1.216   0.222   6.655  0.1206  0.3790 -0.1732
  507MOL0     N68362   1.272   0.340   6.667  0.3273 -0.5055 -0.8550
  507MOL0     C68363   2.241   0.797   7.120 -0.1218 -0.5641  0.5621
  507MOL0     C68364   2.386   0.797   7.139 -0.1314 -0.4377  0.7476
  507MOL0     C68365   2.808   0.904   7.147  0.5358 -0.5605  0.3067
  507MOL0     C68366   2.874   0.813   7.058  0.9983  0.3241  0.6031
  507MOL0     C68367   3.011   0.805   7.078 -0.0598 -0.0297  0.0892
  507MOL0     C68368   3.088   0.884   7.165 -1.0001 -0.4038 -0.4239
  507MOL0     O68369   3.223   0.869   7.180 -0.0168  0.1004 -0.6078
  507MOL0     C68370   3.280   0.761   7.106 -0.2802  0.0396  0.3490
  507MOL0     C68371   3.427   0.734   7.131 -0.6184  0.5240  0.2902
  507MOL0     C68372   3.514   0.864   7.130 -0.7758 -0.2864 -0.2205
  507MOL0     C68373   3.509   0.936   6.992  0.1374 -0.0339  0.0892
  507MOL0     C68374   3.531   0.861   6.868 -0.3049  0.0722 -0.6439
  507MOL0     C68375   3.575   0.804   6.773  0.3801 -0.9956  0.4140
  507MOL0     C68376   3.017   0.964   7.248 -0.0600 -0.0827 -0.0482
  507MOL0     C68377   2.880   0.975   7.246  0.2787 -0.5410  0.3699
  507MOL0     H68378   2.471   0.869   6.818 -3.1752  1.0583 -1.7315
  507MOL0     H68379   2.248   0.855   6.783 -0.0270  1.5468 -0.1604
  507MOL0     H68380   2.062   1.041   6.999 -1.6541  0.9362  0.0802
  507MOL0     H68381   2.037   1.002   6.831  0.0448  3.0797  0.7552
  507MOL0     H68382   1.862   0.963   7.087  0.8274  2.0254  0.0632
  507MOL0     H68383   1.837   1.091   6.989 -1.6317  0.3514  0.5086
  507MOL0     H68384   1.670   0.905   6.942 -0.6057 -1.6199 -1.2887
  507MOL0     H68385   1.755   0.954   6.794 -1.1682  2.6925  0.7325
  507MOL0     H68386   1.874   0.740   6.799  0.1505  0.8004 -0.0665
  507MOL0     H68387   1.822   0.714   6.969 -2.1230 -1.1203 -0.4098
  507MOL0     H68388   1.595   0.700   6.885 -1.8438  0.6642 -1.6611
  507MOL0     H68389   1.634   0.735   6.720 -1.0044  0.2752  1.1499
  507MOL0     H68390   1.760   0.524   6.682  2.3242  0.0919  0.8634
  507MOL0     H68391   1.756   0.489   6.855 -0.7339 -1.2060  0.2909
  507MOL0     H68392   1.604   0.360   6.808 -0.6565 -1.0557 -2.6336
  507MOL0     H68393   1.493   0.487   6.842 -0.2877 -1.4227 -0.5521
  507MOL0     H68394   1.576   0.435   6.558  1.7816  1.6269  0.5194
  507MOL0     H68395   1.448   0.543   6.607 -0.6703 -1.0077  0.3492
  507MOL0     H68396   1.535   0.154   6.579 -1.5829 -2.3338 -0.6742
  507MOL0     H68397   1.191  -0.023   6.593  0.1738 -1.5037 -2.2298
  507MOL0     H68398   1.348  -0.042   6.515  0.6423 -2.4989  1.2548
  507MOL0     H68399   1.435  -0.020   6.772 -1.8542  2.4047 -0.5742
  507MOL0     H68400   1.397  -0.174   6.686  1.6923 -0.2033  1.8177
  507MOL0     H68401   1.302  -0.161   6.925  0.1835  0.2853  0.9263
  507MOL0     H68402   1.186  -0.203   6.812 -0.0556 -0.5230  1.8848
  507MOL0     H68403   1.088   0.031   6.810  1.5425  2.7437 -1.4469
  507MOL0     H68404   1.243   0.071   6.895 -1.2073  0.8356  0.2092
  507MOL0     H68405   0.963  -0.238   6.910  0.4714 -0.4415  1.7812
  507MOL0     H68406   0.622  -0.321   6.898 -0.5585  0.4429  3.8664
  507MOL0     H68407   0.781  -0.324   6.828  0.1227  1.2709 -0.5754
  507MOL0     H68408   0.752  -0.397   6.987 -0.5161 -0.4959 -0.6445
  507MOL0     H68409   0.424  -0.399   7.326 -0.1775 -0.7630 -0.5035
  507MOL0     H68410   0.172  -0.406   7.384 -1.8767  1.4054  0.0427
  507MOL0     H68411  -0.182  -0.404   7.339 -0.2360  0.4975  0.6566
  507MOL0     H68412  -0.025  -0.459   7.390  0.4199  0.1330 -1.1255
  507MOL0     H68413  -0.025  -0.320   7.557 -0.4366 -2.6639 -0.7089
  507MOL0     H68414  -0.038  -0.174   7.445 -0.4005  0.0277  0.0817
  507MOL0     H68415  -0.204  -0.164   7.634 -2.3402  0.4616  0.5682
  507MOL0     H68416  -0.258  -0.326   7.588  0.2602  0.8015  2.0997
  507MOL0     H68417  -0.275  -0.070   7.411 -2.7688  1.7523 -0.5696
  507MOL0     H68418  -0.340  -0.231   7.367 -1.3390  1.9479 -0.3963
  507MOL0     H68419  -0.510  -0.070   7.453 -0.5474  2.3515  1.3826
  507MOL0     H68420  -0.441  -0.068   7.616 -1.6234  1.0841  0.4945
  507MOL0     H68421  -0.493  -0.347   7.533 -2.8922 -1.1267  1.0527
  507MOL0     H68422  -0.466  -0.263   7.677 -2.1049 -0.8099  0.6073
  507MOL0     H68423  -0.710  -0.251   7.498  1.4750  0.6477 -1.2199
  507MOL0     H68424  -0.699  -0.146   7.644 -1.9730 -0.3823  0.0878
  507MOL0     H68425  -0.703  -0.445   7.647  0.5396  0.3626  0.4001
  507MOL0     H68426  -0.840  -0.337   7.686 -1.2846 -2.2836 -0.4333
  507MOL0     H68427   0.068  -0.226   7.027  1.6061  0.2722 -1.0037
  507MOL0     H68428   0.299  -0.192   6.958  0.7183  0.1804  0.3742
  507MOL0     H68429   0.747   0.025   7.264  2.1959  0.8338  1.3625
  507MOL0     H68430   0.975   0.074   7.201  1.4354  0.4602 -2.9620
  507MOL0     H68431   2.166   0.794   7.198 -2.6390  3.1795 -1.4022
  507MOL0     H68432   2.436   0.779   7.233 -0.7207 -0.2473  1.1035
  507MOL0     H68433   2.818   0.749   6.991 -2.0876 -0.9247  4.0073
  507MOL0     H68434   3.061   0.732   7.015 -1.9097 -0.7703 -0.5898
  507MOL0     H68435   3.228   0.667   7.123 -1.1577  0.6254  1.0373
  507MOL0     H68436   3.274   0.771   6.997  1.6373 -2.6651 -0.0920
  507MOL0     H68437   3.464   0.663   7.057 -0.4987 -0.6504  1.4424
  507MOL0     H68438   3.443   0.685   7.227  1.1341 -1.3720 -0.8964
  507MOL0     H68439   3.618   0.834   7.146 -0.6151  1.3391  2.2053
  507MOL0     H68440   3.480   0.929   7.210 -1.1476  0.5100 -1.0012
  507MOL0     H68441   3.590   1.010   6.994  0.1036 -0.0158  1.2048
  507MOL0     H68442   3.414   0.992   6.987  0.7892  1.4049  2.2629
  507MOL0     H68443   3.601   0.752   6.683  2.2482  1.7602 -0.7667
  507MOL0     H68444   3.069   1.012   7.330 -2.0396 -2.2545  2.6567
  507MOL0     H68445   2.830   1.033   7.323  1.8287  0.0649  0.9489
  508MOL0     O68446   1.112   0.973   5.540  0.1772  0.4174  0.2169
  508MOL0     C68447   1.180   1.058   5.604 -0.3310  0.5817  0.2253
  508MOL0     O68448   1.130   1.133   5.701 -0.1616  0.0997  0.2597
  508MOL0     C68449   1.008   1.105   5.754 -0.2530  0.1639  0.1509
  508MOL0     C68450   1.002   1.155   5.885  0.0837 -0.5888 -0.0853
  508MOL0     C68451   0.893   1.123   5.966 -0.5488 -0.6446  0.1639
  508MOL0     C68452   0.789   1.057   5.919  0.5952  0.4862  0.0172
  508MOL0     O68453   0.693   1.031   6.012  0.1687 -0.2279 -0.3346
  508MOL0     C68454   0.664   0.891   6.029  0.3447  1.3753 -0.4071
  508MOL0     C68455   0.530   0.869   5.973 -0.5576  0.4542  0.1126
  508MOL0     C68456   0.425   0.961   6.035 -0.0115  0.4431  0.6725
  508MOL0     C68457   0.287   0.905   6.022  0.0221 -0.6237  0.1421
  508MOL0     C68458   0.193   0.990   6.108  0.2594  0.4567 -0.1012
  508MOL0     C68459   0.045   0.990   6.052  0.3019 -0.2737  0.4085
  508MOL0     C68460   0.024   1.087   5.939  0.0245  0.4061 -0.1747
  508MOL0     C68461  -0.030   1.214   5.990  0.7637 -0.2994 -0.6465
  508MOL0     N68462  -0.039   1.333   5.904  0.4687 -0.4691 -0.1798
  508MOL0     C68463  -0.108   1.335   5.786 -0.2066 -0.8035 -0.0191
  508MOL0     C68464  -0.094   1.456   5.730  0.4675  0.8016 -0.4583
  508MOL0     C68465  -0.163   1.506   5.604  0.0178  0.6158  0.7954
  508MOL0     C68466  -0.295   1.583   5.626  0.2806 -0.0591 -0.3240
  508MOL0     C68467  -0.419   1.504   5.673 -0.1773  0.3977 -0.0859
  508MOL0     C68468  -0.536   1.596   5.666  0.8243  0.5062  0.3476
  508MOL0     O68469  -0.655   1.527   5.711 -0.7532 -0.1839 -0.1922
  508MOL0     C68470  -0.717   1.444   5.627 -0.2866  0.5570  0.7801
  508MOL0     C68471  -0.818   1.368   5.679 -0.6813  0.1582 -0.2311
  508MOL0     C68472  -0.894   1.275   5.609  0.2908 -0.2603 -0.0265
  508MOL0     C68473  -1.006   1.199   5.677 -0.8216 -0.0055 -0.3639
  508MOL0     C68474  -0.871   1.269   5.470 -0.2841 -0.1429 -0.1205
  508MOL0     C68475  -0.938   1.174   5.374  0.3246  0.3967 -0.4634
  508MOL0     O68476  -1.078   1.185   5.367  0.2969 -0.0764  0.1368
  508MOL0     C68477  -1.149   1.145   5.262  0.6316  0.3681 -0.2763
  508MOL0     C68478  -1.121   1.174   5.129 -0.6302 -0.0810  0.9129
  508MOL0     C68479  -1.194   1.127   5.022 -0.2269  1.0069 -0.0148
  508MOL0     C68480  -1.306   1.043   5.044  0.1755  0.4694 -0.3699
  508MOL0     O68481  -1.375   0.978   4.945  0.4923 -0.4848  0.3681
  508MOL0     C68482  -1.379   1.036   4.815  0.1411  0.0457 -1.0199
  508MOL0     C68483  -1.458   0.947   4.726  0.2420 -0.2960  0.6491
  508MOL0     C68484  -1.615   0.956   4.747  0.4797  0.2014  0.6798
  508MOL0     C68485  -1.689   1.047   4.653 -0.9682  0.7256  0.2078
  508MOL0     C68486  -1.839   1.024   4.670 -0.5081 -0.3343  0.5491
  508MOL0     C68487  -1.916   1.131   4.582 -0.5390 -0.6928 -0.0146
  508MOL0     C68488  -2.055   1.079   4.542 -0.7039 -0.3135 -0.3581
  508MOL0     C68489  -2.156   1.190   4.512 -0.0604  0.7958 -0.2520
  508MOL0    Cl68490  -2.125   1.261   4.357  0.2219  0.0902 -0.0466
  508MOL0     C68491  -1.342   1.020   5.176 -0.4389  0.0403  0.4758
  508MOL0     C68492  -1.260   1.065   5.281  0.8139 -0.3659 -0.0978
  508MOL0     O68493  -0.871   1.114   5.295 -0.0480  0.0041 -0.4802
  508MOL0     C68494  -0.776   1.353   5.416  0.5461  0.8162  0.2727
  508MOL0     C68495  -0.698   1.437   5.488 -0.6258  0.2383  0.1653
  508MOL0     N68496  -0.006   1.515   5.819 -0.5220 -0.2137 -0.1602
  508MOL0     N68497   0.029   1.450   5.921 -0.4325  0.3889 -0.1408
  508MOL0     C68498   0.784   1.013   5.786  0.3771  0.0360 -0.5194
  508MOL0     C68499   0.889   1.041   5.700  0.0850 -0.5164  0.1631
  508MOL0     C68500   1.329   1.065   5.577 -0.4876  0.0640 -0.5714
  508MOL0     C68501   1.392   1.189   5.600 -0.4040 -0.2217 -0.2361
  508MOL0     C68502   1.529   1.200   5.574  0.4022  0.1661  0.2634
  508MOL0     C68503   1.603   1.092   5.525 -0.1338 -0.5829 -0.0657
  508MOL0     O68504   1.738   1.102   5.507 -0.3193 -0.3619  0.3017
  508MOL0     C68505   1.821   1.132   5.613 -0.0101 -0.3265 -0.2143
  508MOL0     C68506   1.939   1.037   5.612 -0.4706 -0.9650 -0.0603
  508MOL0     C68507   1.894   0.894   5.631 -0.4988 -0.5769  0.5509
  508MOL0     C68508   2.011   0.796   5.632  0.5340  0.2146  0.6753
  508MOL0     C68509   2.075   0.791   5.758  0.6989  0.4714 -0.1071
  508MOL0     C68510   2.135   0.809   5.864  0.3220 -0.1314  0.4145
  508MOL0     C68511   1.535   0.977   5.499  0.0357  0.0326  0.6184
  508MOL0     C68512   1.401   0.960   5.524  0.3830 -0.0339 -0.3736
  508MOL0     H68513   1.089   1.212   5.917 -0.1036  0.6556 -1.6620
  508MOL0     H68514   0.884   1.161   6.067  0.2724  2.0392 -0.7030
  508MOL0     H68515   0.736   0.821   5.985 -2.7984 -2.1599 -0.3449
  508MOL0     H68516   0.653   0.860   6.134  1.6457 -1.4927 -1.0218
  508MOL0     H68517   0.521   0.897   5.868  1.1729  0.5454 -0.0382
  508MOL0     H68518   0.505   0.762   5.981  1.8407 -0.2931 -1.4157
  508MOL0     H68519   0.447   0.969   6.142  0.9639 -2.7944  0.8321
  508MOL0     H68520   0.435   1.056   5.983  0.7456  0.2389  0.4410
  508MOL0     H68521   0.252   0.905   5.918  3.5944  0.0537 -1.1846
  508MOL0     H68522   0.283   0.799   6.050 -1.0888 -0.9399 -1.0906
  508MOL0     H68523   0.182   0.942   6.205 -3.0708  0.8259 -0.1618
  508MOL0     H68524   0.233   1.092   6.112  0.6750  0.5457 -3.3017
  508MOL0     H68525   0.023   0.890   6.013 -1.0897  0.7987 -1.7140
  508MOL0     H68526  -0.028   1.017   6.129 -1.8264  0.9968 -1.9051
  508MOL0     H68527   0.119   1.113   5.891  0.3242 -0.2574  0.0340
  508MOL0     H68528  -0.046   1.050   5.863 -0.0064 -1.3494  0.6369
  508MOL0     H68529   0.036   1.233   6.076 -3.5967 -3.6680  4.0296
  508MOL0     H68530  -0.127   1.202   6.039  2.4921 -0.6925  3.0707
  508MOL0     H68531  -0.172   1.254   5.752 -1.0588  0.7449 -2.3017
  508MOL0     H68532  -0.091   1.566   5.547 -0.0810 -0.6782 -0.7591
  508MOL0     H68533  -0.185   1.415   5.546  1.7728  0.8752 -0.3769
  508MOL0     H68534  -0.338   1.642   5.544 -5.3731 -1.5068  1.1437
  508MOL0     H68535  -0.276   1.666   5.695  0.5147  2.7320 -3.4704
  508MOL0     H68536  -0.403   1.463   5.773 -1.2457  0.2170  0.0251
  508MOL0     H68537  -0.437   1.415   5.611  2.8024  1.1806 -2.2983
  508MOL0     H68538  -0.563   1.646   5.572  1.9562  1.0857  0.3083
  508MOL0     H68539  -0.515   1.675   5.737  2.5377 -1.8975  2.7244
  508MOL0     H68540  -0.826   1.376   5.787 -0.8990 -0.5141 -0.1947
  508MOL0     H68541  -1.098   1.231   5.627 -0.4662  0.8322 -0.4975
  508MOL0     H68542  -0.993   1.091   5.660 -1.4660  0.0160 -1.0427
  508MOL0     H68543  -1.019   1.221   5.783 -6.1244 -0.5952 -0.6605
  508MOL0     H68544  -1.035   1.229   5.093 -0.3506 -0.0975  1.5359
  508MOL0     H68545  -1.161   1.149   4.921 -0.2313  0.3185 -0.1711
  508MOL0     H68546  -1.431   1.132   4.821  1.3530  0.6702 -0.2362
  508MOL0     H68547  -1.284   1.048   4.762 -0.4261 -1.0019 -2.3370
  508MOL0     H68548  -1.432   0.955   4.620 -3.4082 -1.9641 -0.5405
  508MOL0     H68549  -1.437   0.841   4.742 -1.3729 -0.6637  0.5323
  508MOL0     H68550  -1.633   0.991   4.850 -0.1022 -0.3504  0.7669
  508MOL0     H68551  -1.651   0.853   4.742  1.1601 -0.0787  1.2909
  508MOL0     H68552  -1.677   1.155   4.668  1.2371  0.7154 -1.0890
  508MOL0     H68553  -1.655   1.022   4.552  3.4687 -1.6240  2.0279
  508MOL0     H68554  -1.865   1.023   4.777  0.0190 -3.0055  0.7095
  508MOL0     H68555  -1.860   0.919   4.647  2.4850 -1.1426  1.0557
  508MOL0     H68556  -1.922   1.230   4.628 -0.0974 -1.3064  1.4262
  508MOL0     H68557  -1.858   1.137   4.489  0.7699 -1.9514  0.6770
  508MOL0     H68558  -2.094   1.035   4.635  1.9892 -2.2689 -0.0381
  508MOL0     H68559  -2.052   1.003   4.464 -1.0860 -0.9837  0.2761
  508MOL0     H68560  -2.170   1.262   4.593  1.0418  1.6358 -0.7857
  508MOL0     H68561  -2.253   1.140   4.516 -1.0546  2.7106  0.8495
  508MOL0     H68562  -1.424   0.955   5.206 -1.1101  0.6238 -0.0651
  508MOL0     H68563  -1.278   1.031   5.382 -2.0579 -1.6941 -0.9318
  508MOL0     H68564  -0.758   1.340   5.310 -0.0108 -1.6940  0.4065
  508MOL0     H68565  -0.619   1.502   5.451  0.3483 -0.2532  1.3009
  508MOL0     H68566   0.696   0.961   5.748 -0.7491  1.2968  0.2877
  508MOL0     H68567   0.883   1.014   5.595  0.6670 -1.5652  0.3807
  508MOL0     H68568   1.349   1.281   5.636 -1.5146 -0.5255 -0.7452
  508MOL0     H68569   1.583   1.287   5.609  1.1096  1.5426 -3.6921
  508MOL0     H68570   1.858   1.234   5.616  2.7538 -1.2652  1.8578
  508MOL0     H68571   1.768   1.106   5.705 -4.1774  3.1479 -1.2846
  508MOL0     H68572   1.999   1.078   5.694 -0.4685  4.9554 -2.5341
  508MOL0     H68573   1.988   1.049   5.516 -1.5199  0.0729 -0.4847
  508MOL0     H68574   1.829   0.876   5.545  1.0584 -1.8520 -0.4212
  508MOL0     H68575   1.838   0.876   5.723  0.4097 -0.3497  1.1647
  508MOL0     H68576   2.066   0.825   5.543 -0.3636  1.4196  0.4955
  508MOL0     H68577   1.969   0.697   5.611  0.5247  0.9081 -3.3366
  508MOL0     H68578   2.176   0.845   5.956 -0.5928  2.1419  0.0097
  508MOL0     H68579   1.594   0.893   5.464  0.1969  0.9643 -1.4528
  508MOL0     H68580   1.352   0.864   5.514 -0.7887  0.5471 -0.4469
  509MOL0     O68581   0.405   4.484   0.771 -0.8982 -0.6366  0.3427
  509MOL0     C68582   0.451   4.480   0.883  0.3764  0.0146  0.3762
  509MOL0     O68583   0.410   4.394   0.983 -0.1567  0.3523  0.0387
  509MOL0     C68584   0.293   4.319   0.970 -0.4451 -0.0848  0.1166
  509MOL0     C68585   0.209   4.323   1.085  0.7720  0.2571 -0.0420
  509MOL0     C68586   0.085   4.259   1.077 -0.4750 -0.0925 -0.7235
  509MOL0     C68587   0.027   4.206   0.962 -0.8090  0.3121  0.2123
  509MOL0     O68588  -0.102   4.177   0.962 -0.1116  0.7982 -0.4289
  509MOL0     C68589  -0.171   4.154   0.840  0.7099  0.4883 -0.4712
  509MOL0     C68590  -0.312   4.107   0.870 -0.3459  0.1955  0.2527
  509MOL0     C68591  -0.388   4.219   0.940  0.4991  0.5238  0.7133
  509MOL0     C68592  -0.510   4.144   0.990 -0.1379 -0.5128 -0.0533
  509MOL0     C68593  -0.629   4.238   1.016 -0.3017 -0.4565  0.3676
  509MOL0     C68594  -0.752   4.150   1.017  0.4763 -0.1580 -0.4512
  509MOL0     C68595  -0.878   4.241   1.056 -0.9337 -0.4500 -0.0455
  509MOL0     C68596  -1.008   4.154   1.053  0.1967 -1.0546  0.6848
  509MOL0     N68597  -1.124   4.250   1.048  0.9497 -0.0409 -0.1952
  509MOL0     C68598  -1.228   4.243   0.951  0.0261 -0.6402 -0.2913
  509MOL0     C68599  -1.318   4.338   1.000  0.3156 -0.6264 -1.0218
  509MOL0     C68600  -1.450   4.360   0.933  0.1477  0.2968 -0.2166
  509MOL0     C68601  -1.540   4.232   0.916 -0.1154 -0.1506 -0.2106
  509MOL0     C68602  -1.675   4.258   0.843 -0.2679  0.4819  0.6119
  509MOL0     C68603  -1.746   4.120   0.819  0.9319 -0.1737  0.2332
  509MOL0     O68604  -1.803   4.101   0.947 -0.0121  0.6878  0.9377
  509MOL0     C68605  -1.933   4.061   0.941 -0.0878 -0.7960 -0.2145
  509MOL0     C68606  -2.026   4.126   1.025  0.7394 -0.6753 -0.2179
  509MOL0     C68607  -2.166   4.097   1.018 -0.4437  1.0709  0.1155
  509MOL0     C68608  -2.264   4.180   1.109 -0.2455  0.1255  0.1511
  509MOL0     C68609  -2.211   3.996   0.929 -0.7786 -0.1828  0.5592
  509MOL0     C68610  -2.351   3.952   0.912  0.1149  0.3917 -0.6541
  509MOL0     O68611  -2.377   3.856   0.815  0.1411  0.0322  0.3399
  509MOL0     C68612  -2.484   3.775   0.791  0.5809 -0.3047 -0.3640
  509MOL0     C68613  -2.547   3.732   0.906 -0.3166 -0.5511 -0.7109
  509MOL0     C68614  -2.658   3.651   0.887  0.6053 -0.2506  0.0339
  509MOL0     C68615  -2.718   3.629   0.758  0.3995 -0.0041 -0.3405
  509MOL0     O68616  -2.840   3.561   0.751  0.6974  0.3514  0.2151
  509MOL0     C68617  -2.935   3.626   0.665 -0.0496 -0.3567  0.1155
  509MOL0     C68618  -3.051   3.679   0.760 -0.0639  0.0739  0.8554
  509MOL0     C68619  -3.174   3.707   0.671 -0.3721 -0.0805 -0.2180
  509MOL0     C68620  -3.301   3.755   0.746  0.0598  0.7166 -0.2227
  509MOL0     C68621  -3.417   3.770   0.644  0.3518 -0.4863 -0.4438
  509MOL0     C68622  -3.553   3.814   0.702 -0.1459  0.4969 -0.2560
  509MOL0     C68623  -3.612   3.712   0.798 -0.5079 -0.5668 -0.2296
  509MOL0     C68624  -3.719   3.779   0.894 -0.8179 -0.1549 -0.4591
  509MOL0    Cl68625  -3.846   3.860   0.811  0.0314  0.4329 -0.0650
  509MOL0     C68626  -2.648   3.672   0.646 -0.4307 -0.0835  0.0971
  509MOL0     C68627  -2.535   3.744   0.662  0.1482  0.8634  0.6032
  509MOL0     O68628  -2.440   4.001   0.991 -0.2365 -0.6993 -0.2923
  509MOL0     C68629  -2.111   3.929   0.853  0.8749 -0.3862  0.0033
  509MOL0     C68630  -1.976   3.958   0.855  0.7462 -0.0268  0.3144
  509MOL0     N68631  -1.263   4.388   1.116 -0.1984 -0.1418  0.1912
  509MOL0     N68632  -1.152   4.341   1.145 -0.7237 -0.1950  0.6717
  509MOL0     C68633   0.113   4.195   0.849  0.8785 -0.1860 -0.3609
  509MOL0     C68634   0.245   4.256   0.853  0.0041 -1.1550 -0.1432
  509MOL0     C68635   0.570   4.559   0.902 -0.1800 -0.1288 -0.6711
  509MOL0     C68636   0.622   4.642   0.803 -1.0326 -0.7412  0.0686
  509MOL0     C68637   0.733   4.730   0.825  0.1222 -0.3468 -0.0694
  509MOL0     C68638   0.786   4.739   0.952  0.4114 -0.0828 -0.0880
  509MOL0     O68639   0.877   4.829   0.998  0.7588 -0.1019 -0.2892
  509MOL0     C68640   0.919   4.946   0.927 -0.3000 -0.0903 -0.4235
  509MOL0     C68641   1.054   4.926   0.854 -0.2221 -0.1931  0.2070
  509MOL0     C68642   1.107   5.051   0.782  0.1102 -0.0808 -0.5991
  509MOL0     C68643   1.244   5.020   0.713 -0.5428  0.2706  0.5432
  509MOL0     C68644   1.305   5.147   0.664 -0.3656  0.4209  0.0655
  509MOL0     C68645   1.352   5.248   0.616  0.5402  0.2927 -0.1279
  509MOL0     C68646   0.745   4.648   1.050 -0.1395 -0.4027 -0.7568
  509MOL0     C68647   0.631   4.564   1.031  0.3777  0.0500 -0.3409
  509MOL0     H68648   0.250   4.362   1.178  1.4320  0.0552 -0.2443
  509MOL0     H68649   0.035   4.264   1.174 -0.5540 -0.4006 -0.7491
  509MOL0     H68650  -0.161   4.241   0.774  2.0389 -1.8957 -3.7033
  509MOL0     H68651  -0.116   4.072   0.793  0.9099 -0.7704  1.8036
  509MOL0     H68652  -0.365   4.082   0.778 -0.1275  0.8559 -0.0594
  509MOL0     H68653  -0.304   4.020   0.935  0.5316 -0.5030 -0.7640
  509MOL0     H68654  -0.332   4.266   1.022  1.0843 -1.0234  1.2264
  509MOL0     H68655  -0.405   4.294   0.861 -1.7787 -3.0258 -2.4848
  509MOL0     H68656  -0.542   4.070   0.916  1.2903 -0.1368 -1.0967
  509MOL0     H68657  -0.483   4.089   1.080  3.6672  2.1574  0.7023
  509MOL0     H68658  -0.624   4.280   1.117  0.0174  1.3011 -0.3465
  509MOL0     H68659  -0.638   4.317   0.941  0.4901 -0.4871  0.2270
  509MOL0     H68660  -0.773   4.106   0.919 -3.7137  2.7812 -1.1893
  509MOL0     H68661  -0.743   4.069   1.089  0.6070 -0.5511 -0.9075
  509MOL0     H68662  -0.855   4.271   1.159  2.7467  1.5322 -1.2493
  509MOL0     H68663  -0.883   4.325   0.985 -1.5782  0.0369  0.5658
  509MOL0     H68664  -1.019   4.104   1.150 -0.2328  1.0258  1.7659
  509MOL0     H68665  -1.020   4.084   0.970  0.5372  0.7148 -0.9240
  509MOL0     H68666  -1.240   4.168   0.873 -0.1247 -1.4226  0.4780
  509MOL0     H68667  -1.507   4.441   0.981 -1.4503 -1.2862  0.6683
  509MOL0     H68668  -1.428   4.390   0.830 -0.5130  0.1604 -0.3997
  509MOL0     H68669  -1.560   4.198   1.018 -1.0126 -0.4114 -0.4652
  509MOL0     H68670  -1.497   4.143   0.869 -0.0008 -0.4552  0.4540
  509MOL0     H68671  -1.653   4.303   0.746 -1.9598  0.4740  0.1832
  509MOL0     H68672  -1.727   4.321   0.917 -1.9595 -0.4838  0.2899
  509MOL0     H68673  -1.674   4.043   0.787  3.6839  0.8403  3.4175
  509MOL0     H68674  -1.818   4.140   0.739  1.1493  0.6601  0.2385
  509MOL0     H68675  -1.999   4.198   1.102 -1.5614  1.5733 -1.3371
  509MOL0     H68676  -2.208   4.240   1.182 -2.0899  0.8251  1.0698
  509MOL0     H68677  -2.323   4.241   1.042  1.5562 -1.8196 -3.5172
  509MOL0     H68678  -2.335   4.124   1.171 -0.3787 -0.3523 -0.4185
  509MOL0     H68679  -2.517   3.747   1.009 -0.5440 -1.5538 -0.4836
  509MOL0     H68680  -2.714   3.613   0.972 -2.2617 -0.7440 -1.9445
  509MOL0     H68681  -2.889   3.709   0.611  1.2286  0.3780  2.2203
  509MOL0     H68682  -2.978   3.557   0.592  1.1647  0.0588 -1.0310
  509MOL0     H68683  -3.078   3.603   0.833  2.3146 -0.2488  1.4506
  509MOL0     H68684  -3.016   3.768   0.813 -0.7794  3.1327 -3.2482
  509MOL0     H68685  -3.200   3.610   0.628 -0.4467  0.3814 -1.2502
  509MOL0     H68686  -3.144   3.785   0.600 -1.0300  0.5298  0.1561
  509MOL0     H68687  -3.329   3.679   0.820 -0.4536 -0.0287 -1.1552
  509MOL0     H68688  -3.292   3.848   0.802  1.3578 -0.6320  1.9459
  509MOL0     H68689  -3.440   3.673   0.600 -2.7342  0.0881 -0.3115
  509MOL0     H68690  -3.385   3.852   0.579 -0.2092  0.9452  1.0122
  509MOL0     H68691  -3.549   3.916   0.741  0.0172  1.4492 -2.5922
  509MOL0     H68692  -3.626   3.816   0.620 -2.4136 -2.6637  1.4714
  509MOL0     H68693  -3.529   3.666   0.852  0.7088 -1.9973 -3.0814
  509MOL0     H68694  -3.651   3.626   0.743  1.5713 -2.0880  0.5193
  509MOL0     H68695  -3.661   3.849   0.956 -4.0843  0.3214  2.3982
  509MOL0     H68696  -3.765   3.707   0.962 -1.2913 -0.1864 -0.8109
  509MOL0     H68697  -2.688   3.662   0.546  0.0551  0.9267 -0.2087
  509MOL0     H68698  -2.477   3.776   0.576 -2.2053  0.9401 -1.0433
  509MOL0     H68699  -2.153   3.854   0.787 -0.7690  0.1607  0.3820
  509MOL0     H68700  -1.906   3.910   0.787 -1.1703 -2.5250  0.0064
  509MOL0     H68701   0.083   4.158   0.752  0.2678  1.2868 -0.7750
  509MOL0     H68702   0.306   4.249   0.764  0.5072  0.1295  0.0818
  509MOL0     H68703   0.585   4.635   0.701  0.5768 -1.1133 -0.5204
  509MOL0     H68704   0.767   4.792   0.743 -1.6432 -2.1710 -2.3253
  509MOL0     H68705   0.845   4.979   0.854 -0.2924  1.0979  0.0885
  509MOL0     H68706   0.943   5.029   0.994 -4.7238  0.7312  0.4228
  509MOL0     H68707   1.042   4.847   0.779 -3.3187  0.3122  0.0540
  509MOL0     H68708   1.129   4.889   0.925 -1.3354 -0.5573  1.2086
  509MOL0     H68709   1.121   5.133   0.853 -2.1060  0.2769 -0.4900
  509MOL0     H68710   1.041   5.092   0.705  0.4078 -0.7830 -1.2420
  509MOL0     H68711   1.232   4.950   0.630  3.4591 -2.1737  1.7220
  509MOL0     H68712   1.318   4.976   0.781  1.7705 -1.2030 -2.6825
  509MOL0     H68713   1.371   5.331   0.552  2.0094 -1.6065 -2.3023
  509MOL0     H68714   0.795   4.641   1.146  2.2396 -3.2036 -2.0344
  509MOL0     H68715   0.591   4.512   1.116 -2.9250  0.6643 -1.3753
  510MOL0     O68716   1.413   3.565   7.070  0.4474  0.5209 -0.0499
  510MOL0     C68717   1.477   3.555   7.167 -0.1734  0.0399 -0.7350
  510MOL0     O68718   1.460   3.472   7.276  0.4621  0.7894 -0.0439
  510MOL0     C68719   1.333   3.425   7.295  0.1785  0.9015 -0.6026
  510MOL0     C68720   1.238   3.515   7.364 -0.8932  0.0434 -0.4345
  510MOL0     C68721   1.107   3.482   7.376  1.2864  0.4147 -0.1685
  510MOL0     C68722   1.071   3.350   7.333 -0.5361 -0.2814 -0.9049
  510MOL0     O68723   0.942   3.303   7.361  0.1222 -0.2161  0.2870
  510MOL0     C68724   0.906   3.280   7.495 -0.3164 -0.3766 -0.5229
  510MOL0     C68725   0.757   3.305   7.537 -0.2151 -1.1843  0.6923
  510MOL0     C68726   0.714   3.450   7.546 -0.1090  0.4619 -1.1512
  510MOL0     C68727   0.560   3.443   7.558  0.3522 -0.6528  0.1532
  510MOL0     C68728   0.506   3.583   7.585  0.6991 -0.8422  0.5898
  510MOL0     C68729   0.367   3.570   7.642  0.1078 -1.2330 -0.3430
  510MOL0     C68730   0.300   3.711   7.670 -0.5215  0.1701 -0.3070
  510MOL0     C68731   0.166   3.692   7.744  0.8199  1.0114 -0.8781
  510MOL0     N68732   0.083   3.807   7.738  0.2439  0.6004  0.2401
  510MOL0     C68733   0.011   3.856   7.631  0.2447 -0.7098  0.5855
  510MOL0     C68734  -0.054   3.969   7.674  0.1785  0.8452 -0.1288
  510MOL0     C68735  -0.144   4.062   7.592 -0.4814  0.1284  0.0743
  510MOL0     C68736  -0.281   4.082   7.651 -0.1888  0.0597 -0.4649
  510MOL0     C68737  -0.297   4.190   7.753  0.4252  0.4720 -0.4605
  510MOL0     C68738  -0.443   4.206   7.793  0.1816 -0.4466 -0.8408
  510MOL0     O68739  -0.465   4.297   7.907 -0.2657 -0.0216 -0.7453
  510MOL0     C68740  -0.580   4.363   7.924  0.4944 -0.8407  0.0800
  510MOL0     C68741  -0.700   4.347   7.848 -0.1571  0.6348  0.0482
  510MOL0     C68742  -0.821   4.423   7.879  0.0453  0.8769 -0.4886
  510MOL0     C68743  -0.945   4.369   7.807  0.1274  0.5179  0.9619
  510MOL0     C68744  -0.826   4.505   7.999  0.2285  0.1926 -0.1322
  510MOL0     C68745  -0.943   4.584   8.045  0.6887 -0.6102 -0.4129
  510MOL0     O68746  -0.939   4.636   8.172 -0.1475 -0.1101 -0.5576
  510MOL0     C68747  -1.046   4.710   8.211 -0.3062  0.0886 -0.2359
  510MOL0     C68748  -1.105   4.661   8.328 -0.1181  0.1425  1.2743
  510MOL0     C68749  -1.211   4.725   8.383  0.7526 -1.5216  0.3668
  510MOL0     C68750  -1.260   4.846   8.323 -0.5386  0.6712  0.1070
  510MOL0     O68751  -1.366   4.915   8.375 -0.4916  0.2755  0.0818
  510MOL0     C68752  -1.349   4.963   8.508  0.1054  0.7397  0.3691
  510MOL0     C68753  -1.257   5.084   8.512 -0.0354 -0.6430 -0.0562
  510MOL0     C68754  -1.230   5.133   8.654  0.1518 -0.6404  0.3055
  510MOL0     C68755  -1.146   5.263   8.648 -0.0306  0.7534 -0.3105
  510MOL0     C68756  -1.134   5.331   8.786 -0.3910 -0.5146 -0.5120
  510MOL0     C68757  -1.073   5.256   8.907 -0.1275 -0.9513  0.2619
  510MOL0     C68758  -0.926   5.209   8.862 -0.7950  0.1887  0.1964
  510MOL0     C68759  -0.837   5.193   8.982 -0.5715  0.2842  0.6092
  510MOL0    Cl68760  -0.849   5.320   9.102 -0.1522 -0.1748 -0.3764
  510MOL0     C68761  -1.200   4.893   8.204 -0.3817 -0.3777  0.3094
  510MOL0     C68762  -1.090   4.829   8.148 -0.6767 -0.0641 -0.1999
  510MOL0     O68763  -1.037   4.601   7.971 -0.3277  0.1489 -0.2103
  510MOL0     C68764  -0.708   4.509   8.077  0.1597 -0.0551  0.3363
  510MOL0     C68765  -0.595   4.437   8.035 -0.0467 -0.3420  0.6416
  510MOL0     N68766  -0.015   3.988   7.808  0.1896 -0.5338 -0.5243
  510MOL0     N68767   0.060   3.887   7.844  0.0660 -0.0731 -0.5220
  510MOL0     C68768   1.165   3.250   7.282 -0.7443  0.0649 -0.0667
  510MOL0     C68769   1.295   3.294   7.260 -0.5286 -0.0302 -1.0178
  510MOL0     C68770   1.597   3.650   7.170  0.0772 -0.2576  0.5955
  510MOL0     C68771   1.633   3.721   7.052  0.1618  0.6848 -0.3930
  510MOL0     C68772   1.759   3.781   7.050  0.7390 -0.1634 -0.3745
  510MOL0     C68773   1.827   3.809   7.165 -0.0805 -0.3665 -0.5906
  510MOL0     O68774   1.950   3.876   7.158 -0.0635  1.0165  0.6424
  510MOL0     C68775   2.052   3.808   7.080  0.7862 -0.0151  0.1893
  510MOL0     C68776   2.191   3.846   7.119 -0.8709  0.1439 -0.1020
  510MOL0     C68777   2.292   3.779   7.019 -0.2931 -1.0399 -0.8019
  510MOL0     C68778   2.443   3.775   7.063  0.5603 -0.4960  0.2791
  510MOL0     C68779   2.480   3.911   7.112  0.4721  0.6274 -0.0842
  510MOL0     C68780   2.522   4.011   7.151 -0.4321  0.4004 -0.4462
  510MOL0     C68781   1.785   3.745   7.287 -0.4343  0.0688  0.3242
  510MOL0     C68782   1.672   3.666   7.288  0.1993  0.2148  0.1456
  510MOL0     H68783   1.286   3.607   7.395  2.1042 -1.8489  1.0094
  510MOL0     H68784   1.038   3.541   7.436 -0.0187  0.9782 -2.1596
  510MOL0     H68785   0.926   3.176   7.524  4.1517  0.3956 -0.1757
  510MOL0     H68786   0.969   3.332   7.567  0.6191 -0.4461 -1.2707
  510MOL0     H68787   0.693   3.251   7.467  0.6913 -1.4583  0.0535
  510MOL0     H68788   0.745   3.268   7.639 -0.1910  4.7398  3.2534
  510MOL0     H68789   0.760   3.491   7.636 -1.2522 -0.7940  0.0389
  510MOL0     H68790   0.745   3.510   7.459  0.2180  2.1057  0.0592
  510MOL0     H68791   0.514   3.393   7.472 -1.9402  1.9417 -0.2698
  510MOL0     H68792   0.537   3.389   7.650 -0.3083  1.4353  1.2725
  510MOL0     H68793   0.567   3.639   7.657  2.6968  1.3733 -2.5742
  510MOL0     H68794   0.504   3.643   7.493  1.3103  2.0323  2.3212
  510MOL0     H68795   0.304   3.520   7.567 -0.5074  0.3080 -0.8802
  510MOL0     H68796   0.375   3.523   7.741  2.5406 -2.6482 -1.1192
  510MOL0     H68797   0.370   3.764   7.735 -0.0590 -0.7512 -0.0489
  510MOL0     H68798   0.274   3.765   7.578 -4.9362  0.7710  1.0303
  510MOL0     H68799   0.177   3.659   7.848 -1.0059  1.1072 -0.6319
  510MOL0     H68800   0.109   3.621   7.683  1.0861 -0.3270  0.3856
  510MOL0     H68801   0.002   3.803   7.537 -1.5053 -1.6606  1.2484
  510MOL0     H68802  -0.090   4.154   7.568 -0.0568  0.0054  0.5372
  510MOL0     H68803  -0.169   3.997   7.507 -0.0977 -2.5677  1.8979
  510MOL0     H68804  -0.298   3.985   7.700  0.3253 -0.4170 -1.2069
  510MOL0     H68805  -0.354   4.089   7.570 -1.6348 -1.8260  0.5701
  510MOL0     H68806  -0.260   4.287   7.720 -1.2265  1.4483  0.4233
  510MOL0     H68807  -0.235   4.172   7.842  0.0952  3.7567  0.5760
  510MOL0     H68808  -0.485   4.110   7.823  1.1135 -1.4382 -2.6051
  510MOL0     H68809  -0.499   4.251   7.710  0.9050 -1.2853 -1.7981
  510MOL0     H68810  -0.696   4.277   7.765 -0.4876 -0.1099  0.6485
  510MOL0     H68811  -0.917   4.296   7.730 -0.3330  2.4035 -1.0878
  510MOL0     H68812  -1.010   4.322   7.881  3.2398 -0.7869  3.0607
  510MOL0     H68813  -1.009   4.450   7.770  0.8748  0.9844  0.6652
  510MOL0     H68814  -1.074   4.568   8.375 -0.8256 -0.2911  0.9021
  510MOL0     H68815  -1.269   4.680   8.463  0.3261 -0.5328  0.6335
  510MOL0     H68816  -1.447   4.999   8.539 -2.2533 -4.1800 -0.3508
  510MOL0     H68817  -1.322   4.885   8.580 -0.9913  1.7267  1.9156
  510MOL0     H68818  -1.161   5.062   8.464 -0.5451  0.5848 -1.7371
  510MOL0     H68819  -1.297   5.168   8.455  0.6372  0.3953  0.9612
  510MOL0     H68820  -1.195   5.073   8.738  1.1522  1.5569  1.5648
  510MOL0     H68821  -1.330   5.148   8.695 -0.2748 -4.2222  0.8183
  510MOL0     H68822  -1.047   5.226   8.619 -0.6412  0.2616 -1.8538
  510MOL0     H68823  -1.193   5.336   8.582 -0.9244  2.9603  2.5557
  510MOL0     H68824  -1.235   5.357   8.820 -0.3070 -1.7879  0.7862
  510MOL0     H68825  -1.083   5.426   8.765 -2.3706  0.7278  0.0305
  510MOL0     H68826  -1.072   5.318   8.997  0.6841  0.3224 -0.5880
  510MOL0     H68827  -1.131   5.166   8.928 -1.5044  0.2188  1.6962
  510MOL0     H68828  -0.870   5.285   8.807  2.8377 -2.1933  0.2905
  510MOL0     H68829  -0.930   5.116   8.805  0.5558 -0.8140  1.6671
  510MOL0     H68830  -0.733   5.177   8.953 -1.0991 -1.6152 -0.4465
  510MOL0     H68831  -0.865   5.097   9.026 -0.5010  0.8225  1.8624
  510MOL0     H68832  -1.227   4.994   8.173  0.9787 -0.7180 -2.1819
  510MOL0     H68833  -1.041   4.882   8.066  0.9110  2.5244  2.2522
  510MOL0     H68834  -0.699   4.573   8.163 -0.7165  0.0965  0.3219
  510MOL0     H68835  -0.507   4.450   8.097 -0.0386  0.3366  0.4970
  510MOL0     H68836   1.143   3.148   7.252  1.4961 -0.1552 -1.1626
  510MOL0     H68837   1.352   3.224   7.198 -0.8454 -0.8727 -0.3701
  510MOL0     H68838   1.580   3.713   6.958  0.9048 -0.4891 -0.7377
  510MOL0     H68839   1.804   3.798   6.952  0.5905 -4.0977 -1.2822
  510MOL0     H68840   2.028   3.704   7.100 -2.4595 -0.5094 -4.5655
  510MOL0     H68841   2.036   3.828   6.974 -1.1156  1.1881  0.6487
  510MOL0     H68842   2.212   3.816   7.222 -3.2416  0.9266  0.6504
  510MOL0     H68843   2.210   3.953   7.117  3.7265 -0.4690 -1.0661
  510MOL0     H68844   2.291   3.832   6.924  0.4969 -0.3024 -0.4092
  510MOL0     H68845   2.275   3.675   6.989  1.9026 -1.6722 -0.0407
  510MOL0     H68846   2.498   3.741   6.974 -0.8064 -0.5258 -0.5757
  510MOL0     H68847   2.463   3.710   7.148  1.0852  0.9988  1.3403
  510MOL0     H68848   2.576   4.098   7.184  0.9055 -0.6483  0.2135
  510MOL0     H68849   1.840   3.769   7.377 -1.4133  1.2443  0.6472
  510MOL0     H68850   1.636   3.622   7.380 -0.2838  2.5152  1.1071
  511MOL0     O68851   9.993  10.343   4.472 -0.0007 -0.4426 -0.4908
  511MOL0     C68852  10.109  10.376   4.505  0.2798  0.1797  0.6494
  511MOL0     O68853  10.140  10.489   4.576  0.3449 -0.5847 -0.1907
  511MOL0     C68854  10.027  10.565   4.613  0.3341 -0.3654  0.1187
  511MOL0     C68855  10.013  10.696   4.552  0.1040 -0.6699  0.3120
  511MOL0     C68856   9.905  10.779   4.585  0.9019  0.0767  0.3753
  511MOL0     C68857   9.800  10.735   4.669 -0.6291 -1.2352 -0.6935
  511MOL0     O68858   9.683  10.806   4.694  0.3285  0.3898 -0.5708
  511MOL0     C68859   9.666  10.935   4.635 -0.4118  0.0362 -0.0687
  511MOL0     C68860   9.519  10.967   4.630  0.1156  0.0760  0.6182
  511MOL0     C68861   9.450  10.982   4.765  0.3911 -0.4727  0.5256
  511MOL0     C68862   9.305  11.036   4.764 -0.0255  0.3170  0.4581
  511MOL0     C68863   9.265  11.075   4.902  0.3275  0.0264 -0.9434
  511MOL0     C68864   9.142  11.171   4.924 -0.6254 -0.6393  0.1504
  511MOL0     C68865   9.027  11.163   4.823  0.5438 -0.0706 -0.0327
  511MOL0     C68866   8.938  11.038   4.849  0.0322 -0.9638 -0.4650
  511MOL0     N68867   8.885  11.018   4.991  0.7115  0.3126 -0.4350
  511MOL0     C68868   8.762  11.062   5.040 -0.6405 -0.0817  0.1506
  511MOL0     C68869   8.749  11.025   5.167 -0.5857  1.3359  0.1583
  511MOL0     C68870   8.648  11.064   5.269  0.1448  0.2678 -0.5191
  511MOL0     C68871   8.541  10.955   5.294 -0.3698  0.0243 -0.5370
  511MOL0     C68872   8.467  10.900   5.176 -0.2873  0.3661  0.1218
  511MOL0     C68873   8.366  10.995   5.115  1.1085  0.0409  0.1288
  511MOL0     O68874   8.254  11.009   5.200  0.4554  0.1127 -0.0946
  511MOL0     C68875   8.138  10.945   5.167  0.3604 -0.6002 -0.3736
  511MOL0     C68876   8.017  11.023   5.159  0.3570  0.6597  0.5114
  511MOL0     C68877   7.887  10.957   5.148 -0.9865 -1.0517  0.0385
  511MOL0     C68878   7.769  11.057   5.146 -0.1657  0.4972  0.3777
  511MOL0     C68879   7.880  10.818   5.159  0.6183  0.1000  0.3527
  511MOL0     C68880   7.754  10.749   5.181  0.5765 -0.2857  0.9529
  511MOL0     O68881   7.673  10.799   5.278 -0.0898  0.0848  0.1921
  511MOL0     C68882   7.546  10.743   5.311 -0.1368 -0.5659 -0.1570
  511MOL0     C68883   7.509  10.761   5.447  0.4674 -0.3630  0.0030
  511MOL0     C68884   7.377  10.740   5.494  0.0763 -0.3726  0.5523
  511MOL0     C68885   7.279  10.684   5.405 -0.3925 -1.0183  0.5114
  511MOL0     O68886   7.156  10.637   5.442  0.1391 -0.3363  0.1802
  511MOL0     C68887   7.073  10.710   5.544 -0.7350 -0.4896  0.1942
  511MOL0     C68888   6.930  10.675   5.553  0.6144  0.4722 -0.3400
  511MOL0     C68889   6.918  10.565   5.653 -0.2893  0.4096  0.2005
  511MOL0     C68890   6.784  10.524   5.686 -0.0809 -0.3900 -0.9173
  511MOL0     C68891   6.776  10.383   5.753 -0.1057  0.4271 -0.0863
  511MOL0     C68892   6.836  10.266   5.676  0.6986 -0.4107  0.6810
  511MOL0     C68893   6.778  10.130   5.716 -1.1770 -0.6865  1.0910
  511MOL0     C68894   6.886  10.020   5.703  0.0525 -0.6098 -0.4272
  511MOL0    Cl68895   6.808   9.858   5.749 -0.2419 -0.2161 -0.1998
  511MOL0     C68896   7.318  10.656   5.274 -0.0049  0.0380  0.0091
  511MOL0     C68897   7.443  10.683   5.226  0.1446  0.3728 -0.4103
  511MOL0     O68898   7.729  10.654   5.105 -0.6601 -0.7065 -0.0434
  511MOL0     C68899   8.001  10.747   5.154 -0.1110 -0.5122 -0.1489
  511MOL0     C68900   8.129  10.808   5.155 -0.0060  0.9194 -0.4011
  511MOL0     N68901   8.869  10.965   5.199 -0.0419 -0.1880  0.4330
  511MOL0     N68902   8.943  10.956   5.092 -0.0505  0.6423 -0.7004
  511MOL0     C68903   9.818  10.610   4.730  0.9855 -0.1427 -1.5156
  511MOL0     C68904   9.927  10.522   4.706  0.0809 -0.1917  0.6696
  511MOL0     C68905  10.211  10.271   4.476 -0.5395 -0.3811  1.0551
  511MOL0     C68906  10.342  10.280   4.528 -0.6579 -0.5431 -0.1037
  511MOL0     C68907  10.434  10.184   4.499 -0.5604 -0.8061 -0.8043
  511MOL0     C68908  10.406  10.078   4.418 -1.0150 -1.0935  0.8447
  511MOL0     O68909  10.509   9.990   4.378  0.1905 -0.1371 -0.2430
  511MOL0     C68910  10.490   9.896   4.265  0.1682  0.0193 -1.0363
  511MOL0     C68911  10.615   9.815   4.244  0.4413 -0.4499 -0.8285
  511MOL0     C68912  10.726   9.912   4.189  0.0722  0.1668 -0.6487
  511MOL0     C68913  10.862   9.850   4.219  0.3368 -0.0121  0.5948
  511MOL0     C68914  10.970   9.933   4.161 -0.4721 -0.2907  0.4170
  511MOL0     C68915  11.064   9.993   4.124  0.4334  0.0468  0.6048
  511MOL0     C68916  10.281  10.056   4.372 -0.5501 -0.1797 -0.0761
  511MOL0     C68917  10.184  10.154   4.401 -0.2288  0.9096 -0.4190
  511MOL0     H68918  10.095  10.712   4.482 -0.9127  0.2274 -0.7095
  511MOL0     H68919   9.900  10.877   4.539 -1.6181 -0.7457 -1.3697
  511MOL0     H68920   9.720  11.012   4.690  0.0707 -1.2312  1.3037
  511MOL0     H68921   9.697  10.927   4.530  1.5780 -1.6470  0.5729
  511MOL0     H68922   9.501  11.053   4.564 -1.3540 -0.1659  0.6625
  511MOL0     H68923   9.475  10.882   4.578  3.3326 -0.7541 -1.0110
  511MOL0     H68924   9.444  10.887   4.820  0.4346 -1.2983 -0.8436
  511MOL0     H68925   9.512  11.053   4.820 -0.7273  0.6415  0.3660
  511MOL0     H68926   9.300  11.128   4.705 -0.4766  0.3708  0.5728
  511MOL0     H68927   9.237  10.964   4.717 -0.3504  0.8348  0.1297
  511MOL0     H68928   9.251  10.987   4.965  1.9080 -0.5804 -1.3831
  511MOL0     H68929   9.352  11.125   4.946 -0.1986 -1.1582  1.5825
  511MOL0     H68930   9.108  11.174   5.028  1.3119 -0.1906  0.8248
  511MOL0     H68931   9.185  11.269   4.903 -1.1828 -0.4147  0.0491
  511MOL0     H68932   8.969  11.256   4.825  0.4202 -0.0341 -2.5478
  511MOL0     H68933   9.047  11.172   4.716  0.4052  2.1808  0.0668
  511MOL0     H68934   8.979  10.941   4.820  0.4248 -2.0555  3.3030
  511MOL0     H68935   8.854  11.046   4.779  1.0709 -2.0761 -1.8980
  511MOL0     H68936   8.686  11.108   4.977  0.6069  0.2477 -1.1797
  511MOL0     H68937   8.684  11.083   5.370 -1.9943 -0.6721  0.4807
  511MOL0     H68938   8.602  11.159   5.240  0.3709  0.8644  0.9900
  511MOL0     H68939   8.475  10.994   5.372 -0.4506  1.8087 -1.4350
  511MOL0     H68940   8.590  10.863   5.328 -2.7766 -1.4312 -0.7736
  511MOL0     H68941   8.426  10.801   5.196 -0.3377  0.4975  0.6710
  511MOL0     H68942   8.538  10.868   5.098 -1.9920  1.1028 -1.8297
  511MOL0     H68943   8.345  10.967   5.012  3.6627  3.5728 -1.5434
  511MOL0     H68944   8.406  11.096   5.104 -1.3433  0.8850 -2.1105
  511MOL0     H68945   8.015  11.131   5.169  0.9089  1.0023 -2.3370
  511MOL0     H68946   7.686  11.025   5.083 -0.6700  0.5919  0.9867
  511MOL0     H68947   7.730  11.070   5.247 -0.8623 -2.8747  0.6666
  511MOL0     H68948   7.796  11.153   5.101  1.1441 -0.3046 -0.6278
  511MOL0     H68949   7.576  10.784   5.529 -1.7094 -2.6356  2.6470
  511MOL0     H68950   7.347  10.741   5.599 -0.6724 -0.7570  0.3525
  511MOL0     H68951   7.107  10.715   5.648 -1.8170 -0.2725  0.5447
  511MOL0     H68952   7.085  10.813   5.508 -1.6213 -1.0567 -1.8858
  511MOL0     H68953   6.871  10.755   5.599  0.5946  1.2153 -1.6340
  511MOL0     H68954   6.895  10.646   5.454  1.7202 -0.0900 -0.5916
  511MOL0     H68955   6.965  10.593   5.748  0.0096 -1.1075  0.5218
  511MOL0     H68956   6.975  10.481   5.612  2.5211  1.9874  0.5498
  511MOL0     H68957   6.740  10.596   5.756 -1.4295 -1.7911 -0.2848
  511MOL0     H68958   6.736  10.525   5.588  1.7972 -0.9866 -1.8787
  511MOL0     H68959   6.670  10.361   5.772  0.4682 -0.1035  3.0219
  511MOL0     H68960   6.834  10.384   5.846  0.2131 -1.0957 -0.2454
  511MOL0     H68961   6.831  10.279   5.568  1.6179 -3.2269  0.2247
  511MOL0     H68962   6.944  10.263   5.696  0.4581 -0.7813  2.0152
  511MOL0     H68963   6.684  10.106   5.665 -0.9453  1.5304 -0.4755
  511MOL0     H68964   6.737  10.125   5.818  0.4551 -0.8825  1.7628
  511MOL0     H68965   6.969  10.053   5.766  0.4615  1.7985 -2.1197
  511MOL0     H68966   6.932  10.017   5.604  2.8862 -0.9958  0.7965
  511MOL0     H68967   7.245  10.608   5.209 -1.4436 -0.6724  2.0541
  511MOL0     H68968   7.462  10.669   5.120 -0.2977  2.4842 -0.8284
  511MOL0     H68969   7.983  10.640   5.164 -1.7618 -0.6060 -2.9750
  511MOL0     H68970   8.221  10.753   5.168  0.9439  2.6475  0.6230
  511MOL0     H68971   9.737  10.572   4.790  0.4433  0.0546 -2.1081
  511MOL0     H68972   9.938  10.432   4.767 -1.2476 -0.1420  1.0104
  511MOL0     H68973  10.363  10.360   4.598 -0.0008 -2.5737  2.1528
  511MOL0     H68974  10.530  10.198   4.547 -0.4841  0.2182 -1.2197
  511MOL0     H68975  10.424   9.815   4.297  0.8496 -0.6634 -1.3382
  511MOL0     H68976  10.456   9.946   4.174 -0.6771 -0.1554 -0.8258
  511MOL0     H68977  10.596   9.729   4.179  1.5541 -1.8316  0.5932
  511MOL0     H68978  10.653   9.778   4.340  0.5029 -0.2379 -0.7712
  511MOL0     H68979  10.728  10.010   4.239 -2.3432  1.1844 -2.3837
  511MOL0     H68980  10.706   9.929   4.083  1.9174  2.3058 -0.7374
  511MOL0     H68981  10.869   9.746   4.184 -0.4171  0.0212  0.3293
  511MOL0     H68982  10.881   9.835   4.326 -2.1900 -0.7242  1.0234
  511MOL0     H68983  11.145  10.049   4.082 -1.6999 -0.0108 -4.1903
  511MOL0     H68984  10.253   9.968   4.314  0.7110  0.1842 -1.3015
  511MOL0     H68985  10.083  10.144   4.361  0.1557  1.5274 -1.5929
  512MOL0     O68986   0.704   5.091   2.865  0.2002 -0.7919  0.2398
  512MOL0     C68987   0.711   5.092   2.982 -0.2225  0.2682  0.5433
  512MOL0     O68988   0.623   5.160   3.059  0.1765 -0.5403 -0.8529
  512MOL0     C68989   0.536   5.251   3.004 -0.0246 -0.3807  0.2298
  512MOL0     C68990   0.549   5.377   3.049 -0.9050 -0.6409  0.3699
  512MOL0     C68991   0.468   5.479   2.994 -0.4977  0.7282 -0.3097
  512MOL0     C68992   0.368   5.454   2.905  0.0259 -0.1996  1.1742
  512MOL0     O68993   0.287   5.558   2.874 -0.2824 -0.6682  0.1762
  512MOL0     C68994   0.150   5.538   2.912 -0.1127 -0.0901  0.4208
  512MOL0     C68995   0.073   5.660   2.863  1.0687 -0.0182 -0.2925
  512MOL0     C68996  -0.084   5.625   2.879  0.1131 -1.4333  0.7408
  512MOL0     C68997  -0.174   5.733   2.934  0.3911  0.2104 -0.0589
  512MOL0     C68998  -0.320   5.718   2.911  1.0935  0.8814  0.0193
  512MOL0     C68999  -0.401   5.845   2.954  0.0288  0.4057  0.2767
  512MOL0     C69000  -0.548   5.825   2.944  1.2559 -1.1354 -0.7691
  512MOL0     C69001  -0.633   5.957   2.970 -0.8881 -0.0819  0.4675
  512MOL0     N69002  -0.772   5.918   2.984  0.3228 -0.3701 -0.1137
  512MOL0     C69003  -0.859   5.856   2.905 -0.3652 -0.3034  0.4149
  512MOL0     C69004  -0.973   5.846   2.974  0.6377  0.1514  1.1046
  512MOL0     C69005  -1.095   5.759   2.921  0.1003 -0.1225  0.3697
  512MOL0     C69006  -1.233   5.809   2.971 -0.1526 -0.3077  0.0432
  512MOL0     C69007  -1.342   5.760   2.885 -1.0025  0.4303  0.4952
  512MOL0     C69008  -1.474   5.807   2.917  0.1655  0.4008 -0.7930
  512MOL0     O69009  -1.562   5.732   2.830  0.2868 -0.2311  0.1444
  512MOL0     C69010  -1.687   5.791   2.801  0.0065 -0.3558 -0.5823
  512MOL0     C69011  -1.740   5.911   2.846 -0.2599 -0.3917  0.2743
  512MOL0     C69012  -1.873   5.947   2.815  0.3555 -0.4812  0.1940
  512MOL0     C69013  -1.939   6.069   2.872  0.2912  0.3044 -0.3358
  512MOL0     C69014  -1.956   5.855   2.734 -0.0950 -0.7278 -1.0331
  512MOL0     C69015  -2.104   5.871   2.691  0.4229  0.7781  0.6753
  512MOL0     O69016  -2.182   5.954   2.757 -0.1345 -0.2745 -0.0415
  512MOL0     C69017  -2.305   5.975   2.701 -0.4625  0.5755 -1.4561
  512MOL0     C69018  -2.330   6.048   2.587  0.0579  0.1434 -0.3191
  512MOL0     C69019  -2.455   6.085   2.550  0.7740  0.4322  0.0811
  512MOL0     C69020  -2.569   6.055   2.636 -0.4939  0.5094 -0.6613
  512MOL0     O69021  -2.694   6.095   2.621  0.5007  0.6092  0.3117
  512MOL0     C69022  -2.734   6.153   2.490 -0.8089 -0.1068 -0.0884
  512MOL0     C69023  -2.887   6.148   2.486 -0.5037 -0.8674 -0.4809
  512MOL0     C69024  -2.941   6.010   2.462  0.0869 -0.2533 -0.0642
  512MOL0     C69025  -3.096   6.017   2.461 -0.6546 -0.0341 -0.1004
  512MOL0     C69026  -3.158   5.878   2.446 -0.1194  0.0824  0.5480
  512MOL0     C69027  -3.309   5.894   2.442 -0.2714  0.0266 -0.8799
  512MOL0     C69028  -3.381   5.761   2.462 -0.5914 -0.2801 -0.0131
  512MOL0     C69029  -3.529   5.778   2.462 -0.8820 -0.7023 -0.1735
  512MOL0    Cl69030  -3.592   5.616   2.455 -0.0731 -0.3399 -0.3307
  512MOL0     C69031  -2.540   5.987   2.754 -0.0501  0.7461  0.2137
  512MOL0     C69032  -2.407   5.940   2.783 -0.1431 -0.0771  0.2765
  512MOL0     O69033  -2.144   5.801   2.593  0.3041 -0.6182 -0.8606
  512MOL0     C69034  -1.889   5.739   2.683  0.1121 -0.4107 -1.6581
  512MOL0     C69035  -1.756   5.709   2.719  0.4057  0.0770 -0.5794
  512MOL0     N69036  -0.948   5.902   3.094 -0.2873 -0.1267 -0.0417
  512MOL0     N69037  -0.831   5.944   3.096  0.6037  0.3195 -0.1005
  512MOL0     C69038   0.358   5.322   2.851 -0.2875  0.1962 -0.3421
  512MOL0     C69039   0.434   5.217   2.912  0.0647  0.7599 -0.2547
  512MOL0     C69040   0.839   5.045   3.047 -0.0400  0.5887  0.5657
  512MOL0     C69041   0.841   5.031   3.182  0.6817  0.4143  0.6850
  512MOL0     C69042   0.964   4.982   3.251  0.1554 -1.3859 -0.4126
  512MOL0     C69043   1.080   4.953   3.172  1.1203 -0.2883 -0.5560
  512MOL0     O69044   1.189   4.913   3.245 -0.1300 -0.0804  0.6728
  512MOL0     C69045   1.319   4.899   3.181 -0.9068 -0.2407 -1.2223
  512MOL0     C69046   1.429   4.877   3.288 -0.6380  0.2343 -1.3746
  512MOL0     C69047   1.431   4.733   3.333  0.5936  0.0430  1.0865
  512MOL0     C69048   1.546   4.711   3.426  0.3349  0.0521 -0.5044
  512MOL0     C69049   1.529   4.576   3.485 -0.2846 -0.2945 -0.6748
  512MOL0     C69050   1.509   4.467   3.528  0.7094  0.1161 -0.9195
  512MOL0     C69051   1.072   4.976   3.034  0.4382  0.1984  0.0415
  512MOL0     C69052   0.956   5.015   2.970  0.1670  0.6994 -0.5784
  512MOL0     H69053   0.633   5.406   3.112  0.1512 -1.5437 -0.5785
  512MOL0     H69054   0.484   5.581   3.026 -3.9536  2.2151 -2.6719
  512MOL0     H69055   0.116   5.440   2.875  0.3557  0.7860 -2.5505
  512MOL0     H69056   0.137   5.530   3.020 -0.9701 -4.5750  0.1926
  512MOL0     H69057   0.101   5.743   2.928  0.7078  0.5968 -0.9013
  512MOL0     H69058   0.097   5.700   2.763 -1.7028 -0.5878 -1.2760
  512MOL0     H69059  -0.138   5.600   2.788  0.2834  2.4603 -0.5928
  512MOL0     H69060  -0.091   5.540   2.948 -0.1587 -0.7802  1.5330
  512MOL0     H69061  -0.147   5.754   3.038 -0.9193  0.3037  0.2736
  512MOL0     H69062  -0.148   5.822   2.876 -2.3377  1.1590  0.0220
  512MOL0     H69063  -0.331   5.708   2.802  3.8924  0.7211 -0.3196
  512MOL0     H69064  -0.364   5.637   2.971  1.5484  1.4333  1.1098
  512MOL0     H69065  -0.380   5.868   3.058 -1.8436  2.4875  0.2763
  512MOL0     H69066  -0.371   5.931   2.893  0.7865 -0.3321 -0.4111
  512MOL0     H69067  -0.571   5.799   2.840  0.4349  1.8633 -1.4389
  512MOL0     H69068  -0.585   5.746   3.010  0.6494 -0.6576 -0.5275
  512MOL0     H69069  -0.632   6.029   2.888 -0.2136 -1.1640 -0.5090
  512MOL0     H69070  -0.603   6.008   3.062 -3.0126 -0.8699  1.6691
  512MOL0     H69071  -0.844   5.804   2.811  0.8461  0.2463  0.2841
  512MOL0     H69072  -1.101   5.768   2.812  0.1485  0.8194  0.4374
  512MOL0     H69073  -1.093   5.654   2.951 -0.6076  0.0864  1.1878
  512MOL0     H69074  -1.242   5.918   2.973 -3.3350 -0.4783  1.7326
  512MOL0     H69075  -1.243   5.764   3.070  0.5660 -2.3827 -0.7792
  512MOL0     H69076  -1.341   5.651   2.901  0.5282  0.6949  2.5725
  512MOL0     H69077  -1.321   5.768   2.778  2.7641 -1.1028  0.9570
  512MOL0     H69078  -1.478   5.915   2.898  3.0129  0.7027 -0.1262
  512MOL0     H69079  -1.493   5.795   3.024  1.9997  0.3779 -0.4395
  512MOL0     H69080  -1.681   5.964   2.919  0.4032  0.1548 -0.6364
  512MOL0     H69081  -2.037   6.048   2.915  0.6346 -0.7262 -0.0112
  512MOL0     H69082  -1.886   6.115   2.956 -4.5680  1.7362  2.2948
  512MOL0     H69083  -1.961   6.143   2.794 -2.1643 -2.7594 -2.8300
  512MOL0     H69084  -2.250   6.071   2.517  1.2227  0.4940  1.0699
  512MOL0     H69085  -2.470   6.136   2.456 -2.1580  3.6388  2.0431
  512MOL0     H69086  -2.701   6.258   2.496  0.9749 -0.5624 -1.2879
  512MOL0     H69087  -2.701   6.096   2.403 -2.5494 -2.1575  0.5036
  512MOL0     H69088  -2.921   6.186   2.583 -0.8102 -1.6964 -0.2526
  512MOL0     H69089  -2.911   6.221   2.408  1.5401 -1.3525 -1.6472
  512MOL0     H69090  -2.905   5.946   2.543 -1.3868 -1.8827 -0.6392
  512MOL0     H69091  -2.899   5.974   2.368  1.2088 -0.9703  0.6890
  512MOL0     H69092  -3.132   6.068   2.551  2.8628 -0.5547  1.7727
  512MOL0     H69093  -3.129   6.083   2.380 -1.4686  1.4589  1.3550
  512MOL0     H69094  -3.126   5.816   2.531 -0.3542 -1.7816 -0.6601
  512MOL0     H69095  -3.115   5.823   2.361 -0.4698 -0.1295  0.5063
  512MOL0     H69096  -3.343   5.966   2.516  2.2182  0.5210 -0.1244
  512MOL0     H69097  -3.344   5.921   2.342  1.3122  0.2745 -1.4089
  512MOL0     H69098  -3.339   5.699   2.543  2.5878 -0.3589 -1.5761
  512MOL0     H69099  -3.365   5.701   2.372  1.6580  1.3041 -0.7446
  512MOL0     H69100  -3.552   5.827   2.368 -0.2814 -0.5370 -0.2372
  512MOL0     H69101  -3.568   5.825   2.553  0.2078  1.6665 -0.8517
  512MOL0     H69102  -2.611   5.953   2.828 -1.1740  0.9186 -0.7449
  512MOL0     H69103  -2.386   5.891   2.877  1.5882 -1.4479 -0.7527
  512MOL0     H69104  -1.940   5.658   2.631 -0.5934 -1.2772  0.2721
  512MOL0     H69105  -1.712   5.620   2.675 -2.4264 -2.5543  1.5032
  512MOL0     H69106   0.278   5.302   2.781 -1.4635 -0.5569  1.1483
  512MOL0     H69107   0.417   5.115   2.878  0.4284  0.9927 -1.1827
  512MOL0     H69108   0.749   5.047   3.237  0.8500  2.9009  0.3578
  512MOL0     H69109   0.962   4.980   3.359 -1.1139  1.3265 -0.2887
  512MOL0     H69110   1.306   4.816   3.111 -1.0636 -0.7651 -0.5847
  512MOL0     H69111   1.343   4.990   3.126  2.1319  0.9211  1.6993
  512MOL0     H69112   1.422   4.942   3.376  0.1989 -2.8961  1.2054
  512MOL0     H69113   1.528   4.892   3.243 -0.3944 -1.5089 -1.4687
  512MOL0     H69114   1.440   4.669   3.245  0.3381  1.0770  0.2937
  512MOL0     H69115   1.335   4.715   3.382 -0.3700  0.6691 -0.5093
  512MOL0     H69116   1.554   4.781   3.509  1.7292 -2.8496  2.0248
  512MOL0     H69117   1.644   4.716   3.377  1.2810  0.9092  1.3614
  512MOL0     H69118   1.488   4.373   3.574 -0.0436  0.4054 -0.6473
  512MOL0     H69119   1.157   4.943   2.975  1.6983 -1.3371  2.5695
  512MOL0     H69120   0.950   5.013   2.861  0.2414 -3.7477 -0.6908
  513MOL0     O69121   2.843   5.442   1.063 -0.2344  0.6985 -0.7410
  513MOL0     C69122   2.931   5.531   1.068  0.4938  0.3563  0.5380
  513MOL0     O69123   2.909   5.672   1.064  0.5382 -0.1868 -0.5392
  513MOL0     C69124   2.786   5.730   1.076 -1.0211 -0.9463 -0.0648
  513MOL0     C69125   2.657   5.680   1.073 -0.1819  0.2135  0.8650
  513MOL0     C69126   2.544   5.761   1.094 -0.6937 -0.7770 -0.1255
  513MOL0     C69127   2.564   5.901   1.109 -0.0322 -0.2152  0.0107
  513MOL0     O69128   2.450   5.966   1.144 -0.9768  0.6307 -0.6522
  513MOL0     C69129   2.433   6.106   1.116  0.1313  0.1545  1.0253
  513MOL0     C69130   2.333   6.171   1.209 -0.0651  0.1602 -0.1095
  513MOL0     C69131   2.334   6.324   1.200  0.1184  0.9402  0.3148
  513MOL0     C69132   2.216   6.380   1.280 -0.8565  0.5560 -0.0900
  513MOL0     C69133   2.080   6.349   1.217 -0.1829 -0.7486  0.0094
  513MOL0     C69134   1.978   6.443   1.253 -0.6752  0.2423  0.0800
  513MOL0     C69135   1.837   6.422   1.198  0.7482 -0.4276  0.4750
  513MOL0     C69136   1.777   6.294   1.243  0.0366  0.5022 -0.0412
  513MOL0     N69137   1.639   6.279   1.209  1.0270 -0.0522 -0.3714
  513MOL0     C69138   1.591   6.279   1.076  0.2530 -0.2830 -0.1350
  513MOL0     C69139   1.464   6.283   1.094 -0.0804  0.0012 -0.1734
  513MOL0     C69140   1.370   6.270   0.978  0.5365 -0.6599  0.3395
  513MOL0     C69141   1.269   6.381   0.986 -0.2392 -0.0091 -0.2515
  513MOL0     C69142   1.160   6.350   0.886 -0.4753  0.5406  0.3341
  513MOL0     C69143   1.055   6.460   0.856 -0.1611  0.2238 -0.5532
  513MOL0     O69144   0.951   6.452   0.954 -0.1988 -0.3493 -0.2027
  513MOL0     C69145   0.843   6.532   0.932  0.6648  0.4176  0.0142
  513MOL0     C69146   0.837   6.633   0.834 -0.0448 -0.3186 -0.4977
  513MOL0     C69147   0.722   6.714   0.823 -0.1328  0.0113  1.0259
  513MOL0     C69148   0.720   6.819   0.713  0.2095  0.5299  1.0883
  513MOL0     C69149   0.603   6.688   0.899 -1.0142 -0.1992 -0.1988
  513MOL0     C69150   0.475   6.756   0.888 -0.3285  0.7471  0.1725
  513MOL0     O69151   0.386   6.746   0.996  0.3255  0.4973  0.2196
  513MOL0     C69152   0.253   6.759   0.973  0.4435  0.1595 -0.4927
  513MOL0     C69153   0.184   6.685   0.880  0.0512 -0.3152 -0.2294
  513MOL0     C69154   0.046   6.670   0.910 -0.1916  0.0956 -0.2211
  513MOL0     C69155  -0.027   6.763   0.981 -0.8671 -0.0527 -0.4966
  513MOL0     O69156  -0.161   6.764   0.994  0.1073 -0.1071 -0.1446
  513MOL0     C69157  -0.242   6.650   0.951 -0.2409 -0.8543  0.0161
  513MOL0     C69158  -0.384   6.698   0.922 -0.1279 -0.6572  0.4229
  513MOL0     C69159  -0.468   6.718   1.050 -0.4740  0.0493 -0.2445
  513MOL0     C69160  -0.606   6.769   1.019  0.0740 -0.5351 -0.4049
  513MOL0     C69161  -0.695   6.810   1.129 -0.5100 -0.2908 -0.5616
  513MOL0     C69162  -0.827   6.875   1.090  0.3255  0.0434  0.3883
  513MOL0     C69163  -0.920   6.899   1.210 -0.1440 -0.2133 -0.2813
  513MOL0     C69164  -1.018   7.009   1.183  1.1040 -0.3938  0.4121
  513MOL0    Cl69165  -1.132   7.036   1.325  0.1889  0.3919  0.0548
  513MOL0     C69166   0.047   6.860   1.051  0.1476 -0.3431  0.1862
  513MOL0     C69167   0.182   6.845   1.060  0.1337  0.6081  0.1310
  513MOL0     O69168   0.455   6.826   0.793  0.5674  0.1909  0.1844
  513MOL0     C69169   0.616   6.582   0.989  0.0648  0.3756 -0.8031
  513MOL0     C69170   0.734   6.504   1.012  0.4074  0.4103  0.1032
  513MOL0     N69171   1.423   6.288   1.225 -0.0207  0.0497 -0.6704
  513MOL0     N69172   1.528   6.282   1.293  0.2340 -0.4720 -0.8179
  513MOL0     C69173   2.695   5.960   1.107 -0.0276 -0.1080  0.3838
  513MOL0     C69174   2.798   5.867   1.095 -0.2953 -0.9521 -0.5536
  513MOL0     C69175   3.067   5.473   1.064  0.9275  0.2894 -0.3071
  513MOL0     C69176   3.182   5.558   1.058  0.0587 -0.2537  0.1857
  513MOL0     C69177   3.312   5.492   1.050  0.2659  0.3716  0.3823
  513MOL0     C69178   3.327   5.356   1.039  0.6711  0.0886  0.4183
  513MOL0     O69179   3.445   5.291   1.018 -0.8498 -0.7563  0.9781
  513MOL0     C69180   3.571   5.358   1.031 -0.6559 -0.7457  0.4754
  513MOL0     C69181   3.683   5.256   1.013 -0.6614  0.4176 -0.7608
  513MOL0     C69182   3.826   5.298   1.054 -0.9087 -0.0144 -0.1888
  513MOL0     C69183   3.890   5.404   0.960  0.5297 -0.2325 -0.0919
  513MOL0     C69184   4.029   5.409   1.005 -0.4480  0.4039  0.4660
  513MOL0     C69185   4.149   5.400   1.022 -0.2101  0.2884 -0.5169
  513MOL0     C69186   3.211   5.275   1.051  0.5730 -0.0301  0.3755
  513MOL0     C69187   3.086   5.334   1.059  0.1124  0.1134 -0.5030
  513MOL0     H69188   2.651   5.572   1.078  2.8385 -0.2202 -1.5370
  513MOL0     H69189   2.440   5.728   1.099 -1.5988  1.3484 -2.6806
  513MOL0     H69190   2.530   6.156   1.126  0.0312  1.2635 -2.2135
  513MOL0     H69191   2.412   6.127   1.010  2.1803 -0.6203  0.3971
  513MOL0     H69192   2.232   6.130   1.197 -0.0589 -0.1797  0.8682
  513MOL0     H69193   2.361   6.154   1.313 -4.1571 -0.7559  1.0497
  513MOL0     H69194   2.423   6.361   1.250  0.8190  0.7874 -0.7845
  513MOL0     H69195   2.326   6.358   1.096  0.6699  0.2009  0.0173
  513MOL0     H69196   2.211   6.333   1.379 -0.6980 -1.2554 -0.9062
  513MOL0     H69197   2.230   6.486   1.302  1.0787  0.0871  1.0993
  513MOL0     H69198   2.098   6.347   1.109 -0.8477 -2.4785 -0.1086
  513MOL0     H69199   2.055   6.245   1.243  1.0877 -1.0145  0.2489
  513MOL0     H69200   1.975   6.446   1.363 -1.8294 -3.7148  0.2995
  513MOL0     H69201   2.008   6.544   1.223  0.9225 -0.0212  0.7162
  513MOL0     H69202   1.768   6.504   1.218 -0.3165 -1.1778 -0.0221
  513MOL0     H69203   1.835   6.419   1.089 -5.2286  0.9050  0.2355
  513MOL0     H69204   1.785   6.298   1.352 -2.5826 -0.0073  0.2377
  513MOL0     H69205   1.828   6.207   1.200  0.0181 -0.2859  1.4633
  513MOL0     H69206   1.639   6.293   0.980 -1.8753  0.6423 -1.1551
  513MOL0     H69207   1.418   6.275   0.880  0.7032  0.7255  0.4715
  513MOL0     H69208   1.311   6.178   0.982 -0.8559  0.1599 -0.4658
  513MOL0     H69209   1.317   6.479   0.976  1.0855 -0.2341  2.7865
  513MOL0     H69210   1.222   6.382   1.084 -3.3964  3.2882 -1.5695
  513MOL0     H69211   1.109   6.260   0.919 -0.0139 -0.2117 -0.9138
  513MOL0     H69212   1.198   6.320   0.787 -1.0507 -3.0964  1.0861
  513MOL0     H69213   1.019   6.429   0.758 -0.7469 -5.4041  1.1060
  513MOL0     H69214   1.107   6.555   0.840  0.3837 -0.1445 -1.0061
  513MOL0     H69215   0.923   6.649   0.770  1.9382 -1.3249  1.7622
  513MOL0     H69216   0.634   6.805   0.647  0.4811  1.2915  0.5639
  513MOL0     H69217   0.708   6.913   0.769  3.8973  0.4720  2.2618
  513MOL0     H69218   0.812   6.831   0.656  2.0440 -0.9198  3.5721
  513MOL0     H69219   0.230   6.607   0.819 -0.3356 -0.8112  0.1092
  513MOL0     H69220   0.003   6.591   0.849  0.4139  1.9183 -3.2306
  513MOL0     H69221  -0.194   6.616   0.858  0.5325 -1.4607  0.6187
  513MOL0     H69222  -0.234   6.568   1.024  1.9061 -0.3767  0.3940
  513MOL0     H69223  -0.389   6.786   0.857  0.6368 -1.1289 -0.2916
  513MOL0     H69224  -0.429   6.615   0.866 -0.7001 -2.4759  3.3510
  513MOL0     H69225  -0.415   6.796   1.105 -0.7534 -0.6914  1.1404
  513MOL0     H69226  -0.463   6.631   1.117  1.9518  0.7753  0.6404
  513MOL0     H69227  -0.597   6.852   0.948  1.7814 -0.2242  0.1210
  513MOL0     H69228  -0.674   6.699   0.968 -1.8673  0.4688  0.6921
  513MOL0     H69229  -0.643   6.880   1.196 -1.7038 -1.4666  1.7055
  513MOL0     H69230  -0.720   6.718   1.183 -1.0497  0.2160  0.0805
  513MOL0     H69231  -0.820   6.969   1.034 -1.4911 -1.0352 -1.8526
  513MOL0     H69232  -0.888   6.807   1.030 -0.3557  0.0398  1.0810
  513MOL0     H69233  -0.857   6.928   1.295  0.2234 -0.5870 -0.4209
  513MOL0     H69234  -0.969   6.805   1.235 -1.6379  0.8146  0.8358
  513MOL0     H69235  -1.076   6.983   1.093 -0.7336 -1.6992  1.8859
  513MOL0     H69236  -0.956   7.098   1.173  1.2663 -0.6773 -1.7618
  513MOL0     H69237   0.009   6.939   1.115 -1.1556 -2.1838  1.7982
  513MOL0     H69238   0.237   6.921   1.114 -1.2136  1.6103  0.1570
  513MOL0     H69239   0.533   6.550   1.052  1.7777 -3.6802 -0.2791
  513MOL0     H69240   0.727   6.417   1.076 -2.3592 -0.3200 -1.0432
  513MOL0     H69241   2.720   6.064   1.125  0.2777  0.1204 -1.2132
  513MOL0     H69242   2.894   5.897   1.134 -0.8439  0.7748 -0.4476
  513MOL0     H69243   3.174   5.666   1.056  0.5727 -0.2075  0.3269
  513MOL0     H69244   3.402   5.552   1.049 -1.6488  3.6264  2.1316
  513MOL0     H69245   3.582   5.440   0.959 -0.4443 -1.1500  0.0460
  513MOL0     H69246   3.571   5.413   1.126  2.2524  0.5312 -0.1513
  513MOL0     H69247   3.692   5.234   0.906  0.5391 -0.1089 -0.5694
  513MOL0     H69248   3.653   5.170   1.075 -4.2340  3.9125  2.9900
  513MOL0     H69249   3.890   5.210   1.044  0.5630  0.6830  2.2645
  513MOL0     H69250   3.833   5.330   1.158  0.3426  2.5817 -1.0026
  513MOL0     H69251   3.835   5.498   0.966 -0.5881 -0.5427 -3.2962
  513MOL0     H69252   3.879   5.364   0.858 -1.0982 -2.1133  0.7450
  513MOL0     H69253   4.255   5.411   1.033 -0.2547 -0.0100  0.2156
  513MOL0     H69254   3.222   5.167   1.050  1.4574  0.0555 -0.0937
  513MOL0     H69255   2.998   5.270   1.052 -0.9241  1.6371 -2.6385
  514MOL0     O69256   3.575   2.053   8.844  0.6692  0.4457  0.9082
  514MOL0     C69257   3.612   2.027   8.730  0.1355  0.0630 -0.6335
  514MOL0     O69258   3.533   2.038   8.621 -0.0041 -0.8694  0.1897
  514MOL0     C69259   3.409   2.102   8.623 -0.6445 -0.1761  1.0015
  514MOL0     C69260   3.313   2.053   8.534 -0.5545 -0.8059  0.2751
  514MOL0     C69261   3.185   2.111   8.522  0.6008 -0.3430 -0.9202
  514MOL0     C69262   3.157   2.232   8.589  0.2369 -0.8723  0.5100
  514MOL0     O69263   3.039   2.307   8.575 -0.3877 -0.4720  0.6645
  514MOL0     C69264   3.064   2.448   8.558  0.2314  0.7865  0.3002
  514MOL0     C69265   2.944   2.539   8.510  0.2497 -0.0482  1.0150
  514MOL0     C69266   2.898   2.503   8.365  0.5853 -0.9330 -0.1824
  514MOL0     C69267   2.761   2.578   8.336  0.1772 -0.4602  0.2247
  514MOL0     C69268   2.750   2.599   8.178 -0.2258 -0.2867 -0.7775
  514MOL0     C69269   2.629   2.678   8.152  0.8473 -0.0139  0.3753
  514MOL0     C69270   2.506   2.589   8.163  0.0519 -0.3309  0.3967
  514MOL0     C69271   2.445   2.575   8.031 -0.7512  0.0705  0.1848
  514MOL0     N69272   2.348   2.688   8.000  0.2974  0.5731  0.1959
  514MOL0     C69273   2.252   2.684   7.900  0.4147  0.1235  0.0597
  514MOL0     C69274   2.179   2.798   7.921  0.7401  0.2676 -0.0011
  514MOL0     C69275   2.083   2.856   7.818  0.9412  0.5278 -0.5721
  514MOL0     C69276   1.982   2.954   7.878 -0.6323  0.2349  0.2512
  514MOL0     C69277   1.872   2.981   7.771  0.5260  0.1870  0.3131
  514MOL0     C69278   1.739   3.026   7.824 -0.2454  0.0681 -0.4678
  514MOL0     O69279   1.749   3.101   7.942 -0.1988  0.1403 -0.8897
  514MOL0     C69280   1.638   3.134   8.016 -0.6203 -0.5840  0.2956
  514MOL0     C69281   1.514   3.110   7.967 -0.1742  0.3790 -0.5477
  514MOL0     C69282   1.401   3.149   8.044  1.2968 -0.0116  0.1419
  514MOL0     C69283   1.260   3.100   7.990  0.4218 -0.0022 -0.9944
  514MOL0     C69284   1.413   3.206   8.176 -0.1748  0.4201  0.1639
  514MOL0     C69285   1.299   3.230   8.267 -0.4861  0.7273  0.3176
  514MOL0     O69286   1.196   3.143   8.259 -0.4667  0.2568  0.9071
  514MOL0     C69287   1.081   3.178   8.324  0.1392  0.2579 -0.0338
  514MOL0     C69288   0.997   3.286   8.272  0.9280 -0.5986  0.4738
  514MOL0     C69289   0.868   3.305   8.322 -0.2128  0.0087 -0.1196
  514MOL0     C69290   0.836   3.239   8.440  0.0034  0.0773 -0.5687
  514MOL0     O69291   0.710   3.266   8.482 -0.2989 -0.1461 -0.0481
  514MOL0     C69292   0.627   3.149   8.494  0.4097 -0.2780  0.4183
  514MOL0     C69293   0.488   3.202   8.477  0.2781 -0.1255 -0.6220
  514MOL0     C69294   0.384   3.111   8.415  0.5507  0.5043  1.2309
  514MOL0     C69295   0.239   3.143   8.447  0.2524  0.1164 -0.6120
  514MOL0     C69296   0.141   3.036   8.376 -0.4533  0.3205 -0.2566
  514MOL0     C69297   0.000   3.071   8.419 -0.1854  0.3952  0.6887
  514MOL0     C69298  -0.113   2.976   8.368  0.0107 -0.7061  0.4011
  514MOL0     C69299  -0.247   3.038   8.410 -0.1620 -0.2757  0.0736
  514MOL0    Cl69300  -0.382   2.939   8.337 -0.0742  0.2625 -0.1218
  514MOL0     C69301   0.927   3.144   8.496 -0.0169 -0.0157 -0.0296
  514MOL0     C69302   1.045   3.110   8.438 -0.2582 -0.1829 -0.2218
  514MOL0     O69303   1.315   3.325   8.342 -0.2683 -0.1132 -0.5320
  514MOL0     C69304   1.547   3.236   8.216 -0.4584  0.2785 -0.1529
  514MOL0     C69305   1.652   3.198   8.135 -0.5151 -0.4882 -0.1162
  514MOL0     N69306   2.229   2.863   8.029  0.7491  0.5612 -0.0516
  514MOL0     N69307   2.330   2.798   8.073  0.6151 -0.4461  0.6585
  514MOL0     C69308   3.255   2.280   8.678  0.7332 -0.0748 -0.4787
  514MOL0     C69309   3.369   2.208   8.707 -0.4023  0.7696  0.1142
  514MOL0     C69310   3.749   1.983   8.719  0.1617  0.6684 -0.1130
  514MOL0     C69311   3.846   2.014   8.814 -0.2340  0.1215  0.0078
  514MOL0     C69312   3.979   1.969   8.809  0.3617  0.3473 -1.2919
  514MOL0     C69313   4.018   1.886   8.700 -0.0304  0.8918 -0.1293
  514MOL0     O69314   4.147   1.863   8.670 -0.3381  0.0148 -0.5809
  514MOL0     C69315   4.244   1.878   8.774  0.9431  0.9007 -0.1350
  514MOL0     C69316   4.381   1.845   8.719 -0.6084  0.4292  0.5465
  514MOL0     C69317   4.492   1.862   8.829 -0.2324 -0.1035  0.1396
  514MOL0     C69318   4.623   1.851   8.756 -0.9246 -0.2615 -0.0450
  514MOL0     C69319   4.652   1.713   8.714  0.0244  0.4999 -0.5659
  514MOL0     C69320   4.690   1.604   8.687  0.5908 -0.3694 -0.2462
  514MOL0     C69321   3.919   1.852   8.604 -0.0648 -0.7099  0.0532
  514MOL0     C69322   3.784   1.902   8.616 -0.8840  0.4560  0.5413
  514MOL0     H69323   3.331   1.962   8.477 -0.5394 -0.4175 -0.3611
  514MOL0     H69324   3.111   2.069   8.456 -0.6511  1.8198 -0.9618
  514MOL0     H69325   3.079   2.477   8.662 -2.7437 -0.3479  1.1293
  514MOL0     H69326   3.151   2.447   8.491 -0.0035 -2.2642 -0.1068
  514MOL0     H69327   2.862   2.522   8.579  2.3755 -2.4235  3.1204
  514MOL0     H69328   2.966   2.647   8.511 -1.2518  0.2807  0.7097
  514MOL0     H69329   2.975   2.524   8.291  0.9450 -0.1100  0.4079
  514MOL0     H69330   2.877   2.396   8.357 -0.3196 -0.7611 -0.1485
  514MOL0     H69331   2.674   2.523   8.375 -0.5908  0.5954  0.0191
  514MOL0     H69332   2.766   2.674   8.387  2.4027  0.0762 -0.8809
  514MOL0     H69333   2.841   2.641   8.133  1.0710 -0.2629  1.7026
  514MOL0     H69334   2.742   2.501   8.129 -1.2254 -1.2158  1.1625
  514MOL0     H69335   2.623   2.766   8.217 -0.8435 -1.2998  2.0550
  514MOL0     H69336   2.630   2.725   8.053 -1.4054  1.0210  0.7858
  514MOL0     H69337   2.529   2.495   8.214 -0.8591 -0.1477  1.1643
  514MOL0     H69338   2.431   2.630   8.231 -0.0984 -2.8585  1.8833
  514MOL0     H69339   2.387   2.482   8.022  1.2757 -1.1769 -0.8515
  514MOL0     H69340   2.524   2.569   7.955 -0.5411  1.1535  0.2976
  514MOL0     H69341   2.243   2.618   7.814  2.4164 -2.6792  1.8480
  514MOL0     H69342   2.128   2.900   7.729 -0.8561  1.7411 -0.9452
  514MOL0     H69343   2.011   2.779   7.789 -0.3369  0.5353  2.1794
  514MOL0     H69344   2.039   3.041   7.911 -0.9130 -0.2349  2.0906
  514MOL0     H69345   1.933   2.926   7.971 -1.8313  3.4238  0.7154
  514MOL0     H69346   1.849   2.893   7.710  1.0534  1.3201 -1.6088
  514MOL0     H69347   1.912   3.045   7.692  2.1744 -2.5572 -1.2130
  514MOL0     H69348   1.676   2.938   7.841  1.0283 -0.5580  1.4675
  514MOL0     H69349   1.686   3.090   7.754 -0.6701  1.3481  0.9611
  514MOL0     H69350   1.489   3.066   7.872 -1.4400  1.2116 -0.6178
  514MOL0     H69351   1.193   3.186   7.979  0.9132  0.8667  1.9189
  514MOL0     H69352   1.268   3.046   7.894 -0.5566 -1.7168 -0.1591
  514MOL0     H69353   1.210   3.024   8.050 -1.4401 -0.0092 -2.4438
  514MOL0     H69354   1.033   3.348   8.191  1.8455  0.3915  1.6037
  514MOL0     H69355   0.799   3.383   8.292  0.9923  1.8683  1.6785
  514MOL0     H69356   0.641   3.071   8.418 -1.2043 -0.4659  0.2758
  514MOL0     H69357   0.642   3.123   8.600  0.4182  0.1149  0.5155
  514MOL0     H69358   0.453   3.217   8.579  3.5865  1.8080  0.3761
  514MOL0     H69359   0.483   3.300   8.430 -1.8172  0.2816  0.3207
  514MOL0     H69360   0.400   3.005   8.433 -4.4126 -1.2928 -2.5413
  514MOL0     H69361   0.390   3.119   8.306 -1.5845  0.3035  1.0502
  514MOL0     H69362   0.215   3.149   8.554 -4.6571 -2.6031 -1.2463
  514MOL0     H69363   0.210   3.235   8.395  2.7781 -0.9836 -4.3632
  514MOL0     H69364   0.166   2.936   8.413  0.8860  0.3561 -0.9976
  514MOL0     H69365   0.153   3.040   8.268  3.6240  3.0302  0.0589
  514MOL0     H69366   0.002   3.090   8.527  1.9351  0.4392  0.6886
  514MOL0     H69367  -0.017   3.172   8.380  2.6545  1.6016  2.2705
  514MOL0     H69368  -0.108   2.876   8.412  0.6941 -0.4743  0.8673
  514MOL0     H69369  -0.114   2.960   8.259  0.5904 -5.1264  0.8627
  514MOL0     H69370  -0.255   3.143   8.381  2.0938  0.1134  0.6928
  514MOL0     H69371  -0.257   3.031   8.518  0.7026  2.2289  0.3655
  514MOL0     H69372   0.904   3.111   8.597 -0.3750 -0.2231 -0.1793
  514MOL0     H69373   1.104   3.026   8.472  1.1300  0.7877 -0.1758
  514MOL0     H69374   1.572   3.301   8.299 -2.3090  1.5550 -0.5144
  514MOL0     H69375   1.751   3.240   8.150  0.8445 -3.4780 -0.1070
  514MOL0     H69376   3.255   2.372   8.736  2.2512 -0.1420 -0.3196
  514MOL0     H69377   3.443   2.247   8.776  0.7824  1.8127 -1.6866
  514MOL0     H69378   3.806   2.075   8.894  1.0787  0.8907  0.0954
  514MOL0     H69379   4.041   1.991   8.894  2.1105  1.4266 -2.7712
  514MOL0     H69380   4.253   1.977   8.818  1.4881 -0.1968  2.3630
  514MOL0     H69381   4.219   1.813   8.858  1.2320  0.1187 -0.6368
  514MOL0     H69382   4.408   1.911   8.637 -0.2678  1.8137  1.7449
  514MOL0     H69383   4.386   1.742   8.683 -0.9198  0.6787 -0.2333
  514MOL0     H69384   4.483   1.782   8.903 -0.2510 -0.0911  0.1508
  514MOL0     H69385   4.497   1.955   8.885 -2.2253  0.5232 -0.6491
  514MOL0     H69386   4.709   1.889   8.814 -1.1672 -0.6788  0.5922
  514MOL0     H69387   4.623   1.920   8.671 -1.9154 -0.8839 -0.5657
  514MOL0     H69388   4.731   1.505   8.676 -1.4633 -1.1437 -1.7539
  514MOL0     H69389   3.936   1.785   8.520  1.6837  1.6153 -1.5752
  514MOL0     H69390   3.711   1.852   8.553 -0.2879 -4.5548  3.3037
  515MOL0     O69391  10.860   4.503   7.612 -0.1279 -0.1854 -1.0645
  515MOL0     C69392  10.890   4.627   7.618  0.6447  0.4016 -1.2342
  515MOL0     O69393  10.811   4.727   7.584 -0.2579 -0.6229  0.9651
  515MOL0     C69394  10.693   4.689   7.528  0.1904  0.3480  0.3390
  515MOL0     C69395  10.672   4.705   7.387 -0.8088  0.5807  0.2246
  515MOL0     C69396  10.557   4.670   7.318  0.6344 -0.5748 -0.9608
  515MOL0     C69397  10.445   4.632   7.395 -1.1267 -0.5068 -0.7624
  515MOL0     O69398  10.322   4.590   7.350 -0.8559  0.2363 -0.0777
  515MOL0     C69399  10.232   4.684   7.310  0.7711 -0.5814 -0.9033
  515MOL0     C69400  10.081   4.639   7.330  0.0277 -0.7006  1.3513
  515MOL0     C69401  10.061   4.583   7.471 -0.3322  1.1558 -0.4736
  515MOL0     C69402   9.916   4.618   7.519 -0.6543  0.4912  0.2489
  515MOL0     C69403   9.827   4.501   7.473  1.3549  0.2132 -0.2000
  515MOL0     C69404   9.675   4.528   7.484  0.0784  0.1357  0.1120
  515MOL0     C69405   9.588   4.423   7.420  0.4860  0.8571  0.1438
  515MOL0     C69406   9.449   4.446   7.474  0.1893  0.5312 -0.1302
  515MOL0     N69407   9.364   4.345   7.405  0.3559  0.0889 -0.1967
  515MOL0     C69408   9.355   4.215   7.440  0.1984 -0.9932 -0.0499
  515MOL0     C69409   9.301   4.152   7.334  1.1548  0.4069  0.7945
  515MOL0     C69410   9.284   4.003   7.321 -0.5218 -0.9917 -0.1077
  515MOL0     C69411   9.366   3.916   7.418 -0.8526  0.0439 -0.2560
  515MOL0     C69412   9.516   3.888   7.367 -0.0796 -0.3457 -0.1094
  515MOL0     C69413   9.601   4.022   7.357 -0.3084 -0.5946  0.8917
  515MOL0     O69414   9.640   4.083   7.485  0.6170  0.5944  0.3648
  515MOL0     C69415   9.749   4.041   7.554 -0.3407  0.1083 -0.5477
  515MOL0     C69416   9.802   4.129   7.649 -1.1351  0.0780  0.0702
  515MOL0     C69417   9.919   4.101   7.715  0.1597 -0.1899 -1.2736
  515MOL0     C69418   9.971   4.199   7.819 -0.1068 -0.3687 -0.1256
  515MOL0     C69419   9.983   3.973   7.702 -0.2267  0.0829  0.9763
  515MOL0     C69420  10.113   3.932   7.762 -0.7155 -0.8439 -0.5001
  515MOL0     O69421  10.208   4.038   7.788 -0.4649 -0.0864 -0.5162
  515MOL0     C69422  10.318   4.009   7.863  0.0980  0.3552  0.1552
  515MOL0     C69423  10.316   4.008   8.004 -0.0849 -0.7472  0.1363
  515MOL0     C69424  10.426   3.994   8.092  0.2700  0.1235  0.6665
  515MOL0     C69425  10.556   3.989   8.022  0.2398  0.6208 -0.2751
  515MOL0     O69426  10.670   3.964   8.091  0.1898  0.5018 -0.0551
  515MOL0     C69427  10.688   4.023   8.223  0.0563 -0.2771  0.1298
  515MOL0     C69428  10.824   4.076   8.261 -0.7558 -0.2340  0.5955
  515MOL0     C69429  10.943   3.989   8.205  0.6957 -0.1327 -0.1618
  515MOL0     C69430  11.066   3.990   8.291 -1.3724  0.6410 -0.4769
  515MOL0     C69431  11.166   3.889   8.231  0.1430 -1.0429  0.4201
  515MOL0     C69432  11.306   3.910   8.302  0.2684 -0.3739 -0.5617
  515MOL0     C69433  11.407   3.801   8.255  0.4458  0.7972  0.5075
  515MOL0     C69434  11.522   3.805   8.360  0.3598 -0.3428  0.6869
  515MOL0    Cl69435  11.628   3.678   8.298  0.0710  0.0273 -0.0568
  515MOL0     C69436  10.560   3.987   7.887  0.1941  0.5741 -0.0697
  515MOL0     C69437  10.443   3.992   7.807  0.0256  0.4315 -0.5435
  515MOL0     O69438  10.120   3.812   7.789  0.0530  0.6107  0.4795
  515MOL0     C69439   9.925   3.879   7.608  0.1505  0.1381 -0.5837
  515MOL0     C69440   9.813   3.913   7.533 -0.1849 -0.3878  0.4320
  515MOL0     N69441   9.273   4.242   7.230  0.0479  0.4073  0.8764
  515MOL0     N69442   9.306   4.359   7.275 -0.4671 -0.6164 -0.1412
  515MOL0     C69443  10.466   4.603   7.532  0.2591  0.4080  0.4234
  515MOL0     C69444  10.585   4.640   7.600  0.0909  0.2132 -0.0662
  515MOL0     C69445  11.024   4.669   7.676  0.4134 -0.1322 -0.7741
  515MOL0     C69446  11.137   4.577   7.672  0.0096 -0.0441  0.2181
  515MOL0     C69447  11.269   4.611   7.707 -0.2785 -0.4674  0.1677
  515MOL0     C69448  11.286   4.742   7.746 -1.2622  0.3481 -0.2486
  515MOL0     O69449  11.409   4.759   7.799 -0.1528 -0.1915  0.0255
  515MOL0     C69450  11.463   4.891   7.782 -0.4691 -1.1994  0.7729
  515MOL0     C69451  11.609   4.910   7.797 -0.1861  0.2811 -0.7968
  515MOL0     C69452  11.696   4.817   7.716  0.1406  0.0193 -0.1824
  515MOL0     C69453  11.804   4.904   7.639 -0.1334 -0.7711 -0.4723
  515MOL0     C69454  11.896   4.964   7.729  0.7454 -0.3708  0.0900
  515MOL0     C69455  11.972   5.024   7.804  0.2172  0.2368 -0.0194
  515MOL0     C69456  11.183   4.833   7.741 -0.1829 -0.1312 -0.2161
  515MOL0     C69457  11.051   4.802   7.705 -0.5519 -0.0651  0.2188
  515MOL0     H69458  10.765   4.733   7.338 -0.1287 -2.0363 -0.1494
  515MOL0     H69459  10.548   4.680   7.210  0.7504  3.4112 -0.7197
  515MOL0     H69460  10.243   4.771   7.376 -0.5442  0.4489 -1.9797
  515MOL0     H69461  10.248   4.709   7.204  1.3353 -2.0635 -1.1941
  515MOL0     H69462  10.015   4.722   7.304  2.3582  0.9999  0.4952
  515MOL0     H69463  10.053   4.569   7.252 -0.3183  0.4904  0.3739
  515MOL0     H69464  10.083   4.476   7.461 -1.1017  1.1438 -2.3307
  515MOL0     H69465  10.135   4.616   7.545  0.7451  0.8396 -1.3930
  515MOL0     H69466   9.926   4.617   7.628  0.4088 -0.8651  0.1700
  515MOL0     H69467   9.888   4.721   7.497  0.3543  0.6457 -0.4072
  515MOL0     H69468   9.844   4.476   7.368  1.3863 -0.7466  0.0232
  515MOL0     H69469   9.859   4.412   7.529  1.3476 -1.2390 -2.3721
  515MOL0     H69470   9.671   4.536   7.593  1.5103 -1.5908  0.3421
  515MOL0     H69471   9.663   4.626   7.438  2.5192  0.8883  0.9056
  515MOL0     H69472   9.604   4.440   7.313  2.7538  0.6085  0.3948
  515MOL0     H69473   9.631   4.326   7.446 -0.3800  0.8267  1.6216
  515MOL0     H69474   9.410   4.546   7.454  2.6301  1.1877 -2.2838
  515MOL0     H69475   9.443   4.427   7.581 -1.6974  0.0235 -0.2948
  515MOL0     H69476   9.396   4.167   7.528  0.3852 -0.1441  0.3453
  515MOL0     H69477   9.182   3.979   7.352  0.6389 -3.5620  2.0443
  515MOL0     H69478   9.303   3.971   7.218  0.1127 -1.9966  0.3057
  515MOL0     H69479   9.320   3.820   7.442 -0.6269  0.2636  1.1252
  515MOL0     H69480   9.371   3.967   7.515  0.5999  0.0037 -0.2847
  515MOL0     H69481   9.505   3.842   7.268 -2.6426  0.4766 -0.2839
  515MOL0     H69482   9.571   3.825   7.438  2.2393  1.9497  0.2894
  515MOL0     H69483   9.563   4.093   7.282  1.0610 -0.7838 -0.0363
  515MOL0     H69484   9.699   3.994   7.316  0.0874  0.3029  1.1963
  515MOL0     H69485   9.751   4.224   7.663 -1.4943  0.0438 -0.9083
  515MOL0     H69486  10.045   4.270   7.778  1.3831 -0.2912  2.4919
  515MOL0     H69487   9.885   4.254   7.858 -0.3016  0.9196 -2.2245
  515MOL0     H69488  10.017   4.147   7.903  1.0440 -0.7824 -0.9706
  515MOL0     H69489  10.226   4.034   8.059  1.0012 -0.5863  1.8957
  515MOL0     H69490  10.415   3.998   8.200 -2.2104 -2.3978  0.6299
  515MOL0     H69491  10.613   4.098   8.249  0.5121 -0.4364  2.0194
  515MOL0     H69492  10.664   3.945   8.296 -0.2289  0.1994  0.5528
  515MOL0     H69493  10.828   4.178   8.224  1.1238 -0.1847  0.8403
  515MOL0     H69494  10.845   4.078   8.369 -0.0934 -2.1066  0.5432
  515MOL0     H69495  10.977   4.022   8.106  1.2270 -2.7015 -0.9071
  515MOL0     H69496  10.906   3.886   8.201 -2.7250  0.8734  1.4034
  515MOL0     H69497  11.103   4.093   8.283 -2.4144  1.0331 -0.3219
  515MOL0     H69498  11.041   3.971   8.396 -0.0040 -0.5858 -0.3469
  515MOL0     H69499  11.187   3.903   8.124  2.7601 -5.3618  0.1330
  515MOL0     H69500  11.120   3.790   8.239 -0.2681 -0.7344  2.1793
  515MOL0     H69501  11.333   4.007   8.260  1.1672 -1.1776 -1.9224
  515MOL0     H69502  11.286   3.907   8.410 -2.6039 -0.0430 -1.0036
  515MOL0     H69503  11.449   3.822   8.156 -0.5161 -0.3158 -0.1660
  515MOL0     H69504  11.357   3.704   8.258 -1.6345  1.8155  3.0757
  515MOL0     H69505  11.476   3.791   8.458 -1.5765  2.9435  0.3863
  515MOL0     H69506  11.563   3.907   8.361 -0.7497  0.3110 -3.0022
  515MOL0     H69507  10.656   3.981   7.837  0.0289 -1.0283 -0.2287
  515MOL0     H69508  10.453   3.989   7.699 -1.7694  0.9955 -0.7515
  515MOL0     H69509   9.963   3.778   7.597 -0.9180 -0.3843  0.3487
  515MOL0     H69510   9.772   3.835   7.468 -2.5790  0.1292  1.2404
  515MOL0     H69511  10.380   4.565   7.586  0.8306 -0.0319  1.0341
  515MOL0     H69512  10.591   4.604   7.703  0.0991 -1.4766 -0.6329
  515MOL0     H69513  11.120   4.474   7.642  0.4673  0.0447 -0.3610
  515MOL0     H69514  11.343   4.532   7.706  1.4866  1.0727 -1.9367
  515MOL0     H69515  11.440   4.924   7.681 -0.6107 -0.5256  1.0167
  515MOL0     H69516  11.413   4.965   7.846  1.2302  0.9337 -0.2330
  515MOL0     H69517  11.636   4.894   7.902  2.4155  1.1287 -1.2654
  515MOL0     H69518  11.642   5.011   7.771 -2.5393  1.5856  0.8885
  515MOL0     H69519  11.642   4.757   7.642  3.9263  0.0459 -3.2469
  515MOL0     H69520  11.741   4.751   7.791 -0.1565  0.5195  0.4521
  515MOL0     H69521  11.755   4.987   7.587  3.2375  1.3233 -0.6072
  515MOL0     H69522  11.849   4.845   7.558  0.3963 -2.6185  1.0687
  515MOL0     H69523  12.052   5.080   7.848 -0.2619  1.6265 -0.8657
  515MOL0     H69524  11.188   4.936   7.776 -0.3008  0.5458 -2.0882
  515MOL0     H69525  10.979   4.878   7.679 -0.1883  0.9055  1.8889
  516MOL0     O69526   5.763   4.949   3.493  0.2535  0.3827 -0.1667
  516MOL0     C69527   5.783   4.877   3.397  0.0774  0.2836 -0.5791
  516MOL0     O69528   5.683   4.799   3.331  0.6919 -0.0045 -0.5438
  516MOL0     C69529   5.558   4.790   3.381  0.3508 -0.4100 -0.1536
  516MOL0     C69530   5.519   4.671   3.426 -0.3016  0.3904 -0.9773
  516MOL0     C69531   5.379   4.653   3.458  0.2914 -0.9578  0.6991
  516MOL0     C69532   5.295   4.765   3.468 -0.5701  0.2867  0.0691
  516MOL0     O69533   5.162   4.775   3.502  0.2279  0.6297  0.0810
  516MOL0     C69534   5.086   4.649   3.494  0.2646 -0.0856 -0.5698
  516MOL0     C69535   4.940   4.670   3.437  0.0608 -0.8303  0.7103
  516MOL0     C69536   4.854   4.541   3.454 -0.0111  0.4154  0.9576
  516MOL0     C69537   4.705   4.570   3.424 -0.3839  0.4510  0.2500
  516MOL0     C69538   4.616   4.454   3.426 -0.1625  0.4470  0.2038
  516MOL0     C69539   4.484   4.477   3.353 -0.1556 -0.0289 -0.0208
  516MOL0     C69540   4.406   4.581   3.408 -0.1324 -0.7069 -0.1611
  516MOL0     C69541   4.255   4.555   3.358 -0.7034 -0.0534  0.4654
  516MOL0     N69542   4.171   4.670   3.379  0.1013  0.2997  0.5385
  516MOL0     C69543   4.104   4.706   3.491 -0.6281 -0.4054  0.5097
  516MOL0     C69544   4.044   4.827   3.469 -0.0521  0.2364  0.1542
  516MOL0     C69545   3.970   4.902   3.574 -0.6786 -0.2192 -0.6043
  516MOL0     C69546   3.822   4.916   3.549 -0.0236 -0.1880  0.2898
  516MOL0     C69547   3.748   4.834   3.651  0.3453 -0.2080  0.6197
  516MOL0     C69548   3.592   4.850   3.641  0.0915  0.3334  0.3697
  516MOL0     O69549   3.541   4.983   3.675 -0.0369  0.6085  0.0442
  516MOL0     C69550   3.407   4.998   3.670  0.5892  0.3034 -0.4441
  516MOL0     C69551   3.360   5.125   3.617 -0.3143  0.0166 -0.4212
  516MOL0     C69552   3.227   5.156   3.616 -0.6425  1.0044  0.3132
  516MOL0     C69553   3.195   5.293   3.572 -0.5278 -1.2558  0.4819
  516MOL0     C69554   3.133   5.046   3.634  0.2781 -0.5759 -0.0949
  516MOL0     C69555   2.984   5.068   3.614  0.0816  0.4892 -0.3907
  516MOL0     O69556   2.905   4.958   3.657  0.1269 -0.0291 -0.2681
  516MOL0     C69557   2.773   4.959   3.616  0.3976  0.1957  0.4953
  516MOL0     C69558   2.675   5.037   3.677 -0.0556 -0.7299 -0.0148
  516MOL0     C69559   2.550   5.052   3.624  0.3336  0.1340  0.4099
  516MOL0     C69560   2.516   4.997   3.496  0.6564  0.2051  0.3628
  516MOL0     O69561   2.393   4.998   3.435 -1.0548 -0.4208  0.6026
  516MOL0     C69562   2.290   5.085   3.477 -0.6833  0.3880  0.1052
  516MOL0     C69563   2.212   5.008   3.584 -0.2052 -0.3688 -0.4009
  516MOL0     C69564   2.111   5.110   3.634 -0.3137  0.3080 -0.3926
  516MOL0     C69565   2.040   5.045   3.761 -0.0644  0.9809  0.1739
  516MOL0     C69566   1.910   5.111   3.799  0.4958 -0.0818  0.1413
  516MOL0     C69567   1.930   5.256   3.818 -0.2074 -0.4789  0.6432
  516MOL0     C69568   1.798   5.319   3.873 -0.3600 -1.0886  0.1133
  516MOL0     C69569   1.733   5.406   3.766  0.1085 -0.1465 -0.1890
  516MOL0    Cl69570   1.589   5.490   3.850  0.0317 -0.0077 -0.0982
  516MOL0     C69571   2.610   4.914   3.434  0.3649  0.5416 -0.3326
  516MOL0     C69572   2.737   4.889   3.496  0.4669  0.1784  0.7269
  516MOL0     O69573   2.948   5.167   3.555  1.2903  0.0605  0.4406
  516MOL0     C69574   3.182   4.922   3.683 -0.7244  1.3710  0.0877
  516MOL0     C69575   3.314   4.897   3.706  0.0368 -0.3013 -0.3834
  516MOL0     N69576   4.071   4.859   3.337  0.2324 -0.4380 -0.3324
  516MOL0     N69577   4.149   4.771   3.281 -0.1850 -0.0516  0.1453
  516MOL0     C69578   5.341   4.888   3.428  0.5255 -0.5011 -0.2860
  516MOL0     C69579   5.469   4.903   3.374 -0.8358 -0.6187  0.2932
  516MOL0     C69580   5.916   4.860   3.342  0.2679  0.5198 -0.3984
  516MOL0     C69581   6.028   4.928   3.391  0.0777  0.3495 -0.7817
  516MOL0     C69582   6.156   4.904   3.344  0.4428 -0.3322  0.6211
  516MOL0     C69583   6.170   4.827   3.232 -0.6351 -0.8079  0.2109
  516MOL0     O69584   6.299   4.824   3.175  0.2110  1.0416 -0.1889
  516MOL0     C69585   6.320   4.714   3.089  0.1234  0.2155  0.3051
  516MOL0     C69586   6.282   4.742   2.938 -0.9446 -0.4498  0.1052
  516MOL0     C69587   6.381   4.840   2.874 -0.2233 -1.0643 -0.2866
  516MOL0     C69588   6.374   4.842   2.719  0.0442  0.3038 -0.4701
  516MOL0     C69589   6.233   4.853   2.681 -0.1796 -0.4000 -0.2827
  516MOL0     C69590   6.112   4.860   2.663 -1.2896  0.8937  0.4778
  516MOL0     C69591   6.058   4.772   3.169  0.3585  0.8230 -0.2682
  516MOL0     C69592   5.929   4.778   3.232  0.5078  0.6328 -0.1475
  516MOL0     H69593   5.594   4.593   3.438  1.5087  2.0347 -1.0161
  516MOL0     H69594   5.344   4.555   3.487  1.3265 -0.8723  2.3899
  516MOL0     H69595   5.131   4.577   3.425  0.0609 -0.5735 -0.1945
  516MOL0     H69596   5.079   4.620   3.599  2.2739 -0.0239 -0.3786
  516MOL0     H69597   4.900   4.756   3.493 -0.0407 -1.3330  1.4149
  516MOL0     H69598   4.946   4.706   3.333  0.6803 -0.4124  0.8889
  516MOL0     H69599   4.890   4.461   3.388 -0.6590  1.6305 -0.9459
  516MOL0     H69600   4.865   4.523   3.561 -0.6544  0.8272  1.0938
  516MOL0     H69601   4.669   4.648   3.491  0.4672  0.4677  0.7030
  516MOL0     H69602   4.712   4.615   3.324 -0.5521  1.0043  0.4844
  516MOL0     H69603   4.656   4.368   3.372 -2.3139 -1.3567  1.3205
  516MOL0     H69604   4.604   4.423   3.530  0.8574 -3.8130 -0.7562
  516MOL0     H69605   4.510   4.501   3.249 -0.5452  1.8012  0.2765
  516MOL0     H69606   4.426   4.384   3.356 -1.0450  0.5184 -0.0701
  516MOL0     H69607   4.401   4.583   3.518 -1.5625  1.1155 -0.2106
  516MOL0     H69608   4.444   4.678   3.376 -3.0220  0.9459  1.1051
  516MOL0     H69609   4.213   4.474   3.418 -1.3149  0.6032  0.9476
  516MOL0     H69610   4.267   4.523   3.254  1.9616 -0.2827  0.7657
  516MOL0     H69611   4.112   4.662   3.590 -0.1230  0.6284  0.9468
  516MOL0     H69612   3.989   4.860   3.673 -0.8818 -1.0687 -0.9256
  516MOL0     H69613   4.014   5.002   3.584  1.9220 -1.5253  4.1186
  516MOL0     H69614   3.795   4.877   3.451 -0.0596 -0.9836  0.6061
  516MOL0     H69615   3.794   5.021   3.558  0.1962 -0.0197 -0.7917
  516MOL0     H69616   3.769   4.865   3.754 -1.4833  0.8024  0.7371
  516MOL0     H69617   3.777   4.729   3.655  1.7802  0.0154 -1.8475
  516MOL0     H69618   3.554   4.779   3.715  1.9185  0.9843  1.9991
  516MOL0     H69619   3.555   4.805   3.548  2.2682 -1.2435  0.1779
  516MOL0     H69620   3.439   5.198   3.599 -0.3044  0.7543  2.1996
  516MOL0     H69621   3.110   5.332   3.628 -2.0935 -1.9916 -1.2809
  516MOL0     H69622   3.283   5.355   3.588 -0.8107 -1.0054  1.0939
  516MOL0     H69623   3.167   5.296   3.467 -1.3340  2.1103  0.7032
  516MOL0     H69624   2.698   5.096   3.765  1.5121  1.4343 -1.7575
  516MOL0     H69625   2.475   5.116   3.669 -1.6958 -0.1874 -2.2804
  516MOL0     H69626   2.333   5.178   3.514 -0.8816  0.3004  0.5633
  516MOL0     H69627   2.221   5.113   3.397 -2.6389 -0.0634  1.5617
  516MOL0     H69628   2.163   4.917   3.547  0.1797  0.0296 -1.9821
  516MOL0     H69629   2.273   4.986   3.671  1.2080  0.1458 -1.2230
  516MOL0     H69630   2.041   5.134   3.553 -0.9527 -1.3723 -0.3792
  516MOL0     H69631   2.160   5.203   3.665  2.7250 -1.6376  1.2192
  516MOL0     H69632   2.014   4.940   3.748 -1.1794  1.1869  0.6270
  516MOL0     H69633   2.106   5.045   3.849  0.2985 -1.5017 -0.0389
  516MOL0     H69634   1.879   5.073   3.897 -1.6503  2.1581  0.4222
  516MOL0     H69635   1.825   5.106   3.730  0.0178  0.6348  0.6605
  516MOL0     H69636   2.002   5.264   3.900 -1.0640  1.2915  1.2663
  516MOL0     H69637   1.959   5.309   3.727 -2.6377  3.3936  1.8808
  516MOL0     H69638   1.810   5.381   3.962  0.2000 -0.0475 -0.6601
  516MOL0     H69639   1.733   5.234   3.897  1.3620 -2.1767  1.1445
  516MOL0     H69640   1.717   5.359   3.669  0.2112  0.5626 -0.5550
  516MOL0     H69641   1.807   5.486   3.756  1.3919 -1.0975  1.1110
  516MOL0     H69642   2.590   4.860   3.341 -0.4693  1.4080 -0.6651
  516MOL0     H69643   2.809   4.836   3.436 -0.7309  0.5673 -1.1472
  516MOL0     H69644   3.119   4.837   3.708  1.5643 -0.3055  0.4415
  516MOL0     H69645   3.339   4.797   3.738  0.1570  0.0005  0.5059
  516MOL0     H69646   5.280   4.978   3.434 -0.1905 -1.0366  0.5977
  516MOL0     H69647   5.491   4.997   3.324  0.9527 -1.9161 -1.4864
  516MOL0     H69648   6.018   4.987   3.481  3.2343 -2.0179  1.3455
  516MOL0     H69649   6.242   4.944   3.397  2.9985 -1.0650 -2.6185
  516MOL0     H69650   6.428   4.698   3.096  0.2962  1.8663  2.1906
  516MOL0     H69651   6.271   4.622   3.122  0.5470  0.0195  0.3937
  516MOL0     H69652   6.182   4.785   2.941 -0.8058 -0.1601  2.2173
  516MOL0     H69653   6.283   4.647   2.883  1.6596 -0.3205 -0.1910
  516MOL0     H69654   6.482   4.813   2.906  1.0773  3.6925  0.4937
  516MOL0     H69655   6.354   4.938   2.916 -0.1124 -1.1785  0.0492
  516MOL0     H69656   6.406   4.747   2.674 -2.0313  0.1619 -1.7662
  516MOL0     H69657   6.431   4.918   2.665  0.2241  2.2367  2.2507
  516MOL0     H69658   6.009   4.862   2.634 -1.0628 -0.3396 -0.4740
  516MOL0     H69659   6.061   4.702   3.086 -0.3683 -1.7517  1.7373
  516MOL0     H69660   5.850   4.720   3.185 -1.1241  2.0469  0.7260
  517MOL0     O69661   0.066   7.668  11.256 -0.2461 -0.2704  0.5319
  517MOL0     C69662   0.125   7.578  11.212 -0.2465  0.4606  0.2149
  517MOL0     O69663   0.076   7.461  11.164 -0.0817  0.5404  0.1644
  517MOL0     C69664  -0.058   7.433  11.194 -0.0346 -0.2916  0.1075
  517MOL0     C69665  -0.087   7.339  11.293 -0.1966  0.8798 -0.3693
  517MOL0     C69666  -0.217   7.318  11.331 -0.1856  0.0526 -0.0721
  517MOL0     C69667  -0.320   7.394  11.285  0.6430  0.0126  0.2740
  517MOL0     O69668  -0.446   7.360  11.327 -0.0742  0.2619  0.7521
  517MOL0     C69669  -0.557   7.450  11.331 -0.4545 -0.7595  0.5579
  517MOL0     C69670  -0.675   7.368  11.389 -0.5576  0.1547 -0.1318
  517MOL0     C69671  -0.796   7.454  11.420  0.6243  0.0233 -0.1024
  517MOL0     C69672  -0.914   7.387  11.484  0.2059 -0.2387 -0.4507
  517MOL0     C69673  -1.036   7.484  11.516  0.1763  0.0347 -0.5044
  517MOL0     C69674  -1.149   7.397  11.569 -0.9624 -0.5085  0.6245
  517MOL0     C69675  -1.275   7.483  11.580  0.4807 -0.1628  0.5253
  517MOL0     C69676  -1.402   7.400  11.602 -0.3016  0.0766  0.3240
  517MOL0     N69677  -1.502   7.503  11.642  0.3203 -0.2613 -0.0922
  517MOL0     C69678  -1.606   7.529  11.552  0.5634  0.5380  0.0655
  517MOL0     C69679  -1.702   7.605  11.622  0.2831 -0.0421  0.0614
  517MOL0     C69680  -1.835   7.658  11.573 -0.3709 -0.8280 -0.1035
  517MOL0     C69681  -1.828   7.810  11.563 -0.1696 -0.6425 -0.1132
  517MOL0     C69682  -1.938   7.877  11.481  0.4789  1.1189 -0.2556
  517MOL0     C69683  -2.085   7.846  11.534  0.2280  0.0234  0.5047
  517MOL0     O69684  -2.173   7.933  11.464  0.0438  0.1246  0.1550
  517MOL0     C69685  -2.311   7.914  11.481 -0.1551 -0.0128 -0.4103
  517MOL0     C69686  -2.381   7.830  11.572 -0.5632  1.0466 -0.3973
  517MOL0     C69687  -2.519   7.833  11.583 -0.5223 -0.0638 -0.9122
  517MOL0     C69688  -2.586   7.744  11.687  0.3570 -0.1986 -0.2878
  517MOL0     C69689  -2.591   7.920  11.493 -0.8535  0.6598  0.0821
  517MOL0     C69690  -2.735   7.926  11.495 -1.0622  0.3580  0.6909
  517MOL0     O69691  -2.788   8.062  11.469 -0.0499  0.5350 -0.0990
  517MOL0     C69692  -2.919   8.074  11.436 -0.7821  0.0038 -0.2924
  517MOL0     C69693  -3.014   8.052  11.539  1.0438  0.8670  0.0477
  517MOL0     C69694  -3.151   8.059  11.509 -0.2333 -1.3656 -0.6942
  517MOL0     C69695  -3.195   8.103  11.376  0.4831 -0.3364 -0.1580
  517MOL0     O69696  -3.330   8.117  11.347  0.1119  0.2190  0.5461
  517MOL0     C69697  -3.398   7.997  11.387 -0.1959  0.2976  0.5896
  517MOL0     C69698  -3.543   8.013  11.335 -0.4259 -0.8292 -0.4531
  517MOL0     C69699  -3.599   8.142  11.384  0.2155 -0.8749 -0.7392
  517MOL0     C69700  -3.749   8.146  11.336 -0.0821  0.3753 -0.2560
  517MOL0     C69701  -3.827   8.243  11.428 -0.4560  0.1154  0.0843
  517MOL0     C69702  -3.972   8.230  11.412  0.4661 -0.2138  0.8843
  517MOL0     C69703  -4.046   8.284  11.528  0.2738 -0.3973 -0.5696
  517MOL0     C69704  -4.198   8.264  11.513 -0.0382  0.5238  0.3320
  517MOL0    Cl69705  -4.256   8.399  11.412 -0.1961  0.0574  0.2543
  517MOL0     C69706  -3.103   8.129  11.283 -0.3484 -0.1118  0.1068
  517MOL0     C69707  -2.965   8.110  11.311  0.2705  0.1423  0.0642
  517MOL0     O69708  -2.799   7.827  11.502  0.0124  0.1917 -0.8540
  517MOL0     C69709  -2.517   7.996  11.400 -0.2845 -0.4366  0.5488
  517MOL0     C69710  -2.376   8.005  11.402  0.2608  0.1438 -0.3812
  517MOL0     N69711  -1.643   7.636  11.741 -0.3634  0.3566 -0.9237
  517MOL0     N69712  -1.531   7.565  11.764  0.3694 -0.1749 -0.2357
  517MOL0     C69713  -0.293   7.489  11.187  0.3417 -0.7226  0.2162
  517MOL0     C69714  -0.162   7.507  11.134 -0.0707  0.9795  0.0031
  517MOL0     C69715   0.268   7.591  11.199 -0.0552  1.2824 -0.1240
  517MOL0     C69716   0.332   7.676  11.286  0.0664  0.0199  0.6610
  517MOL0     C69717   0.469   7.689  11.275 -1.1194  0.3477  0.6970
  517MOL0     C69718   0.545   7.607  11.186 -0.3726 -0.3757 -0.7926
  517MOL0     O69719   0.682   7.618  11.193 -0.0590  0.8926 -0.6687
  517MOL0     C69720   0.758   7.534  11.100  0.6631 -0.7702  0.4780
  517MOL0     C69721   0.909   7.539  11.125  0.5986 -0.6934  0.5271
  517MOL0     C69722   0.952   7.679  11.116 -0.0299  0.3408  0.6577
  517MOL0     C69723   1.067   7.700  11.004  0.3001 -0.3624 -0.1348
  517MOL0     C69724   1.182   7.617  11.025  0.6825 -0.5328  0.1803
  517MOL0     C69725   1.281   7.555  11.036 -0.4112  0.1793 -0.3935
  517MOL0     C69726   0.474   7.517  11.098 -0.0138  0.3601 -0.1518
  517MOL0     C69727   0.339   7.516  11.098 -0.5666  0.5759  0.4396
  517MOL0     H69728  -0.016   7.278  11.348 -2.4591  0.2778  2.1151
  517MOL0     H69729  -0.227   7.241  11.407  0.3866 -1.5757 -1.5701
  517MOL0     H69730  -0.537   7.543  11.385  1.6522 -0.7696 -0.1044
  517MOL0     H69731  -0.590   7.482  11.232 -1.1770 -1.2133  0.6477
  517MOL0     H69732  -0.708   7.290  11.321 -0.5230 -0.8742  1.0060
  517MOL0     H69733  -0.626   7.325  11.477  0.8813  1.2648 -0.3454
  517MOL0     H69734  -0.762   7.542  11.476  0.1391  1.3610 -1.8251
  517MOL0     H69735  -0.837   7.490  11.326  0.3655 -1.8616 -0.7554
  517MOL0     H69736  -0.949   7.312  11.411 -1.0227 -1.7719  1.5947
  517MOL0     H69737  -0.886   7.334  11.575 -0.7420  0.3570  0.1976
  517MOL0     H69738  -1.009   7.561  11.589  2.2709  1.9815 -3.1374
  517MOL0     H69739  -1.061   7.537  11.424  0.0251 -0.2559 -0.6325
  517MOL0     H69740  -1.155   7.314  11.498 -1.7575  0.6812 -0.7616
  517MOL0     H69741  -1.118   7.351  11.663 -1.5928  1.3592  1.7855
  517MOL0     H69742  -1.260   7.557  11.659 -3.7142  3.7618 -1.8912
  517MOL0     H69743  -1.288   7.552  11.496 -2.1638  0.7519  1.5828
  517MOL0     H69744  -1.377   7.336  11.686  0.3128  1.3815  1.1773
  517MOL0     H69745  -1.430   7.344  11.513  2.3217  1.4270 -1.5077
  517MOL0     H69746  -1.602   7.495  11.449  0.7181  1.3646 -0.2065
  517MOL0     H69747  -1.836   7.616  11.472 -2.6639 -0.1980 -0.4009
  517MOL0     H69748  -1.920   7.616  11.627  0.7470 -0.3441  2.1658
  517MOL0     H69749  -1.731   7.843  11.524  1.2056 -1.4278  2.4028
  517MOL0     H69750  -1.837   7.855  11.662 -0.5354 -1.3257  0.1686
  517MOL0     H69751  -1.928   7.836  11.380  0.5066  1.8065 -0.5350
  517MOL0     H69752  -1.936   7.986  11.489 -0.2680  1.1688 -0.6394
  517MOL0     H69753  -2.094   7.860  11.642 -0.7033  5.5853 -0.0194
  517MOL0     H69754  -2.117   7.744  11.512 -0.2032  0.0567  0.9667
  517MOL0     H69755  -2.316   7.767  11.633  1.2653  1.0427 -2.2377
  517MOL0     H69756  -2.533   7.749  11.783 -1.8518  0.4314  0.9854
  517MOL0     H69757  -2.689   7.771  11.712  1.6457  1.5991  4.1574
  517MOL0     H69758  -2.584   7.647  11.638 -2.2589 -0.9103  0.8139
  517MOL0     H69759  -2.982   8.051  11.643 -0.6633 -0.6932  0.6050
  517MOL0     H69760  -3.216   8.032  11.592 -2.9255 -0.7790 -2.4961
  517MOL0     H69761  -3.361   7.910  11.332  1.3542 -0.0024  2.0022
  517MOL0     H69762  -3.395   7.979  11.495  1.1448  1.5096  0.7919
  517MOL0     H69763  -3.537   8.010  11.225  1.1796 -0.3765 -0.4124
  517MOL0     H69764  -3.584   7.920  11.375 -0.6481 -0.2452  0.7137
  517MOL0     H69765  -3.555   8.234  11.344  2.5109 -1.3609  0.4794
  517MOL0     H69766  -3.593   8.137  11.494 -1.6479  0.6323 -0.5247
  517MOL0     H69767  -3.741   8.182  11.233  1.4740  0.3659 -0.1655
  517MOL0     H69768  -3.795   8.048  11.349 -3.0975  1.5769 -1.0412
  517MOL0     H69769  -3.787   8.342  11.405  0.9831 -0.9363 -2.2093
  517MOL0     H69770  -3.792   8.211  11.527 -0.3460 -3.0727 -0.8815
  517MOL0     H69771  -3.999   8.282  11.320  0.1330 -1.1646  0.4219
  517MOL0     H69772  -4.001   8.124  11.404 -2.3573  0.6342 -2.9800
  517MOL0     H69773  -4.030   8.387  11.561 -1.4357 -0.4483  0.5374
  517MOL0     H69774  -4.009   8.231  11.616  1.5302 -0.7840 -1.2998
  517MOL0     H69775  -4.235   8.285  11.614  1.1831  3.2475  0.3103
  517MOL0     H69776  -4.233   8.168  11.475  0.6886  0.2398  0.3750
  517MOL0     H69777  -3.127   8.170  11.185 -1.8538  2.4255  1.4108
  517MOL0     H69778  -2.895   8.140  11.234  1.7040 -0.9565  0.8931
  517MOL0     H69779  -2.558   8.066  11.327 -1.9508 -4.6119 -3.0132
  517MOL0     H69780  -2.323   8.082  11.347  0.1370  1.1223  0.8266
  517MOL0     H69781  -0.366   7.556  11.143  0.2832 -0.8147  0.1716
  517MOL0     H69782  -0.151   7.580  11.055  0.2957  0.9659  0.0400
  517MOL0     H69783   0.270   7.737  11.352 -1.5401 -1.8080  0.9250
  517MOL0     H69784   0.526   7.762  11.331  2.3885  0.3129 -2.3906
  517MOL0     H69785   0.722   7.432  11.110 -2.2882 -0.1048 -1.7491
  517MOL0     H69786   0.726   7.569  11.001  0.8084 -1.9644  0.0020
  517MOL0     H69787   0.969   7.478  11.057 -1.2931 -1.9402 -0.1031
  517MOL0     H69788   0.932   7.512  11.229 -1.0766 -0.5059  0.9734
  517MOL0     H69789   1.007   7.702  11.208 -2.4132 -0.6839  2.4233
  517MOL0     H69790   0.880   7.759  11.095  0.2105  1.8458  4.5821
  517MOL0     H69791   1.088   7.807  10.993 -0.9704 -0.2328 -1.8325
  517MOL0     H69792   1.026   7.657  10.911 -0.3322  0.3400 -0.1929
  517MOL0     H69793   1.369   7.496  11.053  1.7748  1.9563 -4.3034
  517MOL0     H69794   0.528   7.450  11.031 -1.3267 -0.9910  0.1008
  517MOL0     H69795   0.302   7.440  11.031  3.1392  1.3120 -2.8202
  518MOL0     O69796   9.695   6.746   7.183  0.8530  0.2087  0.3119
  518MOL0     C69797   9.660   6.837   7.254 -0.4984 -0.5894  0.3350
  518MOL0     O69798   9.534   6.860   7.302 -0.0356 -0.4906  0.2400
  518MOL0     C69799   9.420   6.798   7.251  0.2829 -0.1179  0.5739
  518MOL0     C69800   9.303   6.793   7.327  0.5608  1.1513  0.5661
  518MOL0     C69801   9.187   6.718   7.293  0.3530  0.1307 -0.2979
  518MOL0     C69802   9.186   6.635   7.180 -0.0941 -0.1864 -0.0109
  518MOL0     O69803   9.082   6.553   7.135  0.9339  0.3038  0.0489
  518MOL0     C69804   8.960   6.557   7.211 -0.3211  0.7361  0.8652
  518MOL0     C69805   8.863   6.448   7.168  0.0148  0.3760  0.8492
  518MOL0     C69806   8.739   6.441   7.255  0.0755  0.5606 -0.4237
  518MOL0     C69807   8.639   6.321   7.223  0.5497 -0.0948 -0.1365
  518MOL0     C69808   8.518   6.321   7.319 -0.2788 -0.0930 -0.5373
  518MOL0     C69809   8.436   6.194   7.303  1.1900  0.6224 -0.1884
  518MOL0     C69810   8.311   6.218   7.388  0.2367  0.2404  0.2921
  518MOL0     C69811   8.229   6.089   7.397 -0.4243 -0.4612 -0.4929
  518MOL0     N69812   8.188   6.029   7.270  0.1717  0.2524 -0.1884
  518MOL0     C69813   8.064   6.044   7.212 -0.4790 -0.6303 -0.3172
  518MOL0     C69814   8.060   5.945   7.118 -0.3611  0.2129 -0.8522
  518MOL0     C69815   7.950   5.892   7.030 -0.1054  0.2260 -0.8768
  518MOL0     C69816   7.801   5.905   7.058  0.5506  0.2755  0.2454
  518MOL0     C69817   7.720   5.789   6.991 -0.0351 -0.2178  0.2350
  518MOL0     C69818   7.565   5.805   6.985 -0.1997  0.7862  0.4218
  518MOL0     O69819   7.518   5.875   7.090 -0.0385  0.5082 -0.2442
  518MOL0     C69820   7.387   5.923   7.080  0.0944  0.4143 -0.0943
  518MOL0     C69821   7.344   6.010   7.181 -0.1713  0.2054 -0.1142
  518MOL0     C69822   7.209   6.046   7.192 -0.1564 -0.2752 -0.7534
  518MOL0     C69823   7.173   6.139   7.312 -0.2834 -0.4671 -0.0276
  518MOL0     C69824   7.115   6.006   7.093  0.6890  0.8488 -0.8254
  518MOL0     C69825   6.968   6.034   7.092  0.1587 -0.1983  0.0375
  518MOL0     O69826   6.889   5.963   7.007  0.9946  0.0415 -0.1537
  518MOL0     C69827   6.756   5.985   7.007  0.6318  0.0341  0.5066
  518MOL0     C69828   6.672   5.871   7.024  0.1900 -0.4610  0.2092
  518MOL0     C69829   6.538   5.873   7.018  0.2295 -0.3577  0.4099
  518MOL0     C69830   6.480   5.992   7.004  0.9897 -0.0777  0.4524
  518MOL0     O69831   6.341   6.002   7.021  0.1523 -0.3793  0.0888
  518MOL0     C69832   6.297   5.968   7.154 -0.7845 -0.7182  0.5321
  518MOL0     C69833   6.145   5.967   7.159  0.2021 -0.7568 -0.5406
  518MOL0     C69834   6.094   5.921   7.299  0.6599  1.2502  0.7489
  518MOL0     C69835   5.944   5.953   7.334  0.0573 -0.2161 -0.4835
  518MOL0     C69836   5.835   5.900   7.243 -0.7731  0.2008  0.3117
  518MOL0     C69837   5.798   5.763   7.260 -0.2059  0.3302 -0.8738
  518MOL0     C69838   5.703   5.718   7.152 -0.2900 -0.2075  0.7621
  518MOL0     C69839   5.563   5.762   7.183  0.4939 -0.0108  0.4700
  518MOL0    Cl69840   5.453   5.688   7.053 -0.2908 -0.5206  0.1268
  518MOL0     C69841   6.548   6.104   6.972 -0.6751 -0.4799 -0.6056
  518MOL0     C69842   6.691   6.102   6.969  0.0859 -0.0647 -0.2264
  518MOL0     O69843   6.919   6.104   7.176 -0.8883 -0.1789  0.6182
  518MOL0     C69844   7.168   5.926   6.988  0.4234 -0.3488  0.1420
  518MOL0     C69845   7.298   5.884   6.984  0.2268 -0.0901  0.5567
  518MOL0     N69846   8.186   5.884   7.111 -0.8733 -0.8150 -0.4026
  518MOL0     N69847   8.266   5.939   7.201 -0.1983  0.1464  0.2379
  518MOL0     C69848   9.306   6.624   7.107 -0.0189 -0.1787  0.4281
  518MOL0     C69849   9.415   6.718   7.130  0.1436  0.4343 -0.2209
  518MOL0     C69850   9.768   6.927   7.293 -0.1618 -0.0065 -0.2573
  518MOL0     C69851   9.897   6.902   7.245 -0.0297  0.1161  0.2040
  518MOL0     C69852   9.998   6.993   7.269  0.3935  0.3605 -0.8395
  518MOL0     C69853   9.965   7.118   7.334  0.1638  0.0446  0.0766
  518MOL0     O69854  10.067   7.203   7.366 -0.4612  0.1359  0.3899
  518MOL0     C69855  10.052   7.304   7.473 -0.6376  1.7022  1.1414
  518MOL0     C69856  10.191   7.363   7.485  0.4772 -0.0313  0.3958
  518MOL0     C69857  10.200   7.484   7.575 -0.1200  0.6540  0.2371
  518MOL0     C69858  10.232   7.450   7.720  0.2660 -0.3110 -0.1278
  518MOL0     C69859  10.125   7.390   7.794  0.5210 -0.0615  0.3712
  518MOL0     C69860  10.020   7.353   7.851 -0.2502  0.8398  0.8164
  518MOL0     C69861   9.835   7.143   7.385 -0.3320 -0.2051  0.3565
  518MOL0     C69862   9.739   7.052   7.353 -0.3495  0.1674 -0.5412
  518MOL0     H69863   9.321   6.834   7.426 -1.3087  0.4414  1.2533
  518MOL0     H69864   9.106   6.716   7.365  1.0769 -1.8339  0.5047
  518MOL0     H69865   8.992   6.537   7.314  0.7213  2.3551  0.8919
  518MOL0     H69866   8.916   6.657   7.198  0.1644  0.5831 -2.7178
  518MOL0     H69867   8.835   6.471   7.064  1.6153  1.3491  0.6058
  518MOL0     H69868   8.919   6.354   7.173  2.0057  1.5434  1.3324
  518MOL0     H69869   8.781   6.430   7.356  2.5301  3.1607 -1.0296
  518MOL0     H69870   8.692   6.540   7.256 -1.7892 -0.2726 -0.9831
  518MOL0     H69871   8.598   6.322   7.122 -3.2600 -1.0679  1.2493
  518MOL0     H69872   8.700   6.232   7.241  0.9952 -0.0553 -1.3384
  518MOL0     H69873   8.558   6.341   7.419 -1.0124  1.3721 -0.5111
  518MOL0     H69874   8.456   6.407   7.291 -1.0443  0.5307  2.6057
  518MOL0     H69875   8.409   6.177   7.198 -0.3179  1.0320  0.1088
  518MOL0     H69876   8.485   6.102   7.336 -0.7739 -1.2931 -2.2518
  518MOL0     H69877   8.329   6.258   7.488  0.0918  0.3960  0.2572
  518MOL0     H69878   8.251   6.300   7.347  0.0021  0.3481  0.8360
  518MOL0     H69879   8.135   6.116   7.445 -0.6427  2.1889 -2.2098
  518MOL0     H69880   8.292   6.013   7.445  1.9745  1.2274 -0.7793
  518MOL0     H69881   7.988   6.116   7.240  0.1696 -1.0073  2.7391
  518MOL0     H69882   7.975   5.932   6.931  1.0342  0.5871 -0.4563
  518MOL0     H69883   7.967   5.784   7.037  1.2704  0.5074  0.5184
  518MOL0     H69884   7.770   6.004   7.021  2.0361  0.2758 -1.1276
  518MOL0     H69885   7.778   5.890   7.164 -0.4697 -0.5438 -0.0791
  518MOL0     H69886   7.735   5.696   7.047 -2.4106 -1.6650 -1.3628
  518MOL0     H69887   7.750   5.753   6.892  1.5447  0.5859  0.3890
  518MOL0     H69888   7.522   5.704   6.980 -0.1224  0.7971 -1.4509
  518MOL0     H69889   7.538   5.860   6.894  1.0631  2.1610  0.8469
  518MOL0     H69890   7.418   6.033   7.258  1.6926 -5.0012  0.1127
  518MOL0     H69891   7.116   6.091   7.393  0.1252 -1.9065 -0.5518
  518MOL0     H69892   7.263   6.177   7.363  0.4444 -2.6385  0.4255
  518MOL0     H69893   7.117   6.227   7.281  3.0322  2.1450  0.8702
  518MOL0     H69894   6.717   5.775   7.045  1.3526 -0.2155 -1.0161
  518MOL0     H69895   6.463   5.794   7.019 -0.0418 -0.1134 -0.1340
  518MOL0     H69896   6.331   5.867   7.178  0.2232 -1.1617 -2.3713
  518MOL0     H69897   6.329   6.055   7.213  0.0440  0.2296 -1.2427
  518MOL0     H69898   6.108   6.069   7.146 -0.7669 -1.2303 -1.6672
  518MOL0     H69899   6.097   5.901   7.086 -1.4744  0.5337 -0.6759
  518MOL0     H69900   6.158   5.958   7.380  0.6014  4.1555 -0.4124
  518MOL0     H69901   6.096   5.812   7.299 -0.6423  1.1961 -0.3963
  518MOL0     H69902   5.921   5.923   7.436 -3.0400 -0.8204 -1.2607
  518MOL0     H69903   5.946   6.063   7.333 -0.6934 -0.1711  1.0442
  518MOL0     H69904   5.875   5.905   7.141  1.1523 -2.7171  0.8003
  518MOL0     H69905   5.740   5.954   7.251 -0.8092  0.0958  0.6055
  518MOL0     H69906   5.884   5.696   7.260  1.0982  1.9656 -0.4144
  518MOL0     H69907   5.755   5.757   7.360  1.0684 -5.0164 -0.3338
  518MOL0     H69908   5.717   5.611   7.132 -0.3068  0.2948 -2.4633
  518MOL0     H69909   5.737   5.759   7.056  0.1589  1.4000  1.5623
  518MOL0     H69910   5.559   5.871   7.187 -0.2174 -0.0425  0.8227
  518MOL0     H69911   5.528   5.716   7.276  0.2294  0.7113  0.7311
  518MOL0     H69912   6.486   6.191   6.953 -2.1976 -1.2374  0.7050
  518MOL0     H69913   6.755   6.186   6.946  0.8794 -0.5550  0.1323
  518MOL0     H69914   7.102   5.888   6.910  1.0528  1.4628 -1.3420
  518MOL0     H69915   7.330   5.827   6.898 -0.2093  1.5374 -0.7524
  518MOL0     H69916   9.307   6.546   7.032 -2.8220 -0.7961  0.9096
  518MOL0     H69917   9.499   6.717   7.062 -1.2176  0.1495 -1.9928
  518MOL0     H69918   9.936   6.816   7.191 -0.8257 -1.1093  1.5017
  518MOL0     H69919  10.100   6.971   7.239  0.7794 -1.9188  1.7542
  518MOL0     H69920   9.988   7.388   7.445 -0.0835  1.5512 -0.7022
  518MOL0     H69921  10.008   7.261   7.563 -0.7428  0.0034  0.3155
  518MOL0     H69922  10.218   7.386   7.381 -3.1184  1.3482 -0.3730
  518MOL0     H69923  10.266   7.287   7.509  1.9572  0.8139 -1.2952
  518MOL0     H69924  10.111   7.547   7.566 -0.7157 -0.4211 -2.0302
  518MOL0     H69925  10.291   7.539   7.549  0.1567  0.3091  0.4716
  518MOL0     H69926  10.250   7.547   7.767 -1.4256  0.7300 -1.4679
  518MOL0     H69927  10.319   7.385   7.734 -0.6353 -0.9592  3.1164
  518MOL0     H69928   9.925   7.322   7.891  1.0681 -0.2428  3.3021
  518MOL0     H69929   9.805   7.229   7.443  0.4159  0.0014  0.4510
  518MOL0     H69930   9.639   7.078   7.386  0.1130  2.0609 -0.4668
  519MOL0     O69931   5.269   7.286   2.335 -0.4656  0.4790  0.8754
  519MOL0     C69932   5.306   7.316   2.222  0.2535 -0.8505  0.4892
  519MOL0     O69933   5.216   7.349   2.117 -0.0683 -0.0713 -0.4085
  519MOL0     C69934   5.079   7.326   2.107 -0.8053  0.7161 -0.6429
  519MOL0     C69935   5.014   7.380   2.000 -0.2730 -0.1858 -0.1452
  519MOL0     C69936   4.880   7.359   1.967 -0.2048 -0.5989 -0.2162
  519MOL0     C69937   4.803   7.272   2.051  0.2635 -0.7348 -0.4378
  519MOL0     O69938   4.674   7.264   2.005  0.1050  0.5250  0.3237
  519MOL0     C69939   4.577   7.217   2.095 -0.5201  0.0411 -0.1788
  519MOL0     C69940   4.448   7.200   2.018  0.0694  0.2538 -0.0735
  519MOL0     C69941   4.344   7.141   2.116  0.0433 -0.2925 -0.5548
  519MOL0     C69942   4.200   7.133   2.062  0.3690 -0.2651 -0.3356
  519MOL0     C69943   4.098   7.093   2.172 -0.8360 -0.4380 -0.7917
  519MOL0     C69944   3.956   7.097   2.127  0.5226 -0.7572  0.7818
  519MOL0     C69945   3.910   6.979   2.034  1.2136  0.0267 -0.3526
  519MOL0     C69946   3.874   6.853   2.114  0.8552 -0.1140 -0.6676
  519MOL0     N69947   3.731   6.844   2.147 -0.4228  0.1174 -1.1636
  519MOL0     C69948   3.655   6.728   2.154  0.0339  0.5183 -0.2690
  519MOL0     C69949   3.531   6.757   2.194 -0.3560 -0.8183  0.2445
  519MOL0     C69950   3.407   6.674   2.212  0.3139 -0.7490 -0.3249
  519MOL0     C69951   3.348   6.684   2.351 -0.1247  0.1524  0.6179
  519MOL0     C69952   3.293   6.817   2.401  0.2173 -0.0253  0.6307
  519MOL0     C69953   3.169   6.856   2.311  0.0719  0.5486 -0.6649
  519MOL0     O69954   3.055   6.786   2.358  0.0945 -0.3414 -0.3252
  519MOL0     C69955   2.957   6.779   2.267 -0.2446  0.2392 -0.5613
  519MOL0     C69956   2.967   6.720   2.143  0.1983 -0.1676 -0.4725
  519MOL0     C69957   2.869   6.740   2.049 -0.4957 -0.3440  0.0100
  519MOL0     C69958   2.902   6.693   1.912  1.0007  0.4106  0.1751
  519MOL0     C69959   2.746   6.806   2.083  0.2317  1.3900 -0.1628
  519MOL0     C69960   2.634   6.824   1.987 -0.3402  0.2689  0.0397
  519MOL0     O69961   2.602   6.730   1.884  0.5857 -0.3325 -0.0416
  519MOL0     C69962   2.475   6.736   1.818  0.0678 -0.5937  0.5120
  519MOL0     C69963   2.464   6.704   1.679 -0.7541 -0.2335 -0.4868
  519MOL0     C69964   2.346   6.717   1.602  0.2867  1.1116  0.4794
  519MOL0     C69965   2.229   6.750   1.672  0.3902 -0.0197 -0.1026
  519MOL0     O69966   2.113   6.785   1.608 -0.3369 -0.3702 -0.5262
  519MOL0     C69967   2.081   6.744   1.473  0.1200  0.2296 -0.5887
  519MOL0     C69968   2.005   6.843   1.404  0.0115 -0.3223  0.8687
  519MOL0     C69969   1.865   6.844   1.450  0.2688  1.0289 -1.0706
  519MOL0     C69970   1.774   6.951   1.379 -0.4967  0.0976 -0.2372
  519MOL0     C69971   1.627   6.950   1.422 -0.6657 -0.1852 -0.2287
  519MOL0     C69972   1.556   7.063   1.363  0.6338 -0.0199 -0.4020
  519MOL0     C69973   1.416   7.056   1.428  0.6224  0.3256 -0.1240
  519MOL0     C69974   1.324   7.161   1.364 -0.1513  0.4262  0.4630
  519MOL0    Cl69975   1.161   7.156   1.429 -0.1306  0.2494  0.1168
  519MOL0     C69976   2.238   6.769   1.808 -0.0737  0.3171 -0.3131
  519MOL0     C69977   2.359   6.767   1.883 -0.1147 -0.1094  0.2588
  519MOL0     O69978   2.568   6.930   2.012  0.2297  0.3439 -0.0414
  519MOL0     C69979   2.734   6.850   2.217  0.1405 -0.0948  0.2237
  519MOL0     C69980   2.843   6.842   2.301  0.2222  0.2449  0.2443
  519MOL0     N69981   3.540   6.893   2.223  0.2227  0.0837 -0.0697
  519MOL0     N69982   3.657   6.942   2.206 -0.1041 -0.0113  0.5146
  519MOL0     C69983   4.864   7.223   2.165 -0.0260 -0.5565 -1.1432
  519MOL0     C69984   5.005   7.245   2.188 -0.2587 -0.7374 -0.4321
  519MOL0     C69985   5.446   7.337   2.187 -0.5457  0.1113 -0.2378
  519MOL0     C69986   5.479   7.410   2.074  0.1459 -0.3384  0.3096
  519MOL0     C69987   5.615   7.448   2.039 -0.5090  0.7088  0.0956
  519MOL0     C69988   5.718   7.407   2.129  0.9195 -0.1628 -0.7955
  519MOL0     O69989   5.846   7.459   2.112  0.1208  0.0392  0.5175
  519MOL0     C69990   5.877   7.560   2.013  0.6508  0.1332 -0.5175
  519MOL0     C69991   6.024   7.571   2.024 -0.7796 -0.2054 -0.2563
  519MOL0     C69992   6.059   7.662   2.142 -0.8454  0.6015  0.1196
  519MOL0     C69993   6.193   7.731   2.118  0.2743  0.9025  0.3163
  519MOL0     C69994   6.304   7.635   2.104  0.3608  0.6600 -0.2543
  519MOL0     C69995   6.389   7.555   2.082 -0.5360  0.7439  0.7560
  519MOL0     C69996   5.689   7.324   2.240 -0.1518  0.4355  0.5017
  519MOL0     C69997   5.553   7.292   2.271 -0.5449 -0.7571 -0.0758
  519MOL0     H69998   5.067   7.442   1.928 -2.9992 -0.4646 -2.6303
  519MOL0     H69999   4.830   7.404   1.881 -0.7549 -1.5851 -0.4264
  519MOL0     H70000   4.599   7.118   2.138  0.8500  0.1801 -0.5087
  519MOL0     H70001   4.566   7.286   2.179  0.3269 -0.3119  0.2403
  519MOL0     H70002   4.410   7.297   1.984 -1.1159 -0.9916 -2.6029
  519MOL0     H70003   4.475   7.142   1.929  2.5116  1.4927 -0.2286
  519MOL0     H70004   4.374   7.043   2.154  0.4205  0.1155  0.2272
  519MOL0     H70005   4.344   7.213   2.199  1.8895 -0.4058 -0.4123
  519MOL0     H70006   4.178   7.232   2.020 -1.1976 -0.7463 -0.6919
  519MOL0     H70007   4.198   7.061   1.980 -0.7067  1.1424 -1.5954
  519MOL0     H70008   4.123   6.993   2.207 -2.2235 -0.1452  1.2678
  519MOL0     H70009   4.118   7.162   2.255  0.0900 -1.3265 -0.2507
  519MOL0     H70010   3.895   7.106   2.217  0.4725 -1.3620  0.8075
  519MOL0     H70011   3.942   7.189   2.068  0.9449 -0.0806  1.7048
  519MOL0     H70012   3.821   7.000   1.974 -0.4831 -1.5134  1.5340
  519MOL0     H70013   3.987   6.945   1.963 -0.0652 -3.2801 -0.2857
  519MOL0     H70014   3.940   6.844   2.200  1.0001  0.5970 -0.6964
  519MOL0     H70015   3.883   6.771   2.041  1.3574  0.3024 -1.0792
  519MOL0     H70016   3.688   6.625   2.141  2.2318  0.8240  2.1290
  519MOL0     H70017   3.336   6.705   2.135 -2.6854 -3.4276  1.1563
  519MOL0     H70018   3.434   6.570   2.191  1.3105 -0.1017 -2.4543
  519MOL0     H70019   3.434   6.654   2.411  1.3116  2.0148 -0.4003
  519MOL0     H70020   3.263   6.615   2.355 -0.3386  0.4177  0.7334
  519MOL0     H70021   3.374   6.889   2.415 -1.2852  1.6648  1.1064
  519MOL0     H70022   3.246   6.802   2.499 -3.1953  1.3838 -0.6116
  519MOL0     H70023   3.197   6.853   2.205 -0.2624  0.0946 -0.7454
  519MOL0     H70024   3.159   6.964   2.329  1.9051  0.3834  1.7206
  519MOL0     H70025   3.055   6.668   2.105  0.5270  0.7291 -0.9729
  519MOL0     H70026   2.914   6.783   1.851  2.3567 -0.3595 -0.7452
  519MOL0     H70027   2.991   6.632   1.899  0.7119 -0.2494  1.1467
  519MOL0     H70028   2.817   6.643   1.865 -0.3375  2.6505  0.0674
  519MOL0     H70029   2.556   6.679   1.628  0.6670  3.0836  0.1942
  519MOL0     H70030   2.357   6.681   1.500  2.9356  0.3148  0.9635
  519MOL0     H70031   2.169   6.721   1.411  1.7702  1.8072  1.0173
  519MOL0     H70032   2.030   6.648   1.475 -1.5616  1.0348 -2.1598
  519MOL0     H70033   2.044   6.944   1.424 -1.7620  0.8670 -1.2022
  519MOL0     H70034   1.999   6.822   1.297 -3.4660 -0.3079  0.9581
  519MOL0     H70035   1.863   6.853   1.559  3.1430 -2.0286 -0.5822
  519MOL0     H70036   1.832   6.741   1.435 -0.1545  0.6544  1.9020
  519MOL0     H70037   1.830   7.040   1.409 -0.7925 -0.2218  1.3495
  519MOL0     H70038   1.776   6.939   1.270 -1.1287 -1.5191 -0.0932
  519MOL0     H70039   1.629   6.968   1.530  0.3481  0.7697 -0.3891
  519MOL0     H70040   1.581   6.852   1.406  2.6220 -2.1518  1.1868
  519MOL0     H70041   1.599   7.159   1.392 -0.7853  0.9314 -1.2688
  519MOL0     H70042   1.542   7.058   1.254 -0.6743  2.9824 -0.4806
  519MOL0     H70043   1.430   7.079   1.534 -3.1019  1.1898  0.3192
  519MOL0     H70044   1.372   6.959   1.403  0.2755  1.2312 -3.6344
  519MOL0     H70045   1.307   7.150   1.256 -1.4130  0.9752  0.5868
  519MOL0     H70046   1.373   7.256   1.386  0.3519 -0.2051  2.2488
  519MOL0     H70047   2.149   6.796   1.864 -0.5968  0.7861 -1.3302
  519MOL0     H70048   2.361   6.795   1.988 -0.6668  1.2914 -0.0752
  519MOL0     H70049   2.652   6.901   2.265  0.4029 -0.0077  0.5866
  519MOL0     H70050   2.842   6.879   2.403 -1.6838  1.5334 -0.1766
  519MOL0     H70051   4.806   7.173   2.242 -1.9984  3.1993  0.0709
  519MOL0     H70052   5.051   7.194   2.272 -1.1838 -1.2507 -0.2245
  519MOL0     H70053   5.395   7.436   2.011 -1.2184 -1.0548  1.7804
  519MOL0     H70054   5.634   7.521   1.961 -1.4302  1.6102  0.6773
  519MOL0     H70055   5.860   7.535   1.908 -0.9176 -1.6109  0.0963
  519MOL0     H70056   5.834   7.659   2.031 -0.7387 -0.4554 -0.4926
  519MOL0     H70057   6.074   7.607   1.934 -0.1045  3.8455  1.5535
  519MOL0     H70058   6.054   7.468   2.046  1.5102 -0.0163 -2.0889
  519MOL0     H70059   6.068   7.606   2.236  2.1148 -4.7786 -2.8987
  519MOL0     H70060   5.985   7.741   2.161  0.7300  1.4641  3.5210
  519MOL0     H70061   6.217   7.794   2.204 -2.3714  1.4360  0.7313
  519MOL0     H70062   6.192   7.787   2.024  2.1586  1.1262  0.3854
  519MOL0     H70063   6.466   7.487   2.052 -1.3588 -0.2770  0.9120
  519MOL0     H70064   5.767   7.300   2.312 -0.3620 -0.1965  0.5208
  519MOL0     H70065   5.538   7.239   2.365  0.5526  1.7649  1.6267
  520MOL0     O70066   7.665   2.504   4.680  0.3566 -0.2807 -0.3057
  520MOL0     C70067   7.730   2.490   4.577  0.7007 -0.2318 -0.3439
  520MOL0     O70068   7.679   2.439   4.462 -0.0787 -0.5678  0.7780
  520MOL0     C70069   7.549   2.408   4.439  0.2988  0.5420  0.0199
  520MOL0     C70070   7.439   2.497   4.437  0.6999  0.3203  1.1729
  520MOL0     C70071   7.310   2.452   4.393  0.5211  0.8619 -0.8682
  520MOL0     C70072   7.285   2.323   4.331 -0.3262  0.3053  0.1207
  520MOL0     O70073   7.171   2.262   4.287  0.0823  0.1734  0.2756
  520MOL0     C70074   7.046   2.322   4.305  0.9030  1.0031 -0.1277
  520MOL0     C70075   6.987   2.379   4.174 -0.1992 -0.2271  0.2175
  520MOL0     C70076   6.839   2.359   4.162 -0.3132 -0.1731  0.2376
  520MOL0     C70077   6.758   2.424   4.045  0.4375  0.2301 -0.2677
  520MOL0     C70078   6.747   2.572   4.055  0.2022  0.1665  0.3254
  520MOL0     C70079   6.643   2.632   3.949  0.3647 -0.2521 -0.2966
  520MOL0     C70080   6.650   2.617   3.794  0.4265 -0.5825  0.5651
  520MOL0     C70081   6.769   2.685   3.733  0.3339  0.1054 -0.2006
  520MOL0     N70082   6.760   2.833   3.720  0.1104  0.3960 -0.3075
  520MOL0     C70083   6.648   2.892   3.668 -1.0148 -0.9219 -0.2565
  520MOL0     C70084   6.687   3.026   3.663  0.0903 -0.0702 -0.4900
  520MOL0     C70085   6.598   3.148   3.637  1.2037  0.0383  0.1492
  520MOL0     C70086   6.478   3.144   3.730 -0.4816  0.2766  0.1705
  520MOL0     C70087   6.419   3.287   3.724 -0.5694  0.6602  0.4418
  520MOL0     C70088   6.275   3.273   3.782 -0.5476  0.4283  0.7653
  520MOL0     O70089   6.218   3.406   3.805 -0.3710 -0.4814  0.3769
  520MOL0     C70090   6.125   3.395   3.901  0.8255 -0.4323  0.6665
  520MOL0     C70091   6.157   3.415   4.034  0.2962  0.9094 -0.0064
  520MOL0     C70092   6.059   3.414   4.140 -0.5547  0.0508  0.0807
  520MOL0     C70093   6.111   3.450   4.281  0.3638 -0.1111 -0.0206
  520MOL0     C70094   5.928   3.373   4.111 -0.3150 -0.4698 -0.1579
  520MOL0     C70095   5.827   3.339   4.215  0.2020 -0.2327 -0.3409
  520MOL0     O70096   5.725   3.257   4.178  0.7469  0.2596 -0.6699
  520MOL0     C70097   5.632   3.215   4.270 -0.0357 -0.2521 -0.4052
  520MOL0     C70098   5.492   3.214   4.249  0.8873 -0.8624 -0.9607
  520MOL0     C70099   5.394   3.157   4.342 -0.0496 -0.5322  0.9953
  520MOL0     C70100   5.442   3.077   4.444  0.6091 -0.1995  0.1107
  520MOL0     O70101   5.372   3.000   4.542  0.3325  0.3994 -0.1698
  520MOL0     C70102   5.237   3.030   4.566  0.2595  0.0257  0.5607
  520MOL0     C70103   5.170   2.904   4.637 -0.0606  0.1347  0.7629
  520MOL0     C70104   5.025   2.949   4.659 -0.0497 -0.2230  0.6675
  520MOL0     C70105   4.936   2.833   4.709 -0.1179  0.2889 -0.1930
  520MOL0     C70106   4.797   2.876   4.752 -0.0606 -0.6652  0.2718
  520MOL0     C70107   4.705   2.910   4.635 -0.3254  0.8192 -0.5745
  520MOL0     C70108   4.584   2.978   4.690  0.4634  0.5998  0.9723
  520MOL0     C70109   4.489   2.893   4.771  0.2481 -0.4460 -0.2452
  520MOL0    Cl70110   4.357   3.013   4.830  0.0386 -0.0613  0.2066
  520MOL0     C70111   5.579   3.083   4.468  0.5689 -0.4273 -0.2108
  520MOL0     C70112   5.665   3.150   4.388 -0.3157 -0.0822 -0.1238
  520MOL0     O70113   5.854   3.378   4.331  0.5963  0.4804 -0.2683
  520MOL0     C70114   5.891   3.344   3.986 -0.1726 -0.2601  0.4997
  520MOL0     C70115   5.986   3.370   3.876 -0.1793  0.7926  0.0025
  520MOL0     N70116   6.813   3.034   3.704 -0.4691 -0.3391  0.2633
  520MOL0     N70117   6.857   2.924   3.744  0.2712  0.1833 -1.0109
  520MOL0     C70118   7.401   2.249   4.326  0.2060  0.3420 -0.0762
  520MOL0     C70119   7.522   2.284   4.381 -0.8296 -1.0626  0.4819
  520MOL0     C70120   7.870   2.535   4.587  0.9837 -0.1621  0.5875
  520MOL0     C70121   7.949   2.535   4.473 -0.9695  0.2290  0.1637
  520MOL0     C70122   8.080   2.570   4.500  0.1320  0.5283  0.3406
  520MOL0     C70123   8.139   2.593   4.623  0.4416 -0.5027  0.3702
  520MOL0     O70124   8.274   2.626   4.626  0.1687  0.2875  0.5486
  520MOL0     C70125   8.329   2.686   4.739  0.0560 -0.1262 -0.9140
  520MOL0     C70126   8.483   2.701   4.721 -0.2970  0.1189 -0.0506
  520MOL0     C70127   8.522   2.831   4.643 -0.4159 -1.0242  0.4437
  520MOL0     C70128   8.519   2.946   4.730  0.2689 -0.6292  0.4510
  520MOL0     C70129   8.645   2.950   4.801  0.7578  0.0385  0.6100
  520MOL0     C70130   8.757   2.955   4.853  0.2413 -0.5986 -0.1736
  520MOL0     C70131   8.058   2.597   4.729 -1.0875 -0.2236 -0.1350
  520MOL0     C70132   7.927   2.568   4.718  0.6596  0.0918  0.9064
  520MOL0     H70133   7.447   2.592   4.489 -0.0859  1.3836 -0.5784
  520MOL0     H70134   7.228   2.521   4.379  1.2810  2.5218  1.9482
  520MOL0     H70135   6.982   2.240   4.341  3.0672 -1.4987 -1.6150
  520MOL0     H70136   7.043   2.395   4.387 -1.0287  1.6013 -0.6750
  520MOL0     H70137   7.021   2.483   4.165  1.1242 -0.5917  0.6548
  520MOL0     H70138   7.032   2.338   4.083 -1.5092  1.0822 -1.0874
  520MOL0     H70139   6.820   2.252   4.171 -0.7844 -0.3826 -2.3526
  520MOL0     H70140   6.788   2.402   4.249 -1.9775 -2.4171  0.4660
  520MOL0     H70141   6.808   2.427   3.948 -1.9128  0.7402 -1.5503
  520MOL0     H70142   6.662   2.373   4.030  1.2703 -1.3311 -0.4937
  520MOL0     H70143   6.721   2.608   4.155 -0.3828  1.1862 -0.1752
  520MOL0     H70144   6.846   2.613   4.033 -0.0645  0.3015 -0.6980
  520MOL0     H70145   6.543   2.591   3.970  0.6415 -2.2727 -2.5501
  520MOL0     H70146   6.630   2.740   3.962 -1.0594  0.0123 -3.1794
  520MOL0     H70147   6.650   2.511   3.767 -0.9947 -0.2370 -0.9450
  520MOL0     H70148   6.558   2.659   3.753 -0.3169 -0.1839  2.5013
  520MOL0     H70149   6.776   2.643   3.632  1.2100 -0.7457  0.1904
  520MOL0     H70150   6.856   2.663   3.796 -0.7381  0.1970  1.3694
  520MOL0     H70151   6.547   2.858   3.654 -1.6679  1.5403 -2.2511
  520MOL0     H70152   6.645   3.246   3.650 -0.0188  1.5918 -4.9901
  520MOL0     H70153   6.571   3.142   3.532  1.4704  1.6418 -0.0249
  520MOL0     H70154   6.509   3.129   3.834  0.5269  0.8475 -0.0412
  520MOL0     H70155   6.399   3.075   3.699  0.3475 -0.0540 -1.2448
  520MOL0     H70156   6.412   3.317   3.620 -0.1876  1.8513  0.7430
  520MOL0     H70157   6.479   3.354   3.787 -2.4099  1.7863  1.0818
  520MOL0     H70158   6.286   3.223   3.879  1.4278  1.3608  1.0823
  520MOL0     H70159   6.208   3.210   3.723  0.2780  1.0511 -0.9126
  520MOL0     H70160   6.259   3.433   4.067  1.7733  0.5142 -3.8402
  520MOL0     H70161   6.060   3.538   4.321  0.6806 -1.5735  4.1441
  520MOL0     H70162   6.107   3.373   4.359 -2.9426 -0.5266 -0.4314
  520MOL0     H70163   6.218   3.471   4.273  0.0526  1.2546 -0.9680
  520MOL0     H70164   5.445   3.264   4.165  0.9920 -0.5112 -0.8154
  520MOL0     H70165   5.291   3.144   4.309  0.9510  0.6303 -3.1935
  520MOL0     H70166   5.229   3.117   4.631 -0.5689  1.0188 -0.8043
  520MOL0     H70167   5.181   3.060   4.477  3.1756  3.3409 -0.3520
  520MOL0     H70168   5.163   2.818   4.569  1.9041  1.5054 -1.3187
  520MOL0     H70169   5.204   2.881   4.738  1.3611 -2.0393 -0.1296
  520MOL0     H70170   4.976   2.993   4.572 -0.7632 -1.6112  0.3262
  520MOL0     H70171   5.043   3.027   4.734  1.0213 -0.0093  0.2008
  520MOL0     H70172   4.934   2.752   4.635 -0.6372 -1.2003  1.3919
  520MOL0     H70173   4.993   2.790   4.792 -0.7925 -1.1857 -0.4726
  520MOL0     H70174   4.801   2.961   4.820 -3.9618  0.1515 -0.3011
  520MOL0     H70175   4.758   2.791   4.808 -2.9429 -0.4511 -1.2366
  520MOL0     H70176   4.761   2.975   4.567  1.4615 -2.0689 -2.0403
  520MOL0     H70177   4.676   2.823   4.575  2.2781  0.5366 -1.5438
  520MOL0     H70178   4.540   3.021   4.599  2.8421 -1.1817 -1.1661
  520MOL0     H70179   4.622   3.060   4.752  1.2338  0.0049  1.3046
  520MOL0     H70180   4.531   2.845   4.860  0.1801  0.9026  0.5373
  520MOL0     H70181   4.448   2.827   4.695 -0.1898  2.1925 -2.4547
  520MOL0     H70182   5.613   3.037   4.560 -1.8151  0.0605  1.0007
  520MOL0     H70183   5.763   3.161   4.432 -0.6796 -0.3753  0.7918
  520MOL0     H70184   5.793   3.306   3.962  1.0911 -2.2453 -2.0156
  520MOL0     H70185   5.953   3.351   3.775 -2.8233  0.5209  0.8559
  520MOL0     H70186   7.406   2.157   4.270  1.4696  0.4302 -0.1239
  520MOL0     H70187   7.600   2.208   4.377  0.5298  0.2662  0.9832
  520MOL0     H70188   7.919   2.520   4.370 -0.2552 -0.7048  0.0792
  520MOL0     H70189   8.136   2.581   4.407 -0.9864  3.2758 -0.0977
  520MOL0     H70190   8.275   2.778   4.766  0.0853 -0.3147 -0.2134
  520MOL0     H70191   8.318   2.620   4.825 -0.8010  0.0840 -0.8480
  520MOL0     H70192   8.516   2.620   4.655  1.6521  0.1438  0.8104
  520MOL0     H70193   8.547   2.687   4.809 -1.0020 -2.5660  0.1187
  520MOL0     H70194   8.457   2.845   4.557  2.0246 -2.3189 -1.7446
  520MOL0     H70195   8.621   2.819   4.597 -0.5046 -1.2985  0.3216
  520MOL0     H70196   8.435   2.959   4.799  1.0492  2.1664  0.9848
  520MOL0     H70197   8.519   3.037   4.670 -0.9689 -3.1582 -3.7399
  520MOL0     H70198   8.857   2.952   4.890  0.5168  1.1567 -0.7061
  520MOL0     H70199   8.098   2.624   4.826  1.7230  0.6273 -1.4256
  520MOL0     H70200   7.852   2.574   4.795 -2.2680  1.1758 -1.8176
  521MOL0     O70201   8.414   9.870   4.090  0.0068  0.3231  0.1416
  521MOL0     C70202   8.494   9.940   4.155  1.0367  0.1674 -0.1971
  521MOL0     O70203   8.467  10.062   4.212  0.3426 -0.0817 -0.2565
  521MOL0     C70204   8.336  10.108   4.203 -0.5389 -0.7607 -0.0912
  521MOL0     C70205   8.312  10.222   4.128  0.4008 -0.6859 -0.7156
  521MOL0     C70206   8.180  10.264   4.104  0.2527  0.5356  0.0035
  521MOL0     C70207   8.071  10.196   4.168  0.1343 -1.0262 -0.7210
  521MOL0     O70208   7.947  10.257   4.163  0.1181  0.4199  0.0198
  521MOL0     C70209   7.841  10.189   4.231  0.0656  0.1287  0.7574
  521MOL0     C70210   7.714  10.266   4.194  0.7571 -0.0272 -0.0550
  521MOL0     C70211   7.600  10.222   4.265  0.9151 -0.7192 -0.1071
  521MOL0     C70212   7.481  10.315   4.250  0.1394  0.5235 -0.2432
  521MOL0     C70213   7.367  10.272   4.353  0.4142 -0.2128 -0.8695
  521MOL0     C70214   7.227  10.328   4.329  0.0099  0.0072 -0.2777
  521MOL0     C70215   7.139  10.240   4.235  0.1299  0.9783  0.2193
  521MOL0     C70216   7.049  10.321   4.135  0.3095  1.0653  0.1856
  521MOL0     N70217   6.985  10.433   4.205  0.4861 -0.3699 -0.1066
  521MOL0     C70218   6.979  10.559   4.153 -0.2058  0.2572 -0.4467
  521MOL0     C70219   6.917  10.627   4.257  1.0476  1.0089 -0.1612
  521MOL0     C70220   6.898  10.777   4.262  0.1043  0.7539  0.4972
  521MOL0     C70221   6.750  10.814   4.272  0.3968 -0.7194 -1.0779
  521MOL0     C70222   6.747  10.966   4.273 -0.3780 -0.0552  0.1485
  521MOL0     C70223   6.618  11.049   4.238 -0.2159 -1.1844  0.7701
  521MOL0     O70224   6.584  11.011   4.101 -0.1729 -0.1347  0.1979
  521MOL0     C70225   6.476  11.068   4.048  0.5552 -0.4029 -0.0704
  521MOL0     C70226   6.438  11.025   3.919  0.1496  0.4703 -1.1842
  521MOL0     C70227   6.330  11.077   3.852  1.1056  0.4427  0.3347
  521MOL0     C70228   6.289  11.018   3.720 -0.3239  0.1756 -0.4660
  521MOL0     C70229   6.246  11.172   3.920  0.5644  0.3153 -0.0720
  521MOL0     C70230   6.128  11.231   3.856  0.2190  0.7711 -0.1901
  521MOL0     O70231   6.034  11.259   3.949 -0.1081 -0.1095  0.0655
  521MOL0     C70232   5.917  11.307   3.904 -0.1511  0.1443  0.4654
  521MOL0     C70233   5.816  11.215   3.861 -0.2145 -0.1127 -0.7749
  521MOL0     C70234   5.689  11.261   3.819 -0.3495 -0.2882 -0.2265
  521MOL0     C70235   5.671  11.403   3.814  0.4625 -0.0213  0.0298
  521MOL0     O70236   5.551  11.448   3.777  0.1874 -0.4416  0.5426
  521MOL0     C70237   5.540  11.542   3.668 -0.7826  0.5771  0.0094
  521MOL0     C70238   5.394  11.580   3.648  0.2272 -0.0714 -0.0415
  521MOL0     C70239   5.369  11.647   3.516 -0.4593 -0.5584  0.0090
  521MOL0     C70240   5.219  11.673   3.495 -0.2150 -0.2684 -0.6141
  521MOL0     C70241   5.182  11.783   3.405  0.5296  0.0408  0.3112
  521MOL0     C70242   5.233  11.916   3.464  0.3576  0.2411 -0.0476
  521MOL0     C70243   5.195  11.932   3.609  0.5290  0.1937 -0.6183
  521MOL0     C70244   5.200  12.089   3.637 -0.0820  0.1719  0.1185
  521MOL0    Cl70245   5.079  12.182   3.546  0.3287  0.0959 -0.1298
  521MOL0     C70246   5.758  11.488   3.872 -0.4582  0.4600 -0.9951
  521MOL0     C70247   5.884  11.441   3.926 -0.4051 -0.1880  0.1894
  521MOL0     O70248   6.124  11.257   3.732 -0.0383  0.5396 -0.3678
  521MOL0     C70249   6.283  11.215   4.047  0.6210 -0.1483 -0.4927
  521MOL0     C70250   6.400  11.175   4.107 -0.2935 -0.4154  0.8302
  521MOL0     N70251   6.868  10.537   4.342  0.7067 -0.8286  0.3501
  521MOL0     N70252   6.916  10.424   4.319 -0.7601 -0.6962 -0.5196
  521MOL0     C70253   8.097  10.077   4.236  0.5542 -1.0362  0.1890
  521MOL0     C70254   8.224  10.033   4.249 -0.7467 -0.3894  0.2235
  521MOL0     C70255   8.632   9.885   4.156  0.1296 -0.5751  0.2123
  521MOL0     C70256   8.728   9.973   4.209  0.1796  0.7738  0.3693
  521MOL0     C70257   8.858   9.927   4.215  0.3051  0.2118  0.2068
  521MOL0     C70258   8.902   9.799   4.183  0.4821 -0.3217 -0.0034
  521MOL0     O70259   9.031   9.752   4.193  0.2295  0.0067 -0.3186
  521MOL0     C70260   9.127   9.847   4.145 -0.9187  0.5020 -0.0192
  521MOL0     C70261   9.239   9.759   4.082  0.0123 -0.5162  0.1490
  521MOL0     C70262   9.331   9.703   4.194 -0.0839 -0.9137  0.4706
  521MOL0     C70263   9.442   9.796   4.252 -0.1029  0.8087 -0.2563
  521MOL0     C70264   9.548   9.824   4.147  0.0859 -0.0678 -0.3543
  521MOL0     C70265   9.629   9.834   4.060  0.1094 -0.5119  0.0819
  521MOL0     C70266   8.807   9.707   4.139 -0.3884  0.1030  0.4251
  521MOL0     C70267   8.667   9.749   4.123  0.7496 -0.7372  0.2833
  521MOL0     H70268   8.398  10.270   4.084  2.8295 -1.9528  2.3047
  521MOL0     H70269   8.149  10.348   4.043  1.7331  0.6196 -0.6669
  521MOL0     H70270   7.835  10.086   4.193 -0.2603  1.6200 -3.7046
  521MOL0     H70271   7.856  10.187   4.340 -1.2833  2.5278  1.0635
  521MOL0     H70272   7.738  10.371   4.214  1.4386 -0.6402  2.7530
  521MOL0     H70273   7.687  10.239   4.092 -0.0289 -3.3642  0.9228
  521MOL0     H70274   7.558  10.125   4.237 -2.8567  1.0232 -1.1547
  521MOL0     H70275   7.629  10.220   4.371  0.8538 -1.0914 -0.0991
  521MOL0     H70276   7.504  10.418   4.280  1.0081 -0.0120  1.0145
  521MOL0     H70277   7.443  10.310   4.147 -0.4883 -0.6868  0.0255
  521MOL0     H70278   7.356  10.163   4.346  1.9297 -0.5010  0.5653
  521MOL0     H70279   7.396  10.302   4.454 -2.5674  3.9997 -0.9974
  521MOL0     H70280   7.175  10.337   4.425  2.6310 -0.3384  1.2686
  521MOL0     H70281   7.250  10.425   4.282 -0.9712 -0.0964 -1.0207
  521MOL0     H70282   7.203  10.180   4.169  0.0106  0.1967  0.8118
  521MOL0     H70283   7.069  10.172   4.284 -1.4375  0.4978 -2.5103
  521MOL0     H70284   6.978  10.257   4.082 -1.6920  1.8906  1.7227
  521MOL0     H70285   7.115  10.361   4.058  1.1848 -0.1487  0.2712
  521MOL0     H70286   7.024  10.597   4.061  3.0203 -0.1095  0.8376
  521MOL0     H70287   6.962  10.811   4.343  2.3595  1.2827 -1.4035
  521MOL0     H70288   6.934  10.807   4.163 -2.3925  3.5595  0.2788
  521MOL0     H70289   6.714  10.758   4.359 -0.5184 -0.7241 -1.4512
  521MOL0     H70290   6.695  10.776   4.185 -2.0873 -2.1784  0.9875
  521MOL0     H70291   6.812  10.981   4.187 -2.4864 -0.8110 -1.6475
  521MOL0     H70292   6.785  11.007   4.367 -0.8072 -0.3696  0.4633
  521MOL0     H70293   6.641  11.156   4.238 -2.0008 -0.7671  0.2245
  521MOL0     H70294   6.545  11.035   4.318 -1.2930  1.9605  0.4831
  521MOL0     H70295   6.504  10.958   3.864  1.4050  0.1986  0.5876
  521MOL0     H70296   6.338  10.920   3.716  0.1012  0.4070 -0.9941
  521MOL0     H70297   6.180  11.005   3.716 -0.9138  4.0500 -0.6115
  521MOL0     H70298   6.305  11.072   3.626  1.2693  1.7672  0.6796
  521MOL0     H70299   5.847  11.111   3.860  0.2434  0.0156 -2.0161
  521MOL0     H70300   5.606  11.195   3.797 -2.9983  3.0413 -1.1349
  521MOL0     H70301   5.600  11.629   3.695  0.6113 -0.1640 -0.5754
  521MOL0     H70302   5.589  11.507   3.577  0.6394 -0.1220  1.0026
  521MOL0     H70303   5.351  11.479   3.652  1.3737 -0.5374  2.5192
  521MOL0     H70304   5.356  11.638   3.732 -3.1184 -1.6298 -0.3171
  521MOL0     H70305   5.402  11.586   3.432 -0.0700  1.0965 -1.1068
  521MOL0     H70306   5.422  11.743   3.518 -3.3301  1.1573  2.2663
  521MOL0     H70307   5.184  11.582   3.448  2.9981 -1.7231 -0.4451
  521MOL0     H70308   5.164  11.685   3.589  0.4238 -1.1187 -0.1205
  521MOL0     H70309   5.074  11.790   3.392  0.8780  2.5112 -1.9158
  521MOL0     H70310   5.222  11.769   3.304  1.0151 -1.2414  0.6532
  521MOL0     H70311   5.342  11.926   3.453  0.5202 -0.6754  0.6074
  521MOL0     H70312   5.199  11.999   3.400  3.0774  2.3756  1.0246
  521MOL0     H70313   5.274  11.882   3.667  1.6773  0.8800 -1.5298
  521MOL0     H70314   5.095  11.898   3.638  0.9428 -1.5043 -1.0627
  521MOL0     H70315   5.299  12.127   3.613  0.7002 -0.3255  2.3635
  521MOL0     H70316   5.188  12.110   3.744  3.2320  1.0819  0.4020
  521MOL0     H70317   5.726  11.590   3.887 -1.9394 -0.2432  1.2283
  521MOL0     H70318   5.972  11.496   3.960  1.0627 -0.7435 -2.4270
  521MOL0     H70319   6.220  11.291   4.091 -1.7366 -0.5099 -3.0201
  521MOL0     H70320   6.427  11.230   4.196 -0.3508 -2.8649  2.4626
  521MOL0     H70321   8.021  10.019   4.287 -0.3492 -0.9038 -0.9523
  521MOL0     H70322   8.239   9.933   4.288 -3.2812 -0.3174  1.5977
  521MOL0     H70323   8.708  10.078   4.227 -1.9422  0.3301  0.9598
  521MOL0     H70324   8.933   9.998   4.249  1.0963 -0.1151 -0.7989
  521MOL0     H70325   9.089   9.920   4.073  1.5436  3.0752  1.1250
  521MOL0     H70326   9.163   9.902   4.232 -0.4159  0.4111 -0.1703
  521MOL0     H70327   9.292   9.818   4.007 -1.4240  0.6222 -0.0234
  521MOL0     H70328   9.208   9.672   4.022  0.3062 -1.2336  1.0155
  521MOL0     H70329   9.375   9.609   4.158  2.1178 -0.0128  0.6396
  521MOL0     H70330   9.270   9.677   4.281 -0.1501 -2.1359  0.0738
  521MOL0     H70331   9.487   9.738   4.333 -0.7103 -1.0779 -1.2112
  521MOL0     H70332   9.408   9.895   4.283 -1.4322  0.8149 -1.6427
  521MOL0     H70333   9.695   9.859   3.980 -1.4012  0.9187 -0.7855
  521MOL0     H70334   8.833   9.604   4.115 -2.7051 -0.0079 -2.1741
  521MOL0     H70335   8.602   9.681   4.069  1.1051  0.3242 -1.5814
  522MOL0     O70336   7.276   5.051   9.210 -1.3443  0.0284  0.1545
  522MOL0     C70337   7.285   5.148   9.127 -0.2614  0.2401 -0.7734
  522MOL0     O70338   7.212   5.174   9.019 -0.1752  0.5263 -0.1517
  522MOL0     C70339   7.109   5.095   8.975  0.4873 -0.4054  1.1374
  522MOL0     C70340   7.088   5.076   8.838  0.1335 -0.9614 -0.0937
  522MOL0     C70341   6.975   5.000   8.800 -0.1561  0.2740  0.2534
  522MOL0     C70342   6.885   4.936   8.882  0.1195  0.2273  0.4044
  522MOL0     O70343   6.783   4.852   8.848  0.3527  0.5174  0.3425
  522MOL0     C70344   6.739   4.857   8.710  0.1678  0.1778 -0.2270
  522MOL0     C70345   6.627   4.750   8.687  0.3833  0.2000 -0.2886
  522MOL0     C70346   6.618   4.713   8.546  0.0450 -0.1539 -0.3899
  522MOL0     C70347   6.507   4.627   8.520  0.5710  0.5197 -1.1195
  522MOL0     C70348   6.520   4.554   8.386  0.2382  1.9578  0.0773
  522MOL0     C70349   6.434   4.434   8.385 -0.3564  0.1797  0.2534
  522MOL0     C70350   6.453   4.333   8.269  0.2153 -0.3434  0.0013
  522MOL0     C70351   6.431   4.409   8.133  0.3124 -0.3910  0.4909
  522MOL0     N70352   6.294   4.457   8.107 -0.3730 -0.0987 -0.1821
  522MOL0     C70353   6.226   4.557   8.165 -0.1393 -0.7472 -0.4719
  522MOL0     C70354   6.104   4.561   8.109  0.0786  0.2872  0.1571
  522MOL0     C70355   5.994   4.652   8.153 -0.6509  0.5053  0.5599
  522MOL0     C70356   5.945   4.615   8.296  0.0307 -0.8752 -0.0054
  522MOL0     C70357   5.813   4.692   8.339 -0.5751  1.1901  0.1648
  522MOL0     C70358   5.759   4.655   8.480 -0.3280 -0.2155  0.2452
  522MOL0     O70359   5.618   4.640   8.477 -0.3721 -0.1835  0.7289
  522MOL0     C70360   5.533   4.748   8.498 -0.5971 -0.6720  0.2919
  522MOL0     C70361   5.566   4.872   8.561  0.3798  0.2124 -0.1766
  522MOL0     C70362   5.464   4.968   8.594 -0.1005 -0.5403 -0.3194
  522MOL0     C70363   5.512   5.095   8.654 -0.3872 -0.4199 -0.4934
  522MOL0     C70364   5.326   4.937   8.566  0.4244 -0.1786 -0.0991
  522MOL0     C70365   5.213   5.025   8.597  0.3399 -0.4096  0.1018
  522MOL0     O70366   5.095   4.967   8.628  0.6621 -0.9880  0.5682
  522MOL0     C70367   4.973   5.022   8.608 -0.3233 -0.0369  0.4270
  522MOL0     C70368   4.880   5.013   8.710  0.4969  0.7139 -0.3092
  522MOL0     C70369   4.754   5.076   8.709 -0.7754 -0.4258  0.4909
  522MOL0     C70370   4.725   5.164   8.606 -0.1569  0.6989  0.0692
  522MOL0     O70371   4.609   5.235   8.599 -0.6670 -0.0813 -0.5150
  522MOL0     C70372   4.537   5.270   8.720 -0.6517  0.9375  0.1668
  522MOL0     C70373   4.417   5.181   8.768  0.1778 -0.1598  0.1343
  522MOL0     C70374   4.324   5.249   8.877  0.6534  0.1814  0.9353
  522MOL0     C70375   4.205   5.156   8.899  0.5052  0.0765 -0.1529
  522MOL0     C70376   4.097   5.238   8.985 -0.0497  0.1925 -0.6890
  522MOL0     C70377   3.989   5.139   9.041  0.3956 -0.0611  0.8609
  522MOL0     C70378   3.866   5.218   9.096 -1.0059 -0.6204 -0.2051
  522MOL0     C70379   3.913   5.328   9.193  0.0913  0.9799 -0.3632
  522MOL0    Cl70380   3.786   5.387   9.304  0.3222 -0.0667  0.1399
  522MOL0     C70381   4.814   5.167   8.496 -0.9103  0.0871  0.5397
  522MOL0     C70382   4.939   5.096   8.493 -0.4328  0.5106 -0.4079
  522MOL0     O70383   5.221   5.146   8.577  0.0800  0.1351 -0.9887
  522MOL0     C70384   5.298   4.821   8.498 -0.5903  0.6749 -0.4765
  522MOL0     C70385   5.400   4.729   8.477 -0.5006  0.8036  0.2199
  522MOL0     N70386   6.109   4.474   8.002  0.6748  0.1851 -0.7714
  522MOL0     N70387   6.222   4.410   8.001 -0.2559  0.1633 -0.9583
  522MOL0     C70388   6.898   4.970   9.017  0.1031  0.5628 -0.3188
  522MOL0     C70389   7.006   5.046   9.061 -0.0062 -0.5500  0.6120
  522MOL0     C70390   7.399   5.236   9.138 -0.1333 -0.2506 -0.0218
  522MOL0     C70391   7.428   5.331   9.038 -0.0363 -0.4777  0.3665
  522MOL0     C70392   7.533   5.428   9.062  0.9546  1.0590  0.0611
  522MOL0     C70393   7.613   5.411   9.180 -0.5461 -0.4524  0.1334
  522MOL0     O70394   7.709   5.506   9.207 -0.7974  0.2563  0.1289
  522MOL0     C70395   7.688   5.644   9.234  0.0411  1.5765  0.3025
  522MOL0     C70396   7.808   5.685   9.304  1.1495 -0.2861  0.2898
  522MOL0     C70397   7.940   5.655   9.228  0.6398  0.4274  0.1005
  522MOL0     C70398   8.038   5.764   9.249 -0.4178 -0.3196 -0.8880
  522MOL0     C70399   8.145   5.755   9.154  0.5090  0.3682  0.6001
  522MOL0     C70400   8.224   5.746   9.057 -0.4438  0.5521 -0.0983
  522MOL0     C70401   7.596   5.299   9.253  0.4061  0.7015  0.3063
  522MOL0     C70402   7.490   5.212   9.234 -0.2295 -0.0885 -1.1213
  522MOL0     H70403   7.162   5.129   8.779  0.0897 -0.4473  0.3013
  522MOL0     H70404   6.954   4.984   8.694 -1.7955  0.7864  0.4643
  522MOL0     H70405   6.719   4.961   8.682 -1.0409 -0.3065 -1.2684
  522MOL0     H70406   6.826   4.814   8.659 -0.2170 -2.8765  1.4826
  522MOL0     H70407   6.663   4.668   8.750  0.3866  0.8773  0.6071
  522MOL0     H70408   6.535   4.793   8.727  0.7290  1.5984 -0.9257
  522MOL0     H70409   6.622   4.801   8.481 -0.1145 -2.1601 -3.2615
  522MOL0     H70410   6.709   4.661   8.517  1.0153  0.4903  1.3005
  522MOL0     H70411   6.526   4.555   8.599  5.4051  1.0525 -1.4679
  522MOL0     H70412   6.410   4.673   8.538  0.3901 -1.1191  2.9704
  522MOL0     H70413   6.495   4.625   8.307 -2.8403  0.5656 -0.3682
  522MOL0     H70414   6.621   4.512   8.382  0.4134  1.7717  3.4881
  522MOL0     H70415   6.443   4.382   8.480 -0.1511  1.1641  0.7776
  522MOL0     H70416   6.331   4.470   8.387 -0.8643 -1.1936  2.7459
  522MOL0     H70417   6.557   4.299   8.266 -0.2061 -1.7721  0.6773
  522MOL0     H70418   6.383   4.249   8.274 -2.0191  1.3312 -1.4017
  522MOL0     H70419   6.449   4.339   8.052  0.7046 -0.4744  0.6465
  522MOL0     H70420   6.503   4.491   8.121 -1.7448  1.1924 -2.2885
  522MOL0     H70421   6.266   4.629   8.236 -1.3551  1.5381 -1.9751
  522MOL0     H70422   6.035   4.753   8.156  1.7283 -0.2727 -1.6389
  522MOL0     H70423   5.909   4.637   8.086 -1.2501 -0.2643  1.4535
  522MOL0     H70424   6.022   4.641   8.370 -1.4662  2.3711  0.6138
  522MOL0     H70425   5.930   4.507   8.299 -1.2414 -0.7005  1.0285
  522MOL0     H70426   5.741   4.667   8.261 -2.3265 -0.7407  2.2443
  522MOL0     H70427   5.830   4.800   8.336 -2.2216  1.4533 -1.2116
  522MOL0     H70428   5.805   4.718   8.557  1.9969 -2.1734  0.5783
  522MOL0     H70429   5.792   4.555   8.508  0.6482  0.3789  1.2799
  522MOL0     H70430   5.672   4.886   8.580  0.5035 -1.2847  0.4300
  522MOL0     H70431   5.559   5.165   8.585 -2.1745  1.1029 -0.2661
  522MOL0     H70432   5.434   5.156   8.702  0.2479  0.0996 -0.1037
  522MOL0     H70433   5.585   5.076   8.734  3.0597  0.5433 -3.1599
  522MOL0     H70434   4.903   4.936   8.783  0.9971  1.2351  0.0919
  522MOL0     H70435   4.690   5.060   8.795  0.1980 -2.0324  0.9596
  522MOL0     H70436   4.609   5.280   8.801 -1.0856 -0.6582  0.7847
  522MOL0     H70437   4.494   5.370   8.712  2.5966  2.5841  1.2965
  522MOL0     H70438   4.353   5.169   8.681  0.4846 -2.2330  0.1413
  522MOL0     H70439   4.461   5.084   8.794  1.5372  0.5680  0.6641
  522MOL0     H70440   4.292   5.346   8.839  4.7495  1.0314 -0.9367
  522MOL0     H70441   4.385   5.251   8.968  0.0477 -1.8035  1.4445
  522MOL0     H70442   4.158   5.139   8.801 -1.5817 -0.3951  0.8558
  522MOL0     H70443   4.240   5.060   8.938 -0.1060  0.2636  0.8999
  522MOL0     H70444   4.046   5.315   8.926 -2.5315 -1.1951 -0.4862
  522MOL0     H70445   4.141   5.285   9.073  3.1949 -0.7227 -1.6817
  522MOL0     H70446   3.956   5.071   8.962  0.6345 -1.9172  2.2858
  522MOL0     H70447   4.027   5.069   9.117  1.7301 -3.0815 -2.2906
  522MOL0     H70448   3.792   5.149   9.139 -2.1524  0.6884  0.0084
  522MOL0     H70449   3.819   5.268   9.012  0.2270 -2.1066 -1.8655
  522MOL0     H70450   3.957   5.413   9.140  2.3953  0.2649  0.2739
  522MOL0     H70451   3.984   5.277   9.260 -1.0176  0.3607  0.3789
  522MOL0     H70452   4.788   5.238   8.418  0.5737  1.7861  1.5232
  522MOL0     H70453   4.995   5.121   8.403  1.9472 -2.1281  0.2235
  522MOL0     H70454   5.196   4.790   8.476 -1.1855  2.0079  0.3157
  522MOL0     H70455   5.370   4.632   8.437  0.7789  0.7857 -0.7652
  522MOL0     H70456   6.834   4.921   9.090  0.6728 -0.1339 -0.2742
  522MOL0     H70457   7.002   5.071   9.167 -2.8672  1.1200  0.2145
  522MOL0     H70458   7.369   5.351   8.949 -2.9352 -1.8424  1.8485
  522MOL0     H70459   7.552   5.506   8.989 -0.4836 -0.4673 -2.0785
  522MOL0     H70460   7.668   5.693   9.139 -0.9876  0.1800 -0.2448
  522MOL0     H70461   7.604   5.660   9.303  0.1614 -0.3604  0.9719
  522MOL0     H70462   7.806   5.631   9.399  0.6470 -2.2482 -0.7821
  522MOL0     H70463   7.799   5.791   9.326 -1.0390 -0.2767 -0.4067
  522MOL0     H70464   7.917   5.655   9.121 -0.7237  1.8081  0.3517
  522MOL0     H70465   7.992   5.562   9.253  0.5580  0.1356 -0.7654
  522MOL0     H70466   8.088   5.746   9.345  1.5303  0.1759 -1.7717
  522MOL0     H70467   7.995   5.864   9.239  0.3971  0.2885  1.1641
  522MOL0     H70468   8.294   5.767   8.979  0.8420 -2.5516  0.0674
  522MOL0     H70469   7.671   5.267   9.324 -0.5538 -1.6684  0.3316
  522MOL0     H70470   7.484   5.125   9.298 -3.7353  0.3629 -0.6183
  523MOL0     O70471   4.157   0.431   8.517 -0.2623  0.1294  0.0888
  523MOL0     C70472   4.103   0.382   8.622 -0.5335  0.1607  0.1909
  523MOL0     O70473   4.005   0.430   8.692  0.3309  0.5777 -0.1957
  523MOL0     C70474   3.926   0.534   8.653  0.3302 -0.0914 -0.0118
  523MOL0     C70475   3.911   0.590   8.524 -0.7174  0.3533  0.0027
  523MOL0     C70476   3.828   0.693   8.514  0.4461  0.7278  0.3389
  523MOL0     C70477   3.747   0.747   8.618 -0.5907 -0.1604 -0.1423
  523MOL0     O70478   3.676   0.855   8.591  0.5387 -0.3962  0.3725
  523MOL0     C70479   3.566   0.897   8.666 -0.6096  0.3772 -0.1910
  523MOL0     C70480   3.467   0.970   8.575  0.4108 -0.9039  0.0008
  523MOL0     C70481   3.346   1.022   8.662 -1.1119 -0.3650  0.2299
  523MOL0     C70482   3.346   1.178   8.669 -0.4357 -0.6913 -0.1146
  523MOL0     C70483   3.211   1.241   8.707  0.4057  0.0104 -0.5809
  523MOL0     C70484   3.095   1.204   8.603  0.3083  0.3739 -0.1465
  523MOL0     C70485   3.127   1.234   8.455  0.7284 -0.4180 -0.0974
  523MOL0     C70486   3.120   1.383   8.433  0.1837 -0.0551 -0.4308
  523MOL0     N70487   3.150   1.394   8.290 -0.8532 -0.2295  0.8627
  523MOL0     C70488   3.263   1.348   8.222  0.6840 -0.3863  0.1761
  523MOL0     C70489   3.239   1.362   8.089  0.0876 -0.1118 -0.7934
  523MOL0     C70490   3.333   1.329   7.983 -0.4459 -0.2521 -0.1553
  523MOL0     C70491   3.259   1.256   7.864 -0.5641  0.4373 -0.3645
  523MOL0     C70492   3.356   1.215   7.751 -0.2786  0.6037  0.4960
  523MOL0     C70493   3.394   1.312   7.645 -0.2594 -0.6334 -0.0690
  523MOL0     O70494   3.282   1.348   7.564 -0.5179  0.0898 -0.7254
  523MOL0     C70495   3.312   1.358   7.432  0.0125  0.5079  0.2737
  523MOL0     C70496   3.355   1.487   7.388  0.1306 -0.1131 -0.3912
  523MOL0     C70497   3.404   1.508   7.266 -0.5988 -0.1559 -0.2905
  523MOL0     C70498   3.469   1.641   7.222 -0.1589 -0.3093 -0.3425
  523MOL0     C70499   3.406   1.398   7.174 -0.2624 -0.8881  0.2009
  523MOL0     C70500   3.444   1.408   7.032 -0.3395  0.0675  0.5691
  523MOL0     O70501   3.499   1.297   6.979 -0.0306 -0.6385  1.0143
  523MOL0     C70502   3.572   1.290   6.867  0.0624  0.1420 -0.3575
  523MOL0     C70503   3.698   1.228   6.859 -0.2918 -0.1925 -0.6374
  523MOL0     C70504   3.769   1.226   6.732  0.2931 -1.1467 -0.3035
  523MOL0     C70505   3.713   1.280   6.609  0.6410  0.7597  0.2219
  523MOL0     O70506   3.770   1.293   6.486  0.4268  0.2313 -0.1842
  523MOL0     C70507   3.883   1.211   6.456  0.2351  0.4498  0.0558
  523MOL0     C70508   3.921   1.239   6.307 -0.1262  0.8943 -0.3538
  523MOL0     C70509   4.024   1.136   6.245 -0.2456  0.5355 -0.3879
  523MOL0     C70510   3.955   1.014   6.184 -0.0666 -0.6945  0.2000
  523MOL0     C70511   4.061   0.905   6.154 -0.3765  0.1701  0.7277
  523MOL0     C70512   4.006   0.790   6.062  0.2533  0.1539 -0.4053
  523MOL0     C70513   3.885   0.703   6.120 -0.0946  0.5076  0.2919
  523MOL0     C70514   3.920   0.599   6.229  0.1441 -0.0769 -0.4782
  523MOL0    Cl70515   3.995   0.473   6.133  0.5267 -0.3616 -0.2979
  523MOL0     C70516   3.580   1.329   6.627 -0.4665 -0.3796  0.2817
  523MOL0     C70517   3.515   1.337   6.750 -0.3967 -0.2246  0.2698
  523MOL0     O70518   3.428   1.514   6.971  0.5980  0.0820 -0.1981
  523MOL0     C70519   3.360   1.271   7.220 -0.3497 -0.8910 -0.9245
  523MOL0     C70520   3.302   1.252   7.344  0.5739  0.4544 -0.2225
  523MOL0     N70521   3.106   1.404   8.075  0.5264 -0.2786 -0.5257
  523MOL0     N70522   3.059   1.432   8.194 -0.2172 -0.5341 -0.3031
  523MOL0     C70523   3.751   0.685   8.742 -2.1186  0.8646  0.1560
  523MOL0     C70524   3.842   0.577   8.761  0.1296  0.8286  0.6108
  523MOL0     C70525   4.136   0.241   8.656 -1.1666  0.6948  0.0426
  523MOL0     C70526   4.240   0.175   8.581 -0.1705 -0.0335 -0.0244
  523MOL0     C70527   4.267   0.042   8.609  0.0030  0.6631  0.4101
  523MOL0     C70528   4.202  -0.035   8.713  0.6990 -0.1014 -0.2218
  523MOL0     O70529   4.224  -0.165   8.753  0.1334  0.1445  0.6178
  523MOL0     C70530   4.310  -0.238   8.671 -0.4843  0.4074 -0.3905
  523MOL0     C70531   4.333  -0.372   8.733  0.4370 -0.1290 -0.1901
  523MOL0     C70532   4.421  -0.452   8.651 -0.0071 -0.2640  0.3685
  523MOL0     C70533   4.440  -0.592   8.703  0.4353  0.6409  0.7834
  523MOL0     C70534   4.318  -0.674   8.658  1.0442 -0.1411 -0.2236
  523MOL0     C70535   4.211  -0.722   8.614  0.0676  0.5371 -0.9130
  523MOL0     C70536   4.094   0.028   8.776  0.6713  0.6894  0.1041
  523MOL0     C70537   4.063   0.162   8.742 -0.0640 -0.0272 -0.4104
  523MOL0     H70538   3.957   0.540   8.438 -0.6848 -0.4885  0.4960
  523MOL0     H70539   3.829   0.744   8.418  0.1643 -0.7763 -0.4911
  523MOL0     H70540   3.518   0.821   8.729  2.4278 -2.8677 -1.4736
  523MOL0     H70541   3.600   0.984   8.722 -1.3465  0.4631  0.1352
  523MOL0     H70542   3.514   1.051   8.519  1.2946 -1.0479  0.5254
  523MOL0     H70543   3.427   0.901   8.500  0.7532 -0.3144 -0.7380
  523MOL0     H70544   3.250   0.984   8.627 -0.6372  0.1039 -1.6784
  523MOL0     H70545   3.352   0.980   8.763 -1.9286 -1.1941 -0.0542
  523MOL0     H70546   3.422   1.209   8.742 -1.6443 -2.3385  1.9854
  523MOL0     H70547   3.376   1.224   8.575 -4.2446  1.1449 -0.6358
  523MOL0     H70548   3.177   1.208   8.805 -0.6594 -2.5325 -1.7123
  523MOL0     H70549   3.224   1.349   8.716 -1.7164  0.4164 -1.7303
  523MOL0     H70550   3.068   1.099   8.622 -0.1916  0.5584  0.1991
  523MOL0     H70551   3.003   1.256   8.629  0.1431  0.8641 -1.6175
  523MOL0     H70552   3.211   1.174   8.419  0.5988  0.0222 -1.1495
  523MOL0     H70553   3.045   1.195   8.394  0.4488  0.7431 -0.4860
  523MOL0     H70554   3.201   1.431   8.488 -0.4765  0.9805 -0.3436
  523MOL0     H70555   3.024   1.426   8.462 -0.4116 -2.1540  0.9767
  523MOL0     H70556   3.357   1.331   8.275  1.0145  2.7649  0.8426
  523MOL0     H70557   3.394   1.414   7.950  1.2240 -1.0459  0.7768
  523MOL0     H70558   3.404   1.260   8.028  0.3257  1.8149  1.9902
  523MOL0     H70559   3.183   1.328   7.833 -1.7057 -0.4974  0.2179
  523MOL0     H70560   3.208   1.173   7.912 -1.6398  1.2762 -0.0081
  523MOL0     H70561   3.316   1.125   7.704  1.9491 -1.1233  1.7042
  523MOL0     H70562   3.452   1.181   7.792 -0.2948 -1.9019 -1.2891
  523MOL0     H70563   3.471   1.263   7.584 -0.2557  0.2404 -0.7845
  523MOL0     H70564   3.430   1.398   7.703 -4.5640  2.8631 -1.9925
  523MOL0     H70565   3.354   1.570   7.458  2.7263 -0.6924  0.4709
  523MOL0     H70566   3.577   1.635   7.206 -0.2673  0.7516 -1.6725
  523MOL0     H70567   3.425   1.682   7.130  0.6000 -1.3836 -1.2249
  523MOL0     H70568   3.456   1.713   7.303 -1.0193 -1.7725  0.8891
  523MOL0     H70569   3.741   1.188   6.950  1.1550  0.2949 -1.0849
  523MOL0     H70570   3.867   1.181   6.722  0.7438  0.1271 -2.0154
  523MOL0     H70571   3.961   1.246   6.524 -0.4522 -2.9372  2.8977
  523MOL0     H70572   3.862   1.104   6.471  0.9775 -0.1038 -2.3906
  523MOL0     H70573   3.828   1.248   6.250  0.3457 -0.1188 -1.3224
  523MOL0     H70574   3.961   1.340   6.305  0.3229  0.9006  2.8464
  523MOL0     H70575   4.100   1.111   6.320 -0.2647  0.0611 -0.5221
  523MOL0     H70576   4.076   1.184   6.162  1.8414 -2.4191 -0.9549
  523MOL0     H70577   3.878   0.977   6.254 -1.4272 -2.3730 -2.0371
  523MOL0     H70578   3.901   1.033   6.091  2.2642  0.3305 -1.0080
  523MOL0     H70579   4.094   0.869   6.252  1.2463 -1.6257 -0.3961
  523MOL0     H70580   4.144   0.945   6.096  1.9553 -0.9671  3.0681
  523MOL0     H70581   3.954   0.833   5.976 -2.6213  3.7353  2.7728
  523MOL0     H70582   4.089   0.729   6.026  0.1711 -0.0869 -0.1877
  523MOL0     H70583   3.830   0.639   6.051 -0.5521 -1.6373  2.5273
  523MOL0     H70584   3.814   0.769   6.171  1.7355  0.1332  3.6276
  523MOL0     H70585   3.827   0.568   6.277  0.6845  0.9971  1.3607
  523MOL0     H70586   3.990   0.639   6.303  1.4290 -2.1330 -0.4991
  523MOL0     H70587   3.528   1.364   6.539 -0.6962 -1.7629 -0.1667
  523MOL0     H70588   3.412   1.372   6.760 -0.5497 -0.1853 -1.1152
  523MOL0     H70589   3.365   1.180   7.162 -1.7368 -1.2719 -0.4851
  523MOL0     H70590   3.265   1.155   7.373  0.8086 -0.1066 -1.6857
  523MOL0     H70591   3.690   0.718   8.825  0.7587  0.0675  2.8023
  523MOL0     H70592   3.864   0.536   8.859  3.1960 -0.3452 -0.4417
  523MOL0     H70593   4.299   0.245   8.524  0.0497 -0.4858 -0.3588
  523MOL0     H70594   4.356  -0.000   8.564 -0.0479  1.0610 -0.0842
  523MOL0     H70595   4.261  -0.260   8.575 -1.4553 -0.2375  0.2257
  523MOL0     H70596   4.411  -0.198   8.659  0.0464 -0.8376 -0.2253
  523MOL0     H70597   4.241  -0.429   8.740 -0.0959  0.8795  2.2656
  523MOL0     H70598   4.379  -0.368   8.833 -0.9185 -1.1093  0.5003
  523MOL0     H70599   4.517  -0.399   8.647  0.5311 -0.9628  2.4553
  523MOL0     H70600   4.385  -0.473   8.550 -0.9764 -2.3707  1.0836
  523MOL0     H70601   4.460  -0.595   8.810 -0.6178  0.1244  0.9713
  523MOL0     H70602   4.530  -0.634   8.654 -0.4877 -0.1651 -0.2872
  523MOL0     H70603   4.121  -0.766   8.575  1.5113 -0.9237 -2.8642
  523MOL0     H70604   4.040  -0.017   8.859 -0.7245  2.1210  0.0343
  523MOL0     H70605   3.978   0.208   8.791 -0.1695 -1.1939  0.5279
  524MOL0     O70606   6.956   4.114   9.419  0.9601 -0.2014  0.1025
  524MOL0     C70607   7.007   4.056   9.323  0.3695 -0.6193  0.4842
  524MOL0     O70608   6.945   4.017   9.204 -0.2343  0.0104  0.3317
  524MOL0     C70609   6.818   4.067   9.166  0.1639  0.1942 -0.1950
  524MOL0     C70610   6.744   3.979   9.082  0.2699 -0.5686  0.0051
  524MOL0     C70611   6.624   4.024   9.027  0.0733  0.2001 -0.4988
  524MOL0     C70612   6.568   4.145   9.081 -0.0083  0.0202  0.8151
  524MOL0     O70613   6.450   4.195   9.039  0.2198 -0.2623 -0.3554
  524MOL0     C70614   6.332   4.113   9.034 -0.8029 -0.0595  0.1173
  524MOL0     C70615   6.217   4.177   9.103  0.2624 -0.6629 -0.7351
  524MOL0     C70616   6.080   4.111   9.075 -0.1477  0.9282  0.3111
  524MOL0     C70617   5.971   4.182   9.158  0.8487 -0.6027 -0.2664
  524MOL0     C70618   5.841   4.091   9.147 -0.0755  0.3477 -0.1214
  524MOL0     C70619   5.714   4.155   9.211 -0.1486 -0.9094  0.2666
  524MOL0     C70620   5.594   4.069   9.182 -0.1341  1.0020 -0.6943
  524MOL0     C70621   5.470   4.110   9.254  0.1601 -0.3031  0.1492
  524MOL0     N70622   5.417   4.243   9.230  0.2478 -0.3459 -0.3604
  524MOL0     C70623   5.401   4.309   9.107  0.3014  0.5137 -0.1130
  524MOL0     C70624   5.354   4.425   9.131 -0.3956 -0.6698  0.0181
  524MOL0     C70625   5.306   4.523   9.033 -0.2349 -0.1529 -0.1379
  524MOL0     C70626   5.400   4.643   9.006 -0.1042 -0.0608  0.3657
  524MOL0     C70627   5.350   4.710   8.881  0.4583  0.5164  0.1148
  524MOL0     C70628   5.209   4.769   8.881 -0.9852 -0.1550 -0.1629
  524MOL0     O70629   5.213   4.886   8.952  0.3035  0.0465 -0.9606
  524MOL0     C70630   5.090   4.925   9.007 -0.5013 -0.3676  0.1676
  524MOL0     C70631   5.064   5.065   9.007  0.1254  0.0032  0.1817
  524MOL0     C70632   4.940   5.122   9.044  0.3995 -0.0119 -0.3387
  524MOL0     C70633   4.921   5.274   9.045  0.4999 -0.5157 -0.1505
  524MOL0     C70634   4.845   5.032   9.098 -0.6022  0.7143 -0.0904
  524MOL0     C70635   4.712   5.078   9.147 -1.2844 -0.9446 -0.3298
  524MOL0     O70636   4.674   5.021   9.262  0.2560  0.6014 -0.2804
  524MOL0     C70637   4.542   5.049   9.292 -0.4052  1.0610  0.6899
  524MOL0     C70638   4.447   4.988   9.212 -0.2487 -0.5771 -0.2224
  524MOL0     C70639   4.315   5.008   9.233  0.1039 -0.2346 -0.8397
  524MOL0     C70640   4.274   5.095   9.336  0.3433 -0.2761 -0.4626
  524MOL0     O70641   4.142   5.125   9.353  0.5365 -0.5106  0.0117
  524MOL0     C70642   4.087   5.052   9.465 -0.2487  0.3590  0.0719
  524MOL0     C70643   3.939   5.035   9.421 -0.2350 -0.2663  0.1675
  524MOL0     C70644   3.854   4.978   9.540 -0.4257 -0.9140  0.9992
  524MOL0     C70645   3.714   4.979   9.492  0.2937 -0.1585  0.8446
  524MOL0     C70646   3.630   4.890   9.576 -0.1340  0.0027  0.0446
  524MOL0     C70647   3.500   4.967   9.625 -0.6012  0.8786  0.0102
  524MOL0     C70648   3.399   4.994   9.505 -0.1625  0.0739  0.7198
  524MOL0     C70649   3.268   5.061   9.559  0.3870  0.0697  0.0390
  524MOL0    Cl70650   3.315   5.210   9.665  0.1773 -0.0686  0.2272
  524MOL0     C70651   4.365   5.165   9.416 -0.3884  0.0194  0.0048
  524MOL0     C70652   4.505   5.135   9.393  0.2798  0.4739 -0.3610
  524MOL0     O70653   4.651   5.169   9.085 -0.1034  0.3410 -0.4036
  524MOL0     C70654   4.872   4.891   9.103  0.2374  0.5626 -0.6284
  524MOL0     C70655   4.990   4.843   9.055 -0.6474  0.2387 -0.1921
  524MOL0     N70656   5.340   4.433   9.272 -0.0372 -0.1147  0.5093
  524MOL0     N70657   5.375   4.327   9.328 -0.4474 -0.0620  0.1614
  524MOL0     C70658   6.641   4.221   9.162  0.1768 -0.2097 -0.2983
  524MOL0     C70659   6.767   4.193   9.205  0.5416 -0.3495  0.3120
  524MOL0     C70660   7.150   4.027   9.347 -0.4645 -0.5303 -0.3393
  524MOL0     C70661   7.213   4.039   9.477  0.3091  0.0487  0.7088
  524MOL0     C70662   7.354   4.007   9.489  1.0409 -0.2171 -0.0876
  524MOL0     C70663   7.437   3.988   9.375 -0.4003  0.3228  0.4923
  524MOL0     O70664   7.571   3.971   9.393  0.3502 -0.1628  1.4491
  524MOL0     C70665   7.636   4.102   9.403 -0.3687  0.4767  0.0343
  524MOL0     C70666   7.769   4.095   9.488  0.4847 -0.4461  0.3499
  524MOL0     C70667   7.747   4.075   9.636 -0.2116 -0.8907  0.0170
  524MOL0     C70668   7.874   4.026   9.704 -0.2553  0.5411  0.8447
  524MOL0     C70669   7.975   4.134   9.695 -0.5738 -0.1647 -0.3888
  524MOL0     C70670   8.053   4.226   9.712  0.6226 -0.1502 -0.2745
  524MOL0     C70671   7.372   3.988   9.255  0.0147 -0.1821  0.0936
  524MOL0     C70672   7.232   4.007   9.239 -0.3324  0.8449 -0.7501
  524MOL0     H70673   6.790   3.884   9.059  0.2070 -1.2280  2.3531
  524MOL0     H70674   6.568   3.965   8.955 -0.6423 -1.5159  1.3709
  524MOL0     H70675   6.305   4.100   8.929 -2.7316 -2.2604  0.8123
  524MOL0     H70676   6.354   4.014   9.075 -3.0075 -0.5858  0.1223
  524MOL0     H70677   6.234   4.188   9.211 -0.5503  1.4096 -0.7654
  524MOL0     H70678   6.207   4.281   9.068  1.2959  0.1814  1.2763
  524MOL0     H70679   6.047   4.133   8.973 -0.6463  1.0779  0.5025
  524MOL0     H70680   6.083   4.003   9.092  2.7674  1.2038  2.1246
  524MOL0     H70681   6.003   4.197   9.262  0.0770  0.6159 -0.1777
  524MOL0     H70682   5.948   4.280   9.116 -0.2012 -0.7249 -0.0011
  524MOL0     H70683   5.823   4.054   9.046  0.6083 -0.9600  0.2120
  524MOL0     H70684   5.860   3.999   9.202 -0.0467  0.6478  0.3799
  524MOL0     H70685   5.728   4.183   9.316  4.0689  0.7105 -0.5152
  524MOL0     H70686   5.706   4.250   9.159  1.0343  0.1593  1.9190
  524MOL0     H70687   5.573   4.070   9.074 -0.3633 -1.0292 -0.7099
  524MOL0     H70688   5.602   3.962   9.203 -0.7219  1.4371  2.2186
  524MOL0     H70689   5.491   4.106   9.362  1.3568  0.3128 -0.0496
  524MOL0     H70690   5.388   4.048   9.218 -0.4821 -0.7928  2.2750
  524MOL0     H70691   5.429   4.270   9.010 -1.0272  2.2273 -1.2507
  524MOL0     H70692   5.296   4.471   8.938 -1.1386  0.7375 -0.5565
  524MOL0     H70693   5.208   4.548   9.075  0.4845 -1.7789  2.7909
  524MOL0     H70694   5.501   4.603   8.992 -0.5980 -1.1913 -0.1569
  524MOL0     H70695   5.385   4.701   9.097 -0.8456 -2.2317  1.7168
  524MOL0     H70696   5.352   4.630   8.807  2.3613  0.1830  0.4600
  524MOL0     H70697   5.425   4.780   8.844 -0.8885  0.5876 -2.6787
  524MOL0     H70698   5.135   4.701   8.923 -2.3642  2.3328  1.7260
  524MOL0     H70699   5.184   4.798   8.778 -0.2517  2.4278  0.3078
  524MOL0     H70700   5.142   5.131   8.972 -1.1242  0.5399 -1.8022
  524MOL0     H70701   4.836   5.302   8.981 -0.4385 -1.8843  0.4464
  524MOL0     H70702   4.885   5.317   9.139 -0.1750 -0.4044 -0.4500
  524MOL0     H70703   5.014   5.325   9.020  0.0834 -0.0556 -0.8168
  524MOL0     H70704   4.492   4.924   9.136  2.4123 -1.0933  1.6288
  524MOL0     H70705   4.245   4.967   9.161 -0.2714  2.1632 -1.9245
  524MOL0     H70706   4.125   4.950   9.480 -0.1398  0.4218  0.2159
  524MOL0     H70707   4.108   5.118   9.549  0.9472  2.2602 -1.6376
  524MOL0     H70708   3.899   5.132   9.390  0.3336  0.3879  1.4053
  524MOL0     H70709   3.932   4.968   9.335  1.6610  1.7189 -1.6688
  524MOL0     H70710   3.858   5.044   9.628 -1.3930  0.9335 -0.2842
  524MOL0     H70711   3.887   4.875   9.555 -2.9029 -1.9484 -0.1694
  524MOL0     H70712   3.677   5.082   9.488 -0.3624 -0.3006  2.5985
  524MOL0     H70713   3.711   4.928   9.395  2.4186 -0.8614  1.0998
  524MOL0     H70714   3.685   4.868   9.668  1.1253  2.8274  0.0768
  524MOL0     H70715   3.623   4.796   9.520  3.8060 -0.7014  0.4340
  524MOL0     H70716   3.453   4.912   9.707  1.9406 -3.9059 -1.3312
  524MOL0     H70717   3.539   5.064   9.659  2.7483  0.1298 -1.3064
  524MOL0     H70718   3.371   4.895   9.467 -0.2556  0.9313 -1.6167
  524MOL0     H70719   3.441   5.056   9.425  1.3657 -1.8418 -0.0544
  524MOL0     H70720   3.208   4.983   9.606 -1.1316 -1.0525 -3.4162
  524MOL0     H70721   3.224   5.106   9.470  1.5288  0.2795 -0.4377
  524MOL0     H70722   4.322   5.233   9.489 -5.3622 -0.8788 -1.6608
  524MOL0     H70723   4.580   5.170   9.463  0.0574 -0.0640  0.1532
  524MOL0     H70724   4.802   4.819   9.145  0.0825  0.9874 -0.1445
  524MOL0     H70725   5.018   4.740   9.074 -0.3308  0.6724  1.9430
  524MOL0     H70726   6.612   4.323   9.185  2.6148 -0.0791  3.0635
  524MOL0     H70727   6.818   4.273   9.259  0.7183 -0.7487  0.7436
  524MOL0     H70728   7.148   4.043   9.564 -2.0228  2.5243 -1.0108
  524MOL0     H70729   7.399   4.006   9.588  0.7842  0.1889  0.0376
  524MOL0     H70730   7.669   4.132   9.304 -0.6098  1.7720  0.3132
  524MOL0     H70731   7.567   4.178   9.444 -1.6210 -1.0616  0.8917
  524MOL0     H70732   7.835   4.179   9.465  0.5213 -0.4944  0.2772
  524MOL0     H70733   7.826   4.010   9.450  0.6330 -0.2211  0.0596
  524MOL0     H70734   7.673   3.995   9.644 -1.5593 -0.1785 -3.6304
  524MOL0     H70735   7.726   4.168   9.691  2.2477 -0.3655  0.1608
  524MOL0     H70736   7.918   3.945   9.645  1.1532  0.9007  1.3402
  524MOL0     H70737   7.863   4.005   9.810 -3.0248  0.7764  0.6605
  524MOL0     H70738   8.101   4.316   9.744 -1.0640 -0.6848  4.5122
  524MOL0     H70739   7.429   3.980   9.163 -1.1251 -0.8408 -0.5802
  524MOL0     H70740   7.202   4.009   9.135  1.0282  2.4139 -1.1532
  525MOL0     O70741   6.439   4.556   4.138  0.2191  0.0880 -0.1377
  525MOL0     C70742   6.478   4.527   4.248  0.4816 -0.2200  0.3726
  525MOL0     O70743   6.395   4.530   4.354 -0.6617  0.0109  0.0821
  525MOL0     C70744   6.285   4.605   4.355 -0.1190 -0.3313  0.5968
  525MOL0     C70745   6.160   4.544   4.342  0.4288 -0.1093  0.0324
  525MOL0     C70746   6.044   4.619   4.344 -0.0206  0.2043  0.1342
  525MOL0     C70747   6.043   4.756   4.365 -0.1291 -0.6907 -0.3112
  525MOL0     O70748   5.928   4.832   4.371 -0.2999  0.1216 -0.1367
  525MOL0     C70749   5.801   4.781   4.315 -0.5959 -0.8503 -0.5625
  525MOL0     C70750   5.713   4.713   4.415  0.3433  0.2172 -0.5155
  525MOL0     C70751   5.567   4.733   4.389  0.2881  0.1579  0.8007
  525MOL0     C70752   5.516   4.662   4.260  0.3157 -0.3753 -0.6658
  525MOL0     C70753   5.374   4.711   4.217  0.6350  0.0519 -0.4932
  525MOL0     C70754   5.263   4.687   4.324  0.0965 -0.4991 -0.1855
  525MOL0     C70755   5.115   4.675   4.270 -0.1102  0.2534 -0.2899
  525MOL0     C70756   5.020   4.661   4.396 -0.0584  0.5544  0.8877
  525MOL0     N70757   4.876   4.669   4.360 -0.3162  0.0359 -1.1133
  525MOL0     C70758   4.823   4.781   4.304 -0.0121  0.2716 -0.4559
  525MOL0     C70759   4.690   4.768   4.301  0.0855  0.4147  0.6669
  525MOL0     C70760   4.592   4.861   4.246 -0.1072 -0.4524  0.5995
  525MOL0     C70761   4.462   4.864   4.328  0.0194  0.0595 -0.5701
  525MOL0     C70762   4.350   4.947   4.260  0.1701 -0.1409 -0.0280
  525MOL0     C70763   4.263   4.851   4.178  0.2063 -0.8150  0.5953
  525MOL0     O70764   4.187   4.925   4.077  0.0301  0.6249 -0.3104
  525MOL0     C70765   4.059   4.967   4.115  0.3686 -0.1557  0.2481
  525MOL0     C70766   3.978   5.018   4.012 -0.6102 -0.4076 -0.2646
  525MOL0     C70767   3.856   5.082   4.027 -0.3187 -0.2040  0.0154
  525MOL0     C70768   3.793   5.132   3.896  1.0653 -0.9152 -0.4318
  525MOL0     C70769   3.803   5.092   4.167  0.3164  0.0858 -0.6033
  525MOL0     C70770   3.676   5.143   4.211 -0.7450 -0.9203  0.5645
  525MOL0     O70771   3.630   5.247   4.133  0.5392  0.0215  0.4441
  525MOL0     C70772   3.511   5.315   4.152  0.0781  0.4967  0.3572
  525MOL0     C70773   3.399   5.261   4.212 -0.2826  0.5143 -0.6156
  525MOL0     C70774   3.285   5.345   4.227 -0.5597 -0.3729  0.3330
  525MOL0     C70775   3.284   5.481   4.187 -1.2158  0.3863  0.4690
  525MOL0     O70776   3.183   5.563   4.218  0.1972  0.4568  0.0449
  525MOL0     C70777   3.053   5.508   4.239 -0.2256 -0.3091  0.2746
  525MOL0     C70778   2.941   5.613   4.246  0.3945 -0.2452  0.5628
  525MOL0     C70779   2.804   5.539   4.236 -0.6953  0.7358 -0.7700
  525MOL0     C70780   2.691   5.633   4.259  1.0342  0.3137 -0.2658
  525MOL0     C70781   2.659   5.695   4.120 -0.6108 -0.7919 -0.2052
  525MOL0     C70782   2.539   5.784   4.149 -0.3652  0.0111 -0.2951
  525MOL0     C70783   2.483   5.822   4.020  0.2875  0.1680  0.2545
  525MOL0     C70784   2.380   5.932   4.026  0.0472 -0.0577 -0.7610
  525MOL0    Cl70785   2.452   6.082   3.968 -0.0505 -0.1974 -0.0614
  525MOL0     C70786   3.396   5.522   4.120  0.8931 -1.2861  0.1344
  525MOL0     C70787   3.503   5.442   4.104  0.5929  0.6032 -0.3502
  525MOL0     O70788   3.622   5.098   4.313  0.4311 -0.5248  0.3510
  525MOL0     C70789   3.880   5.025   4.266  0.1583 -0.1465 -0.0012
  525MOL0     C70790   4.006   4.970   4.243 -0.1108  0.4872  0.5050
  525MOL0     N70791   4.662   4.635   4.345 -0.2133 -0.8154 -0.5765
  525MOL0     N70792   4.770   4.591   4.383  0.9269  0.3490  0.2226
  525MOL0     C70793   6.163   4.814   4.376 -0.0769 -0.2341 -0.0167
  525MOL0     C70794   6.287   4.750   4.363  0.3796 -0.6819  0.7901
  525MOL0     C70795   6.616   4.469   4.248 -0.8335 -0.3737  0.5156
  525MOL0     C70796   6.702   4.472   4.364 -0.4526 -0.8063 -0.1943
  525MOL0     C70797   6.831   4.405   4.364  0.1521 -0.1505 -0.7639
  525MOL0     C70798   6.883   4.343   4.254  0.1346  0.1949 -0.2496
  525MOL0     O70799   7.011   4.302   4.261  0.0295  0.2823 -1.2163
  525MOL0     C70800   7.096   4.283   4.144  0.0776 -0.2325  0.4822
  525MOL0     C70801   7.247   4.269   4.184  0.5394  0.6006 -1.0034
  525MOL0     C70802   7.290   4.122   4.198  0.2691  0.3105 -0.3780
  525MOL0     C70803   7.431   4.116   4.257 -0.1924 -0.1172 -0.0020
  525MOL0     C70804   7.455   4.141   4.397 -0.5771 -0.0206 -0.2558
  525MOL0     C70805   7.472   4.169   4.513  0.0524 -0.1430 -0.0428
  525MOL0     C70806   6.797   4.346   4.140 -1.3232 -0.8861  0.0782
  525MOL0     C70807   6.664   4.398   4.144  0.5919  0.7886  0.8760
  525MOL0     H70808   6.139   4.438   4.327  4.1812 -0.7347 -2.0718
  525MOL0     H70809   5.956   4.557   4.333  1.0168 -1.1686 -0.7167
  525MOL0     H70810   5.749   4.871   4.280 -0.7899 -1.5800 -2.2841
  525MOL0     H70811   5.815   4.719   4.226 -2.4418 -0.2360 -1.3138
  525MOL0     H70812   5.724   4.605   4.406  1.6279  0.2342  0.5786
  525MOL0     H70813   5.732   4.756   4.514 -3.4704 -0.2863  0.6032
  525MOL0     H70814   5.524   4.688   4.479 -0.3612 -1.6219 -0.3467
  525MOL0     H70815   5.539   4.839   4.380  0.6417  0.0951 -2.0966
  525MOL0     H70816   5.581   4.674   4.172  1.4499 -0.5365  0.1316
  525MOL0     H70817   5.510   4.553   4.271 -1.9673 -0.0679  2.8094
  525MOL0     H70818   5.386   4.814   4.185  3.0756  1.2777  3.5568
  525MOL0     H70819   5.340   4.654   4.130  0.3056 -1.8151  0.7695
  525MOL0     H70820   5.291   4.599   4.382 -1.9211 -0.8281  0.3530
  525MOL0     H70821   5.274   4.772   4.392  1.3170 -0.5377 -0.3112
  525MOL0     H70822   5.078   4.766   4.224 -0.8190 -0.9643 -2.2720
  525MOL0     H70823   5.107   4.584   4.210  0.5559  0.1314 -0.2096
  525MOL0     H70824   5.052   4.738   4.467  2.0627 -1.4435  2.2584
  525MOL0     H70825   5.037   4.566   4.448 -3.0684 -1.3466 -1.2479
  525MOL0     H70826   4.877   4.871   4.274  0.4290 -0.1825 -1.0645
  525MOL0     H70827   4.630   4.963   4.240  1.7528 -1.1787 -1.1332
  525MOL0     H70828   4.569   4.846   4.140  0.5267  0.8527  0.2556
  525MOL0     H70829   4.486   4.910   4.424 -0.8575  2.5487 -1.4683
  525MOL0     H70830   4.422   4.764   4.348  1.2534 -0.0031  1.9900
  525MOL0     H70831   4.394   5.023   4.195 -2.9807  2.7656  0.9814
  525MOL0     H70832   4.281   4.990   4.333 -1.6834 -0.3138 -1.5923
  525MOL0     H70833   4.206   4.776   4.234  1.1555 -1.6752  0.4328
  525MOL0     H70834   4.326   4.790   4.113  0.1080  0.3570 -0.6365
  525MOL0     H70835   4.023   5.025   3.913 -0.8600  0.6713 -0.3167
  525MOL0     H70836   3.694   5.085   3.889  0.4828  0.1078  0.6124
  525MOL0     H70837   3.783   5.241   3.892 -0.3056 -1.0480 -2.2657
  525MOL0     H70838   3.858   5.105   3.812  0.8685  2.1630 -1.7542
  525MOL0     H70839   3.396   5.156   4.241 -1.1801  0.0052 -2.4393
  525MOL0     H70840   3.202   5.306   4.286 -0.1417  0.9802  1.9176
  525MOL0     H70841   3.033   5.435   4.160 -3.7069  0.1705  0.5699
  525MOL0     H70842   3.053   5.460   4.338 -0.1610  0.3894  0.6214
  525MOL0     H70843   2.958   5.662   4.343  3.0039  0.1176 -0.0250
  525MOL0     H70844   2.951   5.685   4.165  1.0699 -1.7106 -0.7036
  525MOL0     H70845   2.816   5.468   4.318 -0.9455 -0.3976 -1.6875
  525MOL0     H70846   2.788   5.483   4.143 -2.5982  0.5859 -0.4040
  525MOL0     H70847   2.608   5.579   4.305  2.2339 -0.3152  1.2630
  525MOL0     H70848   2.703   5.708   4.338 -3.9036  1.0096  0.1260
  525MOL0     H70849   2.628   5.615   4.052  1.2223 -3.5667  2.0129
  525MOL0     H70850   2.742   5.749   4.074  1.1359 -0.6975  2.7565
  525MOL0     H70851   2.465   5.735   4.213  0.7865  0.4506  1.4603
  525MOL0     H70852   2.579   5.872   4.201  1.7834 -0.4741 -1.0526
  525MOL0     H70853   2.434   5.735   3.976 -0.5685  1.2274 -0.9536
  525MOL0     H70854   2.554   5.848   3.941  1.1313 -0.0296  0.9370
  525MOL0     H70855   2.336   5.956   4.123  4.4187 -1.3105  1.8145
  525MOL0     H70856   2.293   5.904   3.966 -0.1110  0.6786 -0.8885
  525MOL0     H70857   3.409   5.623   4.082 -0.0838 -2.1884 -2.8443
  525MOL0     H70858   3.592   5.489   4.064  0.6789  2.2811  1.6538
  525MOL0     H70859   3.848   5.022   4.370 -0.4548  0.3697 -0.1660
  525MOL0     H70860   4.060   4.929   4.328  1.2821 -1.2248 -1.1107
  525MOL0     H70861   6.162   4.920   4.402 -2.1729 -0.1469 -0.2956
  525MOL0     H70862   6.378   4.805   4.385  0.2321 -0.5087  0.9647
  525MOL0     H70863   6.660   4.527   4.448  1.2492 -2.1846  1.6744
  525MOL0     H70864   6.888   4.414   4.455  1.5466  0.1331 -1.6283
  525MOL0     H70865   7.074   4.194   4.084 -0.6842 -2.3254  3.6020
  525MOL0     H70866   7.089   4.378   4.090  1.0024  0.0005  0.7441
  525MOL0     H70867   7.274   4.323   4.275  0.3086 -0.6265 -0.1787
  525MOL0     H70868   7.300   4.304   4.095 -0.1903 -1.5027 -2.3606
  525MOL0     H70869   7.289   4.077   4.099 -1.8124 -0.4533 -0.0587
  525MOL0     H70870   7.213   4.060   4.246 -0.5568  2.0725  0.6862
  525MOL0     H70871   7.495   4.191   4.209  0.4584 -0.6583  0.0189
  525MOL0     H70872   7.479   4.020   4.241  0.7569  0.0960  1.4405
  525MOL0     H70873   7.494   4.206   4.611  1.4723  3.1420 -1.4577
  525MOL0     H70874   6.837   4.327   4.041  1.1021  2.2366  0.3018
  525MOL0     H70875   6.613   4.389   4.049 -0.9422 -3.9701  1.8786
  526MOL0     O70876   9.983   5.182   4.553  0.4791 -0.1593  0.2719
  526MOL0     C70877   9.921   5.183   4.659  0.3948  0.2072  0.1353
  526MOL0     O70878   9.807   5.102   4.682  0.9045  0.0804 -0.5667
  526MOL0     C70879   9.744   5.038   4.581 -0.5576  0.0073  0.0618
  526MOL0     C70880   9.783   4.914   4.520  0.1654 -0.0726 -0.3227
  526MOL0     C70881   9.709   4.857   4.420  0.3123  0.2066 -0.8088
  526MOL0     C70882   9.601   4.924   4.360  0.3552 -0.3429  0.5229
  526MOL0     O70883   9.540   4.873   4.253  0.2741 -0.4294 -0.2035
  526MOL0     C70884   9.396   4.871   4.255 -0.6632  0.3742 -0.9537
  526MOL0     C70885   9.357   4.742   4.188  0.1248 -0.0255 -0.2596
  526MOL0     C70886   9.205   4.721   4.185 -0.1009  1.0774 -1.2040
  526MOL0     C70887   9.174   4.572   4.158  0.8875 -1.1216 -0.8723
  526MOL0     C70888   9.206   4.525   4.020 -0.5941 -0.3960 -0.7030
  526MOL0     C70889   9.130   4.402   3.981 -0.3909  0.9389  1.1310
  526MOL0     C70890   9.183   4.333   3.850 -0.0874 -1.5329  0.4574
  526MOL0     C70891   9.128   4.396   3.730  0.1725 -0.3666  0.2596
  526MOL0     N70892   9.139   4.330   3.607  0.0177 -0.1341 -0.8789
  526MOL0     C70893   9.049   4.236   3.553 -0.3232 -0.0469  0.3839
  526MOL0     C70894   9.111   4.200   3.429 -0.2298 -0.5554  0.8688
  526MOL0     C70895   9.064   4.109   3.317  0.0544  0.4623  0.3174
  526MOL0     C70896   8.994   4.188   3.206 -0.3845  0.2590 -0.8737
  526MOL0     C70897   8.860   4.262   3.254  0.1285 -0.5433  0.2323
  526MOL0     C70898   8.765   4.298   3.145  0.0443  0.0716 -0.3496
  526MOL0     O70899   8.655   4.367   3.193  0.2485  0.5889  1.0802
  526MOL0     C70900   8.525   4.323   3.171  0.5179  0.1126 -0.1715
  526MOL0     C70901   8.424   4.411   3.157 -0.7964  1.2122 -0.0511
  526MOL0     C70902   8.293   4.374   3.119 -1.2318 -0.4180  0.4896
  526MOL0     C70903   8.188   4.484   3.091  0.3406  0.0094  0.2860
  526MOL0     C70904   8.264   4.238   3.108 -0.2973  0.2311 -0.1138
  526MOL0     C70905   8.122   4.192   3.080 -0.3823 -0.0601 -0.2536
  526MOL0     O70906   8.078   4.215   2.955  0.1678 -0.0893 -0.0906
  526MOL0     C70907   7.961   4.156   2.921 -0.1051  0.7405  0.3828
  526MOL0     C70908   7.847   4.225   2.919 -0.3524  0.0397 -0.6307
  526MOL0     C70909   7.726   4.179   2.863  0.2094 -0.4540  0.2751
  526MOL0     C70910   7.726   4.053   2.809  0.4389  0.2126 -0.4646
  526MOL0     O70911   7.613   4.009   2.735 -0.0365  0.5847  0.1037
  526MOL0     C70912   7.507   3.962   2.821 -0.3657 -0.1416 -0.3994
  526MOL0     C70913   7.373   3.955   2.750  0.4748  0.1309  0.4960
  526MOL0     C70914   7.377   3.845   2.643  0.5796  0.4812  1.0475
  526MOL0     C70915   7.239   3.803   2.609  0.4141  0.2271 -0.1952
  526MOL0     C70916   7.250   3.703   2.492  0.4765  0.0313  0.0511
  526MOL0     C70917   7.116   3.654   2.436 -0.4430 -0.3850  0.1553
  526MOL0     C70918   7.147   3.553   2.322 -0.8329  0.0019  0.3690
  526MOL0     C70919   7.023   3.510   2.245  0.6713 -0.3049  0.6000
  526MOL0    Cl70920   7.017   3.617   2.096 -0.4931  0.3546  0.0735
  526MOL0     C70921   7.841   3.968   2.813 -0.4177  0.1213  0.1190
  526MOL0     C70922   7.961   4.018   2.873 -0.0741 -0.0702  0.6434
  526MOL0     O70923   8.060   4.132   3.163 -0.4617  0.6703 -0.1214
  526MOL0     C70924   8.367   4.142   3.122  1.1155 -0.2711  0.4955
  526MOL0     C70925   8.495   4.187   3.148  0.2670  0.7583 -0.1049
  526MOL0     N70926   9.233   4.264   3.429 -0.2718  0.3260 -0.2097
  526MOL0     N70927   9.253   4.333   3.538  0.0130  0.2510 -0.0372
  526MOL0     C70928   9.550   5.053   4.418  0.1667  0.5837 -0.2772
  526MOL0     C70929   9.630   5.101   4.526  0.2435 -0.3273  0.1982
  526MOL0     C70930   9.974   5.264   4.775  0.4534 -0.6535 -0.4407
  526MOL0     C70931  10.108   5.324   4.770  0.0232 -0.5208 -0.2028
  526MOL0     C70932  10.151   5.406   4.877  0.3472  1.1604 -0.5754
  526MOL0     C70933  10.062   5.424   4.981 -0.4309 -0.1591  0.3459
  526MOL0     O70934  10.111   5.507   5.079  0.2371  0.9392 -0.1004
  526MOL0     C70935  10.029   5.560   5.186 -0.0431  0.3884 -0.4798
  526MOL0     C70936  10.103   5.666   5.266  0.3550  0.2695  0.4276
  526MOL0     C70937  10.062   5.807   5.226  0.0248 -0.3369 -0.0191
  526MOL0     C70938  10.107   5.913   5.336 -0.5936  0.1576  0.2794
  526MOL0     C70939  10.103   6.047   5.286  0.1120 -0.1391  0.5455
  526MOL0     C70940  10.112   6.147   5.228  1.2576 -0.9170 -0.7116
  526MOL0     C70941   9.929   5.372   4.989 -0.5432  0.7167 -0.6297
  526MOL0     C70942   9.890   5.288   4.883  0.1838 -0.1169  0.1109
  526MOL0     H70943   9.875   4.875   4.563  0.4855 -0.5800 -1.4388
  526MOL0     H70944   9.736   4.764   4.370  0.6929 -0.3299  0.3660
  526MOL0     H70945   9.352   4.887   4.354 -1.8774  0.1175 -1.4299
  526MOL0     H70946   9.353   4.955   4.199  0.9409  2.1514  0.3840
  526MOL0     H70947   9.390   4.747   4.084  1.9160 -0.3501  0.2728
  526MOL0     H70948   9.402   4.658   4.241  0.6284  0.9899  0.9756
  526MOL0     H70949   9.159   4.736   4.283 -1.4336 -2.8557 -1.0351
  526MOL0     H70950   9.145   4.784   4.118 -3.5695  1.0028  1.5634
  526MOL0     H70951   9.219   4.500   4.228  1.9058  0.5170  0.2368
  526MOL0     H70952   9.066   4.565   4.169  0.5991  0.8555 -2.0158
  526MOL0     H70953   9.165   4.603   3.955  1.2385  1.4931  0.3164
  526MOL0     H70954   9.312   4.501   4.012  0.2686  2.4642  1.0926
  526MOL0     H70955   9.143   4.322   4.054 -1.1381  0.4684  0.7703
  526MOL0     H70956   9.021   4.417   3.983 -0.7550 -1.3030  3.5269
  526MOL0     H70957   9.292   4.332   3.848  0.0203  1.5029  0.8797
  526MOL0     H70958   9.158   4.226   3.855  2.3866 -2.6566 -4.6862
  526MOL0     H70959   9.173   4.495   3.722  1.6756 -1.0917 -0.5575
  526MOL0     H70960   9.021   4.412   3.745 -0.5163 -3.3489 -0.6916
  526MOL0     H70961   8.950   4.212   3.590 -1.1700  1.3473 -0.8483
  526MOL0     H70962   9.150   4.059   3.273 -0.4168 -0.3273  0.2693
  526MOL0     H70963   8.999   4.030   3.355 -0.6326  0.2188 -1.3147
  526MOL0     H70964   8.959   4.121   3.126 -0.3221  0.4774 -1.0832
  526MOL0     H70965   9.062   4.257   3.156  0.4741  0.2838  0.2684
  526MOL0     H70966   8.898   4.352   3.305 -0.4572  0.2660 -0.7185
  526MOL0     H70967   8.812   4.201   3.331  2.1748 -2.2543  0.2389
  526MOL0     H70968   8.738   4.211   3.084  0.2930  1.2523 -2.2284
  526MOL0     H70969   8.833   4.361   3.086  1.0496 -1.6200 -1.0669
  526MOL0     H70970   8.468   4.507   3.184  0.3284  0.0142  2.7937
  526MOL0     H70971   8.156   4.469   2.987 -1.1404 -2.1278  0.9673
  526MOL0     H70972   8.103   4.465   3.157 -0.2393 -0.8586 -0.6595
  526MOL0     H70973   8.224   4.585   3.112  2.3111 -0.1570 -1.8264
  526MOL0     H70974   7.842   4.329   2.947 -0.4783 -0.0565 -0.2825
  526MOL0     H70975   7.635   4.236   2.860  1.1386  1.2225  1.7504
  526MOL0     H70976   7.550   3.866   2.853  0.0838  0.6106  1.3404
  526MOL0     H70977   7.488   4.020   2.911 -1.2977 -0.8503 -0.1263
  526MOL0     H70978   7.298   3.937   2.828 -0.9212  3.1304  0.0001
  526MOL0     H70979   7.353   4.054   2.706  2.2238  0.2175 -0.1835
  526MOL0     H70980   7.416   3.752   2.687 -0.8642  0.3060  2.0213
  526MOL0     H70981   7.434   3.872   2.554  0.2198 -0.7579  0.4065
  526MOL0     H70982   7.192   3.745   2.688 -0.9192 -0.6956 -1.5993
  526MOL0     H70983   7.184   3.896   2.589  0.3710  1.1055  3.3911
  526MOL0     H70984   7.299   3.611   2.526  0.1251 -1.0738 -2.2584
  526MOL0     H70985   7.318   3.745   2.417  1.3750 -2.1441 -0.4406
  526MOL0     H70986   7.045   3.620   2.512 -4.2163  0.1361 -2.7792
  526MOL0     H70987   7.073   3.745   2.393  1.6093  1.6759  2.1954
  526MOL0     H70988   7.183   3.459   2.364 -2.9663 -1.7569 -1.5505
  526MOL0     H70989   7.220   3.593   2.251 -2.5158  0.7790 -0.9907
  526MOL0     H70990   6.933   3.530   2.304 -0.4826  1.5602 -1.6470
  526MOL0     H70991   7.037   3.406   2.217  3.1378 -0.2033  1.2255
  526MOL0     H70992   7.838   3.874   2.758 -2.4581 -1.2697  2.3793
  526MOL0     H70993   8.044   3.948   2.867  1.3146  1.6141 -1.0171
  526MOL0     H70994   8.331   4.040   3.133 -0.5683  0.2580  0.1359
  526MOL0     H70995   8.566   4.112   3.181  0.0566  0.7450  0.3326
  526MOL0     H70996   9.466   5.103   4.370 -1.8040 -3.6309 -1.6819
  526MOL0     H70997   9.603   5.199   4.564 -1.0756  0.3080 -2.2070
  526MOL0     H70998  10.179   5.299   4.692 -1.3707 -1.8995 -1.1025
  526MOL0     H70999  10.253   5.440   4.870  1.3541 -1.6764 -1.1986
  526MOL0     H71000   9.943   5.606   5.136  1.8142  3.7636 -0.8695
  526MOL0     H71001  10.008   5.470   5.244  1.1863 -1.1522 -2.2970
  526MOL0     H71002  10.211   5.653   5.263  1.1906  5.2037 -2.2500
  526MOL0     H71003  10.070   5.651   5.369 -5.4419  1.2132 -0.8932
  526MOL0     H71004   9.954   5.812   5.212 -0.1203 -0.1210  1.0834
  526MOL0     H71005  10.116   5.832   5.134  0.7590 -1.4900  0.0800
  526MOL0     H71006  10.212   5.913   5.364 -0.2646  2.9950 -0.7026
  526MOL0     H71007  10.048   5.890   5.425  0.5877 -0.1881  0.9897
  526MOL0     H71008  10.107   6.243   5.182 -1.2895  1.0599  3.1518
  526MOL0     H71009   9.857   5.402   5.064  0.8439  3.8585 -0.4025
  526MOL0     H71010   9.798   5.233   4.901 -0.9336  1.7413  0.2452
  527MOL0     O71011   7.474  10.176   7.308  0.1415 -0.1656  0.5167
  527MOL0     C71012   7.518  10.251   7.213  0.7656  0.6169  1.2499
  527MOL0     O71013   7.445  10.290   7.110  0.6400 -1.2598  0.0900
  527MOL0     C71014   7.303  10.288   7.111 -0.1459  0.0460  0.3195
  527MOL0     C71015   7.223  10.304   7.226 -0.3261 -0.2052 -0.2449
  527MOL0     C71016   7.087  10.285   7.208 -0.3428 -0.4374 -0.6354
  527MOL0     C71017   7.029  10.271   7.085 -0.0488  0.0669  0.6173
  527MOL0     O71018   6.892  10.247   7.083 -0.6968  0.3231  0.1541
  527MOL0     C71019   6.818  10.202   6.967  0.3873 -0.5751  0.5918
  527MOL0     C71020   6.667  10.198   7.008 -0.8730  0.1880  0.3433
  527MOL0     C71021   6.635  10.060   7.079 -0.8718  0.2883  0.1922
  527MOL0     C71022   6.540  10.088   7.185 -0.6832  0.1948  0.8176
  527MOL0     C71023   6.528   9.966   7.284  0.2421  0.0328 -0.0708
  527MOL0     C71024   6.481   9.831   7.221  0.4477  0.7736  0.0293
  527MOL0     C71025   6.494   9.710   7.327 -0.8008  0.7624  0.5626
  527MOL0     C71026   6.408   9.589   7.314  0.1770  0.5974  0.2587
  527MOL0     N71027   6.273   9.608   7.252  0.3981  1.3615  0.2256
  527MOL0     C71028   6.164   9.672   7.311 -0.1091 -0.5185  0.1427
  527MOL0     C71029   6.059   9.643   7.230  0.9486  0.5005  0.2013
  527MOL0     C71030   5.920   9.694   7.250 -0.2360 -0.1166 -1.3681
  527MOL0     C71031   5.913   9.829   7.174 -0.0576  0.2918  0.1208
  527MOL0     C71032   5.815   9.934   7.223  0.1063  0.0400 -0.1648
  527MOL0     C71033   5.675   9.887   7.199  0.6806  0.3168  0.1099
  527MOL0     O71034   5.577   9.980   7.252 -0.6706  0.2312 -0.2397
  527MOL0     C71035   5.443   9.968   7.228  0.7786  0.9317 -0.7715
  527MOL0     C71036   5.378   9.856   7.162  0.5518  0.0389  0.1804
  527MOL0     C71037   5.240   9.855   7.139 -0.2719  0.6930  0.2741
  527MOL0     C71038   5.179   9.731   7.074 -0.4001  0.1403  0.7424
  527MOL0     C71039   5.162   9.953   7.205 -0.5199 -0.2220  0.9178
  527MOL0     C71040   5.015   9.958   7.196 -0.0587 -0.0611  0.5799
  527MOL0     O71041   4.957   9.884   7.091  0.5604 -0.8074 -0.1576
  527MOL0     C71042   4.821   9.874   7.074  0.8155 -0.1168  0.3522
  527MOL0     C71043   4.717   9.904   7.169 -0.0713  0.2895 -0.1531
  527MOL0     C71044   4.583   9.904   7.139 -0.6998 -0.1982 -0.1146
  527MOL0     C71045   4.544   9.874   7.000 -0.9086 -0.8015  0.0485
  527MOL0     O71046   4.418   9.866   6.958  0.1303  0.5264  0.0282
  527MOL0     C71047   4.311   9.920   7.031 -0.0033 -0.3013  0.3544
  527MOL0     C71048   4.319  10.076   7.035  0.4876 -0.4605  0.4461
  527MOL0     C71049   4.327  10.157   6.904  0.5821  0.1337  0.2131
  527MOL0     C71050   4.196  10.152   6.822  0.3847 -0.2417  0.3207
  527MOL0     C71051   4.209  10.200   6.673  0.1681 -0.3940 -0.7952
  527MOL0     C71052   4.067  10.234   6.610 -0.2715  0.8623  0.3613
  527MOL0     C71053   3.994  10.110   6.559 -1.2372 -0.1061 -0.1810
  527MOL0     C71054   3.894  10.157   6.449 -0.7343 -0.0894 -0.6860
  527MOL0    Cl71055   3.785  10.030   6.396  0.1154 -0.1397 -0.0154
  527MOL0     C71056   4.652   9.841   6.910 -0.3377  0.4659  0.4501
  527MOL0     C71057   4.785   9.844   6.942 -0.0642 -0.0595 -0.0887
  527MOL0     O71058   4.955  10.022   7.284  0.0805 -0.2578  0.0679
  527MOL0     C71059   5.225  10.053   7.275 -0.3675  0.7106 -0.3958
  527MOL0     C71060   5.365  10.067   7.287  0.3743 -0.1904  0.0553
  527MOL0     N71061   6.110   9.592   7.108  0.2288  0.3958 -1.3147
  527MOL0     N71062   6.236   9.563   7.126  0.2341  0.4939 -0.5269
  527MOL0     C71063   7.109  10.269   6.973  0.1115 -0.2095 -0.4005
  527MOL0     C71064   7.245  10.274   6.983  0.8899 -0.8772 -0.4505
  527MOL0     C71065   7.663  10.287   7.214 -0.3504 -0.3240 -0.9997
  527MOL0     C71066   7.742  10.245   7.321 -0.8563  0.3860 -1.0358
  527MOL0     C71067   7.880  10.273   7.333 -0.2898 -0.5198  0.2637
  527MOL0     C71068   7.940  10.347   7.228 -0.8885 -0.1512  0.0161
  527MOL0     O71069   8.079  10.371   7.225  0.6049  0.0410  0.1706
  527MOL0     C71070   8.146  10.388   7.349 -0.3886  0.1500 -0.0251
  527MOL0     C71071   8.273  10.467   7.334  0.4096 -0.1579  0.2752
  527MOL0     C71072   8.359  10.474   7.459  0.3039  0.5839  0.4082
  527MOL0     C71073   8.481  10.560   7.424 -0.1857  0.5641  0.9875
  527MOL0     C71074   8.601  10.535   7.505  0.2515 -0.1120  0.1138
  527MOL0     C71075   8.704  10.500   7.567 -0.2462  0.1712 -0.3010
  527MOL0     C71076   7.863  10.379   7.114  0.0092  0.1647  1.2798
  527MOL0     C71077   7.726  10.355   7.103 -0.5704 -0.6181 -0.5205
  527MOL0     H71078   7.267  10.322   7.323  0.3832  0.6976 -0.7157
  527MOL0     H71079   7.018  10.288   7.292  1.3837 -0.7275  0.8328
  527MOL0     H71080   6.826  10.284   6.894  0.6554  0.8283  2.1384
  527MOL0     H71081   6.860  10.114   6.919  0.8641  0.9998 -2.1212
  527MOL0     H71082   6.642  10.283   7.071 -1.2926  1.1267 -1.0428
  527MOL0     H71083   6.610  10.203   6.915  0.8199  1.9997 -0.6735
  527MOL0     H71084   6.594   9.984   7.012 -0.1662 -0.6268  0.7746
  527MOL0     H71085   6.724  10.007   7.114 -0.0592 -1.4939 -3.9852
  527MOL0     H71086   6.569  10.170   7.251  0.2648 -1.2803  2.3336
  527MOL0     H71087   6.446  10.119   7.140  0.7520 -1.7318 -4.1604
  527MOL0     H71088   6.619   9.947   7.340  0.0363 -2.1078 -0.3888
  527MOL0     H71089   6.462  10.001   7.364 -2.1676 -0.4230 -1.7500
  527MOL0     H71090   6.379   9.847   7.185  0.0088 -1.5914  0.0594
  527MOL0     H71091   6.537   9.791   7.136  0.1377 -3.1451  1.4601
  527MOL0     H71092   6.597   9.674   7.330 -0.1920  2.2886 -0.9027
  527MOL0     H71093   6.475   9.750   7.427  1.3444  0.4499  1.1254
  527MOL0     H71094   6.409   9.535   7.409  2.9937 -3.2180 -1.6550
  527MOL0     H71095   6.458   9.525   7.240  2.3379  1.8491  0.5476
  527MOL0     H71096   6.157   9.723   7.407 -0.0838 -1.3331  0.5882
  527MOL0     H71097   5.840   9.628   7.216 -1.6529 -0.2438  1.8677
  527MOL0     H71098   5.916   9.701   7.359  0.8643 -2.9906 -1.0309
  527MOL0     H71099   5.893   9.811   7.068 -2.2136 -0.5121  0.6130
  527MOL0     H71100   6.009   9.879   7.186  0.8852 -1.7583  1.7876
  527MOL0     H71101   5.820  10.026   7.165 -0.0467 -0.2615 -0.6664
  527MOL0     H71102   5.834   9.957   7.328 -1.3668  1.3620 -0.1479
  527MOL0     H71103   5.662   9.792   7.251  4.1616 -0.5014 -0.3081
  527MOL0     H71104   5.648   9.877   7.094  1.6020  0.8202 -0.1909
  527MOL0     H71105   5.438   9.772   7.128 -0.3276 -0.7733  0.5935
  527MOL0     H71106   5.127   9.755   6.981 -0.4567 -0.3173  0.6517
  527MOL0     H71107   5.254   9.659   7.041 -2.1322 -0.9427 -1.0494
  527MOL0     H71108   5.108   9.679   7.139 -0.3318 -1.9638 -0.7553
  527MOL0     H71109   4.753   9.906   7.271  1.8423 -1.0260 -0.7413
  527MOL0     H71110   4.514   9.919   7.222 -0.9894  1.1398 -0.5680
  527MOL0     H71111   4.216   9.887   6.986 -0.7149  0.3236  1.3533
  527MOL0     H71112   4.321   9.877   7.131 -0.5626 -0.3081  0.4123
  527MOL0     H71113   4.238  10.123   7.092  1.5207  1.4243  0.4472
  527MOL0     H71114   4.410  10.109   7.086  0.8715 -0.7298 -0.0639
  527MOL0     H71115   4.414  10.115   6.852  0.6637  2.0561 -1.3085
  527MOL0     H71116   4.348  10.262   6.928  0.5463 -0.4856  3.3364
  527MOL0     H71117   4.157  10.049   6.819  1.9484 -0.8481 -0.1448
  527MOL0     H71118   4.118  10.211   6.870  1.0689  2.9736 -2.1941
  527MOL0     H71119   4.261  10.128   6.610  0.8181  0.0254 -0.7450
  527MOL0     H71120   4.263  10.295   6.671  1.6959 -1.2352 -0.6594
  527MOL0     H71121   4.000  10.289   6.677 -0.4264  1.5887 -0.3623
  527MOL0     H71122   4.086  10.301   6.525 -0.4567  1.3790  0.7189
  527MOL0     H71123   3.940  10.062   6.642  0.2296 -2.1086 -0.3057
  527MOL0     H71124   4.062  10.038   6.512  0.4366  1.2773 -0.0013
  527MOL0     H71125   3.956  10.198   6.369 -0.1992  1.7351  0.5916
  527MOL0     H71126   3.842  10.239   6.498  1.2950  0.9965 -0.2544
  527MOL0     H71127   4.634   9.807   6.808  2.7723  0.1936 -0.1036
  527MOL0     H71128   4.846   9.820   6.855  0.6469  2.7241 -0.4293
  527MOL0     H71129   5.161  10.124   7.328 -0.1223  1.8747 -1.6132
  527MOL0     H71130   5.409  10.152   7.338 -0.3359 -0.6907  1.5797
  527MOL0     H71131   7.063  10.269   6.875  1.4221  0.4945 -1.0507
  527MOL0     H71132   7.304  10.284   6.893 -0.2878 -0.7364 -1.2361
  527MOL0     H71133   7.700  10.195   7.408  0.6087  2.3554  0.9444
  527MOL0     H71134   7.936  10.233   7.417  1.2599 -0.1360 -0.5295
  527MOL0     H71135   8.081  10.444   7.418 -1.3607  0.4627 -1.1619
  527MOL0     H71136   8.173  10.287   7.382 -2.4308 -0.8492 -1.1650
  527MOL0     H71137   8.252  10.566   7.293  0.2646  0.3420  1.5386
  527MOL0     H71138   8.329  10.419   7.253 -0.2940 -1.2390  0.4087
  527MOL0     H71139   8.380  10.376   7.502  1.1666  1.1288  1.2789
  527MOL0     H71140   8.304  10.527   7.538  0.0155 -1.1982  1.4731
  527MOL0     H71141   8.466  10.668   7.426  0.4243  0.6486  2.8256
  527MOL0     H71142   8.512  10.534   7.322  0.9076  1.3589  1.0972
  527MOL0     H71143   8.784  10.464   7.629 -1.9506 -0.7131  1.5244
  527MOL0     H71144   7.916  10.435   7.037 -0.9172 -0.1468  0.3843
  527MOL0     H71145   7.670  10.387   7.016  0.1618  0.0967 -0.7482
  528MOL0     O71146   5.794   8.496   3.720  0.2683  0.0137  0.3888
  528MOL0     C71147   5.846   8.395   3.757 -0.4882  0.0666 -0.2449
  528MOL0     O71148   5.767   8.274   3.786 -0.1134 -1.3279 -0.4958
  528MOL0     C71149   5.634   8.275   3.767 -0.1366 -0.0542 -0.1718
  528MOL0     C71150   5.568   8.314   3.653  0.4761  0.5976 -0.6623
  528MOL0     C71151   5.429   8.310   3.645 -0.7469 -0.7031  0.1998
  528MOL0     C71152   5.357   8.263   3.750  0.1193  0.5320  1.1594
  528MOL0     O71153   5.220   8.267   3.740 -0.0006 -0.0264  0.0746
  528MOL0     C71154   5.142   8.142   3.740 -0.0950 -0.3944 -0.3377
  528MOL0     C71155   5.020   8.162   3.659 -0.0712  0.3234  0.5285
  528MOL0     C71156   4.928   8.236   3.740 -0.5130  0.4989 -0.4200
  528MOL0     C71157   4.806   8.261   3.651 -0.3536  0.1340  0.5215
  528MOL0     C71158   4.715   8.350   3.734  0.2399  0.4305 -0.5091
  528MOL0     C71159   4.635   8.432   3.636 -0.1124 -0.6779 -0.0831
  528MOL0     C71160   4.533   8.532   3.699 -0.4077  0.6620  0.7665
  528MOL0     C71161   4.418   8.464   3.771  0.2224  1.0664 -0.0443
  528MOL0     N71162   4.299   8.539   3.765  0.2948 -0.6720 -0.1998
  528MOL0     C71163   4.244   8.626   3.858  0.5546 -0.4896  0.1221
  528MOL0     C71164   4.125   8.666   3.798 -0.2578 -0.8560 -0.3966
  528MOL0     C71165   4.026   8.772   3.832  0.1350  0.6185  0.2324
  528MOL0     C71166   4.033   8.913   3.780  0.5627 -0.3407  0.3968
  528MOL0     C71167   4.023   8.914   3.620  0.7824  0.8365 -0.6439
  528MOL0     C71168   3.881   8.868   3.568 -0.1316 -0.4423  0.1953
  528MOL0     O71169   3.777   8.952   3.615  0.6070  0.6482 -0.2465
  528MOL0     C71170   3.649   8.928   3.587  0.3253  0.4830 -1.0175
  528MOL0     C71171   3.551   9.021   3.640 -0.7191 -0.3252  0.6341
  528MOL0     C71172   3.416   9.009   3.593  0.1424  0.1345 -0.3868
  528MOL0     C71173   3.313   9.101   3.650  0.4833 -0.4150  0.1528
  528MOL0     C71174   3.376   8.908   3.505 -0.3782 -0.9019  0.3710
  528MOL0     C71175   3.235   8.882   3.455 -1.3836 -0.1306 -0.6676
  528MOL0     O71176   3.161   8.995   3.419  1.0776  0.1238  0.3272
  528MOL0     C71177   3.033   8.973   3.371 -0.2850 -0.5266 -0.1525
  528MOL0     C71178   2.941   9.075   3.410 -0.1785 -0.3958 -0.8473
  528MOL0     C71179   2.806   9.076   3.363  0.0052  0.6206  0.8328
  528MOL0     C71180   2.760   8.979   3.276  0.7790  0.5534  0.3949
  528MOL0     O71181   2.627   8.986   3.239 -0.0610  0.5927 -0.4487
  528MOL0     C71182   2.594   8.911   3.122 -0.7298  0.6962  0.8771
  528MOL0     C71183   2.453   8.946   3.080  0.2169 -0.7240 -0.6153
  528MOL0     C71184   2.399   8.877   2.958 -0.6952  0.7889  0.7485
  528MOL0     C71185   2.369   8.732   2.975  0.1495  0.5249  0.2572
  528MOL0     C71186   2.266   8.676   2.877  0.4159  0.3034 -0.1746
  528MOL0     C71187   2.251   8.523   2.891 -0.4846 -0.4293 -0.4551
  528MOL0     C71188   2.199   8.486   3.036 -0.0816 -0.0311 -0.0565
  528MOL0     C71189   2.145   8.347   3.045  0.0536  0.0380 -0.5221
  528MOL0    Cl71190   2.268   8.237   2.980 -0.3263  0.0365  0.3358
  528MOL0     C71191   2.850   8.883   3.230 -0.2773 -0.0833  0.1770
  528MOL0     C71192   2.985   8.879   3.278  0.0207 -0.5592 -0.1728
  528MOL0     O71193   3.206   8.770   3.433  0.0656  0.2878 -0.5963
  528MOL0     C71194   3.473   8.810   3.473 -0.4294 -0.5518 -0.2196
  528MOL0     C71195   3.601   8.822   3.518 -0.1998 -0.2034  0.3406
  528MOL0     N71196   4.100   8.584   3.686 -0.3798  0.7749  0.3550
  528MOL0     N71197   4.206   8.507   3.668 -0.4425 -0.3044  0.0942
  528MOL0     C71198   5.419   8.220   3.858  0.6145  0.1160  0.4692
  528MOL0     C71199   5.551   8.226   3.872 -0.6267  0.2511  0.3595
  528MOL0     C71200   5.986   8.393   3.792  0.0489  0.4926 -0.0650
  528MOL0     C71201   6.045   8.306   3.884  0.6380 -0.3237 -0.0379
  528MOL0     C71202   6.181   8.323   3.912 -0.3608 -0.1074 -0.4103
  528MOL0     C71203   6.256   8.419   3.852 -0.1823 -0.0088  0.0516
  528MOL0     O71204   6.397   8.441   3.869  0.5246  0.0979 -0.2236
  528MOL0     C71205   6.472   8.363   3.971 -0.0903 -0.0283 -0.3064
  528MOL0     C71206   6.625   8.366   3.941 -0.1387  0.0466 -0.1867
  528MOL0     C71207   6.684   8.503   3.981  0.2683 -0.5778 -0.1188
  528MOL0     C71208   6.831   8.537   3.954 -1.1495  0.0486 -0.8559
  528MOL0     C71209   6.866   8.527   3.818  1.3539  0.3032  0.0680
  528MOL0     C71210   6.924   8.514   3.716  0.3738  0.7072 -0.3768
  528MOL0     C71211   6.205   8.513   3.770 -0.1128 -0.3101 -0.7782
  528MOL0     C71212   6.069   8.497   3.737 -0.0348  0.7069 -0.7960
  528MOL0     H71213   5.622   8.335   3.561 -0.6792 -1.0764 -1.7902
  528MOL0     H71214   5.383   8.343   3.553  1.1979 -0.2019 -0.6457
  528MOL0     H71215   5.187   8.054   3.693  0.0420 -0.1347 -0.6956
  528MOL0     H71216   5.111   8.115   3.842 -0.0582  0.8373  0.0167
  528MOL0     H71217   5.047   8.225   3.574 -0.8652  3.5056  2.4427
  528MOL0     H71218   4.978   8.066   3.628  0.6554  0.3764 -0.6553
  528MOL0     H71219   4.888   8.171   3.818 -2.3591  1.7294 -0.2814
  528MOL0     H71220   4.972   8.320   3.793  1.2842 -2.1572  2.6582
  528MOL0     H71221   4.833   8.312   3.558 -0.1272  0.3342  0.6948
  528MOL0     H71222   4.762   8.164   3.627 -0.8229 -0.5742  3.7605
  528MOL0     H71223   4.653   8.286   3.797  3.4586 -5.0753 -2.2036
  528MOL0     H71224   4.780   8.420   3.787 -0.1098  1.1647 -1.0366
  528MOL0     H71225   4.704   8.484   3.569 -1.3690  0.9556 -0.1824
  528MOL0     H71226   4.573   8.368   3.573  0.2064  0.0899 -1.2021
  528MOL0     H71227   4.587   8.593   3.772  0.1852 -0.2759  1.1234
  528MOL0     H71228   4.499   8.587   3.611 -1.1182  0.0562  0.6535
  528MOL0     H71229   4.447   8.445   3.874 -0.9653 -0.9795 -0.0486
  528MOL0     H71230   4.395   8.365   3.731 -0.1785 -0.2373  3.0989
  528MOL0     H71231   4.289   8.660   3.951 -0.6988  1.3689  0.1142
  528MOL0     H71232   3.928   8.735   3.801  0.1097  1.6817 -1.0657
  528MOL0     H71233   4.020   8.770   3.941 -0.1076 -1.2959  0.2159
  528MOL0     H71234   4.126   8.965   3.807 -0.6106  1.1710  1.7214
  528MOL0     H71235   3.947   8.972   3.813  0.2431  0.6941 -2.0612
  528MOL0     H71236   4.108   8.856   3.583  0.6592 -1.2081  1.9842
  528MOL0     H71237   4.039   9.016   3.584  0.0301  0.7121 -1.3468
  528MOL0     H71238   3.861   8.765   3.599 -0.7885 -1.6201 -3.5404
  528MOL0     H71239   3.894   8.859   3.459  1.3384  0.4793  0.2576
  528MOL0     H71240   3.585   9.094   3.712  0.3297  0.3196 -0.4771
  528MOL0     H71241   3.226   9.042   3.679  1.0618 -0.0058  2.9510
  528MOL0     H71242   3.353   9.160   3.733 -0.3308  2.0539 -1.1196
  528MOL0     H71243   3.286   9.170   3.570 -0.2519  1.4884  1.9716
  528MOL0     H71244   2.975   9.157   3.473 -0.0986 -1.1667  0.1279
  528MOL0     H71245   2.748   9.159   3.403  0.9966  2.4082 -1.2193
  528MOL0     H71246   2.674   8.932   3.051 -0.5834 -1.4181  0.3341
  528MOL0     H71247   2.595   8.801   3.127 -0.4273  0.7079  1.0940
  528MOL0     H71248   2.386   8.943   3.166  0.4679 -2.2484 -0.4405
  528MOL0     H71249   2.455   9.051   3.048 -1.2959 -0.1516  0.9984
  528MOL0     H71250   2.482   8.881   2.887  0.7107 -1.1408  2.1939
  528MOL0     H71251   2.308   8.924   2.919 -1.8385 -1.3271  0.7204
  528MOL0     H71252   2.465   8.682   2.963  0.6442  1.4024  0.4638
  528MOL0     H71253   2.344   8.709   3.079  4.5943  1.9630  1.8956
  528MOL0     H71254   2.291   8.695   2.772 -0.0613 -0.3104 -0.4088
  528MOL0     H71255   2.170   8.728   2.886  0.3184 -0.2090  2.5799
  528MOL0     H71256   2.187   8.492   2.807 -0.1640  3.5182 -2.3938
  528MOL0     H71257   2.351   8.486   2.868 -0.2980  0.8777 -1.9761
  528MOL0     H71258   2.118   8.553   3.066  0.3688  1.3789 -1.8113
  528MOL0     H71259   2.284   8.501   3.103 -0.9760  1.5711  0.7976
  528MOL0     H71260   2.061   8.346   2.975 -0.6903  1.9345  0.2608
  528MOL0     H71261   2.112   8.324   3.147  0.4762  2.4017  0.2202
  528MOL0     H71262   2.823   8.813   3.152 -1.5528  1.0054 -0.3719
  528MOL0     H71263   3.050   8.809   3.227 -0.4178 -2.4680  1.7474
  528MOL0     H71264   3.448   8.735   3.399  0.1483  0.8839 -1.9584
  528MOL0     H71265   3.663   8.742   3.479  0.6248  0.7891 -0.4645
  528MOL0     H71266   5.351   8.194   3.939 -0.8816  1.2101 -0.3803
  528MOL0     H71267   5.594   8.194   3.967 -0.9017 -2.9389 -0.4711
  528MOL0     H71268   5.995   8.230   3.943 -1.6060 -1.3707 -3.0230
  528MOL0     H71269   6.229   8.262   3.987  2.0507  0.4621 -1.4191
  528MOL0     H71270   6.456   8.404   4.071  1.0389  0.5045 -0.3238
  528MOL0     H71271   6.445   8.258   3.963 -1.6615  0.4221 -1.5598
  528MOL0     H71272   6.641   8.353   3.834 -1.6997  0.3988 -0.5001
  528MOL0     H71273   6.677   8.284   3.990  0.8864  1.6940  1.6454
  528MOL0     H71274   6.669   8.524   4.088 -2.0028 -1.1322 -0.2732
  528MOL0     H71275   6.626   8.581   3.931  0.3046 -1.4839 -1.6164
  528MOL0     H71276   6.893   8.467   4.010 -2.5164 -0.6836 -0.2072
  528MOL0     H71277   6.847   8.640   3.988 -0.7326 -0.5649  0.8800
  528MOL0     H71278   6.980   8.495   3.626  2.1253 -3.6035  1.3731
  528MOL0     H71279   6.268   8.593   3.731  0.7325  0.1012  1.2992
  528MOL0     H71280   6.035   8.567   3.661  0.9428  2.7048  0.5141
  529MOL0     O71281   9.110   7.735   2.798 -0.2015  0.6642  0.0605
  529MOL0     C71282   9.148   7.843   2.759  0.1298  0.0598  0.2339
  529MOL0     O71283   9.082   7.957   2.772  0.4883  0.3172  0.0269
  529MOL0     C71284   8.947   7.951   2.780  0.1335  0.1440  1.2820
  529MOL0     C71285   8.886   8.025   2.879  0.0757 -0.2580 -0.6294
  529MOL0     C71286   8.745   8.049   2.888 -1.0942  0.8489 -0.0176
  529MOL0     C71287   8.665   7.972   2.799 -0.3742  0.2941 -0.4169
  529MOL0     O71288   8.531   7.987   2.819  0.3750  0.6709 -0.1594
  529MOL0     C71289   8.458   7.864   2.823 -0.6703 -0.5329 -0.1191
  529MOL0     C71290   8.330   7.882   2.896  0.9272 -0.3569 -1.2077
  529MOL0     C71291   8.254   7.755   2.922  0.6102  0.4975  0.4328
  529MOL0     C71292   8.121   7.790   3.000 -0.1329 -0.4428 -0.8221
  529MOL0     C71293   8.058   7.657   3.051 -0.3932 -0.9102  0.5168
  529MOL0     C71294   7.954   7.703   3.154 -0.4767 -0.0643 -0.7297
  529MOL0     C71295   7.831   7.776   3.105  0.2410  0.2104 -0.3106
  529MOL0     C71296   7.746   7.684   3.026 -0.6561  0.4735 -0.1661
  529MOL0     N71297   7.628   7.742   2.963 -0.8720  0.4920  0.3520
  529MOL0     C71298   7.644   7.837   2.865 -0.1073 -0.4287  0.5136
  529MOL0     C71299   7.511   7.883   2.848 -0.8059 -0.1812 -0.1590
  529MOL0     C71300   7.466   7.964   2.735  0.2817  0.4409 -0.5811
  529MOL0     C71301   7.478   7.894   2.603  0.2078  0.1001  0.0247
  529MOL0     C71302   7.407   7.766   2.590  0.1042  0.3237  0.7052
  529MOL0     C71303   7.262   7.783   2.564 -0.6108  1.2241  0.6028
  529MOL0     O71304   7.191   7.805   2.692  0.1687 -0.0673  0.2331
  529MOL0     C71305   7.051   7.814   2.694 -0.1641 -0.2186 -0.6469
  529MOL0     C71306   6.966   7.848   2.584 -0.4179  0.4590 -0.4593
  529MOL0     C71307   6.832   7.832   2.593 -0.6972  0.8976 -0.4661
  529MOL0     C71308   6.755   7.865   2.472  0.0639 -0.0844 -0.6351
  529MOL0     C71309   6.768   7.797   2.716  0.6932  0.4202 -1.0499
  529MOL0     C71310   6.626   7.771   2.731  0.3278  0.3141 -0.3764
  529MOL0     O71311   6.576   7.796   2.859  0.1772  0.3015 -0.1649
  529MOL0     C71312   6.443   7.775   2.875  0.7732 -0.1006  0.5584
  529MOL0     C71313   6.396   7.672   2.953  0.4946 -0.3662 -0.6255
  529MOL0     C71314   6.256   7.662   2.973  0.5646 -0.0307 -0.2032
  529MOL0     C71315   6.159   7.744   2.914 -0.1221 -0.4719  0.5274
  529MOL0     O71316   6.027   7.736   2.959 -0.2023 -0.6861 -0.3423
  529MOL0     C71317   5.935   7.770   2.856  0.4160 -0.7305 -0.2734
  529MOL0     C71318   5.811   7.716   2.905 -0.1155 -0.1804  0.0049
  529MOL0     C71319   5.691   7.734   2.809  0.4312  0.2988 -0.1049
  529MOL0     C71320   5.570   7.648   2.851  0.8631  0.2488  0.5537
  529MOL0     C71321   5.485   7.705   2.965  0.3966  0.0252 -0.1813
  529MOL0     C71322   5.365   7.619   3.003  0.3516  0.0681 -1.0271
  529MOL0     C71323   5.255   7.616   2.896 -0.6937 -1.0730  0.8990
  529MOL0     C71324   5.129   7.544   2.939 -0.7144  0.4604 -0.2181
  529MOL0    Cl71325   5.037   7.527   2.782 -0.0530  0.2553  0.1978
  529MOL0     C71326   6.206   7.841   2.832 -0.9656 -0.9249  0.0084
  529MOL0     C71327   6.346   7.855   2.806 -0.1647  0.4626 -0.1450
  529MOL0     O71328   6.560   7.730   2.637 -0.3800  0.1097  0.9550
  529MOL0     C71329   6.852   7.779   2.832 -0.0948 -0.0460 -0.0950
  529MOL0     C71330   6.991   7.784   2.822  0.4453 -0.2830  0.1580
  529MOL0     N71331   7.429   7.829   2.937  0.4792 -0.4124 -0.6684
  529MOL0     N71332   7.503   7.738   3.004  1.0951  0.1678 -0.0018
  529MOL0     C71333   8.724   7.887   2.703 -0.8932  0.2560  0.2129
  529MOL0     C71334   8.864   7.874   2.693 -0.4191  0.1369  0.5579
  529MOL0     C71335   9.284   7.847   2.708  0.2852 -0.9975 -0.4272
  529MOL0     C71336   9.336   7.738   2.653 -0.4690 -0.2346 -0.2114
  529MOL0     C71337   9.465   7.735   2.603  0.1684 -0.0769 -0.5468
  529MOL0     C71338   9.546   7.845   2.597  0.0991 -0.1461  0.3277
  529MOL0     O71339   9.668   7.826   2.529  0.2141 -0.2845 -0.9861
  529MOL0     C71340   9.758   7.934   2.519  0.1353  0.7116 -0.8088
  529MOL0     C71341   9.753   7.993   2.374  0.4729 -0.0687 -0.6718
  529MOL0     C71342   9.854   8.101   2.349 -1.0887  0.5468  0.3981
  529MOL0     C71343   9.816   8.169   2.213  0.3768  0.1386 -0.2720
  529MOL0     C71344   9.892   8.303   2.204 -1.3653  0.5983  0.2184
  529MOL0     C71345   9.956   8.404   2.203  0.7383 -0.4690 -0.5929
  529MOL0     C71346   9.503   7.962   2.661  0.2707  0.3654  0.0222
  529MOL0     C71347   9.373   7.963   2.718 -0.0923  0.1648  0.6476
  529MOL0     H71348   8.950   8.076   2.951  0.3325 -2.8179  1.0932
  529MOL0     H71349   8.700   8.093   2.976  1.0172  1.5087  0.7958
  529MOL0     H71350   8.427   7.830   2.724 -0.7205 -0.6561 -0.0619
  529MOL0     H71351   8.515   7.785   2.874  0.5712 -0.3954 -1.2228
  529MOL0     H71352   8.350   7.940   2.986  0.8874 -1.1234 -0.7001
  529MOL0     H71353   8.265   7.946   2.835  1.8835  2.1280  0.2600
  529MOL0     H71354   8.226   7.699   2.831  1.4846 -1.7914  1.4883
  529MOL0     H71355   8.311   7.680   2.978 -0.3287  0.7532  1.7634
  529MOL0     H71356   8.141   7.858   3.084  1.4657  0.6300 -2.0046
  529MOL0     H71357   8.054   7.845   2.933 -3.2254 -1.2046  1.4483
  529MOL0     H71358   8.006   7.604   2.971  2.7533  0.7003 -2.8804
  529MOL0     H71359   8.129   7.591   3.101  2.3882  2.3805  1.2550
  529MOL0     H71360   7.921   7.623   3.221  0.6423  1.2898  1.5527
  529MOL0     H71361   7.999   7.777   3.221  1.1712 -1.2692 -0.4596
  529MOL0     H71362   7.783   7.830   3.187  0.0911  1.1401 -0.9843
  529MOL0     H71363   7.862   7.865   3.049 -0.7588  1.5750  1.2224
  529MOL0     H71364   7.710   7.615   3.103  0.6249  0.1584  0.1642
  529MOL0     H71365   7.805   7.637   2.947  0.8885 -1.9825  2.2774
  529MOL0     H71366   7.729   7.867   2.804 -0.6304  0.6761  0.3000
  529MOL0     H71367   7.362   7.991   2.756  0.6237  2.3458 -1.1150
  529MOL0     H71368   7.520   8.058   2.723 -0.2674  0.7098 -1.0395
  529MOL0     H71369   7.580   7.862   2.579 -0.9405 -3.3457 -0.8875
  529MOL0     H71370   7.448   7.955   2.517 -1.7696 -3.4762 -2.0960
  529MOL0     H71371   7.417   7.709   2.683 -1.5863  1.7147  1.7931
  529MOL0     H71372   7.447   7.706   2.508  0.8541 -0.6816  1.7822
  529MOL0     H71373   7.224   7.687   2.528  2.8339 -0.4905  1.1315
  529MOL0     H71374   7.233   7.858   2.490 -1.5961  0.5316  0.2663
  529MOL0     H71375   7.026   7.863   2.495 -1.1832 -1.8422 -1.4287
  529MOL0     H71376   6.815   7.919   2.398 -0.5134  0.1864 -0.9070
  529MOL0     H71377   6.702   7.785   2.420 -0.4047 -0.0266 -0.2450
  529MOL0     H71378   6.694   7.952   2.495 -0.0636  0.5325 -3.0181
  529MOL0     H71379   6.458   7.605   3.012 -0.4439  0.3601  1.2850
  529MOL0     H71380   6.212   7.587   3.038  1.8967  0.0349  0.8139
  529MOL0     H71381   5.923   7.879   2.858 -1.8903 -0.9596  0.2672
  529MOL0     H71382   5.953   7.734   2.754 -1.4367  0.5999 -1.1253
  529MOL0     H71383   5.822   7.609   2.925 -0.9791  0.1577  2.8616
  529MOL0     H71384   5.787   7.775   2.995  4.9394  3.2599 -0.5208
  529MOL0     H71385   5.728   7.704   2.710  0.0163 -4.3017  0.9053
  529MOL0     H71386   5.659   7.838   2.800  0.9680  0.4109 -0.7897
  529MOL0     H71387   5.514   7.641   2.757  0.2486  1.8216  0.7753
  529MOL0     H71388   5.603   7.548   2.880 -2.1708  0.0618  4.0032
  529MOL0     H71389   5.453   7.807   2.941  3.8166  1.1580 -0.3707
  529MOL0     H71390   5.554   7.712   3.049  2.5551 -1.8206 -1.6736
  529MOL0     H71391   5.401   7.517   3.020  0.0397 -0.0168 -0.8627
  529MOL0     H71392   5.321   7.654   3.096  1.6891  1.4012 -0.8688
  529MOL0     H71393   5.302   7.564   2.811 -1.3822 -0.4528  0.1236
  529MOL0     H71394   5.230   7.715   2.857  0.0949 -1.6724 -1.3027
  529MOL0     H71395   5.072   7.607   3.007 -0.7381  1.1371 -0.8528
  529MOL0     H71396   5.152   7.445   2.980  0.4089 -0.1936 -2.2949
  529MOL0     H71397   6.140   7.912   2.783  0.2509 -0.1632 -0.5812
  529MOL0     H71398   6.378   7.933   2.737 -2.5260 -0.9139 -3.0499
  529MOL0     H71399   6.819   7.759   2.934  0.1083 -0.0981 -0.0388
  529MOL0     H71400   7.052   7.763   2.910 -0.6509 -0.3809  0.9160
  529MOL0     H71401   8.654   7.824   2.648 -0.5348  1.0766 -1.2033
  529MOL0     H71402   8.926   7.809   2.632  0.9402 -0.5597  2.5808
  529MOL0     H71403   9.274   7.650   2.642 -0.0421 -0.5779  0.0688
  529MOL0     H71404   9.507   7.645   2.559 -0.8514 -0.7717 -0.1551
  529MOL0     H71405   9.740   8.016   2.589  0.2039 -0.1617  0.2618
  529MOL0     H71406   9.861   7.902   2.536  0.2131  2.5691  3.9178
  529MOL0     H71407   9.655   8.040   2.368 -0.3454 -1.7477 -0.9911
  529MOL0     H71408   9.766   7.916   2.298 -0.1632  0.1610 -1.0210
  529MOL0     H71409   9.956   8.063   2.339 -1.4156 -0.1902 -0.2612
  529MOL0     H71410   9.840   8.165   2.436  2.2365  0.4395  1.1324
  529MOL0     H71411   9.707   8.183   2.211 -0.0343 -2.2665  0.9192
  529MOL0     H71412   9.845   8.103   2.130 -1.2511 -0.5157 -0.3824
  529MOL0     H71413  10.005   8.499   2.199 -2.8861  1.6581  0.5572
  529MOL0     H71414   9.559   8.054   2.666  2.8213 -1.1520  4.0846
  529MOL0     H71415   9.346   8.055   2.770  0.5180  0.6018  0.2093
  530MOL0     O71416   2.854   9.429   3.043 -0.2568  1.1886  0.1507
  530MOL0     C71417   2.903   9.310   3.021  0.6957 -0.0212  0.0416
  530MOL0     O71418   2.838   9.208   2.952 -0.0190 -0.3401 -0.0762
  530MOL0     C71419   2.707   9.233   2.911  0.2513  0.0208 -0.0924
  530MOL0     C71420   2.610   9.259   3.008  0.5930 -0.2092 -0.3286
  530MOL0     C71421   2.481   9.303   2.966 -0.1391 -0.4235 -0.2922
  530MOL0     C71422   2.442   9.296   2.829  0.3323 -0.7012 -0.7963
  530MOL0     O71423   2.314   9.332   2.796  0.0007 -0.2119  0.7221
  530MOL0     C71424   2.248   9.257   2.696 -0.0344 -0.3265  0.3763
  530MOL0     C71425   2.211   9.358   2.584 -0.0420  0.2567  0.5717
  530MOL0     C71426   2.164   9.285   2.454  0.0314 -0.2835  0.0433
  530MOL0     C71427   2.096   9.389   2.358  0.6170 -0.5430 -0.0922
  530MOL0     C71428   2.040   9.322   2.230  0.8825 -0.4460 -0.6365
  530MOL0     C71429   1.981   9.428   2.142 -0.4920 -0.3771 -0.8752
  530MOL0     C71430   1.913   9.383   2.007 -0.2081 -0.4937  0.3280
  530MOL0     C71431   1.796   9.285   2.032  0.0272  1.1617  0.2755
  530MOL0     N71432   1.692   9.356   2.106  0.1659 -0.1634  0.1660
  530MOL0     C71433   1.575   9.406   2.058  0.0611  0.4770 -0.1912
  530MOL0     C71434   1.498   9.435   2.166  0.4178  0.0640 -0.6274
  530MOL0     C71435   1.354   9.480   2.165  0.4047 -0.5878 -0.1135
  530MOL0     C71436   1.271   9.456   2.291  0.6266 -0.6550 -0.0740
  530MOL0     C71437   1.305   9.548   2.412  0.3138 -0.1287  0.1104
  530MOL0     C71438   1.199   9.652   2.442  0.0949 -1.0252 -0.0175
  530MOL0     O71439   1.086   9.581   2.499  0.0524  0.5607  0.2642
  530MOL0     C71440   0.966   9.651   2.532  0.0188 -0.3132  0.4166
  530MOL0     C71441   0.864   9.577   2.589  0.3485  0.1463 -0.3939
  530MOL0     C71442   0.751   9.640   2.642  0.6918  0.6369  0.3059
  530MOL0     C71443   0.659   9.537   2.699 -0.9505 -0.2969  0.1501
  530MOL0     C71444   0.735   9.781   2.642  0.9122  0.5018 -0.0108
  530MOL0     C71445   0.612   9.853   2.695 -0.7185  0.1417  0.0470
  530MOL0     O71446   0.531   9.800   2.785 -0.8550  0.2187 -0.3216
  530MOL0     C71447   0.410   9.856   2.815  0.5027 -0.2064  1.2838
  530MOL0     C71448   0.302   9.839   2.722 -0.4463  0.2566  0.4633
  530MOL0     C71449   0.182   9.913   2.737  0.6192  0.1713 -0.3956
  530MOL0     C71450   0.160   9.997   2.849  0.4158  0.2392 -0.3832
  530MOL0     O71451   0.041  10.074   2.875 -0.1521  0.0894 -0.3094
  530MOL0     C71452  -0.076  10.025   2.820 -0.8203 -0.4487  0.5498
  530MOL0     C71453  -0.195  10.052   2.910 -0.5849 -0.0698 -0.4281
  530MOL0     C71454  -0.184  10.003   3.054  0.7081 -0.0347  0.2587
  530MOL0     C71455  -0.326  10.012   3.113  0.5333 -0.5525 -0.1549
  530MOL0     C71456  -0.337  10.011   3.269 -0.1621  0.2258  0.0775
  530MOL0     C71457  -0.292   9.879   3.328 -0.1745  0.9061 -0.1563
  530MOL0     C71458  -0.284   9.878   3.482 -0.7324 -0.1200 -0.5845
  530MOL0     C71459  -0.403   9.924   3.573  0.1416 -0.0180 -0.0192
  530MOL0    Cl71460  -0.555   9.839   3.542 -0.1512  0.3014 -0.2333
  530MOL0     C71461   0.262  10.006   2.942 -0.0429 -0.5993  0.1699
  530MOL0     C71462   0.382   9.941   2.928 -0.8128  0.0024 -0.6150
  530MOL0     O71463   0.596   9.958   2.643  0.4382 -0.0262  0.3164
  530MOL0     C71464   0.830   9.852   2.574  0.1711 -0.1353 -0.1970
  530MOL0     C71465   0.941   9.785   2.523 -0.3705 -0.9892  0.0672
  530MOL0     N71466   1.563   9.405   2.279 -0.4560  1.1942 -0.3622
  530MOL0     N71467   1.673   9.346   2.240 -0.3252 -0.1864  1.1056
  530MOL0     C71468   2.534   9.247   2.734 -0.0296  0.4897  0.4333
  530MOL0     C71469   2.664   9.214   2.776  0.0431  0.6063 -0.0321
  530MOL0     C71470   3.035   9.284   3.070 -0.2066 -0.2184 -0.5445
  530MOL0     C71471   3.121   9.387   3.103  0.5808  0.4662 -1.0595
  530MOL0     C71472   3.249   9.368   3.135 -0.0235 -0.5470  0.2387
  530MOL0     C71473   3.313   9.242   3.139  0.5755  0.1330 -0.5788
  530MOL0     O71474   3.443   9.217   3.162 -0.2149 -0.6083  1.1280
  530MOL0     C71475   3.513   9.291   3.260  0.6187  0.1558 -0.4689
  530MOL0     C71476   3.665   9.287   3.245 -0.1974 -0.1922 -0.2410
  530MOL0     C71477   3.699   9.148   3.311 -0.1978  0.1947 -0.3007
  530MOL0     C71478   3.848   9.122   3.321  0.1127 -0.4593 -1.0691
  530MOL0     C71479   3.914   9.037   3.226  0.1357 -0.0001  0.4022
  530MOL0     C71480   3.965   8.954   3.147 -0.2214 -0.6312  0.0139
  530MOL0     C71481   3.229   9.138   3.112  0.1139  0.3111  0.8615
  530MOL0     C71482   3.095   9.156   3.076 -0.5053 -0.5705  0.1157
  530MOL0     H71483   2.646   9.274   3.109 -0.1186  1.0504 -0.2411
  530MOL0     H71484   2.412   9.341   3.041 -0.2826 -1.7159  0.2611
  530MOL0     H71485   2.296   9.172   2.649 -3.1895 -1.4455 -1.1060
  530MOL0     H71486   2.153   9.210   2.722  0.1324 -2.2275 -2.1050
  530MOL0     H71487   2.134   9.427   2.621 -1.3736 -0.7891 -0.1529
  530MOL0     H71488   2.295   9.424   2.562  0.4239 -0.1780  1.0263
  530MOL0     H71489   2.251   9.255   2.395  0.0186 -1.2387  0.4806
  530MOL0     H71490   2.096   9.201   2.472 -1.9860  1.1059 -0.6923
  530MOL0     H71491   2.006   9.422   2.412 -0.1534 -2.3587 -0.1794
  530MOL0     H71492   2.161   9.474   2.339  0.9314 -0.8165 -0.2501
  530MOL0     H71493   2.129   9.273   2.191  1.0145 -1.0765  0.4130
  530MOL0     H71494   1.960   9.258   2.267  0.4087  0.5720  0.1414
  530MOL0     H71495   1.905   9.486   2.194  0.6337  0.1376  0.2601
  530MOL0     H71496   2.057   9.502   2.115 -0.4805  1.2383  2.9380
  530MOL0     H71497   1.875   9.472   1.957 -0.1361  0.7616  2.3584
  530MOL0     H71498   1.998   9.348   1.949 -0.3140  0.0555 -0.1629
  530MOL0     H71499   1.831   9.201   2.093 -1.5033  1.7079  2.0138
  530MOL0     H71500   1.755   9.248   1.938  0.9583 -0.8525  0.5978
  530MOL0     H71501   1.536   9.412   1.957 -0.5327  4.7904  0.1081
  530MOL0     H71502   1.349   9.587   2.147 -2.9591 -0.6873 -0.3185
  530MOL0     H71503   1.301   9.434   2.081  2.3236 -1.3048 -0.9928
  530MOL0     H71504   1.267   9.348   2.310  1.1373 -0.7434 -0.4456
  530MOL0     H71505   1.172   9.476   2.249 -0.3273 -1.9272  1.4701
  530MOL0     H71506   1.403   9.597   2.406 -0.3286  1.1292 -0.6895
  530MOL0     H71507   1.321   9.479   2.495  1.7570 -3.4329 -2.6497
  530MOL0     H71508   1.165   9.706   2.354  3.8368  2.3414  0.3301
  530MOL0     H71509   1.250   9.715   2.515 -1.0863 -4.2557  4.0278
  530MOL0     H71510   0.878   9.473   2.616  1.1603  1.2678  4.3414
  530MOL0     H71511   0.565   9.586   2.726 -0.4270  0.5234  0.5430
  530MOL0     H71512   0.641   9.457   2.627  2.0503 -0.3039 -0.7275
  530MOL0     H71513   0.690   9.487   2.792 -0.4908 -0.0679  0.1225
  530MOL0     H71514   0.328   9.770   2.643 -1.6986 -0.9678  1.0670
  530MOL0     H71515   0.105   9.905   2.661 -0.7930 -0.4494  1.0306
  530MOL0     H71516  -0.098  10.082   2.729 -0.9107 -0.5051  0.5365
  530MOL0     H71517  -0.082   9.920   2.790 -1.9216 -0.4954  0.8715
  530MOL0     H71518  -0.206  10.161   2.914  1.9076  0.3788 -3.0451
  530MOL0     H71519  -0.282   9.998   2.873  0.1032 -0.2246 -1.8889
  530MOL0     H71520  -0.115  10.065   3.111  0.2124 -0.0285  0.8581
  530MOL0     H71521  -0.157   9.897   3.057 -1.4336 -0.5916  2.0057
  530MOL0     H71522  -0.371  10.106   3.081  0.7337 -1.1764 -2.4460
  530MOL0     H71523  -0.384   9.932   3.065 -1.1660  0.8553 -0.5693
  530MOL0     H71524  -0.439  10.036   3.298 -0.1661  2.1140 -1.3820
  530MOL0     H71525  -0.267  10.083   3.311  0.4317 -0.4253  0.2230
  530MOL0     H71526  -0.370   9.806   3.308  2.2447 -1.9939  0.3641
  530MOL0     H71527  -0.195   9.851   3.286  0.1553 -1.8305  2.1201
  530MOL0     H71528  -0.200   9.940   3.513  0.4062 -1.1157 -1.5537
  530MOL0     H71529  -0.262   9.775   3.511 -0.4689  0.3455  0.9060
  530MOL0     H71530  -0.419  10.032   3.567 -0.5238 -0.1332 -0.5054
  530MOL0     H71531  -0.391   9.906   3.680 -0.6679 -0.5565 -0.0029
  530MOL0     H71532   0.244  10.067   3.030  1.4616 -0.9019  0.7277
  530MOL0     H71533   0.467   9.952   2.994  1.8711  2.7807 -4.1585
  530MOL0     H71534   0.813   9.958   2.553 -1.2456 -0.9677 -4.1782
  530MOL0     H71535   1.014   9.848   2.474 -2.2185  1.8360  0.6848
  530MOL0     H71536   2.523   9.239   2.627  2.4695  2.5377 -0.0621
  530MOL0     H71537   2.739   9.170   2.711 -1.7716  1.5119 -2.9318
  530MOL0     H71538   3.084   9.489   3.098  1.9373  1.1436  1.1969
  530MOL0     H71539   3.312   9.456   3.143 -0.8756  0.4312 -2.5430
  530MOL0     H71540   3.470   9.389   3.280  0.9850  0.2379 -0.0772
  530MOL0     H71541   3.485   9.243   3.354 -1.1098  1.5219 -0.2470
  530MOL0     H71542   3.697   9.374   3.304 -0.8223 -2.3703  3.6464
  530MOL0     H71543   3.702   9.290   3.143 -1.7792 -3.9047 -1.1044
  530MOL0     H71544   3.650   9.074   3.247  0.8115  1.2165 -2.3518
  530MOL0     H71545   3.655   9.143   3.411  1.8551 -1.7301  0.5789
  530MOL0     H71546   3.853   9.081   3.423 -0.4476  0.4117 -0.6813
  530MOL0     H71547   3.901   9.217   3.321  0.5780 -0.7093 -0.3971
  530MOL0     H71548   3.994   8.887   3.069 -0.9703  0.5802 -1.3682
  530MOL0     H71549   3.258   9.033   3.113 -1.2321 -0.0952  0.3902
  530MOL0     H71550   3.042   9.064   3.052  0.8655 -0.9217 -1.8157
  531MOL0     O71551   2.823  10.645   4.397  0.1942 -0.3713  0.2519
  531MOL0     C71552   2.904  10.649   4.487  0.2080  0.1644 -1.0967
  531MOL0     O71553   2.891  10.582   4.600  0.2647 -0.3454 -0.0534
  531MOL0     C71554   2.769  10.518   4.627  0.0899  0.8962 -0.0018
  531MOL0     C71555   2.729  10.393   4.584  0.8854 -0.3280 -0.3641
  531MOL0     C71556   2.599  10.343   4.613 -0.1152 -0.0566 -1.5867
  531MOL0     C71557   2.509  10.430   4.688 -0.7984 -0.3338  1.1913
  531MOL0     O71558   2.384  10.384   4.706  0.1358 -0.3422  0.8254
  531MOL0     C71559   2.300  10.446   4.806 -0.1838  0.1148  0.2496
  531MOL0     C71560   2.200  10.343   4.850 -0.2721  0.1636  0.0447
  531MOL0     C71561   2.119  10.407   4.967 -0.3891 -1.0868  0.4132
  531MOL0     C71562   2.065  10.294   5.050  0.3336  0.0172 -0.5444
  531MOL0     C71563   1.954  10.366   5.137  0.0240 -0.4248  0.8526
  531MOL0     C71564   1.883  10.290   5.243 -0.1995  0.4926 -0.2349
  531MOL0     C71565   1.778  10.385   5.302 -0.9583 -0.3961  0.7414
  531MOL0     C71566   1.698  10.311   5.415  0.3664 -0.2754  0.1428
  531MOL0     N71567   1.597  10.400   5.476 -0.0461  0.0586  0.1903
  531MOL0     C71568   1.462  10.387   5.467  0.4179 -0.5495 -0.4921
  531MOL0     C71569   1.409  10.483   5.548  0.1775 -0.4382  0.5127
  531MOL0     C71570   1.264  10.507   5.564  0.5134  0.1737 -0.6132
  531MOL0     C71571   1.234  10.597   5.685  0.0369  0.0789  0.3218
  531MOL0     C71572   1.085  10.650   5.687  0.4022  1.0283  0.2171
  531MOL0     C71573   1.059  10.765   5.789  0.6074  0.6636  0.3773
  531MOL0     O71574   0.931  10.820   5.768  0.3743  0.4643  0.3368
  531MOL0     C71575   0.813  10.772   5.817 -0.9663  0.2362 -0.9422
  531MOL0     C71576   0.699  10.851   5.798 -0.4435 -0.3696  0.1161
  531MOL0     C71577   0.573  10.811   5.839  0.0251 -0.1055 -0.6422
  531MOL0     C71578   0.459  10.910   5.809  0.0671  0.5976 -0.2563
  531MOL0     C71579   0.552  10.682   5.887  0.6259 -0.0048  0.3858
  531MOL0     C71580   0.417  10.618   5.909 -0.3068  0.0352 -0.5548
  531MOL0     O71581   0.317  10.700   5.952  0.9519 -0.3229  0.6970
  531MOL0     C71582   0.225  10.649   6.034 -0.6044 -0.4583 -0.2498
  531MOL0     C71583   0.260  10.565   6.148 -0.1037 -0.1561  0.4969
  531MOL0     C71584   0.161  10.524   6.232 -0.1617 -0.1867 -0.0365
  531MOL0     C71585   0.033  10.573   6.218  0.0388 -0.3459 -0.3671
  531MOL0     O71586  -0.056  10.544   6.316 -0.0715  0.6338 -0.0759
  531MOL0     C71587  -0.152  10.643   6.355 -0.8322 -0.2148  0.2020
  531MOL0     C71588  -0.241  10.603   6.474 -0.5112  0.0119 -0.3028
  531MOL0     C71589  -0.341  10.492   6.443  0.3746  0.4075  0.0681
  531MOL0     C71590  -0.447  10.497   6.554  0.7358  0.3809 -0.0672
  531MOL0     C71591  -0.566  10.418   6.522  0.0076  0.3285  0.3985
  531MOL0     C71592  -0.665  10.416   6.630  0.9398 -0.1825 -0.4576
  531MOL0     C71593  -0.759  10.295   6.612  0.1065  0.0947  0.1025
  531MOL0     C71594  -0.864  10.266   6.712  0.9672 -0.3353 -0.2940
  531MOL0    Cl71595  -0.821  10.225   6.892 -0.6199 -0.2487 -0.5962
  531MOL0     C71596  -0.004  10.655   6.108 -1.0395 -0.4728 -0.2495
  531MOL0     C71597   0.098  10.691   6.018 -0.0740 -0.2748 -0.5884
  531MOL0     O71598   0.413  10.499   5.893  0.5118  0.0914 -0.2765
  531MOL0     C71599   0.666  10.606   5.921 -0.6365 -0.7670  0.0598
  531MOL0     C71600   0.799  10.656   5.893 -0.0524  0.6328 -0.5064
  531MOL0     N71601   1.513  10.553   5.604 -0.2467  0.6848 -0.6420
  531MOL0     N71602   1.623  10.505   5.560  0.1631 -0.4253 -0.1616
  531MOL0     C71603   2.559  10.551   4.745  1.0338  0.4308  0.5710
  531MOL0     C71604   2.682  10.592   4.700 -0.6687 -0.1251 -0.4320
  531MOL0     C71605   3.035  10.716   4.463  0.6870 -0.0376 -0.1983
  531MOL0     C71606   3.061  10.794   4.352  0.2539  0.8360 -0.0818
  531MOL0     C71607   3.191  10.858   4.331 -0.2835 -0.3181  0.5949
  531MOL0     C71608   3.298  10.835   4.412 -0.8229  0.2502  0.4997
  531MOL0     O71609   3.429  10.866   4.400  0.1216 -0.4589  0.3915
  531MOL0     C71610   3.466  10.944   4.295  0.2400 -0.6842  0.5205
  531MOL0     C71611   3.616  10.981   4.307 -0.3784 -0.5390 -0.4348
  531MOL0     C71612   3.700  10.857   4.343 -0.5460 -0.6653  0.5094
  531MOL0     C71613   3.840  10.903   4.349 -0.1534  0.0888 -0.8200
  531MOL0     C71614   3.927  10.784   4.367  0.8815  0.0102  0.5855
  531MOL0     C71615   4.024  10.716   4.376 -0.1692  0.5410 -0.1590
  531MOL0     C71616   3.271  10.754   4.517  0.0268  1.4842 -0.1596
  531MOL0     C71617   3.142  10.696   4.549 -0.9798 -0.1662 -0.0271
  531MOL0     H71618   2.799  10.340   4.520  0.0927 -0.5968 -1.0417
  531MOL0     H71619   2.556  10.248   4.582  1.7274 -2.2370  1.8230
  531MOL0     H71620   2.359  10.476   4.893  0.7625 -2.2091  0.4733
  531MOL0     H71621   2.249  10.525   4.750  0.1588 -0.8607 -1.4965
  531MOL0     H71622   2.136  10.318   4.766 -0.6223  0.1459  0.3130
  531MOL0     H71623   2.238  10.249   4.892 -2.9350 -0.3481  1.5380
  531MOL0     H71624   2.177  10.472   5.033 -0.1978 -0.7065 -0.1145
  531MOL0     H71625   2.046  10.472   4.917  0.5042  0.3365  0.9157
  531MOL0     H71626   2.020  10.225   4.979  0.9078 -0.4933 -0.4190
  531MOL0     H71627   2.144  10.238   5.101  0.0083 -1.4420 -1.5980
  531MOL0     H71628   2.005  10.449   5.187  3.5893 -2.0964  0.2409
  531MOL0     H71629   1.888  10.409   5.061  0.7373 -1.3124 -0.2883
  531MOL0     H71630   1.849  10.198   5.195  1.4734 -1.2043  1.6082
  531MOL0     H71631   1.953  10.259   5.322 -0.7942  1.6849  0.7940
  531MOL0     H71632   1.821  10.477   5.341  0.4836 -0.7374  0.0047
  531MOL0     H71633   1.715  10.414   5.218  1.8263 -0.4614 -1.5083
  531MOL0     H71634   1.778  10.283   5.483  1.4443 -1.4395 -1.5096
  531MOL0     H71635   1.656  10.216   5.378 -1.1744  1.0991 -1.9017
  531MOL0     H71636   1.394  10.317   5.420 -3.1316  2.5970 -0.5523
  531MOL0     H71637   1.230  10.556   5.472  2.1097 -1.9466 -2.4281
  531MOL0     H71638   1.207  10.417   5.587  0.9471  0.1675  0.4800
  531MOL0     H71639   1.302  10.682   5.683  1.6805 -1.1938  0.5554
  531MOL0     H71640   1.256  10.535   5.772 -3.3987 -0.8491  0.6906
  531MOL0     H71641   1.018  10.569   5.718 -0.6593  1.8092  0.0233
  531MOL0     H71642   1.041  10.672   5.590  1.1064 -1.6419 -0.7896
  531MOL0     H71643   1.125  10.850   5.768 -0.9382  1.9733  0.6147
  531MOL0     H71644   1.069  10.732   5.893  2.5433 -3.7936 -0.9730
  531MOL0     H71645   0.702  10.937   5.732 -2.1669  0.5907  1.2181
  531MOL0     H71646   0.397  10.935   5.895 -1.6801 -0.1238 -1.2526
  531MOL0     H71647   0.480  11.006   5.760 -3.5218  1.6170 -0.0576
  531MOL0     H71648   0.392  10.854   5.744 -0.6948  2.0319 -0.7657
  531MOL0     H71649   0.366  10.555   6.171 -0.1763  1.8269  1.9708
  531MOL0     H71650   0.181  10.447   6.305  0.4109  1.6227  1.7931
  531MOL0     H71651  -0.101  10.733   6.392 -1.6701 -0.3644  1.8463
  531MOL0     H71652  -0.218  10.682   6.277 -2.1623 -2.5340  0.0928
  531MOL0     H71653  -0.187  10.591   6.569 -0.0861 -3.3868 -0.8368
  531MOL0     H71654  -0.304  10.689   6.498  1.3816  0.6004  3.2084
  531MOL0     H71655  -0.297  10.393   6.430  3.1069  1.6114 -0.6081
  531MOL0     H71656  -0.380  10.522   6.346  2.1352  3.9199  0.2952
  531MOL0     H71657  -0.402  10.468   6.650  1.8115  0.7088 -0.4548
  531MOL0     H71658  -0.489  10.598   6.558  2.5496  1.1420  0.9234
  531MOL0     H71659  -0.546  10.315   6.491 -1.8006 -0.3614  1.3338
  531MOL0     H71660  -0.610  10.467   6.435  0.4661  0.7579  0.4033
  531MOL0     H71661  -0.626  10.412   6.732 -2.1581 -1.5787  0.8028
  531MOL0     H71662  -0.721  10.509   6.614  0.9607 -0.4051 -1.9730
  531MOL0     H71663  -0.700  10.203   6.612  0.2895  0.1969  1.2267
  531MOL0     H71664  -0.809  10.309   6.515  1.1965  2.0048 -0.2474
  531MOL0     H71665  -0.929  10.186   6.675  0.1658  0.2862 -0.2663
  531MOL0     H71666  -0.935  10.348   6.721  0.5579 -0.8760  2.1881
  531MOL0     H71667  -0.106  10.678   6.080 -1.3204 -1.5680 -0.1920
  531MOL0     H71668   0.065  10.754   5.936  1.0422 -1.2333 -1.8030
  531MOL0     H71669   0.634  10.503   5.939 -3.2175 -0.5668 -2.4673
  531MOL0     H71670   0.881  10.584   5.888  1.7844  2.6506 -0.8336
  531MOL0     H71671   2.502  10.625   4.801  0.4177  1.2123 -1.0144
  531MOL0     H71672   2.708  10.686   4.748 -2.7157  0.8258 -1.0828
  531MOL0     H71673   2.977  10.800   4.284 -0.9845 -2.8642  0.9117
  531MOL0     H71674   3.205  10.899   4.231  1.7575 -3.7593 -0.7232
  531MOL0     H71675   3.454  10.896   4.198  1.2459  1.3517 -0.6829
  531MOL0     H71676   3.410  11.038   4.300  1.0409 -0.2404  4.6998
  531MOL0     H71677   3.621  11.059   4.384 -0.3132  2.0419 -2.9030
  531MOL0     H71678   3.636  11.021   4.208  2.4034  0.2110  0.3566
  531MOL0     H71679   3.675  10.789   4.261 -1.4231 -0.7204  0.8067
  531MOL0     H71680   3.682  10.810   4.440 -0.0977 -0.9291  0.4633
  531MOL0     H71681   3.855  10.969   4.435  1.9905  0.0800 -1.1283
  531MOL0     H71682   3.871  10.958   4.260  1.5825 -0.2903 -0.4833
  531MOL0     H71683   4.115  10.659   4.376  1.1128  2.4119  1.6362
  531MOL0     H71684   3.348  10.729   4.590 -1.0077 -1.2036  0.1227
  531MOL0     H71685   3.120  10.642   4.641 -1.9660  0.7950  0.3397
  532MOL0     O71686   4.827   0.049   2.690 -0.2992 -0.0324 -0.9597
  532MOL0     C71687   4.740   0.031   2.773  0.2749 -0.7572 -0.8481
  532MOL0     O71688   4.754  -0.036   2.890 -0.0300 -0.4715  0.3930
  532MOL0     C71689   4.881  -0.089   2.909  0.1480 -0.0385 -0.0945
  532MOL0     C71690   4.884  -0.236   2.907 -0.5226  0.2895 -0.7969
  532MOL0     C71691   5.006  -0.310   2.935 -0.1556  0.4612 -0.7878
  532MOL0     C71692   5.128  -0.238   2.956  1.0171  0.2227 -0.6534
  532MOL0     O71693   5.241  -0.311   2.972 -0.6636  0.3469  0.4262
  532MOL0     C71694   5.357  -0.236   3.017  0.1856  0.2344  0.3671
  532MOL0     C71695   5.469  -0.329   3.057  0.5838  0.0649  0.3022
  532MOL0     C71696   5.551  -0.379   2.941 -0.6091  0.0077  0.4365
  532MOL0     C71697   5.660  -0.479   2.979 -0.2228  0.3271 -0.3676
  532MOL0     C71698   5.737  -0.539   2.863 -0.4503 -1.1317 -0.5880
  532MOL0     C71699   5.882  -0.575   2.904  0.4666  0.0269  0.5373
  532MOL0     C71700   5.888  -0.718   2.963  0.5190  1.0403 -0.4614
  532MOL0     C71701   5.967  -0.721   3.093 -0.0368  0.2073  0.0462
  532MOL0     N71702   6.086  -0.645   3.112 -0.7780 -0.1302 -0.3217
  532MOL0     C71703   6.144  -0.641   3.235 -1.3489  0.0317 -0.0487
  532MOL0     C71704   6.272  -0.592   3.213  0.3961  0.4487 -0.1113
  532MOL0     C71705   6.368  -0.545   3.310 -1.3181  0.5941  0.1941
  532MOL0     C71706   6.322  -0.415   3.371 -0.3094  1.0449 -0.3122
  532MOL0     C71707   6.275  -0.309   3.277 -0.0713 -0.2281 -0.4180
  532MOL0     C71708   6.275  -0.176   3.349  0.2025  0.4951 -0.7332
  532MOL0     O71709   6.233  -0.079   3.253 -0.5770 -0.5745  0.1210
  532MOL0     C71710   6.100  -0.069   3.226  0.3743 -0.9633 -0.8607
  532MOL0     C71711   6.008  -0.027   3.326  0.2315 -0.3243 -0.5977
  532MOL0     C71712   5.872  -0.011   3.302  1.0270 -0.3630  0.3534
  532MOL0     C71713   5.776   0.026   3.422 -1.1000 -0.3580 -0.2626
  532MOL0     C71714   5.833  -0.021   3.163 -0.3805 -0.4405 -1.1469
  532MOL0     C71715   5.694   0.016   3.121  0.4597  1.3945 -0.4484
  532MOL0     O71716   5.641   0.126   3.177 -0.3201 -0.1335  0.2681
  532MOL0     C71717   5.518   0.167   3.123 -0.4615 -0.0478 -1.1654
  532MOL0     C71718   5.518   0.240   3.005  0.9422  0.3897  0.1807
  532MOL0     C71719   5.397   0.290   2.955  0.0399 -0.4032 -1.3644
  532MOL0     C71720   5.280   0.271   3.032 -0.4576  0.4091  0.4070
  532MOL0     O71721   5.150   0.288   2.979  0.0421 -0.1185  0.0361
  532MOL0     C71722   5.133   0.392   2.878 -0.3093  0.0958 -0.3434
  532MOL0     C71723   4.980   0.408   2.871  0.3318 -0.2078  0.5559
  532MOL0     C71724   4.935   0.501   2.764  0.5339 -0.8786 -0.2151
  532MOL0     C71725   4.790   0.484   2.718  0.1857 -0.1806  0.8521
  532MOL0     C71726   4.693   0.497   2.832 -0.0296 -0.3634 -0.2373
  532MOL0     C71727   4.565   0.558   2.791  0.3918 -1.1800 -0.0903
  532MOL0     C71728   4.496   0.494   2.674  0.1554 -0.2190  0.1665
  532MOL0     C71729   4.376   0.579   2.634 -0.0445  0.6577  0.6587
  532MOL0    Cl71730   4.305   0.478   2.505  0.1199  0.2641 -0.3329
  532MOL0     C71731   5.279   0.206   3.159 -0.0679 -0.1277 -0.0368
  532MOL0     C71732   5.402   0.155   3.206  0.2312 -0.3510  0.0665
  532MOL0     O71733   5.642  -0.056   3.035  0.0114  0.0068  0.0975
  532MOL0     C71734   5.931  -0.052   3.065 -0.1624  0.2563  0.0292
  532MOL0     C71735   6.058  -0.085   3.099  0.5354 -0.2038  0.2623
  532MOL0     N71736   6.285  -0.571   3.073  0.2618 -0.0894 -0.8972
  532MOL0     N71737   6.171  -0.587   3.020  0.5384  0.3504  0.3511
  532MOL0     C71738   5.122  -0.093   2.959  0.0719 -0.4040  0.5669
  532MOL0     C71739   4.996  -0.029   2.933 -0.1189  0.2830  0.3826
  532MOL0     C71740   4.600   0.078   2.744 -0.7408 -0.6397 -0.2491
  532MOL0     C71741   4.578   0.124   2.615 -0.1542  0.0159 -0.4475
  532MOL0     C71742   4.451   0.156   2.574  0.0992  0.3877  0.5485
  532MOL0     C71743   4.345   0.145   2.666  0.3983 -0.3761  0.1392
  532MOL0     O71744   4.224   0.187   2.618  0.1901  0.7363  0.6253
  532MOL0     C71745   4.163   0.063   2.567  0.4515  0.3657  0.0098
  532MOL0     C71746   4.042   0.086   2.478 -0.3432  0.1627  0.3382
  532MOL0     C71747   4.053   0.221   2.400 -0.3260  0.3754  0.2686
  532MOL0     C71748   4.170   0.236   2.302  0.2310  0.1450  0.6874
  532MOL0     C71749   4.165   0.124   2.204  0.0790 -0.2206  0.2264
  532MOL0     C71750   4.146   0.037   2.118  0.0994  0.8339 -0.7388
  532MOL0     C71751   4.367   0.093   2.792  0.4389 -0.5498 -1.5694
  532MOL0     C71752   4.500   0.064   2.836  0.7442  0.1238 -0.6571
  532MOL0     H71753   4.807  -0.308   2.882 -0.2138 -0.3570  0.0526
  532MOL0     H71754   5.013  -0.418   2.936  1.9028  0.5349  1.4050
  532MOL0     H71755   5.388  -0.184   2.926  1.4679 -3.4328 -1.5058
  532MOL0     H71756   5.324  -0.180   3.105 -0.7839  3.0813 -1.6697
  532MOL0     H71757   5.534  -0.272   3.124  0.4392  1.6500 -0.8640
  532MOL0     H71758   5.427  -0.420   3.102 -2.3066 -0.9655 -3.8928
  532MOL0     H71759   5.491  -0.438   2.872  2.4915 -1.2938 -1.3685
  532MOL0     H71760   5.605  -0.301   2.885  1.8549 -1.1939  1.0006
  532MOL0     H71761   5.729  -0.418   3.038 -1.0932  0.3523  0.6608
  532MOL0     H71762   5.620  -0.558   3.044  3.7390 -1.1291  0.5903
  532MOL0     H71763   5.675  -0.616   2.814  0.0436 -1.3334 -0.8994
  532MOL0     H71764   5.742  -0.459   2.789  1.9969 -2.0594 -1.5178
  532MOL0     H71765   5.949  -0.581   2.817  1.3365  0.2559  1.1731
  532MOL0     H71766   5.916  -0.501   2.978 -0.9003 -2.2922  3.6914
  532MOL0     H71767   5.786  -0.750   2.985  0.0378  2.8241  0.0624
  532MOL0     H71768   5.939  -0.780   2.889  2.8210  3.7947 -1.4111
  532MOL0     H71769   5.978  -0.815   3.148 -2.6313  1.5050  3.1488
  532MOL0     H71770   5.899  -0.661   3.155 -0.7015  2.9158 -3.0052
  532MOL0     H71771   6.102  -0.680   3.327  0.2980  0.1346  0.8007
  532MOL0     H71772   6.378  -0.612   3.397  1.4489  0.8382  0.1601
  532MOL0     H71773   6.466  -0.532   3.262 -0.6984  1.6368  1.6534
  532MOL0     H71774   6.413  -0.388   3.426  0.6091 -0.2824 -1.1212
  532MOL0     H71775   6.236  -0.426   3.438 -0.7556  0.6963 -0.9330
  532MOL0     H71776   6.179  -0.338   3.233 -0.3437 -1.5410  0.9541
  532MOL0     H71777   6.349  -0.296   3.198 -0.4465  0.9431 -0.5989
  532MOL0     H71778   6.374  -0.152   3.389 -0.4864  0.2037  1.2824
  532MOL0     H71779   6.207  -0.175   3.435 -0.5120 -1.3739 -1.2200
  532MOL0     H71780   6.033  -0.005   3.430  1.0834 -0.4482 -0.7726
  532MOL0     H71781   5.809  -0.025   3.512 -2.7954  2.3000  2.0414
  532MOL0     H71782   5.782   0.134   3.442 -0.9689 -0.7077  1.7910
  532MOL0     H71783   5.672  -0.001   3.401 -1.9006  1.8373  0.5114
  532MOL0     H71784   5.605   0.257   2.942 -0.2779 -1.2316 -2.0951
  532MOL0     H71785   5.383   0.332   2.855 -0.2185  1.1730 -0.7014
  532MOL0     H71786   5.163   0.495   2.897 -0.4457  0.0989 -0.1513
  532MOL0     H71787   5.188   0.372   2.785  1.1871 -2.1329  0.9036
  532MOL0     H71788   4.933   0.312   2.847  0.4065 -0.0232 -0.3804
  532MOL0     H71789   4.940   0.446   2.965 -2.8352  1.3880 -1.2583
  532MOL0     H71790   5.010   0.503   2.685  0.6669  2.4620 -0.1529
  532MOL0     H71791   4.939   0.599   2.813  2.5589 -0.2192 -1.5579
  532MOL0     H71792   4.775   0.560   2.641 -2.1236 -0.4748  0.9653
  532MOL0     H71793   4.782   0.386   2.668  1.5471  0.4958 -0.8273
  532MOL0     H71794   4.743   0.561   2.906 -0.4368 -1.9313  1.4616
  532MOL0     H71795   4.685   0.403   2.886 -0.3946  0.0293  0.4053
  532MOL0     H71796   4.498   0.553   2.877 -0.9754 -3.6536 -1.2127
  532MOL0     H71797   4.592   0.661   2.764  1.1507 -1.2589  0.3228
  532MOL0     H71798   4.447   0.404   2.710 -1.5058 -0.1339 -1.6857
  532MOL0     H71799   4.566   0.488   2.590 -0.3105  1.9527 -0.4513
  532MOL0     H71800   4.403   0.678   2.596 -0.9659  1.8441  2.9140
  532MOL0     H71801   4.301   0.599   2.711 -2.2710  0.6769 -1.3943
  532MOL0     H71802   5.195   0.182   3.223  2.0960  0.3717  3.2512
  532MOL0     H71803   5.395   0.104   3.302  0.7444  0.9016  0.7897
  532MOL0     H71804   5.895  -0.029   2.966  0.1379 -0.3579 -0.2312
  532MOL0     H71805   6.128  -0.086   3.017  1.0117 -1.8193  0.6562
  532MOL0     H71806   5.210  -0.037   2.991 -0.6331  1.3218 -0.3800
  532MOL0     H71807   4.995   0.078   2.947  3.9311  0.3974  1.0709
  532MOL0     H71808   4.663   0.134   2.548 -1.9984  1.0184 -2.7968
  532MOL0     H71809   4.423   0.188   2.475 -0.0085  4.0268  1.6249
  532MOL0     H71810   4.231  -0.001   2.510  2.4664  2.4296 -0.0267
  532MOL0     H71811   4.146  -0.005   2.651 -0.2274  1.2571  0.6045
  532MOL0     H71812   3.956   0.090   2.545  0.9143 -0.7856  2.1155
  532MOL0     H71813   4.036  -0.005   2.418  2.0591 -1.5089  2.3994
  532MOL0     H71814   4.050   0.307   2.467  1.1517  1.0193 -0.4452
  532MOL0     H71815   3.966   0.228   2.334  0.4529 -1.1191 -0.9807
  532MOL0     H71816   4.266   0.234   2.355  0.3966  0.4330  0.3996
  532MOL0     H71817   4.160   0.327   2.242 -0.2083 -2.6746 -3.9549
  532MOL0     H71818   4.121  -0.046   2.055 -0.0829 -0.1788  0.6183
  532MOL0     H71819   4.287   0.074   2.863  1.2635 -1.5800 -0.8752
  532MOL0     H71820   4.512   0.017   2.933 -1.5552 -2.1867 -1.3741
  533MOL0     O71821   8.262   2.140   4.064  0.5151 -0.4878  0.8506
  533MOL0     C71822   8.344   2.075   4.011 -0.0899  0.4573  0.0430
  533MOL0     O71823   8.317   1.984   3.910 -0.1261  0.7362  0.1751
  533MOL0     C71824   8.184   1.935   3.876 -0.7231 -0.2399 -0.5273
  533MOL0     C71825   8.170   1.804   3.842 -0.1684  0.0111  0.6553
  533MOL0     C71826   8.048   1.747   3.827 -1.3435  0.4396  0.1762
  533MOL0     C71827   7.928   1.824   3.846 -1.3501  0.2760  0.0800
  533MOL0     O71828   7.799   1.773   3.850  0.3197  0.5596  0.0268
  533MOL0     C71829   7.765   1.659   3.769  0.7779  0.6428  0.5060
  533MOL0     C71830   7.618   1.630   3.791  0.5860  0.1153  0.2907
  533MOL0     C71831   7.539   1.722   3.705 -0.9728  0.0529 -0.2083
  533MOL0     C71832   7.394   1.678   3.691  0.8418 -0.4934 -0.4934
  533MOL0     C71833   7.305   1.776   3.610  0.6394 -0.3867 -0.3669
  533MOL0     C71834   7.159   1.728   3.631 -0.8700 -1.0630 -0.1031
  533MOL0     C71835   7.068   1.807   3.542  1.0427 -0.8777 -0.0604
  533MOL0     C71836   6.919   1.778   3.562 -0.8349 -0.0130 -0.3054
  533MOL0     N71837   6.827   1.855   3.480  0.5114 -0.2713  0.3655
  533MOL0     C71838   6.724   1.792   3.411  0.6531 -0.3649  0.4699
  533MOL0     C71839   6.686   1.884   3.314 -0.3115  0.3558 -0.8547
  533MOL0     C71840   6.568   1.860   3.227 -0.9434 -0.1796 -0.7463
  533MOL0     C71841   6.434   1.921   3.275 -0.0370  0.6721 -0.3486
  533MOL0     C71842   6.441   2.072   3.298  0.1154  0.6138  0.6824
  533MOL0     C71843   6.306   2.132   3.324 -0.0893  0.1880 -0.5036
  533MOL0     O71844   6.238   2.064   3.429 -0.3687 -0.2230 -0.1654
  533MOL0     C71845   6.113   2.092   3.456 -0.8144  0.3605  0.2089
  533MOL0     C71846   6.064   2.040   3.579 -0.0279  0.3941 -0.4345
  533MOL0     C71847   5.932   2.050   3.617  0.2801 -0.1189 -0.2164
  533MOL0     C71848   5.892   1.985   3.760 -0.3465 -0.3871  0.0385
  533MOL0     C71849   5.840   2.105   3.524 -0.3924  0.7863 -0.2772
  533MOL0     C71850   5.701   2.118   3.562 -0.3766 -0.7463 -0.1726
  533MOL0     O71851   5.622   2.099   3.460 -0.4852 -0.3887  0.3461
  533MOL0     C71852   5.492   2.101   3.469  0.6437 -0.0488  0.8245
  533MOL0     C71853   5.425   2.182   3.378  0.3053 -0.6060  0.0021
  533MOL0     C71854   5.278   2.174   3.371 -0.6134 -0.9384 -0.6872
  533MOL0     C71855   5.213   2.069   3.444  0.3205  0.3721  0.7890
  533MOL0     O71856   5.083   2.059   3.442  0.5219  0.7510 -0.1943
  533MOL0     C71857   5.015   2.026   3.566  0.3131 -0.5858  0.2299
  533MOL0     C71858   4.860   2.030   3.543  0.4370 -0.9900  0.0013
  533MOL0     C71859   4.794   1.907   3.490  0.4084  0.3477 -0.4244
  533MOL0     C71860   4.638   1.934   3.487 -0.6394 -0.5130 -0.7766
  533MOL0     C71861   4.571   1.798   3.433 -0.4386  0.3311 -0.3420
  533MOL0     C71862   4.432   1.773   3.480  0.2443 -0.7794 -0.9562
  533MOL0     C71863   4.343   1.891   3.510  0.6816 -0.5350  0.9127
  533MOL0     C71864   4.205   1.869   3.582 -0.9305 -0.8265 -0.4581
  533MOL0    Cl71865   4.089   2.004   3.578 -0.5114 -0.3573  0.5383
  533MOL0     C71866   5.287   1.975   3.514  0.5767  0.2757 -0.9512
  533MOL0     C71867   5.423   1.994   3.531 -0.2302 -0.0352  0.6616
  533MOL0     O71868   5.661   2.142   3.677 -1.0729 -0.4526  0.5084
  533MOL0     C71869   5.892   2.171   3.414  0.2685  1.0288 -0.4136
  533MOL0     C71870   6.027   2.160   3.372  0.4834  0.0872 -0.3730
  533MOL0     N71871   6.759   2.003   3.339  0.0193 -0.0734  0.4428
  533MOL0     N71872   6.847   1.985   3.424  0.0131  1.0352  0.1412
  533MOL0     C71873   7.950   1.963   3.864 -0.0434 -0.1389 -0.2406
  533MOL0     C71874   8.076   2.025   3.882  0.8405  0.4287 -0.0921
  533MOL0     C71875   8.482   2.066   4.073 -0.0481  0.1957  0.3632
  533MOL0     C71876   8.567   1.955   4.059  0.0505  0.4004  0.0253
  533MOL0     C71877   8.686   1.943   4.130 -0.2600  0.1179 -0.7716
  533MOL0     C71878   8.728   2.047   4.210  0.1573  0.6265 -0.4930
  533MOL0     O71879   8.854   2.048   4.269 -0.4806  0.5133  0.3359
  533MOL0     C71880   8.955   1.949   4.242  0.9160 -0.1338 -0.2873
  533MOL0     C71881   9.094   2.001   4.292  0.8149 -0.8323 -0.9058
  533MOL0     C71882   9.156   2.088   4.193 -0.3961 -0.4127  0.9360
  533MOL0     C71883   9.286   2.146   4.257  0.3904 -0.4654 -0.0126
  533MOL0     C71884   9.387   2.043   4.281 -0.4925 -0.0614  1.2077
  533MOL0     C71885   9.477   1.966   4.290 -0.9680 -0.6284  0.4021
  533MOL0     C71886   8.642   2.160   4.225  0.0573 -0.3608  0.3381
  533MOL0     C71887   8.517   2.163   4.163 -0.1304 -0.3129 -0.3803
  533MOL0     H71888   8.251   1.731   3.847  1.3636  1.5180 -0.7214
  533MOL0     H71889   8.048   1.639   3.816 -1.9242  0.0704  3.0263
  533MOL0     H71890   7.781   1.686   3.665 -0.2088 -2.4248 -0.5730
  533MOL0     H71891   7.828   1.572   3.789 -1.1184 -0.5059  1.8786
  533MOL0     H71892   7.594   1.524   3.776 -1.0191  0.5324 -0.2509
  533MOL0     H71893   7.585   1.662   3.891  0.2702  1.2423 -0.1599
  533MOL0     H71894   7.532   1.819   3.755 -0.5912 -0.8995  1.7916
  533MOL0     H71895   7.585   1.732   3.606 -0.3826  0.7652  0.1307
  533MOL0     H71896   7.388   1.581   3.641  0.9841 -0.4351 -0.6265
  533MOL0     H71897   7.348   1.671   3.790 -1.7202 -2.5588 -1.7114
  533MOL0     H71898   7.312   1.883   3.633  0.6573 -0.2003 -1.2100
  533MOL0     H71899   7.333   1.762   3.505  1.5184 -1.1678 -0.0394
  533MOL0     H71900   7.142   1.624   3.603 -1.9206 -0.5668 -1.3834
  533MOL0     H71901   7.120   1.741   3.733 -0.5590 -0.5065 -0.0509
  533MOL0     H71902   7.086   1.915   3.546  0.6187 -0.8410  1.1763
  533MOL0     H71903   7.097   1.783   3.439  2.4593 -1.8712  0.5557
  533MOL0     H71904   6.898   1.797   3.668 -1.3747 -0.3278 -0.3538
  533MOL0     H71905   6.904   1.671   3.544  1.1481 -0.3364 -0.2519
  533MOL0     H71906   6.663   1.707   3.442 -2.7800  0.9798 -1.9047
  533MOL0     H71907   6.585   1.890   3.124  0.0212 -1.6700 -1.0564
  533MOL0     H71908   6.562   1.751   3.222  1.2316 -0.2881 -2.3037
  533MOL0     H71909   6.413   1.877   3.373  1.5840  0.9990  0.1677
  533MOL0     H71910   6.356   1.895   3.203  2.1584 -1.8413 -1.9680
  533MOL0     H71911   6.487   2.124   3.213  1.9035 -0.7911  0.7216
  533MOL0     H71912   6.518   2.091   3.374  1.1884 -1.0234  0.0729
  533MOL0     H71913   6.254   2.127   3.228 -1.1636 -0.3905  0.0895
  533MOL0     H71914   6.329   2.237   3.346  1.4136 -0.3248  0.5696
  533MOL0     H71915   6.136   1.981   3.635  0.1701 -0.6793 -1.7617
  533MOL0     H71916   5.979   1.960   3.822 -0.9660  1.6083  1.8154
  533MOL0     H71917   5.826   2.049   3.819 -1.0053 -2.2402  1.4032
  533MOL0     H71918   5.824   1.901   3.743 -0.7571 -0.1857  0.6588
  533MOL0     H71919   5.483   2.258   3.326 -1.3984  0.0016 -1.0797
  533MOL0     H71920   5.238   2.250   3.305  3.2334  1.3321 -0.7558
  533MOL0     H71921   5.039   1.922   3.588  1.5306 -1.5179 -4.4904
  533MOL0     H71922   5.047   2.098   3.642  3.9711  0.6510 -2.2119
  533MOL0     H71923   4.815   2.037   3.643  0.7194 -1.1520  0.1425
  533MOL0     H71924   4.839   2.123   3.489  3.3227  1.8346  3.2025
  533MOL0     H71925   4.828   1.822   3.549  1.5527  1.1483  0.0961
  533MOL0     H71926   4.813   1.891   3.383 -0.7572  0.8471 -0.7215
  533MOL0     H71927   4.606   1.963   3.588 -1.7737  1.0992 -1.5523
  533MOL0     H71928   4.620   2.019   3.421 -1.3992  0.3210  0.4613
  533MOL0     H71929   4.613   1.700   3.458 -0.0346  0.8794  1.2253
  533MOL0     H71930   4.573   1.807   3.324  0.0120  0.4672 -0.3231
  533MOL0     H71931   4.389   1.699   3.412  1.1500 -2.6187  0.3906
  533MOL0     H71932   4.446   1.714   3.570 -0.2287 -1.3839 -1.2717
  533MOL0     H71933   4.324   1.936   3.412  0.1889  2.3725  2.2272
  533MOL0     H71934   4.395   1.964   3.574 -0.9704  0.9176  0.6874
  533MOL0     H71935   4.219   1.834   3.685 -2.6939 -0.2546  0.0163
  533MOL0     H71936   4.168   1.794   3.512 -0.4754  0.4722 -2.1440
  533MOL0     H71937   5.231   1.894   3.560 -0.9449  1.3388 -0.8504
  533MOL0     H71938   5.471   1.911   3.582 -1.4949 -0.0893  1.8389
  533MOL0     H71939   5.818   2.222   3.353 -2.1341 -0.8857  0.7019
  533MOL0     H71940   6.059   2.209   3.281 -0.0374  1.5371  0.1939
  533MOL0     H71941   7.862   2.026   3.852  0.9020  1.0811 -1.1433
  533MOL0     H71942   8.078   2.130   3.909  1.0874  0.5983 -0.7382
  533MOL0     H71943   8.532   1.879   3.990 -2.7866  1.3601  0.2714
  533MOL0     H71944   8.748   1.860   4.099 -0.3574  0.2513 -1.3325
  533MOL0     H71945   8.921   1.853   4.281 -1.5058  0.5883 -0.4538
  533MOL0     H71946   8.963   1.932   4.134  2.0515 -1.1819 -0.0709
  533MOL0     H71947   9.158   1.917   4.321  0.5339 -0.7105  0.1112
  533MOL0     H71948   9.078   2.062   4.381  4.2960 -2.2877  0.8925
  533MOL0     H71949   9.089   2.174   4.183  0.9959  0.5348 -0.6718
  533MOL0     H71950   9.177   2.049   4.093  3.0278  1.1267  0.9194
  533MOL0     H71951   9.263   2.194   4.352  1.0926 -0.2698  0.0673
  533MOL0     H71952   9.326   2.225   4.191 -2.1650  2.8200  2.0410
  533MOL0     H71953   9.554   1.892   4.288  1.0100  1.3364  0.1187
  533MOL0     H71954   8.674   2.253   4.271 -1.5933  0.7233 -0.5956
  533MOL0     H71955   8.447   2.243   4.180  0.3888  0.7199 -2.7007
  534MOL0     O71956   7.973   3.877   6.995  0.0384 -0.1555 -0.5344
  534MOL0     C71957   8.070   3.851   6.925 -0.1475  0.3016 -0.7802
  534MOL0     O71958   8.070   3.773   6.809 -0.8634 -0.7771  0.1042
  534MOL0     C71959   7.946   3.760   6.759 -0.2203  0.0696 -0.1030
  534MOL0     C71960   7.871   3.856   6.684  0.9059 -0.3036 -0.0163
  534MOL0     C71961   7.760   3.822   6.617  0.2038  0.3374  0.8069
  534MOL0     C71962   7.696   3.696   6.636 -1.0859 -0.5290 -0.2155
  534MOL0     O71963   7.568   3.680   6.587 -0.8743  0.2334 -0.4654
  534MOL0     C71964   7.461   3.652   6.678  0.6947  0.4729 -0.1332
  534MOL0     C71965   7.342   3.734   6.608 -0.1480  0.3529  1.2433
  534MOL0     C71966   7.208   3.696   6.664  1.0483  0.4014  0.1747
  534MOL0     C71967   7.090   3.762   6.568  0.1455 -0.8903  0.0962
  534MOL0     C71968   6.966   3.675   6.597  0.0596  0.2489  0.3276
  534MOL0     C71969   6.838   3.706   6.509 -0.8307  0.4890 -0.3436
  534MOL0     C71970   6.799   3.850   6.537 -0.2464 -0.3770 -0.0317
  534MOL0     C71971   6.701   3.900   6.436 -0.7557 -0.0849 -1.2965
  534MOL0     N71972   6.582   3.828   6.438  0.1142  0.8702  0.1643
  534MOL0     C71973   6.504   3.806   6.554  0.3077  0.1340  0.0576
  534MOL0     C71974   6.415   3.711   6.517 -0.2519  0.9765  1.2392
  534MOL0     C71975   6.326   3.637   6.618 -0.5928  0.1841 -0.5341
  534MOL0     C71976   6.179   3.669   6.604 -0.1591  0.0072  1.0146
  534MOL0     C71977   6.107   3.606   6.488  1.2696  0.5691 -0.5506
  534MOL0     C71978   5.958   3.660   6.478 -0.0572  0.6050  0.3702
  534MOL0     O71979   5.878   3.576   6.385  0.0035  0.0561  0.0282
  534MOL0     C71980   5.744   3.600   6.366 -0.0095 -0.0049  0.3999
  534MOL0     C71981   5.689   3.552   6.252  0.0285  0.4172  0.2884
  534MOL0     C71982   5.558   3.556   6.206 -0.4788 -0.4182 -0.1830
  534MOL0     C71983   5.520   3.493   6.077  0.2754 -0.4256 -1.1255
  534MOL0     C71984   5.470   3.632   6.287  0.6515  0.0923 -0.3602
  534MOL0     C71985   5.324   3.662   6.250  0.5627  0.8146 -0.3405
  534MOL0     O71986   5.251   3.739   6.333 -0.8392  0.5578 -0.8167
  534MOL0     C71987   5.120   3.765   6.310  0.8956 -0.2200  0.4512
  534MOL0     C71988   5.019   3.724   6.401  0.3373  0.4024  0.8063
  534MOL0     C71989   4.883   3.746   6.367 -0.4772 -1.0181  0.0446
  534MOL0     C71990   4.849   3.819   6.252  0.2496  0.5337 -0.5376
  534MOL0     O71991   4.724   3.860   6.217  0.1579  0.8016 -0.0729
  534MOL0     C71992   4.609   3.774   6.252 -0.8638  0.1305 -0.0580
  534MOL0     C71993   4.483   3.843   6.227  0.8151 -0.1040  0.3332
  534MOL0     C71994   4.368   3.751   6.281  0.8875 -0.3922  0.2489
  534MOL0     C71995   4.229   3.790   6.231 -0.2644 -0.3449 -0.6881
  534MOL0     C71996   4.118   3.708   6.306 -0.4814 -0.8965 -0.5201
  534MOL0     C71997   4.120   3.560   6.268  0.8591  0.1004  0.9379
  534MOL0     C71998   4.135   3.510   6.116 -0.0185  0.1500  0.1108
  534MOL0     C71999   4.155   3.356   6.118  0.0311 -0.5935  0.0848
  534MOL0    Cl72000   3.996   3.282   6.139 -0.2193 -0.5893  0.1885
  534MOL0     C72001   4.946   3.865   6.163 -0.2190  0.9134 -0.9528
  534MOL0     C72002   5.084   3.833   6.198 -0.5429 -0.5003  0.2332
  534MOL0     O72003   5.269   3.609   6.159  0.1651 -0.3064 -0.0434
  534MOL0     C72004   5.524   3.687   6.411 -0.2329 -0.3842 -0.2860
  534MOL0     C72005   5.661   3.669   6.458 -0.0327 -0.0060 -0.8751
  534MOL0     N72006   6.439   3.675   6.383 -0.5172 -0.3078 -0.3663
  534MOL0     N72007   6.541   3.738   6.340 -0.9206 -0.4203 -0.4711
  534MOL0     C72008   7.761   3.607   6.728 -0.4854  0.3823 -0.0729
  534MOL0     C72009   7.877   3.631   6.787  0.1581  0.3150 -0.5943
  534MOL0     C72010   8.196   3.882   6.999  0.1135  0.0896  0.8608
  534MOL0     C72011   8.201   3.982   7.097 -0.8980  0.4492 -0.5536
  534MOL0     C72012   8.311   3.986   7.182 -0.5878 -0.3209  0.0440
  534MOL0     C72013   8.425   3.902   7.163  0.1686 -0.2720 -0.3755
  534MOL0     O72014   8.531   3.905   7.245 -0.9400 -0.2538 -0.2852
  534MOL0     C72015   8.545   4.024   7.325 -0.1629  0.0727  0.2158
  534MOL0     C72016   8.679   4.040   7.388  0.0965  0.1273  0.0946
  534MOL0     C72017   8.708   3.919   7.480 -0.0995  0.0152 -0.3090
  534MOL0     C72018   8.844   3.936   7.546 -0.1213  0.2002 -0.1769
  534MOL0     C72019   8.839   4.029   7.653  0.9531 -0.5790 -0.5286
  534MOL0     C72020   8.821   4.108   7.740 -0.0529  0.3426 -0.5650
  534MOL0     C72021   8.420   3.803   7.068  1.1453  0.0081 -0.2481
  534MOL0     C72022   8.310   3.805   6.977  0.5746 -0.7266 -1.0288
  534MOL0     H72023   7.917   3.953   6.668  3.1602 -1.0745  1.3063
  534MOL0     H72024   7.709   3.906   6.571 -1.2362  0.0051  1.7378
  534MOL0     H72025   7.453   3.543   6.688 -1.0293  0.6502  0.9020
  534MOL0     H72026   7.479   3.694   6.777  1.5160 -1.7815  0.7508
  534MOL0     H72027   7.353   3.843   6.614 -4.3556  1.0911 -0.3780
  534MOL0     H72028   7.347   3.708   6.502  2.6352 -1.6965  1.7806
  534MOL0     H72029   7.200   3.587   6.663 -2.8727  0.5279 -2.1158
  534MOL0     H72030   7.192   3.730   6.767 -1.2351  1.3972 -0.4442
  534MOL0     H72031   7.072   3.866   6.597 -0.9328 -0.5895 -1.4866
  534MOL0     H72032   7.116   3.754   6.462 -2.0808  0.4812 -0.6285
  534MOL0     H72033   6.989   3.571   6.576 -2.3198 -0.8668  2.6535
  534MOL0     H72034   6.942   3.679   6.704 -0.9722 -1.3212  0.1847
  534MOL0     H72035   6.858   3.691   6.403  1.6497  1.3163 -0.0444
  534MOL0     H72036   6.757   3.638   6.536  0.6999 -1.7271 -1.0525
  534MOL0     H72037   6.765   3.855   6.641 -1.1136 -2.2692 -0.1749
  534MOL0     H72038   6.888   3.913   6.535 -1.5816  1.5977 -0.0901
  534MOL0     H72039   6.742   3.899   6.334  0.0008  0.0925 -1.0027
  534MOL0     H72040   6.683   4.003   6.466 -1.0961 -0.8809  1.4834
  534MOL0     H72041   6.521   3.842   6.654 -1.3330 -0.8714  0.7338
  534MOL0     H72042   6.342   3.529   6.611  0.5973  0.3449 -0.5642
  534MOL0     H72043   6.362   3.662   6.718 -0.1111 -0.2012 -0.6069
  534MOL0     H72044   6.167   3.777   6.609  1.9374  0.4307 -1.2950
  534MOL0     H72045   6.124   3.625   6.688 -0.2940 -0.4110  0.7132
  534MOL0     H72046   6.086   3.499   6.499  3.4981 -0.4022 -4.0503
  534MOL0     H72047   6.148   3.628   6.389 -3.4777  0.2899 -2.8391
  534MOL0     H72048   5.952   3.763   6.441 -2.7346  0.1809 -0.6109
  534MOL0     H72049   5.914   3.670   6.577  0.6590 -1.0287  0.8989
  534MOL0     H72050   5.751   3.488   6.190 -0.6190  0.7708 -0.7468
  534MOL0     H72051   5.456   3.562   6.021 -0.6567  0.0771  0.5005
  534MOL0     H72052   5.614   3.469   6.025  0.6045 -2.6673  0.3370
  534MOL0     H72053   5.461   3.403   6.096  1.2110 -0.1557  4.7028
  534MOL0     H72054   5.062   3.673   6.488  1.4477 -0.0558  0.0179
  534MOL0     H72055   4.803   3.697   6.421  1.6672 -5.1381 -0.0928
  534MOL0     H72056   4.621   3.678   6.202 -0.9423 -1.6866  3.1371
  534MOL0     H72057   4.609   3.746   6.358  0.0246 -0.2563 -0.1465
  534MOL0     H72058   4.476   3.943   6.270 -1.3606 -1.0310  2.3036
  534MOL0     H72059   4.465   3.859   6.120 -1.4794  3.6130  1.0950
  534MOL0     H72060   4.361   3.732   6.388  3.1802 -2.8257  0.0725
  534MOL0     H72061   4.392   3.653   6.239 -1.8901 -1.0396 -0.0198
  534MOL0     H72062   4.224   3.897   6.250 -0.4853 -0.8848  3.2246
  534MOL0     H72063   4.230   3.785   6.122  1.8761 -1.1269 -0.6935
  534MOL0     H72064   4.032   3.773   6.290  0.3913  1.2616  2.6822
  534MOL0     H72065   4.145   3.715   6.412  1.1926 -0.1421 -0.9632
  534MOL0     H72066   4.211   3.527   6.320  0.4733 -0.5497  1.2212
  534MOL0     H72067   4.031   3.518   6.316  0.0772 -1.0548 -1.3511
  534MOL0     H72068   4.221   3.569   6.085 -0.4716 -0.1876 -1.8969
  534MOL0     H72069   4.047   3.524   6.052 -0.3825 -0.8704  0.3648
  534MOL0     H72070   4.213   3.318   6.203 -1.7783 -2.3494  0.6168
  534MOL0     H72071   4.203   3.318   6.028 -0.5821 -2.0447  0.3349
  534MOL0     H72072   4.917   3.924   6.077  0.1792  0.9022 -1.0954
  534MOL0     H72073   5.156   3.869   6.125 -1.5629 -0.1814 -0.6462
  534MOL0     H72074   5.463   3.749   6.476 -1.0168 -1.6872  0.2663
  534MOL0     H72075   5.700   3.705   6.552 -0.4778  1.1365 -1.1146
  534MOL0     H72076   7.702   3.517   6.735 -1.3483  0.9351 -0.0714
  534MOL0     H72077   7.921   3.550   6.844  1.2969  2.2088  1.3908
  534MOL0     H72078   8.109   4.033   7.124 -1.2004 -1.0840  1.6143
  534MOL0     H72079   8.301   4.050   7.269 -0.9543 -1.1214  0.6006
  534MOL0     H72080   8.525   4.104   7.253  0.8628  1.1440  1.1108
  534MOL0     H72081   8.465   4.025   7.400 -1.8959 -1.4231 -1.4683
  534MOL0     H72082   8.697   4.135   7.440  3.2767 -0.7328  0.8129
  534MOL0     H72083   8.751   4.045   7.307  0.2771  4.0035  0.2945
  534MOL0     H72084   8.711   3.827   7.420 -2.2119  2.0621 -3.9286
  534MOL0     H72085   8.633   3.906   7.558 -1.0606  2.8051 -0.6468
  534MOL0     H72086   8.904   3.991   7.474 -0.7669  0.9914 -0.1266
  534MOL0     H72087   8.886   3.838   7.573 -1.1281 -0.2910 -0.3448
  534MOL0     H72088   8.798   4.163   7.829 -0.5892 -0.9730  0.1447
  534MOL0     H72089   8.500   3.734   7.042  2.3714 -0.0050  3.0886
  534MOL0     H72090   8.313   3.735   6.894 -0.2019 -0.6993 -1.0937
  535MOL0     O72091   0.789   8.958   7.313  0.0829 -0.2783  0.7200
  535MOL0     C72092   0.834   8.871   7.378 -0.2725 -0.7476 -0.6141
  535MOL0     O72093   0.769   8.760   7.430  0.0336 -0.1980  0.0353
  535MOL0     C72094   0.638   8.749   7.401  1.1590 -0.3453 -0.5898
  535MOL0     C72095   0.610   8.717   7.266  0.3306 -0.2828  0.6068
  535MOL0     C72096   0.481   8.682   7.233  0.2706 -0.5664  1.0904
  535MOL0     C72097   0.377   8.688   7.333  0.4923  0.2556 -0.1948
  535MOL0     O72098   0.243   8.670   7.302  0.8468  0.4121  0.0795
  535MOL0     C72099   0.190   8.777   7.218 -0.5721  0.3227 -0.1619
  535MOL0     C72100   0.044   8.793   7.275  0.1536 -0.4876  0.6869
  535MOL0     C72101  -0.012   8.908   7.192  0.3700  0.1213  0.4985
  535MOL0     C72102  -0.160   8.932   7.231  0.5655 -0.3732 -0.7283
  535MOL0     C72103  -0.262   8.849   7.146  0.4663 -0.9456  0.3464
  535MOL0     C72104  -0.397   8.898   7.168 -0.8829  0.5248  0.4150
  535MOL0     C72105  -0.494   8.854   7.055 -0.8480  0.2219 -0.2642
  535MOL0     C72106  -0.632   8.864   7.114 -0.0406 -0.5333 -0.0317
  535MOL0     N72107  -0.743   8.869   7.017 -0.4157  0.3335 -0.6703
  535MOL0     C72108  -0.789   8.980   6.946 -0.0510 -0.4403  0.1212
  535MOL0     C72109  -0.885   8.925   6.874  0.6745 -0.1356 -0.2353
  535MOL0     C72110  -0.987   8.993   6.785  0.1059  0.3526  0.2084
  535MOL0     C72111  -0.920   9.080   6.676  0.8230  0.4109  0.9063
  535MOL0     C72112  -1.026   9.125   6.569 -0.4000  0.2893  0.0546
  535MOL0     C72113  -0.946   9.206   6.469 -0.3083  0.4793  0.1146
  535MOL0     O72114  -0.935   9.336   6.524  0.0163 -0.5963  0.4568
  535MOL0     C72115  -0.819   9.398   6.491  0.2859  0.0381  0.2428
  535MOL0     C72116  -0.760   9.388   6.368 -0.8824 -0.0332  0.0124
  535MOL0     C72117  -0.630   9.435   6.353 -0.1117  0.5351 -0.4855
  535MOL0     C72118  -0.562   9.401   6.221 -0.6100 -0.5024 -0.5375
  535MOL0     C72119  -0.560   9.502   6.457  0.2280  0.3687  0.1724
  535MOL0     C72120  -0.417   9.553   6.453  0.5017 -0.0432  0.0984
  535MOL0     O72121  -0.361   9.556   6.573 -0.4695  0.5299  0.0202
  535MOL0     C72122  -0.234   9.618   6.588  0.6257  0.4430  0.1080
  535MOL0     C72123  -0.142   9.558   6.674 -0.3311 -0.2067  0.3274
  535MOL0     C72124  -0.019   9.620   6.710  0.6832  0.1299  0.6574
  535MOL0     C72125   0.023   9.734   6.644  1.0803  0.0883 -0.3666
  535MOL0     O72126   0.143   9.790   6.686  0.3519  0.1508 -0.2141
  535MOL0     C72127   0.174   9.923   6.651  0.2994 -0.5929  0.0336
  535MOL0     C72128   0.291   9.969   6.733 -0.4618 -0.1720 -0.8237
  535MOL0     C72129   0.416   9.924   6.667 -0.1605  0.3638 -0.3266
  535MOL0     C72130   0.531  10.012   6.710 -0.7327  0.6697  0.3731
  535MOL0     C72131   0.648   9.966   6.613 -0.3441  0.3388 -0.0596
  535MOL0     C72132   0.791   9.963   6.670  0.0118  0.3293 -0.0005
  535MOL0     C72133   0.894  10.013   6.566 -0.7201  0.4600 -0.6032
  535MOL0     C72134   1.035  10.020   6.618 -0.5480 -0.3403  0.2627
  535MOL0    Cl72135   1.040  10.129   6.764 -0.2511 -0.1079  0.7594
  535MOL0     C72136  -0.071   9.798   6.551 -0.3258 -0.7507 -0.8813
  535MOL0     C72137  -0.200   9.746   6.527 -0.4914 -0.0805  0.4265
  535MOL0     O72138  -0.367   9.599   6.351  0.3373 -0.1760  0.0308
  535MOL0     C72139  -0.630   9.517   6.578  0.7019  0.8235  0.5996
  535MOL0     C72140  -0.761   9.463   6.594 -0.0814 -0.0155 -0.0697
  535MOL0     N72141  -0.908   8.791   6.904 -0.7514 -1.0848  0.4059
  535MOL0     N72142  -0.816   8.754   6.985  0.6052 -0.1633 -0.4654
  535MOL0     C72143   0.406   8.723   7.459  0.2687  1.1276  0.8982
  535MOL0     C72144   0.534   8.734   7.498 -0.4789  0.4823  1.0952
  535MOL0     C72145   0.980   8.872   7.397 -0.5619  0.2245  0.0558
  535MOL0     C72146   1.064   8.932   7.300  0.6380  0.3191 -1.2708
  535MOL0     C72147   1.206   8.927   7.319 -0.0875 -0.1822 -0.0043
  535MOL0     C72148   1.266   8.873   7.430  0.0479  0.0858 -0.3346
  535MOL0     O72149   1.404   8.871   7.455  0.1774 -1.0406 -0.3385
  535MOL0     C72150   1.477   8.992   7.427 -0.3431 -0.5228 -0.2935
  535MOL0     C72151   1.608   8.955   7.357 -0.4878  0.5452 -0.5550
  535MOL0     C72152   1.716   8.893   7.454  0.0797  0.0885 -0.4416
  535MOL0     C72153   1.856   8.871   7.392  0.0259  0.2210  0.8657
  535MOL0     C72154   1.864   8.746   7.310  0.0107 -0.9198 -0.2167
  535MOL0     C72155   1.880   8.640   7.254 -0.5703  1.0106  0.4811
  535MOL0     C72156   1.187   8.824   7.523 -0.0853 -0.2282  0.0127
  535MOL0     C72157   1.044   8.816   7.508 -0.0385 -0.1713 -1.1666
  535MOL0     H72158   0.693   8.713   7.197 -2.1759 -1.6917 -2.5741
  535MOL0     H72159   0.456   8.647   7.134  4.9158 -3.8162  0.7869
  535MOL0     H72160   0.240   8.872   7.241 -2.2375  0.6967  2.2653
  535MOL0     H72161   0.191   8.744   7.114 -0.0183 -1.4143  0.3607
  535MOL0     H72162  -0.014   8.701   7.259 -0.4065 -0.1095  0.5476
  535MOL0     H72163   0.046   8.815   7.382 -0.2139  1.8118  0.2725
  535MOL0     H72164   0.051   8.997   7.204 -2.5205  2.2029  1.4086
  535MOL0     H72165  -0.012   8.875   7.087 -0.0336 -2.2845  1.1932
  535MOL0     H72166  -0.176   8.905   7.336  0.4089 -0.6413 -0.8204
  535MOL0     H72167  -0.184   9.038   7.224  2.4680  0.1379 -0.0381
  535MOL0     H72168  -0.227   8.870   7.044  1.1315  0.5652  0.8553
  535MOL0     H72169  -0.255   8.740   7.151  2.0515 -0.9676 -1.1893
  535MOL0     H72170  -0.427   8.853   7.263  0.2778 -1.4218 -0.0649
  535MOL0     H72171  -0.399   9.005   7.189  0.2209  0.0377  3.5008
  535MOL0     H72172  -0.483   8.905   6.958  2.3960 -0.8105 -0.5754
  535MOL0     H72173  -0.472   8.749   7.033  1.1797  0.0085  2.2697
  535MOL0     H72174  -0.644   8.949   7.183 -4.1226 -1.3593  0.5627
  535MOL0     H72175  -0.642   8.776   7.177  1.9481 -0.8895 -0.1441
  535MOL0     H72176  -0.766   9.086   6.947 -1.7835 -0.0279  1.2664
  535MOL0     H72177  -1.045   8.913   6.739 -0.9699  2.4740 -2.4176
  535MOL0     H72178  -1.047   9.060   6.848  2.5002  0.6788  2.2789
  535MOL0     H72179  -0.849   9.018   6.622  0.1623  0.1582  0.3227
  535MOL0     H72180  -0.872   9.170   6.717 -0.0716  1.8642 -1.0651
  535MOL0     H72181  -1.105   9.185   6.615 -3.0594  0.3944 -4.1403
  535MOL0     H72182  -1.074   9.039   6.522 -0.3520  1.2497 -1.8950
  535MOL0     H72183  -1.003   9.209   6.376  1.2276 -2.0538 -0.9996
  535MOL0     H72184  -0.844   9.172   6.449  0.0588  0.1757  2.2305
  535MOL0     H72185  -0.812   9.329   6.293 -2.2191  1.3579 -0.2056
  535MOL0     H72186  -0.607   9.317   6.168 -0.3050 -0.9518 -0.0899
  535MOL0     H72187  -0.557   9.487   6.153  1.1026 -0.1816 -0.0745
  535MOL0     H72188  -0.456   9.387   6.247 -1.3441 -1.5809  2.2051
  535MOL0     H72189  -0.162   9.460   6.717  0.1718 -0.2641  0.4316
  535MOL0     H72190   0.037   9.561   6.782  2.2230 -0.2021 -0.7645
  535MOL0     H72191   0.188   9.931   6.543  1.3798  2.1354  0.2745
  535MOL0     H72192   0.098   9.993   6.688 -1.5160 -2.7920  0.6959
  535MOL0     H72193   0.297  10.078   6.730  2.3605 -0.2758 -1.4310
  535MOL0     H72194   0.283   9.923   6.832  1.7554  0.7685 -0.1440
  535MOL0     H72195   0.397   9.947   6.562 -0.3442  1.4260 -0.0738
  535MOL0     H72196   0.443   9.819   6.681 -1.5736  0.0950  0.5241
  535MOL0     H72197   0.507  10.117   6.694 -3.4600  0.0725 -0.0596
  535MOL0     H72198   0.556   9.988   6.814  0.4694  0.4861  0.0553
  535MOL0     H72199   0.639  10.034   6.528 -1.3323 -2.0533 -2.0325
  535MOL0     H72200   0.632   9.866   6.570 -0.4820  0.8093 -1.1597
  535MOL0     H72201   0.798  10.033   6.753  0.7018 -2.2020  2.2000
  535MOL0     H72202   0.821   9.865   6.707  2.5249  1.8853  2.4553
  535MOL0     H72203   0.851  10.105   6.526 -1.1219  0.6956  0.3379
  535MOL0     H72204   0.908   9.926   6.501  2.5814 -0.8235  1.5582
  535MOL0     H72205   1.103  10.055   6.540 -0.1813 -0.7780  0.3803
  535MOL0     H72206   1.083   9.923   6.636  0.7357  0.7704  3.4987
  535MOL0     H72207  -0.052   9.900   6.520  0.1242 -0.6432 -0.2727
  535MOL0     H72208  -0.279   9.793   6.471  0.0886 -0.1837 -0.4995
  535MOL0     H72209  -0.585   9.571   6.661 -0.1607  1.1356  0.8806
  535MOL0     H72210  -0.817   9.464   6.687  1.8808 -2.4546  1.2663
  535MOL0     H72211   0.321   8.733   7.525  0.8592  0.4801  1.7716
  535MOL0     H72212   0.564   8.754   7.600 -1.3156 -2.6675  2.0800
  535MOL0     H72213   1.032   8.987   7.212 -0.2337  1.0559 -0.5034
  535MOL0     H72214   1.268   8.960   7.236 -2.1687  1.8972 -0.8301
  535MOL0     H72215   1.425   9.061   7.360 -2.2511  0.3470  1.9290
  535MOL0     H72216   1.489   9.048   7.520  1.1860 -2.5207  0.7889
  535MOL0     H72217   1.662   9.045   7.325  1.9355 -0.1467  1.2924
  535MOL0     H72218   1.596   8.894   7.267 -1.4244 -0.1051 -0.0118
  535MOL0     H72219   1.688   8.796   7.496  3.6042 -0.6697  0.4734
  535MOL0     H72220   1.731   8.960   7.540 -0.9349 -0.0487 -0.1403
  535MOL0     H72221   1.934   8.866   7.468  1.9030  3.6195 -0.6022
  535MOL0     H72222   1.877   8.951   7.320  1.7184 -0.4823  0.5442
  535MOL0     H72223   1.911   8.551   7.205 -3.6954  0.3439 -0.5361
  535MOL0     H72224   1.237   8.798   7.616  0.8681  2.5435  0.3525
  535MOL0     H72225   0.980   8.783   7.589 -2.1843  1.8097 -1.9460
  536MOL0     O72226   2.533   7.615  10.055  0.1827 -0.0581  0.1045
  536MOL0     C72227   2.563   7.501  10.079  0.4529 -0.5406  0.8823
  536MOL0     O72228   2.475   7.399  10.097  0.3923  0.7055  0.3349
  536MOL0     C72229   2.336   7.419  10.081 -0.4508  0.2587 -0.9377
  536MOL0     C72230   2.262   7.497  10.180  0.0734 -0.6795 -0.6847
  536MOL0     C72231   2.131   7.503  10.165  0.3972  0.7133  0.8538
  536MOL0     C72232   2.059   7.449  10.047  0.4011  0.1903 -0.1650
  536MOL0     O72233   1.920   7.470  10.035 -0.0280 -0.2374 -0.3575
  536MOL0     C72234   1.852   7.415   9.915 -0.5311 -0.2717 -0.3610
  536MOL0     C72235   1.717   7.473   9.933  0.1723  0.0307 -0.1639
  536MOL0     C72236   1.635   7.388  10.020  0.0432 -1.0956 -1.1466
  536MOL0     C72237   1.484   7.430  10.022 -0.1499  0.0393 -0.8227
  536MOL0     C72238   1.397   7.337  10.107  0.5469 -1.5037 -0.2648
  536MOL0     C72239   1.255   7.402  10.116 -0.0862 -0.8578  0.2958
  536MOL0     C72240   1.144   7.312  10.169  0.3048  0.1786 -0.5373
  536MOL0     C72241   1.166   7.270  10.318 -0.5801 -0.3464  0.7664
  536MOL0     N72242   1.057   7.182  10.358 -0.3631 -0.2247 -0.2725
  536MOL0     C72243   0.924   7.219  10.371  0.7064  0.1846 -0.0631
  536MOL0     C72244   0.855   7.112  10.414  0.3444  0.3431  0.0817
  536MOL0     C72245   0.716   7.120  10.455 -1.1735 -0.4141  0.1797
  536MOL0     C72246   0.611   7.050  10.372  0.4992  0.1483  0.5696
  536MOL0     C72247   0.472   7.097  10.433 -0.1730 -0.0378 -0.4462
  536MOL0     C72248   0.364   6.992  10.413  0.1719  0.3240  0.4949
  536MOL0     O72249   0.247   7.064  10.464  0.0748 -0.4466  0.5120
  536MOL0     C72250   0.127   7.001  10.465  1.3649 -0.0703  0.5196
  536MOL0     C72251   0.015   7.063  10.530  0.3377 -1.2305  0.0781
  536MOL0     C72252  -0.113   7.005  10.534 -0.3685 -0.5627  0.8432
  536MOL0     C72253  -0.216   7.093  10.601 -0.7960  0.0112 -0.0873
  536MOL0     C72254  -0.131   6.872  10.484  0.6322  0.2611  0.6583
  536MOL0     C72255  -0.261   6.793  10.504  0.4211  0.0394 -0.6020
  536MOL0     O72256  -0.379   6.858  10.549  0.3885 -0.5066  0.1373
  536MOL0     C72257  -0.502   6.791  10.546 -0.3023 -0.7057 -0.5615
  536MOL0     C72258  -0.550   6.708  10.647 -0.5925 -0.0153  0.0205
  536MOL0     C72259  -0.678   6.664  10.639 -0.2671  0.3195  0.1716
  536MOL0     C72260  -0.769   6.696  10.541 -0.0574 -0.0844 -0.0248
  536MOL0     O72261  -0.895   6.652  10.561  0.2894  0.0975  0.3034
  536MOL0     C72262  -0.993   6.739  10.506  0.0337  0.3835 -0.4629
  536MOL0     C72263  -1.126   6.686  10.550  0.8659 -0.5496  0.4362
  536MOL0     C72264  -1.241   6.774  10.502 -0.3536 -0.2207  0.2790
  536MOL0     C72265  -1.386   6.720  10.522 -0.4570  0.1689  0.1190
  536MOL0     C72266  -1.445   6.678  10.384  0.0292 -0.6049  0.3429
  536MOL0     C72267  -1.574   6.613  10.395 -0.8701  0.3544 -0.5310
  536MOL0     C72268  -1.687   6.702  10.443 -0.1578 -0.5480 -0.3668
  536MOL0     C72269  -1.816   6.623  10.456  0.4603  0.1917  0.1388
  536MOL0    Cl72270  -1.949   6.713  10.533 -0.0422 -0.0670  0.2943
  536MOL0     C72271  -0.716   6.789  10.443  0.5834  0.4109 -0.6198
  536MOL0     C72272  -0.586   6.837  10.448  0.1042  0.4790  0.6317
  536MOL0     O72273  -0.259   6.675  10.471 -0.3400 -0.7712  0.6136
  536MOL0     C72274  -0.025   6.814  10.417  0.2783  0.4584 -0.3804
  536MOL0     C72275   0.094   6.882  10.405 -0.1841 -0.6137  0.5774
  536MOL0     N72276   0.939   7.004  10.427  0.4783  0.2881  0.3931
  536MOL0     N72277   1.053   7.046  10.390  0.3907  0.1415  0.1723
  536MOL0     C72278   2.141   7.386   9.946  0.1911  0.1704 -0.6015
  536MOL0     C72279   2.278   7.372   9.969  0.2120 -0.5470  0.6674
  536MOL0     C72280   2.705   7.480  10.093  0.3501 -0.2974  0.2842
  536MOL0     C72281   2.799   7.581  10.119  0.0318 -0.6700  0.1664
  536MOL0     C72282   2.932   7.541  10.137  0.5571 -0.0270  0.6253
  536MOL0     C72283   2.972   7.417  10.134  0.3488  0.3594 -0.2182
  536MOL0     O72284   3.102   7.387  10.156 -0.6790  0.2250 -0.6433
  536MOL0     C72285   3.200   7.486  10.135 -0.1994  1.1158 -0.2347
  536MOL0     C72286   3.339   7.416  10.107  0.3440 -0.5500 -0.4871
  536MOL0     C72287   3.431   7.404  10.236 -0.2266  0.8496  1.0977
  536MOL0     C72288   3.571   7.347  10.194  1.0065  0.6911 -0.7230
  536MOL0     C72289   3.653   7.458  10.134  0.3907 -0.4556  0.2475
  536MOL0     C72290   3.716   7.550  10.090 -0.2476  0.2426  1.0135
  536MOL0     C72291   2.877   7.325  10.118 -1.1243  0.9862 -0.7804
  536MOL0     C72292   2.746   7.349  10.094  0.6151 -0.1782 -0.0062
  536MOL0     H72293   2.313   7.546  10.262 -1.2556  1.4287 -1.0467
  536MOL0     H72294   2.071   7.557  10.239  0.4772  0.7493  0.8922
  536MOL0     H72295   1.903   7.454   9.826  2.0315  1.8968  1.8524
  536MOL0     H72296   1.864   7.306   9.915 -0.2165 -0.2453  0.2538
  536MOL0     H72297   1.719   7.575   9.973  2.9903 -0.4818  1.2496
  536MOL0     H72298   1.666   7.466   9.836  3.8101  1.8066 -2.4376
  536MOL0     H72299   1.634   7.287   9.978 -0.5520 -0.4933 -2.6435
  536MOL0     H72300   1.671   7.385  10.123  0.7483  1.2378 -1.2485
  536MOL0     H72301   1.471   7.535  10.051  2.3350  0.2307 -0.1534
  536MOL0     H72302   1.442   7.428   9.921 -0.7927 -1.0487 -0.5487
  536MOL0     H72303   1.380   7.241  10.056 -2.9250  0.1325 -2.5634
  536MOL0     H72304   1.439   7.324  10.207  1.6412  0.7548 -0.3524
  536MOL0     H72305   1.266   7.498  10.169 -0.2771  0.1761 -1.4609
  536MOL0     H72306   1.221   7.421  10.014  1.9754 -0.1598 -0.3299
  536MOL0     H72307   1.048   7.365  10.164  0.4797  0.5250 -0.3118
  536MOL0     H72308   1.136   7.219  10.113 -3.4119 -2.8833  4.2715
  536MOL0     H72309   1.179   7.365  10.370  1.6447  0.1584 -0.5808
  536MOL0     H72310   1.258   7.210  10.324 -0.0864  0.3735  0.4947
  536MOL0     H72311   0.888   7.321  10.370  1.1836  0.3888  1.4219
  536MOL0     H72312   0.719   7.070  10.552 -0.4359  1.9423  1.4798
  536MOL0     H72313   0.693   7.225  10.476  1.6013  0.1422  0.8899
  536MOL0     H72314   0.633   6.944  10.385 -1.6413 -0.5369 -0.9210
  536MOL0     H72315   0.616   7.069  10.265 -0.0633 -2.3518  0.0449
  536MOL0     H72316   0.427   7.182  10.382 -1.4426  2.0331  3.6775
  536MOL0     H72317   0.482   7.121  10.539  2.2856  0.1685 -0.6686
  536MOL0     H72318   0.388   6.904  10.474 -2.1665 -1.0136 -0.3549
  536MOL0     H72319   0.360   6.959  10.309  4.5373 -1.2477  0.6239
  536MOL0     H72320   0.033   7.157  10.580 -2.8946 -0.4098 -0.0990
  536MOL0     H72321  -0.262   7.040  10.685  1.1200 -0.1299  0.9041
  536MOL0     H72322  -0.158   7.170  10.651  1.0005 -2.6734  2.3112
  536MOL0     H72323  -0.290   7.130  10.529 -1.5558 -1.2726 -0.0122
  536MOL0     H72324  -0.476   6.675  10.720  0.7561  0.8551 -0.8871
  536MOL0     H72325  -0.716   6.597  10.715 -1.8115  0.9337 -0.0391
  536MOL0     H72326  -0.985   6.839  10.550 -1.6643  0.6421 -0.6932
  536MOL0     H72327  -0.993   6.737  10.397  0.0345  1.1455 -0.4793
  536MOL0     H72328  -1.141   6.586  10.508 -0.1576  1.2702 -4.0540
  536MOL0     H72329  -1.126   6.691  10.660  2.1536  1.8745  0.3804
  536MOL0     H72330  -1.236   6.798  10.395  1.1437  0.6411  0.5202
  536MOL0     H72331  -1.229   6.872  10.548  1.3218 -0.3916  0.2839
  536MOL0     H72332  -1.374   6.633  10.587 -1.6174  2.2999  3.4537
  536MOL0     H72333  -1.446   6.797  10.571  0.3334  0.6262  0.3763
  536MOL0     H72334  -1.383   6.608  10.328  0.6776  1.0982 -1.1420
  536MOL0     H72335  -1.460   6.764  10.318  2.6298 -0.8939 -0.7425
  536MOL0     H72336  -1.607   6.578  10.296 -1.8856  2.7415 -1.1002
  536MOL0     H72337  -1.562   6.526  10.460  0.0376  0.3805 -0.6492
  536MOL0     H72338  -1.711   6.788  10.379 -0.1833  0.8355  1.4358
  536MOL0     H72339  -1.670   6.735  10.546  0.5787 -1.2548 -0.2552
  536MOL0     H72340  -1.790   6.534  10.514 -1.4931  0.1975  1.1011
  536MOL0     H72341  -1.856   6.581  10.363 -0.1513  0.7802  0.1276
  536MOL0     H72342  -0.782   6.825  10.365  0.7174 -0.8224 -1.3213
  536MOL0     H72343  -0.540   6.911  10.384  0.9644  0.5742  1.3261
  536MOL0     H72344  -0.031   6.721  10.362  0.6935 -0.9113  1.8011
  536MOL0     H72345   0.174   6.828  10.355 -1.0855 -1.6715  0.2440
  536MOL0     H72346   2.099   7.340   9.857 -2.7554 -0.1657  0.8654
  536MOL0     H72347   2.325   7.311   9.893 -1.0227  0.7839 -1.2470
  536MOL0     H72348   2.778   7.686  10.136  1.4373 -0.3926  0.3129
  536MOL0     H72349   3.008   7.618  10.148  2.7454 -1.8061 -1.1188
  536MOL0     H72350   3.176   7.538  10.042 -1.1918 -2.8165 -2.4053
  536MOL0     H72351   3.194   7.550  10.223 -2.6489 -0.6636  1.0196
  536MOL0     H72352   3.386   7.493  10.045  4.3321  0.0848  2.8281
  536MOL0     H72353   3.320   7.323  10.052 -0.7480  0.6485 -2.2428
  536MOL0     H72354   3.374   7.335  10.297 -2.5104  2.1731  0.5690
  536MOL0     H72355   3.438   7.493  10.299 -1.1432  1.2086  0.7131
  536MOL0     H72356   3.563   7.262  10.126  0.1754  0.2167 -0.0535
  536MOL0     H72357   3.627   7.314  10.282  0.1096 -1.1085 -0.7704
  536MOL0     H72358   3.768   7.637  10.053 -0.7008 -0.0545 -0.3775
  536MOL0     H72359   2.900   7.221  10.134  1.5541  1.7075  0.5513
  536MOL0     H72360   2.680   7.264  10.091 -0.5277  0.6967 -2.2840
  537MOL0     O72361   3.620   4.249   3.885 -0.8222 -0.0873  0.0662
  537MOL0     C72362   3.672   4.317   3.797  0.4965 -0.0014 -0.6152
  537MOL0     O72363   3.614   4.419   3.736 -0.3519 -0.2843  0.4704
  537MOL0     C72364   3.476   4.452   3.762  0.0323 -0.5464 -0.5795
  537MOL0     C72365   3.415   4.447   3.884  0.4725  0.3822  0.4471
  537MOL0     C72366   3.280   4.478   3.899 -0.2054 -0.3875  0.2502
  537MOL0     C72367   3.212   4.529   3.794 -0.2311 -0.0243  0.2731
  537MOL0     O72368   3.079   4.568   3.824  0.0134 -0.1102  0.3371
  537MOL0     C72369   2.977   4.526   3.722 -0.2999  0.0158 -0.5860
  537MOL0     C72370   2.842   4.563   3.780 -0.9274  0.1354  0.3674
  537MOL0     C72371   2.729   4.573   3.685  0.1435  0.2108 -0.3525
  537MOL0     C72372   2.598   4.589   3.760  0.3396 -0.5863 -0.6176
  537MOL0     C72373   2.469   4.619   3.675  1.7143  0.7547  0.4531
  537MOL0     C72374   2.372   4.714   3.742  0.5774  0.3290 -0.1145
  537MOL0     C72375   2.335   4.675   3.891  0.4431  0.3859  0.5797
  537MOL0     C72376   2.197   4.740   3.939 -0.5734 -0.5105 -0.0603
  537MOL0     N72377   2.093   4.652   3.884  0.3561 -0.2584  0.6108
  537MOL0     C72378   2.068   4.524   3.932  0.1184 -0.5235  0.0950
  537MOL0     C72379   1.996   4.467   3.837  0.2683  0.0446  0.9600
  537MOL0     C72380   1.952   4.325   3.837  0.9932  0.3682  0.4595
  537MOL0     C72381   1.802   4.303   3.798  0.0332 -0.1041 -0.8109
  537MOL0     C72382   1.786   4.172   3.717  0.1704  0.2822  0.0642
  537MOL0     C72383   1.643   4.144   3.689  0.2030  0.4449  0.5661
  537MOL0     O72384   1.646   4.045   3.578 -0.0197 -0.9215  0.0213
  537MOL0     C72385   1.520   4.014   3.533 -0.2273  0.3891 -0.4822
  537MOL0     C72386   1.417   3.977   3.620  0.2821 -0.0734  0.5027
  537MOL0     C72387   1.293   3.943   3.567 -0.1636 -0.3658 -0.6285
  537MOL0     C72388   1.197   3.887   3.669  0.0781  0.5795 -1.1336
  537MOL0     C72389   1.268   3.954   3.427  1.2682 -0.0293  0.4343
  537MOL0     C72390   1.139   3.911   3.358 -0.0050  0.3754  0.3308
  537MOL0     O72391   1.043   3.850   3.436  0.3781 -1.1643  0.0660
  537MOL0     C72392   0.935   3.806   3.366 -0.3468  0.5991  0.0750
  537MOL0     C72393   0.951   3.719   3.261 -0.0535  0.0259  0.1271
  537MOL0     C72394   0.849   3.636   3.215 -0.3577 -0.4437  0.3204
  537MOL0     C72395   0.721   3.651   3.273 -0.5606  0.4796 -0.3440
  537MOL0     O72396   0.618   3.564   3.229  0.3441 -1.3736  0.3755
  537MOL0     C72397   0.478   3.606   3.233  0.0519 -0.2606 -0.2064
  537MOL0     C72398   0.400   3.492   3.165  0.1058  0.1636  0.0670
  537MOL0     C72399   0.248   3.514   3.150 -0.5165  0.2668  0.3677
  537MOL0     C72400   0.184   3.426   3.041  0.4667  0.2784 -0.2529
  537MOL0     C72401   0.037   3.462   3.007  0.5899 -0.1226 -0.1472
  537MOL0     C72402  -0.060   3.455   3.125  0.1382 -0.1866  0.5527
  537MOL0     C72403  -0.206   3.416   3.089 -0.8100 -0.7600 -0.4675
  537MOL0     C72404  -0.260   3.498   2.971 -0.1567 -0.5461  0.7891
  537MOL0    Cl72405  -0.415   3.426   2.910 -0.1356 -0.2356  0.5922
  537MOL0     C72406   0.702   3.738   3.377  0.6131  0.0896 -0.3955
  537MOL0     C72407   0.804   3.822   3.422 -0.0836 -0.2449  0.0693
  537MOL0     O72408   1.129   3.929   3.235 -0.7456  0.0203  0.4204
  537MOL0     C72409   1.367   4.018   3.352 -0.3625 -0.5665  0.3473
  537MOL0     C72410   1.499   4.032   3.404  0.0063  0.3722  0.7023
  537MOL0     N72411   1.990   4.551   3.732  0.8418 -0.1176  0.7616
  537MOL0     N72412   2.048   4.657   3.756 -0.3112  0.2296 -0.2249
  537MOL0     C72413   3.277   4.544   3.674  0.1999  0.9198 -0.1687
  537MOL0     C72414   3.404   4.497   3.657  0.7619 -0.1166 -0.2010
  537MOL0     C72415   3.818   4.292   3.776 -0.8240  0.0971  0.4685
  537MOL0     C72416   3.896   4.360   3.676 -0.3391  0.2008 -0.7168
  537MOL0     C72417   4.035   4.352   3.680  0.2242  0.3377 -0.0780
  537MOL0     C72418   4.099   4.269   3.770 -0.3682 -0.4258 -0.0218
  537MOL0     O72419   4.233   4.236   3.764  0.0554  0.4928 -0.4466
  537MOL0     C72420   4.320   4.250   3.652  1.6063  0.0464 -0.6422
  537MOL0     C72421   4.443   4.163   3.673  0.7905 -0.3616  0.2337
  537MOL0     C72422   4.546   4.226   3.777  0.8103  0.0833 -0.5474
  537MOL0     C72423   4.682   4.152   3.780  0.5776  0.0659 -1.0104
  537MOL0     C72424   4.671   4.010   3.810  0.7102 -0.6993  0.1379
  537MOL0     C72425   4.658   3.895   3.842  0.5568 -0.1147  0.4467
  537MOL0     C72426   4.023   4.208   3.873  0.4440 -0.5808 -0.0786
  537MOL0     C72427   3.883   4.230   3.876  0.7038  0.2067 -0.4083
  537MOL0     H72428   3.458   4.404   3.974 -0.0182 -0.1364  0.4385
  537MOL0     H72429   3.234   4.451   3.993  1.0453  0.7773  1.2134
  537MOL0     H72430   3.000   4.570   3.624  0.6898 -1.1542 -0.9052
  537MOL0     H72431   2.971   4.417   3.715 -2.0186  0.0912 -0.6256
  537MOL0     H72432   2.820   4.484   3.852  4.3443  0.3459  2.6819
  537MOL0     H72433   2.857   4.660   3.828 -0.7849  0.9890 -1.3162
  537MOL0     H72434   2.756   4.651   3.613 -2.8337 -0.1062 -1.9851
  537MOL0     H72435   2.724   4.483   3.624  0.3165  0.0087 -0.0696
  537MOL0     H72436   2.579   4.509   3.831 -0.6978  1.6603  1.7785
  537MOL0     H72437   2.617   4.674   3.827  2.0353 -0.4890 -1.1663
  537MOL0     H72438   2.489   4.681   3.588 -1.0479  2.6358  1.0292
  537MOL0     H72439   2.422   4.523   3.649  1.1470  0.1177  3.3862
  537MOL0     H72440   2.403   4.819   3.748 -2.5327  1.2554  2.8859
  537MOL0     H72441   2.285   4.697   3.678 -0.1954  0.3834  0.9059
  537MOL0     H72442   2.333   4.568   3.913 -2.6145  0.2640  0.0300
  537MOL0     H72443   2.418   4.713   3.951  0.5887  0.4099  0.3658
  537MOL0     H72444   2.186   4.841   3.898 -1.7992 -0.3081  0.7443
  537MOL0     H72445   2.191   4.740   4.048  0.0925  1.2620  0.0040
  537MOL0     H72446   2.110   4.475   4.019  1.7035 -0.6728 -0.7340
  537MOL0     H72447   2.019   4.268   3.772 -0.2783  0.2259 -0.7891
  537MOL0     H72448   1.965   4.282   3.936 -1.0634 -2.7602 -0.4491
  537MOL0     H72449   1.773   4.388   3.736  0.4988  1.3763  0.9158
  537MOL0     H72450   1.744   4.297   3.891  0.2620 -2.5008 -0.7528
  537MOL0     H72451   1.829   4.085   3.768 -1.5127  0.6142  2.2072
  537MOL0     H72452   1.842   4.187   3.624 -2.3156  1.5111 -1.3465
  537MOL0     H72453   1.602   4.242   3.664  0.6681  0.6190  0.4668
  537MOL0     H72454   1.581   4.113   3.773 -2.0286  2.5885 -0.1613
  537MOL0     H72455   1.438   3.969   3.726  1.1354  1.8686  0.5294
  537MOL0     H72456   1.093   3.914   3.649 -0.6901 -0.8314  0.6229
  537MOL0     H72457   1.194   3.778   3.668 -3.7257  0.4540  1.3445
  537MOL0     H72458   1.221   3.920   3.770 -1.7627 -2.2731  0.3849
  537MOL0     H72459   1.049   3.706   3.217  0.8723  4.2817  0.5438
  537MOL0     H72460   0.875   3.575   3.129 -0.5511  0.4141 -0.3599
  537MOL0     H72461   0.450   3.608   3.339 -0.9913 -1.7765 -0.4040
  537MOL0     H72462   0.462   3.705   3.191  1.5792  1.8280  3.6984
  537MOL0     H72463   0.442   3.470   3.067 -1.7304  0.5187 -0.8494
  537MOL0     H72464   0.409   3.410   3.237  1.2403  0.3457  0.1454
  537MOL0     H72465   0.245   3.613   3.104 -4.7836 -1.0678 -2.7686
  537MOL0     H72466   0.186   3.524   3.240 -1.7675  0.3604 -0.4955
  537MOL0     H72467   0.254   3.424   2.957  2.8375 -1.6971  1.5862
  537MOL0     H72468   0.184   3.319   3.062  2.4804 -0.4173 -3.2439
  537MOL0     H72469   0.008   3.390   2.929  2.1929 -0.9215 -0.0407
  537MOL0     H72470   0.020   3.557   2.955 -3.5419 -0.8144 -0.4103
  537MOL0     H72471  -0.016   3.382   3.193 -2.3209 -2.9703 -0.6269
  537MOL0     H72472  -0.066   3.557   3.164  0.0038  0.1814 -0.3880
  537MOL0     H72473  -0.264   3.417   3.182 -0.7663 -1.7295 -0.4230
  537MOL0     H72474  -0.201   3.311   3.060  3.1186 -1.1830  1.1377
  537MOL0     H72475  -0.191   3.488   2.886  1.0662  0.4431  1.6395
  537MOL0     H72476  -0.264   3.604   2.994  0.0014 -0.5626  0.8980
  537MOL0     H72477   0.612   3.732   3.437  1.7571 -2.6402  1.2590
  537MOL0     H72478   0.796   3.881   3.513  0.4319 -3.2421  2.2106
  537MOL0     H72479   1.359   4.042   3.246  0.0644  1.3762  0.7243
  537MOL0     H72480   1.578   4.065   3.337  0.4438  0.3328  1.1927
  537MOL0     H72481   3.224   4.575   3.584 -2.4955  0.5179  1.1663
  537MOL0     H72482   3.452   4.484   3.560 -2.2576 -0.3434 -1.7625
  537MOL0     H72483   3.844   4.407   3.593  1.2990  0.2775 -1.7587
  537MOL0     H72484   4.095   4.391   3.599  0.2420 -2.1778 -1.3864
  537MOL0     H72485   4.276   4.227   3.554 -0.8218  2.4971 -0.2522
  537MOL0     H72486   4.354   4.353   3.645  4.2070 -0.5403  1.7654
  537MOL0     H72487   4.484   4.132   3.576  1.2236  1.4029 -0.1758
  537MOL0     H72488   4.407   4.071   3.719  0.7966 -0.6560 -0.3362
  537MOL0     H72489   4.507   4.236   3.879  1.1660  1.1337 -0.4928
  537MOL0     H72490   4.569   4.330   3.751  1.9374  0.7321  2.5541
  537MOL0     H72491   4.732   4.206   3.861 -3.0871  1.6657  0.4425
  537MOL0     H72492   4.732   4.166   3.684 -0.6762 -0.8441 -1.8239
  537MOL0     H72493   4.657   3.795   3.878 -0.7562  0.1645  1.2381
  537MOL0     H72494   4.051   4.146   3.958  2.2932  0.2067 -0.0811
  537MOL0     H72495   3.832   4.192   3.964  0.7665 -1.2551 -0.9752
  538MOL0     O72496   6.775   7.227   0.591  0.8228 -0.1928 -0.4383
  538MOL0     C72497   6.886   7.241   0.533  0.4117 -0.0213 -0.9225
  538MOL0     O72498   6.912   7.196   0.409  0.1521 -0.0170  0.3301
  538MOL0     C72499   6.819   7.125   0.348 -0.9513  1.0858 -0.3040
  538MOL0     C72500   6.811   6.983   0.359  0.8952 -0.7780 -0.7203
  538MOL0     C72501   6.696   6.926   0.295  0.5181  0.2567 -1.1230
  538MOL0     C72502   6.596   7.002   0.235  0.0914  0.5437  0.5166
  538MOL0     O72503   6.501   6.934   0.169 -0.0767 -0.2980  0.2794
  538MOL0     C72504   6.471   6.965   0.033 -0.1662 -0.2994 -0.5714
  538MOL0     C72505   6.357   6.878  -0.009 -0.1508  0.3853  0.0645
  538MOL0     C72506   6.312   6.899  -0.153  0.2959 -1.2236  0.2271
  538MOL0     C72507   6.180   6.821  -0.176  0.5805  0.4098 -0.3993
  538MOL0     C72508   6.144   6.858  -0.322  0.5829  0.4941 -0.2270
  538MOL0     C72509   6.034   6.758  -0.382  0.1411 -0.2300  0.1484
  538MOL0     C72510   5.896   6.747  -0.311  0.3714 -0.1260  0.5328
  538MOL0     C72511   5.797   6.662  -0.389 -0.0099 -0.8978 -0.2804
  538MOL0     N72512   5.656   6.675  -0.351  0.1036  0.3118  0.9055
  538MOL0     C72513   5.602   6.629  -0.239 -0.4890 -0.4320 -0.4433
  538MOL0     C72514   5.466   6.653  -0.255 -0.2059  0.1664 -0.3159
  538MOL0     C72515   5.364   6.608  -0.162 -0.2393  0.0435 -0.0744
  538MOL0     C72516   5.261   6.509  -0.214 -0.0836 -0.4495  0.8800
  538MOL0     C72517   5.201   6.431  -0.091  0.2180  0.1515 -0.2652
  538MOL0     C72518   5.068   6.484  -0.033 -0.1329 -0.8394 -0.4161
  538MOL0     O72519   5.033   6.396   0.072  0.0563  0.4318 -0.3532
  538MOL0     C72520   4.911   6.388   0.122 -0.1614  0.4162 -0.2086
  538MOL0     C72521   4.877   6.270   0.182 -0.1276 -0.5631  0.2832
  538MOL0     C72522   4.752   6.243   0.239  0.3784 -0.3245 -0.4719
  538MOL0     C72523   4.732   6.093   0.262 -0.8634  0.0738 -0.2489
  538MOL0     C72524   4.653   6.348   0.244  1.3839 -0.3519 -0.4354
  538MOL0     C72525   4.517   6.338   0.296  0.1095  0.1646  0.5021
  538MOL0     O72526   4.476   6.226   0.358 -0.0083  0.8302 -0.7768
  538MOL0     C72527   4.348   6.206   0.393  0.7433 -0.5645  0.5649
  538MOL0     C72528   4.271   6.295   0.462 -1.3984 -0.1381 -0.7950
  538MOL0     C72529   4.144   6.260   0.502  0.1671 -0.5748 -0.3908
  538MOL0     C72530   4.086   6.139   0.476 -0.2362 -1.0531 -0.5264
  538MOL0     O72531   3.951   6.119   0.494  0.7518  1.0927 -0.1380
  538MOL0     C72532   3.885   6.081   0.375 -0.0107  0.7671  0.1436
  538MOL0     C72533   3.745   6.017   0.394  0.5084 -0.7055 -0.2685
  538MOL0     C72534   3.632   6.108   0.437  0.5832  0.2660  0.0387
  538MOL0     C72535   3.512   6.024   0.483 -0.2293 -0.6392 -0.3171
  538MOL0     C72536   3.379   6.091   0.447  0.6694 -0.3815 -1.0075
  538MOL0     C72537   3.258   5.994   0.483  0.1198 -0.2297  0.2608
  538MOL0     C72538   3.258   5.868   0.403 -0.2223 -0.5946 -0.3833
  538MOL0     C72539   3.124   5.800   0.400 -0.0915  0.8628 -0.6825
  538MOL0    Cl72540   2.995   5.912   0.352  0.3753 -0.0667 -0.2902
  538MOL0     C72541   4.172   6.046   0.415 -0.0596 -0.0949  0.7956
  538MOL0     C72542   4.300   6.083   0.364  0.0180  0.4134  0.2154
  538MOL0     O72543   4.449   6.439   0.276  0.8004 -0.0280 -0.1677
  538MOL0     C72544   4.686   6.472   0.187  0.2871 -0.3165  0.2258
  538MOL0     C72545   4.812   6.491   0.127  0.0793 -0.4396  1.5712
  538MOL0     N72546   5.444   6.702  -0.380 -0.1046 -0.3138 -0.6843
  538MOL0     N72547   5.565   6.721  -0.438  0.4704 -0.1826  0.0217
  538MOL0     C72548   6.615   7.139   0.225 -0.2174  0.7221  0.1567
  538MOL0     C72549   6.727   7.193   0.277  1.0360  0.3163 -0.4136
  538MOL0     C72550   6.995   7.304   0.603  0.3801  1.0712 -0.5143
  538MOL0     C72551   6.972   7.366   0.733 -0.3695 -0.4492 -0.1296
  538MOL0     C72552   7.081   7.425   0.800 -0.4176  0.0286  0.1093
  538MOL0     C72553   7.210   7.429   0.741  0.7912  0.2382 -0.3089
  538MOL0     O72554   7.313   7.479   0.818 -0.3499 -0.5728  0.3158
  538MOL0     C72555   7.438   7.514   0.754 -0.2730 -0.5038  0.4871
  538MOL0     C72556   7.519   7.555   0.871  0.1266  0.9110  0.3009
  538MOL0     C72557   7.470   7.679   0.931  1.0445  0.4392 -0.7600
  538MOL0     C72558   7.534   7.710   1.069 -0.6262 -0.0200 -0.5186
  538MOL0     C72559   7.669   7.769   1.051 -0.1672  0.1203 -0.9430
  538MOL0     C72560   7.786   7.794   1.040 -0.2856  0.5303  0.1730
  538MOL0     C72561   7.227   7.378   0.615 -0.2027  0.4407  0.6531
  538MOL0     C72562   7.123   7.312   0.546  0.1184  0.0721 -0.1773
  538MOL0     H72563   6.873   6.921   0.423 -2.1603 -2.1521  1.1152
  538MOL0     H72564   6.683   6.819   0.308  2.5656  0.1269  0.4159
  538MOL0     H72565   6.440   7.070   0.029 -0.2515 -0.2854  0.1867
  538MOL0     H72566   6.557   6.949  -0.032  0.0650  1.1708 -0.6648
  538MOL0     H72567   6.391   6.775   0.004 -0.0120  0.5950  1.5534
  538MOL0     H72568   6.269   6.909   0.048 -0.7773  2.1425 -1.7623
  538MOL0     H72569   6.315   7.007  -0.165  3.0762 -0.9506  2.4216
  538MOL0     H72570   6.381   6.859  -0.229 -1.4361 -1.9163 -1.0338
  538MOL0     H72571   6.188   6.713  -0.163 -0.0746  0.3205 -0.7141
  538MOL0     H72572   6.097   6.856  -0.115  0.7315  1.6800 -0.8894
  538MOL0     H72573   6.105   6.960  -0.327 -0.8004  0.0166  0.3245
  538MOL0     H72574   6.234   6.862  -0.384  0.8514 -0.2987  0.0996
  538MOL0     H72575   6.014   6.800  -0.481 -2.3725  2.0458  1.4812
  538MOL0     H72576   6.078   6.658  -0.390  1.0113 -0.0018  1.6303
  538MOL0     H72577   5.912   6.703  -0.212 -0.2167 -0.9204  0.2890
  538MOL0     H72578   5.853   6.847  -0.301  1.8661  0.3822  2.6301
  538MOL0     H72579   5.824   6.556  -0.384  2.2217 -0.3442  1.0592
  538MOL0     H72580   5.818   6.698  -0.490  1.2059  1.6858  0.8021
  538MOL0     H72581   5.658   6.572  -0.166 -1.3264 -1.2423 -0.4035
  538MOL0     H72582   5.424   6.568  -0.080  2.0442  1.7635 -0.8046
  538MOL0     H72583   5.302   6.692  -0.128  0.7918  1.2808 -1.1352
  538MOL0     H72584   5.297   6.439  -0.290  0.1203  0.5514  0.0460
  538MOL0     H72585   5.174   6.562  -0.255 -0.3732 -2.5427 -1.4793
  538MOL0     H72586   5.273   6.400  -0.014 -0.1930  0.1867  0.1340
  538MOL0     H72587   5.174   6.333  -0.131  0.0694 -0.1638  0.5901
  538MOL0     H72588   4.998   6.469  -0.115 -2.2135  2.4946  0.5375
  538MOL0     H72589   5.084   6.590  -0.008 -5.1230  0.0793 -0.1255
  538MOL0     H72590   4.950   6.190   0.172  2.4198  1.5816  0.6512
  538MOL0     H72591   4.822   6.035   0.284 -1.1315 -0.5250 -0.6840
  538MOL0     H72592   4.659   6.077   0.342 -1.4514 -2.1882 -1.1433
  538MOL0     H72593   4.695   6.043   0.171  1.4593 -2.3119 -0.0157
  538MOL0     H72594   4.294   6.401   0.460 -1.4341 -0.1338 -0.9531
  538MOL0     H72595   4.082   6.339   0.543 -0.6021 -0.6130 -1.4300
  538MOL0     H72596   3.874   6.169   0.311 -2.9895 -0.0032 -0.5745
  538MOL0     H72597   3.944   6.004   0.325 -1.7568 -1.3065  1.0850
  538MOL0     H72598   3.718   5.953   0.310 -0.9261 -0.6314  0.1231
  538MOL0     H72599   3.747   5.946   0.477  1.3034 -0.7052 -0.2782
  538MOL0     H72600   3.604   6.171   0.352  2.8221 -1.8175 -2.4117
  538MOL0     H72601   3.672   6.163   0.523 -0.7636  0.6445  0.4584
  538MOL0     H72602   3.520   5.927   0.433  3.7471  0.6877 -2.7605
  538MOL0     H72603   3.522   6.024   0.592  0.9580 -0.1813 -0.4099
  538MOL0     H72604   3.376   6.124   0.342  0.8356 -0.5091 -1.0533
  538MOL0     H72605   3.355   6.179   0.507 -1.4975 -0.2453 -1.9962
  538MOL0     H72606   3.255   5.974   0.590  1.2524  0.5840  0.4561
  538MOL0     H72607   3.175   6.061   0.457  2.2498  2.3388 -0.3272
  538MOL0     H72608   3.334   5.801   0.445 -1.0899 -0.2657  1.8107
  538MOL0     H72609   3.303   5.903   0.309 -1.8635  2.7160 -0.0639
  538MOL0     H72610   3.107   5.752   0.497  2.7301 -0.7701 -0.8854
  538MOL0     H72611   3.131   5.717   0.329 -0.8560 -1.1306  1.4505
  538MOL0     H72612   4.136   5.946   0.398  1.8123 -0.4459 -1.5585
  538MOL0     H72613   4.371   6.009   0.330  2.3523  1.9669  1.4032
  538MOL0     H72614   4.617   6.555   0.177  1.0785  0.1771 -1.7198
  538MOL0     H72615   4.834   6.591   0.092 -1.0594 -0.7810 -0.2937
  538MOL0     H72616   6.554   7.205   0.165  1.8312  3.8810  1.2735
  538MOL0     H72617   6.752   7.298   0.263  2.2577  0.0361 -0.4551
  538MOL0     H72618   6.876   7.363   0.783  0.4517 -0.9419  1.5191
  538MOL0     H72619   7.062   7.466   0.899  1.5712  2.3528 -0.3863
  538MOL0     H72620   7.485   7.428   0.704  1.3115  0.7546 -0.2937
  538MOL0     H72621   7.428   7.603   0.692 -0.1446  0.2953  1.6056
  538MOL0     H72622   7.624   7.568   0.843  0.3246 -3.1863 -1.6118
  538MOL0     H72623   7.513   7.473   0.943  2.1819 -0.7483 -1.2859
  538MOL0     H72624   7.365   7.674   0.961  1.3593  1.3766  0.5837
  538MOL0     H72625   7.494   7.762   0.864  0.2869  0.4755 -0.9900
  538MOL0     H72626   7.525   7.621   1.133  0.1879 -0.5077 -1.0602
  538MOL0     H72627   7.471   7.784   1.120  2.1051  0.4997  2.3880
  538MOL0     H72628   7.882   7.835   1.019 -0.2478 -0.1104 -1.0225
  538MOL0     H72629   7.322   7.372   0.564 -1.6362  3.0073 -2.7452
  538MOL0     H72630   7.147   7.256   0.457  0.5220 -1.8377  1.0724
  539MOL0     O72631   2.154   1.119   5.915  0.1568  0.3190 -0.1878
  539MOL0     C72632   2.182   1.188   6.014  0.0096  0.0370 -0.2533
  539MOL0     O72633   2.098   1.238   6.105  0.3985  0.8604 -0.1569
  539MOL0     C72634   1.975   1.271   6.052  0.6044 -0.2968  0.5707
  539MOL0     C72635   1.870   1.236   6.133  0.2051 -0.1020  0.0790
  539MOL0     C72636   1.731   1.260   6.091  0.4246 -0.2663 -0.0547
  539MOL0     C72637   1.705   1.320   5.974 -0.3700 -0.0626  1.3871
  539MOL0     O72638   1.585   1.355   5.925 -0.3034  0.2367 -0.3765
  539MOL0     C72639   1.464   1.369   6.009  0.5048  0.1786  0.2126
  539MOL0     C72640   1.348   1.408   5.939  0.7704 -0.0313  0.5584
  539MOL0     C72641   1.309   1.548   5.964  0.0682  1.0166 -0.1803
  539MOL0     C72642   1.209   1.620   5.869  0.0895  0.2344 -0.0081
  539MOL0     C72643   1.060   1.579   5.872 -0.1158  0.2884  0.5077
  539MOL0     C72644   0.966   1.665   5.787  0.2663  0.9190 -0.0267
  539MOL0     C72645   0.823   1.638   5.792  0.5813  0.7290 -1.1337
  539MOL0     C72646   0.772   1.502   5.725  0.4275  1.0816  0.1096
  539MOL0     N72647   0.627   1.484   5.738  0.0663 -0.4751  0.4677
  539MOL0     C72648   0.564   1.369   5.768  0.3894 -0.4164  0.6972
  539MOL0     C72649   0.437   1.398   5.769 -0.4008  0.7637  0.4142
  539MOL0     C72650   0.335   1.299   5.801 -0.3159  0.2508 -0.5424
  539MOL0     C72651   0.313   1.205   5.677  0.4937  0.0153 -0.9273
  539MOL0     C72652   0.195   1.262   5.594 -0.4237  0.9948  0.8574
  539MOL0     C72653   0.185   1.182   5.461  0.5643  0.8211  1.1316
  539MOL0     O72654   0.154   1.049   5.484  0.3655 -0.3779  0.3778
  539MOL0     C72655   0.021   1.003   5.500 -0.3844  0.7165 -0.3337
  539MOL0     C72656  -0.094   1.080   5.482  0.3902 -0.2047  0.6648
  539MOL0     C72657  -0.226   1.021   5.485 -0.1429  0.0959 -0.0393
  539MOL0     C72658  -0.336   1.111   5.445  0.3812  0.2111  0.3162
  539MOL0     C72659  -0.232   0.878   5.524  0.0821  0.0847  0.1075
  539MOL0     C72660  -0.357   0.804   5.545 -0.1188 -0.7423  0.2595
  539MOL0     O72661  -0.471   0.874   5.558 -0.1448  0.0634 -0.1772
  539MOL0     C72662  -0.591   0.820   5.596  0.4208  0.9389  0.3464
  539MOL0     C72663  -0.701   0.885   5.543  0.1270 -0.8072  0.4833
  539MOL0     C72664  -0.838   0.835   5.567 -0.0761 -0.3697 -0.1610
  539MOL0     C72665  -0.861   0.720   5.634  0.0826  0.0288 -0.4018
  539MOL0     O72666  -0.990   0.692   5.649  0.5294  0.7010  0.4642
  539MOL0     C72667  -1.037   0.611   5.756  0.3688 -0.0236  1.1619
  539MOL0     C72668  -1.092   0.716   5.860  0.5803  0.0959  0.0249
  539MOL0     C72669  -1.235   0.700   5.913 -0.3824 -0.3988  0.3665
  539MOL0     C72670  -1.252   0.578   6.005 -0.4663 -0.3179  0.3851
  539MOL0     C72671  -1.398   0.545   6.032 -0.3329 -0.3046  1.0727
  539MOL0     C72672  -1.483   0.669   6.073 -0.5533 -0.1753 -0.1129
  539MOL0     C72673  -1.626   0.638   6.111 -0.1054  0.4359  0.7433
  539MOL0     C72674  -1.711   0.764   6.135  1.3164 -0.3934 -0.3248
  539MOL0    Cl72675  -1.879   0.723   6.183 -0.0795  0.0401  0.3993
  539MOL0     C72676  -0.751   0.657   5.703 -0.6184 -0.2166  0.0674
  539MOL0     C72677  -0.616   0.705   5.681 -0.1253 -0.3726  0.0815
  539MOL0     O72678  -0.353   0.684   5.529  0.5263  0.4214 -0.2110
  539MOL0     C72679  -0.115   0.806   5.547  0.9748  0.1260 -0.3095
  539MOL0     C72680   0.006   0.871   5.525 -0.9241  0.4230 -0.7865
  539MOL0     N72681   0.418   1.530   5.728 -0.7361 -0.3529 -0.3459
  539MOL0     N72682   0.539   1.580   5.707  0.1796 -1.0095 -0.3148
  539MOL0     C72683   1.808   1.352   5.886 -0.4617 -0.1374 -0.2241
  539MOL0     C72684   1.948   1.330   5.925  0.6023 -0.0041 -0.5439
  539MOL0     C72685   2.318   1.200   6.063  0.5640 -0.4090 -0.0249
  539MOL0     C72686   2.360   1.282   6.178 -0.0318  0.3432  0.6067
  539MOL0     C72687   2.499   1.280   6.208 -0.4293  0.2536  0.2359
  539MOL0     C72688   2.589   1.197   6.143  0.7372  0.3257  0.0317
  539MOL0     O72689   2.713   1.195   6.203  0.1898 -0.3869  0.2138
  539MOL0     C72690   2.819   1.113   6.142  0.3957 -0.2279 -0.0911
  539MOL0     C72691   2.934   1.097   6.234  0.1871 -0.2189 -0.5834
  539MOL0     C72692   3.009   1.227   6.270  0.1475 -0.6859  0.2602
  539MOL0     C72693   3.100   1.191   6.391  0.5294 -0.1793 -0.1677
  539MOL0     C72694   3.192   1.297   6.425 -0.2690  0.0516 -0.6192
  539MOL0     C72695   3.266   1.393   6.452 -0.0342  0.4204  0.1330
  539MOL0     C72696   2.549   1.123   6.031 -0.2015  0.0421  0.3071
  539MOL0     C72697   2.414   1.119   5.990  0.1383 -0.6887  0.6329
  539MOL0     H72698   1.880   1.186   6.229 -1.0102 -0.6090 -0.0459
  539MOL0     H72699   1.651   1.235   6.159 -1.0905  2.7683 -0.5754
  539MOL0     H72700   1.448   1.276   6.065 -1.0517  1.3879  1.9046
  539MOL0     H72701   1.475   1.439   6.092  1.0545 -0.5036  0.7288
  539MOL0     H72702   1.365   1.399   5.831 -1.0812  1.5465  0.0735
  539MOL0     H72703   1.261   1.348   5.969 -1.4349  3.1673  1.0338
  539MOL0     H72704   1.256   1.551   6.059  2.8118 -0.0478  1.5025
  539MOL0     H72705   1.396   1.614   5.971  0.8284  0.1396 -0.9854
  539MOL0     H72706   1.215   1.726   5.895 -0.9499  0.0729  0.9629
  539MOL0     H72707   1.245   1.612   5.766 -0.5040 -1.3110 -0.1202
  539MOL0     H72708   1.051   1.472   5.852  0.8106  0.1665  0.7226
  539MOL0     H72709   1.019   1.587   5.973 -1.9318 -0.8982 -0.0759
  539MOL0     H72710   0.963   1.774   5.802 -1.6340  1.0264 -0.8933
  539MOL0     H72711   0.995   1.645   5.684 -1.1245 -2.5700  0.1344
  539MOL0     H72712   0.778   1.655   5.891  0.2782  0.2505 -1.1850
  539MOL0     H72713   0.769   1.715   5.737 -2.3270 -1.6236 -1.8607
  539MOL0     H72714   0.823   1.413   5.762  1.9790  1.7086 -0.4121
  539MOL0     H72715   0.785   1.506   5.616 -1.5234 -1.1463 -0.2810
  539MOL0     H72716   0.614   1.274   5.787  2.2636  0.0683 -1.3977
  539MOL0     H72717   0.371   1.239   5.885 -1.0827  0.1340 -0.2870
  539MOL0     H72718   0.242   1.350   5.829  0.0828  1.3663 -1.2035
  539MOL0     H72719   0.290   1.104   5.711 -1.2302  0.7393  0.2293
  539MOL0     H72720   0.406   1.199   5.620  2.5181 -0.2840  2.2153
  539MOL0     H72721   0.209   1.369   5.576 -1.2435  0.7224 -1.8335
  539MOL0     H72722   0.102   1.251   5.651  1.1217  0.7212  3.4528
  539MOL0     H72723   0.284   1.180   5.413  0.9889 -1.5298  1.9817
  539MOL0     H72724   0.122   1.233   5.387 -1.4087 -1.7703  0.8932
  539MOL0     H72725  -0.089   1.184   5.452 -2.6645  0.1137  0.9450
  539MOL0     H72726  -0.395   1.055   5.372 -1.4563  0.4501  1.5471
  539MOL0     H72727  -0.406   1.141   5.523  1.1566  1.7377  0.4676
  539MOL0     H72728  -0.306   1.202   5.392  0.3793 -0.5204 -1.0004
  539MOL0     H72729  -0.690   0.969   5.476  1.1970 -0.6231  0.8819
  539MOL0     H72730  -0.926   0.869   5.514 -0.3620 -3.4910 -1.9686
  539MOL0     H72731  -1.113   0.541   5.722 -0.7781  1.2920  0.9148
  539MOL0     H72732  -0.965   0.541   5.801  0.9557  0.1171  0.4693
  539MOL0     H72733  -1.030   0.696   5.948 -2.5601  1.9717  2.9001
  539MOL0     H72734  -1.080   0.820   5.829  2.2771  0.5327  1.9302
  539MOL0     H72735  -1.311   0.699   5.834 -0.7340  2.1474  0.6046
  539MOL0     H72736  -1.255   0.795   5.964  1.7628  0.4389 -0.2242
  539MOL0     H72737  -1.201   0.493   5.959  0.7586 -1.2114  3.1928
  539MOL0     H72738  -1.200   0.598   6.099  0.5521  2.4615 -0.6686
  539MOL0     H72739  -1.392   0.479   6.119 -1.0534 -3.5326 -1.1858
  539MOL0     H72740  -1.441   0.483   5.954  1.2835  0.5196 -0.5502
  539MOL0     H72741  -1.438   0.702   6.167  1.5205 -0.0018 -1.1103
  539MOL0     H72742  -1.491   0.741   5.991 -3.7700 -1.0995 -0.7554
  539MOL0     H72743  -1.615   0.571   6.197  1.0764  0.0745  0.3311
  539MOL0     H72744  -1.672   0.582   6.029  0.2874  0.4590  0.5068
  539MOL0     H72745  -1.701   0.827   6.046  0.3111  1.5890  0.8922
  539MOL0     H72746  -1.658   0.802   6.223 -1.0896  2.4081  0.0723
  539MOL0     H72747  -0.764   0.572   5.769 -1.3297  1.4495  2.1540
  539MOL0     H72748  -0.538   0.651   5.736  0.3254  0.1883 -0.0013
  539MOL0     H72749  -0.105   0.699   5.567 -0.2325  0.0405 -0.0433
  539MOL0     H72750   0.097   0.811   5.531 -0.7183  0.8856  1.9482
  539MOL0     H72751   1.779   1.402   5.794  2.4951  0.6914 -0.7903
  539MOL0     H72752   2.026   1.348   5.852  0.6410  0.7991 -0.3187
  539MOL0     H72753   2.281   1.341   6.224 -0.7851 -0.9289  1.0109
  539MOL0     H72754   2.525   1.339   6.295  0.7010  1.1185 -0.6586
  539MOL0     H72755   2.778   1.012   6.127 -0.2240  0.3415 -2.6121
  539MOL0     H72756   2.849   1.150   6.043  1.3924  0.4504  0.4493
  539MOL0     H72757   3.004   1.029   6.184 -0.4553 -2.2680  1.1859
  539MOL0     H72758   2.893   1.055   6.325  1.4229 -0.9462 -0.3308
  539MOL0     H72759   2.942   1.311   6.294  0.5633 -0.7177  1.5997
  539MOL0     H72760   3.069   1.249   6.181  1.1238  1.6662  1.4201
  539MOL0     H72761   3.162   1.104   6.367  1.8308 -0.3659  3.3570
  539MOL0     H72762   3.036   1.160   6.474 -1.5625  1.3098 -1.1205
  539MOL0     H72763   3.327   1.472   6.491  0.3825 -0.1279  0.6104
  539MOL0     H72764   2.617   1.056   5.979 -2.7052 -0.1362 -3.1520
  539MOL0     H72765   2.393   1.054   5.906  1.3387 -0.6315  0.2654
  540MOL0     O72766   2.904   5.226   5.111  0.6404  0.1648  0.1799
  540MOL0     C72767   2.956   5.156   5.201  0.4154  0.1790  0.0666
  540MOL0     O72768   2.891   5.060   5.266  1.0045 -0.8295  0.3150
  540MOL0     C72769   2.755   5.057   5.258  0.1249 -0.6674  0.7987
  540MOL0     C72770   2.691   4.980   5.159 -0.2538 -0.3609 -0.2635
  540MOL0     C72771   2.553   4.978   5.157 -0.5789  0.9795 -0.2245
  540MOL0     C72772   2.487   5.047   5.252  0.4217  0.8924 -0.6664
  540MOL0     O72773   2.343   5.033   5.258  0.1612  0.0306  0.3538
  540MOL0     C72774   2.278   4.948   5.160 -0.1307  0.5137 -0.2242
  540MOL0     C72775   2.133   4.977   5.184  1.0751 -0.1372  0.5524
  540MOL0     C72776   2.063   4.944   5.051 -0.0866 -0.1099 -0.6374
  540MOL0     C72777   1.916   4.984   5.078  0.1121 -0.3953  0.1658
  540MOL0     C72778   1.854   4.982   4.938 -0.4728  0.9218  0.0750
  540MOL0     C72779   1.708   5.031   4.938  0.0314  0.1558 -0.5379
  540MOL0     C72780   1.632   4.980   4.814  0.2801 -0.2463 -0.7633
  540MOL0     C72781   1.696   5.035   4.690  0.0917  0.4208 -0.8758
  540MOL0     N72782   1.622   4.999   4.572 -0.5030  0.3378 -0.4721
  540MOL0     C72783   1.557   5.090   4.499 -0.4472 -0.3264 -1.1162
  540MOL0     C72784   1.526   5.040   4.384  0.0163  0.1874  0.0973
  540MOL0     C72785   1.465   5.109   4.272 -0.6511 -0.0708  0.6347
  540MOL0     C72786   1.333   5.043   4.226  0.6310  0.8712  0.7669
  540MOL0     C72787   1.234   5.153   4.167 -0.3984 -0.0882 -0.1920
  540MOL0     C72788   1.111   5.088   4.116  0.7034  0.2116 -0.6732
  540MOL0     O72789   1.052   5.034   4.231  0.6434  0.6903 -0.0175
  540MOL0     C72790   0.939   4.952   4.213 -0.1062  0.3820  0.3945
  540MOL0     C72791   0.872   4.943   4.092 -0.1140  0.2715 -0.4100
  540MOL0     C72792   0.759   4.863   4.084  0.5120  0.2228  0.1966
  540MOL0     C72793   0.671   4.871   3.958  0.0496  0.0630 -0.0564
  540MOL0     C72794   0.716   4.781   4.191  0.1572  0.9935 -0.1219
  540MOL0     C72795   0.599   4.682   4.177  0.8610  0.3891 -0.8397
  540MOL0     O72796   0.564   4.610   4.290  0.8230 -0.3601 -0.3832
  540MOL0     C72797   0.497   4.494   4.280 -0.4455  0.1187  0.1504
  540MOL0     C72798   0.532   4.406   4.169  0.3658  0.9340  0.6639
  540MOL0     C72799   0.475   4.279   4.152  0.5543  0.2658 -0.2838
  540MOL0     C72800   0.379   4.236   4.245  0.4963  0.0819  0.2437
  540MOL0     O72801   0.310   4.113   4.236  0.1985 -0.0905  0.1615
  540MOL0     C72802   0.389   3.995   4.182  0.3949 -0.8597 -0.7945
  540MOL0     C72803   0.315   3.873   4.171  0.3700 -0.1132 -0.6870
  540MOL0     C72804   0.282   3.818   4.313 -0.2048  0.3138 -0.8685
  540MOL0     C72805   0.392   3.767   4.405  0.6243  0.0864 -0.7009
  540MOL0     C72806   0.331   3.659   4.495  0.0027 -0.5982 -0.4234
  540MOL0     C72807   0.427   3.614   4.608 -0.7610  0.7280  0.7636
  540MOL0     C72808   0.537   3.530   4.535  0.2580 -0.6471 -0.2297
  540MOL0     C72809   0.623   3.449   4.624 -0.2533 -0.6008 -0.1544
  540MOL0    Cl72810   0.709   3.543   4.732  0.4881  0.0320  0.0164
  540MOL0     C72811   0.347   4.316   4.355  0.4426 -0.9530  0.4880
  540MOL0     C72812   0.409   4.446   4.380 -0.8049 -0.4024  0.4742
  540MOL0     O72813   0.538   4.671   4.074 -0.5964 -0.4460 -0.7200
  540MOL0     C72814   0.794   4.785   4.304 -0.3962  0.2965 -0.2587
  540MOL0     C72815   0.901   4.871   4.316 -0.2653  0.3304  0.8069
  540MOL0     N72816   1.580   4.914   4.378 -0.1682 -0.0934 -0.7241
  540MOL0     N72817   1.634   4.892   4.492  0.7736  0.7606  0.3461
  540MOL0     C72818   2.549   5.119   5.349 -0.0761  0.3435  0.5638
  540MOL0     C72819   2.691   5.122   5.357 -0.1331  0.1824 -0.4436
  540MOL0     C72820   3.097   5.159   5.211  0.0397 -1.2506  0.6577
  540MOL0     C72821   3.167   5.098   5.316  0.2336  0.0621  0.4368
  540MOL0     C72822   3.297   5.103   5.336 -0.7855  0.0591  0.0798
  540MOL0     C72823   3.379   5.180   5.247 -0.9683  0.2292  0.6378
  540MOL0     O72824   3.515   5.190   5.268  0.4003 -0.3363 -0.0431
  540MOL0     C72825   3.599   5.188   5.154 -0.0203  0.0725 -0.1892
  540MOL0     C72826   3.675   5.324   5.136  0.3711  0.1923 -0.0507
  540MOL0     C72827   3.807   5.327   5.206 -0.0875 -0.5307 -0.4741
  540MOL0     C72828   3.886   5.460   5.200  0.3540  0.1620  0.9896
  540MOL0     C72829   3.929   5.470   5.061 -0.4250  0.3244 -0.2142
  540MOL0     C72830   3.966   5.472   4.947  0.8248  0.7391  0.1230
  540MOL0     C72831   3.316   5.243   5.136 -0.6540 -1.0245 -0.6219
  540MOL0     C72832   3.183   5.227   5.117 -0.2571  0.2709 -0.6224
  540MOL0     H72833   2.750   4.928   5.084 -1.1033  1.4450 -2.3026
  540MOL0     H72834   2.515   4.906   5.085 -1.5438  0.2303  0.9807
  540MOL0     H72835   2.292   4.974   5.055  1.8628 -0.0159 -0.1346
  540MOL0     H72836   2.297   4.842   5.181 -0.2110  0.7462  1.1295
  540MOL0     H72837   2.086   4.920   5.265 -2.1962  1.1239 -0.2986
  540MOL0     H72838   2.105   5.082   5.200  1.2829  0.2139 -1.2031
  540MOL0     H72839   2.101   5.008   4.971 -0.4745  0.3394 -0.4627
  540MOL0     H72840   2.078   4.838   5.028  0.8833  0.1706 -1.3380
  540MOL0     H72841   1.870   4.920   5.155  3.0528 -2.9214  0.0169
  540MOL0     H72842   1.913   5.082   5.128  0.3641 -0.5722  0.5320
  540MOL0     H72843   1.911   5.046   4.869 -2.0734 -0.1151 -2.3506
  540MOL0     H72844   1.866   4.882   4.895 -1.7790  0.8981 -0.2672
  540MOL0     H72845   1.665   4.982   5.025  1.4551  0.1455  0.1984
  540MOL0     H72846   1.705   5.137   4.964  0.6203 -0.2576  1.4573
  540MOL0     H72847   1.626   4.870   4.814 -1.0749 -0.3333  2.9956
  540MOL0     H72848   1.534   5.026   4.821  0.1299 -0.3753 -1.9340
  540MOL0     H72849   1.796   4.992   4.675  0.0903  0.7883 -2.0468
  540MOL0     H72850   1.716   5.141   4.708  0.2416  0.0104  1.7784
  540MOL0     H72851   1.541   5.195   4.525 -0.6653 -0.9127  1.3584
  540MOL0     H72852   1.455   5.215   4.298 -0.1603  0.4357 -1.0993
  540MOL0     H72853   1.524   5.104   4.180 -0.8052 -0.0631  0.5346
  540MOL0     H72854   1.282   5.004   4.315  1.5018  3.9105  2.7303
  540MOL0     H72855   1.338   4.962   4.152 -1.7017  0.8719  0.5269
  540MOL0     H72856   1.282   5.206   4.084  0.5534 -0.7363 -0.0635
  540MOL0     H72857   1.207   5.229   4.241 -0.8811  0.6562 -1.1061
  540MOL0     H72858   1.141   5.014   4.040  1.6188  0.6209 -0.7104
  540MOL0     H72859   1.041   5.161   4.074 -0.3278 -0.9860 -1.1409
  540MOL0     H72860   0.899   5.009   4.010  1.7227 -0.7295 -0.6599
  540MOL0     H72861   0.567   4.900   3.980  0.3535  1.8498 -0.7811
  540MOL0     H72862   0.711   4.946   3.889 -1.0542 -0.1200 -0.9370
  540MOL0     H72863   0.676   4.778   3.900 -0.8173  0.8848 -1.5139
  540MOL0     H72864   0.610   4.436   4.102  0.3951  1.6375  1.0095
  540MOL0     H72865   0.506   4.220   4.067  1.6094 -2.0537  1.5764
  540MOL0     H72866   0.431   4.020   4.085  0.1412 -1.6070 -1.1084
  540MOL0     H72867   0.476   3.988   4.249  0.3310 -1.9762 -0.8021
  540MOL0     H72868   0.231   3.896   4.105  0.9627  2.4897 -0.6347
  540MOL0     H72869   0.366   3.795   4.114 -3.6156 -1.4311 -2.8196
  540MOL0     H72870   0.215   3.731   4.315 -0.2896 -0.0436  6.4147
  540MOL0     H72871   0.230   3.894   4.371  1.9985  0.6047  0.8485
  540MOL0     H72872   0.473   3.730   4.342  0.9908  0.0695 -0.2245
  540MOL0     H72873   0.416   3.851   4.471 -0.5385  0.2204 -0.4260
  540MOL0     H72874   0.303   3.580   4.425  0.0085 -0.1500 -0.9410
  540MOL0     H72875   0.240   3.688   4.547  0.6823  0.7262  0.0861
  540MOL0     H72876   0.468   3.705   4.653 -1.1454  2.6053 -2.4002
  540MOL0     H72877   0.369   3.549   4.675 -0.7131  0.0959  0.1991
  540MOL0     H72878   0.606   3.603   4.492 -1.1069 -0.0960 -1.6069
  540MOL0     H72879   0.501   3.460   4.459 -1.4370  0.8975 -0.9402
  540MOL0     H72880   0.691   3.401   4.553  0.7249  2.3683 -1.3882
  540MOL0     H72881   0.562   3.380   4.683 -0.7253 -2.3983 -2.6159
  540MOL0     H72882   0.271   4.280   4.424 -0.9826  3.0525  1.2475
  540MOL0     H72883   0.389   4.497   4.473  1.5383 -1.1782  1.4698
  540MOL0     H72884   0.788   4.725   4.394  1.9674  0.5093  0.0965
  540MOL0     H72885   0.959   4.889   4.405  2.3780  1.0080 -0.9594
  540MOL0     H72886   2.474   5.164   5.413  0.2398  2.2678 -0.3468
  540MOL0     H72887   2.742   5.172   5.438 -1.6869  2.4469 -0.7646
  540MOL0     H72888   3.110   5.040   5.389 -0.9941 -0.0107 -0.5366
  540MOL0     H72889   3.329   5.052   5.426 -2.9092 -1.6268 -0.0504
  540MOL0     H72890   3.678   5.114   5.171  1.1652  1.2437 -0.4527
  540MOL0     H72891   3.553   5.163   5.058  3.7123 -1.7719 -1.7164
  540MOL0     H72892   3.611   5.407   5.167  1.4641  1.3347 -0.7315
  540MOL0     H72893   3.705   5.340   5.032  2.3056  1.6365  0.6737
  540MOL0     H72894   3.864   5.245   5.160 -0.2984 -0.6592 -0.5063
  540MOL0     H72895   3.794   5.314   5.313  0.3886 -1.6000 -0.5319
  540MOL0     H72896   3.978   5.467   5.260  1.9699 -0.1156 -1.3308
  540MOL0     H72897   3.817   5.542   5.224 -3.5609 -2.1913 -1.2551
  540MOL0     H72898   3.993   5.466   4.843  1.2161  5.4703 -0.2423
  540MOL0     H72899   3.375   5.303   5.068  0.2400 -1.0903  0.0711
  540MOL0     H72900   3.133   5.263   5.027  0.9405  0.3315 -1.2893
  541MOL0     O72901   3.703   4.062   7.535  0.7225  0.1537  0.2639
  541MOL0     C72902   3.667   3.948   7.558  0.0119  0.8812 -0.5290
  541MOL0     O72903   3.539   3.891   7.531 -0.0021  0.4125  0.5216
  541MOL0     C72904   3.435   3.966   7.484  0.1216  0.5338  0.2593
  541MOL0     C72905   3.377   3.921   7.365 -0.3596 -0.2325  0.2983
  541MOL0     C72906   3.280   4.004   7.302  0.3887  0.0499  0.1618
  541MOL0     C72907   3.230   4.113   7.367  0.7377 -0.1045  0.4035
  541MOL0     O72908   3.117   4.171   7.324 -0.3124  0.0631  0.5610
  541MOL0     C72909   3.027   4.240   7.415 -0.3968  0.9966 -0.8656
  541MOL0     C72910   2.892   4.258   7.342 -0.0481 -0.4320 -0.5467
  541MOL0     C72911   2.796   4.364   7.405 -0.7267  0.7013  0.6005
  541MOL0     C72912   2.652   4.351   7.358 -0.1946 -0.3025  0.2361
  541MOL0     C72913   2.576   4.480   7.357  0.3235  0.1710 -0.0439
  541MOL0     C72914   2.424   4.460   7.336  1.0294  0.6410  0.4644
  541MOL0     C72915   2.346   4.590   7.335  0.2358 -0.2764  0.1083
  541MOL0     C72916   2.313   4.635   7.477  0.2949 -0.8396  0.3681
  541MOL0     N72917   2.197   4.727   7.471  1.1582  0.4954  0.1261
  541MOL0     C72918   2.210   4.856   7.423  0.3689  0.1362  0.0413
  541MOL0     C72919   2.104   4.926   7.471  0.0571  0.1733  0.0124
  541MOL0     C72920   2.065   5.061   7.431  0.2479 -1.0720  0.4669
  541MOL0     C72921   2.139   5.129   7.319 -0.3590 -0.6170 -0.2328
  541MOL0     C72922   2.078   5.258   7.272 -0.4247 -0.1433  0.0160
  541MOL0     C72923   1.936   5.256   7.209  0.4286  0.4336  1.4580
  541MOL0     O72924   1.891   5.398   7.212 -0.0643  0.4070 -0.4731
  541MOL0     C72925   1.753   5.419   7.237  0.2212 -0.7074 -1.0981
  541MOL0     C72926   1.714   5.494   7.347 -0.1154 -0.3759  0.2904
  541MOL0     C72927   1.585   5.520   7.393 -0.2883  0.2517 -0.1133
  541MOL0     C72928   1.558   5.619   7.506  1.0167 -0.0302 -0.5292
  541MOL0     C72929   1.486   5.442   7.335 -0.8845 -1.2320  0.7394
  541MOL0     C72930   1.337   5.445   7.381 -0.5702 -0.0839 -0.2006
  541MOL0     O72931   1.253   5.351   7.321  0.0222 -0.1094  0.0331
  541MOL0     C72932   1.123   5.347   7.369 -0.4350  0.2371 -0.2428
  541MOL0     C72933   1.028   5.393   7.283 -0.6843 -0.0163  0.3568
  541MOL0     C72934   0.903   5.425   7.331  0.5443  0.1231 -0.3592
  541MOL0     C72935   0.859   5.382   7.460  0.3463 -0.4950  0.6835
  541MOL0     O72936   0.728   5.417   7.500  0.1796 -0.0985 -0.7679
  541MOL0     C72937   0.682   5.376   7.627 -0.1899 -0.1191  0.1384
  541MOL0     C72938   0.528   5.391   7.627  0.0784 -0.4636 -0.2455
  541MOL0     C72939   0.455   5.328   7.751 -0.1540  0.5359  0.1953
  541MOL0     C72940   0.316   5.381   7.764 -0.2668  0.2887 -0.7353
  541MOL0     C72941   0.252   5.333   7.893  0.2874  0.9956 -0.5773
  541MOL0     C72942   0.183   5.437   7.975  0.2100  0.3527 -0.9249
  541MOL0     C72943   0.071   5.496   7.895  0.5784 -0.5320 -0.6775
  541MOL0     C72944  -0.027   5.556   7.994 -0.6998  0.3912  0.3591
  541MOL0    Cl72945   0.031   5.687   8.105  0.1373  0.2254  0.2187
  541MOL0     C72946   0.956   5.329   7.542  0.0099  0.1601 -0.6761
  541MOL0     C72947   1.089   5.308   7.500  0.7645  0.0117 -0.1713
  541MOL0     O72948   1.300   5.527   7.466 -0.3037  0.3555  0.3402
  541MOL0     C72949   1.521   5.338   7.242  0.5412 -0.9861  0.0489
  541MOL0     C72950   1.656   5.332   7.190  0.3405 -0.3259  0.1584
  541MOL0     N72951   2.028   4.840   7.550  0.0116  0.2573 -0.0563
  541MOL0     N72952   2.086   4.725   7.555 -0.4290 -0.2160 -0.9656
  541MOL0     C72953   3.289   4.160   7.485  0.5834  0.3996 -0.6930
  541MOL0     C72954   3.393   4.080   7.547 -0.4355 -0.1479  1.4519
  541MOL0     C72955   3.767   3.861   7.628  0.9717 -0.8830 -0.0449
  541MOL0     C72956   3.879   3.907   7.706  0.2594 -0.2750  0.2164
  541MOL0     C72957   3.981   3.823   7.757 -0.4797  0.9244 -0.2788
  541MOL0     C72958   3.960   3.688   7.759  0.2681  0.2262 -0.5598
  541MOL0     O72959   4.034   3.593   7.819  0.2499 -0.3743  0.7723
  541MOL0     C72960   4.171   3.611   7.806  0.5086 -0.6067  0.0570
  541MOL0     C72961   4.240   3.524   7.909 -0.5269 -0.9878  0.4842
  541MOL0     C72962   4.196   3.546   8.051 -0.2666  0.8489  0.9061
  541MOL0     C72963   4.276   3.473   8.148 -0.1361 -0.5619  0.4351
  541MOL0     C72964   4.213   3.507   8.273 -0.4764 -0.4909 -0.9962
  541MOL0     C72965   4.147   3.533   8.369 -1.2604  0.3846 -0.0925
  541MOL0     C72966   3.843   3.632   7.699  0.8690 -0.5195  0.9333
  541MOL0     C72967   3.754   3.718   7.631 -0.7073  0.2984 -1.1807
  541MOL0     H72968   3.411   3.831   7.314 -0.7731 -0.3238  0.1842
  541MOL0     H72969   3.245   3.969   7.205  0.2825 -1.6906  0.7799
  541MOL0     H72970   3.014   4.170   7.498 -0.4598 -0.3128 -1.9540
  541MOL0     H72971   3.066   4.336   7.450 -2.4860  1.4047  0.5646
  541MOL0     H72972   2.915   4.296   7.242 -2.1245  0.7159 -0.6441
  541MOL0     H72973   2.842   4.164   7.318  0.4445 -0.2769 -2.3549
  541MOL0     H72974   2.799   4.359   7.515  2.4557  0.2594  0.6104
  541MOL0     H72975   2.836   4.463   7.380 -0.4172  0.2280 -0.8246
  541MOL0     H72976   2.651   4.318   7.254  0.1702 -0.2015  0.1976
  541MOL0     H72977   2.599   4.268   7.406 -2.0610 -0.1737 -1.4879
  541MOL0     H72978   2.591   4.536   7.449  0.8861  1.5581 -0.9486
  541MOL0     H72979   2.608   4.534   7.267 -1.1480  0.8882 -0.1656
  541MOL0     H72980   2.415   4.408   7.241  1.8385 -0.1078  0.7856
  541MOL0     H72981   2.373   4.390   7.402  0.6743  2.6365  2.4098
  541MOL0     H72982   2.398   4.675   7.290 -2.6262  0.9777 -1.1014
  541MOL0     H72983   2.251   4.580   7.281  0.7033  1.0613 -1.0325
  541MOL0     H72984   2.399   4.692   7.515  0.4750 -0.3956 -0.6765
  541MOL0     H72985   2.288   4.549   7.540 -1.7752 -1.3853 -1.0973
  541MOL0     H72986   2.290   4.899   7.364 -0.3264 -1.2837 -2.0361
  541MOL0     H72987   1.960   5.049   7.403  0.4094  0.5979 -1.0262
  541MOL0     H72988   2.082   5.129   7.515 -2.2551  0.9921 -0.5571
  541MOL0     H72989   2.139   5.068   7.228  0.9715  1.3147 -1.6065
  541MOL0     H72990   2.239   5.143   7.359 -0.4710  0.3832 -0.2837
  541MOL0     H72991   2.152   5.303   7.206  0.7748  0.7039  1.8658
  541MOL0     H72992   2.066   5.327   7.356  1.5385  1.6492 -1.1018
  541MOL0     H72993   1.871   5.190   7.267  0.5231 -0.9194  0.0673
  541MOL0     H72994   1.940   5.222   7.106  1.9872 -2.1150  2.2678
  541MOL0     H72995   1.791   5.556   7.393 -0.6426 -0.9116  1.9567
  541MOL0     H72996   1.519   5.578   7.599  0.1439  0.3237 -0.7253
  541MOL0     H72997   1.646   5.676   7.538 -0.6259  2.1242  0.3842
  541MOL0     H72998   1.494   5.701   7.470 -0.5028  0.1933  2.3786
  541MOL0     H72999   1.050   5.421   7.181  2.3220 -4.0331 -0.3343
  541MOL0     H73000   0.834   5.476   7.265 -0.7036  0.3153  1.0503
  541MOL0     H73001   0.711   5.272   7.643  0.1136  0.0200  0.5357
  541MOL0     H73002   0.733   5.431   7.707  0.2593 -1.1358  0.5749
  541MOL0     H73003   0.505   5.498   7.623  1.2991 -0.2162 -1.3264
  541MOL0     H73004   0.477   5.335   7.548  0.5666 -2.8937  1.0571
  541MOL0     H73005   0.516   5.354   7.839 -1.1860  2.0253  0.5049
  541MOL0     H73006   0.451   5.219   7.743  1.3710  0.4395  0.4797
  541MOL0     H73007   0.325   5.489   7.780 -0.6249  0.0319  1.6400
  541MOL0     H73008   0.246   5.365   7.682 -1.7495 -1.9893  0.8563
  541MOL0     H73009   0.342   5.302   7.946 -1.6880 -2.3759  1.1254
  541MOL0     H73010   0.187   5.247   7.876  2.7169 -1.1749  0.3248
  541MOL0     H73011   0.147   5.381   8.062  2.0770  0.1590 -0.2249
  541MOL0     H73012   0.255   5.514   8.006 -3.6011  3.1053  2.1364
  541MOL0     H73013   0.028   5.418   7.832  2.1550 -2.0724  0.0824
  541MOL0     H73014   0.110   5.573   7.827  0.6898  0.3333  0.3469
  541MOL0     H73015  -0.077   5.478   8.052 -1.8210  0.6654 -0.2053
  541MOL0     H73016  -0.111   5.604   7.942  0.1848  2.8051  1.0138
  541MOL0     H73017   0.938   5.307   7.646  1.3117 -2.6748 -0.9529
  541MOL0     H73018   1.168   5.271   7.565  1.6420  0.0969 -1.1643
  541MOL0     H73019   1.449   5.259   7.222 -3.1536  2.0208  0.2155
  541MOL0     H73020   1.684   5.245   7.131  0.6960 -2.1110  2.7822
  541MOL0     H73021   3.260   4.254   7.529  0.3217  0.5151 -1.1015
  541MOL0     H73022   3.446   4.124   7.631  0.4426  0.2588  0.7030
  541MOL0     H73023   3.899   4.014   7.701  4.0545 -0.8517  0.3160
  541MOL0     H73024   4.058   3.872   7.816 -0.7601  1.1308 -0.0804
  541MOL0     H73025   4.197   3.576   7.706  0.2469  0.9711 -0.5869
  541MOL0     H73026   4.212   3.713   7.812  1.4515 -1.0040  0.6384
  541MOL0     H73027   4.349   3.535   7.908 -0.6530  1.1578  2.7427
  541MOL0     H73028   4.222   3.420   7.880  3.8567 -1.8817  0.2011
  541MOL0     H73029   4.092   3.512   8.057 -0.9292  2.3981 -0.8283
  541MOL0     H73030   4.193   3.652   8.078  0.0373  0.7323  1.4145
  541MOL0     H73031   4.378   3.510   8.139  0.2627 -1.8431 -0.6066
  541MOL0     H73032   4.273   3.367   8.123 -0.7070  0.2316 -3.4801
  541MOL0     H73033   4.078   3.552   8.449  0.3239 -2.0757  1.9921
  541MOL0     H73034   3.823   3.525   7.706  0.7693 -0.4810  1.2563
  541MOL0     H73035   3.672   3.675   7.575  1.5755 -3.5109 -1.9309
  542MOL0     O73036   5.305   2.620   4.364  0.6169  0.3507 -0.2675
  542MOL0     C73037   5.304   2.549   4.270  0.6782  0.3784 -0.6076
  542MOL0     O73038   5.411   2.512   4.192  0.3093 -0.1115  0.3526
  542MOL0     C73039   5.543   2.539   4.222 -0.6367  0.1374 -0.2793
  542MOL0     C73040   5.634   2.525   4.109 -0.2000 -0.1005 -0.3026
  542MOL0     C73041   5.766   2.550   4.127 -0.3229 -0.0380  0.3606
  542MOL0     C73042   5.816   2.582   4.255  0.0773 -1.0722 -1.2984
  542MOL0     O73043   5.950   2.593   4.287 -0.4873  0.0836 -0.1493
  542MOL0     C73044   6.039   2.668   4.189 -0.2687  0.2492 -0.1211
  542MOL0     C73045   6.184   2.640   4.217 -0.5281 -0.0981  1.2950
  542MOL0     C73046   6.206   2.488   4.211  0.0216 -0.4714  0.6249
  542MOL0     C73047   6.355   2.470   4.243  0.0537  0.1147 -0.5211
  542MOL0     C73048   6.394   2.322   4.242  0.3495  0.0191  0.4720
  542MOL0     C73049   6.339   2.239   4.353  0.0678 -0.0727 -0.8699
  542MOL0     C73050   6.367   2.297   4.492  1.0760  0.2404 -0.5555
  542MOL0     C73051   6.386   2.183   4.598 -0.0125  0.5171 -0.0570
  542MOL0     N73052   6.280   2.083   4.578  0.3642  0.0103  0.7545
  542MOL0     C73053   6.146   2.098   4.587  0.5508  0.2095  0.2823
  542MOL0     C73054   6.096   1.987   4.525  0.7911 -0.2787 -0.3726
  542MOL0     C73055   5.949   1.955   4.515  0.6667  0.6028  1.2689
  542MOL0     C73056   5.888   1.961   4.372 -0.1549 -1.0860 -0.3651
  542MOL0     C73057   5.939   2.086   4.299  0.0734 -0.1016  0.5370
  542MOL0     C73058   5.889   2.218   4.349  0.9077  0.1681 -0.1309
  542MOL0     O73059   5.759   2.227   4.413 -0.3734  0.1581 -0.5079
  542MOL0     C73060   5.635   2.198   4.359  0.1367 -0.2087  0.5241
  542MOL0     C73061   5.622   2.193   4.216  0.1248  0.0293  0.0010
  542MOL0     C73062   5.499   2.158   4.160  0.2786  0.5474  0.5020
  542MOL0     C73063   5.495   2.159   4.002 -0.1386 -0.0067 -0.6408
  542MOL0     C73064   5.385   2.129   4.242 -0.3715 -0.0244  0.1905
  542MOL0     C73065   5.240   2.085   4.191 -0.2034 -1.0345  0.2377
  542MOL0     O73066   5.144   2.112   4.286  1.1617 -0.3086  0.5935
  542MOL0     C73067   5.020   2.059   4.287 -0.6026  0.0368 -0.5036
  542MOL0     C73068   4.991   1.936   4.237  0.3677 -0.4619 -0.0369
  542MOL0     C73069   4.861   1.879   4.255 -0.1148 -0.1169 -0.3750
  542MOL0     C73070   4.762   1.943   4.320 -0.6511 -0.1061 -0.2174
  542MOL0     O73071   4.640   1.880   4.321 -0.0727 -0.6592  0.5702
  542MOL0     C73072   4.523   1.958   4.351  0.6823  0.0997  0.1246
  542MOL0     C73073   4.409   1.851   4.348 -0.5215  0.2345  0.4236
  542MOL0     C73074   4.426   1.753   4.462  0.2548  0.7131  0.7366
  542MOL0     C73075   4.304   1.666   4.483  0.7609 -0.0510  0.5069
  542MOL0     C73076   4.308   1.569   4.604 -1.4223 -0.0938 -0.5131
  542MOL0     C73077   4.393   1.438   4.568 -0.1723 -0.4524 -0.0690
  542MOL0     C73078   4.405   1.354   4.695 -0.5309 -0.5674 -0.4266
  542MOL0     C73079   4.520   1.249   4.675  0.1302 -0.3552 -0.8008
  542MOL0    Cl73080   4.539   1.169   4.832  0.5129  0.1603 -0.0516
  542MOL0     C73081   4.793   2.073   4.369  1.1524  0.1297 -0.6751
  542MOL0     C73082   4.919   2.130   4.354 -0.5907 -0.2330  0.1862
  542MOL0     O73083   5.217   2.046   4.076 -0.8737  0.3769  0.1007
  542MOL0     C73084   5.403   2.126   4.383  0.3352 -1.0540 -0.5326
  542MOL0     C73085   5.523   2.166   4.442  0.0878 -0.0445 -0.0374
  542MOL0     N73086   6.206   1.912   4.488  0.5206 -0.1822 -0.0303
  542MOL0     N73087   6.312   1.960   4.537  0.4335  0.0967  0.4777
  542MOL0     C73088   5.733   2.578   4.369  1.1936  0.2695  0.4898
  542MOL0     C73089   5.595   2.558   4.355  0.2625 -0.5300 -0.0235
  542MOL0     C73090   5.168   2.489   4.238 -0.0881  0.1937  0.2614
  542MOL0     C73091   5.163   2.406   4.124 -0.2614  0.1807  0.1214
  542MOL0     C73092   5.030   2.363   4.082 -1.2417 -0.2102  0.2228
  542MOL0     C73093   4.910   2.400   4.150 -0.9168  0.1736  0.8900
  542MOL0     O73094   4.780   2.353   4.124  0.2877  0.2911  0.3124
  542MOL0     C73095   4.771   2.231   4.047 -0.2057  0.1196 -1.0154
  542MOL0     C73096   4.629   2.181   4.047 -0.1426  0.9025 -0.4533
  542MOL0     C73097   4.522   2.232   3.933  0.5308  0.6223 -0.5480
  542MOL0     C73098   4.563   2.178   3.791  0.4627 -0.0201 -0.5567
  542MOL0     C73099   4.660   2.256   3.713  0.8888 -0.5914  0.5526
  542MOL0     C73100   4.742   2.322   3.662 -0.0350  0.2633 -0.7936
  542MOL0     C73101   4.925   2.487   4.261 -0.9038  0.4913 -0.0099
  542MOL0     C73102   5.053   2.521   4.300 -0.0473  0.3564  0.3658
  542MOL0     H73103   5.594   2.499   4.012 -0.4754  1.6757 -0.7002
  542MOL0     H73104   5.832   2.538   4.042  0.7684 -1.1827  1.3166
  542MOL0     H73105   6.026   2.640   4.084  2.2876 -1.2659 -0.1352
  542MOL0     H73106   6.023   2.776   4.196 -1.3016  0.0847  0.2576
  542MOL0     H73107   6.242   2.694   4.142 -0.0593  0.1083  1.8003
  542MOL0     H73108   6.217   2.684   4.312 -1.2099  2.2077  0.5256
  542MOL0     H73109   6.139   2.434   4.278 -2.8078  0.4665 -1.2727
  542MOL0     H73110   6.179   2.453   4.111 -1.5890 -0.4570  1.0288
  542MOL0     H73111   6.419   2.512   4.166  0.1097 -1.6196 -1.4831
  542MOL0     H73112   6.385   2.516   4.338  1.6700 -1.7400 -0.0581
  542MOL0     H73113   6.363   2.275   4.148  2.0033 -1.7963  0.7724
  542MOL0     H73114   6.502   2.311   4.245  0.7205  2.5070 -1.0820
  542MOL0     H73115   6.233   2.220   4.336  0.2202 -1.1831 -0.6494
  542MOL0     H73116   6.403   2.150   4.356  0.5950  0.3295  0.3987
  542MOL0     H73117   6.460   2.352   4.502 -1.2948  4.8498 -1.1163
  542MOL0     H73118   6.291   2.372   4.516  1.7291  0.9783 -0.7734
  542MOL0     H73119   6.378   2.237   4.693  2.6241  1.2031 -0.1568
  542MOL0     H73120   6.486   2.140   4.593 -0.6279 -0.8843 -0.8679
  542MOL0     H73121   6.090   2.179   4.634 -0.2286 -0.9176  1.3724
  542MOL0     H73122   5.915   1.856   4.546  1.3555 -1.0861 -2.7084
  542MOL0     H73123   5.896   2.031   4.573  1.6402  1.1617  1.4380
  542MOL0     H73124   5.779   1.968   4.365 -0.1369  2.0594  0.8689
  542MOL0     H73125   5.932   1.879   4.314  0.6288 -0.8602 -0.1043
  542MOL0     H73126   5.910   2.080   4.193  1.6730 -1.0670  0.1161
  542MOL0     H73127   6.048   2.089   4.289 -0.0134  0.6922 -0.3235
  542MOL0     H73128   5.903   2.284   4.263  0.9123 -0.3092 -0.5075
  542MOL0     H73129   5.957   2.250   4.428  0.4007  1.9210 -0.3692
  542MOL0     H73130   5.707   2.211   4.150  1.5199 -0.0341  1.6829
  542MOL0     H73131   5.540   2.253   3.969 -2.6722  2.4070  2.1666
  542MOL0     H73132   5.557   2.080   3.958 -2.1533 -2.4520  0.6331
  542MOL0     H73133   5.397   2.155   3.954  0.2571  0.1667 -1.4839
  542MOL0     H73134   5.060   1.866   4.192  0.3955 -0.0512 -0.6421
  542MOL0     H73135   4.840   1.778   4.222  0.6209 -1.3588  2.6659
  542MOL0     H73136   4.530   1.993   4.454 -3.2485 -0.2140  0.6285
  542MOL0     H73137   4.497   2.043   4.287 -1.4415 -0.9897 -0.5606
  542MOL0     H73138   4.314   1.905   4.357  0.7991  2.5948  1.0371
  542MOL0     H73139   4.423   1.794   4.256  0.5908  0.1179  0.6521
  542MOL0     H73140   4.437   1.809   4.555 -2.6928  1.0533  0.9630
  542MOL0     H73141   4.512   1.690   4.437  0.4364  0.5520  1.7481
  542MOL0     H73142   4.206   1.715   4.489 -1.5842 -3.7714 -2.3586
  542MOL0     H73143   4.281   1.609   4.393 -4.9657  3.8323 -1.0537
  542MOL0     H73144   4.208   1.535   4.631 -1.7899  0.7684 -0.7652
  542MOL0     H73145   4.358   1.622   4.686  0.8604 -1.8211 -0.6761
  542MOL0     H73146   4.332   1.383   4.496  0.3302  0.5446 -1.3069
  542MOL0     H73147   4.490   1.465   4.525 -0.3245  1.4157  0.6717
  542MOL0     H73148   4.312   1.300   4.714  0.8796 -1.7444  4.3958
  542MOL0     H73149   4.435   1.408   4.785  4.3033 -1.5478 -1.1390
  542MOL0     H73150   4.612   1.300   4.647  0.4815 -0.8542 -0.5582
  542MOL0     H73151   4.499   1.176   4.596 -0.3116 -2.9982  1.5972
  542MOL0     H73152   4.722   2.139   4.417 -1.6600 -2.6838 -0.6624
  542MOL0     H73153   4.947   2.231   4.384  0.1293 -0.6437  0.9344
  542MOL0     H73154   5.318   2.121   4.451  1.6705 -0.4831  1.2386
  542MOL0     H73155   5.545   2.175   4.548 -0.4581 -0.8232  0.1527
  542MOL0     H73156   5.759   2.595   4.473 -2.4492  0.2563  1.5606
  542MOL0     H73157   5.527   2.552   4.439 -0.9801 -2.0288 -1.0726
  542MOL0     H73158   5.247   2.366   4.067  0.3260  0.2153  0.9487
  542MOL0     H73159   5.015   2.299   3.996  2.6479 -3.4625  1.6462
  542MOL0     H73160   4.800   2.242   3.942 -1.7652  1.8455 -1.3221
  542MOL0     H73161   4.830   2.166   4.112 -1.3204  0.7236  0.6576
  542MOL0     H73162   4.594   2.204   4.148  1.2224 -1.1524  0.5556
  542MOL0     H73163   4.642   2.074   4.032 -1.2049  0.7730 -0.5019
  542MOL0     H73164   4.517   2.341   3.940 -2.1302  0.5668 -0.4158
  542MOL0     H73165   4.424   2.193   3.963 -0.3315  0.5837 -3.1153
  542MOL0     H73166   4.476   2.185   3.725  0.0010  1.1715  0.1456
  542MOL0     H73167   4.593   2.072   3.790 -1.7764 -0.7704 -3.4719
  542MOL0     H73168   4.821   2.376   3.613 -0.4468  0.1222 -1.6341
  542MOL0     H73169   4.831   2.515   4.308 -0.6806 -0.3321  0.9430
  542MOL0     H73170   5.056   2.595   4.379 -0.4285  3.7458 -2.5311
  543MOL0     O73171  10.655   6.063   8.646  0.6509 -0.3576 -0.3051
  543MOL0     C73172  10.681   6.111   8.763  0.3352 -0.1008 -0.0142
  543MOL0     O73173  10.587   6.133   8.863  0.0959 -0.2776 -0.1541
  543MOL0     C73174  10.454   6.131   8.822 -0.4335  0.5695  0.4397
  543MOL0     C73175  10.363   6.035   8.859  0.5384  0.5260  0.9125
  543MOL0     C73176  10.230   6.042   8.809 -0.1046 -0.1898 -0.5257
  543MOL0     C73177  10.191   6.143   8.714 -0.0162  0.3411  0.4690
  543MOL0     O73178  10.068   6.149   8.660  0.0919  0.2532 -0.1318
  543MOL0     C73179   9.970   6.048   8.697  0.1611  0.0765  0.2278
  543MOL0     C73180   9.855   6.066   8.601  0.6004 -0.4251 -0.1375
  543MOL0     C73181   9.742   5.970   8.635 -0.4798  0.0006  0.0532
  543MOL0     C73182   9.638   5.959   8.532 -0.4327  0.2982 -0.6186
  543MOL0     C73183   9.584   6.100   8.508 -0.0090  1.3514 -0.1250
  543MOL0     C73184   9.448   6.089   8.437  0.6114  0.1232  1.1653
  543MOL0     C73185   9.448   5.996   8.316 -1.0107  0.2730  0.1103
  543MOL0     C73186   9.314   5.974   8.264  0.1166  0.1829  1.2458
  543MOL0     N73187   9.204   5.920   8.352 -0.4509 -0.4899  0.3759
  543MOL0     C73188   9.226   5.833   8.455 -0.5184  0.4029  0.5662
  543MOL0     C73189   9.104   5.786   8.478  0.3998 -1.0335  0.6717
  543MOL0     C73190   9.069   5.682   8.587  0.0347 -0.3902 -0.0446
  543MOL0     C73191   8.989   5.746   8.704  0.7994  0.0086 -0.1667
  543MOL0     C73192   8.954   5.652   8.816 -0.4187 -0.6615  0.3384
  543MOL0     C73193   8.855   5.552   8.775 -0.1995  0.3878  0.0025
  543MOL0     O73194   8.724   5.612   8.743  0.1216 -0.1005 -0.9418
  543MOL0     C73195   8.618   5.533   8.733  0.1336  0.4762  0.4557
  543MOL0     C73196   8.494   5.601   8.725 -0.0793  1.2760  0.8608
  543MOL0     C73197   8.369   5.544   8.703  0.4391  0.6821 -0.3223
  543MOL0     C73198   8.241   5.628   8.690 -0.1758  0.4561  0.0654
  543MOL0     C73199   8.373   5.396   8.687 -0.0719  0.8403  0.6577
  543MOL0     C73200   8.248   5.319   8.646 -0.2837 -0.1872 -0.1197
  543MOL0     O73201   8.268   5.190   8.616 -0.1879 -0.4181 -0.8068
  543MOL0     C73202   8.163   5.112   8.587 -0.3028  0.1721 -0.1536
  543MOL0     C73203   8.091   5.043   8.686 -1.0794  0.3001  0.0158
  543MOL0     C73204   8.000   4.948   8.642  0.5919  0.1964 -0.1001
  543MOL0     C73205   7.942   4.959   8.512  0.9755 -0.4468  0.6636
  543MOL0     O73206   7.829   4.888   8.494  0.0646 -0.1625 -0.5390
  543MOL0     C73207   7.741   4.897   8.380 -0.1458 -0.7381 -0.6323
  543MOL0     C73208   7.617   4.809   8.416  0.4199  0.4298  0.1778
  543MOL0     C73209   7.630   4.666   8.360  0.0122 -0.4136  0.0142
  543MOL0     C73210   7.524   4.573   8.426 -0.8989 -0.3828  0.2245
  543MOL0     C73211   7.387   4.586   8.369  0.1147 -1.0437  0.4332
  543MOL0     C73212   7.376   4.536   8.230  0.6952 -0.1069  0.1422
  543MOL0     C73213   7.227   4.535   8.182 -0.7970  0.1593  0.7693
  543MOL0     C73214   7.225   4.445   8.054 -0.7729 -0.8101  0.4038
  543MOL0    Cl73215   7.247   4.550   7.904  0.2506 -0.0268  0.2817
  543MOL0     C73216   8.005   5.037   8.417 -0.2145 -0.3527  0.0262
  543MOL0     C73217   8.125   5.107   8.453  0.1606  0.0537 -0.8132
  543MOL0     O73218   8.138   5.376   8.636  0.0296 -0.5362 -0.5487
  543MOL0     C73219   8.497   5.331   8.699 -0.1259  0.4234  0.1558
  543MOL0     C73220   8.620   5.394   8.721 -0.5611 -0.0744 -0.1043
  543MOL0     N73221   9.004   5.843   8.388  0.2577  0.3185  0.1182
  543MOL0     N73222   9.076   5.928   8.319  0.2640  0.5050 -0.0757
  543MOL0     C73223  10.283   6.239   8.679 -0.8127  0.2517 -0.5228
  543MOL0     C73224  10.409   6.234   8.740 -0.6147  1.3135  0.2156
  543MOL0     C73225  10.817   6.135   8.796 -0.0310 -0.5359 -0.6740
  543MOL0     C73226  10.863   6.160   8.927 -0.4361 -0.1699  0.0493
  543MOL0     C73227  11.001   6.190   8.949 -0.0009 -1.0274 -0.0005
  543MOL0     C73228  11.092   6.197   8.850 -0.1027 -1.2419  0.0027
  543MOL0     O73229  11.221   6.225   8.868  0.2645  0.2336  0.3641
  543MOL0     C73230  11.282   6.238   9.000  0.4744 -0.0451  0.1056
  543MOL0     C73231  11.431   6.232   8.984  0.5641 -0.3356 -0.3783
  543MOL0     C73232  11.512   6.274   9.105 -0.3625  0.5195  0.2457
  543MOL0     C73233  11.506   6.178   9.222 -0.4543  0.4821 -0.4561
  543MOL0     C73234  11.586   6.202   9.344 -0.3663 -0.6126  0.0273
  543MOL0     C73235  11.664   6.237   9.430 -0.2234 -0.1159  0.3550
  543MOL0     C73236  11.040   6.178   8.716  0.5795  0.3505 -0.3699
  543MOL0     C73237  10.908   6.147   8.688 -0.1391  0.0219 -0.6646
  543MOL0     H73238  10.388   5.949   8.920 -1.3272 -2.2221 -1.9583
  543MOL0     H73239  10.163   5.977   8.864  1.8090 -2.2087 -0.4326
  543MOL0     H73240  10.014   5.949   8.681  1.7048  0.5572  1.3210
  543MOL0     H73241   9.939   6.073   8.799 -1.7954 -1.2675  0.0314
  543MOL0     H73242   9.806   6.164   8.607 -0.6108 -0.8845 -1.8248
  543MOL0     H73243   9.891   6.045   8.500  3.3015  2.1761  0.1422
  543MOL0     H73244   9.787   5.871   8.640  0.9313  0.6519  1.3952
  543MOL0     H73245   9.695   5.992   8.732 -4.2662 -1.1225 -1.3432
  543MOL0     H73246   9.686   5.917   8.444  0.7416  0.4146 -0.0573
  543MOL0     H73247   9.558   5.896   8.572 -0.2148  0.1242 -0.4471
  543MOL0     H73248   9.570   6.144   8.607  2.5988  1.5484  0.2217
  543MOL0     H73249   9.654   6.153   8.443  1.4376 -0.1328  0.1462
  543MOL0     H73250   9.360   6.071   8.499  0.6788 -4.4878  0.2769
  543MOL0     H73251   9.427   6.192   8.406  1.9547  1.4936  4.3410
  543MOL0     H73252   9.515   6.035   8.239 -1.4895  0.0140 -0.4433
  543MOL0     H73253   9.484   5.895   8.339 -0.7036  0.3532 -0.0200
  543MOL0     H73254   9.309   5.901   8.182  0.0839  1.4606  0.0674
  543MOL0     H73255   9.275   6.066   8.219 -1.6476 -0.0672  2.1788
  543MOL0     H73256   9.316   5.799   8.506 -1.2822 -2.2287  0.2874
  543MOL0     H73257   8.998   5.613   8.540 -2.4280  2.7159 -1.2178
  543MOL0     H73258   9.155   5.631   8.631 -1.6045 -3.6370 -0.2853
  543MOL0     H73259   8.899   5.800   8.674 -1.2451 -1.8483  2.1642
  543MOL0     H73260   9.061   5.819   8.743 -1.0194  1.5751  0.4311
  543MOL0     H73261   8.921   5.699   8.910  3.0239  0.7991  0.9385
  543MOL0     H73262   9.043   5.595   8.846 -1.5199 -0.9503  3.5116
  543MOL0     H73263   8.828   5.482   8.855  0.2386  0.3544  0.1260
  543MOL0     H73264   8.893   5.485   8.698  1.2099  0.5721  0.5018
  543MOL0     H73265   8.501   5.709   8.738  4.0071  1.2536  0.2012
  543MOL0     H73266   8.261   5.731   8.722  0.2616  0.4069 -0.0384
  543MOL0     H73267   8.202   5.641   8.589 -2.0190  1.2315  0.8395
  543MOL0     H73268   8.159   5.587   8.749 -1.0419 -0.0426 -1.4452
  543MOL0     H73269   8.116   5.048   8.791 -0.4831  2.5840 -0.1796
  543MOL0     H73270   7.958   4.875   8.710  1.5589  0.1258  0.4515
  543MOL0     H73271   7.716   5.002   8.363  0.5205 -0.1268  1.8719
  543MOL0     H73272   7.787   4.849   8.293  2.2920 -2.8329  1.6252
  543MOL0     H73273   7.599   4.815   8.524  0.5191  2.2184  0.1266
  543MOL0     H73274   7.530   4.849   8.363 -0.5260 -2.2305 -0.4103
  543MOL0     H73275   7.729   4.625   8.382  0.2724 -0.5997 -1.4295
  543MOL0     H73276   7.627   4.652   8.252 -1.7457 -2.1600  0.2387
  543MOL0     H73277   7.559   4.473   8.399  1.1971  0.1468  0.8079
  543MOL0     H73278   7.536   4.586   8.534  2.9868 -0.4262 -0.0711
  543MOL0     H73279   7.344   4.683   8.394 -2.9335 -2.1672 -0.0509
  543MOL0     H73280   7.324   4.523   8.433  4.2782 -3.1421  2.9430
  543MOL0     H73281   7.441   4.599   8.168  2.2579 -0.9517  0.8667
  543MOL0     H73282   7.406   4.430   8.233  0.6145 -0.1243  0.3314
  543MOL0     H73283   7.198   4.634   8.148  4.5025  1.3181 -1.3651
  543MOL0     H73284   7.158   4.493   8.256 -0.3673  1.7206  2.1187
  543MOL0     H73285   7.130   4.393   8.038 -1.0966  0.5770 -3.0044
  543MOL0     H73286   7.299   4.366   8.046  0.6284  0.6002 -1.3369
  543MOL0     H73287   7.976   5.045   8.313  0.0848 -1.5804 -0.1682
  543MOL0     H73288   8.174   5.159   8.372  0.1280  1.8934  0.2992
  543MOL0     H73289   8.510   5.225   8.681  0.8169  0.7939 -1.5095
  543MOL0     H73290   8.714   5.342   8.737  1.1303  2.4926 -0.9554
  543MOL0     H73291  10.271   6.313   8.600  1.6071  2.2250  0.8136
  543MOL0     H73292  10.486   6.305   8.711  0.2694  0.5932  0.7460
  543MOL0     H73293  10.790   6.153   9.007 -4.1769 -0.0337 -3.0277
  543MOL0     H73294  11.031   6.207   9.052  1.2682 -2.7087 -0.0597
  543MOL0     H73295  11.256   6.336   9.040  2.8595  2.5890 -4.1157
  543MOL0     H73296  11.247   6.150   9.055 -1.2523 -0.4673 -1.5635
  543MOL0     H73297  11.453   6.295   8.897  3.0766  0.6728  0.8934
  543MOL0     H73298  11.445   6.130   8.947 -0.5438 -0.9302  0.7761
  543MOL0     H73299  11.491   6.377   9.135  0.0662  1.0485 -1.1844
  543MOL0     H73300  11.612   6.279   9.062 -1.3939  1.0122 -2.2556
  543MOL0     H73301  11.536   6.080   9.182 -0.3245  0.0367  0.6993
  543MOL0     H73302  11.402   6.156   9.250 -1.2332  2.9466 -1.1594
  543MOL0     H73303  11.734   6.278   9.499  1.0926  0.5028 -1.2898
  543MOL0     H73304  11.112   6.191   8.635  0.5696 -1.9505 -0.8201
  543MOL0     H73305  10.878   6.122   8.587 -2.2993 -1.5889  0.2860
  544MOL0     O73306   4.189   6.939   7.489  0.0858  0.1996 -0.2806
  544MOL0     C73307   4.173   7.064   7.482  0.9376 -0.9138 -0.3561
  544MOL0     O73308   4.270   7.165   7.494 -0.6851 -0.1396 -0.0000
  544MOL0     C73309   4.395   7.139   7.545  0.1800 -0.0444 -0.1152
  544MOL0     C73310   4.491   7.242   7.538 -0.3603  0.3977  0.8168
  544MOL0     C73311   4.633   7.222   7.564 -0.6246 -0.6840  0.0310
  544MOL0     C73312   4.677   7.102   7.613 -0.4456 -0.4195 -0.7286
  544MOL0     O73313   4.818   7.080   7.630  0.5644  0.8005  0.6631
  544MOL0     C73314   4.865   6.953   7.579 -0.2444 -0.4538  0.1481
  544MOL0     C73315   4.867   6.957   7.431  1.1086  0.2736  0.9276
  544MOL0     C73316   4.918   6.824   7.366 -0.5639  0.4255 -0.6805
  544MOL0     C73317   4.948   6.846   7.216  0.1121  0.0467  0.2557
  544MOL0     C73318   5.028   6.733   7.162 -0.6962  0.0806 -0.2157
  544MOL0     C73319   4.971   6.595   7.180  0.3308 -0.3796  0.5024
  544MOL0     C73320   5.031   6.494   7.084  0.0405  0.0080  0.9790
  544MOL0     C73321   4.991   6.520   6.932 -0.1340  0.4145 -0.3676
  544MOL0     N73322   4.853   6.522   6.910 -0.0560  0.5927  0.0896
  544MOL0     C73323   4.777   6.637   6.918  0.1838  0.7187 -0.2088
  544MOL0     C73324   4.645   6.603   6.897 -0.8450  0.6330  0.1271
  544MOL0     C73325   4.533   6.695   6.890  0.2479 -0.0816 -0.5473
  544MOL0     C73326   4.393   6.644   6.915 -0.7202 -0.2256 -0.7083
  544MOL0     C73327   4.284   6.747   6.923 -0.3181 -0.1704  0.1170
  544MOL0     C73328   4.143   6.686   6.951 -0.1723  0.3391  0.0495
  544MOL0     O73329   4.121   6.679   7.099 -0.3380 -0.6633  0.6105
  544MOL0     C73330   3.995   6.650   7.145  0.7114  0.1328 -0.8413
  544MOL0     C73331   3.981   6.619   7.282 -0.3634 -0.5682  0.1390
  544MOL0     C73332   3.859   6.611   7.354 -0.0441 -0.0739  1.1202
  544MOL0     C73333   3.873   6.576   7.501  0.2356  0.6117 -0.1466
  544MOL0     C73334   3.739   6.641   7.287 -0.1490 -0.1443  0.4162
  544MOL0     C73335   3.614   6.666   7.355  0.1679  0.7365  0.2155
  544MOL0     O73336   3.501   6.670   7.276  0.6132 -0.2194 -0.5562
  544MOL0     C73337   3.377   6.671   7.338  0.3961 -0.0917  0.6464
  544MOL0     C73338   3.271   6.750   7.303 -0.0316 -0.4181  0.1720
  544MOL0     C73339   3.142   6.741   7.358  0.2402 -0.4660 -0.8664
  544MOL0     C73340   3.109   6.648   7.459 -0.5678 -0.3345  0.1341
  544MOL0     O73341   2.984   6.638   7.511 -0.1657  1.0952 -0.0721
  544MOL0     C73342   2.936   6.760   7.566 -0.8680 -0.7410 -0.8583
  544MOL0     C73343   2.827   6.717   7.674 -0.1954  0.4694  0.7545
  544MOL0     C73344   2.688   6.755   7.626  0.4571 -0.7706  0.3853
  544MOL0     C73345   2.585   6.755   7.734  0.1039  0.6635 -0.0560
  544MOL0     C73346   2.587   6.839   7.860 -0.7656  0.5089 -0.0771
  544MOL0     C73347   2.603   6.992   7.846  0.0890 -0.6748 -1.2673
  544MOL0     C73348   2.486   7.052   7.774  0.7636  0.7266  0.2594
  544MOL0     C73349   2.352   7.042   7.839 -0.7707  0.8141  0.6037
  544MOL0    Cl73350   2.261   7.185   7.798  0.1674 -0.4400 -0.0084
  544MOL0     C73351   3.212   6.563   7.490  0.3043  0.1088  0.0732
  544MOL0     C73352   3.345   6.570   7.426  0.1958 -0.5610 -0.2420
  544MOL0     O73353   3.615   6.686   7.471 -0.6946 -0.0986  0.3269
  544MOL0     C73354   3.755   6.667   7.150 -0.2512 -0.4527 -0.4111
  544MOL0     C73355   3.870   6.673   7.077 -0.2871  0.5878 -0.4987
  544MOL0     N73356   4.647   6.460   6.883 -0.6825  0.0734  0.0729
  544MOL0     N73357   4.768   6.420   6.882 -0.4484 -0.5041  0.6485
  544MOL0     C73358   4.581   7.005   7.636 -0.7452  0.2744  0.0690
  544MOL0     C73359   4.441   7.022   7.618  1.1843 -0.0836 -0.0268
  544MOL0     C73360   4.035   7.102   7.464  0.0984 -0.4267  0.0555
  544MOL0     C73361   3.989   7.229   7.502 -0.3440  0.0060  0.2051
  544MOL0     C73362   3.856   7.266   7.489  0.0657  0.2145 -0.0084
  544MOL0     C73363   3.760   7.175   7.433 -0.1581  0.2692 -0.4899
  544MOL0     O73364   3.625   7.199   7.402 -0.3353  0.1196  0.1341
  544MOL0     C73365   3.577   7.329   7.373  1.2486  0.2406 -0.7203
  544MOL0     C73366   3.426   7.331   7.362  0.3696  0.7738 -0.0904
  544MOL0     C73367   3.375   7.466   7.323 -0.1074 -0.4993  0.1811
  544MOL0     C73368   3.227   7.453   7.317 -0.0629 -0.5696 -0.3521
  544MOL0     C73369   3.186   7.356   7.208 -0.6101 -0.2925  0.7424
  544MOL0     C73370   3.182   7.262   7.132 -0.6357  0.3638  0.0752
  544MOL0     C73371   3.801   7.042   7.409 -0.9565  0.3948  0.7294
  544MOL0     C73372   3.937   7.011   7.411  0.2557  0.3143 -0.9233
  544MOL0     H73373   4.463   7.342   7.506 -1.5028 -0.3085 -0.5451
  544MOL0     H73374   4.709   7.299   7.552  0.5044 -1.3392  2.4015
  544MOL0     H73375   4.969   6.941   7.610 -0.0006  0.5278 -0.2448
  544MOL0     H73376   4.816   6.864   7.620 -1.8860  0.7938  1.0385
  544MOL0     H73377   4.762   6.959   7.401  1.3149 -0.2594  0.1568
  544MOL0     H73378   4.918   7.050   7.403 -0.2548  0.4415 -1.1659
  544MOL0     H73379   5.014   6.794   7.409  0.9657  1.1312 -3.3913
  544MOL0     H73380   4.849   6.741   7.379  1.3460 -0.9702  1.1865
  544MOL0     H73381   4.853   6.861   7.165 -0.4463 -0.2768  1.1668
  544MOL0     H73382   4.998   6.943   7.210 -2.2856  1.4117  0.8804
  544MOL0     H73383   5.043   6.753   7.055 -1.7056  3.2104  0.1456
  544MOL0     H73384   5.124   6.745   7.214 -0.6466  0.6607 -0.4316
  544MOL0     H73385   4.975   6.552   7.280 -1.1268 -0.4838  0.5290
  544MOL0     H73386   4.863   6.606   7.166  0.1423  0.4260  2.3052
  544MOL0     H73387   5.141   6.490   7.088  0.0283 -0.6154  0.9156
  544MOL0     H73388   4.985   6.398   7.109  0.0239  0.0309  1.0353
  544MOL0     H73389   5.035   6.437   6.876 -1.7973  0.3062 -1.5770
  544MOL0     H73390   5.043   6.610   6.898  2.4010 -0.5506  0.6791
  544MOL0     H73391   4.806   6.740   6.939 -3.7111  2.3557 -1.7826
  544MOL0     H73392   4.554   6.757   6.978  0.1514 -2.2514  1.0982
  544MOL0     H73393   4.533   6.762   6.803 -0.4463  0.0605 -0.4439
  544MOL0     H73394   4.391   6.592   7.011 -0.2565 -0.2047 -0.6837
  544MOL0     H73395   4.368   6.573   6.836 -1.0800 -0.1397 -0.6712
  544MOL0     H73396   4.279   6.805   6.831  2.8013  0.3700  0.1644
  544MOL0     H73397   4.303   6.823   7.000 -0.2436 -0.1792  0.1074
  544MOL0     H73398   4.141   6.585   6.909  1.4058 -0.5480  1.9357
  544MOL0     H73399   4.072   6.759   6.911  0.2199  0.9124  0.3847
  544MOL0     H73400   4.070   6.609   7.343 -0.6170 -2.1179  0.2830
  544MOL0     H73401   3.961   6.517   7.529 -1.1139 -1.6350 -0.3456
  544MOL0     H73402   3.863   6.661   7.569 -0.3385 -0.2542  0.8928
  544MOL0     H73403   3.791   6.507   7.525  0.8379 -0.1945 -0.3413
  544MOL0     H73404   3.263   6.814   7.215  0.3909 -0.4526  0.1092
  544MOL0     H73405   3.066   6.808   7.319  0.3022  0.1787  0.0953
  544MOL0     H73406   3.017   6.805   7.624 -2.0219  1.6151 -0.9624
  544MOL0     H73407   2.902   6.841   7.501 -0.1584  1.5217  1.4418
  544MOL0     H73408   2.828   6.608   7.680 -0.5978  0.2494 -2.0587
  544MOL0     H73409   2.841   6.766   7.771 -0.3083 -1.4335  1.7624
  544MOL0     H73410   2.663   6.682   7.549  1.1916 -1.6692  0.9844
  544MOL0     H73411   2.684   6.855   7.582  0.1940 -1.5590 -1.4597
  544MOL0     H73412   2.494   6.784   7.681  0.8241  3.0658 -0.0538
  544MOL0     H73413   2.573   6.653   7.772 -2.8800  1.8058  2.4949
  544MOL0     H73414   2.662   6.801   7.929 -0.7329  2.2420  0.9092
  544MOL0     H73415   2.497   6.822   7.919 -0.7967 -0.3205 -0.3518
  544MOL0     H73416   2.608   7.046   7.942 -1.6538 -1.3445 -0.7513
  544MOL0     H73417   2.695   7.016   7.793  1.8837  1.2340  2.3447
  544MOL0     H73418   2.474   7.012   7.673  0.4071 -1.4411  1.1061
  544MOL0     H73419   2.507   7.158   7.757 -2.3874  1.5236  0.7770
  544MOL0     H73420   2.371   7.043   7.946  0.9501  1.1335  0.3181
  544MOL0     H73421   2.293   6.951   7.821  0.9901 -0.9310  3.0127
  544MOL0     H73422   3.183   6.499   7.573 -2.2691  0.8793 -0.1692
  544MOL0     H73423   3.407   6.481   7.436  0.8810 -0.2879 -1.7757
  544MOL0     H73424   3.666   6.705   7.099  1.6676  2.4374 -1.9010
  544MOL0     H73425   3.877   6.707   6.974  4.7729  0.3733 -0.4739
  544MOL0     H73426   4.612   6.906   7.667 -3.3699 -0.7487 -0.3665
  544MOL0     H73427   4.374   6.941   7.641 -0.1956 -0.4541 -4.3865
  544MOL0     H73428   4.061   7.296   7.547 -1.9686  1.6862  0.3906
  544MOL0     H73429   3.842   7.369   7.520  1.6428  1.0647 -1.8602
  544MOL0     H73430   3.599   7.405   7.448 -0.7661  2.8732 -2.5802
  544MOL0     H73431   3.623   7.370   7.282  0.4695 -1.5982 -2.0208
  544MOL0     H73432   3.379   7.303   7.458 -2.7134  1.3004 -1.3173
  544MOL0     H73433   3.406   7.246   7.296  0.7508  1.0612 -0.5766
  544MOL0     H73434   3.412   7.495   7.224 -0.7337  0.5076  0.2225
  544MOL0     H73435   3.406   7.546   7.391  1.8572  0.0427 -1.2523
  544MOL0     H73436   3.183   7.550   7.292 -1.5812 -0.4798  2.2684
  544MOL0     H73437   3.186   7.429   7.415 -0.6141 -0.7698 -0.6294
  544MOL0     H73438   3.187   7.175   7.070 -1.7406 -0.3538  0.9569
  544MOL0     H73439   3.725   6.971   7.378  1.1188 -1.0724 -1.3335
  544MOL0     H73440   3.959   6.906   7.394  1.1438 -0.6835  4.5931
  545MOL0     O73441   2.034   7.507   9.601 -0.1933 -0.2051 -0.0276
  545MOL0     C73442   2.103   7.405   9.572 -0.6584 -0.8664 -0.5333
  545MOL0     O73443   2.042   7.284   9.525  0.3434 -0.4234  0.3201
  545MOL0     C73444   1.908   7.264   9.554 -0.6594  0.6299 -0.9571
  545MOL0     C73445   1.806   7.334   9.500  0.3052 -0.6991 -0.9394
  545MOL0     C73446   1.672   7.317   9.538  0.0348 -0.2617  0.0577
  545MOL0     C73447   1.640   7.218   9.635 -0.1197 -0.6528  0.3359
  545MOL0     O73448   1.503   7.201   9.645 -0.3265 -0.0988 -0.3772
  545MOL0     C73449   1.457   7.123   9.761 -0.4154 -0.0450  0.4389
  545MOL0     C73450   1.446   6.973   9.733 -0.0396  0.1537 -0.2174
  545MOL0     C73451   1.312   6.940   9.671  0.0472  0.7260  0.4212
  545MOL0     C73452   1.325   6.826   9.574 -0.3819  0.4783 -0.9174
  545MOL0     C73453   1.188   6.793   9.507 -0.6192 -0.5703 -0.1073
  545MOL0     C73454   1.111   6.707   9.601 -0.7890 -0.5313 -0.0297
  545MOL0     C73455   0.962   6.722   9.587 -0.8823  0.3485 -0.4575
  545MOL0     C73456   0.905   6.669   9.449 -0.3806  0.0042 -0.6031
  545MOL0     N73457   0.767   6.702   9.446 -0.0369  0.3951  0.1184
  545MOL0     C73458   0.675   6.674   9.543  0.2177  0.1279 -0.6781
  545MOL0     C73459   0.567   6.745   9.509 -0.5817  0.1368 -0.3143
  545MOL0     C73460   0.423   6.740   9.568 -0.3461  0.2915  0.0204
  545MOL0     C73461   0.328   6.684   9.461  0.4937 -0.0479  0.0028
  545MOL0     C73462   0.189   6.667   9.531 -0.0185  0.9263  0.0280
  545MOL0     C73463   0.083   6.640   9.421 -0.4065 -0.0463 -0.0055
  545MOL0     O73464   0.094   6.505   9.369  0.1075 -0.6815 -0.4521
  545MOL0     C73465  -0.027   6.435   9.352 -0.6531  0.2194  0.1172
  545MOL0     C73466  -0.039   6.308   9.410  0.0879  0.5243  0.4166
  545MOL0     C73467  -0.150   6.224   9.392 -0.0157 -0.1987 -0.3057
  545MOL0     C73468  -0.151   6.095   9.463  0.0806 -0.1409 -0.2546
  545MOL0     C73469  -0.266   6.285   9.335  0.0868  0.2253 -0.3813
  545MOL0     C73470  -0.397   6.212   9.329 -0.6024 -0.0136  0.6401
  545MOL0     O73471  -0.507   6.286   9.350 -0.8581 -0.3431 -0.1109
  545MOL0     C73472  -0.633   6.233   9.359 -0.1554  0.2558  0.2041
  545MOL0     C73473  -0.695   6.221   9.242 -1.6001  0.7613  0.1670
  545MOL0     C73474  -0.825   6.171   9.242 -0.0939 -0.6629  0.4583
  545MOL0     C73475  -0.898   6.151   9.359 -1.5716 -0.2023 -0.6835
  545MOL0     O73476  -1.033   6.133   9.377 -0.3406 -0.1591 -0.4163
  545MOL0     C73477  -1.101   6.075   9.266 -0.9808  0.2341  0.2328
  545MOL0     C73478  -1.237   6.057   9.329  0.5388 -0.2279  0.0253
  545MOL0     C73479  -1.358   6.013   9.247  0.3825  0.3482 -0.1827
  545MOL0     C73480  -1.492   6.052   9.299 -0.4026  0.0909  0.9414
  545MOL0     C73481  -1.601   5.991   9.210 -0.0545  0.8797  0.5628
  545MOL0     C73482  -1.742   5.993   9.270  0.0386 -0.1405  0.1104
  545MOL0     C73483  -1.814   6.128   9.277 -0.7688  0.3796  0.2667
  545MOL0     C73484  -1.929   6.142   9.385  0.4382 -0.3878 -0.1129
  545MOL0    Cl73485  -2.056   6.001   9.373  0.1489  0.0049 -0.1789
  545MOL0     C73486  -0.825   6.158   9.481  1.0406 -0.0617  0.5333
  545MOL0     C73487  -0.691   6.195   9.482 -1.0635  0.3352  0.0049
  545MOL0     O73488  -0.394   6.084   9.305  0.4583 -0.5479 -0.5259
  545MOL0     C73489  -0.262   6.418   9.289 -0.2568  0.7732  1.4196
  545MOL0     C73490  -0.142   6.491   9.288 -0.1454  0.3743  0.1864
  545MOL0     N73491   0.597   6.805   9.392 -0.2357 -0.1107 -0.0046
  545MOL0     N73492   0.721   6.787   9.357 -0.5597 -0.2367  0.0576
  545MOL0     C73493   1.740   7.136   9.691 -0.6369 -0.1902 -0.3099
  545MOL0     C73494   1.873   7.161   9.648  0.4842  0.1494 -0.3798
  545MOL0     C73495   2.248   7.410   9.590  0.2783  0.1995  0.6914
  545MOL0     C73496   2.339   7.302   9.581  0.6817  0.0200  1.3660
  545MOL0     C73497   2.475   7.315   9.602 -0.2899  0.4710  1.0788
  545MOL0     C73498   2.532   7.439   9.634  0.4953 -0.4307  0.1302
  545MOL0     O73499   2.670   7.442   9.645  0.1313  0.8122 -0.0566
  545MOL0     C73500   2.727   7.558   9.698  0.0618 -0.4325 -0.2892
  545MOL0     C73501   2.881   7.544   9.687  0.4491  1.1614  0.8163
  545MOL0     C73502   2.943   7.425   9.764 -0.4166 -0.4379 -0.0037
  545MOL0     C73503   3.088   7.395   9.731  0.2039  0.6391 -0.3650
  545MOL0     C73504   3.122   7.284   9.820  0.1191 -0.2099 -0.6995
  545MOL0     C73505   3.137   7.195   9.895 -0.1639 -0.0966 -1.0173
  545MOL0     C73506   2.444   7.549   9.649  0.7583 -0.0007 -0.0319
  545MOL0     C73507   2.306   7.533   9.621  0.3668 -0.6814  0.4956
  545MOL0     H73508   1.826   7.407   9.423 -1.4313  2.5314  1.3945
  545MOL0     H73509   1.593   7.381   9.498  1.0139  0.1745 -1.2690
  545MOL0     H73510   1.523   7.138   9.847  1.5193  0.1290 -1.0243
  545MOL0     H73511   1.358   7.164   9.781 -0.5500 -0.0158 -0.2917
  545MOL0     H73512   1.535   6.943   9.677  3.0257 -0.4015  4.3931
  545MOL0     H73513   1.456   6.929   9.833  1.7100  1.6121  0.3091
  545MOL0     H73514   1.236   6.920   9.747 -0.7134  0.1641 -0.4721
  545MOL0     H73515   1.272   7.021   9.609 -0.8207 -1.2078 -1.6654
  545MOL0     H73516   1.398   6.854   9.498  0.1277 -2.7760 -1.7738
  545MOL0     H73517   1.362   6.739   9.629  0.4118  1.8291  0.7500
  545MOL0     H73518   1.146   6.891   9.486  1.9940  1.2333  2.2963
  545MOL0     H73519   1.201   6.746   9.409 -0.8583  0.1061 -0.4692
  545MOL0     H73520   1.148   6.605   9.593 -1.4173 -0.7794  0.1424
  545MOL0     H73521   1.138   6.738   9.703 -0.6486  2.4129 -0.8541
  545MOL0     H73522   0.912   6.664   9.665 -2.3278  1.2591 -0.6803
  545MOL0     H73523   0.931   6.826   9.595  2.4989  1.4662 -0.4335
  545MOL0     H73524   0.921   6.560   9.447 -0.0946 -0.0403  1.6324
  545MOL0     H73525   0.954   6.719   9.364 -1.3823 -0.4031 -1.4424
  545MOL0     H73526   0.680   6.603   9.625 -1.1862 -1.7964 -2.1625
  545MOL0     H73527   0.432   6.678   9.658  2.1595  1.0441  0.3699
  545MOL0     H73528   0.386   6.839   9.600 -2.8907 -0.0351 -1.6343
  545MOL0     H73529   0.360   6.585   9.430 -0.5420 -0.6231  0.6830
  545MOL0     H73530   0.333   6.753   9.376  0.5468 -1.1308 -0.8901
  545MOL0     H73531   0.156   6.754   9.589 -0.6523  0.5390  0.2542
  545MOL0     H73532   0.194   6.583   9.601  2.6169 -0.1355 -1.3043
  545MOL0     H73533   0.086   6.710   9.337 -1.4909  1.2297  0.9834
  545MOL0     H73534  -0.011   6.656   9.475 -0.8033 -1.8738 -0.0603
  545MOL0     H73535   0.044   6.288   9.476  0.9480 -0.1909 -0.8434
  545MOL0     H73536  -0.221   6.086   9.547  0.9384  0.6484  0.5599
  545MOL0     H73537  -0.167   6.009   9.396  0.3851 -2.6659  2.6789
  545MOL0     H73538  -0.054   6.077   9.511  0.1964  0.7472 -0.1403
  545MOL0     H73539  -0.641   6.222   9.148  1.1584  0.5801  1.6421
  545MOL0     H73540  -0.868   6.151   9.144  0.0680  2.2699 -0.3193
  545MOL0     H73541  -1.106   6.150   9.186 -0.5413 -0.0003 -0.0214
  545MOL0     H73542  -1.067   5.977   9.232 -1.8855 -0.7167  1.9454
  545MOL0     H73543  -1.215   5.988   9.410  0.4371  2.4391  2.4963
  545MOL0     H73544  -1.265   6.152   9.376  1.9388  0.2977 -0.1748
  545MOL0     H73545  -1.347   5.904   9.238  1.5854  0.2589  1.7432
  545MOL0     H73546  -1.346   6.057   9.148 -3.1323  0.6701 -0.5902
  545MOL0     H73547  -1.508   6.010   9.399 -0.4548 -0.9394  0.5159
  545MOL0     H73548  -1.489   6.161   9.295 -1.6157  0.1946  1.9269
  545MOL0     H73549  -1.578   5.885   9.196 -0.4440  0.9368 -0.5795
  545MOL0     H73550  -1.589   6.038   9.112  0.7721 -0.8329 -0.2031
  545MOL0     H73551  -1.799   5.926   9.205 -0.4843  0.3200  0.0950
  545MOL0     H73552  -1.735   5.947   9.369  1.0335 -1.3072 -0.4745
  545MOL0     H73553  -1.859   6.140   9.178  0.1411  2.6568  0.0770
  545MOL0     H73554  -1.734   6.202   9.289  0.7990 -1.3408  0.8534
  545MOL0     H73555  -1.971   6.243   9.383  0.4916 -0.3369  0.9308
  545MOL0     H73556  -1.876   6.129   9.480  1.9933  0.1238 -0.8844
  545MOL0     H73557  -0.876   6.141   9.576 -0.9612  0.0104 -0.4760
  545MOL0     H73558  -0.638   6.200   9.577 -0.4771 -2.4641 -0.0830
  545MOL0     H73559  -0.353   6.464   9.252 -0.6181  0.0725  1.4144
  545MOL0     H73560  -0.136   6.594   9.257 -1.1105  1.4312  3.1029
  545MOL0     H73561   1.724   7.051   9.756 -0.2490 -1.3142 -1.6305
  545MOL0     H73562   1.950   7.093   9.683 -0.0178  0.2554  1.0060
  545MOL0     H73563   2.295   7.209   9.548  1.6194 -0.2896  0.9479
  545MOL0     H73564   2.550   7.239   9.586  1.9536  2.8187 -0.5027
  545MOL0     H73565   2.701   7.648   9.640  0.3391 -1.5350 -2.2157
  545MOL0     H73566   2.704   7.570   9.804  0.4254 -2.8946  0.1258
  545MOL0     H73567   2.929   7.632   9.731  0.0413  2.0268 -0.4022
  545MOL0     H73568   2.904   7.527   9.581 -1.8811 -2.8114  0.7685
  545MOL0     H73569   2.890   7.331   9.750  1.8682 -2.0310  1.2379
  545MOL0     H73570   2.941   7.444   9.872  2.8984  1.0890 -0.0571
  545MOL0     H73571   3.160   7.472   9.761  2.2574 -0.2317 -2.6851
  545MOL0     H73572   3.096   7.367   9.626 -1.0673  0.8979 -0.5502
  545MOL0     H73573   3.155   7.117   9.966  1.6502  0.0392 -1.2709
  545MOL0     H73574   2.476   7.651   9.666 -0.2542  0.3156  0.0248
  545MOL0     H73575   2.252   7.625   9.638  0.8407 -0.3010 -0.0147
  546MOL0     O73576  11.046   9.590   7.257 -0.1001 -0.2728  0.2267
  546MOL0     C73577  11.085   9.670   7.173 -0.6377 -0.2340  0.4700
  546MOL0     O73578  11.071   9.656   7.036 -0.3450  0.2395 -0.2226
  546MOL0     C73579  11.003   9.539   6.997 -0.5156 -0.2809 -0.6571
  546MOL0     C73580  11.056   9.409   7.017  0.1606 -0.0498 -0.6339
  546MOL0     C73581  10.996   9.292   6.958 -0.3268 -0.5906 -0.4369
  546MOL0     C73582  10.877   9.295   6.902  0.0873  0.3442 -0.0554
  546MOL0     O73583  10.831   9.166   6.864 -0.0458 -0.4160  0.1670
  546MOL0     C73584  10.761   9.151   6.738  0.0392 -0.1666  0.1827
  546MOL0     C73585  10.870   9.160   6.628 -0.0105 -0.8085 -0.3219
  546MOL0     C73586  10.980   9.055   6.642  0.2289 -0.5660  0.2634
  546MOL0     C73587  11.115   9.116   6.652 -0.3344 -0.5272  0.3133
  546MOL0     C73588  11.223   9.021   6.702  0.2066  0.1811  0.1635
  546MOL0     C73589  11.355   9.102   6.735  0.4896 -0.7697  0.4090
  546MOL0     C73590  11.334   9.206   6.847 -1.0723 -0.7862  0.4284
  546MOL0     C73591  11.459   9.238   6.931  0.7567 -0.8613  0.9089
  546MOL0     N73592  11.566   9.275   6.835  0.0658  0.4589 -0.9584
  546MOL0     C73593  11.549   9.356   6.733 -0.2502 -0.2367 -0.2366
  546MOL0     C73594  11.673   9.387   6.689 -0.0553  0.7407  0.2949
  546MOL0     C73595  11.703   9.499   6.586  0.0333  0.4204 -0.4207
  546MOL0     C73596  11.817   9.472   6.483  0.2183  0.9297  0.4752
  546MOL0     C73597  11.779   9.391   6.356  0.5525 -0.2144 -0.4387
  546MOL0     C73598  11.680   9.269   6.370 -0.9217 -0.6771  0.5996
  546MOL0     O73599  11.543   9.316   6.381 -0.5644  0.0047 -0.2891
  546MOL0     C73600  11.448   9.221   6.361  0.4356 -0.5313  0.3183
  546MOL0     C73601  11.327   9.257   6.304 -0.1175 -0.0072 -0.4048
  546MOL0     C73602  11.229   9.164   6.284  0.3711  0.1609 -0.2698
  546MOL0     C73603  11.102   9.219   6.219 -0.8619  0.5983  0.2148
  546MOL0     C73604  11.251   9.017   6.294  0.8237 -0.3838 -0.5340
  546MOL0     C73605  11.155   8.904   6.271 -0.6125 -0.1284  0.0297
  546MOL0     O73606  11.209   8.779   6.267  0.6098  0.5631  0.3599
  546MOL0     C73607  11.123   8.675   6.262  0.4426 -0.7672  0.2627
  546MOL0     C73608  11.113   8.591   6.377 -0.5317  0.0764 -0.3228
  546MOL0     C73609  11.019   8.492   6.380  0.0402 -0.7603  1.0850
  546MOL0     C73610  10.936   8.466   6.264  1.2172 -0.7405  0.3415
  546MOL0     O73611  10.831   8.383   6.254  0.0220  0.8415 -0.2180
  546MOL0     C73612  10.809   8.296   6.368 -0.3129  0.0769 -0.4331
  546MOL0     C73613  10.664   8.256   6.363 -0.0118  0.2919 -0.3184
  546MOL0     C73614  10.575   8.361   6.435 -0.4937  0.1892 -0.0419
  546MOL0     C73615  10.433   8.312   6.451  0.2674  1.2539 -0.8670
  546MOL0     C73616  10.351   8.398   6.550 -0.0914 -0.0507  0.1479
  546MOL0     C73617  10.234   8.330   6.623 -0.9680  0.5550  0.5789
  546MOL0     C73618  10.152   8.240   6.535 -0.7339  0.8823  0.5406
  546MOL0     C73619  10.007   8.214   6.587 -0.8676  0.2216 -0.0504
  546MOL0    Cl73620   9.912   8.366   6.589 -0.5607  0.0954  0.3775
  546MOL0     C73621  10.944   8.542   6.155 -0.1329  0.1543 -0.4046
  546MOL0     C73622  11.038   8.646   6.154 -0.0649  0.4912 -0.0321
  546MOL0     O73623  11.036   8.931   6.265  0.0737  0.6587  0.7196
  546MOL0     C73624  11.375   8.989   6.361  0.5582 -0.0985 -0.2876
  546MOL0     C73625  11.465   9.089   6.391 -0.7001  0.3717 -0.3277
  546MOL0     N73626  11.760   9.314   6.762 -1.0715 -0.0230  0.6977
  546MOL0     N73627  11.697   9.251   6.850  0.3100  0.8990 -0.3223
  546MOL0     C73628  10.803   9.419   6.905 -0.1816  0.7157  0.2281
  546MOL0     C73629  10.871   9.545   6.946 -0.3389  0.6148  0.3350
  546MOL0     C73630  11.172   9.780   7.225  0.3673 -0.3125  0.0645
  546MOL0     C73631  11.202   9.795   7.361 -0.1405  0.1005 -0.6900
  546MOL0     C73632  11.282   9.899   7.402 -0.6360 -0.0630  0.0605
  546MOL0     C73633  11.343   9.984   7.312  0.8129 -0.7532 -0.4995
  546MOL0     O73634  11.424  10.077   7.371 -0.3613 -0.0384 -0.5458
  546MOL0     C73635  11.495  10.173   7.291 -0.4298 -1.0539 -0.0667
  546MOL0     C73636  11.618  10.112   7.224 -0.0748 -0.0526 -0.3532
  546MOL0     C73637  11.730  10.061   7.323  0.8410 -0.3704 -0.5415
  546MOL0     C73638  11.800   9.929   7.281  0.3151  0.2194  0.0518
  546MOL0     C73639  11.916   9.903   7.364 -0.3833 -0.2474 -0.7052
  546MOL0     C73640  12.029   9.870   7.408  0.3507 -0.9422  0.2870
  546MOL0     C73641  11.309   9.977   7.174 -0.3222 -0.1672 -0.3060
  546MOL0     C73642  11.236   9.872   7.137 -0.6897  0.3702  0.5210
  546MOL0     H73643  11.147   9.400   7.076 -0.5119 -1.2061  0.2522
  546MOL0     H73644  11.061   9.205   6.965  0.9096  0.2912 -0.4418
  546MOL0     H73645  10.713   9.055   6.715 -2.2329  1.0310 -0.3267
  546MOL0     H73646  10.687   9.231   6.740  1.2169  0.9891 -0.2051
  546MOL0     H73647  10.817   9.132   6.537 -1.4604 -2.4898  0.9668
  546MOL0     H73648  10.915   9.260   6.629 -0.9328 -0.3768  1.6988
  546MOL0     H73649  10.971   8.997   6.734  0.2620 -1.5421 -0.3372
  546MOL0     H73650  10.977   8.985   6.557  0.6250 -1.5643  1.0509
  546MOL0     H73651  11.139   9.169   6.559 -0.4652 -0.0529  0.5473
  546MOL0     H73652  11.107   9.197   6.725 -2.2225  0.7344 -1.1785
  546MOL0     H73653  11.191   8.963   6.789  0.4656 -2.3092 -1.2792
  546MOL0     H73654  11.259   8.948   6.628 -2.0239 -0.3108 -0.5046
  546MOL0     H73655  11.426   9.033   6.781 -0.5562 -1.6441  0.7513
  546MOL0     H73656  11.409   9.138   6.647  3.4818 -0.7978  2.0800
  546MOL0     H73657  11.296   9.299   6.803 -1.1057 -0.8067  0.4135
  546MOL0     H73658  11.255   9.170   6.913 -1.1275 -2.2532 -0.3887
  546MOL0     H73659  11.480   9.167   7.012 -0.7199 -2.6095 -0.1581
  546MOL0     H73660  11.433   9.328   6.988  0.5219  0.0692 -0.6125
  546MOL0     H73661  11.460   9.398   6.687 -0.2024 -0.7701 -0.8337
  546MOL0     H73662  11.612   9.534   6.535 -1.1163  0.1929  1.3904
  546MOL0     H73663  11.739   9.588   6.640  0.5044  0.0819 -0.1745
  546MOL0     H73664  11.898   9.421   6.536 -0.7987  0.6531  1.8285
  546MOL0     H73665  11.861   9.568   6.455  0.2528  1.0280  0.8591
  546MOL0     H73666  11.874   9.354   6.316  1.1215  1.6807 -0.9630
  546MOL0     H73667  11.727   9.459   6.288  0.8852  0.3299 -0.1521
  546MOL0     H73668  11.715   9.216   6.458 -0.3210  1.2711  1.5745
  546MOL0     H73669  11.696   9.205   6.282  1.3857  1.7236 -0.8926
  546MOL0     H73670  11.319   9.354   6.258  0.0261  0.9222  1.4452
  546MOL0     H73671  11.115   9.320   6.180  0.9282  0.5986  0.7190
  546MOL0     H73672  11.064   9.158   6.136 -0.1147  0.4351 -0.0104
  546MOL0     H73673  11.032   9.217   6.303  1.2432 -0.9592  2.0601
  546MOL0     H73674  11.177   8.606   6.464 -0.7084  2.5304 -0.5446
  546MOL0     H73675  11.020   8.434   6.473 -0.3074 -0.7125  1.1215
  546MOL0     H73676  10.874   8.210   6.352  0.5417  0.9233 -1.7255
  546MOL0     H73677  10.831   8.352   6.459 -0.6714 -2.0189  1.0226
  546MOL0     H73678  10.626   8.251   6.260  0.8201  1.5963 -0.7163
  546MOL0     H73679  10.651   8.156   6.404 -0.3668  1.0007  1.3674
  546MOL0     H73680  10.588   8.454   6.379  1.6781  0.7080  1.1797
  546MOL0     H73681  10.616   8.386   6.533  0.5318  2.3670 -0.9550
  546MOL0     H73682  10.376   8.295   6.360 -0.4765 -2.3837  0.0894
  546MOL0     H73683  10.426   8.211   6.493  1.9344  0.6333 -1.9734
  546MOL0     H73684  10.315   8.489   6.500  1.9958  0.9256  0.3054
  546MOL0     H73685  10.420   8.437   6.625  0.8024 -2.5017  0.6658
  546MOL0     H73686  10.270   8.265   6.703 -1.6476 -0.4368  0.1000
  546MOL0     H73687  10.167   8.404   6.668 -3.8589 -0.6489 -1.5130
  546MOL0     H73688  10.207   8.146   6.524 -0.8748  0.8686 -0.0526
  546MOL0     H73689  10.145   8.297   6.442 -1.2856  0.3011  0.2179
  546MOL0     H73690  10.023   8.164   6.683  1.1139  0.5758 -0.1542
  546MOL0     H73691   9.955   8.152   6.513 -1.1898  0.4770 -0.0373
  546MOL0     H73692  10.867   8.531   6.079 -0.6926  0.3843  0.1107
  546MOL0     H73693  11.046   8.713   6.069  2.7491 -0.2858 -0.4854
  546MOL0     H73694  11.403   8.885   6.376 -0.2482 -0.2155  0.4974
  546MOL0     H73695  11.559   9.056   6.436 -1.4103  0.1771  1.0622
  546MOL0     H73696  10.698   9.423   6.880 -0.6447  2.1419  2.1935
  546MOL0     H73697  10.820   9.639   6.928 -1.4661 -0.2159 -0.9389
  546MOL0     H73698  11.166   9.726   7.437 -4.2698 -1.1634 -3.4600
  546MOL0     H73699  11.295   9.900   7.510 -0.3102 -2.5254  0.0830
  546MOL0     H73700  11.435  10.216   7.211  1.5231  2.2494  0.0966
  546MOL0     H73701  11.533  10.251   7.358  1.9879 -0.3773 -2.0818
  546MOL0     H73702  11.658  10.201   7.174 -0.8719  0.9643  0.7538
  546MOL0     H73703  11.581  10.038   7.153  1.7816  1.2912 -2.8696
  546MOL0     H73704  11.696  10.048   7.427  2.8253 -2.5903 -0.0753
  546MOL0     H73705  11.806  10.139   7.331 -1.3552  2.0365 -1.4512
  546MOL0     H73706  11.840   9.925   7.179  0.7509 -2.2261  0.2736
  546MOL0     H73707  11.722   9.853   7.287 -2.4185  2.8378  0.5897
  546MOL0     H73708  12.130   9.843   7.429  0.6711  0.8824  1.2748
  546MOL0     H73709  11.372  10.030   7.103  1.6491 -1.7512  0.1792
  546MOL0     H73710  11.233   9.855   7.030  2.0547  1.1885  0.2377
  547MOL0     O73711   8.248   0.965   1.937 -0.5815  0.1619  0.6661
  547MOL0     C73712   8.272   1.003   2.052 -0.3153  0.4359 -0.2940
  547MOL0     O73713   8.186   1.066   2.139 -0.2461  0.7158  0.5686
  547MOL0     C73714   8.061   1.101   2.091  0.1678 -0.1569 -0.5789
  547MOL0     C73715   8.037   1.169   1.971 -0.8682 -0.0186  0.3825
  547MOL0     C73716   7.909   1.188   1.925  0.5203 -0.3338 -0.1409
  547MOL0     C73717   7.793   1.166   2.011  0.7131  0.4421 -0.1934
  547MOL0     O73718   7.661   1.204   1.990 -0.0868 -0.2540 -0.0842
  547MOL0     C73719   7.624   1.221   1.854  0.2057  0.2099  0.2816
  547MOL0     C73720   7.478   1.219   1.871  1.3522  0.1192 -0.0118
  547MOL0     C73721   7.388   1.210   1.753  0.0857  0.0906  0.9274
  547MOL0     C73722   7.422   1.314   1.647  0.3255 -0.4481  0.8009
  547MOL0     C73723   7.298   1.326   1.546 -0.4593  0.1522  0.2810
  547MOL0     C73724   7.184   1.415   1.609 -0.5509 -0.3933  0.0799
  547MOL0     C73725   7.099   1.494   1.519  0.1809  0.3871 -1.0251
  547MOL0     C73726   7.042   1.408   1.410  0.6208 -0.4388 -0.4223
  547MOL0     N73727   6.946   1.316   1.466  0.3565  0.6067  0.1033
  547MOL0     C73728   6.960   1.177   1.479 -0.3481 -0.6489  0.0132
  547MOL0     C73729   6.852   1.137   1.559  0.0242  0.1309 -0.0104
  547MOL0     C73730   6.837   1.002   1.623 -0.3151 -0.8556  0.1186
  547MOL0     C73731   6.701   0.932   1.600 -0.2333  1.6413  0.3815
  547MOL0     C73732   6.670   0.890   1.458 -0.3956 -0.2287 -0.1118
  547MOL0     C73733   6.523   0.877   1.431 -0.4411  0.3423 -0.1519
  547MOL0     O73734   6.493   0.798   1.314  0.2332 -0.1216  0.1567
  547MOL0     C73735   6.359   0.799   1.272 -0.7892 -0.2690  0.2526
  547MOL0     C73736   6.317   0.710   1.171  0.1956 -0.0081 -0.3359
  547MOL0     C73737   6.178   0.701   1.126 -0.0433 -0.1290  0.1778
  547MOL0     C73738   6.145   0.590   1.018  0.5721 -0.2995 -0.7975
  547MOL0     C73739   6.083   0.783   1.191  0.0206 -0.1262 -0.3809
  547MOL0     C73740   5.931   0.757   1.178 -0.5370 -0.2170  0.1376
  547MOL0     O73741   5.900   0.627   1.153  0.3712 -0.5101  0.3021
  547MOL0     C73742   5.769   0.603   1.122  0.1772  0.0839  0.2854
  547MOL0     C73743   5.727   0.558   0.994  0.3488 -0.3719  0.8163
  547MOL0     C73744   5.589   0.531   0.965 -0.5402 -0.5106  0.1057
  547MOL0     C73745   5.499   0.536   1.072 -0.3221  0.1951  0.5846
  547MOL0     O73746   5.368   0.509   1.068 -0.4820  0.2143  0.1222
  547MOL0     C73747   5.319   0.409   0.970  0.6675  0.0614 -0.9651
  547MOL0     C73748   5.176   0.363   0.994 -0.2954  0.4118  0.7200
  547MOL0     C73749   5.080   0.489   0.976  0.2935 -0.6474  0.0462
  547MOL0     C73750   4.937   0.445   0.959  0.1299  0.2283  0.0904
  547MOL0     C73751   4.825   0.548   0.994  0.0134 -0.2477 -0.5003
  547MOL0     C73752   4.682   0.491   1.017 -0.0605 -0.2045 -0.0384
  547MOL0     C73753   4.612   0.447   0.882  0.5332  0.1068 -0.2996
  547MOL0     C73754   4.487   0.375   0.912 -0.1907  0.0267 -0.0047
  547MOL0    Cl73755   4.388   0.308   0.767 -0.3467 -0.3982 -0.2226
  547MOL0     C73756   5.545   0.570   1.199 -0.6588  0.5827  0.2953
  547MOL0     C73757   5.675   0.596   1.229  0.8208 -0.5799  0.3599
  547MOL0     O73758   5.853   0.844   1.197  0.6119 -0.0161 -0.2836
  547MOL0     C73759   6.123   0.883   1.278 -0.5496  0.8045 -0.4271
  547MOL0     C73760   6.257   0.876   1.326  0.8254 -0.7346 -0.4417
  547MOL0     N73761   6.782   1.245   1.594  0.2295  0.5751  0.1550
  547MOL0     N73762   6.828   1.350   1.538  0.3618  0.5245  0.4379
  547MOL0     C73763   7.818   1.089   2.126 -1.2091 -0.2230  0.9745
  547MOL0     C73764   7.950   1.061   2.168  0.0358  0.9774 -0.2488
  547MOL0     C73765   8.404   0.979   2.111 -0.6054 -0.7703 -0.1184
  547MOL0     C73766   8.473   0.862   2.090 -0.0568  0.6632 -0.6081
  547MOL0     C73767   8.602   0.849   2.141  0.8126  0.2156  0.2039
  547MOL0     C73768   8.665   0.952   2.222  1.3432  0.4751  0.0326
  547MOL0     O73769   8.794   0.942   2.259 -0.5218 -0.1421 -0.0140
  547MOL0     C73770   8.851   0.816   2.318  0.0262 -0.5362  0.0278
  547MOL0     C73771   8.936   0.853   2.438  0.1153 -0.8476  0.4494
  547MOL0     C73772   8.865   0.933   2.541 -0.0108  0.1784 -0.1454
  547MOL0     C73773   8.939   0.978   2.675  0.7552 -0.0720  0.4562
  547MOL0     C73774   9.033   1.078   2.653 -0.1851 -0.3096  0.3321
  547MOL0     C73775   9.120   1.166   2.641 -0.2046  0.5978  0.6516
  547MOL0     C73776   8.587   1.065   2.251  0.2145 -0.3558 -0.0323
  547MOL0     C73777   8.458   1.083   2.196  0.0464 -0.0767  0.2384
  547MOL0     H73778   8.118   1.198   1.905 -0.8842 -4.8502 -2.2228
  547MOL0     H73779   7.886   1.250   1.840  1.0879  3.0275  1.9633
  547MOL0     H73780   7.664   1.311   1.808  1.2241 -0.6813 -0.6386
  547MOL0     H73781   7.667   1.141   1.792  0.7916  0.9038 -0.2222
  547MOL0     H73782   7.453   1.133   1.934 -1.2058  0.3810 -0.5273
  547MOL0     H73783   7.445   1.298   1.940  0.2561 -1.3757  1.2531
  547MOL0     H73784   7.388   1.111   1.708 -3.9853  0.1720  0.3817
  547MOL0     H73785   7.284   1.214   1.787 -0.4880 -0.5361 -0.6721
  547MOL0     H73786   7.456   1.412   1.683 -1.0752 -0.1658  1.4262
  547MOL0     H73787   7.509   1.280   1.590  0.7947  0.8260  0.7134
  547MOL0     H73788   7.318   1.377   1.451  0.0964  1.9667  1.3216
  547MOL0     H73789   7.259   1.226   1.525  1.5052 -0.2930 -1.6235
  547MOL0     H73790   7.122   1.347   1.668  0.3658 -0.8832  0.5004
  547MOL0     H73791   7.234   1.484   1.678  0.8155 -2.9835  1.8815
  547MOL0     H73792   7.019   1.534   1.583  0.3636 -1.1172  0.2149
  547MOL0     H73793   7.157   1.580   1.483  0.8774  0.0056 -0.8378
  547MOL0     H73794   7.122   1.352   1.359  0.0625 -0.7039 -1.0224
  547MOL0     H73795   6.993   1.465   1.331  0.5824  1.7326  1.1136
  547MOL0     H73796   7.036   1.112   1.438 -0.1918  0.6706 -1.9108
  547MOL0     H73797   6.915   0.928   1.603 -2.2664 -3.4623  1.4818
  547MOL0     H73798   6.848   1.017   1.731  2.0813 -0.9579 -0.0667
  547MOL0     H73799   6.630   1.007   1.637  0.4487  2.7005 -0.4069
  547MOL0     H73800   6.697   0.850   1.673  1.3920  3.0308  2.1447
  547MOL0     H73801   6.705   0.787   1.458  0.1834 -0.0827  1.9834
  547MOL0     H73802   6.724   0.959   1.393 -2.3308  1.4666 -0.0498
  547MOL0     H73803   6.489   0.979   1.411  1.2250  0.9456 -0.0796
  547MOL0     H73804   6.475   0.833   1.519  2.8877  1.0862  2.2505
  547MOL0     H73805   6.382   0.640   1.119  1.1311 -0.2950  1.1554
  547MOL0     H73806   6.050   0.610   0.968  0.8628  1.8765 -0.5786
  547MOL0     H73807   6.214   0.585   0.933 -1.0817 -3.2130 -2.1128
  547MOL0     H73808   6.136   0.493   1.069 -1.8035 -0.3446 -1.2153
  547MOL0     H73809   5.787   0.553   0.903 -1.7827  0.9129 -0.7615
  547MOL0     H73810   5.562   0.507   0.863  1.2688  0.0707 -0.5449
  547MOL0     H73811   5.316   0.447   0.868  0.1956  1.3849 -0.4712
  547MOL0     H73812   5.384   0.321   0.969 -0.3553 -0.8946  2.4749
  547MOL0     H73813   5.148   0.287   0.921 -2.9973  0.7655  1.2984
  547MOL0     H73814   5.169   0.323   1.095  3.7541  0.8901  1.3429
  547MOL0     H73815   5.108   0.541   0.885 -0.2034 -2.4322 -1.1877
  547MOL0     H73816   5.085   0.556   1.062 -4.2702 -0.3825  0.3694
  547MOL0     H73817   4.928   0.392   0.863  2.0044  1.6809 -0.9626
  547MOL0     H73818   4.923   0.369   1.037 -0.2136  0.6386  0.4337
  547MOL0     H73819   4.827   0.620   0.911  0.1919 -0.9473 -1.1152
  547MOL0     H73820   4.857   0.599   1.086 -2.5435  1.0529 -0.2445
  547MOL0     H73821   4.685   0.395   1.069 -4.0397  0.5441  1.9838
  547MOL0     H73822   4.621   0.557   1.080 -0.4845 -1.2902  0.7257
  547MOL0     H73823   4.680   0.379   0.831 -0.5352  1.4368 -3.8203
  547MOL0     H73824   4.585   0.539   0.829  0.3967 -0.0723 -0.5440
  547MOL0     H73825   4.422   0.452   0.956 -0.7127 -0.9979  1.0792
  547MOL0     H73826   4.506   0.299   0.989  3.0503  0.9787  0.2626
  547MOL0     H73827   5.471   0.572   1.279 -0.4678  2.5626  0.4950
  547MOL0     H73828   5.707   0.626   1.328  0.5132 -0.4852  0.4344
  547MOL0     H73829   6.045   0.936   1.331  0.8010  0.8348  1.6835
  547MOL0     H73830   6.265   0.943   1.411 -0.4376 -1.5795  0.3783
  547MOL0     H73831   7.735   1.042   2.178 -1.0005 -0.6391  0.9351
  547MOL0     H73832   7.965   1.003   2.259  1.7359  1.3708 -0.2445
  547MOL0     H73833   8.436   0.779   2.030  0.9397  0.4281 -0.9226
  547MOL0     H73834   8.670   0.766   2.125 -0.2149 -1.0401  2.0958
  547MOL0     H73835   8.771   0.746   2.344  1.2285 -2.1042 -0.3292
  547MOL0     H73836   8.913   0.770   2.240  0.0842  2.6937 -2.0301
  547MOL0     H73837   9.022   0.912   2.403  1.1908 -1.5111  1.8551
  547MOL0     H73838   8.984   0.767   2.486 -0.0451 -0.9839  0.3669
  547MOL0     H73839   8.776   0.876   2.566 -0.3611  0.3820 -0.9246
  547MOL0     H73840   8.833   1.021   2.485  1.0543 -1.2226 -3.1592
  547MOL0     H73841   9.004   0.900   2.715 -0.9427  0.6116  5.2210
  547MOL0     H73842   8.868   0.995   2.756 -3.0563  0.3648 -2.6726
  547MOL0     H73843   9.197   1.240   2.628  2.0890 -1.7798 -0.3828
  547MOL0     H73844   8.636   1.139   2.313  1.7678 -1.3690  0.0062
  547MOL0     H73845   8.414   1.177   2.227 -1.2169 -1.2452  2.2026
  548MOL0     O73846   1.021   1.832   0.587 -0.2520 -0.3884  0.0499
  548MOL0     C73847   1.068   1.781   0.688  0.1198  0.4680 -0.8019
  548MOL0     O73848   1.001   1.723   0.792  0.0414  0.7785  0.5643
  548MOL0     C73849   0.865   1.701   0.768  0.0094 -0.6401 -0.0879
  548MOL0     C73850   0.819   1.587   0.703 -0.2321 -0.0664  0.6435
  548MOL0     C73851   0.691   1.567   0.676 -0.4730  0.3650 -0.0887
  548MOL0     C73852   0.593   1.662   0.707  0.3793 -0.7091 -0.2250
  548MOL0     O73853   0.454   1.653   0.698 -0.1645  0.2347 -0.7516
  548MOL0     C73854   0.385   1.538   0.638  0.0712 -0.5439 -0.7745
  548MOL0     C73855   0.383   1.544   0.480  0.2033 -0.3264  0.2046
  548MOL0     C73856   0.293   1.656   0.428  0.3839  0.1859 -1.0497
  548MOL0     C73857   0.282   1.654   0.277 -0.2976 -0.3479  0.1030
  548MOL0     C73858   0.204   1.771   0.219  0.1598  0.9279  0.4837
  548MOL0     C73859   0.059   1.754   0.237  0.0619  0.6748  0.0455
  548MOL0     C73860  -0.019   1.853   0.142 -1.1910  0.5132  0.4747
  548MOL0     C73861  -0.012   1.988   0.204  0.3566 -0.2107 -0.1988
  548MOL0     N73862  -0.136   2.051   0.161 -0.5640 -0.1442 -0.2146
  548MOL0     C73863  -0.171   2.066   0.034  0.4618  0.7429  0.2194
  548MOL0     C73864  -0.298   2.114   0.035 -0.4860 -0.8854  0.2391
  548MOL0     C73865  -0.382   2.160  -0.086  0.1371  0.4850  0.1532
  548MOL0     C73866  -0.459   2.045  -0.150 -0.5442 -0.3308 -0.3379
  548MOL0     C73867  -0.555   1.969  -0.056 -0.2097 -0.1919  0.0628
  548MOL0     C73868  -0.675   2.058  -0.012  0.9310 -0.3720  0.1289
  548MOL0     O73869  -0.758   2.113  -0.116 -0.2857  0.5478  0.5627
  548MOL0     C73870  -0.880   2.054  -0.139  0.1296  0.1136 -0.6043
  548MOL0     C73871  -0.949   2.109  -0.248  0.3572  0.8519 -1.0794
  548MOL0     C73872  -1.082   2.055  -0.276 -0.0904 -0.2835  1.2484
  548MOL0     C73873  -1.163   2.122  -0.386 -0.0537 -0.4718  0.2100
  548MOL0     C73874  -1.134   1.939  -0.207  0.9694  0.0143 -0.5837
  548MOL0     C73875  -1.274   1.881  -0.235  0.2734 -0.3133  0.2596
  548MOL0     O73876  -1.367   1.965  -0.286 -0.3185  0.0930 -0.0994
  548MOL0     C73877  -1.492   1.918  -0.299 -0.3915 -0.7708 -0.1319
  548MOL0     C73878  -1.546   1.886  -0.418  0.5104 -0.8749  0.3525
  548MOL0     C73879  -1.685   1.857  -0.430  0.3669  0.8723 -0.1275
  548MOL0     C73880  -1.770   1.875  -0.319 -0.4089 -0.4591 -0.1806
  548MOL0     O73881  -1.898   1.840  -0.342 -0.6565  0.6042  0.4444
  548MOL0     C73882  -2.000   1.911  -0.265  0.2449 -0.4655 -0.0929
  548MOL0     C73883  -2.132   1.856  -0.307 -0.0042  0.3712  0.3991
  548MOL0     C73884  -2.252   1.955  -0.310  0.5162  0.5592 -0.0620
  548MOL0     C73885  -2.374   1.869  -0.354 -0.3829 -0.9109  0.5373
  548MOL0     C73886  -2.511   1.937  -0.329 -0.3415  0.0661 -0.5358
  548MOL0     C73887  -2.628   1.874  -0.405 -0.7066  0.9598  0.5300
  548MOL0     C73888  -2.647   1.726  -0.358  0.1206  0.1346  0.1801
  548MOL0     C73889  -2.769   1.660  -0.425  0.0106 -0.4017  1.1859
  548MOL0    Cl73890  -2.787   1.482  -0.372  0.0768 -0.1706 -0.1854
  548MOL0     C73891  -1.715   1.921  -0.197 -0.2382 -0.5714  0.7988
  548MOL0     C73892  -1.578   1.941  -0.191 -0.0398  0.0765 -0.2827
  548MOL0     O73893  -1.293   1.767  -0.192  0.8136  0.0457  0.2787
  548MOL0     C73894  -1.059   1.880  -0.106 -0.3431  0.1098  0.8128
  548MOL0     C73895  -0.937   1.942  -0.067  0.0189 -0.1316  0.6070
  548MOL0     N73896  -0.346   2.120   0.165  0.2479 -1.3268  0.5840
  548MOL0     N73897  -0.239   2.090   0.241  0.4156 -0.3514 -1.2627
  548MOL0     C73898   0.633   1.785   0.751 -0.0047 -0.2042  0.6236
  548MOL0     C73899   0.774   1.811   0.769  0.1763  0.0791  0.4266
  548MOL0     C73900   1.219   1.766   0.685  0.3305 -0.0310 -0.8706
  548MOL0     C73901   1.291   1.824   0.582 -1.1605  0.4953  0.6566
  548MOL0     C73902   1.436   1.812   0.573  0.0173 -0.9762 -0.1528
  548MOL0     C73903   1.502   1.740   0.665 -0.4307  0.1255 -0.7743
  548MOL0     O73904   1.638   1.733   0.659 -0.0079  0.4168 -0.3165
  548MOL0     C73905   1.714   1.696   0.777 -0.8135 -0.0376  0.2293
  548MOL0     C73906   1.865   1.698   0.756 -0.3462 -0.4884  0.7954
  548MOL0     C73907   1.910   1.847   0.765  0.2930 -0.7935 -0.0980
  548MOL0     C73908   2.062   1.844   0.735  0.2203  0.2330  0.2382
  548MOL0     C73909   2.146   1.793   0.845  0.1859 -0.4216  1.0462
  548MOL0     C73910   2.215   1.758   0.940  0.4728 -1.0171  0.2167
  548MOL0     C73911   1.425   1.682   0.774 -0.0165 -0.8116 -0.6111
  548MOL0     C73912   1.290   1.699   0.779  0.1694  0.3211  0.2476
  548MOL0     H73913   0.876   1.497   0.682 -2.6622 -1.5410  0.0089
  548MOL0     H73914   0.657   1.469   0.641  0.3515  0.5262 -1.4179
  548MOL0     H73915   0.444   1.450   0.667  3.5116  2.0471  0.8323
  548MOL0     H73916   0.283   1.533   0.678  0.6705 -1.8837  0.7250
  548MOL0     H73917   0.488   1.557   0.451  0.1962 -1.3648 -0.3358
  548MOL0     H73918   0.356   1.441   0.454  2.6771 -0.6767 -1.3225
  548MOL0     H73919   0.201   1.646   0.487  1.9747  1.6220  1.9019
  548MOL0     H73920   0.337   1.754   0.449  0.0854 -0.2107  1.8870
  548MOL0     H73921   0.381   1.661   0.230 -0.7014 -2.0625 -1.1181
  548MOL0     H73922   0.241   1.558   0.243 -0.6171 -0.3390  0.4598
  548MOL0     H73923   0.238   1.863   0.268 -0.1496 -0.4126  3.4179
  548MOL0     H73924   0.232   1.773   0.113  1.3437 -1.5990  0.6592
  548MOL0     H73925   0.025   1.655   0.205 -1.6098  1.1427  0.2899
  548MOL0     H73926   0.023   1.760   0.340 -1.4199 -3.0998 -0.0862
  548MOL0     H73927   0.011   1.852   0.037 -1.1345  0.1534  0.4939
  548MOL0     H73928  -0.116   1.805   0.148 -0.5277 -0.6973  4.3814
  548MOL0     H73929   0.069   2.048   0.162 -0.8549  1.3867 -0.3909
  548MOL0     H73930  -0.009   1.983   0.313 -1.5502  0.4191 -0.0735
  548MOL0     H73931  -0.107   2.046  -0.051  2.1885  2.0745  1.1284
  548MOL0     H73932  -0.452   2.239  -0.062 -3.0653 -0.9065 -3.5311
  548MOL0     H73933  -0.313   2.197  -0.162 -2.1275  1.6478 -1.4120
  548MOL0     H73934  -0.389   1.977  -0.200 -0.0471  0.2959 -0.5188
  548MOL0     H73935  -0.520   2.096  -0.226  0.4178  1.1262 -0.1886
  548MOL0     H73936  -0.500   1.935   0.033 -2.4466  1.9196  2.4013
  548MOL0     H73937  -0.594   1.876  -0.100  0.2687 -1.5042  2.2450
  548MOL0     H73938  -0.632   2.142   0.043  1.0506 -0.7084  0.5566
  548MOL0     H73939  -0.734   2.011   0.068  0.4042  0.8468  0.4708
  548MOL0     H73940  -0.901   2.196  -0.290  3.9661  0.5644  1.9017
  548MOL0     H73941  -1.210   2.044  -0.447 -3.3278  1.0701  0.5557
  548MOL0     H73942  -1.256   2.164  -0.346  0.5646  1.2705 -0.1057
  548MOL0     H73943  -1.100   2.190  -0.443  1.4321 -0.6510  1.5773
  548MOL0     H73944  -1.479   1.862  -0.499  1.2962 -2.4896  1.4384
  548MOL0     H73945  -1.731   1.826  -0.523  3.4851  4.1722 -3.0682
  548MOL0     H73946  -1.991   1.893  -0.158 -0.2076 -2.0167 -0.2903
  548MOL0     H73947  -2.015   2.017  -0.289 -2.4228 -0.6291  0.5164
  548MOL0     H73948  -2.119   1.818  -0.409  0.5895 -1.3676  1.0828
  548MOL0     H73949  -2.159   1.768  -0.248  0.1604  0.6605  0.9101
  548MOL0     H73950  -2.251   2.036  -0.384 -1.4581 -0.0077 -0.7775
  548MOL0     H73951  -2.264   1.996  -0.209  0.2868 -0.8117  0.4899
  548MOL0     H73952  -2.354   1.863  -0.461 -0.3608 -0.5622  0.5204
  548MOL0     H73953  -2.376   1.766  -0.318  3.2935 -2.2202 -2.3692
  548MOL0     H73954  -2.501   2.036  -0.375  0.1620  0.7586  0.9953
  548MOL0     H73955  -2.532   1.945  -0.222 -0.4294  6.7631 -0.6444
  548MOL0     H73956  -2.723   1.927  -0.396 -1.7682 -1.0575  1.8953
  548MOL0     H73957  -2.607   1.870  -0.512 -0.8717 -3.2253  0.5053
  548MOL0     H73958  -2.665   1.727  -0.250  0.7154 -0.1671  0.2836
  548MOL0     H73959  -2.556   1.671  -0.383  1.8153  1.3403  3.1650
  548MOL0     H73960  -2.760   1.663  -0.534  0.2056 -1.7757  1.1470
  548MOL0     H73961  -2.858   1.715  -0.393 -1.3268  0.1361 -2.8015
  548MOL0     H73962  -1.785   1.941  -0.116 -4.6404  0.4812 -2.8546
  548MOL0     H73963  -1.544   1.981  -0.096 -0.5787 -0.6015  0.2083
  548MOL0     H73964  -1.091   1.785  -0.064  0.7193 -0.6414 -0.0408
  548MOL0     H73965  -0.882   1.887   0.008 -0.5226 -2.2307 -0.4776
  548MOL0     H73966   0.564   1.868   0.757 -0.3141 -0.4499  0.5132
  548MOL0     H73967   0.807   1.914   0.778 -1.5521  0.7264 -0.2041
  548MOL0     H73968   1.237   1.883   0.509 -6.1324 -1.3481  2.4160
  548MOL0     H73969   1.487   1.862   0.491  3.1635 -2.1002  0.9736
  548MOL0     H73970   1.697   1.755   0.868  2.1421 -0.8408  1.4277
  548MOL0     H73971   1.672   1.597   0.800 -3.1551 -0.1044 -3.5039
  548MOL0     H73972   1.886   1.659   0.656  0.0686  0.7583  0.3770
  548MOL0     H73973   1.906   1.632   0.833  0.2534 -0.4278  0.5330
  548MOL0     H73974   1.886   1.890   0.863 -0.1336  2.1170 -1.3552
  548MOL0     H73975   1.869   1.914   0.689  0.5372 -0.8468 -0.2772
  548MOL0     H73976   2.090   1.943   0.699 -1.9257  1.2949  1.2843
  548MOL0     H73977   2.082   1.775   0.652 -0.6365  1.0386 -0.6679
  548MOL0     H73978   2.288   1.717   1.007  0.2149  0.4610  1.4508
  548MOL0     H73979   1.471   1.623   0.852  1.3728 -0.7886 -1.3781
  548MOL0     H73980   1.223   1.651   0.849  1.5851  0.3872  1.6849
  549MOL0     O73981   0.492   4.544  10.342 -0.4479  0.2337  0.7519
  549MOL0     C73982   0.504   4.532  10.219  1.0468  0.1558 -0.6804
  549MOL0     O73983   0.398   4.535  10.132  0.3670  0.6741  0.1423
  549MOL0     C73984   0.284   4.579  10.187 -0.2499 -0.2220  0.4081
  549MOL0     C73985   0.258   4.719  10.190  0.8449  0.7685 -0.0673
  549MOL0     C73986   0.140   4.758  10.255  0.6107  0.8989 -0.2784
  549MOL0     C73987   0.062   4.665  10.317 -0.0014  0.5384  0.2584
  549MOL0     O73988  -0.056   4.696  10.376 -0.8512 -0.6361 -0.0648
  549MOL0     C73989  -0.109   4.836  10.380 -0.2232  0.7342 -0.1212
  549MOL0     C73990  -0.254   4.835  10.428  0.3936 -0.0074  0.0672
  549MOL0     C73991  -0.335   4.756  10.316  0.4026  0.6280  0.4912
  549MOL0     C73992  -0.484   4.765  10.357  0.6026 -0.0097  0.0387
  549MOL0     C73993  -0.541   4.900  10.318 -0.8283  0.6955  0.3993
  549MOL0     C73994  -0.695   4.900  10.346  0.3168  0.0249  0.1853
  549MOL0     C73995  -0.779   5.006  10.272 -0.6371 -0.3098  0.2874
  549MOL0     C73996  -0.932   5.011  10.322 -1.4340  0.0002 -0.1205
  549MOL0     N73997  -0.955   5.035  10.465 -0.3093 -1.0864 -0.1109
  549MOL0     C73998  -0.867   5.092  10.558  0.1471 -0.5967  0.3792
  549MOL0     C73999  -0.932   5.085  10.677 -0.0878  0.2785  0.5714
  549MOL0     C74000  -0.887   5.139  10.806 -0.3437  0.0662 -0.6970
  549MOL0     C74001  -0.851   5.290  10.797  0.3741 -0.0215  0.0824
  549MOL0     C74002  -0.771   5.352  10.912 -0.4665  1.3041 -0.7938
  549MOL0     C74003  -0.849   5.434  10.995 -0.0491  0.3157 -0.3259
  549MOL0     O74004  -0.973   5.364  11.042 -0.3917 -0.1098 -0.1984
  549MOL0     C74005  -1.081   5.437  11.090 -1.1396  0.5812 -0.1957
  549MOL0     C74006  -1.072   5.571  11.131  0.0539 -0.1254 -0.0385
  549MOL0     C74007  -1.186   5.639  11.161  0.2328 -0.0549  0.2051
  549MOL0     C74008  -1.170   5.791  11.181 -0.3922 -0.2875  0.2057
  549MOL0     C74009  -1.312   5.575  11.176  0.6315 -0.2028 -0.3742
  549MOL0     C74010  -1.441   5.634  11.221 -0.2598 -0.1477 -0.4389
  549MOL0     O74011  -1.432   5.735  11.324 -0.3876  0.3620  0.6510
  549MOL0     C74012  -1.539   5.817  11.348  0.2685 -0.9386 -0.3158
  549MOL0     C74013  -1.524   5.900  11.468 -0.3093  0.1253 -0.6441
  549MOL0     C74014  -1.621   5.997  11.505  0.5215 -0.0935  0.3274
  549MOL0     C74015  -1.740   6.007  11.425 -0.1029  0.7728  0.0183
  549MOL0     O74016  -1.856   6.072  11.459 -0.5569  0.6956  0.1564
  549MOL0     C74017  -1.841   6.156  11.571  0.4166  0.0339 -0.2516
  549MOL0     C74018  -1.974   6.234  11.584 -0.4493 -1.6045  0.0024
  549MOL0     C74019  -1.989   6.338  11.693 -0.9772  0.1273  0.4363
  549MOL0     C74020  -1.860   6.436  11.696 -0.3489  0.4460  0.2457
  549MOL0     C74021  -1.882   6.554  11.796  0.0213 -0.1598  0.5224
  549MOL0     C74022  -1.994   6.650  11.727  0.8066  1.2058  0.4297
  549MOL0     C74023  -1.979   6.787  11.793  0.4601  0.3269 -0.3840
  549MOL0     C74024  -2.113   6.861  11.796 -0.0792  0.4696 -0.4638
  549MOL0    Cl74025  -2.093   7.025  11.867 -0.1134  0.2136 -0.7060
  549MOL0     C74026  -1.747   5.932  11.309  0.1847 -0.1258  0.1451
  549MOL0     C74027  -1.652   5.837  11.270  0.2282 -0.0369 -0.4149
  549MOL0     O74028  -1.549   5.582  11.182 -0.3785 -0.1055 -0.2837
  549MOL0     C74029  -1.324   5.442  11.135  0.6735 -0.6804 -0.0204
  549MOL0     C74030  -1.210   5.375  11.092  0.0169 -0.9495  0.5575
  549MOL0     N74031  -1.053   5.019  10.651  0.3468  0.2171  0.7393
  549MOL0     N74032  -1.067   4.996  10.523  0.2323  0.6171  0.0777
  549MOL0     C74033   0.091   4.530  10.317  0.6210  0.0218  1.0229
  549MOL0     C74034   0.198   4.487  10.251 -0.8272 -0.3460 -1.0196
  549MOL0     C74035   0.641   4.533  10.156  0.1175 -0.3267  0.1634
  549MOL0     C74036   0.655   4.564  10.023  0.2051 -0.0668  0.4434
  549MOL0     C74037   0.781   4.572   9.963 -0.2866 -0.2835 -0.1329
  549MOL0     C74038   0.899   4.558  10.035  0.1174 -0.4694 -0.2687
  549MOL0     O74039   1.024   4.569   9.991 -0.2025 -0.5132  0.2910
  549MOL0     C74040   1.050   4.567   9.848 -0.5170 -0.9561  0.2612
  549MOL0     C74041   1.200   4.562   9.832 -0.3112  0.3384  1.1186
  549MOL0     C74042   1.280   4.664   9.907 -0.0346 -0.5508  0.3011
  549MOL0     C74043   1.431   4.654   9.885 -0.3079 -0.0037 -1.1363
  549MOL0     C74044   1.495   4.775   9.919  0.5995 -0.7396  0.4419
  549MOL0     C74045   1.548   4.886   9.939 -0.2960  0.3388  0.6459
  549MOL0     C74046   0.889   4.539  10.168 -0.6805  0.6427 -0.2720
  549MOL0     C74047   0.762   4.519  10.230  0.1661  0.3573  0.0195
  549MOL0     H74048   0.317   4.785  10.128 -1.7022  1.7781 -1.5812
  549MOL0     H74049   0.113   4.863  10.266 -0.4222  0.3906  5.9348
  549MOL0     H74050  -0.050   4.895  10.450  0.6239  2.4774 -2.2036
  549MOL0     H74051  -0.112   4.875  10.278  0.5850 -0.7019 -0.7302
  549MOL0     H74052  -0.269   4.785  10.524 -1.0986 -0.3122 -0.3019
  549MOL0     H74053  -0.296   4.934  10.450  1.1329 -0.2577  3.0269
  549MOL0     H74054  -0.315   4.804  10.221 -1.5863 -0.3108 -0.4608
  549MOL0     H74055  -0.305   4.651  10.317 -1.7679 -0.0765 -1.0988
  549MOL0     H74056  -0.538   4.681  10.313 -1.5541  1.9414 -1.2207
  549MOL0     H74057  -0.491   4.752  10.465  1.4989 -1.2515 -0.0183
  549MOL0     H74058  -0.503   4.983  10.379 -1.2786  1.7626 -0.7520
  549MOL0     H74059  -0.513   4.925  10.216  3.9549 -1.6764  0.8208
  549MOL0     H74060  -0.742   4.806  10.316  0.6901 -0.6548  1.6336
  549MOL0     H74061  -0.719   4.912  10.452 -1.0561  2.4683 -0.3473
  549MOL0     H74062  -0.726   5.101  10.280 -0.2504 -0.5314  0.3729
  549MOL0     H74063  -0.773   4.987  10.165  4.5584 -1.7906  0.5926
  549MOL0     H74064  -0.974   4.914  10.294 -0.1357 -0.2061 -1.5197
  549MOL0     H74065  -0.977   5.093  10.266 -0.0747  1.9608  1.4994
  549MOL0     H74066  -0.772   5.142  10.543 -0.6691  2.7720  4.4144
  549MOL0     H74067  -0.975   5.131  10.872  1.3772  0.8831  1.8366
  549MOL0     H74068  -0.810   5.071  10.842 -1.7138 -1.3108 -0.2162
  549MOL0     H74069  -0.938   5.355  10.789  0.5083  0.5032  2.2823
  549MOL0     H74070  -0.784   5.298  10.711 -1.7415  1.3617 -1.5363
  549MOL0     H74071  -0.686   5.401  10.862 -1.1091  1.3767 -1.8499
  549MOL0     H74072  -0.735   5.276  10.982 -3.7061  1.0620  0.7540
  549MOL0     H74073  -0.878   5.523  10.939 -0.8056  1.5887  1.9444
  549MOL0     H74074  -0.793   5.479  11.078 -0.6627  0.0559  0.2429
  549MOL0     H74075  -0.976   5.620  11.145  0.7441 -1.5255  0.3327
  549MOL0     H74076  -1.180   5.847  11.087 -2.4821  0.9544  1.0782
  549MOL0     H74077  -1.236   5.824  11.262 -1.2923  0.5844 -0.8432
  549MOL0     H74078  -1.068   5.820  11.206 -0.2186  0.6996 -1.5026
  549MOL0     H74079  -1.435   5.885  11.528 -0.2767  1.9318 -0.1924
  549MOL0     H74080  -1.610   6.048  11.600 -0.6400 -0.4105  0.6381
  549MOL0     H74081  -1.819   6.099  11.662  0.0296  0.3620  0.0509
  549MOL0     H74082  -1.756   6.223  11.557  0.2845  0.0785 -0.8691
  549MOL0     H74083  -1.977   6.299  11.496  0.5572  0.3761  1.3484
  549MOL0     H74084  -2.063   6.172  11.594 -1.3557 -0.0278  3.0599
  549MOL0     H74085  -1.999   6.291  11.791  0.2320 -2.4980 -0.6067
  549MOL0     H74086  -2.085   6.385  11.668 -1.2075  0.4646  1.8579
  549MOL0     H74087  -1.782   6.372  11.739 -0.8485 -0.6928 -0.4984
  549MOL0     H74088  -1.839   6.471  11.595 -1.9826  2.1853  0.4542
  549MOL0     H74089  -1.796   6.618  11.818 -0.0880  1.3419 -2.8059
  549MOL0     H74090  -1.916   6.512  11.891  1.0460 -2.2663  0.0244
  549MOL0     H74091  -1.975   6.674  11.622 -0.8729 -0.9628 -0.4384
  549MOL0     H74092  -2.087   6.594  11.741  1.3733 -0.1555 -0.9638
  549MOL0     H74093  -1.916   6.852  11.732  2.2799 -2.0128 -1.1777
  549MOL0     H74094  -1.941   6.772  11.894  1.6429 -0.8371 -0.9665
  549MOL0     H74095  -2.194   6.821  11.858 -0.7875  0.2151 -1.5212
  549MOL0     H74096  -2.152   6.862  11.693 -2.4749  2.7980  0.3328
  549MOL0     H74097  -1.832   5.932  11.243  0.7147 -1.1502 -0.5683
  549MOL0     H74098  -1.670   5.790  11.174  0.0443  0.1938 -0.4962
  549MOL0     H74099  -1.417   5.387  11.145  1.1658 -1.4077  0.6786
  549MOL0     H74100  -1.222   5.278  11.046  0.5692 -0.0864 -1.5529
  549MOL0     H74101   0.020   4.459  10.358 -0.3717 -0.0638 -0.7518
  549MOL0     H74102   0.222   4.381  10.247  0.3680 -0.1590  0.1291
  549MOL0     H74103   0.568   4.591   9.964  1.6311 -0.5612 -2.0191
  549MOL0     H74104   0.767   4.594   9.858  1.1546 -2.2828 -0.7793
  549MOL0     H74105   1.003   4.484   9.796 -1.2483  0.0573 -0.7482
  549MOL0     H74106   1.017   4.661   9.803  0.9227 -0.3511  0.4031
  549MOL0     H74107   1.230   4.572   9.727  0.5297  1.3048  1.4347
  549MOL0     H74108   1.234   4.465   9.870  0.7943  1.0903  2.1530
  549MOL0     H74109   1.247   4.664  10.011  1.5235 -3.6741  0.9188
  549MOL0     H74110   1.258   4.763   9.866 -0.2107 -0.2087  1.1934
  549MOL0     H74111   1.447   4.636   9.778  1.7794  1.1420 -1.0619
  549MOL0     H74112   1.468   4.573   9.948  0.2224  2.0497  1.3601
  549MOL0     H74113   1.603   4.977   9.955 -0.1637  0.3071  0.3715
  549MOL0     H74114   0.987   4.538  10.213  0.7583  1.7943 -3.1403
  549MOL0     H74115   0.756   4.503  10.337  1.6735  0.2627  0.1156
  550MOL0     O74116   6.248   4.018   6.583 -0.3779  0.2107 -0.2923
  550MOL0     C74117   6.299   4.017   6.695 -0.5134 -0.2505 -1.3679
  550MOL0     O74118   6.237   3.984   6.815 -0.1848 -0.5650 -0.8767
  550MOL0     C74119   6.106   3.937   6.834 -0.7729 -0.2189 -0.6508
  550MOL0     C74120   6.001   3.941   6.739  0.2356 -0.1366 -0.0819
  550MOL0     C74121   5.873   3.887   6.758  0.0215  0.0852 -0.4410
  550MOL0     C74122   5.854   3.836   6.882 -0.2893  0.2197  0.0504
  550MOL0     O74123   5.732   3.784   6.911 -0.4924 -0.7149  0.7479
  550MOL0     C74124   5.623   3.877   6.930 -0.1836 -0.5738  0.5100
  550MOL0     C74125   5.612   3.931   7.071 -0.1036  0.3896  0.3562
  550MOL0     C74126   5.490   4.016   7.080 -0.1406 -0.7291 -0.2547
  550MOL0     C74127   5.363   3.936   7.132  0.0832 -0.3077 -0.7289
  550MOL0     C74128   5.240   4.023   7.165  0.6386 -0.2724 -0.1751
  550MOL0     C74129   5.117   3.944   7.202 -0.5499  0.6655  0.0059
  550MOL0     C74130   4.992   4.023   7.191 -0.1262  0.3671 -0.4112
  550MOL0     C74131   4.950   4.043   7.043 -0.4978 -0.8287  0.8054
  550MOL0     N74132   4.817   4.093   7.036  0.2807  0.2792  0.2428
  550MOL0     C74133   4.774   4.220   7.038 -0.6180  0.1431 -0.6345
  550MOL0     C74134   4.643   4.215   7.033  1.3591  0.3139  0.0189
  550MOL0     C74135   4.539   4.318   7.038 -0.3734 -0.5236  0.0524
  550MOL0     C74136   4.411   4.290   6.963  0.1613  0.1580  0.5659
  550MOL0     C74137   4.323   4.418   6.939 -0.5341  0.9488  0.4806
  550MOL0     C74138   4.194   4.382   6.860 -0.2419  0.8795 -0.1234
  550MOL0     O74139   4.109   4.313   6.949  0.4956  0.4695 -0.0280
  550MOL0     C74140   4.023   4.368   7.039 -0.3821 -0.2674  0.2518
  550MOL0     C74141   3.946   4.288   7.112 -0.1655  0.1974 -0.4019
  550MOL0     C74142   3.850   4.329   7.203  0.6040  0.0188  0.1426
  550MOL0     C74143   3.792   4.222   7.294  0.1865 -0.2053 -0.6960
  550MOL0     C74144   3.820   4.466   7.211 -0.1980  0.5088 -0.2945
  550MOL0     C74145   3.715   4.531   7.292 -0.4799  0.3591 -0.4376
  550MOL0     O74146   3.628   4.448   7.351  0.2853  0.4603  0.1562
  550MOL0     C74147   3.519   4.490   7.419 -0.4016  0.1465  0.7666
  550MOL0     C74148   3.485   4.438   7.542  0.6907 -0.0730  0.0857
  550MOL0     C74149   3.366   4.480   7.607 -0.6382  1.6798  0.2716
  550MOL0     C74150   3.283   4.573   7.552 -0.1453 -0.1228 -0.3816
  550MOL0     O74151   3.173   4.604   7.630 -0.1206  0.9364 -0.7227
  550MOL0     C74152   3.069   4.659   7.557  0.0479  0.9625  0.1280
  550MOL0     C74153   2.939   4.663   7.630  0.3836 -0.7209 -0.1166
  550MOL0     C74154   2.845   4.769   7.557  0.5464 -0.5465  0.2604
  550MOL0     C74155   2.724   4.799   7.633 -0.2045  0.2294  0.0762
  550MOL0     C74156   2.624   4.898   7.571 -0.2660  0.0016  1.3253
  550MOL0     C74157   2.501   4.941   7.645 -0.4057 -0.5334 -0.5058
  550MOL0     C74158   2.530   5.069   7.719  0.1227  0.3755 -0.0318
  550MOL0     C74159   2.414   5.124   7.813 -0.4694  0.0618  0.2772
  550MOL0    Cl74160   2.255   5.109   7.737  0.1259  0.1268  0.4535
  550MOL0     C74161   3.320   4.628   7.427 -1.0505  0.2206 -0.8013
  550MOL0     C74162   3.431   4.581   7.360 -0.1022  0.1766 -0.0578
  550MOL0     O74163   3.708   4.655   7.289 -0.3129  0.6693 -0.2761
  550MOL0     C74164   3.905   4.554   7.132 -0.0548 -0.4147 -0.1725
  550MOL0     C74165   4.006   4.508   7.044  0.5782  0.1109 -0.3296
  550MOL0     N74166   4.604   4.089   7.043 -0.3543 -0.8410 -1.0145
  550MOL0     N74167   4.706   4.016   7.043 -0.0799  0.1422 -0.1214
  550MOL0     C74168   5.947   3.844   6.980 -0.8602  0.4432 -0.6966
  550MOL0     C74169   6.074   3.885   6.954  0.7900 -0.2798 -0.2751
  550MOL0     C74170   6.419   4.104   6.714 -1.0938  0.0947 -0.4059
  550MOL0     C74171   6.472   4.122   6.840 -0.2665  0.0404 -0.6078
  550MOL0     C74172   6.599   4.186   6.856  0.9080  0.0719 -0.1901
  550MOL0     C74173   6.665   4.240   6.738 -0.5086 -0.4585 -0.2089
  550MOL0     O74174   6.786   4.299   6.762  0.7698 -0.2353  0.2483
  550MOL0     C74175   6.839   4.383   6.657  0.1717 -0.9966 -0.7756
  550MOL0     C74176   6.973   4.412   6.720  0.5129  1.2808  0.2158
  550MOL0     C74177   7.077   4.502   6.641  0.3292 -0.5385  0.5306
  550MOL0     C74178   7.046   4.658   6.659  0.3138  0.3837  0.3887
  550MOL0     C74179   7.134   4.717   6.764 -0.2639  1.5072  0.2650
  550MOL0     C74180   7.223   4.761   6.830 -0.8421 -0.4684 -0.3988
  550MOL0     C74181   6.607   4.226   6.614  0.6176  0.6774  0.1503
  550MOL0     C74182   6.487   4.153   6.604  0.8906  0.6718 -0.0945
  550MOL0     H74183   6.008   3.996   6.645  1.3273  0.3339  0.2585
  550MOL0     H74184   5.793   3.871   6.686 -1.1500  0.5070  0.7286
  550MOL0     H74185   5.635   3.961   6.860 -2.1588 -2.0979 -1.8135
  550MOL0     H74186   5.534   3.826   6.891  1.2120 -2.2922 -0.5817
  550MOL0     H74187   5.617   3.849   7.144  1.4571 -0.4878 -0.6788
  550MOL0     H74188   5.701   3.992   7.088  0.6084 -0.6979  0.6071
  550MOL0     H74189   5.502   4.087   7.162 -3.2181 -1.6243  1.1194
  550MOL0     H74190   5.468   4.075   6.990  0.2128  1.5651  1.0820
  550MOL0     H74191   5.340   3.860   7.058  1.2632 -0.5363 -0.8846
  550MOL0     H74192   5.392   3.881   7.222  0.3701  0.0783 -0.5830
  550MOL0     H74193   5.265   4.084   7.253 -2.5771  0.3723  0.4071
  550MOL0     H74194   5.218   4.094   7.084 -0.5639 -0.4447 -0.0073
  550MOL0     H74195   5.104   3.858   7.136 -1.5056 -1.2568  2.5397
  550MOL0     H74196   5.135   3.906   7.303  0.4588 -1.6631 -0.9737
  550MOL0     H74197   4.922   3.960   7.247  0.6516 -2.0015 -1.9975
  550MOL0     H74198   5.010   4.122   7.234 -0.4358  0.6221 -0.8616
  550MOL0     H74199   4.952   3.942   7.000  0.5588 -0.6325  0.3712
  550MOL0     H74200   5.024   4.107   6.995 -0.5103 -1.5841 -0.2436
  550MOL0     H74201   4.829   4.313   7.036 -0.8617  0.3879  1.6366
  550MOL0     H74202   4.512   4.318   7.144  1.3264 -2.9071  0.5628
  550MOL0     H74203   4.577   4.416   7.008  1.7162 -0.7126  1.8249
  550MOL0     H74204   4.353   4.212   7.014  0.4461 -0.5111 -0.1136
  550MOL0     H74205   4.447   4.240   6.872  0.9634 -1.1185  1.5648
  550MOL0     H74206   4.381   4.497   6.891 -1.0555  1.4162  0.6063
  550MOL0     H74207   4.298   4.463   7.036 -2.0396 -3.1293  2.2106
  550MOL0     H74208   4.233   4.315   6.783  0.3744  1.2451 -0.1310
  550MOL0     H74209   4.145   4.465   6.807 -1.2498  0.0080 -0.5933
  550MOL0     H74210   3.977   4.184   7.116  2.9093  1.0409  0.8378
  550MOL0     H74211   3.686   4.204   7.273  0.6059 -2.0478 -1.4687
  550MOL0     H74212   3.838   4.125   7.271 -1.2073 -0.9529 -0.3996
  550MOL0     H74213   3.810   4.261   7.394  2.6867 -0.0594 -1.1396
  550MOL0     H74214   3.549   4.362   7.585 -0.7781 -0.5476  1.5419
  550MOL0     H74215   3.337   4.424   7.696 -0.1012 -0.5706 -0.8996
  550MOL0     H74216   3.092   4.758   7.515  0.2277  0.2070 -1.6471
  550MOL0     H74217   3.051   4.594   7.472 -4.1470  0.6287  1.0941
  550MOL0     H74218   2.893   4.563   7.634  0.2282 -0.6172  1.9906
  550MOL0     H74219   2.951   4.694   7.734  0.7671 -0.5822 -0.2004
  550MOL0     H74220   2.812   4.731   7.460 -0.1862  3.6169 -1.3417
  550MOL0     H74221   2.900   4.860   7.531 -1.5177  0.4746 -0.8070
  550MOL0     H74222   2.674   4.704   7.652 -0.6556 -0.2344 -2.8207
  550MOL0     H74223   2.756   4.839   7.729  3.1089  0.8699 -1.1826
  550MOL0     H74224   2.589   4.849   7.479  0.3848  4.8772 -1.8993
  550MOL0     H74225   2.673   4.989   7.535 -0.0468  0.8088  3.5379
  550MOL0     H74226   2.421   4.965   7.575  0.0405  0.5678 -0.6573
  550MOL0     H74227   2.470   4.861   7.713  2.1135 -1.3045 -0.1629
  550MOL0     H74228   2.550   5.145   7.643 -3.1559  0.3542 -1.0922
  550MOL0     H74229   2.626   5.071   7.771 -0.4865  0.0572  1.1372
  550MOL0     H74230   2.438   5.231   7.821  4.6455 -0.5933 -2.2840
  550MOL0     H74231   2.419   5.079   7.912  2.5278  1.4177  0.8594
  550MOL0     H74232   3.251   4.695   7.378 -2.9483 -0.6726  0.5315
  550MOL0     H74233   3.447   4.625   7.263 -2.2710  2.7192  0.6338
  550MOL0     H74234   3.914   4.661   7.145  3.2606 -0.4483 -1.3778
  550MOL0     H74235   4.064   4.578   6.984 -1.2079  1.3161 -0.7452
  550MOL0     H74236   5.922   3.800   7.076 -0.3650  0.8072 -0.4001
  550MOL0     H74237   6.146   3.877   7.035 -0.3661 -1.9839  0.6425
  550MOL0     H74238   6.424   4.082   6.929 -0.6434 -0.8437 -1.1837
  550MOL0     H74239   6.637   4.214   6.954 -0.1297  0.2665  0.1711
  550MOL0     H74240   6.852   4.336   6.559  1.7522 -2.4998  0.1070
  550MOL0     H74241   6.785   4.478   6.647  1.3717 -0.4194 -2.4167
  550MOL0     H74242   7.019   4.314   6.732 -0.3912  0.6925 -0.9141
  550MOL0     H74243   6.952   4.457   6.818  1.9770  1.4043  0.4968
  550MOL0     H74244   7.086   4.471   6.537 -2.4368 -0.3848  0.1916
  550MOL0     H74245   7.174   4.487   6.690  0.2942 -0.3413  0.6652
  550MOL0     H74246   6.946   4.678   6.701 -1.5179  1.8525 -4.0917
  550MOL0     H74247   7.047   4.709   6.562 -2.2341  2.5393  1.3701
  550MOL0     H74248   7.293   4.808   6.895 -1.9050  0.8730 -0.1870
  550MOL0     H74249   6.656   4.270   6.528 -2.0743  0.7073 -1.4854
  550MOL0     H74250   6.470   4.149   6.497  1.3763  1.1611 -0.1957
  551MOL0     O74251   0.217   2.765   4.896 -0.0946 -0.2863 -0.5533
  551MOL0     C74252   0.239   2.688   4.806 -0.5122  0.2656 -0.6827
  551MOL0     O74253   0.149   2.663   4.707 -0.3470 -0.5516 -0.2948
  551MOL0     C74254   0.048   2.758   4.691 -0.2816 -0.0760 -0.3204
  551MOL0     C74255   0.077   2.889   4.643  0.9714 -0.4491 -0.0433
  551MOL0     C74256  -0.035   2.977   4.616 -0.5828 -0.2099 -0.7719
  551MOL0     C74257  -0.166   2.945   4.659  0.0292 -0.0049  0.7358
  551MOL0     O74258  -0.255   3.044   4.643  0.2467  0.3476  0.2025
  551MOL0     C74259  -0.391   3.006   4.660  1.3384 -0.0980  0.5316
  551MOL0     C74260  -0.479   3.128   4.610  0.2778  0.1479  0.3464
  551MOL0     C74261  -0.625   3.122   4.669  0.0786 -0.2511  0.5293
  551MOL0     C74262  -0.703   2.988   4.656  0.3072  1.2114 -1.0670
  551MOL0     C74263  -0.843   2.993   4.720  0.3479  0.0000  0.1510
  551MOL0     C74264  -0.920   2.859   4.690  0.5342 -0.1810 -0.0345
  551MOL0     C74265  -1.059   2.858   4.756  0.0742 -0.5919  0.1397
  551MOL0     C74266  -1.148   2.959   4.705  0.3508 -0.5383  0.2604
  551MOL0     N74267  -1.292   2.946   4.747  0.1510  0.7396  0.7813
  551MOL0     C74268  -1.342   2.876   4.856 -0.0034  0.5884  0.6123
  551MOL0     C74269  -1.475   2.878   4.845 -0.2530 -0.3574  0.7359
  551MOL0     C74270  -1.580   2.851   4.941 -0.2598 -0.8783 -0.2173
  551MOL0     C74271  -1.699   2.777   4.880  0.0300 -0.5120 -1.4672
  551MOL0     C74272  -1.669   2.637   4.835 -0.0791 -0.0449 -0.1442
  551MOL0     C74273  -1.789   2.555   4.787 -0.0351 -0.4754  0.1543
  551MOL0     O74274  -1.816   2.600   4.645  0.3785  0.5852 -0.4527
  551MOL0     C74275  -1.939   2.562   4.603 -0.2187 -0.6148  0.7790
  551MOL0     C74276  -1.991   2.649   4.502  0.6283  1.4098  0.4442
  551MOL0     C74277  -2.111   2.618   4.439 -0.1735  0.4897 -0.9987
  551MOL0     C74278  -2.140   2.708   4.322  0.0765 -0.2379 -0.0518
  551MOL0     C74279  -2.190   2.507   4.485 -0.3315  0.4303 -0.0712
  551MOL0     C74280  -2.317   2.470   4.418  0.2834 -0.8455  0.5185
  551MOL0     O74281  -2.389   2.578   4.378 -0.0738  0.1910  0.2088
  551MOL0     C74282  -2.514   2.554   4.328  0.4583 -0.3932 -0.1484
  551MOL0     C74283  -2.621   2.597   4.398  0.2184 -0.1071 -0.1707
  551MOL0     C74284  -2.749   2.599   4.336 -0.4144  0.3704  0.2375
  551MOL0     C74285  -2.777   2.554   4.209 -0.5978 -0.3353  0.0758
  551MOL0     O74286  -2.909   2.546   4.168 -0.6501  0.5255  0.4564
  551MOL0     C74287  -2.939   2.492   4.040 -0.5693  0.2277 -0.2019
  551MOL0     C74288  -3.089   2.513   4.025 -0.5086 -0.2573  0.4308
  551MOL0     C74289  -3.139   2.475   3.878 -0.6573  0.3503  0.0830
  551MOL0     C74290  -3.292   2.489   3.883  0.6069  0.0893  0.8648
  551MOL0     C74291  -3.349   2.438   3.744 -0.2139 -0.6060  0.4301
  551MOL0     C74292  -3.490   2.489   3.714  0.0062 -0.2144  0.0838
  551MOL0     C74293  -3.562   2.424   3.582  0.3723 -0.5801  0.2572
  551MOL0     C74294  -3.485   2.450   3.451  0.2561  0.1483 -0.3911
  551MOL0    Cl74295  -3.439   2.625   3.438 -0.5667  0.1349 -0.0708
  551MOL0     C74296  -2.662   2.532   4.136 -0.6227  0.5795  0.1618
  551MOL0     C74297  -2.528   2.535   4.195 -0.2358  0.9349  0.0274
  551MOL0     O74298  -2.348   2.351   4.413  0.3368 -0.3737 -0.2455
  551MOL0     C74299  -2.140   2.425   4.591  0.9623  0.5067 -0.0248
  551MOL0     C74300  -2.016   2.452   4.652 -0.2577 -0.1715  0.1420
  551MOL0     N74301  -1.498   2.939   4.727  0.0871 -0.2820  0.1573
  551MOL0     N74302  -1.395   2.984   4.669 -0.1714 -0.2453 -0.2531
  551MOL0     C74303  -0.192   2.819   4.715 -0.5029  1.2395  0.7075
  551MOL0     C74304  -0.081   2.724   4.729  1.0135  0.1290 -0.4377
  551MOL0     C74305   0.375   2.631   4.803 -0.4241 -1.0828 -0.3723
  551MOL0     C74306   0.477   2.668   4.896  0.6048  0.4502  0.5734
  551MOL0     C74307   0.599   2.613   4.883  0.0157  0.6784  0.0949
  551MOL0     C74308   0.631   2.520   4.790 -0.0627 -0.2419  0.7039
  551MOL0     O74309   0.757   2.468   4.814  0.1396 -0.4314 -0.3441
  551MOL0     C74310   0.822   2.382   4.721  0.8924 -0.3993  0.6009
  551MOL0     C74311   0.879   2.439   4.591  0.2167 -1.0536  0.2134
  551MOL0     C74312   0.947   2.575   4.604 -0.2394  0.4392 -0.0913
  551MOL0     C74313   1.061   2.601   4.502 -0.2853 -0.4508 -0.4135
  551MOL0     C74314   1.018   2.620   4.373 -0.0533 -0.3575  0.5200
  551MOL0     C74315   0.972   2.653   4.261  0.6914 -0.8085 -0.0702
  551MOL0     C74316   0.534   2.480   4.693  0.4712  0.1626  0.3246
  551MOL0     C74317   0.404   2.530   4.703 -0.4891 -0.6180  0.6497
  551MOL0     H74318   0.179   2.924   4.628  0.7548  0.2798  0.1467
  551MOL0     H74319   0.002   3.066   4.567  1.7256 -0.1727  0.8589
  551MOL0     H74320  -0.414   2.911   4.611  2.2469 -1.2352  2.2120
  551MOL0     H74321  -0.413   2.994   4.766 -0.6892 -2.8485 -0.0865
  551MOL0     H74322  -0.432   3.225   4.628 -1.7543  1.7179 -2.1642
  551MOL0     H74323  -0.498   3.126   4.502  2.0127  0.1125  0.0104
  551MOL0     H74324  -0.604   3.131   4.776  1.5035 -3.0405  0.5688
  551MOL0     H74325  -0.683   3.204   4.627  1.1425 -0.3854 -1.2991
  551MOL0     H74326  -0.702   2.978   4.547  1.7226  2.1450 -1.1645
  551MOL0     H74327  -0.655   2.900   4.698  0.1465  1.3462 -0.5981
  551MOL0     H74328  -0.838   3.016   4.826  0.9795  1.6011 -0.1966
  551MOL0     H74329  -0.897   3.084   4.692 -0.1174 -0.8961 -2.0901
  551MOL0     H74330  -0.929   2.832   4.584 -2.0171  0.0645  0.0710
  551MOL0     H74331  -0.866   2.770   4.722  0.7190  0.4886  1.6284
  551MOL0     H74332  -1.103   2.758   4.754  1.3446 -1.1643 -0.7061
  551MOL0     H74333  -1.039   2.890   4.859  1.0663  0.5775 -0.3953
  551MOL0     H74334  -1.142   2.960   4.595 -0.8341  0.9002  0.1873
  551MOL0     H74335  -1.114   3.057   4.739 -0.7366 -0.4522  1.1358
  551MOL0     H74336  -1.287   2.836   4.941 -0.1571 -0.0513  0.4125
  551MOL0     H74337  -1.543   2.791   5.026  2.0766  1.8993  0.9007
  551MOL0     H74338  -1.613   2.944   4.987  0.0824 -0.2378 -1.2548
  551MOL0     H74339  -1.750   2.838   4.804 -0.2898  0.4328 -0.5143
  551MOL0     H74340  -1.774   2.772   4.960 -3.1813 -0.1134 -4.1929
  551MOL0     H74341  -1.624   2.590   4.923 -2.2929  0.4644  1.3267
  551MOL0     H74342  -1.604   2.647   4.747 -1.5086  3.0040 -0.9838
  551MOL0     H74343  -1.879   2.581   4.843  0.4341  0.0214  0.6867
  551MOL0     H74344  -1.783   2.447   4.798 -2.2515 -0.9058 -1.9960
  551MOL0     H74345  -1.937   2.742   4.486  1.9804  0.4238 -1.0094
  551MOL0     H74346  -2.198   2.793   4.360  1.7278  1.0022 -0.2034
  551MOL0     H74347  -2.045   2.735   4.275 -0.0909 -2.8442 -2.0766
  551MOL0     H74348  -2.196   2.652   4.246 -0.8391 -1.3816  1.3969
  551MOL0     H74349  -2.616   2.632   4.501 -2.0762 -2.4032  0.8435
  551MOL0     H74350  -2.832   2.642   4.390  0.8538  2.8189  0.3579
  551MOL0     H74351  -2.880   2.545   3.964 -1.0407 -0.2790 -0.9354
  551MOL0     H74352  -2.898   2.392   4.026  0.4266  0.6724 -0.5909
  551MOL0     H74353  -3.143   2.453   4.099 -0.2147 -0.4236  0.5122
  551MOL0     H74354  -3.114   2.616   4.051 -0.0141 -0.9317  4.1307
  551MOL0     H74355  -3.110   2.373   3.851  2.7513  1.5474 -1.2839
  551MOL0     H74356  -3.094   2.549   3.810 -0.2264 -1.1764 -1.3504
  551MOL0     H74357  -3.341   2.426   3.958 -1.6808 -1.3830 -1.6661
  551MOL0     H74358  -3.315   2.594   3.900 -0.5037  0.1029 -0.5661
  551MOL0     H74359  -3.339   2.330   3.729 -0.1142 -0.1432 -4.3303
  551MOL0     H74360  -3.285   2.477   3.665 -0.7410  0.3461  0.4560
  551MOL0     H74361  -3.549   2.466   3.803  0.1760 -1.1073 -0.0174
  551MOL0     H74362  -3.487   2.598   3.713 -1.1633 -0.0860 -3.0948
  551MOL0     H74363  -3.652   2.486   3.584  1.4674  1.0946  1.9852
  551MOL0     H74364  -3.585   2.318   3.589  0.4493 -0.6397 -0.3588
  551MOL0     H74365  -3.551   2.430   3.366 -1.2230  2.3928  0.1720
  551MOL0     H74366  -3.391   2.393   3.447  0.9535  1.2935 -1.1302
  551MOL0     H74367  -2.673   2.496   4.035 -4.1154 -3.1684  1.5989
  551MOL0     H74368  -2.443   2.521   4.128 -2.4934 -1.2669 -2.6344
  551MOL0     H74369  -2.203   2.344   4.623  0.3358  0.6299 -0.8989
  551MOL0     H74370  -1.982   2.386   4.731 -1.1776 -0.3586  0.3961
  551MOL0     H74371  -0.285   2.797   4.766 -0.9893  2.8197  0.5427
  551MOL0     H74372  -0.107   2.632   4.781  2.6195 -0.8400 -1.2824
  551MOL0     H74373   0.455   2.735   4.979  0.4753  2.5528 -1.0496
  551MOL0     H74374   0.666   2.657   4.957  0.1666  0.8801 -0.1569
  551MOL0     H74375   0.905   2.325   4.765  1.1143 -1.1914 -0.7709
  551MOL0     H74376   0.744   2.312   4.689  0.0854 -0.0135  1.6645
  551MOL0     H74377   0.813   2.459   4.507  0.5828  0.9825  0.3527
  551MOL0     H74378   0.948   2.370   4.542 -0.6256 -2.2408  0.6522
  551MOL0     H74379   0.994   2.572   4.703 -2.0019 -1.7593  0.7762
  551MOL0     H74380   0.875   2.655   4.623 -1.6191 -1.2605  2.4233
  551MOL0     H74381   1.124   2.512   4.504 -1.4383 -1.3467 -1.8515
  551MOL0     H74382   1.122   2.686   4.536 -0.8444 -0.2046 -0.0107
  551MOL0     H74383   0.942   2.678   4.161  1.4480 -1.1167 -0.3822
  551MOL0     H74384   0.553   2.413   4.609 -0.6334  3.2838 -2.6746
  551MOL0     H74385   0.323   2.499   4.638 -1.2057  1.2657  0.5814
  552MOL0     O74386  10.103   3.698   3.891 -0.1021 -0.6429 -0.2388
  552MOL0     C74387  10.145   3.807   3.935  0.4413 -0.4377 -0.2168
  552MOL0     O74388  10.060   3.914   3.969  0.0311 -0.0610 -0.0286
  552MOL0     C74389   9.922   3.919   3.956  0.0593 -0.4152  0.1730
  552MOL0     C74390   9.847   3.834   3.874 -0.0916  0.6923  0.5156
  552MOL0     C74391   9.710   3.841   3.865  0.8568  0.2584  0.1798
  552MOL0     C74392   9.640   3.942   3.934 -0.5148 -0.9416 -0.4051
  552MOL0     O74393   9.506   3.958   3.921  0.4884  0.0640 -0.2713
  552MOL0     C74394   9.427   3.866   3.842  0.0224  0.1176  0.1725
  552MOL0     C74395   9.277   3.909   3.846 -0.3594 -0.2211  0.8619
  552MOL0     C74396   9.186   3.828   3.752 -0.4480  0.4126 -0.1398
  552MOL0     C74397   9.210   3.854   3.599  0.3264  0.5023  0.0074
  552MOL0     C74398   9.102   3.809   3.501  0.4011 -0.7630 -0.2254
  552MOL0     C74399   9.058   3.655   3.519  0.2201 -0.4759 -0.7436
  552MOL0     C74400   8.979   3.604   3.395 -0.3363 -0.2766 -0.8591
  552MOL0     C74401   8.824   3.596   3.420 -0.6035  0.0887  0.2439
  552MOL0     N74402   8.762   3.727   3.413 -0.5693 -0.6790 -0.2764
  552MOL0     C74403   8.682   3.786   3.506  0.3251 -0.0152 -0.0617
  552MOL0     C74404   8.652   3.910   3.460 -0.5836 -0.1536 -0.1542
  552MOL0     C74405   8.583   4.022   3.532  0.4438  0.1331 -0.0292
  552MOL0     C74406   8.431   4.028   3.490  0.3066 -0.4531  0.4100
  552MOL0     C74407   8.362   4.144   3.558  0.5697  0.0682  0.7485
  552MOL0     C74408   8.228   4.192   3.492  0.4156  0.2685 -0.2983
  552MOL0     O74409   8.139   4.248   3.594  0.3369 -0.1782  0.5846
  552MOL0     C74410   8.022   4.305   3.550  0.2196 -0.3224 -0.2748
  552MOL0     C74411   7.975   4.309   3.415  0.2118  0.6195  0.5246
  552MOL0     C74412   7.847   4.365   3.380 -0.4930  0.1194 -0.2811
  552MOL0     C74413   7.814   4.367   3.237  0.1849 -0.3516  0.2216
  552MOL0     C74414   7.775   4.427   3.486  0.2077  0.5599  0.4089
  552MOL0     C74415   7.653   4.503   3.461 -1.0341  0.2353  0.9755
  552MOL0     O74416   7.558   4.494   3.558 -0.9192 -0.6491 -0.6647
  552MOL0     C74417   7.441   4.559   3.543 -0.5560 -0.4412 -0.3101
  552MOL0     C74418   7.322   4.501   3.499  0.3197 -1.1528  0.3297
  552MOL0     C74419   7.211   4.581   3.461 -0.3798  0.7803  0.2765
  552MOL0     C74420   7.225   4.723   3.461  0.1192  0.5162  0.4295
  552MOL0     O74421   7.129   4.810   3.424 -0.0605  0.2655 -0.6748
  552MOL0     C74422   7.000   4.779   3.378  1.1110 -0.2495  0.5557
  552MOL0     C74423   6.905   4.704   3.476 -0.0172  0.7081 -0.2774
  552MOL0     C74424   6.765   4.696   3.404 -0.0898 -0.8768 -0.5021
  552MOL0     C74425   6.648   4.622   3.479 -0.2114  0.1010  0.4649
  552MOL0     C74426   6.515   4.660   3.411 -0.1742 -1.1049  0.2508
  552MOL0     C74427   6.394   4.613   3.482  0.6651  0.2186 -0.1650
  552MOL0     C74428   6.351   4.709   3.597 -0.2974 -0.7425 -1.1435
  552MOL0     C74429   6.219   4.663   3.665  0.6531 -0.0915 -0.3234
  552MOL0    Cl74430   6.088   4.630   3.544 -0.0086 -0.2458 -0.4179
  552MOL0     C74431   7.338   4.782   3.507  0.0481 -0.3902 -0.3523
  552MOL0     C74432   7.452   4.701   3.541  0.0741 -0.1889 -0.2504
  552MOL0     O74433   7.644   4.567   3.358 -0.1898 -0.0778 -0.0038
  552MOL0     C74434   7.813   4.408   3.610 -0.0008  0.2110 -0.4691
  552MOL0     C74435   7.935   4.348   3.646  0.8663 -0.2395 -0.3431
  552MOL0     N74436   8.715   3.921   3.337 -0.7609  0.5999  0.0200
  552MOL0     N74437   8.770   3.817   3.306  0.2614  0.7148 -0.5703
  552MOL0     C74438   9.710   4.023   4.019  0.0220  1.1208  0.5647
  552MOL0     C74439   9.850   4.012   4.030  0.6036  0.0186 -0.1579
  552MOL0     C74440  10.292   3.824   3.968  0.5371 -0.1149 -0.5808
  552MOL0     C74441  10.343   3.952   4.004 -0.3608  0.0312  0.2964
  552MOL0     C74442  10.485   3.956   4.032  0.6107  0.2169 -0.6960
  552MOL0     C74443  10.569   3.849   4.019 -0.3881 -0.2582  0.3345
  552MOL0     O74444  10.705   3.847   4.048 -0.5730 -0.6087 -0.6066
  552MOL0     C74445  10.755   3.955   4.127 -0.0675  1.1126 -0.1535
  552MOL0     C74446  10.897   3.922   4.171 -0.1690  0.0047  0.6465
  552MOL0     C74447  10.998   3.932   4.053 -0.2298 -0.4666  0.5671
  552MOL0     C74448  11.134   3.885   4.105 -0.3071  0.1409 -0.2732
  552MOL0     C74449  11.190   3.971   4.212  0.2223 -0.6903  0.0270
  552MOL0     C74450  11.228   4.027   4.312 -0.2462 -0.2522 -0.4159
  552MOL0     C74451  10.516   3.727   3.982 -0.2701  0.0693 -0.2876
  552MOL0     C74452  10.377   3.716   3.957  0.3530 -0.0341  0.5244
  552MOL0     H74453   9.891   3.750   3.820  0.1561 -0.9325  3.0666
  552MOL0     H74454   9.660   3.790   3.783  1.9982  1.5654 -1.4132
  552MOL0     H74455   9.456   3.888   3.739  0.6540  0.9323  0.5119
  552MOL0     H74456   9.438   3.761   3.871 -0.4109 -0.1984 -0.7831
  552MOL0     H74457   9.246   3.898   3.950 -0.5057  1.0047  0.9588
  552MOL0     H74458   9.260   4.014   3.819 -2.1165 -0.1660  2.0198
  552MOL0     H74459   9.197   3.721   3.774  2.4115  0.5683 -0.5277
  552MOL0     H74460   9.082   3.853   3.775 -0.1969  1.5548 -0.1977
  552MOL0     H74461   9.221   3.961   3.580  0.6231 -0.0392 -3.3224
  552MOL0     H74462   9.304   3.805   3.574  0.9682  1.9887 -0.5809
  552MOL0     H74463   9.014   3.872   3.511  1.6835  1.4020 -1.8372
  552MOL0     H74464   9.141   3.826   3.401  1.1187  1.7498  0.4097
  552MOL0     H74465   9.144   3.591   3.540 -0.8197 -1.1547  1.8798
  552MOL0     H74466   8.991   3.656   3.606 -0.8595 -1.0966 -1.5322
  552MOL0     H74467   9.018   3.665   3.313  2.4117 -1.4687 -0.5488
  552MOL0     H74468   9.010   3.499   3.385  0.6652 -0.4865  2.9431
  552MOL0     H74469   8.804   3.546   3.515  1.5208 -0.0628  0.6534
  552MOL0     H74470   8.777   3.540   3.338  1.8820 -0.2990 -1.0095
  552MOL0     H74471   8.667   3.751   3.608  1.9952 -0.2959  0.1224
  552MOL0     H74472   8.598   4.004   3.639  1.3771  1.3060  0.0597
  552MOL0     H74473   8.624   4.120   3.506  0.9605  0.0367  0.4039
  552MOL0     H74474   8.390   3.927   3.486  2.0805 -1.2311 -3.8986
  552MOL0     H74475   8.425   4.055   3.384  1.6326  1.4014  0.7650
  552MOL0     H74476   8.425   4.233   3.555  0.2112  0.3064  0.0343
  552MOL0     H74477   8.346   4.112   3.662 -1.6508  0.8445  0.7107
  552MOL0     H74478   8.188   4.104   3.441 -0.6861 -0.9380  2.4242
  552MOL0     H74479   8.247   4.262   3.410  2.6836 -0.7111 -0.6787
  552MOL0     H74480   8.035   4.257   3.341 -1.6413 -0.8049 -0.0678
  552MOL0     H74481   7.843   4.458   3.185  1.1271 -0.6769  0.1634
  552MOL0     H74482   7.859   4.274   3.200  3.4447  1.5601 -1.0151
  552MOL0     H74483   7.707   4.349   3.224  0.4262 -2.2078  0.4435
  552MOL0     H74484   7.310   4.393   3.487 -1.5352 -0.6870 -3.0427
  552MOL0     H74485   7.123   4.541   3.411  1.5136  0.0870 -2.7160
  552MOL0     H74486   6.950   4.872   3.348  1.1127 -0.8319 -1.3672
  552MOL0     H74487   6.999   4.720   3.286 -1.2957  2.1463 -1.1290
  552MOL0     H74488   6.946   4.606   3.500  1.3607  0.6721 -2.5189
  552MOL0     H74489   6.897   4.750   3.575 -2.0699 -0.3260  0.0889
  552MOL0     H74490   6.774   4.649   3.306 -0.4084  0.4772 -1.2055
  552MOL0     H74491   6.725   4.797   3.392 -0.3919 -0.7528  1.2590
  552MOL0     H74492   6.660   4.515   3.465 -0.2574  0.0755  0.6249
  552MOL0     H74493   6.659   4.651   3.584 -0.3393 -0.3884  0.6160
  552MOL0     H74494   6.531   4.615   3.313  3.8088 -1.9451  1.0977
  552MOL0     H74495   6.503   4.768   3.403 -2.0097 -1.3888 -1.6118
  552MOL0     H74496   6.318   4.594   3.406  1.7768  0.0066 -1.2625
  552MOL0     H74497   6.413   4.515   3.528  1.3251 -0.3451 -1.5631
  552MOL0     H74498   6.344   4.812   3.562  1.5929  0.7109  2.2231
  552MOL0     H74499   6.424   4.708   3.678 -1.3201 -2.0208 -0.1766
  552MOL0     H74500   6.177   4.736   3.736 -5.1249 -3.5355  0.4861
  552MOL0     H74501   6.238   4.572   3.723 -0.1157  1.1200  1.9553
  552MOL0     H74502   7.345   4.888   3.527 -2.6773 -0.5552  2.0102
  552MOL0     H74503   7.543   4.750   3.571  1.1776 -1.2693 -1.6937
  552MOL0     H74504   7.751   4.440   3.694  3.9856  1.3612  2.3256
  552MOL0     H74505   7.959   4.317   3.748  0.5186 -1.0560 -0.5050
  552MOL0     H74506   9.649   4.090   4.080  0.4128 -0.5804  2.9548
  552MOL0     H74507   9.903   4.079   4.098  0.7233 -0.0838 -0.1504
  552MOL0     H74508  10.285   4.042   4.016  2.4518  1.9007  0.7352
  552MOL0     H74509  10.520   4.054   4.063 -1.2011  1.4321 -2.2851
  552MOL0     H74510  10.745   4.044   4.064 -2.1574  0.4913 -0.7919
  552MOL0     H74511  10.692   3.973   4.215 -0.9700 -2.5104  0.1170
  552MOL0     H74512  10.913   3.820   4.207  2.3927  0.2622  0.4383
  552MOL0     H74513  10.910   3.993   4.253 -0.7532 -1.5870  2.1699
  552MOL0     H74514  10.988   4.035   4.017 -1.5646 -0.2380  1.5251
  552MOL0     H74515  10.951   3.866   3.979 -0.4802 -1.4198  1.5559
  552MOL0     H74516  11.208   3.865   4.027  2.0157 -1.8744  2.2433
  552MOL0     H74517  11.124   3.789   4.156 -0.6694  1.0773  1.4634
  552MOL0     H74518  11.265   4.075   4.400 -1.7491 -0.8135  0.5675
  552MOL0     H74519  10.587   3.645   3.978 -1.3608 -1.0867  1.8801
  552MOL0     H74520  10.329   3.625   3.924 -0.6147 -0.1710  2.1939
  553MOL0     O74521   6.502   5.514   7.035 -0.3460 -0.1460  0.2736
  553MOL0     C74522   6.505   5.437   7.136  0.1941 -0.7119 -0.7481
  553MOL0     O74523   6.388   5.386   7.203  0.4157 -0.3640  0.3931
  553MOL0     C74524   6.266   5.428   7.156 -0.4778 -0.6221  0.3419
  553MOL0     C74525   6.230   5.561   7.160  0.8448  1.1002  0.6511
  553MOL0     C74526   6.113   5.598   7.092 -0.2935 -0.3535 -0.8934
  553MOL0     C74527   6.026   5.498   7.057  0.8732 -0.3439  0.5439
  553MOL0     O74528   5.907   5.540   7.006  0.6622  0.6899  0.8014
  553MOL0     C74529   5.912   5.587   6.867 -0.8816  1.3176 -0.4679
  553MOL0     C74530   5.829   5.488   6.782  0.0233  0.0700 -0.2227
  553MOL0     C74531   5.691   5.472   6.826  0.4501  0.6222 -0.4541
  553MOL0     C74532   5.619   5.389   6.716 -0.2770 -0.0174  0.2560
  553MOL0     C74533   5.471   5.394   6.749  0.0398  1.3595 -0.2124
  553MOL0     C74534   5.390   5.296   6.652 -0.1467 -0.5236  0.1799
  553MOL0     C74535   5.245   5.278   6.692  0.5209  0.6284 -0.2089
  553MOL0     C74536   5.169   5.211   6.573  0.5798 -0.8751  0.0711
  553MOL0     N74537   5.025   5.219   6.577  1.0053  0.5266  0.2187
  553MOL0     C74538   4.947   5.228   6.689 -0.5587 -0.5678  0.1492
  553MOL0     C74539   4.822   5.261   6.639  0.4765 -0.1102  0.3521
  553MOL0     C74540   4.706   5.293   6.719 -1.1324  0.0215 -0.2669
  553MOL0     C74541   4.698   5.190   6.841 -0.0251 -0.6807  0.2701
  553MOL0     C74542   4.596   5.237   6.948  0.4671  0.3514  0.4684
  553MOL0     C74543   4.448   5.241   6.903  0.2332 -0.3826 -0.1031
  553MOL0     O74544   4.364   5.288   7.016  0.2463 -0.4551  0.2895
  553MOL0     C74545   4.228   5.287   7.022 -0.9107 -0.1258  0.1352
  553MOL0     C74546   4.161   5.330   7.137  0.2244  0.0440 -0.6737
  553MOL0     C74547   4.025   5.344   7.139 -0.0653  0.1136 -0.4507
  553MOL0     C74548   3.961   5.368   7.264  0.2718  0.2116 -0.5820
  553MOL0     C74549   3.948   5.311   7.026 -0.4166  1.1267 -0.0416
  553MOL0     C74550   3.805   5.341   7.017  0.6071 -0.3569 -0.2227
  553MOL0     O74551   3.745   5.436   7.098 -0.1990 -0.2430  0.6379
  553MOL0     C74552   3.623   5.497   7.070  0.0326 -0.4572 -0.6060
  553MOL0     C74553   3.545   5.537   7.182  0.2575  0.0631  0.5554
  553MOL0     C74554   3.435   5.628   7.156  0.0395 -0.0171  0.6520
  553MOL0     C74555   3.409   5.680   7.023  0.0046 -0.1781 -0.2147
  553MOL0     O74556   3.295   5.765   7.008 -0.4040 -0.2505  1.0531
  553MOL0     C74557   3.303   5.850   6.884 -0.6565  0.4369 -0.4467
  553MOL0     C74558   3.194   5.945   6.899  0.2995  0.4372  0.0250
  553MOL0     C74559   3.052   5.875   6.909 -0.9612 -0.6215 -0.0145
  553MOL0     C74560   2.937   5.968   6.963  0.6041 -0.6877  0.0757
  553MOL0     C74561   2.803   5.898   6.924  0.0838  0.3570 -0.5608
  553MOL0     C74562   2.688   5.991   6.947 -0.6120 -0.4869 -0.6938
  553MOL0     C74563   2.688   6.130   6.871 -0.1076  0.5089 -0.2268
  553MOL0     C74564   2.570   6.218   6.920 -0.7772 -0.0274 -0.4597
  553MOL0    Cl74565   2.438   6.183   6.807  0.5171 -0.0054  0.3331
  553MOL0     C74566   3.482   5.629   6.913  0.6316  0.5783 -0.3471
  553MOL0     C74567   3.587   5.533   6.942  0.3860 -0.5787 -0.0257
  553MOL0     O74568   3.743   5.269   6.941  0.3856 -0.7454  0.3277
  553MOL0     C74569   4.018   5.267   6.910 -0.3059 -0.1168 -0.3756
  553MOL0     C74570   4.157   5.259   6.909  0.8331  0.1502  0.3056
  553MOL0     N74571   4.830   5.244   6.506 -0.5864  0.4656  0.8643
  553MOL0     N74572   4.947   5.213   6.473  0.7386  0.4244  0.3867
  553MOL0     C74573   6.060   5.358   7.055  0.4921 -0.8558  0.3994
  553MOL0     C74574   6.183   5.328   7.101  0.7210 -0.1211  0.2700
  553MOL0     C74575   6.640   5.407   7.195  0.4492  0.1977  0.3056
  553MOL0     C74576   6.754   5.469   7.145  0.4083 -0.5627  1.0989
  553MOL0     C74577   6.878   5.438   7.188  0.0119  0.7540 -0.5793
  553MOL0     C74578   6.900   5.338   7.286 -0.0555 -0.2742  0.2418
  553MOL0     O74579   7.024   5.299   7.321  0.4755 -0.7710  0.3001
  553MOL0     C74580   7.042   5.266   7.455 -0.3787  0.7475  0.0708
  553MOL0     C74581   7.188   5.317   7.494  0.2282 -0.6108  0.0112
  553MOL0     C74582   7.291   5.274   7.388 -0.8418 -0.5258 -0.2216
  553MOL0     C74583   7.439   5.319   7.423 -0.0208  0.5030 -0.2583
  553MOL0     C74584   7.481   5.287   7.557  0.1110  0.8209 -0.5415
  553MOL0     C74585   7.509   5.251   7.674  0.5079  0.7899  0.2832
  553MOL0     C74586   6.782   5.271   7.332  0.0673  0.2193 -0.2072
  553MOL0     C74587   6.655   5.307   7.296  0.4924  0.4754  0.2139
  553MOL0     H74588   6.303   5.627   7.205  1.5937  0.5544  0.2791
  553MOL0     H74589   6.080   5.701   7.082 -1.8269 -0.6909  0.3634
  553MOL0     H74590   5.886   5.693   6.860 -2.8721  0.8803 -0.2321
  553MOL0     H74591   6.010   5.583   6.818 -1.5327 -0.8197 -1.7227
  553MOL0     H74592   5.825   5.523   6.678  1.9649 -1.3955 -0.8704
  553MOL0     H74593   5.874   5.388   6.787 -2.8107 -1.3871 -1.2976
  553MOL0     H74594   5.688   5.423   6.923  1.4773 -0.3184 -0.8759
  553MOL0     H74595   5.649   5.573   6.831  0.0404  0.4646 -0.6296
  553MOL0     H74596   5.641   5.432   6.618  0.8454 -0.9251  0.0903
  553MOL0     H74597   5.668   5.291   6.716  0.6938  0.3737  2.9329
  553MOL0     H74598   5.462   5.359   6.852  5.0445  0.4707  0.1987
  553MOL0     H74599   5.436   5.497   6.741  3.2239  2.4556 -1.9277
  553MOL0     H74600   5.401   5.341   6.553 -0.4085 -1.1255 -0.1285
  553MOL0     H74601   5.442   5.200   6.653  2.7454  0.9135 -1.4788
  553MOL0     H74602   5.240   5.215   6.781 -0.0367  2.9899  1.5372
  553MOL0     H74603   5.189   5.368   6.720 -0.5547  1.3734 -4.1865
  553MOL0     H74604   5.180   5.102   6.572 -2.6539 -1.3133 -1.9315
  553MOL0     H74605   5.207   5.251   6.478  0.4346 -0.3703  0.2261
  553MOL0     H74606   4.975   5.221   6.794  0.0744 -1.7512 -0.0804
  553MOL0     H74607   4.715   5.393   6.764  0.1999 -0.2123  0.0351
  553MOL0     H74608   4.615   5.290   6.658 -2.3018 -0.7791  1.4392
  553MOL0     H74609   4.792   5.180   6.896 -0.1291 -0.8778  0.4153
  553MOL0     H74610   4.683   5.092   6.796  2.2848 -2.3588  2.8001
  553MOL0     H74611   4.608   5.337   6.992 -0.2327  1.0243 -0.8104
  553MOL0     H74612   4.611   5.160   7.024 -2.4070  0.2362  1.0417
  553MOL0     H74613   4.412   5.144   6.868  1.1818 -1.1972  1.0853
  553MOL0     H74614   4.431   5.319   6.829  2.3842  0.2165 -0.0467
  553MOL0     H74615   4.214   5.352   7.229 -1.1620  1.3512 -0.1461
  553MOL0     H74616   4.037   5.358   7.343  0.6817  2.6779 -0.5794
  553MOL0     H74617   3.913   5.464   7.281 -1.2928 -0.2173 -2.3281
  553MOL0     H74618   3.879   5.299   7.287 -0.1217  0.9092  0.1530
  553MOL0     H74619   3.554   5.520   7.289 -3.4848  1.7299  1.3073
  553MOL0     H74620   3.378   5.683   7.230  0.2958 -1.8468  2.2974
  553MOL0     H74621   3.395   5.909   6.883 -0.9935  0.9862  0.0909
  553MOL0     H74622   3.280   5.794   6.793 -2.2927 -0.6413  0.5689
  553MOL0     H74623   3.210   6.005   6.989 -0.9488 -0.7545  1.0919
  553MOL0     H74624   3.193   6.001   6.805 -2.3895 -1.8581 -1.4702
  553MOL0     H74625   3.059   5.790   6.979  0.2147 -0.6502 -0.1612
  553MOL0     H74626   3.039   5.836   6.807  0.3659 -0.6580 -0.1790
  553MOL0     H74627   2.958   5.977   7.070 -3.8374  0.6853  1.0310
  553MOL0     H74628   2.951   6.070   6.926 -2.0965  0.7885  2.6459
  553MOL0     H74629   2.781   5.807   6.980 -0.2647  0.2693 -0.8421
  553MOL0     H74630   2.811   5.866   6.820  3.3694  0.3432 -0.3984
  553MOL0     H74631   2.598   5.934   6.923  1.3210 -3.0348 -2.5155
  553MOL0     H74632   2.685   6.014   7.054  2.4870  3.0018 -1.1585
  553MOL0     H74633   2.695   6.107   6.764  3.4006  0.8442 -0.1785
  553MOL0     H74634   2.780   6.185   6.890 -1.1684  1.8059  1.3502
  553MOL0     H74635   2.594   6.325   6.914 -0.0062 -0.1849 -0.3187
  553MOL0     H74636   2.547   6.202   7.025  0.9157  1.1332  0.1360
  553MOL0     H74637   3.451   5.653   6.812 -0.3055 -2.1570 -0.7807
  553MOL0     H74638   3.625   5.484   6.853  0.7096 -0.2758 -0.0577
  553MOL0     H74639   3.961   5.253   6.818 -2.2758  0.0040  0.7781
  553MOL0     H74640   4.210   5.231   6.819 -0.6951  0.5486 -0.7597
  553MOL0     H74641   5.987   5.284   7.023  1.0650 -0.5998 -1.6663
  553MOL0     H74642   6.226   5.229   7.089  1.0044  0.0501 -0.1596
  553MOL0     H74643   6.736   5.548   7.073  1.2726 -2.0316 -0.8231
  553MOL0     H74644   6.964   5.493   7.148 -1.0945  1.9002 -1.4601
  553MOL0     H74645   6.976   5.324   7.520 -0.4564 -0.6173  1.2807
  553MOL0     H74646   7.023   5.160   7.476 -0.8393  0.7394 -0.3774
  553MOL0     H74647   7.208   5.278   7.594  0.2206  0.2300  0.3432
  553MOL0     H74648   7.184   5.426   7.498 -2.6393 -0.6528  0.0659
  553MOL0     H74649   7.266   5.296   7.283 -1.1639 -3.0958 -0.7482
  553MOL0     H74650   7.295   5.165   7.393  0.0584 -0.4530  1.2043
  553MOL0     H74651   7.461   5.424   7.402  1.8865  0.4714  1.2540
  553MOL0     H74652   7.507   5.275   7.350 -0.1420  3.5546 -2.3600
  553MOL0     H74653   7.522   5.226   7.777  0.2684 -1.8624 -0.2587
  553MOL0     H74654   6.784   5.185   7.398 -2.6278 -0.7839 -1.2849
  553MOL0     H74655   6.568   5.249   7.325  1.3839 -2.0244 -1.7049
  554MOL0     O74656   5.984   9.968   1.791  0.4458 -0.8383 -0.2258
  554MOL0     C74657   6.013   9.957   1.670 -0.0812  0.5941  0.2229
  554MOL0     O74658   5.945   9.884   1.578  0.2331  0.7362 -0.0022
  554MOL0     C74659   5.830   9.815   1.610 -0.3027 -0.0716 -0.0144
  554MOL0     C74660   5.711   9.858   1.555  0.3446  0.5725  0.4830
  554MOL0     C74661   5.592   9.794   1.593  0.4793 -0.6592  0.9154
  554MOL0     C74662   5.592   9.698   1.692  0.7823  0.2126 -0.2975
  554MOL0     O74663   5.470   9.642   1.711 -0.3278  0.2824  0.3162
  554MOL0     C74664   5.451   9.556   1.823  0.0560  0.2205  0.1004
  554MOL0     C74665   5.356   9.626   1.917  0.0983 -0.3241 -0.2544
  554MOL0     C74666   5.414   9.760   1.982  0.3777  1.1421 -0.4055
  554MOL0     C74667   5.526   9.722   2.089 -0.0772 -0.1878  0.2426
  554MOL0     C74668   5.559   9.846   2.168 -0.1108  0.3773  0.2958
  554MOL0     C74669   5.649   9.815   2.283  0.1303 -0.3095 -0.0872
  554MOL0     C74670   5.795   9.797   2.238  0.3858  0.0736 -0.2594
  554MOL0     C74671   5.910   9.782   2.342 -0.2773 -0.8584 -0.1680
  554MOL0     N74672   5.893   9.675   2.438 -0.1898  0.0260  0.2113
  554MOL0     C74673   5.801   9.674   2.538  0.4502 -0.9136 -0.6891
  554MOL0     C74674   5.806   9.549   2.588 -0.8678 -0.2768 -0.2842
  554MOL0     C74675   5.740   9.498   2.707  0.4623  0.3431 -0.7452
  554MOL0     C74676   5.591   9.507   2.700 -0.0345 -0.3391 -0.4169
  554MOL0     C74677   5.497   9.411   2.791  0.2165 -0.2618 -0.9147
  554MOL0     C74678   5.357   9.472   2.797  0.6148 -0.6486  0.0877
  554MOL0     O74679   5.276   9.438   2.685  0.3518 -0.4873  0.2393
  554MOL0     C74680   5.142   9.473   2.686  0.2454 -0.9179 -0.7529
  554MOL0     C74681   5.059   9.402   2.607 -0.4810 -0.5288  0.0092
  554MOL0     C74682   4.923   9.440   2.592 -0.1017 -1.2026 -0.0569
  554MOL0     C74683   4.835   9.369   2.494  0.3953 -0.0975 -0.5157
  554MOL0     C74684   4.865   9.547   2.674 -0.1403  0.0271  0.0531
  554MOL0     C74685   4.716   9.569   2.713 -0.6164 -0.0845 -0.3014
  554MOL0     O74686   4.687   9.668   2.807 -0.0469 -0.1986  0.2324
  554MOL0     C74687   4.555   9.691   2.845 -0.2267  0.9192  0.1831
  554MOL0     C74688   4.518   9.679   2.978  0.4549  0.7523 -0.8333
  554MOL0     C74689   4.385   9.711   3.022  1.0671 -0.2577  0.1824
  554MOL0     C74690   4.284   9.742   2.926 -0.4544 -0.3775  0.4315
  554MOL0     O74691   4.160   9.776   2.981 -0.1806  0.3765 -0.5520
  554MOL0     C74692   4.067   9.829   2.886 -0.4141 -0.0919  0.6664
  554MOL0     C74693   4.006   9.723   2.807  0.2159 -0.2635  0.4016
  554MOL0     C74694   3.901   9.772   2.699  0.6046 -0.3344  0.5218
  554MOL0     C74695   3.779   9.843   2.751  0.5268 -0.0288 -0.3263
  554MOL0     C74696   3.651   9.879   2.666 -0.0828 -0.0315  0.0058
  554MOL0     C74697   3.580   9.758   2.605  0.3915  0.1280 -0.9974
  554MOL0     C74698   3.444   9.801   2.540 -0.4210  1.1454 -0.4401
  554MOL0     C74699   3.371   9.678   2.483 -1.0406  0.1297 -0.6718
  554MOL0    Cl74700   3.452   9.623   2.330  0.1175  0.0084  0.0232
  554MOL0     C74701   4.331   9.758   2.794 -0.4808  0.5107  0.1183
  554MOL0     C74702   4.454   9.717   2.758  0.0688  0.2209  0.5892
  554MOL0     O74703   4.635   9.491   2.662 -0.1824 -0.5394 -0.7063
  554MOL0     C74704   4.958   9.628   2.747 -0.3087  0.2773 -0.4452
  554MOL0     C74705   5.091   9.582   2.759 -0.0651 -0.0050  0.2673
  554MOL0     N74706   5.903   9.475   2.518 -0.2939 -0.2308  0.0422
  554MOL0     N74707   5.952   9.554   2.429 -0.5047  0.2146 -0.2619
  554MOL0     C74708   5.715   9.663   1.753  0.6402 -0.2509 -0.2281
  554MOL0     C74709   5.831   9.715   1.708  0.5390 -0.0846 -1.0503
  554MOL0     C74710   6.114  10.042   1.609 -0.2364 -0.6491  0.4485
  554MOL0     C74711   6.174  10.153   1.676  0.0143 -0.2074 -0.1406
  554MOL0     C74712   6.263  10.231   1.618 -0.4117  0.0385  0.1404
  554MOL0     C74713   6.302  10.212   1.487 -0.7054  0.0925 -0.3679
  554MOL0     O74714   6.382  10.290   1.412  0.1640 -0.4722 -0.3673
  554MOL0     C74715   6.497  10.342   1.473 -0.0680 -0.3436  0.0968
  554MOL0     C74716   6.591  10.389   1.361 -0.0881  0.1555 -0.3826
  554MOL0     C74717   6.713  10.463   1.407  0.0302  0.5889  0.1331
  554MOL0     C74718   6.813  10.468   1.292  0.5383 -0.6127 -0.0431
  554MOL0     C74719   6.937  10.533   1.338 -0.1753 -0.5428 -0.2510
  554MOL0     C74720   7.038  10.580   1.380 -0.1288 -0.4853 -0.1866
  554MOL0     C74721   6.240  10.115   1.412 -0.0858  0.2618  0.0938
  554MOL0     C74722   6.149  10.034   1.473 -0.1746 -0.1327 -0.3705
  554MOL0     H74723   5.724   9.947   1.495  0.6400 -0.0549 -0.4162
  554MOL0     H74724   5.500   9.802   1.535  0.1153 -1.0823  1.4199
  554MOL0     H74725   5.421   9.454   1.796 -0.9648  0.4534  0.3136
  554MOL0     H74726   5.546   9.542   1.877  1.1340  0.8275 -1.5514
  554MOL0     H74727   5.263   9.650   1.865 -1.1982 -0.5509  1.8318
  554MOL0     H74728   5.326   9.559   1.998 -0.8384  1.6956  1.1587
  554MOL0     H74729   5.442   9.817   1.893  1.8422 -0.5859 -1.1124
  554MOL0     H74730   5.336   9.824   2.025  0.7178  2.7825 -2.0930
  554MOL0     H74731   5.486   9.647   2.158 -1.3849  1.8379  1.8479
  554MOL0     H74732   5.616   9.682   2.043  0.6622 -1.8044  2.8691
  554MOL0     H74733   5.613   9.907   2.095  0.5320  0.0602  0.4955
  554MOL0     H74734   5.466   9.889   2.206 -0.3018 -0.5567  0.9148
  554MOL0     H74735   5.631   9.900   2.348 -0.8759  0.2590 -1.0891
  554MOL0     H74736   5.613   9.725   2.335 -1.6164  0.5528  0.2338
  554MOL0     H74737   5.793   9.701   2.187  4.9546  0.5829 -1.8450
  554MOL0     H74738   5.828   9.874   2.167 -1.7982  0.5022 -0.8960
  554MOL0     H74739   5.924   9.878   2.392  1.7562 -1.6145  0.7964
  554MOL0     H74740   6.003   9.760   2.289  0.0926 -1.1649  0.6046
  554MOL0     H74741   5.742   9.758   2.574  2.1176 -0.3092  0.7957
  554MOL0     H74742   5.776   9.396   2.725 -1.2819 -0.3695 -1.1146
  554MOL0     H74743   5.769   9.548   2.801  1.1132  0.4857 -1.0171
  554MOL0     H74744   5.564   9.488   2.596  1.5549 -0.4539 -0.8361
  554MOL0     H74745   5.567   9.609   2.730 -3.6841 -0.8653 -1.0856
  554MOL0     H74746   5.539   9.420   2.892 -3.2714 -1.6802  0.8216
  554MOL0     H74747   5.507   9.304   2.770  0.3411 -0.2247 -1.0505
  554MOL0     H74748   5.362   9.580   2.808 -0.4496 -0.6339  0.6218
  554MOL0     H74749   5.310   9.438   2.890 -0.2885  0.5864  0.1007
  554MOL0     H74750   5.103   9.324   2.545  1.5300  0.1997  0.4525
  554MOL0     H74751   4.909   9.319   2.430  0.7200  0.2097 -0.3870
  554MOL0     H74752   4.778   9.292   2.546  1.1131 -1.0989 -1.1522
  554MOL0     H74753   4.776   9.443   2.440 -0.0862  1.2531  1.7484
  554MOL0     H74754   4.596   9.664   3.052  3.1671  0.2860 -3.5838
  554MOL0     H74755   4.351   9.707   3.125  2.0147 -1.9975  0.4833
  554MOL0     H74756   3.996   9.879   2.953 -0.3473 -2.2863  2.5348
  554MOL0     H74757   4.113   9.903   2.821 -0.7611  0.4009  0.9698
  554MOL0     H74758   4.070   9.658   2.747  0.2069  0.4855 -0.4472
  554MOL0     H74759   3.952   9.656   2.875 -2.1262  1.2643  0.1910
  554MOL0     H74760   3.863   9.693   2.634  0.4727  1.3968 -1.6338
  554MOL0     H74761   3.954   9.838   2.630  1.4301 -0.9642  0.5349
  554MOL0     H74762   3.733   9.797   2.839 -3.1318  1.4990 -1.2482
  554MOL0     H74763   3.817   9.933   2.800  0.8423 -0.9533  1.2110
  554MOL0     H74764   3.681   9.956   2.594 -2.3104  1.4294  0.5348
  554MOL0     H74765   3.580   9.931   2.731  1.6619  2.6228 -0.0298
  554MOL0     H74766   3.651   9.716   2.534 -0.1514  1.0960 -2.1475
  554MOL0     H74767   3.567   9.683   2.684 -0.7434  3.1189  1.9434
  554MOL0     H74768   3.461   9.870   2.457  0.0484  2.5496  0.8000
  554MOL0     H74769   3.382   9.852   2.614 -0.5258  1.7302 -0.9219
  554MOL0     H74770   3.273   9.719   2.454 -0.2507  0.3891 -3.2710
  554MOL0     H74771   3.358   9.602   2.560 -2.4102  1.4076  0.4067
  554MOL0     H74772   4.277   9.776   2.702  1.2662  1.4992 -0.7525
  554MOL0     H74773   4.492   9.710   2.657 -0.3195 -0.4956  0.4874
  554MOL0     H74774   4.937   9.718   2.804  0.5061  1.2443 -1.6000
  554MOL0     H74775   5.164   9.647   2.806  1.8932 -0.9458 -1.2824
  554MOL0     H74776   5.729   9.592   1.834  0.2980  1.4725  1.4328
  554MOL0     H74777   5.926   9.692   1.754 -0.4053 -1.8792  0.1099
  554MOL0     H74778   6.159  10.176   1.780  2.3980 -0.8086  0.4069
  554MOL0     H74779   6.295  10.316   1.677  0.0525  1.4262 -2.0130
  554MOL0     H74780   6.475  10.427   1.538  1.8937  0.7906 -0.6172
  554MOL0     H74781   6.542  10.256   1.524 -0.9232  0.2017  1.8300
  554MOL0     H74782   6.538  10.454   1.291 -0.5898  0.8724  0.6434
  554MOL0     H74783   6.618  10.302   1.300  2.1689 -0.6487  1.5975
  554MOL0     H74784   6.756  10.410   1.493 -1.3878 -0.5526  0.1655
  554MOL0     H74785   6.678  10.562   1.438  0.8750  0.5354  1.3249
  554MOL0     H74786   6.768  10.517   1.205  0.1668 -1.3718 -0.2919
  554MOL0     H74787   6.833  10.366   1.257 -3.5737 -1.9807  1.0733
  554MOL0     H74788   7.130  10.615   1.421  0.5826  0.2750 -2.2735
  554MOL0     H74789   6.263  10.095   1.307 -0.2025 -3.0237  0.6121
  554MOL0     H74790   6.104   9.956   1.412  0.7385 -3.0290  2.4303
  555MOL0     O74791   6.074   7.366   0.326  0.8628 -0.2677 -0.1326
  555MOL0     C74792   6.159   7.444   0.280  0.1933  0.0484 -0.3302
  555MOL0     O74793   6.204   7.556   0.342  0.4881 -0.3729 -0.6019
  555MOL0     C74794   6.133   7.600   0.453  0.3899 -0.1584 -0.2713
  555MOL0     C74795   6.088   7.732   0.459  0.6794 -0.2900  0.2336
  555MOL0     C74796   6.003   7.775   0.565 -0.3486  0.2752  0.5976
  555MOL0     C74797   5.971   7.696   0.673 -0.8554 -0.4807 -0.6019
  555MOL0     O74798   5.908   7.736   0.795  0.0208  0.4187  0.3460
  555MOL0     C74799   5.851   7.865   0.805 -0.0302 -0.4848 -0.9933
  555MOL0     C74800   5.770   7.895   0.934  0.2289 -0.6348  0.1450
  555MOL0     C74801   5.651   7.803   0.934 -0.5911 -0.1262  0.0768
  555MOL0     C74802   5.566   7.790   1.056  0.3278  0.1132 -0.9735
  555MOL0     C74803   5.434   7.715   1.037 -0.0984  0.2549  0.0653
  555MOL0     C74804   5.373   7.700   1.173 -0.3356 -0.1858 -0.0321
  555MOL0     C74805   5.234   7.637   1.166 -0.4191  0.6314 -0.5992
  555MOL0     C74806   5.186   7.606   1.312 -0.4712 -0.4712 -0.4783
  555MOL0     N74807   5.053   7.549   1.331  0.0805 -0.3971 -0.5165
  555MOL0     C74808   5.023   7.429   1.267  0.2251 -0.7927  0.3557
  555MOL0     C74809   4.895   7.395   1.309  0.1317 -0.8853  0.0403
  555MOL0     C74810   4.814   7.287   1.247  0.0252  0.4259 -0.6960
  555MOL0     C74811   4.665   7.281   1.300 -0.8545 -0.1685  0.3127
  555MOL0     C74812   4.584   7.167   1.238  0.7018  0.3739 -0.1951
  555MOL0     C74813   4.429   7.207   1.224 -0.0870 -0.1706 -0.2664
  555MOL0     O74814   4.386   7.236   1.357 -0.2857  0.0029  0.4111
  555MOL0     C74815   4.256   7.251   1.396 -0.0430 -0.0551 -0.0142
  555MOL0     C74816   4.239   7.258   1.538  0.2589  0.2986 -0.2022
  555MOL0     C74817   4.115   7.259   1.594 -0.2777  0.6946 -0.0816
  555MOL0     C74818   4.112   7.248   1.741  0.2851  0.5203 -0.8750
  555MOL0     C74819   3.994   7.259   1.511 -0.8816 -0.3424  1.0445
  555MOL0     C74820   3.857   7.280   1.565 -0.0689  0.0290 -0.1381
  555MOL0     O74821   3.765   7.266   1.469  0.7202  0.1197 -0.2531
  555MOL0     C74822   3.634   7.244   1.506 -0.5198 -0.8181 -0.2827
  555MOL0     C74823   3.570   7.126   1.466  0.4607  0.7827 -0.5744
  555MOL0     C74824   3.434   7.104   1.479  0.4936  0.4726 -0.3285
  555MOL0     C74825   3.352   7.209   1.526 -0.8078  0.3253  0.4030
  555MOL0     O74826   3.216   7.185   1.528 -0.6622 -0.2359 -0.3408
  555MOL0     C74827   3.133   7.302   1.525 -0.0718  0.2266 -0.0781
  555MOL0     C74828   2.992   7.263   1.560  0.0789 -0.8010  0.3525
  555MOL0     C74829   2.910   7.388   1.541  0.0029 -0.0588  0.2653
  555MOL0     C74830   2.767   7.352   1.579 -0.7721 -0.0923  0.3997
  555MOL0     C74831   2.681   7.481   1.568 -0.2324  0.4840  0.4668
  555MOL0     C74832   2.637   7.511   1.420 -0.3125  0.1390  0.0087
  555MOL0     C74833   2.530   7.615   1.415  0.0587 -0.6267  0.3766
  555MOL0     C74834   2.398   7.555   1.399  1.1643 -0.0600  0.9130
  555MOL0    Cl74835   2.274   7.673   1.444  0.3461 -0.0210 -0.9511
  555MOL0     C74836   3.417   7.324   1.562 -1.0735 -0.2841  0.0143
  555MOL0     C74837   3.556   7.345   1.549  0.9089 -0.6141 -0.3772
  555MOL0     O74838   3.834   7.325   1.676 -0.0320  0.8116 -0.3385
  555MOL0     C74839   4.010   7.254   1.371 -0.1398 -0.2105  0.2661
  555MOL0     C74840   4.139   7.254   1.311 -0.2455 -0.8316  0.2131
  555MOL0     N74841   4.859   7.499   1.396  0.5609  0.3561 -0.9174
  555MOL0     N74842   4.948   7.590   1.413 -1.1859  0.0058  0.0509
  555MOL0     C74843   6.025   7.564   0.678  0.2960  0.4988  0.1402
  555MOL0     C74844   6.098   7.520   0.565  0.0597 -0.2141 -0.2884
  555MOL0     C74845   6.212   7.416   0.144  0.7064  0.3291  0.3497
  555MOL0     C74846   6.320   7.501   0.102  0.4775 -0.1968 -0.6474
  555MOL0     C74847   6.367   7.480  -0.024 -0.2922 -0.3437 -0.3035
  555MOL0     C74848   6.324   7.372  -0.105  0.0107 -0.1046  0.1432
  555MOL0     O74849   6.391   7.367  -0.224 -0.2592  0.2411 -0.4259
  555MOL0     C74850   6.360   7.260  -0.311 -0.1819  0.4879 -0.0791
  555MOL0     C74851   6.438   7.281  -0.438 -0.1290  0.6567 -0.3687
  555MOL0     C74852   6.443   7.155  -0.523  0.0965 -0.2706  0.6009
  555MOL0     C74853   6.532   7.180  -0.644  1.0433  0.5665 -0.1628
  555MOL0     C74854   6.668   7.152  -0.618  0.5168  0.4551 -0.3537
  555MOL0     C74855   6.787   7.127  -0.602  0.0772  0.3319  0.0680
  555MOL0     C74856   6.225   7.285  -0.061 -0.2025  0.2698  0.2608
  555MOL0     C74857   6.168   7.307   0.065 -0.2362 -0.3303 -0.7580
  555MOL0     H74858   6.124   7.809   0.391  1.0416  0.4408  1.2333
  555MOL0     H74859   5.999   7.883   0.581 -0.3952  0.2768  0.5773
  555MOL0     H74860   5.935   7.935   0.806  0.0581 -0.5124  1.7713
  555MOL0     H74861   5.779   7.877   0.724 -0.9076 -3.1818 -0.7270
  555MOL0     H74862   5.833   7.886   1.023  0.4885  0.2995  0.0663
  555MOL0     H74863   5.730   7.997   0.936  0.3328 -0.6000  0.4318
  555MOL0     H74864   5.581   7.825   0.852  1.4297 -0.1406 -1.7387
  555MOL0     H74865   5.690   7.702   0.919  0.2312  0.1356  0.3932
  555MOL0     H74866   5.624   7.736   1.131  1.6969 -0.1920 -2.2075
  555MOL0     H74867   5.530   7.888   1.090 -1.1738 -1.1902  1.5184
  555MOL0     H74868   5.358   7.764   0.975  0.6859 -0.9340 -1.9467
  555MOL0     H74869   5.451   7.616   0.994  0.4858 -0.6698  2.3004
  555MOL0     H74870   5.439   7.641   1.237  0.3372  0.5468 -0.0435
  555MOL0     H74871   5.360   7.800   1.214 -3.0967 -0.1475 -0.7608
  555MOL0     H74872   5.159   7.699   1.117 -0.0326 -0.0784 -2.1406
  555MOL0     H74873   5.261   7.544   1.116  1.1515  0.1892  0.9532
  555MOL0     H74874   5.192   7.692   1.379  0.1589 -1.0232  0.1985
  555MOL0     H74875   5.249   7.524   1.350  1.2449  0.2465 -1.6288
  555MOL0     H74876   5.082   7.387   1.187 -2.2900  0.7103 -2.5303
  555MOL0     H74877   4.815   7.304   1.139  0.0972  0.0812 -0.7502
  555MOL0     H74878   4.866   7.195   1.272 -0.4655 -0.1557 -1.7311
  555MOL0     H74879   4.618   7.376   1.274  0.5170  0.2387 -0.7879
  555MOL0     H74880   4.656   7.284   1.409  1.0236  1.0435  0.4862
  555MOL0     H74881   4.600   7.076   1.298  2.9361  1.4030  0.9125
  555MOL0     H74882   4.622   7.145   1.138  1.2993 -0.9346  0.2874
  555MOL0     H74883   4.369   7.129   1.176 -1.0072  0.3683 -0.0202
  555MOL0     H74884   4.415   7.290   1.154  2.2785  2.8498  2.5072
  555MOL0     H74885   4.322   7.246   1.606  0.6134 -0.7909 -0.8071
  555MOL0     H74886   4.040   7.320   1.781 -0.7983 -1.6442  1.3321
  555MOL0     H74887   4.079   7.149   1.776  0.4608  1.5478  2.5160
  555MOL0     H74888   4.209   7.276   1.783 -0.3469  1.0322  0.2828
  555MOL0     H74889   3.629   7.047   1.421 -0.4564  0.4675 -1.2471
  555MOL0     H74890   3.377   7.015   1.456 -1.1166  1.2616  0.4314
  555MOL0     H74891   3.165   7.376   1.598  0.9345 -0.0814 -0.1923
  555MOL0     H74892   3.145   7.338   1.422 -0.6639 -3.5882 -1.6728
  555MOL0     H74893   2.964   7.182   1.492 -0.1124 -1.1810  0.8777
  555MOL0     H74894   2.980   7.224   1.662 -3.7415  1.6593  1.0469
  555MOL0     H74895   2.903   7.408   1.434  0.4061  0.6830  0.3751
  555MOL0     H74896   2.952   7.477   1.587  3.3459 -0.9506 -0.7798
  555MOL0     H74897   2.731   7.280   1.505  1.4384  1.3569 -2.2756
  555MOL0     H74898   2.765   7.304   1.677  0.5800 -1.5796 -0.2493
  555MOL0     H74899   2.738   7.565   1.608  0.0117 -0.8453  3.0628
  555MOL0     H74900   2.594   7.458   1.630 -1.2049 -3.6999 -2.0260
  555MOL0     H74901   2.723   7.554   1.369  0.6423  0.5641  1.8929
  555MOL0     H74902   2.594   7.426   1.366 -0.7410  1.5715 -2.0426
  555MOL0     H74903   2.546   7.686   1.333 -0.4595 -1.3746 -0.3888
  555MOL0     H74904   2.538   7.662   1.514 -0.6703  0.2288  0.0380
  555MOL0     H74905   2.373   7.463   1.451 -0.3887  1.0418  2.2270
  555MOL0     H74906   2.397   7.526   1.293  0.3321  1.3870  0.4842
  555MOL0     H74907   3.376   7.422   1.584 -2.0216 -0.5543 -0.5029
  555MOL0     H74908   3.584   7.450   1.553 -0.5334 -0.1351 -1.7206
  555MOL0     H74909   3.925   7.244   1.304  0.6445  0.9881 -0.9514
  555MOL0     H74910   4.138   7.266   1.203 -0.7050  1.0546  0.4009
  555MOL0     H74911   6.018   7.495   0.761  1.7769 -0.7198 -0.6746
  555MOL0     H74912   6.127   7.416   0.557 -1.4567 -0.5400 -2.5804
  555MOL0     H74913   6.363   7.584   0.158 -0.7046  0.0695 -0.1133
  555MOL0     H74914   6.435   7.551  -0.069 -0.0951  0.2480  0.8984
  555MOL0     H74915   6.392   7.170  -0.257  0.3931 -0.3182 -1.7194
  555MOL0     H74916   6.254   7.256  -0.334 -0.0864 -0.8892 -0.3515
  555MOL0     H74917   6.544   7.295  -0.414  0.1662 -3.2926  1.4991
  555MOL0     H74918   6.390   7.363  -0.493 -0.9916 -0.1098 -0.7914
  555MOL0     H74919   6.341   7.130  -0.555  0.6420 -0.8101 -0.7881
  555MOL0     H74920   6.479   7.068  -0.466 -1.7688 -0.1406  2.0911
  555MOL0     H74921   6.525   7.285  -0.675  0.2656  0.4267 -0.5090
  555MOL0     H74922   6.495   7.112  -0.721 -0.2722  0.5511  0.4556
  555MOL0     H74923   6.891   7.104  -0.594  0.1882  1.1095  1.0069
  555MOL0     H74924   6.206   7.193  -0.115 -0.1879  0.2260  0.3308
  555MOL0     H74925   6.097   7.235   0.104 -1.1938  0.6955 -0.5714
  556MOL0     O74926   6.198   1.090   5.461 -0.5386  0.0628 -0.8170
  556MOL0     C74927   6.257   1.100   5.355  0.4073  0.2753  0.0336
  556MOL0     O74928   6.213   1.169   5.242  0.6611 -0.0046 -0.6974
  556MOL0     C74929   6.090   1.236   5.249  0.1169  0.4932 -0.0670
  556MOL0     C74930   6.030   1.253   5.123  0.4918  0.3271 -0.5075
  556MOL0     C74931   5.903   1.325   5.119 -0.5301  0.6997  0.5118
  556MOL0     C74932   5.833   1.363   5.236 -0.5222  0.4292 -0.0627
  556MOL0     O74933   5.714   1.420   5.240 -0.3049  0.3764  0.2505
  556MOL0     C74934   5.635   1.424   5.117  0.2442 -0.0423  0.2091
  556MOL0     C74935   5.513   1.508   5.156 -0.3761 -0.1813 -0.4583
  556MOL0     C74936   5.440   1.459   5.288 -0.5315  1.7174  0.0053
  556MOL0     C74937   5.287   1.489   5.283  0.3360 -0.4262  0.1582
  556MOL0     C74938   5.219   1.398   5.382  0.4942  0.5387  0.3484
  556MOL0     C74939   5.078   1.451   5.420  0.3003  0.7467  0.5018
  556MOL0     C74940   5.004   1.361   5.512 -0.1183  0.3417 -0.2656
  556MOL0     C74941   4.859   1.409   5.546  0.7101 -0.1859 -0.2926
  556MOL0     N74942   4.773   1.458   5.427 -0.3691  0.5868  0.2581
  556MOL0     C74943   4.684   1.559   5.429 -0.3258  0.1442  0.9508
  556MOL0     C74944   4.639   1.576   5.299 -0.4300  0.5247  0.2415
  556MOL0     C74945   4.561   1.689   5.247 -0.1677  0.2530  0.1127
  556MOL0     C74946   4.423   1.628   5.198 -0.1095  0.4020 -0.0177
  556MOL0     C74947   4.356   1.738   5.111  0.1852 -0.0372 -0.0706
  556MOL0     C74948   4.207   1.699   5.103 -0.0019 -0.6020  1.0115
  556MOL0     O74949   4.217   1.576   5.023  1.0537 -0.4266  0.3232
  556MOL0     C74950   4.110   1.525   4.960  0.4176  0.4635 -0.3525
  556MOL0     C74951   3.991   1.595   4.939  0.7391  0.2806 -0.3406
  556MOL0     C74952   3.875   1.528   4.873 -0.3399 -0.4541 -0.8769
  556MOL0     C74953   3.765   1.627   4.830  0.5764  0.7419 -0.2221
  556MOL0     C74954   3.887   1.389   4.853 -0.3348 -0.0803  0.6560
  556MOL0     C74955   3.783   1.305   4.797  0.5999  0.1872  0.4983
  556MOL0     O74956   3.797   1.165   4.796  0.2060 -1.3820 -0.3491
  556MOL0     C74957   3.696   1.091   4.751  0.6379  0.1711  0.6676
  556MOL0     C74958   3.668   1.072   4.610  0.6736 -0.2232 -0.1697
  556MOL0     C74959   3.558   0.978   4.585 -0.6306 -0.9747 -0.1195
  556MOL0     C74960   3.490   0.911   4.684 -0.3559  0.6553  0.3736
  556MOL0     O74961   3.389   0.822   4.666  0.2543  0.2813 -0.4405
  556MOL0     C74962   3.283   0.869   4.584 -0.3363 -0.6549 -0.3795
  556MOL0     C74963   3.156   0.778   4.588  1.0481  0.0311 -0.6747
  556MOL0     C74964   3.062   0.807   4.468  0.4826 -0.0979  0.1226
  556MOL0     C74965   2.925   0.741   4.498  0.6914 -0.1151  0.0260
  556MOL0     C74966   2.820   0.763   4.386  0.7520  0.2798  0.4930
  556MOL0     C74967   2.683   0.714   4.435 -1.0160  0.1910 -0.2306
  556MOL0     C74968   2.598   0.702   4.312 -0.2105  0.5089  0.5004
  556MOL0     C74969   2.475   0.618   4.347 -0.3176 -0.1597 -0.2944
  556MOL0    Cl74970   2.356   0.729   4.408  0.0292  0.3844 -0.0724
  556MOL0     C74971   3.527   0.930   4.817  0.0260  0.1616 -0.5713
  556MOL0     C74972   3.622   1.026   4.851 -0.5122  0.3598 -0.0363
  556MOL0     O74973   3.684   1.363   4.747 -0.7517  0.1844  0.2810
  556MOL0     C74974   4.010   1.328   4.875 -0.2587  1.0805 -0.1593
  556MOL0     C74975   4.119   1.398   4.919  0.0219 -0.3830  0.2149
  556MOL0     N74976   4.691   1.475   5.223  0.0781  0.5381  0.2348
  556MOL0     N74977   4.773   1.408   5.307  0.4223 -1.0701  0.4164
  556MOL0     C74978   5.890   1.328   5.357  0.4261 -0.2862  0.8005
  556MOL0     C74979   6.020   1.278   5.360  0.6529  0.0775  0.4041
  556MOL0     C74980   6.389   1.034   5.340  0.3062  0.3774  0.2005
  556MOL0     C74981   6.448   0.974   5.450  0.3675 -0.3366 -0.4919
  556MOL0     C74982   6.578   0.925   5.439 -0.3419 -0.2929 -0.0567
  556MOL0     C74983   6.651   0.936   5.315  0.0293  1.0377  0.4922
  556MOL0     O74984   6.775   0.881   5.284 -0.1240  0.0896  0.0073
  556MOL0     C74985   6.853   0.818   5.386  0.9397  1.2524 -0.0430
  556MOL0     C74986   6.961   0.732   5.323  0.4172 -0.6239 -0.4040
  556MOL0     C74987   7.074   0.666   5.411  0.2264 -0.6176 -0.4611
  556MOL0     C74988   7.024   0.538   5.489 -0.7984  0.3920 -0.0208
  556MOL0     C74989   6.917   0.562   5.582  1.1231 -0.3907  0.5035
  556MOL0     C74990   6.833   0.597   5.662  0.7251  0.0594  0.0548
  556MOL0     C74991   6.586   1.004   5.206  0.0075  0.1505  0.3267
  556MOL0     C74992   6.460   1.054   5.227 -0.6107  0.2049 -0.5208
  556MOL0     H74993   6.080   1.215   5.034  2.5372  0.1460  0.6774
  556MOL0     H74994   5.864   1.342   5.019  1.7252 -1.3074 -0.8501
  556MOL0     H74995   5.697   1.476   5.044  0.1161  0.8133  0.7003
  556MOL0     H74996   5.601   1.324   5.089 -0.4517  0.3007 -0.2064
  556MOL0     H74997   5.547   1.611   5.173 -0.9509  0.1264 -1.1621
  556MOL0     H74998   5.444   1.503   5.072 -1.0798 -1.9065  0.1788
  556MOL0     H74999   5.457   1.352   5.307 -3.2603  1.4568  1.5369
  556MOL0     H75000   5.485   1.517   5.369  0.4559 -0.1467  0.8526
  556MOL0     H75001   5.272   1.593   5.311 -0.1935 -0.0426 -1.4780
  556MOL0     H75002   5.246   1.485   5.182 -3.6076 -2.5520  1.6205
  556MOL0     H75003   5.226   1.298   5.339  2.3751  0.6060  0.4037
  556MOL0     H75004   5.278   1.392   5.474 -2.0501 -0.2657  2.0554
  556MOL0     H75005   5.076   1.545   5.476 -0.1558  0.7818  0.4344
  556MOL0     H75006   5.039   1.478   5.321  1.2555  2.4734  0.5574
  556MOL0     H75007   4.996   1.266   5.458  0.3122 -0.1054  0.4472
  556MOL0     H75008   5.056   1.344   5.607 -0.2100 -2.6408 -0.6335
  556MOL0     H75009   4.878   1.491   5.616  1.2041  0.5045 -1.2256
  556MOL0     H75010   4.809   1.331   5.605  1.4240 -2.5160 -2.5975
  556MOL0     H75011   4.680   1.633   5.508 -1.1248  0.5739  0.5245
  556MOL0     H75012   4.547   1.765   5.324  2.1642  0.1001  0.7578
  556MOL0     H75013   4.619   1.734   5.165 -0.8409  2.0304  0.5518
  556MOL0     H75014   4.358   1.592   5.278 -2.6688  0.5090 -1.9198
  556MOL0     H75015   4.446   1.542   5.134 -3.3634  0.1522 -1.0650
  556MOL0     H75016   4.404   1.741   5.012  0.4712  1.9738  0.0985
  556MOL0     H75017   4.367   1.837   5.156 -2.8335  0.5894 -0.5342
  556MOL0     H75018   4.154   1.783   5.057  0.2007 -0.3419  1.2438
  556MOL0     H75019   4.152   1.680   5.196 -1.0801  0.0497  0.5202
  556MOL0     H75020   3.995   1.697   4.976  0.5664  0.5688 -1.0904
  556MOL0     H75021   3.667   1.592   4.863  0.0411  2.1483 -0.2915
  556MOL0     H75022   3.785   1.722   4.879 -0.9791  0.5474  0.8466
  556MOL0     H75023   3.764   1.638   4.721  2.9025  1.0727 -0.2535
  556MOL0     H75024   3.719   1.119   4.526  0.4825  0.7661  0.2651
  556MOL0     H75025   3.535   0.954   4.481 -1.3684  0.8077 -0.4054
  556MOL0     H75026   3.255   0.967   4.623 -0.9918 -0.3861 -1.4683
  556MOL0     H75027   3.317   0.885   4.481  0.0128 -0.6661 -0.2666
  556MOL0     H75028   3.189   0.675   4.576 -2.0440 -1.3879  1.5902
  556MOL0     H75029   3.113   0.785   4.689  0.0233 -0.2833 -1.0716
  556MOL0     H75030   3.108   0.773   4.375 -0.5937  1.9172 -1.2224
  556MOL0     H75031   3.042   0.914   4.462  0.0481 -0.2468 -1.6687
  556MOL0     H75032   2.933   0.633   4.509  1.1179 -0.2892 -1.7598
  556MOL0     H75033   2.895   0.783   4.595 -0.4671 -1.3139  0.2097
  556MOL0     H75034   2.863   0.713   4.299 -0.1146  0.6772 -0.1696
  556MOL0     H75035   2.810   0.866   4.351  0.8515 -0.2845 -1.3189
  556MOL0     H75036   2.686   0.627   4.500 -3.2954  1.0299  1.0945
  556MOL0     H75037   2.643   0.799   4.490  2.6798  1.4999  0.6987
  556MOL0     H75038   2.659   0.647   4.240  1.4764  0.7057  1.7081
  556MOL0     H75039   2.566   0.799   4.274 -1.1891 -0.3624 -0.9715
  556MOL0     H75040   2.498   0.542   4.422  1.9872  0.0116 -0.7478
  556MOL0     H75041   2.429   0.577   4.257  0.8466  1.6338 -1.7892
  556MOL0     H75042   3.479   0.872   4.894 -2.5858  1.3528 -1.1972
  556MOL0     H75043   3.650   1.034   4.956  0.0680 -0.5575 -0.1078
  556MOL0     H75044   4.023   1.222   4.860 -1.2526  0.3543  3.2146
  556MOL0     H75045   4.209   1.341   4.940 -1.5862 -2.0875  3.2126
  556MOL0     H75046   5.834   1.366   5.441 -1.4674 -0.1435 -0.4562
  556MOL0     H75047   6.056   1.274   5.462 -2.8879 -1.8963  1.7886
  556MOL0     H75048   6.395   0.975   5.545  0.9361  3.3615 -0.0868
  556MOL0     H75049   6.615   0.879   5.530 -2.1293 -1.0775  0.3141
  556MOL0     H75050   6.899   0.891   5.454 -0.5280  1.1975  1.0497
  556MOL0     H75051   6.790   0.750   5.444  1.0089  0.7165 -0.5795
  556MOL0     H75052   7.013   0.794   5.249 -1.8499 -1.5820 -2.9874
  556MOL0     H75053   6.918   0.652   5.261  1.0399 -0.2788 -1.3072
  556MOL0     H75054   7.118   0.745   5.473  0.6851 -0.9135 -0.4062
  556MOL0     H75055   7.159   0.624   5.357  1.5438 -1.4839  2.1267
  556MOL0     H75056   7.104   0.517   5.561 -0.9994  0.4392  0.2186
  556MOL0     H75057   7.001   0.445   5.437  1.9887 -1.4578  1.8092
  556MOL0     H75058   6.762   0.635   5.733  1.2018  1.4733 -0.2092
  556MOL0     H75059   6.649   1.000   5.118  2.7487 -2.6522  2.1798
  556MOL0     H75060   6.414   1.112   5.148 -0.5460  3.8043  1.8404
  557MOL0     O75061   2.383   7.957  10.098  0.9156 -0.1525  0.6933
  557MOL0     C75062   2.428   7.908   9.991 -0.2649  0.2227  1.0987
  557MOL0     O75063   2.346   7.893   9.882 -0.2421 -0.1201  0.3370
  557MOL0     C75064   2.217   7.907   9.887 -0.3242 -0.7313 -0.1362
  557MOL0     C75065   2.132   7.794   9.904  0.4468 -1.0854  0.3400
  557MOL0     C75066   1.998   7.815   9.902 -0.8079  1.3742  0.0018
  557MOL0     C75067   1.946   7.941   9.900 -0.4487 -0.1400  0.7230
  557MOL0     O75068   1.814   7.968   9.901 -0.6011 -0.6156  1.0396
  557MOL0     C75069   1.722   7.861   9.910 -0.3372 -0.7250 -0.2758
  557MOL0     C75070   1.589   7.925   9.938  0.3854  0.2773  1.1194
  557MOL0     C75071   1.492   7.815   9.960  0.4050  0.5889 -0.6716
  557MOL0     C75072   1.357   7.866  10.016 -0.5608  0.7035  0.7027
  557MOL0     C75073   1.248   7.766  10.007  0.1354  0.0224  0.1518
  557MOL0     C75074   1.124   7.817  10.066 -0.5405 -0.7038  0.3171
  557MOL0     C75075   1.015   7.713  10.078 -0.3469  0.1353  0.5468
  557MOL0     C75076   0.900   7.771  10.165 -0.1134  0.1050  0.1898
  557MOL0     N75077   0.809   7.668  10.195 -0.5490  0.8587 -0.3267
  557MOL0     C75078   0.711   7.639  10.100 -0.6131 -0.1663  0.4189
  557MOL0     C75079   0.657   7.520  10.148 -0.6175 -0.3634 -0.2714
  557MOL0     C75080   0.554   7.442  10.080 -0.2873  0.3744  0.7558
  557MOL0     C75081   0.428   7.470  10.169 -0.3041 -0.1822 -0.2918
  557MOL0     C75082   0.315   7.371  10.144  0.1028  0.7024  0.3363
  557MOL0     C75083   0.185   7.429  10.210 -0.3800 -0.3554 -0.2475
  557MOL0     O75084   0.108   7.312  10.215 -0.4018 -0.4250 -0.5940
  557MOL0     C75085  -0.028   7.305  10.235  0.4519 -0.2867 -0.2961
  557MOL0     C75086  -0.112   7.417  10.244  0.0656  0.5911  0.7434
  557MOL0     C75087  -0.255   7.399  10.269 -0.4465 -0.0036 -0.4079
  557MOL0     C75088  -0.338   7.522  10.276  0.4443 -0.4476  0.1317
  557MOL0     C75089  -0.306   7.267  10.272  0.3874 -1.1903 -0.7022
  557MOL0     C75090  -0.451   7.232  10.284  0.4324 -0.1336 -0.1207
  557MOL0     O75091  -0.528   7.307  10.374 -0.7270 -0.3644 -0.4576
  557MOL0     C75092  -0.661   7.281  10.374 -0.5773 -0.9304 -0.5415
  557MOL0     C75093  -0.745   7.357  10.294 -0.7107 -0.1717 -0.0916
  557MOL0     C75094  -0.881   7.337  10.300 -0.5510 -0.4499  0.2947
  557MOL0     C75095  -0.938   7.262  10.404  0.0136  0.1067  0.9703
  557MOL0     O75096  -1.077   7.248  10.399 -0.1431  0.1952  0.4353
  557MOL0     C75097  -1.133   7.120  10.430 -0.0194 -0.1178  0.4160
  557MOL0     C75098  -1.288   7.151  10.442  0.1169  0.2970  0.5660
  557MOL0     C75099  -1.350   7.126  10.307  0.0945  0.2358  0.2204
  557MOL0     C75100  -1.502   7.172  10.290  0.0779 -0.6241 -0.1091
  557MOL0     C75101  -1.603   7.076  10.354  0.5734 -0.7908 -0.2345
  557MOL0     C75102  -1.748   7.115  10.333  0.3546  0.0473 -1.1084
  557MOL0     C75103  -1.791   7.130  10.190 -0.0639 -0.9552 -0.1022
  557MOL0     C75104  -1.935   7.092  10.166  0.6872 -0.6542  0.8251
  557MOL0    Cl75105  -2.046   7.211  10.254  0.0890  0.3772 -0.1420
  557MOL0     C75106  -0.854   7.189  10.486  1.0963  0.5754  0.1175
  557MOL0     C75107  -0.714   7.200  10.465  0.8349  0.9815 -0.2895
  557MOL0     O75108  -0.486   7.126  10.235 -0.3268 -0.5192 -0.1869
  557MOL0     C75109  -0.211   7.159  10.276 -0.1635  0.5743  1.1709
  557MOL0     C75110  -0.075   7.172  10.253  0.0869 -0.4637  0.5487
  557MOL0     N75111   0.735   7.478  10.256 -0.1851  0.1019 -1.2300
  557MOL0     N75112   0.833   7.562  10.277  0.1926 -0.3066 -0.3394
  557MOL0     C75113   2.026   8.057   9.876 -0.7324 -0.0511 -0.2078
  557MOL0     C75114   2.161   8.043   9.866  0.6290  0.1948 -0.5140
  557MOL0     C75115   2.577   7.916   9.963 -0.9687 -0.6604  0.9441
  557MOL0     C75116   2.630   7.901   9.831 -0.4688  0.6191 -0.4190
  557MOL0     C75117   2.768   7.909   9.807  0.3065  0.8606 -0.2196
  557MOL0     C75118   2.855   7.919   9.917 -0.1398  0.1979 -0.1341
  557MOL0     O75119   2.988   7.936   9.900 -0.1932  0.0298  0.8826
  557MOL0     C75120   3.056   7.974   9.776 -0.2195  0.4481 -0.3843
  557MOL0     C75121   3.211   7.955   9.798  0.5199  0.4623  0.0540
  557MOL0     C75122   3.253   7.800   9.798  1.1589 -0.3851 -0.6558
  557MOL0     C75123   3.398   7.793   9.764  0.2332 -0.0194  0.5307
  557MOL0     C75124   3.444   7.659   9.786  0.2343 -0.7572 -0.4226
  557MOL0     C75125   3.484   7.552   9.814  0.6673 -0.4972  0.4976
  557MOL0     C75126   2.816   7.932  10.044 -0.0346 -0.4229  0.5103
  557MOL0     C75127   2.673   7.934  10.069  0.5705  0.2067  0.0305
  557MOL0     H75128   2.181   7.698   9.917  0.8339 -0.7679  1.2656
  557MOL0     H75129   1.932   7.730   9.917  0.4702  0.7591  2.9163
  557MOL0     H75130   1.713   7.810   9.814  0.1485 -0.0696 -0.6782
  557MOL0     H75131   1.736   7.798   9.998 -0.6923  2.8089  2.5875
  557MOL0     H75132   1.581   7.989  10.026  0.7441  0.3459  1.1062
  557MOL0     H75133   1.564   7.974   9.844 -0.5651 -1.6662  0.2941
  557MOL0     H75134   1.483   7.758   9.868  1.5641 -0.1106 -0.3703
  557MOL0     H75135   1.543   7.750  10.031 -1.0061 -0.2011 -0.3533
  557MOL0     H75136   1.375   7.885  10.123  1.2239 -0.5099  0.6526
  557MOL0     H75137   1.330   7.960   9.968 -0.4831  0.6720  0.5974
  557MOL0     H75138   1.220   7.733   9.906 -2.8903 -0.7746  1.1514
  557MOL0     H75139   1.277   7.674  10.058 -3.7311 -1.0087  0.8208
  557MOL0     H75140   1.138   7.857  10.167 -1.7077  2.6676 -0.7086
  557MOL0     H75141   1.074   7.898  10.013 -2.2703 -1.6434  0.4056
  557MOL0     H75142   0.976   7.681   9.981 -1.2694  1.4385  0.4682
  557MOL0     H75143   1.051   7.622  10.127 -2.5543 -0.8665  0.4489
  557MOL0     H75144   0.858   7.861  10.120 -0.8171  0.3267  1.2771
  557MOL0     H75145   0.956   7.800  10.255 -0.0433 -1.7775  0.7908
  557MOL0     H75146   0.706   7.700  10.010  4.4214  1.5045  0.9724
  557MOL0     H75147   0.530   7.481   9.981  1.8290 -1.5115 -0.6012
  557MOL0     H75148   0.572   7.334  10.079 -1.5295  0.1509 -0.3073
  557MOL0     H75149   0.391   7.571  10.152  1.0396  0.7573  1.8724
  557MOL0     H75150   0.450   7.457  10.276  1.2897  0.2679 -0.5349
  557MOL0     H75151   0.338   7.277  10.195 -0.9155  1.1537  1.6959
  557MOL0     H75152   0.299   7.351  10.037 -3.2649  0.0160  0.8500
  557MOL0     H75153   0.146   7.514  10.153 -2.7720 -1.1573  0.1126
  557MOL0     H75154   0.221   7.467  10.305  0.8444  1.8279 -1.5025
  557MOL0     H75155  -0.061   7.512  10.232  3.0065 -1.0762 -1.3074
  557MOL0     H75156  -0.282   7.608  10.238  0.8424 -1.4074 -1.5652
  557MOL0     H75157  -0.432   7.506  10.222 -1.1977  1.4769  2.2297
  557MOL0     H75158  -0.363   7.525  10.383  0.0288  1.0451  0.0128
  557MOL0     H75159  -0.692   7.420  10.223 -1.8601 -0.6500 -1.4100
  557MOL0     H75160  -0.951   7.372  10.225 -1.5964 -1.2177  0.8801
  557MOL0     H75161  -1.114   7.041  10.357  2.3696 -1.5911  2.4323
  557MOL0     H75162  -1.098   7.091  10.530  1.8802  1.0696  0.1568
  557MOL0     H75163  -1.337   7.080  10.510 -1.2315  1.5108  0.8961
  557MOL0     H75164  -1.300   7.252  10.481  0.0004  1.6687 -2.7462
  557MOL0     H75165  -1.341   7.017  10.298  1.3484  0.3431 -0.0336
  557MOL0     H75166  -1.287   7.178  10.235 -0.5012  2.1320  1.0035
  557MOL0     H75167  -1.495   7.272  10.334  3.0966 -1.3568  1.3020
  557MOL0     H75168  -1.527   7.179  10.184  0.8306 -1.4496 -0.3498
  557MOL0     H75169  -1.586   7.077  10.462 -1.1311 -0.8102  0.0463
  557MOL0     H75170  -1.571   6.980  10.312 -0.1841 -0.3098 -2.0111
  557MOL0     H75171  -1.803   7.038  10.387  2.3666  1.1560  3.0039
  557MOL0     H75172  -1.771   7.209  10.385  1.2277 -0.7196  0.7561
  557MOL0     H75173  -1.734   7.054  10.136 -2.2630 -1.1023 -2.4305
  557MOL0     H75174  -1.763   7.224  10.142  0.1605 -0.4664  0.9511
  557MOL0     H75175  -1.950   6.988  10.195  0.6881 -0.7572  0.4624
  557MOL0     H75176  -1.941   7.098  10.056  2.4116  1.0374  0.7596
  557MOL0     H75177  -0.894   7.124  10.564  0.9604  1.9390  1.2231
  557MOL0     H75178  -0.663   7.123  10.523 -2.0571 -1.1479 -0.3423
  557MOL0     H75179  -0.231   7.054  10.291  1.4768 -0.0924 -0.8810
  557MOL0     H75180  -0.003   7.091  10.263  0.5694  0.0779  1.6002
  557MOL0     H75181   1.986   8.155   9.853  0.3374  0.8203  1.4143
  557MOL0     H75182   2.214   8.134   9.841 -1.5724  1.6995 -0.0202
  557MOL0     H75183   2.566   7.904   9.744  0.4034 -2.8922 -1.3245
  557MOL0     H75184   2.790   7.906   9.701 -0.8525  3.8502 -0.6494
  557MOL0     H75185   3.028   7.907   9.694  0.1484 -4.3855  2.9949
  557MOL0     H75186   3.036   8.078   9.748  1.1567  0.7322 -0.4119
  557MOL0     H75187   3.243   8.005   9.890 -0.6201  0.8997  0.2288
  557MOL0     H75188   3.250   8.009   9.711 -0.4678 -0.1527 -0.7892
  557MOL0     H75189   3.192   7.751   9.721 -3.0178  0.6275  1.6851
  557MOL0     H75190   3.231   7.754   9.895  0.9979  2.8006  0.9380
  557MOL0     H75191   3.456   7.858   9.830  1.7118  0.3921 -1.0906
  557MOL0     H75192   3.428   7.831   9.666  1.4411 -0.8179  0.5771
  557MOL0     H75193   3.514   7.451   9.836  2.1306 -0.7600 -2.2080
  557MOL0     H75194   2.901   7.947  10.109  1.5981  1.7412 -1.9416
  557MOL0     H75195   2.644   7.962  10.170  0.7462  1.3923 -0.2323
  558MOL0     O75196   2.444   2.956  10.321 -0.2593  0.4723  0.0944
  558MOL0     C75197   2.486   2.850  10.361 -0.8913  0.2136 -0.1420
  558MOL0     O75198   2.412   2.738  10.378 -0.2109 -0.2060 -0.0663
  558MOL0     C75199   2.277   2.742  10.355 -0.8952  0.2727 -0.1631
  558MOL0     C75200   2.223   2.682  10.242  0.1597  0.1070  0.1054
  558MOL0     C75201   2.086   2.704  10.216  0.3143 -0.1788  0.1733
  558MOL0     C75202   2.001   2.754  10.314 -0.6072  0.3075  0.3219
  558MOL0     O75203   1.865   2.747  10.310  0.3437  0.3403  0.3376
  558MOL0     C75204   1.796   2.764  10.183 -0.3060  0.0692 -0.0511
  558MOL0     C75205   1.656   2.789  10.218  0.4823 -0.3543 -0.6938
  558MOL0     C75206   1.558   2.784  10.100 -0.6937  0.5763 -0.4752
  558MOL0     C75207   1.415   2.807  10.149  0.0643 -0.3666  0.7668
  558MOL0     C75208   1.306   2.790  10.038 -0.0094  0.1153 -0.2561
  558MOL0     C75209   1.173   2.783  10.109  0.5856 -0.5500 -0.2727
  558MOL0     C75210   1.064   2.790  10.005 -0.5479 -0.4892  0.4883
  558MOL0     C75211   0.936   2.783  10.080 -0.0532 -0.0079 -0.7704
  558MOL0     N75212   0.816   2.770   9.990  0.1342  0.4174 -0.1658
  558MOL0     C75213   0.791   2.681   9.888  0.0719 -0.4131  0.5776
  558MOL0     C75214   0.692   2.733   9.816  0.1358  0.3655  0.4929
  558MOL0     C75215   0.625   2.677   9.699 -0.2197 -1.4685  0.5335
  558MOL0     C75216   0.626   2.773   9.569  0.0432  0.3085 -0.4436
  558MOL0     C75217   0.580   2.690   9.444  0.5424  0.4713  0.4204
  558MOL0     C75218   0.435   2.630   9.472  0.1436  0.3405  0.1513
  558MOL0     O75219   0.382   2.599   9.341  0.1232  0.2476 -0.5709
  558MOL0     C75220   0.270   2.522   9.332 -0.4093 -1.0053  0.3819
  558MOL0     C75221   0.254   2.470   9.203  0.6515 -0.0935 -0.0609
  558MOL0     C75222   0.144   2.398   9.170  0.8838 -0.1040 -0.6463
  558MOL0     C75223   0.132   2.349   9.030  0.0068  0.4890 -0.0197
  558MOL0     C75224   0.040   2.379   9.272 -0.0595  0.3522 -0.0681
  558MOL0     C75225  -0.089   2.313   9.254  0.1848  0.2298  0.6283
  558MOL0     O75226  -0.134   2.308   9.125  0.0166 -0.8256 -0.3669
  558MOL0     C75227  -0.265   2.275   9.101  0.6466  0.3533  0.0468
  558MOL0     C75228  -0.311   2.180   9.009 -0.0015  0.0927 -0.0168
  558MOL0     C75229  -0.454   2.157   8.990 -0.3725 -0.1566  1.2481
  558MOL0     C75230  -0.547   2.236   9.063  0.8714 -1.0327 -0.2908
  558MOL0     O75231  -0.685   2.230   9.051  0.0093 -0.6986 -0.9378
  558MOL0     C75232  -0.735   2.141   8.943 -0.4289  0.3851 -0.3522
  558MOL0     C75233  -0.887   2.134   8.953  0.1653 -0.1513 -0.2628
  558MOL0     C75234  -0.952   2.055   8.845 -0.1021 -0.1568 -0.6646
  558MOL0     C75235  -1.106   2.063   8.844 -0.9535 -0.1879 -0.1793
  558MOL0     C75236  -1.159   1.979   8.733 -0.7223 -0.3391  0.4468
  558MOL0     C75237  -1.307   1.959   8.748 -0.8792  0.7521  0.2467
  558MOL0     C75238  -1.362   1.904   8.878 -0.5642 -0.0159  0.3354
  558MOL0     C75239  -1.333   1.750   8.891  0.6811 -0.6462  1.2454
  558MOL0    Cl75240  -1.170   1.740   8.953 -0.1446  0.6909  0.3956
  558MOL0     C75241  -0.497   2.332   9.155 -0.3658  0.0457  0.2987
  558MOL0     C75242  -0.363   2.354   9.164  0.8437 -0.3177  0.1500
  558MOL0     O75243  -0.149   2.264   9.348 -1.0265  0.0374 -0.2270
  558MOL0     C75244   0.060   2.444   9.396 -0.0292 -0.0347  0.5744
  558MOL0     C75245   0.179   2.511   9.433 -0.9347  0.5776  0.1644
  558MOL0     N75246   0.649   2.856   9.870  0.2832 -0.0128 -0.2583
  558MOL0     N75247   0.728   2.872   9.977  0.2284  0.5919  0.2973
  558MOL0     C75248   2.055   2.810  10.430  0.1636  0.4075 -0.6926
  558MOL0     C75249   2.195   2.809  10.441  0.1548  0.1698 -0.3813
  558MOL0     C75250   2.636   2.833  10.389 -0.1645  0.2221 -0.4091
  558MOL0     C75251   2.729   2.939  10.377  0.0899 -0.2853  0.1776
  558MOL0     C75252   2.863   2.914  10.396  0.2185 -0.1111  0.6605
  558MOL0     C75253   2.907   2.790  10.438  0.2643  0.2599  0.2711
  558MOL0     O75254   3.038   2.761  10.475 -0.3531 -0.1131 -0.1513
  558MOL0     C75255   3.135   2.768  10.371  0.0522  0.2558 -0.7416
  558MOL0     C75256   3.115   2.655  10.268  0.3355 -0.1515  0.1546
  558MOL0     C75257   3.186   2.659  10.134 -0.5978  0.2676 -0.6371
  558MOL0     C75258   3.155   2.790  10.056 -0.0042 -0.2096 -0.7708
  558MOL0     C75259   3.010   2.814  10.042  0.1043 -0.1749 -0.2610
  558MOL0     C75260   2.886   2.834  10.040 -0.9772 -0.6348  0.0382
  558MOL0     C75261   2.819   2.690  10.473  0.1206 -0.0395  0.3023
  558MOL0     C75262   2.682   2.710  10.441  0.7327 -0.3897  0.7338
  558MOL0     H75263   2.279   2.629  10.166 -2.2860 -0.5615 -1.3365
  558MOL0     H75264   2.037   2.664  10.127 -0.2582  1.9264 -0.5053
  558MOL0     H75265   1.839   2.844  10.123 -2.2949 -0.4401 -2.3171
  558MOL0     H75266   1.815   2.673  10.126 -2.2462  0.3968 -1.3117
  558MOL0     H75267   1.631   2.706  10.285 -0.4139  0.6490  0.2582
  558MOL0     H75268   1.646   2.889  10.260  0.8679 -1.0925  1.2959
  558MOL0     H75269   1.593   2.862  10.032 -0.7741  1.1552  0.1455
  558MOL0     H75270   1.568   2.687  10.049 -1.9171  0.3904 -0.4050
  558MOL0     H75271   1.406   2.740  10.235  3.2970 -1.2610  0.5173
  558MOL0     H75272   1.417   2.911  10.183 -0.8164 -0.8619  2.4339
  558MOL0     H75273   1.326   2.871   9.967  3.3394 -1.0220 -0.7850
  558MOL0     H75274   1.316   2.693   9.988  0.6602 -1.1388  2.1699
  558MOL0     H75275   1.168   2.685  10.157 -0.0269  1.1759  3.4951
  558MOL0     H75276   1.160   2.862  10.183  3.4486 -0.6976  0.5187
  558MOL0     H75277   1.084   2.881   9.947 -2.1770 -0.0439  0.5766
  558MOL0     H75278   1.068   2.702   9.941 -0.0763 -1.0444  1.2598
  558MOL0     H75279   0.929   2.864  10.152 -1.0000  0.7198 -1.6493
  558MOL0     H75280   0.946   2.691  10.139  0.0479  1.0787  0.9593
  558MOL0     H75281   0.851   2.598   9.852 -0.7859 -0.7160 -0.1881
  558MOL0     H75282   0.678   2.583   9.681 -0.3464 -1.5742  0.7156
  558MOL0     H75283   0.520   2.660   9.722 -0.3717  0.3420  1.3271
  558MOL0     H75284   0.722   2.823   9.550 -0.2353  1.2654  0.5235
  558MOL0     H75285   0.553   2.853   9.585  0.6150  0.2771  3.3237
  558MOL0     H75286   0.662   2.625   9.414  1.3847  1.6582  0.0555
  558MOL0     H75287   0.575   2.771   9.370  0.2858  0.8742  0.8669
  558MOL0     H75288   0.386   2.713   9.523  1.1990 -0.1225  2.0314
  558MOL0     H75289   0.429   2.545   9.541  0.3926  0.4748  0.3420
  558MOL0     H75290   0.331   2.476   9.127  0.3331 -0.0709 -0.3826
  558MOL0     H75291   0.230   2.327   8.987 -0.7038 -0.9552 -0.9693
  558MOL0     H75292   0.078   2.254   9.038  1.8198 -0.7439 -1.6338
  558MOL0     H75293   0.076   2.422   8.971  0.3578 -2.0622 -3.8371
  558MOL0     H75294  -0.237   2.113   8.966  1.5818  0.4932  1.9315
  558MOL0     H75295  -0.477   2.087   8.910  3.1023  1.9028 -1.9119
  558MOL0     H75296  -0.708   2.174   8.842  0.2285 -0.7102 -0.5545
  558MOL0     H75297  -0.692   2.041   8.953 -1.6715 -0.2734 -1.3120
  558MOL0     H75298  -0.916   2.095   9.051  0.5284  1.8633  0.6776
  558MOL0     H75299  -0.932   2.234   8.952 -1.4947 -0.7650  2.5203
  558MOL0     H75300  -0.923   1.950   8.851  1.3151  0.2860  2.1312
  558MOL0     H75301  -0.926   2.099   8.749  0.8999  0.1108 -0.2815
  558MOL0     H75302  -1.129   2.033   8.947  0.9971 -0.2022  0.2874
  558MOL0     H75303  -1.134   2.167   8.826  0.8484  0.2403 -0.7255
  558MOL0     H75304  -1.109   1.882   8.733  2.0869  0.9898  0.0468
  558MOL0     H75305  -1.149   2.036   8.640 -1.9397 -1.5162 -0.4481
  558MOL0     H75306  -1.351   2.059   8.742  0.4247  1.3520  0.3176
  558MOL0     H75307  -1.338   1.898   8.663  0.0683  3.6091 -2.3127
  558MOL0     H75308  -1.471   1.912   8.877 -0.5284  1.8686  2.3654
  558MOL0     H75309  -1.331   1.973   8.958  5.5187  0.4012 -1.8811
  558MOL0     H75310  -1.339   1.706   8.791 -0.0599 -0.3675  1.1646
  558MOL0     H75311  -1.400   1.703   8.963 -0.0144 -1.5870  0.0364
  558MOL0     H75312  -0.576   2.380   9.212 -0.3362 -1.6854  1.8743
  558MOL0     H75313  -0.338   2.431   9.236  1.1113 -0.3043  0.0428
  558MOL0     H75314  -0.025   2.452   9.464 -0.2621  0.3460  0.2403
  558MOL0     H75315   0.191   2.548   9.535 -0.3182 -0.4964  0.4958
  558MOL0     H75316   2.004   2.853  10.515 -0.8745 -0.6540 -0.7511
  558MOL0     H75317   2.233   2.862  10.527 -2.9107 -0.1674  1.3330
  558MOL0     H75318   2.695   3.041  10.359  0.4360 -0.0801  0.6976
  558MOL0     H75319   2.934   2.997  10.391 -2.0376  1.8656 -0.2317
  558MOL0     H75320   3.142   2.864  10.320  1.2041 -0.4385 -1.9551
  558MOL0     H75321   3.233   2.760  10.419 -0.2573  2.1135  0.2946
  558MOL0     H75322   3.008   2.648  10.249  0.3102  1.5735 -0.5243
  558MOL0     H75323   3.141   2.564  10.324 -0.6250  0.5114  1.7406
  558MOL0     H75324   3.164   2.567  10.079 -5.1439 -0.5494  1.9992
  558MOL0     H75325   3.295   2.662  10.144 -0.5305  0.8807 -1.4658
  558MOL0     H75326   3.205   2.794   9.959  1.3829 -1.0828 -0.1294
  558MOL0     H75327   3.206   2.867  10.116  1.7835 -2.0896  0.2358
  558MOL0     H75328   2.781   2.854  10.041 -0.9799 -0.4209 -1.5675
  558MOL0     H75329   2.868   2.603  10.514  0.4685 -1.0835 -2.1668
  558MOL0     H75330   2.603   2.638  10.460 -3.3477  3.0672 -1.5108
  559MOL0     O75331   2.580   8.713   3.898 -0.0861  0.2928  0.2717
  559MOL0     C75332   2.639   8.707   3.798  0.8509  0.0840  1.0733
  559MOL0     O75333   2.597   8.759   3.680  0.3479 -0.2357 -0.2097
  559MOL0     C75334   2.464   8.787   3.648  1.1525  0.3192 -0.2363
  559MOL0     C75335   2.349   8.730   3.716  0.0293  0.2448  0.0679
  559MOL0     C75336   2.228   8.767   3.663 -0.6028  0.8307  0.6267
  559MOL0     C75337   2.214   8.844   3.544  0.4472  0.3356 -0.0857
  559MOL0     O75338   2.085   8.867   3.498 -0.7242  0.0141  0.5084
  559MOL0     C75339   2.059   8.908   3.360  0.0671  0.4983 -0.2612
  559MOL0     C75340   1.962   8.806   3.305 -0.3081  0.3818 -0.1975
  559MOL0     C75341   1.905   8.836   3.160  0.3931  1.0816  0.0107
  559MOL0     C75342   1.824   8.718   3.101  0.6775  0.3289  0.2842
  559MOL0     C75343   1.816   8.738   2.953 -1.1953 -0.4540  0.3490
  559MOL0     C75344   1.751   8.619   2.888  0.7925  0.5475 -0.3287
  559MOL0     C75345   1.771   8.624   2.735  0.8112 -0.4145  0.5570
  559MOL0     C75346   1.680   8.516   2.659  0.6479 -0.1161  0.3250
  559MOL0     N75347   1.668   8.384   2.718 -0.0970 -0.0091 -0.3453
  559MOL0     C75348   1.780   8.302   2.747  0.0497 -0.3086 -0.1876
  559MOL0     C75349   1.728   8.190   2.795 -0.7855  0.9953  0.4520
  559MOL0     C75350   1.810   8.072   2.844 -0.1917 -0.2893  0.0666
  559MOL0     C75351   1.854   7.999   2.719  0.0052  0.2440  0.3380
  559MOL0     C75352   1.948   7.879   2.741 -0.2620  0.2608 -0.3399
  559MOL0     C75353   1.866   7.760   2.794 -0.1095  0.1685 -0.5428
  559MOL0     O75354   1.774   7.694   2.695 -0.1159 -0.1572 -0.3188
  559MOL0     C75355   1.640   7.715   2.692  0.4094 -0.2544  0.0893
  559MOL0     C75356   1.559   7.804   2.761  0.0413 -0.4147  0.2336
  559MOL0     C75357   1.421   7.802   2.753  0.2580  0.6208 -0.8835
  559MOL0     C75358   1.337   7.904   2.825  0.7596 -0.0182  0.8583
  559MOL0     C75359   1.356   7.714   2.664  0.0629 -1.1641  0.3408
  559MOL0     C75360   1.210   7.697   2.641 -0.6145  0.3948  0.1584
  559MOL0     O75361   1.177   7.635   2.528  0.2313  0.3047 -0.5826
  559MOL0     C75362   1.038   7.632   2.509 -0.0576 -0.6170 -0.0942
  559MOL0     C75363   0.962   7.750   2.496  0.8428 -0.5599 -0.1871
  559MOL0     C75364   0.821   7.746   2.486 -0.0708  0.2216  0.0957
  559MOL0     C75365   0.759   7.617   2.496  0.2058 -0.1839  0.0751
  559MOL0     O75366   0.626   7.592   2.494  0.2100 -0.0568  0.5977
  559MOL0     C75367   0.554   7.661   2.595  0.3498 -0.0539 -0.3202
  559MOL0     C75368   0.475   7.775   2.529 -0.1959  0.4649  0.0690
  559MOL0     C75369   0.372   7.814   2.642  0.2021 -0.7167  0.1921
  559MOL0     C75370   0.295   7.935   2.581  0.1475  0.4036 -0.4735
  559MOL0     C75371   0.158   7.964   2.655 -0.3373 -0.1650 -0.4840
  559MOL0     C75372   0.067   8.050   2.573 -0.1112  0.3997  0.3983
  559MOL0     C75373  -0.058   8.057   2.656  0.8468 -0.5676 -1.0152
  559MOL0     C75374  -0.155   8.156   2.596  0.2842  0.4025  0.0811
  559MOL0    Cl75375  -0.248   8.084   2.466 -0.2579  0.0863 -0.0571
  559MOL0     C75376   0.841   7.499   2.514  0.5461 -0.1872  0.4171
  559MOL0     C75377   0.980   7.510   2.519  0.1226  0.3846 -0.1675
  559MOL0     O75378   1.137   7.722   2.733 -0.5599 -0.2485 -0.1008
  559MOL0     C75379   1.438   7.626   2.582  0.0232  0.1147 -0.4813
  559MOL0     C75380   1.576   7.629   2.600  0.5882  0.2149  0.1112
  559MOL0     N75381   1.590   8.198   2.792  0.9458 -0.2568  0.8501
  559MOL0     N75382   1.549   8.313   2.754 -0.8197 -0.3517  0.3389
  559MOL0     C75383   2.328   8.886   3.473 -1.2411  0.1234  0.3250
  559MOL0     C75384   2.455   8.855   3.523  0.3209 -0.2658 -0.2826
  559MOL0     C75385   2.777   8.649   3.789 -1.2664 -0.2627 -1.2691
  559MOL0     C75386   2.868   8.684   3.682 -0.4849  0.2512 -0.2758
  559MOL0     C75387   3.003   8.658   3.699  0.2444  0.0262 -0.3655
  559MOL0     C75388   3.049   8.601   3.818 -0.4882  0.1358 -0.4571
  559MOL0     O75389   3.179   8.582   3.848 -0.4541 -0.5913 -0.6293
  559MOL0     C75390   3.281   8.668   3.785 -0.4414 -0.8835 -0.3315
  559MOL0     C75391   3.428   8.644   3.818 -0.5145  0.2766  0.2123
  559MOL0     C75392   3.477   8.521   3.758 -0.1884  0.5214 -0.1714
  559MOL0     C75393   3.639   8.524   3.739 -0.0743 -0.0643 -0.2376
  559MOL0     C75394   3.709   8.522   3.872  0.3206  0.8445 -0.1662
  559MOL0     C75395   3.773   8.528   3.975  0.3145  0.3635 -0.5312
  559MOL0     C75396   2.964   8.564   3.920  0.5810  0.2748  0.5474
  559MOL0     C75397   2.828   8.590   3.907  0.1178 -1.3945  0.0746
  559MOL0     H75398   2.357   8.658   3.797 -2.0675 -3.4048 -2.6539
  559MOL0     H75399   2.143   8.730   3.720 -1.1500  3.1442  1.4279
  559MOL0     H75400   2.004   9.002   3.354 -1.0527 -0.1050  0.3267
  559MOL0     H75401   2.153   8.911   3.304  1.6010  0.5302  2.1925
  559MOL0     H75402   2.018   8.713   3.304 -1.1448 -0.1500  0.5403
  559MOL0     H75403   1.878   8.787   3.373 -0.4756  0.5205 -0.3619
  559MOL0     H75404   1.837   8.921   3.169 -2.7038 -1.3691  2.3282
  559MOL0     H75405   1.993   8.857   3.099  1.8247 -0.5222  1.4028
  559MOL0     H75406   1.881   8.626   3.117 -1.6288 -1.2798 -0.2378
  559MOL0     H75407   1.725   8.719   3.148 -0.6963 -1.2470 -2.3488
  559MOL0     H75408   1.773   8.835   2.928 -2.1896 -1.5026 -2.3257
  559MOL0     H75409   1.920   8.747   2.919 -0.3863 -1.1960  2.4413
  559MOL0     H75410   1.790   8.523   2.924  1.5709  0.6945 -0.7671
  559MOL0     H75411   1.644   8.630   2.904  0.4440  1.4620 -2.8344
  559MOL0     H75412   1.741   8.724   2.704  3.3563  1.3405  3.2318
  559MOL0     H75413   1.876   8.615   2.704  0.7197 -2.2470  0.6431
  559MOL0     H75414   1.725   8.505   2.560 -0.9687 -3.4737 -0.1849
  559MOL0     H75415   1.579   8.553   2.643  1.2640  0.4451 -2.7678
  559MOL0     H75416   1.885   8.328   2.748  0.7316 -2.4647  3.4351
  559MOL0     H75417   1.897   8.103   2.902  1.1859  0.1487 -2.1318
  559MOL0     H75418   1.746   8.009   2.907  0.3349  0.2275  1.1317
  559MOL0     H75419   1.915   8.075   2.669  0.2193  0.1363  0.4355
  559MOL0     H75420   1.767   7.977   2.656 -0.2033  1.9331 -0.0134
  559MOL0     H75421   2.027   7.902   2.813  0.7201  0.2711 -1.3999
  559MOL0     H75422   2.002   7.860   2.648  3.4925  2.8501  1.0880
  559MOL0     H75423   1.815   7.774   2.890 -0.0787 -4.8287  0.4506
  559MOL0     H75424   1.937   7.682   2.820 -0.8209  0.0876  1.2662
  559MOL0     H75425   1.598   7.871   2.837  1.0775  1.3671 -1.7818
  559MOL0     H75426   1.275   7.868   2.908 -0.9768 -0.4267 -0.5602
  559MOL0     H75427   1.405   7.978   2.868 -0.7721  1.5945  0.6159
  559MOL0     H75428   1.272   7.947   2.749  0.9867 -0.5152  0.3825
  559MOL0     H75429   1.014   7.844   2.509  0.9776 -0.7307  0.5845
  559MOL0     H75430   0.764   7.838   2.475  3.2922  2.7237  1.3771
  559MOL0     H75431   0.485   7.600   2.653  0.2720  0.3870  0.0524
  559MOL0     H75432   0.629   7.709   2.659  2.1457  1.3389 -3.2423
  559MOL0     H75433   0.546   7.855   2.506 -0.5255  1.3910  2.0352
  559MOL0     H75434   0.423   7.745   2.437 -0.2316 -0.0545  0.2532
  559MOL0     H75435   0.421   7.832   2.738 -1.6654 -0.0490  1.0563
  559MOL0     H75436   0.304   7.731   2.666  0.0649 -0.0625  2.2669
  559MOL0     H75437   0.350   8.030   2.585 -1.2350  1.5030 -3.9196
  559MOL0     H75438   0.271   7.921   2.476  0.5453 -0.1318 -0.4977
  559MOL0     H75439   0.182   8.026   2.742  2.3652  1.0153 -1.9583
  559MOL0     H75440   0.114   7.867   2.679  0.9530 -0.9222 -1.0596
  559MOL0     H75441   0.108   8.151   2.563 -0.5651  0.5793  0.3329
  559MOL0     H75442   0.041   8.004   2.477  1.7524  0.6351 -0.2587
  559MOL0     H75443  -0.037   8.085   2.760 -1.5144 -1.1549 -0.3100
  559MOL0     H75444  -0.100   7.957   2.650 -0.8458  0.1815 -2.9454
  559MOL0     H75445  -0.096   8.239   2.557  0.7014 -0.7596 -1.8652
  559MOL0     H75446  -0.223   8.189   2.676 -0.0410 -0.2756  0.0930
  559MOL0     H75447   0.789   7.404   2.526 -1.7945  1.0988  0.8622
  559MOL0     H75448   1.045   7.422   2.517 -1.8473 -1.1554  0.6205
  559MOL0     H75449   1.385   7.550   2.526 -3.2252  0.5064  1.7171
  559MOL0     H75450   1.634   7.558   2.542 -1.6601 -2.8425  1.3158
  559MOL0     H75451   2.326   8.951   3.386 -0.5354  1.0961  1.0071
  559MOL0     H75452   2.536   8.893   3.462 -0.3547 -0.4010 -1.2949
  559MOL0     H75453   2.830   8.736   3.595  2.1002  0.2936 -1.4926
  559MOL0     H75454   3.066   8.687   3.616 -1.4039  1.9622 -0.9913
  559MOL0     H75455   3.267   8.661   3.676  0.2806  2.6936 -0.7800
  559MOL0     H75456   3.250   8.770   3.806 -3.3166 -1.6418 -0.5262
  559MOL0     H75457   3.448   8.648   3.925  3.8773  0.3468 -0.4580
  559MOL0     H75458   3.484   8.729   3.778  0.3114 -0.0042  0.7600
  559MOL0     H75459   3.431   8.503   3.660 -3.2631 -3.6401  1.7227
  559MOL0     H75460   3.443   8.437   3.819 -2.4087  0.7394 -1.0144
  559MOL0     H75461   3.671   8.616   3.690 -1.4528  0.5247 -0.0652
  559MOL0     H75462   3.648   8.432   3.680 -0.7056 -0.2684 -0.0272
  559MOL0     H75463   3.830   8.526   4.066  0.0896 -0.7445 -0.4010
  559MOL0     H75464   2.998   8.511   4.009  2.0166 -0.3320 -0.3320
  559MOL0     H75465   2.759   8.543   3.978  0.2783 -1.6257  0.0788
  560MOL0     O75466   0.812   6.637  10.543  0.0606  0.4971  0.1195
  560MOL0     C75467   0.845   6.549  10.461  0.1518 -0.4889 -0.9065
  560MOL0     O75468   0.760   6.476  10.375  0.6322 -0.0285 -0.0656
  560MOL0     C75469   0.627   6.503  10.403 -0.6970 -0.4161  0.1875
  560MOL0     C75470   0.550   6.428  10.494  0.3674  0.3801 -0.2424
  560MOL0     C75471   0.413   6.460  10.521 -0.1039 -0.4680  0.2892
  560MOL0     C75472   0.353   6.550  10.428 -0.7582  0.2888  0.0765
  560MOL0     O75473   0.222   6.580  10.438 -0.4441  0.0475  0.0263
  560MOL0     C75474   0.132   6.495  10.515 -0.4625 -0.5598 -0.7286
  560MOL0     C75475   0.096   6.359  10.464 -0.3748  0.6484  0.4323
  560MOL0     C75476   0.004   6.383  10.336 -0.2676 -0.0366 -0.2738
  560MOL0     C75477  -0.066   6.250  10.308  0.4054  0.6804  0.4583
  560MOL0     C75478  -0.206   6.264  10.237 -0.6927  0.2876  0.8001
  560MOL0     C75479  -0.315   6.283  10.339 -0.1001  0.1865  0.4161
  560MOL0     C75480  -0.454   6.314  10.277  0.8930 -0.1950  0.1710
  560MOL0     C75481  -0.559   6.359  10.374 -0.3089  0.4525 -0.3705
  560MOL0     N75482  -0.681   6.395  10.314 -0.2982  0.0633  0.1674
  560MOL0     C75483  -0.702   6.512  10.244  0.4345 -0.3593  0.1741
  560MOL0     C75484  -0.826   6.496  10.183  0.0301  0.8633 -0.7359
  560MOL0     C75485  -0.896   6.590  10.093  0.0552 -0.0699 -0.1414
  560MOL0     C75486  -1.050   6.545  10.084  0.3804  0.0633 -0.2504
  560MOL0     C75487  -1.132   6.623   9.982  1.0353  0.0375  0.3347
  560MOL0     C75488  -1.282   6.587   9.991  0.0758  0.3520 -0.6255
  560MOL0     O75489  -1.379   6.692   9.984  0.7602 -0.3827  0.3177
  560MOL0     C75490  -1.511   6.662   9.988  0.1875 -0.3505 -0.4593
  560MOL0     C75491  -1.564   6.546   9.940  0.6167 -0.1893  0.2265
  560MOL0     C75492  -1.708   6.533   9.954  0.3483 -0.2829  0.4456
  560MOL0     C75493  -1.769   6.419   9.867 -0.7630 -0.3321 -0.6159
  560MOL0     C75494  -1.793   6.620  10.035 -0.4265  1.1996  0.3405
  560MOL0     C75495  -1.941   6.611  10.055 -0.3732 -0.2158 -0.2524
  560MOL0     O75496  -2.005   6.715  10.126  0.0173 -0.1355 -0.1164
  560MOL0     C75497  -2.118   6.691  10.204  0.5034 -0.1046  0.1714
  560MOL0     C75498  -2.225   6.783  10.205  0.2494 -0.2568  0.4695
  560MOL0     C75499  -2.338   6.767  10.287 -0.1711 -0.1133  0.0181
  560MOL0     C75500  -2.347   6.649  10.367 -0.0749  0.1458 -0.1263
  560MOL0     O75501  -2.457   6.634  10.453  0.1368  1.2240  0.0203
  560MOL0     C75502  -2.483   6.499  10.499 -0.4943 -0.3654 -0.4144
  560MOL0     C75503  -2.637   6.477  10.520  0.0939 -0.1072  0.5955
  560MOL0     C75504  -2.717   6.557  10.408 -0.1294  0.4929  0.2802
  560MOL0     C75505  -2.861   6.495  10.406 -0.1260 -0.2504 -0.2930
  560MOL0     C75506  -2.931   6.565  10.296 -0.5372 -0.4120 -0.4551
  560MOL0     C75507  -3.074   6.516  10.285 -0.4371 -0.6984 -0.2766
  560MOL0     C75508  -3.099   6.368  10.260 -0.6039 -0.4376 -0.2127
  560MOL0     C75509  -3.214   6.324  10.165 -0.1998 -0.1889 -0.3434
  560MOL0    Cl75510  -3.378   6.392  10.211 -0.2506 -0.1850  0.1859
  560MOL0     C75511  -2.240   6.558  10.368 -0.2158 -0.6586 -0.8373
  560MOL0     C75512  -2.131   6.578  10.289  0.2208  0.1781  1.0692
  560MOL0     O75513  -2.000   6.515  10.012 -0.4290  0.0014 -0.5735
  560MOL0     C75514  -1.722   6.731  10.078 -0.1676 -0.2724  0.4509
  560MOL0     C75515  -1.590   6.758  10.060 -0.3011  0.5117 -0.6335
  560MOL0     N75516  -0.860   6.364  10.197 -0.8122  0.3783  0.0491
  560MOL0     N75517  -0.774   6.303  10.275  0.0539 -0.5173 -0.3794
  560MOL0     C75518   0.430   6.614  10.331  0.2883 -0.0098  0.3979
  560MOL0     C75519   0.562   6.588  10.325 -0.9369  0.0167  0.3534
  560MOL0     C75520   0.989   6.537  10.442  0.7525 -0.4337 -0.1199
  560MOL0     C75521   1.072   6.636  10.500 -0.2976  0.2860  0.5094
  560MOL0     C75522   1.213   6.636  10.461  0.5775  0.7141 -0.4022
  560MOL0     C75523   1.265   6.537  10.375  0.1976  1.0394 -0.4967
  560MOL0     O75524   1.396   6.554  10.350 -0.6653 -0.6389  0.1068
  560MOL0     C75525   1.451   6.474  10.260  0.1082  0.2091  0.7866
  560MOL0     C75526   1.597   6.516  10.253  0.3854  0.1395 -0.0957
  560MOL0     C75527   1.679   6.411  10.183 -0.3165  0.7839  0.0830
  560MOL0     C75528   1.833   6.426  10.197 -0.1084  0.5458  0.5028
  560MOL0     C75529   1.879   6.563  10.171  0.1536 -0.2413  0.5411
  560MOL0     C75530   1.923   6.675  10.155 -0.1119 -0.8690  0.2254
  560MOL0     C75531   1.186   6.440  10.325  0.4083  0.6372  0.2544
  560MOL0     C75532   1.044   6.449  10.349 -0.6798  0.6142  0.0100
  560MOL0     H75533   0.602   6.354  10.554 -0.4624  1.3547  1.7518
  560MOL0     H75534   0.363   6.395  10.592 -0.7754 -3.6817 -2.7953
  560MOL0     H75535   0.163   6.492  10.620 -2.0711  0.7654 -0.1769
  560MOL0     H75536   0.040   6.555  10.509  0.4148  0.6971 -3.9184
  560MOL0     H75537   0.182   6.296  10.441 -1.6935 -1.6125  1.4524
  560MOL0     H75538   0.046   6.303  10.543  1.7231 -2.4196 -0.2138
  560MOL0     H75539  -0.069   6.460  10.365  1.1684  1.6069 -0.8038
  560MOL0     H75540   0.065   6.418  10.252  5.0014 -1.9696  2.2942
  560MOL0     H75541   0.002   6.206  10.234  2.0516  1.3340  1.5106
  560MOL0     H75542  -0.075   6.180  10.392 -0.0153 -0.4825 -0.5301
  560MOL0     H75543  -0.207   6.345  10.163  0.4518 -1.4026 -1.1823
  560MOL0     H75544  -0.221   6.175  10.176  0.2443  1.8357 -1.8837
  560MOL0     H75545  -0.331   6.192  10.396 -0.9763  1.0873  1.6644
  560MOL0     H75546  -0.292   6.354  10.418 -1.8966  0.1257  1.0451
  560MOL0     H75547  -0.441   6.394  10.203  3.3239  3.3500  3.9851
  560MOL0     H75548  -0.491   6.222  10.231 -2.3458  1.8051 -1.5650
  560MOL0     H75549  -0.529   6.444  10.436  0.0477 -0.4130  0.6763
  560MOL0     H75550  -0.560   6.273  10.442  1.5230  0.4489 -0.2970
  560MOL0     H75551  -0.652   6.608  10.243 -0.6406  0.2670  2.0594
  560MOL0     H75552  -0.887   6.693  10.126 -0.6838  0.2622 -0.9198
  560MOL0     H75553  -0.855   6.577   9.992 -0.9516  0.5010 -0.6394
  560MOL0     H75554  -1.093   6.538  10.185  2.3447 -0.6567  0.5905
  560MOL0     H75555  -1.050   6.439  10.059 -1.9334 -0.5062  1.7955
  560MOL0     H75556  -1.095   6.609   9.880 -2.8962 -2.2106 -0.9844
  560MOL0     H75557  -1.110   6.725  10.016 -0.5108  0.2563  0.7425
  560MOL0     H75558  -1.291   6.535  10.087  2.2914  0.3955 -0.3365
  560MOL0     H75559  -1.304   6.517   9.910  2.2638 -0.6260 -0.4637
  560MOL0     H75560  -1.513   6.469   9.882  1.2591  2.4165 -2.9616
  560MOL0     H75561  -1.845   6.457   9.798 -0.6668 -0.4940 -0.8113
  560MOL0     H75562  -1.700   6.363   9.804 -0.4262 -0.4912 -0.1090
  560MOL0     H75563  -1.819   6.350   9.935 -0.5084  0.9015  0.8825
  560MOL0     H75564  -2.216   6.872  10.144 -2.1630 -0.4588 -0.3190
  560MOL0     H75565  -2.421   6.836  10.294  1.6856  2.1064  1.8788
  560MOL0     H75566  -2.470   6.420  10.426 -4.0347 -2.4071  0.8760
  560MOL0     H75567  -2.418   6.486  10.586 -0.0522  3.2088 -0.0582
  560MOL0     H75568  -2.651   6.369  10.508 -0.0089 -0.0550  0.2299
  560MOL0     H75569  -2.670   6.514  10.617 -0.3448  1.4279 -0.1113
  560MOL0     H75570  -2.661   6.531  10.318 -1.7781 -1.7551 -0.1916
  560MOL0     H75571  -2.706   6.665  10.415  0.8116  0.5777 -1.7265
  560MOL0     H75572  -2.847   6.388  10.384 -1.8504 -0.3639 -1.0171
  560MOL0     H75573  -2.915   6.513  10.499 -1.1763 -0.1606 -0.9060
  560MOL0     H75574  -2.878   6.548  10.202  0.4316 -3.5525  0.5190
  560MOL0     H75575  -2.931   6.674  10.306  1.7773 -0.2438 -1.6526
  560MOL0     H75576  -3.122   6.543  10.380  0.6840  0.6499 -0.0671
  560MOL0     H75577  -3.131   6.571  10.210 -2.9146 -1.3768  1.0009
  560MOL0     H75578  -3.104   6.316  10.356 -1.0347  0.4238  0.2334
  560MOL0     H75579  -3.005   6.329  10.218  1.0207  0.2834  2.5324
  560MOL0     H75580  -3.219   6.214  10.164 -1.2435 -0.1780  1.1680
  560MOL0     H75581  -3.192   6.353  10.062  0.4451 -0.3362 -0.2513
  560MOL0     H75582  -2.244   6.468  10.428 -0.6789  0.1078  0.3098
  560MOL0     H75583  -2.052   6.504  10.275 -1.6492 -1.5961 -0.8542
  560MOL0     H75584  -1.782   6.804  10.132 -0.0267  0.3400 -0.2106
  560MOL0     H75585  -1.547   6.854  10.088  1.4367 -0.5446  0.5072
  560MOL0     H75586   0.377   6.660  10.248  2.7914  1.7816 -0.3343
  560MOL0     H75587   0.623   6.639  10.251  1.2511 -1.0810  1.2822
  560MOL0     H75588   1.036   6.704  10.576 -0.8817 -0.7647  1.1991
  560MOL0     H75589   1.275   6.714  10.503  0.8065  0.8161 -0.9170
  560MOL0     H75590   1.437   6.375  10.305 -0.7202  0.9965  2.3245
  560MOL0     H75591   1.393   6.477  10.168 -1.3998 -1.1375  1.6533
  560MOL0     H75592   1.633   6.538  10.354 -0.7853  2.8666 -0.1803
  560MOL0     H75593   1.609   6.609  10.196  0.2939 -1.3109 -2.5976
  560MOL0     H75594   1.650   6.410  10.078 -0.9375 -3.3185  0.1373
  560MOL0     H75595   1.653   6.308  10.212  3.6303 -0.4694 -0.2666
  560MOL0     H75596   1.887   6.360  10.128 -2.6954 -0.9327 -0.2572
  560MOL0     H75597   1.860   6.404  10.301 -1.4448  0.7239  0.9148
  560MOL0     H75598   1.955   6.776  10.140 -0.0654 -1.1179 -1.5406
  560MOL0     H75599   1.208   6.363  10.250 -1.8995  1.9338 -1.8934
  560MOL0     H75600   0.978   6.378  10.299 -0.9706  0.7413  0.2094
  561MOL0     O75601   2.764   0.836   5.670 -0.0333  0.2966 -0.1944
  561MOL0     C75602   2.792   0.956   5.658 -0.2557  0.3564  0.2280
  561MOL0     O75603   2.710   1.048   5.601 -0.6137  0.1139 -0.3494
  561MOL0     C75604   2.596   1.010   5.550 -0.0553 -0.3112  0.1445
  561MOL0     C75605   2.496   0.950   5.625  0.3912  0.7152  0.5371
  561MOL0     C75606   2.368   0.934   5.566  0.0088  0.4477  0.3165
  561MOL0     C75607   2.340   0.971   5.431 -0.3697 -0.3098 -0.6500
  561MOL0     O75608   2.228   0.928   5.372  1.2989  0.1269 -0.1316
  561MOL0     C75609   2.190   0.974   5.241 -0.2195  0.0061  0.1005
  561MOL0     C75610   2.108   1.095   5.244 -0.3569  0.3342 -0.4289
  561MOL0     C75611   2.026   1.137   5.122 -0.0489  0.0021 -0.7497
  561MOL0     C75612   1.960   1.272   5.143  0.4115 -0.5452 -0.7143
  561MOL0     C75613   1.863   1.319   5.027  0.5173 -0.1581 -0.2697
  561MOL0     C75614   1.750   1.418   5.061  0.2217  0.0594 -0.3018
  561MOL0     C75615   1.637   1.404   4.961 -1.2053  0.5103  0.0768
  561MOL0     C75616   1.541   1.519   4.970  1.0060 -0.4253 -0.0344
  561MOL0     N75617   1.416   1.477   4.900  0.4705 -0.4600  0.2708
  561MOL0     C75618   1.293   1.435   4.960 -0.6662 -0.0929  0.4969
  561MOL0     C75619   1.205   1.403   4.860  0.6334  0.1851  1.0201
  561MOL0     C75620   1.061   1.345   4.885  0.1253  0.1330 -0.6300
  561MOL0     C75621   0.935   1.432   4.890  0.0478 -0.0158  0.3189
  561MOL0     C75622   0.916   1.515   4.762 -0.1724  0.2343 -0.2776
  561MOL0     C75623   0.771   1.542   4.727  0.4044 -0.4427 -0.7560
  561MOL0     O75624   0.708   1.580   4.851 -0.2801 -0.6847 -0.0796
  561MOL0     C75625   0.577   1.620   4.856  0.1164 -0.4212  1.4089
  561MOL0     C75626   0.557   1.728   4.942 -0.4113 -1.1873  0.2082
  561MOL0     C75627   0.435   1.782   4.966  0.4634  0.8912  0.4533
  561MOL0     C75628   0.423   1.884   5.074 -0.2506  0.5816  0.4866
  561MOL0     C75629   0.317   1.717   4.906 -1.1229 -0.2509 -0.5922
  561MOL0     C75630   0.180   1.758   4.928  0.0419  0.6264  0.1076
  561MOL0     O75631   0.156   1.880   4.973 -0.1503  0.1310  0.0532
  561MOL0     C75632   0.051   1.899   5.056 -0.2635  0.2739  0.4987
  561MOL0     C75633   0.045   1.857   5.186 -0.4199 -0.5644  0.2145
  561MOL0     C75634  -0.057   1.892   5.277 -0.3649 -0.0121 -0.5990
  561MOL0     C75635  -0.160   1.972   5.232  0.0380  0.2276  0.0189
  561MOL0     O75636  -0.269   2.009   5.315 -0.9326 -0.1947  0.4212
  561MOL0     C75637  -0.299   1.917   5.422  0.7000 -0.1102 -0.3474
  561MOL0     C75638  -0.433   1.945   5.498  0.3021  0.6714 -0.1617
  561MOL0     C75639  -0.440   2.094   5.513 -0.0263 -0.6549 -0.2217
  561MOL0     C75640  -0.547   2.128   5.613 -0.2908 -0.3075 -1.0333
  561MOL0     C75641  -0.566   2.278   5.634  0.3566 -0.3079 -0.3007
  561MOL0     C75642  -0.476   2.344   5.741  0.0963 -0.0991  0.2651
  561MOL0     C75643  -0.496   2.298   5.889  0.5486 -0.9540 -0.1073
  561MOL0     C75644  -0.617   2.370   5.944  0.3161 -0.1191 -0.7483
  561MOL0    Cl75645  -0.628   2.316   6.117 -0.1785 -0.3006  0.1197
  561MOL0     C75646  -0.154   2.028   5.103  0.0937  0.1623 -0.8934
  561MOL0     C75647  -0.056   1.990   5.006 -0.8837 -0.4003 -0.1366
  561MOL0     O75648   0.097   1.669   4.919 -0.2126 -0.1823  0.5107
  561MOL0     C75649   0.338   1.616   4.808  0.1860  1.0498  0.7149
  561MOL0     C75650   0.472   1.567   4.782  0.4480 -0.2688  1.2840
  561MOL0     N75651   1.274   1.439   4.746  0.0864  0.4828  0.2703
  561MOL0     N75652   1.398   1.469   4.767 -0.3012 -0.4152 -0.6957
  561MOL0     C75653   2.444   1.035   5.358 -0.0828  0.5915  0.4570
  561MOL0     C75654   2.571   1.054   5.420 -0.1020 -0.3927 -0.1044
  561MOL0     C75655   2.912   1.002   5.734 -1.3277  0.2696 -0.8642
  561MOL0     C75656   2.996   0.904   5.803  0.0351  0.2088 -0.5958
  561MOL0     C75657   3.089   0.943   5.895 -1.2505 -0.6197  0.0663
  561MOL0     C75658   3.125   1.078   5.908 -0.1640 -0.3259  0.1235
  561MOL0     O75659   3.245   1.115   5.967 -0.1196  0.0573 -0.0042
  561MOL0     C75660   3.339   1.009   5.998 -0.3183  0.3203 -0.3148
  561MOL0     C75661   3.451   1.059   6.084 -0.1652 -0.5243 -1.0485
  561MOL0     C75662   3.398   1.112   6.220  0.0568  0.3350 -0.7298
  561MOL0     C75663   3.524   1.115   6.317  0.9229 -0.4345  0.0077
  561MOL0     C75664   3.576   0.981   6.346  0.1057 -0.6369 -0.6056
  561MOL0     C75665   3.621   0.870   6.351  0.0917 -0.2898  0.4803
  561MOL0     C75666   3.050   1.177   5.842 -0.2212  0.9199  0.7415
  561MOL0     C75667   2.944   1.138   5.761  0.6873  0.1723  0.4574
  561MOL0     H75668   2.508   0.914   5.726  1.1009 -1.8285 -0.3689
  561MOL0     H75669   2.297   0.880   5.627 -0.7641 -2.4187 -2.8219
  561MOL0     H75670   2.278   0.974   5.175  1.2229  2.4770  1.8187
  561MOL0     H75671   2.122   0.901   5.198  1.2688 -2.0346  1.0607
  561MOL0     H75672   2.043   1.093   5.332  0.0130 -0.4002 -0.1658
  561MOL0     H75673   2.176   1.181   5.249  0.0081  0.2976 -3.3363
  561MOL0     H75674   2.098   1.150   5.040  0.4785 -1.5941 -0.5755
  561MOL0     H75675   1.962   1.052   5.096  1.6896 -2.1708  1.6406
  561MOL0     H75676   1.897   1.271   5.232 -1.1380  1.2425 -1.7147
  561MOL0     H75677   2.035   1.351   5.157 -1.3683  0.6284  4.8932
  561MOL0     H75678   1.924   1.377   4.957 -1.7297  1.4645 -0.9979
  561MOL0     H75679   1.815   1.232   4.980 -0.2775  1.2487 -2.2101
  561MOL0     H75680   1.711   1.392   5.160 -0.9356 -0.5823 -0.9127
  561MOL0     H75681   1.796   1.517   5.067  0.7320 -0.0953 -1.4582
  561MOL0     H75682   1.682   1.409   4.861 -0.8205  0.5512  0.2488
  561MOL0     H75683   1.583   1.312   4.986  1.3431 -0.9555  0.5787
  561MOL0     H75684   1.589   1.606   4.923 -0.4866  0.1748 -0.5204
  561MOL0     H75685   1.509   1.546   5.071 -3.5685  1.4400 -1.6598
  561MOL0     H75686   1.273   1.409   5.064  2.9483 -4.0672  0.4583
  561MOL0     H75687   1.042   1.271   4.807 -1.7454  0.4650 -0.5421
  561MOL0     H75688   1.076   1.292   4.979 -0.9937 -1.3493 -1.2603
  561MOL0     H75689   0.943   1.492   4.981  1.3364  0.6695 -0.2256
  561MOL0     H75690   0.849   1.364   4.894 -1.2773  1.1727 -3.2396
  561MOL0     H75691   0.953   1.458   4.677 -1.5641  0.7384 -1.2674
  561MOL0     H75692   0.964   1.614   4.768 -0.5158  0.4748 -1.2801
  561MOL0     H75693   0.722   1.456   4.680  1.2488 -2.2945  1.5343
  561MOL0     H75694   0.760   1.628   4.661  0.1402 -1.0394 -1.5101
  561MOL0     H75695   0.648   1.774   4.979 -0.5115 -3.3277  3.4975
  561MOL0     H75696   0.369   1.966   5.026 -1.1711 -1.6259 -2.5415
  561MOL0     H75697   0.366   1.848   5.161  1.3215  0.9269  1.7178
  561MOL0     H75698   0.521   1.928   5.095  0.5550 -0.0951 -1.6831
  561MOL0     H75699   0.124   1.789   5.216  3.4510  3.2137 -0.4302
  561MOL0     H75700  -0.072   1.859   5.379 -1.5266  2.9511  0.2952
  561MOL0     H75701  -0.297   1.817   5.377 -2.3255 -1.6867  2.4839
  561MOL0     H75702  -0.219   1.927   5.496  0.8012  1.8953 -0.6913
  561MOL0     H75703  -0.515   1.911   5.434  2.5167 -1.0577 -2.2758
  561MOL0     H75704  -0.431   1.900   5.598 -0.0979 -0.5292 -0.6744
  561MOL0     H75705  -0.458   2.149   5.420  0.6943  3.2627  1.7784
  561MOL0     H75706  -0.346   2.136   5.548  0.6742 -1.0697 -1.5230
  561MOL0     H75707  -0.645   2.087   5.586  0.3193 -1.2898 -1.8506
  561MOL0     H75708  -0.514   2.093   5.712  0.0420 -0.1364 -1.0824
  561MOL0     H75709  -0.667   2.289   5.675 -0.7427 -4.2909 -1.4494
  561MOL0     H75710  -0.561   2.327   5.536 -0.6184 -0.7019 -0.5546
  561MOL0     H75711  -0.371   2.327   5.713  0.7746  2.2294  1.1129
  561MOL0     H75712  -0.490   2.452   5.740 -1.0245 -0.1727  2.3547
  561MOL0     H75713  -0.405   2.322   5.944  0.0093  0.5792  0.1736
  561MOL0     H75714  -0.523   2.193   5.901  0.5914 -1.0358 -0.7175
  561MOL0     H75715  -0.709   2.335   5.896 -0.6635  0.1076  0.8915
  561MOL0     H75716  -0.615   2.479   5.933 -0.3342 -0.1716 -1.4604
  561MOL0     H75717  -0.238   2.090   5.075  0.1307  0.5673 -0.1137
  561MOL0     H75718  -0.060   2.042   4.911  1.7708 -0.4061 -0.3283
  561MOL0     H75719   0.256   1.566   4.757  2.0933 -2.0913  0.4114
  561MOL0     H75720   0.479   1.489   4.707 -0.6409 -0.0696  0.9493
  561MOL0     H75721   2.438   1.060   5.252  2.6388  0.5269  0.2185
  561MOL0     H75722   2.653   1.102   5.368  0.5661  0.9192  2.0152
  561MOL0     H75723   2.983   0.798   5.784 -1.0920  0.3468 -0.6701
  561MOL0     H75724   3.124   0.867   5.963 -2.2963 -1.5195 -0.3842
  561MOL0     H75725   3.295   0.935   6.064  2.7082  1.1579  2.9697
  561MOL0     H75726   3.386   0.956   5.914  2.0196 -0.2436  1.2469
  561MOL0     H75727   3.502   1.138   6.028  0.0379 -0.6299 -1.0135
  561MOL0     H75728   3.512   0.970   6.105 -1.3537 -0.8243  1.4636
  561MOL0     H75729   3.320   1.049   6.265  3.0903 -0.8383  3.6152
  561MOL0     H75730   3.364   1.214   6.204 -1.5349  0.2591  1.5831
  561MOL0     H75731   3.497   1.174   6.405  2.0423  0.4026 -0.1858
  561MOL0     H75732   3.603   1.170   6.264  3.7761 -1.8356  2.5372
  561MOL0     H75733   3.661   0.771   6.353  1.0047  0.0764  0.9061
  561MOL0     H75734   3.075   1.283   5.840 -3.1985  1.7270  1.0500
  561MOL0     H75735   2.888   1.206   5.697 -1.8950  1.2064  3.5156
  562MOL0     O75736   4.793  10.441   5.074 -0.1636  0.6083 -1.1724
  562MOL0     C75737   4.800  10.318   5.080 -0.2131 -0.4968 -0.2631
  562MOL0     O75738   4.697  10.235   5.046  0.1126  0.2588 -0.4770
  562MOL0     C75739   4.574  10.275   5.009  0.0846 -0.1116 -0.7298
  562MOL0     C75740   4.508  10.387   5.044 -0.2140  0.0544  0.1634
  562MOL0     C75741   4.382  10.423   4.999  1.1449  0.2842  0.5629
  562MOL0     C75742   4.313  10.323   4.922  0.0005  1.0107  0.1643
  562MOL0     O75743   4.184  10.347   4.875  0.1124 -0.4386 -0.2892
  562MOL0     C75744   4.085  10.396   4.969  0.6030 -0.2289 -0.4450
  562MOL0     C75745   4.032  10.292   5.070 -0.1540  0.3660 -0.7670
  562MOL0     C75746   3.938  10.191   4.995 -0.4657  0.5413 -0.4986
  562MOL0     C75747   3.794  10.234   5.015  0.7003 -0.4666 -0.4253
  562MOL0     C75748   3.701  10.117   4.971 -0.1252 -0.2635 -0.8464
  562MOL0     C75749   3.558  10.165   4.975 -0.0589 -0.2997  0.1357
  562MOL0     C75750   3.460  10.046   4.954  0.4163 -0.7922 -0.1864
  562MOL0     C75751   3.448   9.998   4.812 -0.4777 -0.3818 -0.1706
  562MOL0     N75752   3.391  10.093   4.727  0.6149 -1.0409 -0.5612
  562MOL0     C75753   3.257  10.137   4.722 -0.2293 -0.5785  0.2647
  562MOL0     C75754   3.257  10.218   4.612  0.2813 -0.4503 -0.4659
  562MOL0     C75755   3.151  10.305   4.567  0.2637 -0.5963 -0.8644
  562MOL0     C75756   3.082  10.260   4.442  0.6025  0.8415  0.5626
  562MOL0     C75757   2.990  10.138   4.461  0.4135 -1.2832  0.6200
  562MOL0     C75758   2.922  10.100   4.334 -0.5272 -0.8626  0.0489
  562MOL0     O75759   2.865   9.976   4.367  0.4645  0.1322 -0.1125
  562MOL0     C75760   2.735   9.981   4.421 -0.4018  0.8359 -0.0928
  562MOL0     C75761   2.624  10.038   4.361 -0.2741 -1.0524  0.1840
  562MOL0     C75762   2.495  10.047   4.422 -0.5236  0.8370 -0.3635
  562MOL0     C75763   2.382  10.137   4.350 -0.1056  0.1555  0.1727
  562MOL0     C75764   2.474   9.982   4.541 -0.6139  0.3334 -0.9014
  562MOL0     C75765   2.341   9.972   4.606  0.0368 -0.0956 -0.3901
  562MOL0     O75766   2.228   9.975   4.534  0.1176 -1.2937 -0.5412
  562MOL0     C75767   2.112   9.935   4.594  1.0861  0.3244  0.0877
  562MOL0     C75768   2.078   9.799   4.585  0.9838  0.3346  0.6841
  562MOL0     C75769   1.979   9.741   4.659  0.4443 -0.2093 -0.2031
  562MOL0     C75770   1.902   9.820   4.748 -0.3931 -0.0152 -0.0558
  562MOL0     O75771   1.796   9.784   4.830 -0.1796  0.2650  0.1081
  562MOL0     C75772   1.796   9.643   4.853  0.5924 -0.7210 -0.2796
  562MOL0     C75773   1.680   9.574   4.780 -0.0128  0.9437  0.8755
  562MOL0     C75774   1.551   9.635   4.808  0.7600 -0.3794 -0.0709
  562MOL0     C75775   1.446   9.569   4.718 -0.1404 -0.9742  0.1044
  562MOL0     C75776   1.304   9.558   4.783  0.6365 -1.3170  0.4578
  562MOL0     C75777   1.251   9.696   4.818 -0.1514  0.2161  0.9553
  562MOL0     C75778   1.106   9.682   4.870 -0.5208  0.2859 -0.5975
  562MOL0     C75779   1.052   9.820   4.902  0.2551 -0.4815  0.2331
  562MOL0    Cl75780   0.880   9.807   4.900  0.2119 -0.4432  0.3721
  562MOL0     C75781   1.924   9.958   4.746  0.2862  0.6564  0.0225
  562MOL0     C75782   2.041  10.014   4.681  0.0874 -0.4901 -1.0503
  562MOL0     O75783   2.345   9.952   4.727  0.4414  0.8289 -0.2688
  562MOL0     C75784   2.579   9.907   4.595 -0.5437  0.5256 -0.0621
  562MOL0     C75785   2.707   9.904   4.530 -0.1868  0.1664 -0.1717
  562MOL0     N75786   3.376  10.217   4.552 -0.0327 -1.0183 -0.0852
  562MOL0     N75787   3.455  10.148   4.628 -0.3465  0.2100  0.4768
  562MOL0     C75788   4.381  10.208   4.873 -0.4064 -0.1803 -0.0240
  562MOL0     C75789   4.508  10.182   4.927 -0.1793 -0.5395 -0.4375
  562MOL0     C75790   4.929  10.246   5.108 -0.2499  0.5267  0.5375
  562MOL0     C75791   4.948  10.106   5.104 -1.1440 -0.2763  0.6131
  562MOL0     C75792   5.073  10.054   5.126  0.3458  0.1179  1.3080
  562MOL0     C75793   5.187  10.130   5.155  0.1284 -0.1809  0.0218
  562MOL0     O75794   5.308  10.072   5.185 -0.5339 -0.3222  0.2834
  562MOL0     C75795   5.316  10.016   5.320  0.1707  0.0678  0.2118
  562MOL0     C75796   5.452   9.949   5.333 -0.0841  0.0630  0.7921
  562MOL0     C75797   5.454   9.816   5.415 -0.3519  0.4934  0.1464
  562MOL0     C75798   5.599   9.765   5.439 -0.2978 -0.9197 -0.0224
  562MOL0     C75799   5.679   9.860   5.508 -0.3984  0.0243 -0.2697
  562MOL0     C75800   5.753   9.935   5.565  0.1015  0.0534  0.0610
  562MOL0     C75801   5.173  10.269   5.160 -0.3809  0.4619 -0.2165
  562MOL0     C75802   5.039  10.323   5.143  0.4706  0.1396  0.4336
  562MOL0     H75803   4.549  10.453   5.121  0.6836  0.1089 -0.3472
  562MOL0     H75804   4.335  10.515   5.031 -0.1326 -0.9590  2.4217
  562MOL0     H75805   4.122  10.481   5.027 -2.0607 -1.0974  2.8581
  562MOL0     H75806   4.001  10.432   4.909 -0.6744  0.8077  1.8343
  562MOL0     H75807   4.119  10.243   5.114 -0.3324  1.0491  0.4134
  562MOL0     H75808   3.974  10.337   5.151 -1.0293 -1.4814 -0.3078
  562MOL0     H75809   3.966  10.197   4.890 -3.7753 -1.0031 -1.5728
  562MOL0     H75810   3.952  10.090   5.035  2.0008  1.4343  1.2151
  562MOL0     H75811   3.769  10.253   5.120 -1.8555 -1.1244 -0.8529
  562MOL0     H75812   3.766  10.322   4.957  0.3035 -0.8008 -0.7450
  562MOL0     H75813   3.726  10.090   4.869  2.1465 -0.4764 -0.2772
  562MOL0     H75814   3.714  10.029   5.034  0.1495 -0.6719 -1.4714
  562MOL0     H75815   3.549  10.208   5.075  0.7294 -1.0603  0.5494
  562MOL0     H75816   3.536  10.247   4.907  1.7172  1.4056  1.4980
  562MOL0     H75817   3.482   9.970   5.030  0.5162 -1.3597 -0.7833
  562MOL0     H75818   3.361  10.080   4.986  0.5168  0.9384 -1.5574
  562MOL0     H75819   3.382   9.911   4.808  3.1856 -3.3737 -0.8495
  562MOL0     H75820   3.548   9.969   4.778 -0.2955 -2.7112  2.0551
  562MOL0     H75821   3.179  10.112   4.793 -0.0713  0.5584  0.8604
  562MOL0     H75822   3.075  10.305   4.647  0.5452 -1.4130 -0.5883
  562MOL0     H75823   3.195  10.400   4.536 -2.8068  0.0832 -3.7458
  562MOL0     H75824   3.153  10.227   4.365  0.5188 -0.6312  1.0859
  562MOL0     H75825   3.018  10.342   4.408 -0.9676 -0.8459 -0.7138
  562MOL0     H75826   2.915  10.161   4.538  1.8675  0.7019  1.5298
  562MOL0     H75827   3.050  10.050   4.485  1.9579 -0.4083  0.1311
  562MOL0     H75828   2.996  10.102   4.253  2.0117  2.4269  2.2038
  562MOL0     H75829   2.845  10.174   4.308  0.3344  0.1100  0.1863
  562MOL0     H75830   2.653  10.098   4.276 -0.5635  0.1056  0.8727
  562MOL0     H75831   2.300  10.069   4.324 -1.2698  2.3473 -2.2539
  562MOL0     H75832   2.347  10.223   4.408 -2.6506 -0.3556 -0.4748
  562MOL0     H75833   2.418  10.174   4.254 -1.2757  0.5011 -0.1507
  562MOL0     H75834   2.137   9.723   4.535  0.2724  0.3300 -0.1841
  562MOL0     H75835   1.966   9.635   4.644  2.1553 -0.4254 -0.3289
  562MOL0     H75836   1.891   9.593   4.830 -0.1709 -1.6623 -1.5464
  562MOL0     H75837   1.779   9.634   4.961 -0.4478  3.0076 -0.0085
  562MOL0     H75838   1.697   9.568   4.672 -2.5795 -1.5128  0.4834
  562MOL0     H75839   1.673   9.470   4.811 -1.8902  0.7371 -0.1160
  562MOL0     H75840   1.546   9.743   4.789 -0.1125 -0.2694  0.7074
  562MOL0     H75841   1.539   9.633   4.916  2.6836  1.9058  0.2624
  562MOL0     H75842   1.436   9.630   4.627 -0.6874  1.7260  1.8735
  562MOL0     H75843   1.476   9.469   4.683  2.7805  0.4794 -2.0389
  562MOL0     H75844   1.314   9.498   4.874 -1.5901 -0.8442  1.0763
  562MOL0     H75845   1.242   9.505   4.710  1.5243 -0.4583 -0.9671
  562MOL0     H75846   1.317   9.747   4.888  1.3739 -1.3805  0.7387
  562MOL0     H75847   1.250   9.753   4.724  2.0591  0.0461  0.7937
  562MOL0     H75848   1.124   9.628   4.964 -0.5154  0.3196 -0.5790
  562MOL0     H75849   1.034   9.628   4.808 -1.2782  1.2939 -0.6283
  562MOL0     H75850   1.081   9.894   4.827  0.2432 -0.1804  0.5211
  562MOL0     H75851   1.094   9.856   4.996  0.1916 -1.3914  0.6215
  562MOL0     H75852   1.867  10.027   4.807 -0.7357 -0.1770  0.0318
  562MOL0     H75853   2.066  10.120   4.686 -0.0475 -0.4440 -1.3265
  562MOL0     H75854   2.570   9.851   4.688  2.0491  2.9017  1.7732
  562MOL0     H75855   2.777   9.834   4.576 -3.7948 -0.9975  4.1957
  562MOL0     H75856   4.339  10.144   4.796 -1.0763  1.6841 -1.2800
  562MOL0     H75857   4.563  10.091   4.906 -0.9528 -1.8466  2.6327
  562MOL0     H75858   4.870  10.039   5.069  1.2469 -2.6786 -0.5419
  562MOL0     H75859   5.071   9.945   5.127 -2.7861  0.0606  3.1446
  562MOL0     H75860   5.297  10.096   5.392 -1.0863  0.1543 -0.1966
  562MOL0     H75861   5.234   9.944   5.322 -0.2404  0.5400  1.0612
  562MOL0     H75862   5.522  10.027   5.365 -0.6360  0.6914  0.5004
  562MOL0     H75863   5.486   9.911   5.236  1.1755  1.5974  0.5819
  562MOL0     H75864   5.393   9.736   5.373 -0.1599  0.2964  0.2466
  562MOL0     H75865   5.405   9.838   5.510  0.3002  0.0621  0.5911
  562MOL0     H75866   5.660   9.745   5.351  3.5762 -0.0131  2.2181
  562MOL0     H75867   5.590   9.673   5.497  1.3590 -0.0960  1.6630
  562MOL0     H75868   5.809  10.003   5.626  1.3233 -2.8577  2.4320
  562MOL0     H75869   5.258  10.322   5.203 -1.9671  0.7288  2.9165
  562MOL0     H75870   5.032  10.430   5.158  0.6543  0.3702 -0.9387
  563MOL0     O75871  10.189   8.529   2.947  0.0588  0.2180 -0.5895
  563MOL0     C75872  10.185   8.413   2.982  0.2262  0.0481  0.0313
  563MOL0     O75873  10.079   8.360   3.057 -0.3777 -0.1543 -0.1195
  563MOL0     C75874   9.979   8.450   3.090  0.8862 -1.0236 -0.2041
  563MOL0     C75875   9.908   8.521   2.999  0.0225 -0.1722  1.0032
  563MOL0     C75876   9.795   8.590   3.037 -0.6844 -0.1559 -0.0087
  563MOL0     C75877   9.777   8.615   3.173  0.0780  0.1127 -0.0461
  563MOL0     O75878   9.686   8.711   3.201 -0.7331 -0.2588 -0.1247
  563MOL0     C75879   9.701   8.797   3.323  0.1552 -0.1387 -0.5584
  563MOL0     C75880   9.596   8.908   3.311  0.1292 -0.0087 -0.4393
  563MOL0     C75881   9.626   9.012   3.193  0.7732  0.5257 -0.0142
  563MOL0     C75882   9.556   9.148   3.221 -0.4745  0.0519 -0.3938
  563MOL0     C75883   9.588   9.242   3.104  0.4658  0.0738  0.6120
  563MOL0     C75884   9.506   9.371   3.140  0.9212 -0.0505  0.0750
  563MOL0     C75885   9.564   9.496   3.071  1.4806 -0.6246 -0.0801
  563MOL0     C75886   9.488   9.629   3.102 -0.5914  0.2406  0.3074
  563MOL0     N75887   9.342   9.610   3.131  0.0443 -1.1175  0.1863
  563MOL0     C75888   9.239   9.622   3.041  0.6585  0.2251  0.4189
  563MOL0     C75889   9.133   9.608   3.119  0.8565  0.0635  0.2804
  563MOL0     C75890   8.999   9.587   3.061 -0.2508 -0.3333 -0.1556
  563MOL0     C75891   8.957   9.436   3.033  0.8607  0.2075 -0.1825
  563MOL0     C75892   9.049   9.321   3.068 -1.0110  0.0894  0.3402
  563MOL0     C75893   8.970   9.195   3.057  0.3565  0.3202  0.1420
  563MOL0     O75894   8.877   9.193   3.168  0.5006  0.2477 -0.3492
  563MOL0     C75895   8.767   9.121   3.138 -0.1289  0.4249  0.3324
  563MOL0     C75896   8.763   8.986   3.187  0.4595 -0.8326 -0.1043
  563MOL0     C75897   8.657   8.906   3.147 -0.5205 -0.2838 -0.8996
  563MOL0     C75898   8.677   8.762   3.193  0.1733  0.1802  0.1027
  563MOL0     C75899   8.549   8.962   3.069 -0.5258  0.5101  0.1878
  563MOL0     C75900   8.459   8.881   2.994  0.4292  0.0786  0.8398
  563MOL0     O75901   8.324   8.891   3.021  0.8147 -0.1226 -0.4978
  563MOL0     C75902   8.222   8.828   2.959  0.2681 -0.2201 -0.9353
  563MOL0     C75903   8.225   8.725   2.855 -0.1554 -0.5898 -0.2974
  563MOL0     C75904   8.111   8.662   2.809  0.4109 -0.6243 -0.3436
  563MOL0     C75905   7.983   8.697   2.856 -0.0589 -0.2852  0.3618
  563MOL0     O75906   7.865   8.642   2.807 -0.4967 -0.1922 -0.0627
  563MOL0     C75907   7.756   8.624   2.895  0.3402 -0.0958 -0.7397
  563MOL0     C75908   7.634   8.693   2.825  0.6840 -0.5935 -0.4347
  563MOL0     C75909   7.515   8.709   2.928  0.0004  0.3110 -0.2196
  563MOL0     C75910   7.390   8.761   2.864 -0.2044 -0.5278  0.2693
  563MOL0     C75911   7.272   8.766   2.964 -0.8364  0.5737  0.0684
  563MOL0     C75912   7.143   8.820   2.900 -0.8661  0.5474 -0.3006
  563MOL0     C75913   7.023   8.790   3.000 -0.8167 -0.0923 -0.1144
  563MOL0     C75914   6.900   8.859   2.962  0.3031 -0.1145  0.5397
  563MOL0    Cl75915   6.764   8.820   3.060  0.2471 -0.4577  0.2904
  563MOL0     C75916   7.985   8.805   2.947  0.9617  0.5814 -0.4949
  563MOL0     C75917   8.097   8.865   3.001  0.4286 -0.2114 -0.2154
  563MOL0     O75918   8.501   8.806   2.902 -0.5975  0.1824  0.0128
  563MOL0     C75919   8.561   9.091   3.020 -0.2048 -0.1109  0.4522
  563MOL0     C75920   8.667   9.170   3.055  0.3489  0.7695 -0.8837
  563MOL0     N75921   9.162   9.596   3.255 -0.3321  0.4534  0.0796
  563MOL0     N75922   9.292   9.591   3.265  0.8504 -0.5536  0.0626
  563MOL0     C75923   9.855   8.552   3.275  0.4914  0.3294  0.3064
  563MOL0     C75924   9.956   8.464   3.231 -0.1378  0.0369  0.4967
  563MOL0     C75925  10.290   8.310   2.946 -0.5926  0.7597 -0.1855
  563MOL0     C75926  10.299   8.181   3.012 -0.0860  0.5370  0.4972
  563MOL0     C75927  10.399   8.090   2.978 -0.2513 -0.1219  0.3982
  563MOL0     C75928  10.503   8.119   2.885  0.2376  0.0343 -0.0063
  563MOL0     O75929  10.601   8.025   2.861  1.0070  0.4068 -0.4092
  563MOL0     C75930  10.677   8.050   2.745 -0.4415  0.4131 -0.1918
  563MOL0     C75931  10.799   7.967   2.747 -0.5048  0.5693  0.0408
  563MOL0     C75932  10.858   7.930   2.885  0.0727 -0.3578 -0.0230
  563MOL0     C75933  10.963   7.821   2.872  0.2113  0.1532 -0.1703
  563MOL0     C75934  10.923   7.704   2.794  0.2479 -0.2684  0.7697
  563MOL0     C75935  10.868   7.615   2.735  0.5473 -0.6330  0.5494
  563MOL0     C75936  10.488   8.241   2.819  0.8210 -0.2130  0.4545
  563MOL0     C75937  10.390   8.333   2.853 -0.2249  0.5278  0.6559
  563MOL0     H75938   9.944   8.514   2.897 -1.4662 -2.7689  0.5585
  563MOL0     H75939   9.740   8.638   2.957  1.2881  3.3867  0.5153
  563MOL0     H75940   9.688   8.738   3.414  0.1891 -0.8844 -1.0315
  563MOL0     H75941   9.803   8.838   3.320 -0.0005  0.5197  1.5915
  563MOL0     H75942   9.498   8.869   3.281 -0.3215  0.0294  0.9393
  563MOL0     H75943   9.588   8.961   3.406  2.0030 -1.1132  0.3848
  563MOL0     H75944   9.733   9.031   3.180  1.0339 -0.0039  1.1752
  563MOL0     H75945   9.595   8.973   3.096 -0.8122 -0.4134  0.8287
  563MOL0     H75946   9.449   9.136   3.244 -0.6878  0.5609 -1.0723
  563MOL0     H75947   9.591   9.187   3.317  1.2440 -2.5836  0.1311
  563MOL0     H75948   9.696   9.254   3.100  0.5777 -0.4359  1.8319
  563MOL0     H75949   9.561   9.201   3.006 -1.8970  1.9703  0.3733
  563MOL0     H75950   9.401   9.355   3.115  0.9787 -0.2557 -0.0405
  563MOL0     H75951   9.505   9.390   3.247  1.0463 -2.0107  0.4528
  563MOL0     H75952   9.666   9.525   3.100  1.3496  1.3959 -1.4719
  563MOL0     H75953   9.565   9.496   2.961  3.1616  1.4846 -0.1420
  563MOL0     H75954   9.498   9.697   3.017  1.7304 -0.8765 -0.3921
  563MOL0     H75955   9.544   9.672   3.186 -0.4909  1.5633 -0.3983
  563MOL0     H75956   9.244   9.642   2.934 -2.2685 -1.4811 -0.1377
  563MOL0     H75957   8.923   9.625   3.130 -2.4596  0.2887 -2.7337
  563MOL0     H75958   9.001   9.650   2.971  0.7631 -0.5456 -0.2949
  563MOL0     H75959   8.939   9.429   2.925  0.2598  0.9709 -0.1397
  563MOL0     H75960   8.868   9.431   3.096  0.9721 -0.0292 -0.0434
  563MOL0     H75961   9.076   9.320   3.174  1.0338 -3.2518 -0.0795
  563MOL0     H75962   9.135   9.317   3.001 -0.3761 -0.6364  1.1768
  563MOL0     H75963   9.044   9.114   3.060  2.4199  2.0156 -1.6469
  563MOL0     H75964   8.922   9.191   2.959 -2.8095 -1.2882  1.6173
  563MOL0     H75965   8.836   8.961   3.263  0.0313 -0.0666  0.5803
  563MOL0     H75966   8.700   8.759   3.300  0.4209  2.2463  0.1515
  563MOL0     H75967   8.580   8.712   3.181  0.8860 -1.4230  0.7437
  563MOL0     H75968   8.754   8.712   3.134  1.1439  1.3619  0.3251
  563MOL0     H75969   8.319   8.689   2.815 -0.0107  0.7760 -1.2438
  563MOL0     H75970   8.108   8.572   2.749 -1.5119  0.0346 -1.3156
  563MOL0     H75971   7.730   8.517   2.896 -2.6051  0.5364 -1.4099
  563MOL0     H75972   7.771   8.658   2.998  0.4645  1.5771 -1.2850
  563MOL0     H75973   7.662   8.794   2.792 -2.3134  0.0875 -1.1953
  563MOL0     H75974   7.598   8.639   2.737 -2.3770  0.5299  0.0041
  563MOL0     H75975   7.542   8.773   3.013 -0.0999  2.0521 -1.4404
  563MOL0     H75976   7.493   8.610   2.970 -1.7105  2.2261  3.9387
  563MOL0     H75977   7.390   8.863   2.826  1.3922 -1.1276 -1.4815
  563MOL0     H75978   7.356   8.703   2.778  1.0756 -0.2268 -0.4551
  563MOL0     H75979   7.297   8.815   3.058 -0.5502 -1.8942  1.3715
  563MOL0     H75980   7.246   8.663   2.989 -2.5959  0.5297 -1.6522
  563MOL0     H75981   7.154   8.924   2.869  1.0191  0.6630  0.6300
  563MOL0     H75982   7.130   8.759   2.811 -0.1683  1.0799 -0.7815
  563MOL0     H75983   7.056   8.819   3.100 -3.4774 -1.9088  1.3660
  563MOL0     H75984   7.005   8.683   3.005  2.2310 -0.7061  0.0762
  563MOL0     H75985   6.886   8.841   2.855  0.5988 -1.5526  0.7228
  563MOL0     H75986   6.921   8.965   2.981 -0.7123 -0.0680  1.5200
  563MOL0     H75987   7.889   8.838   2.984  0.5465 -1.2658  0.1993
  563MOL0     H75988   8.094   8.941   3.078 -1.1908  0.5385 -0.9845
  563MOL0     H75989   8.491   9.133   2.949  1.1664 -0.4624 -1.1798
  563MOL0     H75990   8.665   9.272   3.016 -0.6001  0.1538 -2.5479
  563MOL0     H75991   9.824   8.572   3.377  0.4705  2.0291 -0.0043
  563MOL0     H75992  10.021   8.412   3.300  0.2450  0.9115  0.8076
  563MOL0     H75993  10.234   8.152   3.094  2.1987  0.5074  2.3695
  563MOL0     H75994  10.398   7.994   3.030  1.6153 -0.3076  0.1720
  563MOL0     H75995  10.625   8.033   2.650 -0.3481 -2.5219  0.1892
  563MOL0     H75996  10.721   8.150   2.749  1.7728 -0.5395  0.7574
  563MOL0     H75997  10.883   8.010   2.693  1.7957 -3.1338  0.3407
  563MOL0     H75998  10.771   7.875   2.695 -0.5284 -0.1729  1.3116
  563MOL0     H75999  10.770   7.901   2.944  1.8687 -2.0227  1.9688
  563MOL0     H76000  10.908   8.019   2.923 -0.3902  0.1464 -0.5872
  563MOL0     H76001  10.990   7.809   2.977  3.5702  3.2900 -0.5159
  563MOL0     H76002  11.058   7.859   2.835 -0.1410  3.6564  2.0968
  563MOL0     H76003  10.811   7.549   2.673 -0.4754 -0.5533  1.3942
  563MOL0     H76004  10.558   8.270   2.742  1.5323  0.5810  1.3877
  563MOL0     H76005  10.390   8.432   2.809  1.2556  0.7625  1.1404
  564MOL0     O76006   4.326   4.896   0.912 -0.3611  0.3777  0.1092
  564MOL0     C76007   4.243   4.936   0.997 -0.0449 -0.0140 -0.7491
  564MOL0     O76008   4.273   4.994   1.118  0.0255  0.7533 -0.1561
  564MOL0     C76009   4.408   5.024   1.142 -0.3651  0.4825 -0.2011
  564MOL0     C76010   4.456   4.988   1.270  0.0959  0.4789  0.3716
  564MOL0     C76011   4.584   5.021   1.311  0.1668  0.7491 -0.9817
  564MOL0     C76012   4.667   5.108   1.229  0.2886 -1.1183  0.3261
  564MOL0     O76013   4.794   5.149   1.262 -0.6062  0.0933 -0.0291
  564MOL0     C76014   4.829   5.161   1.397  0.0597 -0.4395  0.2308
  564MOL0     C76015   4.960   5.233   1.396 -0.8315 -0.2778 -0.1437
  564MOL0     C76016   5.006   5.287   1.537 -0.3210  0.4331 -0.5167
  564MOL0     C76017   5.110   5.395   1.513 -0.0613 -0.4581 -0.4612
  564MOL0     C76018   5.170   5.442   1.650 -0.2412  0.0893 -0.1133
  564MOL0     C76019   5.285   5.545   1.619  0.0722  0.0751 -0.2746
  564MOL0     C76020   5.349   5.623   1.729  0.2221  1.0618 -1.0079
  564MOL0     C76021   5.256   5.714   1.805 -0.3873 -0.2787  0.1534
  564MOL0     N76022   5.330   5.778   1.908  0.1765  0.2976 -0.0127
  564MOL0     C76023   5.385   5.897   1.906  0.1833 -0.3984 -0.2227
  564MOL0     C76024   5.420   5.928   2.030  0.0886 -0.9647 -0.0834
  564MOL0     C76025   5.474   6.061   2.082  0.8398  0.7805  0.0540
  564MOL0     C76026   5.504   6.064   2.234  0.8640 -0.7700  0.2052
  564MOL0     C76027   5.486   6.204   2.294 -0.4930 -0.0167 -0.1547
  564MOL0     C76028   5.491   6.217   2.448  0.3067 -0.2614 -0.7781
  564MOL0     O76029   5.390   6.139   2.527  0.1869  0.1885  0.1557
  564MOL0     C76030   5.281   6.205   2.574  0.6561 -0.0417  0.1976
  564MOL0     C76031   5.165   6.128   2.576  0.0786 -0.1010  0.6992
  564MOL0     C76032   5.039   6.186   2.602 -0.0628 -1.3020 -0.6253
  564MOL0     C76033   4.930   6.085   2.596 -0.6072 -0.3286 -0.8056
  564MOL0     C76034   5.030   6.322   2.636  0.1332 -0.1180  1.0298
  564MOL0     C76035   4.899   6.392   2.644 -0.3450 -0.3402  0.0251
  564MOL0     O76036   4.790   6.337   2.584  0.1538 -0.4651 -0.5474
  564MOL0     C76037   4.667   6.388   2.612  0.2848  0.2409 -0.4752
  564MOL0     C76038   4.608   6.494   2.545 -0.8925  0.3940  0.6422
  564MOL0     C76039   4.475   6.537   2.567 -0.4017  0.9934 -0.0825
  564MOL0     C76040   4.394   6.476   2.662 -0.1211  0.6436 -0.0761
  564MOL0     O76041   4.267   6.508   2.688  0.1347 -0.5073  0.0884
  564MOL0     C76042   4.174   6.424   2.754 -0.4679  0.8767 -0.0506
  564MOL0     C76043   4.035   6.486   2.758  0.7473  0.1788  0.4568
  564MOL0     C76044   3.943   6.378   2.787  0.4048  0.3895  0.4650
  564MOL0     C76045   3.808   6.434   2.821  0.2860 -0.1996  0.7883
  564MOL0     C76046   3.727   6.322   2.899 -0.7030 -0.0872 -0.3079
  564MOL0     C76047   3.588   6.321   2.863 -0.2874  0.8745  0.0142
  564MOL0     C76048   3.509   6.198   2.912 -0.2427 -0.0653 -1.0584
  564MOL0     C76049   3.438   6.225   3.043  0.2078  0.2757 -0.0995
  564MOL0    Cl76050   3.277   6.292   3.019 -0.1671 -0.8210  0.1401
  564MOL0     C76051   4.452   6.366   2.730 -0.5211 -0.0469  0.0484
  564MOL0     C76052   4.582   6.322   2.704 -0.0258 -0.0168 -0.5058
  564MOL0     O76053   4.900   6.486   2.727  0.2242  0.1727  0.3609
  564MOL0     C76054   5.152   6.397   2.643  0.8000 -0.2179 -0.3929
  564MOL0     C76055   5.274   6.342   2.613  0.3706 -0.7953 -0.3250
  564MOL0     N76056   5.403   5.817   2.107  0.3137  0.9161 -0.5182
  564MOL0     N76057   5.334   5.728   2.036  1.2255 -0.2229  0.1106
  564MOL0     C76058   4.613   5.154   1.109  0.6316 -0.5002 -0.7283
  564MOL0     C76059   4.491   5.108   1.061  0.5654 -0.3778  0.2251
  564MOL0     C76060   4.091   4.929   0.963  0.4261  0.4505 -0.5729
  564MOL0     C76061   3.994   4.941   1.068  0.2803  0.2599 -0.5693
  564MOL0     C76062   3.858   4.940   1.047  0.3494  0.9922  0.2038
  564MOL0     C76063   3.810   4.908   0.920  0.1916 -0.1804  0.3282
  564MOL0     O76064   3.669   4.924   0.899  0.1653  0.4761 -0.1540
  564MOL0     C76065   3.610   4.887   0.775  0.5736  0.2953 -0.3696
  564MOL0     C76066   3.458   4.888   0.799 -0.9230 -0.8681 -0.0858
  564MOL0     C76067   3.423   4.770   0.880  0.8856  0.4552 -1.0227
  564MOL0     C76068   3.270   4.746   0.885  0.3547 -0.9647 -0.4532
  564MOL0     C76069   3.242   4.608   0.938  0.3710 -0.1096 -0.2157
  564MOL0     C76070   3.204   4.496   0.954 -0.4035  0.0079  0.3722
  564MOL0     C76071   3.902   4.876   0.821  0.2419 -0.4441 -0.7646
  564MOL0     C76072   4.040   4.877   0.844 -0.0009  0.0382 -0.3981
  564MOL0     H76073   4.384   4.926   1.322 -0.1414 -0.6446 -1.2162
  564MOL0     H76074   4.608   4.984   1.410 -0.7362 -0.1335 -1.0773
  564MOL0     H76075   4.759   5.222   1.455  0.2461  1.2081 -1.2151
  564MOL0     H76076   4.834   5.063   1.446 -0.9879 -0.0634  1.1131
  564MOL0     H76077   5.030   5.165   1.348  0.2723  0.8933 -0.2285
  564MOL0     H76078   4.946   5.322   1.334 -1.7512 -0.8714 -0.8217
  564MOL0     H76079   4.919   5.333   1.586  0.1144 -0.0003  0.7120
  564MOL0     H76080   5.053   5.213   1.603 -0.8281  1.0115  0.5079
  564MOL0     H76081   5.181   5.346   1.445 -2.3150 -2.7387 -1.2987
  564MOL0     H76082   5.069   5.481   1.459 -0.0650  0.9244  1.6482
  564MOL0     H76083   5.088   5.496   1.700  0.0946 -0.2904  0.8815
  564MOL0     H76084   5.194   5.358   1.716 -0.5733  1.2530  1.5815
  564MOL0     H76085   5.363   5.484   1.573 -0.2369  1.6366 -3.0660
  564MOL0     H76086   5.256   5.613   1.540  1.3718  0.9188 -0.0567
  564MOL0     H76087   5.405   5.551   1.789 -0.1334  0.6018 -1.2213
  564MOL0     H76088   5.427   5.678   1.676  1.0349  0.8576 -0.0643
  564MOL0     H76089   5.168   5.664   1.846 -0.4243  1.3844  2.3434
  564MOL0     H76090   5.219   5.792   1.738  0.0980  0.4504  0.7132
  564MOL0     H76091   5.372   5.964   1.821 -5.8790 -1.1124 -0.3294
  564MOL0     H76092   5.566   6.085   2.030  1.1331 -0.1922  0.1023
  564MOL0     H76093   5.394   6.130   2.052 -2.1930 -2.0803  0.8959
  564MOL0     H76094   5.606   6.026   2.244  0.5252 -1.3644  1.6809
  564MOL0     H76095   5.445   5.998   2.299  1.3163  0.4616  1.9242
  564MOL0     H76096   5.386   6.236   2.263  0.1587  0.9675 -1.3183
  564MOL0     H76097   5.557   6.268   2.242 -1.2876 -0.6412 -2.1204
  564MOL0     H76098   5.485   6.325   2.467 -1.3833 -0.4118 -0.2869
  564MOL0     H76099   5.587   6.174   2.481  0.2099 -0.3318 -0.5853
  564MOL0     H76100   5.185   6.024   2.551 -0.5248  0.1670 -1.0775
  564MOL0     H76101   4.915   6.051   2.493  2.5005 -0.7029 -1.2104
  564MOL0     H76102   4.958   5.999   2.657 -1.0692 -0.0290 -0.1530
  564MOL0     H76103   4.839   6.118   2.648  0.1211  2.3678 -1.1018
  564MOL0     H76104   4.669   6.546   2.472  2.1834 -3.8337 -0.1936
  564MOL0     H76105   4.419   6.604   2.503 -1.8080  1.5442  1.6281
  564MOL0     H76106   4.164   6.336   2.690  1.3938  2.0059 -2.0207
  564MOL0     H76107   4.222   6.405   2.851  0.7709 -2.7214 -1.2131
  564MOL0     H76108   4.021   6.571   2.825 -2.5333  0.0533  0.1164
  564MOL0     H76109   3.996   6.516   2.660  0.0428 -1.1547  0.3016
  564MOL0     H76110   3.991   6.321   2.867  1.3270  1.5204  0.7412
  564MOL0     H76111   3.941   6.315   2.698 -2.6855  2.4677 -1.1276
  564MOL0     H76112   3.815   6.521   2.888 -1.6661 -2.2074  3.8699
  564MOL0     H76113   3.759   6.458   2.727  0.5889  0.2028  0.7278
  564MOL0     H76114   3.745   6.330   3.007 -0.1855 -1.0542 -0.3092
  564MOL0     H76115   3.780   6.227   2.884  1.3058  0.8424  0.4482
  564MOL0     H76116   3.539   6.410   2.904 -1.0199 -0.8839  3.2925
  564MOL0     H76117   3.592   6.307   2.755  0.8940 -2.1261  0.3522
  564MOL0     H76118   3.572   6.109   2.912 -1.5373 -1.0050 -0.8808
  564MOL0     H76119   3.433   6.172   2.837  1.3898 -1.3760 -2.3480
  564MOL0     H76120   3.489   6.294   3.111  0.0048 -0.7078  1.0890
  564MOL0     H76121   3.432   6.127   3.092 -0.8452  0.8283  0.9427
  564MOL0     H76122   4.405   6.306   2.806  0.4364 -0.3207  0.4385
  564MOL0     H76123   4.618   6.240   2.766  0.8565  1.7131  1.3925
  564MOL0     H76124   5.135   6.499   2.675 -1.5193 -0.6816  0.0440
  564MOL0     H76125   5.362   6.404   2.620  0.1718 -0.4722 -0.6548
  564MOL0     H76126   4.668   5.234   1.061  2.1276 -1.5736 -0.8891
  564MOL0     H76127   4.451   5.147   0.968  0.5984 -0.5472  0.1397
  564MOL0     H76128   4.019   4.953   1.173 -1.6683 -2.5424  0.3530
  564MOL0     H76129   3.784   4.951   1.124  0.7108  2.1190  0.4139
  564MOL0     H76130   3.625   4.953   0.688  1.5361 -1.5961 -1.7185
  564MOL0     H76131   3.650   4.790   0.746  0.7901 -0.2925  1.7473
  564MOL0     H76132   3.406   4.880   0.703 -1.2524 -1.2834  0.1208
  564MOL0     H76133   3.424   4.979   0.849 -1.3806 -1.7283  1.2170
  564MOL0     H76134   3.455   4.786   0.984  0.7481  2.0804 -1.2090
  564MOL0     H76135   3.462   4.679   0.833  0.8485  0.5884 -1.3117
  564MOL0     H76136   3.226   4.751   0.785  0.4088 -2.3555 -0.5730
  564MOL0     H76137   3.219   4.821   0.946  1.3488 -0.5763 -0.0764
  564MOL0     H76138   3.177   4.395   0.977 -0.6177  0.3262  1.5651
  564MOL0     H76139   3.865   4.844   0.724 -0.6582  0.3764 -0.6990
  564MOL0     H76140   4.099   4.841   0.761 -1.0606 -0.5476 -0.9218
  565MOL0     O76141   4.207   2.893   8.569 -0.4738 -0.0468  1.2213
  565MOL0     C76142   4.279   2.929   8.474  0.3953 -0.7090  0.6403
  565MOL0     O76143   4.234   2.954   8.347 -0.2108  0.3764  0.3628
  565MOL0     C76144   4.102   2.998   8.324 -0.2453 -0.1913 -0.4537
  565MOL0     C76145   4.001   2.903   8.296  0.1916  0.0422 -0.6815
  565MOL0     C76146   3.867   2.953   8.293 -0.0676 -0.2652  0.3790
  565MOL0     C76147   3.832   3.082   8.317  0.2668  0.7511  0.0448
  565MOL0     O76148   3.706   3.127   8.341 -0.5394 -0.3456 -0.3806
  565MOL0     C76149   3.597   3.043   8.345 -0.1569 -0.2441  0.5714
  565MOL0     C76150   3.475   3.126   8.388 -0.5436 -0.3709  0.1821
  565MOL0     C76151   3.442   3.217   8.275  0.9876 -0.1883 -0.5479
  565MOL0     C76152   3.304   3.299   8.279 -0.6003 -0.8508 -1.1237
  565MOL0     C76153   3.307   3.401   8.171  0.1654  0.0560  0.7140
  565MOL0     C76154   3.186   3.432   8.087  0.1609  0.3120  0.5078
  565MOL0     C76155   3.077   3.504   8.168 -0.2959 -1.3063 -0.1913
  565MOL0     C76156   2.936   3.449   8.154  0.0534  0.2551  0.2301
  565MOL0     N76157   2.870   3.482   8.027  0.4581 -0.2673 -0.6221
  565MOL0     C76158   2.814   3.606   8.002  0.2581  0.9765 -0.0834
  565MOL0     C76159   2.814   3.610   7.869 -0.5497 -0.3899 -0.1602
  565MOL0     C76160   2.745   3.730   7.792 -0.4692  0.0135 -0.1648
  565MOL0     C76161   2.587   3.737   7.819  0.5600  0.1234  0.7092
  565MOL0     C76162   2.503   3.612   7.792 -0.4817  0.2107 -0.0483
  565MOL0     C76163   2.353   3.639   7.775  0.0351  0.1425  0.6017
  565MOL0     O76164   2.294   3.722   7.876  0.2316 -0.3281  0.2503
  565MOL0     C76165   2.165   3.762   7.864  0.2223 -0.2210 -0.1937
  565MOL0     C76166   2.129   3.873   7.942 -1.3609  0.1847  0.4833
  565MOL0     C76167   1.996   3.922   7.936 -0.0780  0.1677  0.8287
  565MOL0     C76168   1.972   4.043   8.025  0.7603  1.2803 -0.1676
  565MOL0     C76169   1.898   3.866   7.850  0.3245  0.3200 -0.1237
  565MOL0     C76170   1.758   3.922   7.839 -1.0351 -0.2610  0.7757
  565MOL0     O76171   1.678   3.830   7.781  0.4286 -0.4418 -0.1074
  565MOL0     C76172   1.542   3.844   7.758  0.1321  0.3513 -0.0157
  565MOL0     C76173   1.458   3.954   7.799  0.2990 -0.0091  0.0383
  565MOL0     C76174   1.322   3.937   7.776  0.3664  0.2425  0.4794
  565MOL0     C76175   1.262   3.833   7.703  0.1932 -0.0165 -0.1073
  565MOL0     O76176   1.123   3.821   7.677  0.2700 -0.1231  0.3364
  565MOL0     C76177   1.025   3.902   7.748  1.1613  1.0903 -0.1205
  565MOL0     C76178   0.888   3.884   7.680 -0.6762 -0.2643 -0.0322
  565MOL0     C76179   0.800   3.988   7.737 -0.6426 -0.2641  0.7997
  565MOL0     C76180   0.655   3.958   7.685  0.3834  0.1391  0.8305
  565MOL0     C76181   0.590   4.093   7.691  0.5300  0.0228 -0.8622
  565MOL0     C76182   0.455   4.082   7.618  0.2002  1.0072  0.3045
  565MOL0     C76183   0.376   4.216   7.618 -0.4107 -0.2134 -0.2354
  565MOL0     C76184   0.269   4.204   7.511 -0.1317 -0.1347 -0.0240
  565MOL0    Cl76185   0.193   4.361   7.530  0.1439  0.0197  0.0596
  565MOL0     C76186   1.349   3.726   7.662 -0.6434 -0.3416 -0.0759
  565MOL0     C76187   1.487   3.740   7.687 -0.0387 -0.3533 -0.3618
  565MOL0     O76188   1.728   4.031   7.887  0.2738 -0.3871  0.4371
  565MOL0     C76189   1.940   3.760   7.769  0.7147  1.1178 -0.7869
  565MOL0     C76190   2.069   3.706   7.773  0.7795 -0.5989  0.0407
  565MOL0     N76191   2.832   3.480   7.819  0.3564 -0.3421 -0.7298
  565MOL0     N76192   2.882   3.410   7.913  0.1959  0.8997  0.5204
  565MOL0     C76193   3.935   3.175   8.337 -0.2290  0.5487  0.0299
  565MOL0     C76194   4.064   3.134   8.341  0.5043  0.2387 -0.4709
  565MOL0     C76195   4.418   2.945   8.503 -0.8747 -0.6096  0.3622
  565MOL0     C76196   4.499   3.010   8.406 -0.4841  0.4716 -0.1970
  565MOL0     C76197   4.637   3.013   8.430  0.0271 -0.1228 -0.0442
  565MOL0     C76198   4.691   2.973   8.550  0.2678 -0.0179 -0.3164
  565MOL0     O76199   4.823   2.976   8.582 -0.1268  0.1078 -0.6416
  565MOL0     C76200   4.911   3.071   8.525  0.6752 -0.1116  0.4250
  565MOL0     C76201   4.990   3.007   8.407  0.1564  0.1718  0.1805
  565MOL0     C76202   5.102   2.917   8.467  0.3248  0.5552 -0.1956
  565MOL0     C76203   5.217   2.887   8.369  1.2298  0.8928 -0.4130
  565MOL0     C76204   5.296   3.000   8.331  0.1595 -0.0385 -0.0003
  565MOL0     C76205   5.364   3.099   8.291  0.1790 -0.6033 -0.4963
  565MOL0     C76206   4.612   2.921   8.650  0.0648  0.4571  0.4136
  565MOL0     C76207   4.471   2.906   8.623 -0.4182 -0.2039  0.1223
  565MOL0     H76208   4.016   2.798   8.275 -4.7582 -1.0537  0.0705
  565MOL0     H76209   3.788   2.881   8.274 -0.4504  0.1359  0.4409
  565MOL0     H76210   3.591   3.013   8.240 -0.8150 -0.7638  0.7496
  565MOL0     H76211   3.599   2.953   8.406 -1.4239 -0.8731 -0.2774
  565MOL0     H76212   3.385   3.063   8.395  1.4217 -3.8267 -2.2456
  565MOL0     H76213   3.491   3.166   8.488 -1.2764 -2.6302  1.2753
  565MOL0     H76214   3.528   3.282   8.253  1.5680 -0.6792  0.1846
  565MOL0     H76215   3.434   3.153   8.187  1.4048 -1.9076  0.6167
  565MOL0     H76216   3.226   3.224   8.275 -0.8244 -1.0210  2.7311
  565MOL0     H76217   3.295   3.353   8.374 -0.7390 -4.5202  1.1466
  565MOL0     H76218   3.345   3.493   8.217 -1.5063  1.6201 -0.8710
  565MOL0     H76219   3.376   3.364   8.095 -0.1220  1.0034 -0.0245
  565MOL0     H76220   3.209   3.504   8.007 -0.5332  1.1486  1.0406
  565MOL0     H76221   3.145   3.339   8.047  0.0754 -0.1963  1.7452
  565MOL0     H76222   3.099   3.496   8.275 -0.4830  1.6965  0.1693
  565MOL0     H76223   3.075   3.611   8.145  2.9390 -1.0730  0.1964
  565MOL0     H76224   2.876   3.500   8.231 -0.1034  2.0638 -1.0389
  565MOL0     H76225   2.922   3.342   8.171 -1.4143  0.1267 -1.5288
  565MOL0     H76226   2.800   3.689   8.071 -0.2991  0.0824  0.9252
  565MOL0     H76227   2.799   3.819   7.825  2.5029 -1.7392  0.1314
  565MOL0     H76228   2.762   3.731   7.684  2.1879  0.1574  0.1886
  565MOL0     H76229   2.533   3.811   7.759 -3.2181 -2.3996  0.6834
  565MOL0     H76230   2.578   3.773   7.923  2.0676 -1.1108  1.3023
  565MOL0     H76231   2.515   3.537   7.871  2.1904 -0.3406 -0.8752
  565MOL0     H76232   2.544   3.556   7.708 -1.1193  0.8463 -0.7940
  565MOL0     H76233   2.297   3.546   7.779  1.0968 -0.5357  0.2256
  565MOL0     H76234   2.334   3.695   7.683 -3.4222  0.7748  1.5525
  565MOL0     H76235   2.213   3.905   8.003  0.5337 -5.0765  1.1385
  565MOL0     H76236   1.887   4.027   8.091 -1.0506  2.3933 -2.0883
  565MOL0     H76237   2.057   4.071   8.089  1.1685 -0.1371 -0.0693
  565MOL0     H76238   1.960   4.132   7.962 -0.3994  1.5488  0.4002
  565MOL0     H76239   1.489   4.048   7.844 -0.1439  0.3672 -0.4349
  565MOL0     H76240   1.262   4.014   7.821  0.7120  2.1417 -2.0744
  565MOL0     H76241   1.018   3.870   7.852 -1.8008 -3.0190 -1.3223
  565MOL0     H76242   1.050   4.008   7.738 -0.3753  1.5639  0.7529
  565MOL0     H76243   0.889   3.901   7.572  2.2563  1.0803  0.1162
  565MOL0     H76244   0.855   3.785   7.715 -3.1892  1.2969  2.3675
  565MOL0     H76245   0.828   4.087   7.702 -1.5223 -0.3903 -0.3454
  565MOL0     H76246   0.802   3.998   7.846  1.2791 -1.7909  0.9596
  565MOL0     H76247   0.653   3.910   7.586 -1.1606 -1.5313  1.6067
  565MOL0     H76248   0.608   3.888   7.755 -0.4077 -0.2768 -0.0975
  565MOL0     H76249   0.650   4.173   7.648  0.3905  2.0116  2.3145
  565MOL0     H76250   0.568   4.110   7.797 -2.5382  0.2646 -1.4418
  565MOL0     H76251   0.459   4.047   7.515 -3.4094 -0.7099  0.6007
  565MOL0     H76252   0.392   4.004   7.661  2.8407 -1.5165 -0.0587
  565MOL0     H76253   0.444   4.295   7.584  0.2464 -1.8152 -2.9693
  565MOL0     H76254   0.332   4.239   7.715 -0.1844  1.2734 -0.4528
  565MOL0     H76255   0.202   4.119   7.530  1.0755 -0.9436  0.7469
  565MOL0     H76256   0.305   4.195   7.408 -1.5420  2.3270 -0.8226
  565MOL0     H76257   1.319   3.636   7.610  1.6338 -0.8485 -0.6222
  565MOL0     H76258   1.552   3.655   7.670  2.5903  1.5152 -0.2003
  565MOL0     H76259   1.868   3.712   7.704  1.2907 -0.7522 -0.1079
  565MOL0     H76260   2.096   3.631   7.700  0.3075 -1.8558  1.1192
  565MOL0     H76261   3.927   3.279   8.364  0.6839 -0.0292  2.8543
  565MOL0     H76262   4.151   3.194   8.362 -0.7134  1.6023  0.9385
  565MOL0     H76263   4.470   3.045   8.307  0.3885  0.1869 -0.5634
  565MOL0     H76264   4.703   3.052   8.353 -0.0944  2.1381  0.9022
  565MOL0     H76265   4.847   3.154   8.493 -1.5523 -1.5103  1.0350
  565MOL0     H76266   4.981   3.109   8.600 -1.2671  1.4955  1.5105
  565MOL0     H76267   5.034   3.090   8.351  1.3769  1.0034  2.2624
  565MOL0     H76268   4.931   2.949   8.335  0.0774 -1.2695  1.3698
  565MOL0     H76269   5.048   2.830   8.504 -1.0832  1.3357 -0.3813
  565MOL0     H76270   5.153   2.965   8.551 -1.7446 -1.0270  2.0953
  565MOL0     H76271   5.182   2.832   8.281 -2.0011  1.5088  0.3680
  565MOL0     H76272   5.283   2.818   8.422  1.5046  0.4487 -1.3175
  565MOL0     H76273   5.419   3.186   8.261  0.5033 -0.3179  0.8551
  565MOL0     H76274   4.668   2.884   8.735  1.7389  0.2959 -0.7152
  565MOL0     H76275   4.406   2.865   8.699  0.0048  1.1296  1.2522
  566MOL0     O76276  11.132   1.423   1.843 -0.5620 -0.3658 -0.4225
  566MOL0     C76277  11.202   1.325   1.859  0.3873 -0.2362 -1.0375
  566MOL0     O76278  11.166   1.210   1.926  0.6311  0.0602  0.3794
  566MOL0     C76279  11.047   1.194   1.984  0.3383 -0.0566  0.5396
  566MOL0     C76280  10.993   1.294   2.069  0.1328  0.3720 -0.0529
  566MOL0     C76281  10.866   1.268   2.136 -1.0850  0.4487 -0.4794
  566MOL0     C76282  10.791   1.152   2.109 -0.3465  0.9691  0.4639
  566MOL0     O76283  10.666   1.108   2.142 -0.5166 -0.6809 -0.2999
  566MOL0     C76284  10.598   1.203   2.233  0.5191 -0.6132  0.1299
  566MOL0     C76285  10.472   1.145   2.290 -0.0260 -0.3859  0.0607
  566MOL0     C76286  10.363   1.139   2.185  0.5316 -0.4253 -0.0029
  566MOL0     C76287  10.219   1.104   2.243 -0.1959 -0.1911 -0.1897
  566MOL0     C76288  10.114   1.078   2.133 -0.4619  0.2731  0.3059
  566MOL0     C76289   9.997   1.003   2.197  0.5787 -0.8050 -0.3882
  566MOL0     C76290   9.882   0.960   2.118  0.4187  0.4352  1.0251
  566MOL0     C76291   9.822   1.081   2.052 -0.3568  0.2847 -0.3088
  566MOL0     N76292   9.700   1.047   1.981  0.7421  0.6593  0.0774
  566MOL0     C76293   9.569   1.087   2.009 -0.5310  0.3974 -0.1566
  566MOL0     C76294   9.497   1.037   1.906 -0.1335  0.2023  0.3134
  566MOL0     C76295   9.346   1.055   1.893  0.7333 -0.0951 -0.6718
  566MOL0     C76296   9.264   0.957   1.991  0.2506  0.2877  0.0188
  566MOL0     C76297   9.111   0.977   2.001  0.6083  0.1477  0.6266
  566MOL0     C76298   9.047   0.968   1.864 -0.0674  0.1001  0.2397
  566MOL0     O76299   8.910   0.926   1.884 -0.1900 -0.4625  0.4456
  566MOL0     C76300   8.826   0.924   1.775 -0.2838 -0.1279 -0.4074
  566MOL0     C76301   8.867   0.952   1.642 -0.2262 -0.5430 -0.3199
  566MOL0     C76302   8.778   0.935   1.538  0.0989 -0.2433  0.7809
  566MOL0     C76303   8.832   0.942   1.400  0.3998  0.6394  0.1969
  566MOL0     C76304   8.641   0.893   1.568 -0.7349  1.0405 -0.0405
  566MOL0     C76305   8.541   0.874   1.467  0.2142  0.3576  0.1407
  566MOL0     O76306   8.433   0.790   1.508  0.4289 -0.0461  0.0308
  566MOL0     C76307   8.332   0.771   1.423 -0.6909 -0.7824 -0.2459
  566MOL0     C76308   8.358   0.711   1.300  0.2522  0.2314 -0.0403
  566MOL0     C76309   8.257   0.711   1.201  0.3670  0.2848 -0.2634
  566MOL0     C76310   8.128   0.755   1.230 -0.1479 -0.7890  0.4055
  566MOL0     O76311   8.020   0.766   1.152 -0.0116 -0.1901  0.1003
  566MOL0     C76312   8.027   0.711   1.022 -0.0547 -0.4163  0.8306
  566MOL0     C76313   7.887   0.694   0.975 -0.4357  1.1062  0.6320
  566MOL0     C76314   7.795   0.619   1.083  0.2799 -0.6413  0.6286
  566MOL0     C76315   7.656   0.585   1.030  0.5761 -0.2153 -0.3989
  566MOL0     C76316   7.565   0.541   1.149  0.8316 -0.1194  0.1373
  566MOL0     C76317   7.418   0.528   1.097 -0.5105 -0.4714  0.2166
  566MOL0     C76318   7.314   0.493   1.214  0.4355  0.6288 -0.1495
  566MOL0     C76319   7.183   0.438   1.158 -0.3509 -0.2223  0.1087
  566MOL0    Cl76320   7.065   0.432   1.296 -0.1842  0.1016 -0.0394
  566MOL0     C76321   8.110   0.805   1.352  0.0209  0.3388  0.6698
  566MOL0     C76322   8.212   0.819   1.450  0.8931  0.1740  0.2680
  566MOL0     O76323   8.542   0.952   1.370 -0.1523 -0.4607 -0.0674
  566MOL0     C76324   8.608   0.875   1.700 -0.6778  0.7935 -0.2430
  566MOL0     C76325   8.700   0.879   1.800 -0.0285 -0.0664  0.2879
  566MOL0     N76326   9.569   0.942   1.839 -0.8559 -0.7467  0.3717
  566MOL0     N76327   9.685   0.955   1.879 -0.8825  0.0882 -0.1144
  566MOL0     C76328  10.855   1.049   2.038  0.1258 -0.5724 -0.3185
  566MOL0     C76329  10.983   1.073   1.979 -0.1105  0.7095  0.0625
  566MOL0     C76330  11.335   1.335   1.802 -0.1870  0.5392  0.1353
  566MOL0     C76331  11.417   1.223   1.793 -1.0619 -0.4168 -0.6101
  566MOL0     C76332  11.544   1.227   1.746 -0.2518  0.5533 -0.4253
  566MOL0     C76333  11.606   1.356   1.709  0.3396 -0.0427 -0.4008
  566MOL0     O76334  11.734   1.350   1.668 -0.6765  0.5613 -0.4458
  566MOL0     C76335  11.811   1.470   1.652 -0.2845 -0.0276  0.8766
  566MOL0     C76336  11.944   1.473   1.730 -0.4318 -0.7293  0.5500
  566MOL0     C76337  11.914   1.492   1.874 -0.2408 -0.0186 -1.0195
  566MOL0     C76338  12.043   1.476   1.959  0.5821 -0.0740 -0.1466
  566MOL0     C76339  12.006   1.462   2.102 -0.4916 -0.2528  0.2327
  566MOL0     C76340  11.963   1.456   2.213  0.3092 -0.9749  0.8100
  566MOL0     C76341  11.514   1.468   1.712 -0.8600  0.1886 -0.5184
  566MOL0     C76342  11.383   1.454   1.754 -0.8181  0.0327  0.2217
  566MOL0     H76343  11.036   1.391   2.090  0.6078  0.1834 -0.1441
  566MOL0     H76344  10.818   1.339   2.202  0.4202  0.9518  0.1143
  566MOL0     H76345  10.658   1.219   2.323  1.4012  0.5409 -0.6194
  566MOL0     H76346  10.583   1.296   2.177 -1.4525  0.3678  2.1592
  566MOL0     H76347  10.506   1.046   2.322 -0.0584 -0.6980 -0.8393
  566MOL0     H76348  10.434   1.200   2.377 -1.2176 -0.8997 -0.1090
  566MOL0     H76349  10.342   1.228   2.126  1.2375 -0.8605 -0.9257
  566MOL0     H76350  10.393   1.065   2.110 -0.6269 -2.7518  1.6930
  566MOL0     H76351  10.239   1.008   2.293 -0.1616 -0.6078 -0.9820
  566MOL0     H76352  10.190   1.188   2.306 -0.2642  0.1099 -0.6194
  566MOL0     H76353  10.077   1.166   2.080 -3.0687 -1.6409 -1.3088
  566MOL0     H76354  10.152   1.010   2.056 -2.9381  0.4377 -1.1487
  566MOL0     H76355  10.050   0.914   2.231  0.8801  0.0737  1.5298
  566MOL0     H76356   9.961   1.062   2.282  1.3719  0.6886 -1.0385
  566MOL0     H76357   9.917   0.894   2.039 -1.6632 -0.0567  0.4483
  566MOL0     H76358   9.809   0.903   2.176  0.8317  0.4323  1.5491
  566MOL0     H76359   9.900   1.118   1.985  1.0079 -2.5356 -0.4040
  566MOL0     H76360   9.810   1.165   2.121 -0.2384 -0.2764  0.4041
  566MOL0     H76361   9.550   1.158   2.089  0.4381  1.2996 -0.6944
  566MOL0     H76362   9.326   1.157   1.927  1.5585 -0.4533  0.9868
  566MOL0     H76363   9.311   1.048   1.790 -1.9297 -2.0748  0.2484
  566MOL0     H76364   9.309   0.981   2.088  0.0203 -0.3814  0.2958
  566MOL0     H76365   9.285   0.851   1.976  1.5735  0.7024 -1.3409
  566MOL0     H76366   9.087   1.080   2.031 -2.0677 -0.8263  2.1656
  566MOL0     H76367   9.064   0.903   2.067  0.0590  0.0088  0.0909
  566MOL0     H76368   9.100   0.885   1.816  0.2635  0.3952  0.0938
  566MOL0     H76369   9.054   1.066   1.817 -1.1540  1.0509  1.9859
  566MOL0     H76370   8.969   0.982   1.623 -0.0531 -1.0847 -0.2514
  566MOL0     H76371   8.816   0.854   1.338 -0.1534  1.9100 -1.5710
  566MOL0     H76372   8.799   1.020   1.330  0.2769 -0.7256 -1.3182
  566MOL0     H76373   8.940   0.955   1.397  0.3762  1.3247  1.7278
  566MOL0     H76374   8.451   0.662   1.273  0.3532 -1.4676  2.9062
  566MOL0     H76375   8.287   0.675   1.104  1.1608  0.0672  0.0556
  566MOL0     H76376   8.094   0.765   0.954 -0.7657 -0.6886 -0.1115
  566MOL0     H76377   8.072   0.612   1.016 -0.6281 -0.5749 -2.2709
  566MOL0     H76378   7.842   0.785   0.934  1.6336  0.9125 -2.3567
  566MOL0     H76379   7.904   0.637   0.884  2.0613 -0.3009  1.8777
  566MOL0     H76380   7.776   0.696   1.158  2.1340  0.7966 -0.2904
  566MOL0     H76381   7.853   0.538   1.128 -0.5364 -0.4487  2.0827
  566MOL0     H76382   7.610   0.677   0.992 -1.6185 -0.7648  0.7503
  566MOL0     H76383   7.671   0.506   0.956  0.7210 -0.3486 -0.2259
  566MOL0     H76384   7.555   0.618   1.227 -1.8179 -0.0683 -0.1465
  566MOL0     H76385   7.592   0.443   1.190 -1.7043 -0.4796  1.1684
  566MOL0     H76386   7.403   0.620   1.040  1.7308  0.7593  1.4802
  566MOL0     H76387   7.405   0.444   1.029 -0.9770  0.6615 -1.1399
  566MOL0     H76388   7.290   0.586   1.265  2.7474  1.2440 -0.0502
  566MOL0     H76389   7.355   0.420   1.285 -1.4338  0.6949  1.0550
  566MOL0     H76390   7.192   0.337   1.117 -0.6190 -0.6152  0.9788
  566MOL0     H76391   7.139   0.503   1.082 -0.8853  0.4864  0.9962
  566MOL0     H76392   8.007   0.827   1.379 -0.3471  0.0479 -0.4623
  566MOL0     H76393   8.187   0.845   1.553  0.4057  2.0888 -0.2783
  566MOL0     H76394   8.505   0.847   1.716 -0.4814  0.1286 -0.1052
  566MOL0     H76395   8.688   0.852   1.905  1.6722  0.2235  0.5928
  566MOL0     H76396  10.800   0.956   2.029 -1.6655  0.5825 -2.3957
  566MOL0     H76397  11.021   1.001   1.908 -0.3112  1.8034 -1.2013
  566MOL0     H76398  11.373   1.130   1.827  1.0413 -1.6028 -0.9602
  566MOL0     H76399  11.607   1.141   1.731 -0.6997  0.3698 -1.3555
  566MOL0     H76400  11.836   1.470   1.546  0.0005  0.4118  0.9431
  566MOL0     H76401  11.761   1.560   1.690  3.2175  1.7870  1.5718
  566MOL0     H76402  12.008   1.556   1.700 -2.4914  1.1004  0.9275
  566MOL0     H76403  11.998   1.380   1.708 -0.5092 -0.5611 -0.3938
  566MOL0     H76404  11.833   1.429   1.911 -0.2592  1.7952  2.4201
  566MOL0     H76405  11.886   1.598   1.883  1.0522  0.2705 -0.0144
  566MOL0     H76406  12.116   1.556   1.941 -0.9841  1.3734 -0.4153
  566MOL0     H76407  12.092   1.382   1.935 -0.4762 -0.8514  0.6560
  566MOL0     H76408  11.941   1.451   2.318  0.5916 -2.0749  0.8309
  566MOL0     H76409  11.548   1.568   1.687  0.7353 -0.7594 -2.3531
  566MOL0     H76410  11.322   1.543   1.743 -1.5665 -0.2848  1.6200
  567MOL0     O76411   8.283   4.423   0.053 -0.2205 -0.1723  0.1327
  567MOL0     C76412   8.201   4.475   0.125  0.0624 -0.6473 -0.5542
  567MOL0     O76413   8.063   4.448   0.123 -0.1939 -0.3873 -0.6507
  567MOL0     C76414   8.023   4.366   0.026  0.5547 -0.0009  0.0420
  567MOL0     C76415   7.976   4.415  -0.087  0.9702  0.1559  0.6624
  567MOL0     C76416   7.920   4.333  -0.182 -0.6623  0.3504  0.1236
  567MOL0     C76417   7.913   4.196  -0.170  0.0299 -0.1582  0.6716
  567MOL0     O76418   7.818   4.139  -0.251  0.3747  0.3878  0.1560
  567MOL0     C76419   7.802   3.998  -0.229 -0.0298 -0.7414  0.4662
  567MOL0     C76420   7.666   3.960  -0.293  0.2326 -0.3992  0.3204
  567MOL0     C76421   7.553   4.025  -0.206  0.1669 -0.9993  0.3262
  567MOL0     C76422   7.424   4.018  -0.283  0.4616 -0.5273  0.6286
  567MOL0     C76423   7.315   4.100  -0.226  0.3748 -0.4136  0.0138
  567MOL0     C76424   7.195   4.120  -0.311 -0.0602 -0.6406 -0.5019
  567MOL0     C76425   7.133   3.988  -0.369 -0.0963  0.7013  0.1285
  567MOL0     C76426   7.000   4.020  -0.440 -0.1152 -0.7418 -0.1537
  567MOL0     N76427   6.895   4.069  -0.347 -0.2171 -0.7839 -0.5428
  567MOL0     C76428   6.845   3.991  -0.244  0.0010  0.2297  0.3950
  567MOL0     C76429   6.785   4.081  -0.167  0.1691  0.8563  0.7689
  567MOL0     C76430   6.713   4.055  -0.038 -0.4770 -0.2895 -0.5143
  567MOL0     C76431   6.563   4.068  -0.057  0.3435  0.6250 -0.2204
  567MOL0     C76432   6.515   4.213  -0.040  0.0528  0.3569 -0.2550
  567MOL0     C76433   6.365   4.213  -0.052 -0.0757 -0.2310 -0.2491
  567MOL0     O76434   6.325   4.178  -0.190  0.5066 -0.3470  0.2607
  567MOL0     C76435   6.207   4.234  -0.221  0.2831  0.6522  0.0135
  567MOL0     C76436   6.198   4.364  -0.271 -0.3005  0.4704  0.0631
  567MOL0     C76437   6.073   4.422  -0.300 -0.4209  0.1148 -0.0084
  567MOL0     C76438   6.082   4.566  -0.351 -1.0011  0.3708 -0.1075
  567MOL0     C76439   5.958   4.356  -0.280 -0.4751 -0.1210  0.7264
  567MOL0     C76440   5.829   4.412  -0.318 -0.1389 -0.7669 -0.4908
  567MOL0     O76441   5.725   4.317  -0.347  0.1056 -0.4248  0.1913
  567MOL0     C76442   5.595   4.351  -0.318 -0.4309 -0.2673  0.0504
  567MOL0     C76443   5.498   4.297  -0.395  0.2167 -0.4519  0.7762
  567MOL0     C76444   5.358   4.323  -0.374  0.4561 -0.0847 -0.3317
  567MOL0     C76445   5.321   4.400  -0.268  0.6883 -0.1838 -0.3702
  567MOL0     O76446   5.190   4.422  -0.241 -0.0950 -0.6835 -0.2058
  567MOL0     C76447   5.089   4.342  -0.305 -0.4826  0.1973  0.0762
  567MOL0     C76448   4.943   4.379  -0.283  1.8043  0.8677 -1.0920
  567MOL0     C76449   4.905   4.334  -0.137  0.5369  0.4275  0.1016
  567MOL0     C76450   4.754   4.349  -0.114  0.2873 -0.2315  0.5498
  567MOL0     C76451   4.723   4.312   0.030 -0.5037  0.0342  0.3987
  567MOL0     C76452   4.578   4.359   0.064 -0.2643  0.5196  0.3166
  567MOL0     C76453   4.519   4.285   0.182 -0.5547 -0.9522 -0.0785
  567MOL0     C76454   4.386   4.349   0.218 -0.2364  0.1554 -0.1013
  567MOL0    Cl76455   4.266   4.388   0.083  0.2743  0.1006 -0.1570
  567MOL0     C76456   5.413   4.461  -0.193  0.0056 -0.5785 -0.1205
  567MOL0     C76457   5.554   4.424  -0.210 -0.4984  0.2853 -0.0451
  567MOL0     O76458   5.813   4.534  -0.308  0.2809  0.4908  0.2727
  567MOL0     C76459   5.966   4.221  -0.228 -0.4478  0.5532  1.4234
  567MOL0     C76460   6.084   4.164  -0.195 -0.3782  0.1004  0.4522
  567MOL0     N76461   6.786   4.209  -0.228  0.0796  0.3491  0.1308
  567MOL0     N76462   6.856   4.195  -0.337  0.3123  0.5667  0.2158
  567MOL0     C76463   7.971   4.139  -0.051  0.1683 -0.1462  0.0472
  567MOL0     C76464   8.022   4.226   0.049 -0.1387  0.0277 -0.4935
  567MOL0     C76465   8.248   4.576   0.231  0.2598  0.4876  0.7289
  567MOL0     C76466   8.388   4.597   0.243 -0.0883  1.6363  0.0505
  567MOL0     C76467   8.437   4.663   0.358  0.5922 -0.3863 -0.4290
  567MOL0     C76468   8.348   4.713   0.460 -0.5618 -0.0716  0.0665
  567MOL0     O76469   8.390   4.787   0.559 -1.0911 -0.0995  0.3882
  567MOL0     C76470   8.432   4.923   0.538 -0.4549  0.1189 -0.4838
  567MOL0     C76471   8.441   5.003   0.669  0.2045  0.2761 -0.5021
  567MOL0     C76472   8.306   5.035   0.723  0.5246  0.0886  1.0246
  567MOL0     C76473   8.316   5.084   0.870 -0.3384  0.6506  0.3873
  567MOL0     C76474   8.181   5.110   0.915 -0.3735 -0.7603 -0.0839
  567MOL0     C76475   8.075   5.121   0.962  0.1457  0.1389 -0.1261
  567MOL0     C76476   8.209   4.691   0.442 -0.5620 -0.5427 -0.4983
  567MOL0     C76477   8.161   4.627   0.327  0.3790  0.3805 -0.0814
  567MOL0     H76478   7.967   4.523  -0.092  0.7295  0.2844  2.8152
  567MOL0     H76479   7.871   4.383  -0.265  0.0642 -2.1913 -1.9465
  567MOL0     H76480   7.885   3.933  -0.260  0.1346 -0.3568  0.0913
  567MOL0     H76481   7.785   3.980  -0.123 -2.1146  2.0119  0.6962
  567MOL0     H76482   7.655   4.006  -0.392  1.6990  1.2319  0.8697
  567MOL0     H76483   7.649   3.852  -0.297  1.8305 -0.7248  1.3819
  567MOL0     H76484   7.542   3.974  -0.111  1.6886  1.6279  2.0502
  567MOL0     H76485   7.585   4.127  -0.182  3.2137 -0.7257 -3.6703
  567MOL0     H76486   7.438   4.054  -0.385 -0.5670  2.1117  1.3223
  567MOL0     H76487   7.388   3.915  -0.292  1.2117 -0.6462 -1.4346
  567MOL0     H76488   7.293   4.060  -0.126  0.7516 -0.7315 -0.0227
  567MOL0     H76489   7.342   4.205  -0.213 -3.5552  0.4723  3.1859
  567MOL0     H76490   7.124   4.176  -0.249 -0.6029 -2.1364  0.2569
  567MOL0     H76491   7.225   4.187  -0.393  2.6553  1.0822  1.6873
  567MOL0     H76492   7.202   3.953  -0.447 -0.7814 -0.8535  0.1776
  567MOL0     H76493   7.129   3.910  -0.292  2.8402  1.9823  1.7554
  567MOL0     H76494   6.974   3.940  -0.511 -1.2746  0.3675 -1.0187
  567MOL0     H76495   7.014   4.104  -0.509 -0.6948 -1.3920 -1.0852
  567MOL0     H76496   6.851   3.883  -0.231  0.5005  0.1213 -0.6296
  567MOL0     H76497   6.735   3.957   0.004 -1.5568 -0.4121 -0.1974
  567MOL0     H76498   6.749   4.136   0.027 -1.5802 -1.4410  1.6286
  567MOL0     H76499   6.515   4.003   0.017  1.8869 -0.9174 -0.4958
  567MOL0     H76500   6.529   4.037  -0.156  1.0254 -1.0785  0.0457
  567MOL0     H76501   6.566   4.280  -0.110 -3.6439  3.0330 -0.7137
  567MOL0     H76502   6.535   4.241   0.064  0.5600 -0.4523 -0.1328
  567MOL0     H76503   6.333   4.314  -0.026 -0.2753  0.0628 -1.5421
  567MOL0     H76504   6.317   4.145   0.018 -1.7640  2.4659  1.3669
  567MOL0     H76505   6.286   4.425  -0.286 -0.1492  0.3352  0.4016
  567MOL0     H76506   6.184   4.606  -0.347 -0.7770 -0.2680  0.9023
  567MOL0     H76507   6.048   4.564  -0.455  0.3430  0.1273 -0.5721
  567MOL0     H76508   6.024   4.636  -0.291 -1.2946 -0.4110  0.5317
  567MOL0     H76509   5.527   4.233  -0.478  1.4095 -0.3747  1.1157
  567MOL0     H76510   5.292   4.269  -0.442  0.8518 -0.1017 -0.7107
  567MOL0     H76511   5.086   4.367  -0.412  0.1953 -0.8858 -0.2099
  567MOL0     H76512   5.102   4.234  -0.294  0.2818  0.3248  0.5382
  567MOL0     H76513   4.923   4.487  -0.285 -0.1456  0.6435  0.9163
  567MOL0     H76514   4.881   4.326  -0.356  1.6291 -0.0358 -0.3110
  567MOL0     H76515   4.964   4.388  -0.062  1.2255  0.1337 -0.2151
  567MOL0     H76516   4.929   4.228  -0.124  0.4047  0.5549  1.6178
  567MOL0     H76517   4.710   4.446  -0.141  0.3799  0.2600  2.0906
  567MOL0     H76518   4.706   4.273  -0.177 -0.3204 -1.7343  2.7216
  567MOL0     H76519   4.796   4.356   0.099  0.1758 -0.8062  0.2394
  567MOL0     H76520   4.718   4.203   0.039 -2.7383  0.0512 -0.0915
  567MOL0     H76521   4.589   4.467   0.076 -1.2784  0.5810  0.8282
  567MOL0     H76522   4.516   4.347  -0.025  1.6369  2.0583 -1.3112
  567MOL0     H76523   4.599   4.288   0.257  0.6282 -2.7931 -1.1715
  567MOL0     H76524   4.509   4.178   0.159 -0.4529 -0.8917 -0.4126
  567MOL0     H76525   4.415   4.435   0.279  0.8611 -0.1999 -0.0971
  567MOL0     H76526   4.343   4.283   0.293 -1.3649 -0.6988 -1.4680
  567MOL0     H76527   5.391   4.525  -0.108  0.6835 -0.8270  0.2518
  567MOL0     H76528   5.627   4.468  -0.142  0.3244  0.3828 -0.9539
  567MOL0     H76529   5.880   4.161  -0.200 -0.5632  0.3319  0.6160
  567MOL0     H76530   6.088   4.060  -0.162  2.9020  0.2957  1.0068
  567MOL0     H76531   7.974   4.033  -0.032  1.6284 -0.1927 -0.3183
  567MOL0     H76532   8.053   4.183   0.144 -2.6709 -0.3467  0.2466
  567MOL0     H76533   8.455   4.566   0.163 -0.3134  0.5754  0.2606
  567MOL0     H76534   8.545   4.671   0.367  0.5915  2.6114 -2.1188
  567MOL0     H76535   8.532   4.919   0.493 -0.7861  1.7951 -1.4879
  567MOL0     H76536   8.367   4.972   0.465  0.2760 -3.6086 -3.9926
  567MOL0     H76537   8.493   5.094   0.638 -1.6748  1.5041 -0.1991
  567MOL0     H76538   8.502   4.950   0.744 -1.1014 -0.8902 -0.2202
  567MOL0     H76539   8.244   4.945   0.721  1.1300 -0.4150 -2.5255
  567MOL0     H76540   8.261   5.113   0.661  0.8683  1.1999  2.1471
  567MOL0     H76541   8.380   5.173   0.879  1.8309 -0.7698 -0.1540
  567MOL0     H76542   8.361   5.003   0.928  0.7985  0.6311 -0.4989
  567MOL0     H76543   7.990   5.148   1.021 -0.1881  1.3869 -1.1397
  567MOL0     H76544   8.152   4.746   0.517  0.2287 -0.7490  0.2737
  567MOL0     H76545   8.056   4.604   0.309  0.7572  1.2135 -4.4631
  568MOL0     O76546   3.264   8.806   4.525  0.8353  0.0293  0.2228
  568MOL0     C76547   3.295   8.825   4.408 -0.7003 -0.1258 -0.5509
  568MOL0     O76548   3.205   8.851   4.306  1.0188 -0.4961  0.5142
  568MOL0     C76549   3.070   8.877   4.332 -1.2444 -0.5878  0.5745
  568MOL0     C76550   2.968   8.804   4.264  0.0295  1.5954  0.9701
  568MOL0     C76551   2.831   8.814   4.287  0.0384  0.0998 -0.8472
  568MOL0     C76552   2.787   8.892   4.394 -0.1100  0.8418 -0.4713
  568MOL0     O76553   2.656   8.923   4.417  0.3411 -0.3160 -0.3381
  568MOL0     C76554   2.579   8.798   4.413 -0.1427 -0.4474  0.2950
  568MOL0     C76555   2.436   8.823   4.457 -0.4372 -0.0220  0.9130
  568MOL0     C76556   2.346   8.707   4.381 -0.4838  0.2963  0.1042
  568MOL0     C76557   2.199   8.740   4.403  0.4000  0.4389  0.4577
  568MOL0     C76558   2.113   8.672   4.295  0.0836  0.1892 -1.1181
  568MOL0     C76559   1.969   8.712   4.322  0.0831  1.1414 -0.4297
  568MOL0     C76560   1.873   8.626   4.244  0.4696 -0.0266  0.6395
  568MOL0     C76561   1.736   8.686   4.225 -0.2325 -0.7552 -0.0958
  568MOL0     N76562   1.654   8.701   4.339  0.7614 -0.0133 -0.1507
  568MOL0     C76563   1.636   8.819   4.406  0.9186 -0.3737 -0.1245
  568MOL0     C76564   1.550   8.796   4.503  0.0665 -0.8387 -0.9527
  568MOL0     C76565   1.484   8.907   4.577 -0.3348 -0.1607 -0.8719
  568MOL0     C76566   1.335   8.920   4.547  0.0011  0.5702  0.1444
  568MOL0     C76567   1.262   9.030   4.629  0.1621 -0.0015  0.7542
  568MOL0     C76568   1.112   9.023   4.594 -0.0117 -0.5856  0.0337
  568MOL0     O76569   1.046   9.143   4.647 -0.8536 -0.3107 -0.4513
  568MOL0     C76570   0.922   9.172   4.602 -0.5208  0.1827  0.3881
  568MOL0     C76571   0.849   9.085   4.524  0.4662 -0.5957  0.8133
  568MOL0     C76572   0.716   9.124   4.481 -0.3908 -0.5194 -0.4400
  568MOL0     C76573   0.637   9.027   4.396 -0.2928  0.2589  0.0614
  568MOL0     C76574   0.671   9.250   4.517 -0.2313  0.5696 -0.6243
  568MOL0     C76575   0.530   9.292   4.493 -0.4650  0.1735  0.0037
  568MOL0     O76576   0.504   9.431   4.478  0.0667  0.2591  0.6466
  568MOL0     C76577   0.375   9.471   4.480  0.8905 -0.2410  0.3162
  568MOL0     C76578   0.298   9.440   4.590  0.0064 -0.2398 -0.2605
  568MOL0     C76579   0.165   9.479   4.598 -0.4515  0.6373 -0.2507
  568MOL0     C76580   0.101   9.542   4.493 -0.7116  0.0894  0.1727
  568MOL0     O76581  -0.031   9.588   4.487 -0.1216  0.4286 -0.4162
  568MOL0     C76582  -0.122   9.523   4.580  0.4517  0.0875  0.5650
  568MOL0     C76583  -0.259   9.528   4.518 -0.1581 -0.5235  0.0412
  568MOL0     C76584  -0.350   9.619   4.606  0.4690 -0.1646  0.1074
  568MOL0     C76585  -0.501   9.592   4.573  0.9929 -0.2976  0.7964
  568MOL0     C76586  -0.606   9.682   4.643 -0.6121 -0.7341  0.2031
  568MOL0     C76587  -0.749   9.656   4.603 -1.2080 -0.0319 -0.1834
  568MOL0     C76588  -0.840   9.761   4.656  0.8797  0.9427 -0.5598
  568MOL0     C76589  -0.978   9.713   4.608 -0.0101  0.2040  0.6620
  568MOL0    Cl76590  -1.103   9.841   4.618 -0.4010 -0.4841 -0.0779
  568MOL0     C76591   0.176   9.561   4.375 -0.3138  0.3024  0.1688
  568MOL0     C76592   0.317   9.529   4.371 -0.5860  0.0895  0.0026
  568MOL0     O76593   0.443   9.209   4.491  0.7809 -0.4157  0.1290
  568MOL0     C76594   0.743   9.336   4.595  0.6837 -0.3513  0.5698
  568MOL0     C76595   0.868   9.301   4.637  0.9304 -1.0739 -0.2431
  568MOL0     N76596   1.502   8.666   4.489 -0.1634  0.2371 -0.1414
  568MOL0     N76597   1.563   8.611   4.389 -0.2984 -0.3273  0.3664
  568MOL0     C76598   2.882   8.970   4.465 -0.9349  0.4791 -0.0027
  568MOL0     C76599   3.024   8.960   4.436  0.5785  0.4713 -0.3687
  568MOL0     C76600   3.432   8.795   4.362  0.0462  0.5739 -0.0648
  568MOL0     C76601   3.530   8.778   4.460  0.0360  0.3137 -0.4339
  568MOL0     C76602   3.662   8.751   4.417 -0.4708 -0.5069  0.5367
  568MOL0     C76603   3.701   8.723   4.286 -0.2459 -0.0322  0.0429
  568MOL0     O76604   3.825   8.688   4.244  0.3693  0.1895  0.2753
  568MOL0     C76605   3.933   8.681   4.342 -0.2423 -0.4075 -0.2907
  568MOL0     C76606   4.053   8.625   4.262  0.0980  0.2943  0.4060
  568MOL0     C76607   4.158   8.598   4.365  1.1891  0.8222  0.1125
  568MOL0     C76608   4.286   8.525   4.319  0.2956  0.0877 -0.2774
  568MOL0     C76609   4.263   8.420   4.221  0.8523  0.8368 -0.5270
  568MOL0     C76610   4.238   8.338   4.130  0.3080 -0.2590  0.0764
  568MOL0     C76611   3.600   8.732   4.193  0.1321  0.2264 -0.4793
  568MOL0     C76612   3.468   8.763   4.233 -0.0707 -1.2222 -0.1940
  568MOL0     H76613   3.011   8.742   4.186  1.0456  1.9413  1.2398
  568MOL0     H76614   2.757   8.765   4.224  0.4264 -0.1690 -1.1026
  568MOL0     H76615   2.583   8.768   4.308  1.4045 -1.5506  0.6305
  568MOL0     H76616   2.625   8.715   4.468 -0.4980 -1.4857 -0.9508
  568MOL0     H76617   2.425   8.822   4.565  1.2015  0.1703  1.1041
  568MOL0     H76618   2.419   8.928   4.432  1.9126  0.1608 -0.1562
  568MOL0     H76619   2.380   8.701   4.277  2.4839  2.1890  0.8463
  568MOL0     H76620   2.373   8.610   4.423 -2.9355 -0.5691 -0.1187
  568MOL0     H76621   2.162   8.718   4.504 -1.3292 -0.8354 -0.3881
  568MOL0     H76622   2.189   8.844   4.370 -0.6937  0.1511 -0.1757
  568MOL0     H76623   2.154   8.696   4.197  0.5731 -1.3546 -1.3187
  568MOL0     H76624   2.125   8.564   4.311  0.3697  0.4020  0.2627
  568MOL0     H76625   1.940   8.706   4.428 -1.3583  0.7889 -0.8256
  568MOL0     H76626   1.960   8.818   4.299  0.3156  1.0878 -0.7750
  568MOL0     H76627   1.914   8.596   4.147  0.0165  3.9500 -0.9770
  568MOL0     H76628   1.858   8.535   4.302 -0.0333  0.4361  1.2569
  568MOL0     H76629   1.687   8.621   4.152  1.4018 -2.6675  0.4434
  568MOL0     H76630   1.750   8.787   4.184  3.6037 -0.8603  0.6524
  568MOL0     H76631   1.668   8.920   4.379 -0.2918 -0.3310 -1.5245
  568MOL0     H76632   1.492   8.904   4.686 -1.5934  1.8100 -0.6639
  568MOL0     H76633   1.525   9.001   4.538 -1.3324  1.3229  1.3905
  568MOL0     H76634   1.298   8.820   4.569  0.3412 -0.1783 -2.3909
  568MOL0     H76635   1.317   8.942   4.441  2.4000  2.0631 -0.0445
  568MOL0     H76636   1.288   9.129   4.593 -2.0149 -0.5028 -2.7024
  568MOL0     H76637   1.278   9.016   4.736  2.1810 -1.1403  0.3659
  568MOL0     H76638   1.060   8.927   4.605  0.1265 -0.6528  0.0903
  568MOL0     H76639   1.106   9.028   4.485  0.2022  0.6593  0.0614
  568MOL0     H76640   0.888   8.986   4.504 -0.8302 -1.1511  0.9086
  568MOL0     H76641   0.714   8.970   4.345  0.2586  0.2904  0.8472
  568MOL0     H76642   0.564   8.964   4.448 -0.0525  1.1587  1.5542
  568MOL0     H76643   0.574   9.075   4.320  0.2751 -4.1570 -3.6326
  568MOL0     H76644   0.349   9.392   4.673  0.2070  0.8131  0.2406
  568MOL0     H76645   0.120   9.471   4.696 -0.7793  1.5626 -0.3104
  568MOL0     H76646  -0.102   9.416   4.591 -1.2152 -0.5562 -1.7216
  568MOL0     H76647  -0.124   9.569   4.679 -1.1992  0.6346  0.3116
  568MOL0     H76648  -0.256   9.565   4.415 -3.3892 -1.1188 -0.3770
  568MOL0     H76649  -0.309   9.431   4.512 -0.6560 -0.3205  0.7730
  568MOL0     H76650  -0.329   9.724   4.585 -0.9262  0.0884 -0.1359
  568MOL0     H76651  -0.340   9.600   4.714  1.0989  0.6227  0.1947
  568MOL0     H76652  -0.503   9.613   4.466 -4.9956  1.5128  0.9432
  568MOL0     H76653  -0.529   9.487   4.585  1.6959 -0.5562  0.2454
  568MOL0     H76654  -0.587   9.787   4.622  1.0060 -1.0267  0.0542
  568MOL0     H76655  -0.602   9.669   4.752 -4.7878  1.3579  0.8115
  568MOL0     H76656  -0.752   9.647   4.494  3.1405  0.0165 -0.4626
  568MOL0     H76657  -0.781   9.556   4.634  1.3377 -0.6970  0.5887
  568MOL0     H76658  -0.820   9.852   4.599 -2.4965  2.0837 -0.1960
  568MOL0     H76659  -0.836   9.780   4.763  0.6858  0.0549 -0.3909
  568MOL0     H76660  -1.017   9.628   4.665 -0.0110 -0.3613 -0.1588
  568MOL0     H76661  -0.972   9.681   4.504  1.8346  1.9764  0.1624
  568MOL0     H76662   0.127   9.609   4.291 -0.0794 -0.4754 -0.4265
  568MOL0     H76663   0.382   9.543   4.285 -0.9333  0.4130 -0.2152
  568MOL0     H76664   0.700   9.432   4.623  2.7367  1.4967 -2.1417
  568MOL0     H76665   0.929   9.379   4.682  1.2495 -0.4032 -1.7877
  568MOL0     H76666   2.843   9.043   4.536 -2.1490 -0.4396  0.3011
  568MOL0     H76667   3.095   9.027   4.484  0.0095  2.9311 -2.6667
  568MOL0     H76668   3.510   8.791   4.566  2.4238  0.6908  0.0147
  568MOL0     H76669   3.743   8.763   4.490  0.9922  2.7589 -1.3740
  568MOL0     H76670   3.944   8.781   4.386  3.9787 -0.0924 -1.5972
  568MOL0     H76671   3.907   8.612   4.422 -2.0514  2.2508  1.6033
  568MOL0     H76672   4.089   8.693   4.184  1.0558 -1.8180 -1.0730
  568MOL0     H76673   4.028   8.534   4.207  0.3915  0.7875 -0.5793
  568MOL0     H76674   4.114   8.544   4.449  0.2050  0.9398 -0.3132
  568MOL0     H76675   4.193   8.695   4.402  0.0258  1.5397 -0.5982
  568MOL0     H76676   4.335   8.474   4.402  0.2108  0.0723 -0.2378
  568MOL0     H76677   4.360   8.593   4.276 -0.2457  0.3576 -0.7899
  568MOL0     H76678   4.210   8.263   4.060 -2.2939  1.5128 -0.9532
  568MOL0     H76679   3.614   8.729   4.085  0.0041 -0.3188 -0.4868
  568MOL0     H76680   3.389   8.770   4.159 -0.2980  3.7999  0.1792
  569MOL0     O76681   4.993  10.837   4.869 -0.4184 -0.2561  1.1570
  569MOL0     C76682   5.100  10.819   4.805  1.3112 -0.6767 -0.8824
  569MOL0     O76683   5.130  10.881   4.688  0.4238 -0.6295  0.8230
  569MOL0     C76684   5.030  10.949   4.626  0.6903 -0.6643 -0.2264
  569MOL0     C76685   5.047  11.084   4.612 -0.4730 -0.4621  0.5876
  569MOL0     C76686   4.940  11.164   4.561  0.9047 -0.2836 -0.4983
  569MOL0     C76687   4.823  11.106   4.509  0.2749 -0.0423  0.1822
  569MOL0     O76688   4.735  11.200   4.456 -0.6857  0.1178  1.2563
  569MOL0     C76689   4.646  11.144   4.362 -0.1568  0.0997 -0.3810
  569MOL0     C76690   4.537  11.251   4.337 -1.4015  0.1745 -0.1590
  569MOL0     C76691   4.455  11.311   4.454 -0.0596  0.5502  0.0784
  569MOL0     C76692   4.351  11.403   4.406  0.4081  0.0069 -0.1324
  569MOL0     C76693   4.257  11.454   4.517  0.1808 -0.2077  0.5704
  569MOL0     C76694   4.194  11.347   4.614 -0.6678 -0.0717 -0.0816
  569MOL0     C76695   4.087  11.413   4.693  0.0147  0.8007  0.0255
  569MOL0     C76696   4.040  11.329   4.820 -0.0841 -0.3952 -0.5434
  569MOL0     N76697   3.941  11.233   4.783  0.9339 -0.2433 -0.5135
  569MOL0     C76698   3.806  11.252   4.803 -0.3573  0.4037  0.1723
  569MOL0     C76699   3.743  11.150   4.722  0.4895  0.5203  0.5050
  569MOL0     C76700   3.595  11.126   4.701 -0.0587 -0.1768  0.0497
  569MOL0     C76701   3.546  10.998   4.767 -0.3319 -0.4504 -0.1669
  569MOL0     C76702   3.530  11.030   4.925 -0.7009 -0.4892 -0.7135
  569MOL0     C76703   3.472  10.914   5.009 -0.3016 -0.2070  0.5008
  569MOL0     O76704   3.345  10.876   4.946  0.8969 -0.2197  0.5099
  569MOL0     C76705   3.246  10.905   5.028 -0.3430  0.0339  0.7217
  569MOL0     C76706   3.223  10.850   5.151  0.6864  1.2215 -0.3434
  569MOL0     C76707   3.102  10.870   5.219  0.6711 -0.7884  0.4097
  569MOL0     C76708   3.086  10.805   5.350  0.8308 -0.4247 -0.3019
  569MOL0     C76709   3.009  10.962   5.162 -0.2816  0.2033 -0.7294
  569MOL0     C76710   2.876  10.998   5.234  0.8504  0.4506 -0.1350
  569MOL0     O76711   2.806  11.104   5.184 -0.4749  0.3143  0.3566
  569MOL0     C76712   2.698  11.145   5.258  0.0591  0.8197 -0.0870
  569MOL0     C76713   2.571  11.098   5.224  0.5715 -0.3096  0.5379
  569MOL0     C76714   2.456  11.154   5.283  0.4555  0.4717  0.3994
  569MOL0     C76715   2.464  11.256   5.378  0.7467 -0.7091 -1.0838
  569MOL0     O76716   2.342  11.284   5.443 -0.3038  0.4252  0.0201
  569MOL0     C76717   2.348  11.365   5.562 -0.3108  0.1993  0.0300
  569MOL0     C76718   2.215  11.360   5.639 -0.0846 -0.0854 -0.4342
  569MOL0     C76719   2.089  11.364   5.536 -0.9391  0.3255 -0.1863
  569MOL0     C76720   1.960  11.330   5.609 -0.4988  0.4786 -0.7582
  569MOL0     C76721   1.843  11.302   5.515  0.2756 -0.4748  0.8114
  569MOL0     C76722   1.705  11.332   5.571  0.4902 -0.8365  0.5922
  569MOL0     C76723   1.591  11.327   5.478 -0.2159 -0.1466  0.2097
  569MOL0     C76724   1.493  11.434   5.503  0.1972 -0.0514 -0.0884
  569MOL0    Cl76725   1.573  11.589   5.476 -0.3089  0.0004  0.1116
  569MOL0     C76726   2.596  11.308   5.412  0.5390 -0.2160 -0.8906
  569MOL0     C76727   2.708  11.249   5.355  0.4359  1.0970  0.6618
  569MOL0     O76728   2.842  10.939   5.337  0.1059 -0.1447 -0.2971
  569MOL0     C76729   3.041  11.029   5.039  0.0191  0.0060  1.2753
  569MOL0     C76730   3.153  10.985   4.972  0.2075  0.4082  0.0280
  569MOL0     N76731   3.845  11.077   4.664 -0.1628 -1.0327  0.6313
  569MOL0     N76732   3.959  11.127   4.700 -0.7731  0.0843 -0.3072
  569MOL0     C76733   4.816  10.972   4.514 -0.7178  0.3451 -0.8172
  569MOL0     C76734   4.916  10.892   4.567 -0.0138 -0.1184 -0.0053
  569MOL0     C76735   5.204  10.747   4.881  0.5643 -0.5359 -0.7023
  569MOL0     C76736   5.335  10.739   4.831  0.1162  0.4343  0.8752
  569MOL0     C76737   5.429  10.671   4.896  0.0064  0.6952 -0.8144
  569MOL0     C76738   5.399  10.606   5.019 -0.4922 -0.5464  0.0069
  569MOL0     O76739   5.486  10.524   5.089  0.0412  0.6927 -0.3071
  569MOL0     C76740   5.617  10.508   5.035 -0.1619 -0.1725 -0.1154
  569MOL0     C76741   5.708  10.404   5.105  0.2275 -0.6362 -0.0147
  569MOL0     C76742   5.642  10.265   5.091 -0.0293 -0.0780  0.1507
  569MOL0     C76743   5.740  10.146   5.122 -0.3156 -0.2106 -0.1546
  569MOL0     C76744   5.818  10.171   5.243 -0.0824  0.7277  0.0886
  569MOL0     C76745   5.901  10.184   5.331  0.4755 -0.1019  0.2866
  569MOL0     C76746   5.271  10.613   5.073  0.0445 -0.2906 -0.8120
  569MOL0     C76747   5.174  10.692   5.009 -0.1710 -0.4520  0.3205
  569MOL0     H76748   5.135  11.131   4.654  1.0129 -2.1260 -0.5280
  569MOL0     H76749   4.941  11.272   4.568 -2.4874 -0.0815 -0.9678
  569MOL0     H76750   4.697  11.102   4.275  0.9091 -1.8251  1.0876
  569MOL0     H76751   4.589  11.061   4.403  1.6552 -0.7918  0.4780
  569MOL0     H76752   4.589  11.339   4.299 -0.8318 -0.3697 -0.6708
  569MOL0     H76753   4.472  11.208   4.261 -0.5008 -0.0244 -0.8421
  569MOL0     H76754   4.410  11.228   4.510 -0.3337  1.3329  1.0498
  569MOL0     H76755   4.522  11.366   4.521 -0.4120  2.2498 -0.8976
  569MOL0     H76756   4.389  11.490   4.351  0.5565  1.6535  2.4016
  569MOL0     H76757   4.283  11.348   4.341  0.0873  0.1613  0.0727
  569MOL0     H76758   4.314  11.527   4.577 -0.7484 -0.0376  1.2722
  569MOL0     H76759   4.166  11.502   4.480  0.9500  0.7979 -0.0807
  569MOL0     H76760   4.160  11.256   4.563 -1.6380  2.9503 -5.5996
  569MOL0     H76761   4.277  11.318   4.679  0.1653 -0.3092 -1.2300
  569MOL0     H76762   4.130  11.505   4.733  0.7882 -0.0134  1.1280
  569MOL0     H76763   3.996  11.442   4.639 -1.5056 -4.4237 -0.8212
  569MOL0     H76764   3.999  11.399   4.894 -0.8220 -1.5202  0.1440
  569MOL0     H76765   4.120  11.273   4.869 -1.4127 -0.0627  2.1979
  569MOL0     H76766   3.758  11.335   4.853  1.3903  1.1288  0.7230
  569MOL0     H76767   3.541  11.211   4.744  0.1893 -0.2417  0.4979
  569MOL0     H76768   3.588  11.124   4.592  0.4647 -1.3306  0.0226
  569MOL0     H76769   3.621  10.918   4.766 -1.6855 -2.1352  4.7985
  569MOL0     H76770   3.448  10.966   4.731 -1.0235  1.6871 -0.2875
  569MOL0     H76771   3.470  11.120   4.937  1.7897  1.3055 -0.9553
  569MOL0     H76772   3.625  11.054   4.973 -0.6881 -0.9575 -0.4998
  569MOL0     H76773   3.470  10.939   5.115 -0.7174  0.7352  0.2861
  569MOL0     H76774   3.539  10.829   4.996 -0.1700 -0.6474  3.5454
  569MOL0     H76775   3.305  10.791   5.192  1.5277  1.0063 -2.2470
  569MOL0     H76776   3.174  10.746   5.376  1.4330  1.6338  2.9174
  569MOL0     H76777   3.094  10.883   5.427  3.2777  0.1432 -1.0316
  569MOL0     H76778   3.000  10.738   5.348  0.9884 -0.6185 -0.9309
  569MOL0     H76779   2.559  11.027   5.143 -0.7248 -0.1442  0.5606
  569MOL0     H76780   2.369  11.105   5.239 -0.2792  0.3555  1.9125
  569MOL0     H76781   2.426  11.327   5.628  0.7458  0.2655 -1.1500
  569MOL0     H76782   2.382  11.461   5.523  0.1030 -0.5014 -1.4084
  569MOL0     H76783   2.214  11.258   5.680  2.1608 -1.0855 -2.5826
  569MOL0     H76784   2.223  11.432   5.721  1.4930 -0.9950  0.2601
  569MOL0     H76785   2.103  11.290   5.457 -0.0345  1.2010 -0.8737
  569MOL0     H76786   2.078  11.459   5.482 -0.5495 -0.9022 -2.5530
  569MOL0     H76787   1.988  11.237   5.659 -1.4521  0.3840 -0.3798
  569MOL0     H76788   1.941  11.418   5.672  0.4633  2.3279 -2.9290
  569MOL0     H76789   1.855  11.203   5.471 -1.2826 -0.5711  0.5404
  569MOL0     H76790   1.853  11.380   5.439 -1.3811  0.7723  1.7746
  569MOL0     H76791   1.687  11.272   5.660 -0.6181  0.1201  1.0424
  569MOL0     H76792   1.710  11.434   5.611 -2.6968 -1.1605  2.0741
  569MOL0     H76793   1.541  11.231   5.488 -0.0112 -0.1676  1.0386
  569MOL0     H76794   1.619  11.327   5.372 -2.6842  1.8633 -0.5490
  569MOL0     H76795   1.461  11.421   5.607 -3.0314 -2.3448 -1.2237
  569MOL0     H76796   1.403  11.432   5.441  0.9803 -2.2855 -1.2390
  569MOL0     H76797   2.600  11.389   5.484 -0.9990 -1.1360  0.2818
  569MOL0     H76798   2.813  11.265   5.375  1.0824 -0.5756 -1.0556
  569MOL0     H76799   2.979  11.106   4.995  2.2389  0.7196 -0.8107
  569MOL0     H76800   3.170  11.013   4.869 -0.4209 -0.3759 -0.2995
  569MOL0     H76801   4.732  10.913   4.478 -1.0094  0.0144  0.3646
  569MOL0     H76802   4.894  10.786   4.580 -0.4998 -0.4126 -2.6158
  569MOL0     H76803   5.360  10.786   4.737  1.0505 -0.3270  0.7342
  569MOL0     H76804   5.531  10.679   4.859  1.0638 -1.1335  1.4502
  569MOL0     H76805   5.603  10.481   4.930  1.0135 -1.0525 -0.0675
  569MOL0     H76806   5.677  10.600   5.033 -0.4142  0.1090  2.3016
  569MOL0     H76807   5.723  10.419   5.212  0.8902  1.0936 -0.3219
  569MOL0     H76808   5.807  10.402   5.058  0.8328  0.6366  1.1190
  569MOL0     H76809   5.600  10.248   4.992 -1.4765 -0.1912  0.7680
  569MOL0     H76810   5.556  10.262   5.158 -0.3107 -0.7126 -0.2382
  569MOL0     H76811   5.813  10.137   5.041  0.9502 -4.2445  1.1762
  569MOL0     H76812   5.689  10.049   5.117  1.3957 -1.1893  0.4319
  569MOL0     H76813   5.978  10.208   5.401  0.5881  1.2346 -0.2666
  569MOL0     H76814   5.246  10.574   5.171  2.8477  0.4938  0.3239
  569MOL0     H76815   5.072  10.712   5.040 -0.4455  0.3631 -1.0103
  570MOL0     O76816   5.524  11.069   6.318  0.3160  0.1429 -0.1613
  570MOL0     C76817   5.500  10.954   6.343  0.1909  0.6757 -0.1751
  570MOL0     O76818   5.379  10.890   6.338  0.7880 -0.4060 -0.3578
  570MOL0     C76819   5.269  10.959   6.293 -0.6463 -0.1017 -0.2855
  570MOL0     C76820   5.259  11.045   6.184  0.3142 -0.4954  0.0588
  570MOL0     C76821   5.138  11.099   6.140 -0.2389 -0.2885  0.1726
  570MOL0     C76822   5.021  11.062   6.205  0.1897 -0.0208  0.2470
  570MOL0     O76823   4.911  11.118   6.144  0.2444 -0.1255 -0.0782
  570MOL0     C76824   4.783  11.079   6.174 -0.8838  0.5486 -0.5160
  570MOL0     C76825   4.684  11.181   6.107 -0.1463  0.3451 -0.5037
  570MOL0     C76826   4.553  11.166   6.170  0.8543  0.8777 -0.2263
  570MOL0     C76827   4.502  11.023   6.132  0.0769  0.3734  0.2273
  570MOL0     C76828   4.356  11.000   6.170 -0.4312  0.2502  0.2719
  570MOL0     C76829   4.329  10.851   6.165  0.0046 -0.3534 -0.4206
  570MOL0     C76830   4.184  10.802   6.195 -0.4372  0.0371  0.3463
  570MOL0     C76831   4.171  10.654   6.201  0.1602 -0.1720  0.4916
  570MOL0     N76832   4.031  10.616   6.230 -0.6669  0.0756 -0.0154
  570MOL0     C76833   3.911  10.680   6.194 -1.1984 -0.3831  0.9664
  570MOL0     C76834   3.812  10.604   6.241  0.1039  0.8176 -0.2220
  570MOL0     C76835   3.669  10.645   6.241 -0.5577  0.5630  0.2139
  570MOL0     C76836   3.578  10.528   6.270 -0.5766  0.0108 -0.9221
  570MOL0     C76837   3.435  10.557   6.206  0.1447 -0.1408  0.0561
  570MOL0     C76838   3.320  10.486   6.282 -0.6108 -0.0681  0.0719
  570MOL0     O76839   3.189  10.520   6.218 -0.4284 -0.9910 -0.1663
  570MOL0     C76840   3.081  10.492   6.302 -0.7946  0.0868  0.0947
  570MOL0     C76841   3.071  10.466   6.439 -0.3844 -0.1619  0.4367
  570MOL0     C76842   2.950  10.454   6.503 -0.0671  0.4379  0.3981
  570MOL0     C76843   2.952  10.436   6.655  0.3656 -0.3158  0.3441
  570MOL0     C76844   2.826  10.465   6.432 -0.1663  0.2657  0.6630
  570MOL0     C76845   2.686  10.460   6.480  0.0122  0.6721  0.2850
  570MOL0     O76846   2.594  10.510   6.391 -0.1671  0.7450 -0.0501
  570MOL0     C76847   2.461  10.489   6.406  0.7069 -0.1460  1.0186
  570MOL0     C76848   2.402  10.376   6.472 -0.1060 -0.3876  0.5884
  570MOL0     C76849   2.262  10.368   6.484  0.0456 -0.0727  0.3770
  570MOL0     C76850   2.179  10.476   6.433  0.6715 -0.2396  0.0516
  570MOL0     O76851   2.040  10.463   6.420  0.0802 -0.4692  0.1875
  570MOL0     C76852   1.971  10.340   6.469  0.2360  0.0707  0.2390
  570MOL0     C76853   1.819  10.358   6.484 -0.0223  0.6936  0.1782
  570MOL0     C76854   1.792  10.457   6.592  0.6694 -0.4597 -0.5720
  570MOL0     C76855   1.642  10.472   6.616 -0.0666 -0.3900 -0.5485
  570MOL0     C76856   1.614  10.525   6.753  0.1061  0.2784 -0.0219
  570MOL0     C76857   1.468  10.546   6.780  0.8371  0.6113  0.4172
  570MOL0     C76858   1.412  10.664   6.711  0.3169  0.4876 -0.6018
  570MOL0     C76859   1.269  10.700   6.724  0.6779  0.2208 -0.1405
  570MOL0    Cl76860   1.225  10.743   6.885  0.0924  0.2592 -0.4122
  570MOL0     C76861   2.240  10.588   6.385 -0.0274 -0.2682  0.5386
  570MOL0     C76862   2.379  10.595   6.376 -0.0313  0.2483  1.1987
  570MOL0     O76863   2.668  10.439   6.597  0.1608  0.2132 -0.2404
  570MOL0     C76864   2.843  10.498   6.297  0.0686  0.9772 -0.6517
  570MOL0     C76865   2.966  10.503   6.235 -0.6100 -0.0493  0.3061
  570MOL0     N76866   3.873  10.492   6.305 -0.4407 -0.6891 -0.2631
  570MOL0     N76867   4.002  10.500   6.288 -0.2802 -0.0220 -1.1800
  570MOL0     C76868   5.026  10.977   6.320  1.0889 -0.3717 -0.4627
  570MOL0     C76869   5.146  10.926   6.357 -0.6041  0.1438 -0.5987
  570MOL0     C76870   5.611  10.877   6.386 -0.0971 -0.2504 -1.0879
  570MOL0     C76871   5.733  10.939   6.416 -0.7014 -0.4501 -0.3045
  570MOL0     C76872   5.837  10.868   6.474 -0.7374  0.4714  1.4846
  570MOL0     C76873   5.820  10.734   6.498 -0.8533  0.0437  0.6414
  570MOL0     O76874   5.919  10.673   6.574  0.6289  0.7280  0.0874
  570MOL0     C76875   5.949  10.535   6.530  1.0656 -0.9090 -0.0618
  570MOL0     C76876   6.099  10.538   6.482  0.3467  1.6470 -0.9725
  570MOL0     C76877   6.168  10.397   6.502  0.1751 -0.5507  0.0390
  570MOL0     C76878   6.280  10.365   6.405 -0.1913  0.7142 -0.2187
  570MOL0     C76879   6.410  10.422   6.454 -0.1001 -0.3583  0.0955
  570MOL0     C76880   6.488  10.488   6.522  0.1045  0.1656 -0.4876
  570MOL0     C76881   5.701  10.673   6.469 -0.6395  0.3703 -0.0252
  570MOL0     C76882   5.603  10.743   6.401 -0.2995  0.4732  0.5965
  570MOL0     H76883   5.353  11.052   6.130  1.4554 -0.0310  2.0082
  570MOL0     H76884   5.132  11.167   6.055 -0.4831 -0.2896  0.1886
  570MOL0     H76885   4.767  10.982   6.125  2.5268 -0.5268  0.2283
  570MOL0     H76886   4.769  11.057   6.280 -0.4268 -0.7023 -0.6958
  570MOL0     H76887   4.724  11.280   6.131  0.0636  0.4543 -1.2493
  570MOL0     H76888   4.671  11.179   5.998  3.7010  0.2017 -1.1046
  570MOL0     H76889   4.563  11.186   6.277 -0.2702  1.7094 -0.2446
  570MOL0     H76890   4.479  11.243   6.144 -0.4876  0.8802  3.0876
  570MOL0     H76891   4.505  11.014   6.023 -1.8683  0.3599  0.1334
  570MOL0     H76892   4.564  10.943   6.173 -1.1989  0.7629  3.1897
  570MOL0     H76893   4.341  11.045   6.269 -1.0560  0.4321  0.0955
  570MOL0     H76894   4.292  11.049   6.096 -0.4572  1.7871  1.2722
  570MOL0     H76895   4.373  10.812   6.073  0.4943  0.9276 -0.7520
  570MOL0     H76896   4.391  10.809   6.244  1.1790  2.4668  0.2541
  570MOL0     H76897   4.136  10.845   6.284 -0.2672  1.2723 -0.1347
  570MOL0     H76898   4.123  10.835   6.110 -1.9004 -0.2682  1.2364
  570MOL0     H76899   4.233  10.602   6.274 -1.8745 -2.9767  0.3658
  570MOL0     H76900   4.207  10.617   6.105 -0.2585  0.6691 -0.0016
  570MOL0     H76901   3.905  10.779   6.150  0.9941 -0.1556  1.0947
  570MOL0     H76902   3.661  10.713   6.326  1.1440 -0.6489  1.4058
  570MOL0     H76903   3.645  10.691   6.145  2.1629  1.1502 -0.2706
  570MOL0     H76904   3.561  10.517   6.378 -0.6995 -2.0182 -1.1182
  570MOL0     H76905   3.618  10.437   6.225 -0.4116 -1.2848  1.6412
  570MOL0     H76906   3.439  10.529   6.101  4.1712  2.2757 -0.6638
  570MOL0     H76907   3.433  10.667   6.204 -1.8644 -0.1500 -0.0497
  570MOL0     H76908   3.329  10.515   6.387  0.3718  0.2405 -0.0861
  570MOL0     H76909   3.339  10.379   6.270  1.2322  0.0861  1.2466
  570MOL0     H76910   3.157  10.455   6.504  0.3215  1.0671 -0.2517
  570MOL0     H76911   2.899  10.509   6.718 -1.9338 -0.3399 -1.4233
  570MOL0     H76912   2.907  10.336   6.667 -0.1406 -0.1126  0.1697
  570MOL0     H76913   3.056  10.435   6.687  0.7536 -2.8833 -0.7012
  570MOL0     H76914   2.455  10.288   6.506  0.3480 -0.2301  0.2949
  570MOL0     H76915   2.219  10.274   6.519  0.7012  0.4173  2.6349
  570MOL0     H76916   1.995  10.258   6.401 -0.4416 -0.2463  0.3707
  570MOL0     H76917   2.010  10.321   6.569 -0.3556  1.1502  0.6974
  570MOL0     H76918   1.786  10.412   6.395 -2.2874  1.3787  1.3588
  570MOL0     H76919   1.760  10.267   6.501 -0.1473  1.0315  1.7237
  570MOL0     H76920   1.841  10.551   6.565  0.3438 -0.4902 -1.3011
  570MOL0     H76921   1.836  10.415   6.683  2.9862  2.7515 -0.0315
  570MOL0     H76922   1.606  10.536   6.534 -0.4761  0.2759  0.1421
  570MOL0     H76923   1.589  10.377   6.605 -0.4956 -0.5844  2.3773
  570MOL0     H76924   1.665  10.619   6.773 -4.0222  2.5670  0.8517
  570MOL0     H76925   1.652  10.449   6.823 -1.2521 -0.7843 -0.3929
  570MOL0     H76926   1.414  10.460   6.741  1.4704  0.1934  0.4519
  570MOL0     H76927   1.451  10.555   6.888 -0.1214 -0.7246  0.3961
  570MOL0     H76928   1.416  10.650   6.603  1.7561 -1.4132 -0.3534
  570MOL0     H76929   1.467  10.753   6.743  1.6080 -1.0587  1.8212
  570MOL0     H76930   1.206  10.615   6.697 -2.1925  2.1393  0.0287
  570MOL0     H76931   1.244  10.786   6.660  0.1378 -0.4523 -0.8531
  570MOL0     H76932   2.176  10.667   6.348 -0.7254  0.8168  3.7396
  570MOL0     H76933   2.430  10.685   6.343  1.3233 -0.9634 -0.1434
  570MOL0     H76934   2.759  10.500   6.229 -0.3246 -0.0166 -0.2212
  570MOL0     H76935   2.974  10.528   6.129  3.3992  1.4980  0.8260
  570MOL0     H76936   4.931  10.960   6.369  1.0952  1.9836  0.5106
  570MOL0     H76937   5.150  10.863   6.444 -0.5660 -1.9690 -2.0632
  570MOL0     H76938   5.742  11.048   6.411  2.4538 -0.6274 -0.6870
  570MOL0     H76939   5.936  10.912   6.476 -1.9077  3.4877  0.3355
  570MOL0     H76940   5.935  10.488   6.628 -0.8616  2.4226  1.4027
  570MOL0     H76941   5.880  10.492   6.457 -0.4477  4.9534 -2.6840
  570MOL0     H76942   6.157  10.615   6.534  1.2068  0.7590 -0.5952
  570MOL0     H76943   6.091  10.572   6.378  2.3062  2.3691 -0.9265
  570MOL0     H76944   6.088  10.323   6.490  0.8563 -1.0972 -1.3126
  570MOL0     H76945   6.205  10.383   6.603  0.4101 -0.7129 -0.0686
  570MOL0     H76946   6.252  10.407   6.307 -0.7183  0.1233 -0.3268
  570MOL0     H76947   6.289  10.257   6.399  0.1757  0.6336  1.4917
  570MOL0     H76948   6.558  10.535   6.588 -0.4623 -0.3667  0.5114
  570MOL0     H76949   5.680  10.569   6.490 -2.0127  0.5815 -0.3008
  570MOL0     H76950   5.517  10.689   6.363 -1.4801  2.3861  0.4167
  571MOL0     O76951  11.174  10.422   4.784  0.6519  0.2410  0.0581
  571MOL0     C76952  11.160  10.511   4.702 -0.7246 -0.4699 -0.1023
  571MOL0     O76953  11.089  10.628   4.716  0.4093 -0.5563 -0.2738
  571MOL0     C76954  10.993  10.647   4.820  0.0960  0.8439  0.2611
  571MOL0     C76955  11.015  10.601   4.954  0.8297 -0.8005  0.1923
  571MOL0     C76956  10.918  10.626   5.056  0.0324 -0.3385 -0.3443
  571MOL0     C76957  10.792  10.682   5.017 -0.3429 -0.4971  0.1943
  571MOL0     O76958  10.682  10.698   5.105 -0.4793 -0.3171  0.0387
  571MOL0     C76959  10.661  10.598   5.200 -0.6485 -0.9161  0.1725
  571MOL0     C76960  10.513  10.609   5.239 -0.0085 -0.1759  0.8766
  571MOL0     C76961  10.418  10.597   5.110  0.0503 -1.0369  0.2579
  571MOL0     C76962  10.279  10.564   5.154 -0.4250 -0.1076 -0.5853
  571MOL0     C76963  10.184  10.565   5.029 -0.0315  0.2007  0.2010
  571MOL0     C76964  10.032  10.573   5.075  0.5709  1.1931  0.6471
  571MOL0     C76965   9.989  10.692   5.155 -1.4227 -1.0260  0.0724
  571MOL0     C76966   9.848  10.741   5.127  0.1452 -0.8582  0.5139
  571MOL0     N76967   9.752  10.629   5.165 -0.1220 -0.3638  0.0712
  571MOL0     C76968   9.728  10.579   5.293  0.1343 -0.1458 -0.2650
  571MOL0     C76969   9.622  10.501   5.282 -0.7483  0.1632  0.0962
  571MOL0     C76970   9.565  10.419   5.398  0.7529  0.2251  0.5331
  571MOL0     C76971   9.624  10.273   5.397 -0.4294 -0.7190 -0.7728
  571MOL0     C76972   9.564  10.185   5.513  0.5283  0.0372 -0.0320
  571MOL0     C76973   9.413  10.165   5.498 -0.0227  0.2505  0.2872
  571MOL0     O76974   9.371  10.082   5.609 -0.1689  0.2494 -0.2953
  571MOL0     C76975   9.256  10.008   5.594 -0.4048 -0.2360 -0.4156
  571MOL0     C76976   9.192   9.981   5.471 -0.8636  0.6793 -0.4175
  571MOL0     C76977   9.078   9.896   5.454 -0.3786 -0.2046  1.1948
  571MOL0     C76978   9.032   9.869   5.306 -0.0089  0.1187  0.1269
  571MOL0     C76979   9.029   9.831   5.568 -0.1868 -0.3330 -0.3416
  571MOL0     C76980   8.901   9.756   5.568  0.5203  0.5958  0.2901
  571MOL0     O76981   8.839   9.732   5.687 -0.3118 -0.3017  0.2403
  571MOL0     C76982   8.735   9.648   5.686  0.3185 -0.0546 -0.3356
  571MOL0     C76983   8.757   9.515   5.706  0.3387 -0.5052 -0.0720
  571MOL0     C76984   8.657   9.421   5.703 -0.3280  0.2546  0.4797
  571MOL0     C76985   8.529   9.457   5.674 -0.2963 -0.8211 -0.2172
  571MOL0     O76986   8.425   9.368   5.672 -0.2396 -0.2923  0.5656
  571MOL0     C76987   8.442   9.263   5.574 -0.3370 -0.0958 -0.6660
  571MOL0     C76988   8.305   9.209   5.537 -0.4611  0.3065 -0.1605
  571MOL0     C76989   8.226   9.319   5.475  0.0395  0.0989 -0.3209
  571MOL0     C76990   8.075   9.286   5.464  1.6510 -0.0290 -0.0015
  571MOL0     C76991   8.000   9.420   5.444 -0.3216  0.0355  0.1349
  571MOL0     C76992   7.850   9.373   5.441  0.4671  0.7602  0.2247
  571MOL0     C76993   7.762   9.485   5.384  1.0359  1.1340  0.4495
  571MOL0     C76994   7.615   9.433   5.358  0.3839 -0.0090 -0.5681
  571MOL0    Cl76995   7.533   9.380   5.512 -0.0278 -0.0351 -0.2780
  571MOL0     C76996   8.501   9.590   5.659  0.0541 -0.0152 -0.2287
  571MOL0     C76997   8.603   9.689   5.671 -0.2874 -0.5124  0.6724
  571MOL0     O76998   8.858   9.719   5.458  0.2517  0.5158  0.6009
  571MOL0     C76999   9.090   9.858   5.693  0.7771 -0.0090 -0.0511
  571MOL0     C77000   9.194   9.944   5.696 -0.5864  0.3514  0.8823
  571MOL0     N77001   9.582  10.491   5.148 -0.2751 -0.2117  0.3563
  571MOL0     N77002   9.665  10.568   5.081 -0.6089  0.3842 -0.3329
  571MOL0     C77003  10.778  10.726   4.891  0.4578 -0.5980 -0.4501
  571MOL0     C77004  10.876  10.710   4.789 -0.6587 -0.0072  0.6969
  571MOL0     C77005  11.240  10.500   4.585 -0.0387  0.6274  0.5316
  571MOL0     C77006  11.297  10.371   4.550 -0.5414 -1.0516 -0.5256
  571MOL0     C77007  11.360  10.364   4.423  0.6965  0.5250  0.0331
  571MOL0     C77008  11.355  10.475   4.335  0.7267  0.7328  0.4799
  571MOL0     O77009  11.425  10.479   4.216  0.3520 -0.4762  0.3462
  571MOL0     C77010  11.473  10.363   4.155 -0.1300  0.0611  0.3523
  571MOL0     C77011  11.623  10.345   4.182  0.1050 -0.2269 -0.0902
  571MOL0     C77012  11.697  10.250   4.085 -0.3134 -0.8911  0.1933
  571MOL0     C77013  11.767  10.135   4.162 -0.0402 -0.1145 -0.7642
  571MOL0     C77014  11.677  10.039   4.236 -0.3930  0.3592 -0.4440
  571MOL0     C77015  11.593   9.967   4.286 -0.2736 -0.1102  0.4171
  571MOL0     C77016  11.300  10.596   4.371 -0.0079  0.0778  1.4064
  571MOL0     C77017  11.250  10.615   4.496  0.3800  0.1200  0.1298
  571MOL0     H77018  11.118  10.572   4.973  1.4131  0.8725 -0.2076
  571MOL0     H77019  10.943  10.594   5.157  0.9962  2.6438  0.4915
  571MOL0     H77020  10.670  10.499   5.155 -0.6084 -0.7216 -0.2509
  571MOL0     H77021  10.739  10.603   5.277  1.9265 -0.0086 -2.3153
  571MOL0     H77022  10.492  10.520   5.299  3.5060 -2.6182 -1.1617
  571MOL0     H77023  10.508  10.701   5.298  3.3604  2.4363 -2.4312
  571MOL0     H77024  10.420  10.692   5.056  1.9442 -0.6523  0.9381
  571MOL0     H77025  10.438  10.510   5.046 -2.7177 -1.4857 -0.1141
  571MOL0     H77026  10.280  10.468   5.206  0.9982  0.0759 -0.2291
  571MOL0     H77027  10.249  10.639   5.228 -1.3146 -0.5265 -0.5082
  571MOL0     H77028  10.210  10.652   4.968  0.3922 -0.6608 -0.8861
  571MOL0     H77029  10.195  10.472   4.971  2.2864  1.2730 -1.2252
  571MOL0     H77030   9.986  10.568   4.976  4.1624 -0.7036 -1.1281
  571MOL0     H77031  10.010  10.480   5.127  1.0715 -1.2040 -3.0573
  571MOL0     H77032   9.990  10.677   5.263 -0.4328 -0.1297  0.1931
  571MOL0     H77033  10.057  10.776   5.141 -0.5778 -1.8833 -1.1748
  571MOL0     H77034   9.832  10.777   5.025  1.4069 -2.2986 -0.2344
  571MOL0     H77035   9.824  10.827   5.189 -1.2730 -0.2686 -0.7905
  571MOL0     H77036   9.771  10.619   5.383  0.1718  1.3734 -0.9229
  571MOL0     H77037   9.601  10.470   5.487 -1.4313  3.6542 -0.3760
  571MOL0     H77038   9.456  10.419   5.396  0.7269  1.5212  1.3842
  571MOL0     H77039   9.733  10.276   5.400 -0.4691  1.9260  0.0817
  571MOL0     H77040   9.603  10.223   5.302  3.7313 -0.0987 -2.1853
  571MOL0     H77041   9.570  10.238   5.609  0.0743  0.6804 -0.3476
  571MOL0     H77042   9.624  10.094   5.518 -1.5601 -1.3671  0.3780
  571MOL0     H77043   9.395  10.129   5.397  0.5044 -2.4614  1.0939
  571MOL0     H77044   9.365  10.263   5.508  2.3308  1.5833 -0.8520
  571MOL0     H77045   9.249  10.003   5.382  1.0419 -2.8384 -0.2742
  571MOL0     H77046   8.941   9.930   5.293 -0.8712 -1.5628 -2.5043
  571MOL0     H77047   9.107   9.903   5.234  0.2691 -0.6876  0.0251
  571MOL0     H77048   9.015   9.764   5.280  3.2871  0.0662 -2.4413
  571MOL0     H77049   8.860   9.493   5.732  0.2367  1.5365  2.4136
  571MOL0     H77050   8.694   9.319   5.712  0.6162  0.4847 -0.5584
  571MOL0     H77051   8.502   9.305   5.492  2.4292  0.9187  1.6967
  571MOL0     H77052   8.496   9.178   5.615 -1.8634 -0.4101  0.8150
  571MOL0     H77053   8.312   9.121   5.472  0.4474 -0.0613  0.4230
  571MOL0     H77054   8.265   9.178   5.635 -1.6038  0.3400 -0.6006
  571MOL0     H77055   8.265   9.342   5.376  1.6691  1.3724  0.5607
  571MOL0     H77056   8.245   9.414   5.525  2.9451 -0.4222 -0.2852
  571MOL0     H77057   8.050   9.228   5.374 -0.0251  1.9544 -0.8881
  571MOL0     H77058   8.029   9.246   5.556  2.6539  0.7836  0.8735
  571MOL0     H77059   8.031   9.461   5.347  0.4761 -1.8052 -0.4323
  571MOL0     H77060   8.023   9.493   5.522  0.4295 -0.5679  0.4840
  571MOL0     H77061   7.843   9.287   5.373 -2.0836  2.7618 -2.2565
  571MOL0     H77062   7.826   9.341   5.543  1.0782  0.0244  0.1511
  571MOL0     H77063   7.807   9.504   5.286  1.1046 -0.7976  0.0646
  571MOL0     H77064   7.758   9.576   5.445  1.4895  1.5663 -0.1592
  571MOL0     H77065   7.610   9.352   5.284  0.5733  0.4797 -1.1209
  571MOL0     H77066   7.560   9.516   5.313  0.8284  1.7101  1.8437
  571MOL0     H77067   8.405   9.627   5.624  1.2120  0.2445 -3.5299
  571MOL0     H77068   8.595   9.797   5.665  1.7505 -0.3611  0.1181
  571MOL0     H77069   9.051   9.818   5.786 -0.8071 -1.9235 -1.4568
  571MOL0     H77070   9.247   9.952   5.791  0.5031 -0.9877  0.4284
  571MOL0     H77071  10.686  10.778   4.867  2.4097  2.3754 -2.0277
  571MOL0     H77072  10.865  10.746   4.688 -2.3447  2.1493  1.5679
  571MOL0     H77073  11.287  10.277   4.603  0.4149  0.3781  2.3839
  571MOL0     H77074  11.407  10.270   4.396 -0.9885 -0.0896 -0.9202
  571MOL0     H77075  11.413  10.273   4.173  1.7435 -1.2987  0.0742
  571MOL0     H77076  11.469  10.389   4.049 -0.7553 -2.1615 -0.2182
  571MOL0     H77077  11.627  10.302   4.282  1.0511  0.5531  0.2209
  571MOL0     H77078  11.672  10.441   4.201 -3.5731  1.3829  2.5561
  571MOL0     H77079  11.773  10.310   4.034 -0.1723 -0.1309  1.2532
  571MOL0     H77080  11.628  10.209   4.012  1.3778  1.3357 -2.8829
  571MOL0     H77081  11.831  10.178   4.239 -0.3245 -0.5187 -0.2920
  571MOL0     H77082  11.832  10.090   4.087 -0.1168  2.1027 -2.2696
  571MOL0     H77083  11.541   9.881   4.323  1.8004 -1.4470  0.4120
  571MOL0     H77084  11.281  10.675   4.299  2.8024 -0.6978 -0.3605
  571MOL0     H77085  11.197  10.706   4.522 -0.6332 -0.0346 -1.2541
  572MOL0     O77086   4.876   5.790   3.584  0.3630  0.6857  0.0820
  572MOL0     C77087   4.902   5.820   3.472  0.2482 -0.2709 -0.1259
  572MOL0     O77088   4.812   5.887   3.392 -0.0298 -0.2339 -0.7423
  572MOL0     C77089   4.684   5.912   3.429  0.5108 -0.3253  0.2429
  572MOL0     C77090   4.589   5.805   3.447 -0.2431  0.1330  0.3678
  572MOL0     C77091   4.459   5.828   3.463  0.0690 -0.2088 -0.4746
  572MOL0     C77092   4.419   5.962   3.452 -0.2394 -0.4388  0.0781
  572MOL0     O77093   4.287   6.001   3.458  0.4288 -0.1098  0.5461
  572MOL0     C77094   4.189   5.903   3.487 -0.2829  0.7795 -0.1370
  572MOL0     C77095   4.057   5.947   3.544  0.8946 -0.5863 -0.7666
  572MOL0     C77096   3.963   5.830   3.589  0.0612 -0.0935 -0.4775
  572MOL0     C77097   3.825   5.885   3.632 -0.2417  0.4455  0.2896
  572MOL0     C77098   3.837   5.952   3.770  0.1577 -0.1753 -0.0888
  572MOL0     C77099   3.692   5.968   3.828 -0.1428  0.2341  0.3245
  572MOL0     C77100   3.640   5.832   3.875 -0.0086  0.4533  0.5193
  572MOL0     C77101   3.498   5.831   3.835  0.2519 -0.9940 -0.5796
  572MOL0     N77102   3.402   5.937   3.885  0.0394 -0.6966  0.1546
  572MOL0     C77103   3.357   5.949   4.019 -0.4312 -0.5699  0.0101
  572MOL0     C77104   3.271   6.061   4.017  0.1585 -0.6587 -0.0204
  572MOL0     C77105   3.174   6.114   4.126  0.1697  0.1720  0.2541
  572MOL0     C77106   3.061   6.023   4.172 -0.4273  0.1020  0.3008
  572MOL0     C77107   2.972   6.089   4.277  0.7534 -0.5680  0.5038
  572MOL0     C77108   2.840   6.018   4.316  0.2139 -0.2656  0.4885
  572MOL0     O77109   2.776   6.101   4.419  0.9368 -0.4683 -0.0226
  572MOL0     C77110   2.676   6.187   4.386 -0.6126  0.1423 -0.4482
  572MOL0     C77111   2.602   6.255   4.481  0.0975 -0.8792  1.5238
  572MOL0     C77112   2.494   6.345   4.450 -0.0212  0.2847  0.4216
  572MOL0     C77113   2.410   6.394   4.564 -0.1682  1.6142 -0.2560
  572MOL0     C77114   2.456   6.359   4.310  0.5943 -0.4074 -0.3587
  572MOL0     C77115   2.339   6.439   4.254  0.6743 -0.2693 -0.5513
  572MOL0     O77116   2.317   6.402   4.119  0.0673  0.2880  0.1776
  572MOL0     C77117   2.226   6.476   4.044  0.4029 -0.1507 -0.1758
  572MOL0     C77118   2.259   6.546   3.930 -0.1056  0.8437 -0.8259
  572MOL0     C77119   2.161   6.626   3.872  0.4254 -0.5079 -0.0943
  572MOL0     C77120   2.029   6.637   3.922 -0.1446  0.5075 -0.5000
  572MOL0     O77121   1.938   6.717   3.863  0.2501  0.3093  0.5494
  572MOL0     C77122   1.989   6.842   3.795 -0.2799  0.3869 -0.0767
  572MOL0     C77123   1.873   6.928   3.745 -0.3581  0.2052 -0.2847
  572MOL0     C77124   1.816   6.881   3.610  0.2821 -0.7472 -0.3175
  572MOL0     C77125   1.773   6.738   3.606  1.2761  0.0110 -0.9163
  572MOL0     C77126   1.716   6.697   3.466 -0.7750  0.6383 -0.7860
  572MOL0     C77127   1.574   6.746   3.448 -0.1155  0.2026  0.8428
  572MOL0     C77128   1.513   6.703   3.310  0.9583  1.3748  0.0689
  572MOL0     C77129   1.565   6.786   3.188  0.2719  0.0724  0.4481
  572MOL0    Cl77130   1.559   6.958   3.210  0.1384 -0.4794  0.0714
  572MOL0     C77131   1.991   6.550   4.027  0.4072  0.2409 -0.0645
  572MOL0     C77132   2.092   6.474   4.086  0.2756 -0.7610  0.4412
  572MOL0     O77133   2.274   6.518   4.325 -0.1913 -0.0317  0.5281
  572MOL0     C77134   2.547   6.309   4.220  0.1933 -0.5875  0.5933
  572MOL0     C77135   2.658   6.227   4.252 -1.3873  0.1889 -0.8371
  572MOL0     N77136   3.267   6.106   3.888  0.1756 -0.2672 -0.9585
  572MOL0     N77137   3.340   6.034   3.811 -0.3639  0.3109  0.0503
  572MOL0     C77138   4.508   6.071   3.443 -0.0948 -0.4912  0.8151
  572MOL0     C77139   4.646   6.044   3.431  0.8366 -0.4211 -0.1483
  572MOL0     C77140   5.035   5.794   3.423 -0.6227 -0.3496  0.2309
  572MOL0     C77141   5.115   5.681   3.466  0.4874 -0.3618  0.5927
  572MOL0     C77142   5.245   5.681   3.413  0.3286  0.7391  0.2727
  572MOL0     C77143   5.299   5.782   3.331 -0.5334  0.1644  0.4008
  572MOL0     O77144   5.426   5.795   3.277  0.3249  0.5281  0.3980
  572MOL0     C77145   5.514   5.677   3.294  0.6211 -0.3937 -0.5942
  572MOL0     C77146   5.593   5.688   3.425 -0.0131  0.5615 -0.4648
  572MOL0     C77147   5.701   5.803   3.435  0.0043  0.3478 -0.0178
  572MOL0     C77148   5.783   5.807   3.308 -0.6895 -1.2145 -0.2025
  572MOL0     C77149   5.904   5.888   3.325  0.1459 -0.2007  0.0704
  572MOL0     C77150   5.994   5.965   3.355 -0.0096  0.5786  0.8385
  572MOL0     C77151   5.221   5.886   3.288  0.0205 -0.3377  1.5085
  572MOL0     C77152   5.092   5.896   3.342  0.4707 -0.0461  0.1011
  572MOL0     H77153   4.626   5.703   3.437 -0.9143 -0.2703  1.8343
  572MOL0     H77154   4.395   5.742   3.473 -0.0267 -0.0780  0.0557
  572MOL0     H77155   4.170   5.858   3.390  0.5205  0.5783 -0.2080
  572MOL0     H77156   4.226   5.836   3.566 -0.2253  0.4026 -0.4844
  572MOL0     H77157   4.075   6.008   3.633  0.8343  0.0604 -1.1936
  572MOL0     H77158   4.005   6.003   3.467  1.2885  2.2628  0.9078
  572MOL0     H77159   3.954   5.767   3.500 -1.5555  1.0519 -1.1730
  572MOL0     H77160   4.012   5.779   3.672 -0.8447  0.9710  0.7605
  572MOL0     H77161   3.784   5.958   3.562  1.4405  1.9353  0.7724
  572MOL0     H77162   3.757   5.799   3.633  0.1536 -0.0081 -2.7415
  572MOL0     H77163   3.892   5.893   3.843 -0.6249 -0.2456  0.4625
  572MOL0     H77164   3.873   6.054   3.756  1.8319 -0.8002 -0.6236
  572MOL0     H77165   3.700   6.038   3.912  2.1624 -1.6185  1.7845
  572MOL0     H77166   3.626   6.019   3.758  2.3289  0.3541 -2.1073
  572MOL0     H77167   3.682   5.751   3.814 -0.0814  1.4294 -0.8749
  572MOL0     H77168   3.656   5.816   3.982 -1.8250 -0.9260  0.6404
  572MOL0     H77169   3.453   5.733   3.851 -1.8729 -0.3941 -2.4819
  572MOL0     H77170   3.493   5.841   3.726 -0.1968  3.0457 -0.3658
  572MOL0     H77171   3.392   5.898   4.107  1.3047 -0.4168 -0.5579
  572MOL0     H77172   3.235   6.129   4.216 -0.2046 -1.3974  0.8002
  572MOL0     H77173   3.134   6.210   4.093 -1.0481 -1.0052 -1.8906
  572MOL0     H77174   3.121   5.941   4.211  1.0808  0.2198 -1.6045
  572MOL0     H77175   3.001   5.989   4.087  1.3039  0.7505 -1.2687
  572MOL0     H77176   2.946   6.192   4.252  4.1028  0.1864 -0.4157
  572MOL0     H77177   3.035   6.106   4.365 -0.3869 -0.6067  1.3489
  572MOL0     H77178   2.853   5.916   4.355 -0.6684 -1.3252 -1.8076
  572MOL0     H77179   2.771   6.003   4.233  0.7409  0.1409 -0.0363
  572MOL0     H77180   2.631   6.240   4.585 -0.1312 -1.2589  1.5339
  572MOL0     H77181   2.415   6.503   4.568 -1.5975  1.6568  1.5768
  572MOL0     H77182   2.305   6.366   4.557  0.2200 -0.3567  0.9047
  572MOL0     H77183   2.458   6.359   4.656  1.5139  1.0499 -1.2859
  572MOL0     H77184   2.362   6.546   3.895 -0.0689  1.7393 -0.7208
  572MOL0     H77185   2.207   6.681   3.790 -0.6296  2.4031  1.1386
  572MOL0     H77186   2.056   6.891   3.866  0.5610 -3.1011  1.7299
  572MOL0     H77187   2.054   6.809   3.714  1.3857 -1.4408  1.8925
  572MOL0     H77188   1.789   6.917   3.815  1.4121  0.1188  1.9042
  572MOL0     H77189   1.911   7.030   3.753 -0.0692 -0.0728  2.9280
  572MOL0     H77190   1.889   6.894   3.530 -0.1047 -1.0525 -0.7241
  572MOL0     H77191   1.734   6.951   3.588 -0.7576 -1.0853  2.1347
  572MOL0     H77192   1.857   6.670   3.619  0.4939 -0.6080  1.1798
  572MOL0     H77193   1.694   6.726   3.680  1.6379  0.2889 -0.4789
  572MOL0     H77194   1.730   6.589   3.457  2.2210  0.7831  0.6931
  572MOL0     H77195   1.774   6.741   3.384 -2.4215 -0.8582 -2.8690
  572MOL0     H77196   1.512   6.718   3.534  1.6993  0.4239  2.2847
  572MOL0     H77197   1.556   6.854   3.458 -2.9542 -0.0628 -0.3344
  572MOL0     H77198   1.407   6.728   3.318  1.4387  2.9224  2.8315
  572MOL0     H77199   1.532   6.598   3.287  3.5889  2.0348 -1.1985
  572MOL0     H77200   1.513   6.749   3.099  1.1249 -0.2694  0.0755
  572MOL0     H77201   1.673   6.770   3.179  0.4805  1.9397 -0.8124
  572MOL0     H77202   1.898   6.560   4.083  1.4285  1.5580  1.5151
  572MOL0     H77203   2.074   6.430   4.184  0.8310  2.1553  1.9750
  572MOL0     H77204   2.548   6.333   4.114  2.9572  0.9264  0.8739
  572MOL0     H77205   2.725   6.198   4.172 -2.4293  0.7477 -1.9472
  572MOL0     H77206   4.469   6.172   3.437  0.8709 -0.0013  2.2503
  572MOL0     H77207   4.713   6.128   3.419  0.6722 -0.1875  0.5129
  572MOL0     H77208   5.074   5.604   3.531  1.5014 -0.9062  0.5941
  572MOL0     H77209   5.311   5.599   3.440  1.7320  1.1557 -1.6947
  572MOL0     H77210   5.453   5.586   3.294  1.7850 -1.1939 -1.3046
  572MOL0     H77211   5.593   5.671   3.218  0.5090 -1.6803 -0.6260
  572MOL0     H77212   5.632   5.587   3.439 -0.6896  0.6850  3.3544
  572MOL0     H77213   5.527   5.700   3.511  0.6307  0.6495  0.0204
  572MOL0     H77214   5.770   5.793   3.520  0.6405 -1.1906 -0.6675
  572MOL0     H77215   5.652   5.900   3.439  0.6739  0.6654  2.1500
  572MOL0     H77216   5.722   5.854   3.230  1.4986  0.6590 -0.9338
  572MOL0     H77217   5.804   5.704   3.280 -0.6899 -1.0038 -1.0092
  572MOL0     H77218   6.062   6.046   3.375 -0.8332  1.0601  1.7657
  572MOL0     H77219   5.274   5.959   3.226 -1.1076 -0.9138 -0.2234
  572MOL0     H77220   5.029   5.983   3.325  1.6798  0.4834 -2.0235
  573MOL0     O77221   4.455   2.626   7.758  0.5004 -0.3853 -0.2096
  573MOL0     C77222   4.500   2.575   7.654 -0.4080 -0.4847 -0.2112
  573MOL0     O77223   4.455   2.466   7.583  0.5591 -0.2892  0.9678
  573MOL0     C77224   4.329   2.418   7.611 -0.7045  0.3570  0.3039
  573MOL0     C77225   4.223   2.504   7.599 -0.6993  0.2167  0.3476
  573MOL0     C77226   4.088   2.460   7.610  0.2064 -0.0412 -0.3977
  573MOL0     C77227   4.063   2.330   7.637  0.2963  1.0886  0.3522
  573MOL0     O77228   3.935   2.280   7.645 -0.4968 -0.6794  0.4045
  573MOL0     C77229   3.882   2.315   7.777  0.9716  0.5724 -0.1294
  573MOL0     C77230   3.756   2.227   7.790  0.3122 -0.9245  0.8720
  573MOL0     C77231   3.645   2.278   7.695 -0.1829  1.0300 -0.5190
  573MOL0     C77232   3.524   2.187   7.717  0.5439  0.0569 -0.0360
  573MOL0     C77233   3.404   2.199   7.626  0.0548  1.1670  0.1318
  573MOL0     C77234   3.340   2.335   7.637  1.4418  0.2230 -0.3057
  573MOL0     C77235   3.191   2.331   7.601 -0.2517 -0.4633 -0.5170
  573MOL0     C77236   3.150   2.261   7.471  0.0031  0.4102 -0.2719
  573MOL0     N77237   3.003   2.237   7.460 -0.1300  0.4483  0.5788
  573MOL0     C77238   2.899   2.330   7.455  0.7979  0.0885 -0.4924
  573MOL0     C77239   2.792   2.266   7.400  0.2112  0.2874  0.4640
  573MOL0     C77240   2.656   2.330   7.378 -0.0908  0.0782 -0.5422
  573MOL0     C77241   2.586   2.299   7.238  0.4518 -0.7297  0.4704
  573MOL0     C77242   2.491   2.419   7.201 -0.0682 -0.1929 -1.0199
  573MOL0     C77243   2.347   2.379   7.240 -0.2554  0.0472  0.7841
  573MOL0     O77244   2.271   2.492   7.196 -0.4224  0.2421 -0.0373
  573MOL0     C77245   2.130   2.471   7.194 -1.0654  0.2277  0.6958
  573MOL0     C77246   2.050   2.527   7.095  0.0910  0.4547 -0.5193
  573MOL0     C77247   1.916   2.499   7.096  0.3028  0.3727 -0.0577
  573MOL0     C77248   1.835   2.565   6.983 -0.9535  0.2553  0.0362
  573MOL0     C77249   1.854   2.424   7.208 -0.0044  0.3943  0.7281
  573MOL0     C77250   1.713   2.381   7.195 -0.3763 -0.0124 -0.5265
  573MOL0     O77251   1.639   2.383   7.079 -0.2126  0.6040  0.2832
  573MOL0     C77252   1.507   2.332   7.079  0.3335 -0.2156  0.8474
  573MOL0     C77253   1.403   2.403   7.005 -0.2269 -0.1192 -0.3690
  573MOL0     C77254   1.269   2.354   6.997 -0.5664  0.0932  0.1383
  573MOL0     C77255   1.232   2.233   7.048  1.3312 -0.2694 -0.4914
  573MOL0     O77256   1.103   2.187   7.017  0.5717  0.5360  0.8217
  573MOL0     C77257   1.065   2.049   7.039  0.3163 -0.4299 -0.4924
  573MOL0     C77258   0.910   2.029   7.025 -0.1559  1.1420 -0.3095
  573MOL0     C77259   0.836   2.116   7.146 -0.6389  0.4282  0.5122
  573MOL0     C77260   0.685   2.084   7.169 -0.6823  0.2240  0.5665
  573MOL0     C77261   0.600   2.125   7.052  0.6050  0.6198 -0.0891
  573MOL0     C77262   0.454   2.078   7.076 -0.1420 -0.6760  0.3093
  573MOL0     C77263   0.351   2.125   6.975 -0.3190  0.4468 -0.0368
  573MOL0     C77264   0.220   2.045   6.995  0.5320 -0.0193  0.2773
  573MOL0    Cl77265   0.105   2.068   6.863  0.0204 -0.1739 -0.3223
  573MOL0     C77266   1.330   2.161   7.114  0.5119 -0.4644 -0.2840
  573MOL0     C77267   1.465   2.202   7.127  0.4313 -0.1720 -0.5120
  573MOL0     O77268   1.669   2.353   7.303 -0.2102  0.5635 -0.0337
  573MOL0     C77269   1.938   2.372   7.307  0.1087  0.0957 -0.2141
  573MOL0     C77270   2.075   2.399   7.294 -0.2473 -0.1953 -0.1372
  573MOL0     N77271   2.836   2.140   7.371  0.0261  0.4756 -0.7824
  573MOL0     N77272   2.954   2.128   7.413  0.2416  0.2612 -0.1513
  573MOL0     C77273   4.173   2.234   7.626  0.5709 -0.3206 -0.9126
  573MOL0     C77274   4.305   2.283   7.612  0.3664 -0.0826  0.4242
  573MOL0     C77275   4.622   2.639   7.608 -0.4169 -0.9428  0.0637
  573MOL0     C77276   4.688   2.755   7.673 -0.0455 -0.1405 -0.0461
  573MOL0     C77277   4.807   2.810   7.631 -0.5792  0.2048 -0.5835
  573MOL0     C77278   4.883   2.742   7.536  1.0580 -0.7067 -0.6961
  573MOL0     O77279   4.998   2.805   7.504  0.8138 -0.0021  0.0089
  573MOL0     C77280   5.062   2.768   7.379 -0.2799  0.3893 -0.0106
  573MOL0     C77281   5.159   2.875   7.324 -0.9815  1.2089 -0.5477
  573MOL0     C77282   5.266   2.925   7.420 -0.0366 -0.4728 -0.4444
  573MOL0     C77283   5.309   3.070   7.397 -0.6510  0.2780  0.1193
  573MOL0     C77284   5.387   3.131   7.501  1.0316  0.3242  0.3082
  573MOL0     C77285   5.453   3.178   7.592 -1.1668  0.5259 -0.4435
  573MOL0     C77286   4.824   2.628   7.478  0.7192  0.3883  0.0267
  573MOL0     C77287   4.704   2.579   7.511 -0.5886  0.7580 -0.6791
  573MOL0     H77288   4.238   2.608   7.575  0.7256 -0.5234 -2.4230
  573MOL0     H77289   4.004   2.528   7.601  1.9564  2.1496 -1.2817
  573MOL0     H77290   3.953   2.274   7.849 -0.4120 -0.6860  0.5660
  573MOL0     H77291   3.874   2.422   7.801  1.6662  0.9487 -1.4647
  573MOL0     H77292   3.783   2.124   7.765 -1.0948 -0.8258 -1.3417
  573MOL0     H77293   3.718   2.238   7.892 -0.5823 -1.4905  0.6126
  573MOL0     H77294   3.625   2.381   7.725 -1.0226  1.0186 -1.0025
  573MOL0     H77295   3.692   2.277   7.596  1.0562  2.1331  0.0366
  573MOL0     H77296   3.554   2.082   7.725 -2.1872 -0.6526  3.5846
  573MOL0     H77297   3.487   2.202   7.819 -0.2589  2.4229 -0.6143
  573MOL0     H77298   3.438   2.185   7.522  1.9362 -1.6651  0.9788
  573MOL0     H77299   3.332   2.119   7.649  0.6959  0.4052 -0.4297
  573MOL0     H77300   3.358   2.377   7.736  1.3623 -0.0636 -0.1684
  573MOL0     H77301   3.393   2.399   7.566  1.9990  0.0470 -0.0525
  573MOL0     H77302   3.139   2.302   7.692  0.9577  0.6026  0.5572
  573MOL0     H77303   3.156   2.434   7.600  1.9301  0.4061  1.9228
  573MOL0     H77304   3.201   2.165   7.472 -0.6280 -0.0017  3.0222
  573MOL0     H77305   3.174   2.321   7.383  0.7687 -0.9229 -1.0076
  573MOL0     H77306   2.904   2.428   7.501 -0.0069 -0.3604  0.5986
  573MOL0     H77307   2.598   2.294   7.463  1.6144  0.4274  0.8016
  573MOL0     H77308   2.670   2.438   7.389 -1.8731  0.3152 -0.2524
  573MOL0     H77309   2.527   2.208   7.253  0.3083 -1.0446 -1.6175
  573MOL0     H77310   2.654   2.272   7.157  1.4075  3.4879 -0.3390
  573MOL0     H77311   2.500   2.438   7.094 -0.0738 -0.9469 -1.1611
  573MOL0     H77312   2.518   2.508   7.257 -0.0944 -1.2582  0.7679
  573MOL0     H77313   2.349   2.350   7.346 -0.8568 -0.2601  0.7159
  573MOL0     H77314   2.319   2.293   7.179 -1.0107 -0.4464  1.7917
  573MOL0     H77315   2.094   2.583   7.013 -0.9465  0.4764 -1.0796
  573MOL0     H77316   1.896   2.625   6.916 -0.8883 -1.6952 -1.7732
  573MOL0     H77317   1.793   2.484   6.923 -0.9718  0.5012 -0.2835
  573MOL0     H77318   1.753   2.619   7.031  1.3739  0.2904  4.4699
  573MOL0     H77319   1.431   2.505   6.981 -0.5381 -0.0583 -0.4803
  573MOL0     H77320   1.189   2.415   6.956  1.1070  1.3516 -1.3627
  573MOL0     H77321   1.122   1.991   6.966 -0.5247 -0.8762 -0.8063
  573MOL0     H77322   1.086   2.018   7.142 -1.5523 -0.9331 -0.2279
  573MOL0     H77323   0.879   2.073   6.929 -0.8076  0.2377 -0.5192
  573MOL0     H77324   0.885   1.923   7.027  1.8008  0.6061 -1.8142
  573MOL0     H77325   0.851   2.222   7.123 -3.0697  1.1397  1.9395
  573MOL0     H77326   0.894   2.099   7.237  1.1770 -2.9037 -1.0694
  573MOL0     H77327   0.676   1.977   7.185  1.2875 -0.0627  0.0088
  573MOL0     H77328   0.649   2.140   7.257 -1.5167  1.2825 -0.4141
  573MOL0     H77329   0.641   2.074   6.965  0.3257  0.0637  0.1033
  573MOL0     H77330   0.603   2.234   7.043 -1.2740  0.5877 -1.6952
  573MOL0     H77331   0.458   1.969   7.088  0.8735 -0.8556 -1.4085
  573MOL0     H77332   0.428   2.127   7.171  2.1882  1.0854  0.1198
  573MOL0     H77333   0.380   2.095   6.874  1.2027 -0.4384  0.6246
  573MOL0     H77334   0.344   2.234   6.976 -0.4776  0.4806 -1.8136
  573MOL0     H77335   0.166   2.062   7.088 -0.6094  0.4665 -0.4575
  573MOL0     H77336   0.252   1.943   6.972  1.3702  0.8153 -2.7729
  573MOL0     H77337   1.314   2.060   7.150  1.4027 -0.3978  0.3454
  573MOL0     H77338   1.536   2.136   7.175 -0.9288 -1.5460 -0.3303
  573MOL0     H77339   1.901   2.297   7.376 -2.0965  2.6982  1.6644
  573MOL0     H77340   2.140   2.346   7.364  0.0047  1.6293  1.0680
  573MOL0     H77341   4.163   2.126   7.625 -0.2758 -0.2534 -0.3733
  573MOL0     H77342   4.387   2.212   7.613 -0.9230 -1.6497 -0.0272
  573MOL0     H77343   4.637   2.800   7.757 -0.5987  0.8966 -0.9170
  573MOL0     H77344   4.842   2.896   7.688 -0.7679  0.7210 -1.2337
  573MOL0     H77345   5.110   2.670   7.385 -0.8627  0.0844 -0.2951
  573MOL0     H77346   4.983   2.764   7.304 -0.4435 -2.5309  0.1931
  573MOL0     H77347   5.096   2.961   7.298 -1.1230  0.7180 -1.9375
  573MOL0     H77348   5.197   2.830   7.232  0.5367  2.2094 -0.4405
  573MOL0     H77349   5.351   2.858   7.407  0.1181 -0.3830  0.0570
  573MOL0     H77350   5.233   2.922   7.525  0.6709 -1.5751 -0.2382
  573MOL0     H77351   5.217   3.125   7.372 -0.9417 -0.1280  0.2898
  573MOL0     H77352   5.377   3.065   7.312  0.5864  0.2146  1.0943
  573MOL0     H77353   5.518   3.221   7.665  0.4602  0.5483 -1.8333
  573MOL0     H77354   4.875   2.579   7.395 -0.7883 -0.2159 -0.5818
  573MOL0     H77355   4.676   2.487   7.460  2.7448 -0.9451  0.2975
  574MOL0     O77356   6.285   8.811   3.537  0.0415 -0.4802 -0.0380
  574MOL0     C77357   6.303   8.866   3.429  0.6606 -0.5001 -0.1955
  574MOL0     O77358   6.224   8.852   3.315  0.2186 -0.3195 -0.4453
  574MOL0     C77359   6.110   8.776   3.324  0.4812  0.7097 -0.2816
  574MOL0     C77360   5.998   8.807   3.408  0.2557 -0.3035 -0.4920
  574MOL0     C77361   5.891   8.709   3.431 -0.0705  0.1987  0.4489
  574MOL0     C77362   5.880   8.599   3.351  0.7119  0.2099 -0.0187
  574MOL0     O77363   5.777   8.501   3.358 -0.3053  0.1425  0.0415
  574MOL0     C77364   5.648   8.555   3.336 -0.0146  0.2664 -0.6564
  574MOL0     C77365   5.606   8.546   3.186 -0.6913  0.9564  0.4756
  574MOL0     C77366   5.460   8.601   3.151 -0.0813  0.4697  0.0156
  574MOL0     C77367   5.354   8.539   3.242  0.5615  0.3723  0.3895
  574MOL0     C77368   5.220   8.550   3.172  0.4152 -1.4917 -0.4239
  574MOL0     C77369   5.108   8.521   3.266  0.7340 -0.5866 -0.6870
  574MOL0     C77370   4.969   8.560   3.208  0.8131 -0.1895  0.7797
  574MOL0     C77371   4.866   8.602   3.305  0.4946  0.2579 -1.1584
  574MOL0     N77372   4.730   8.578   3.267 -0.6647  0.2282  0.6128
  574MOL0     C77373   4.657   8.623   3.155 -0.1431  0.8026  0.3135
  574MOL0     C77374   4.534   8.562   3.161  0.0514  0.0873  0.3497
  574MOL0     C77375   4.418   8.584   3.069  0.4514  0.1720  0.7802
  574MOL0     C77376   4.314   8.675   3.132 -0.3679  0.5707  0.3559
  574MOL0     C77377   4.256   8.615   3.263  0.2297 -0.0694 -0.7120
  574MOL0     C77378   4.135   8.688   3.325 -0.6092 -0.1337  0.0969
  574MOL0     O77379   4.010   8.667   3.247  0.1885 -0.2940  0.0046
  574MOL0     C77380   3.915   8.579   3.296 -0.0681  0.4549 -0.0926
  574MOL0     C77381   3.949   8.486   3.396  0.7472 -0.4261  0.0146
  574MOL0     C77382   3.850   8.391   3.434 -0.4620 -0.5174  0.6937
  574MOL0     C77383   3.901   8.288   3.532  0.9128  0.1559  0.2773
  574MOL0     C77384   3.715   8.391   3.378  0.2131 -0.0349  0.0699
  574MOL0     C77385   3.610   8.286   3.403  0.3974  0.3216  0.3060
  574MOL0     O77386   3.660   8.165   3.441 -0.0615  0.4676 -0.1653
  574MOL0     C77387   3.566   8.064   3.443 -0.1771 -0.1763  0.4626
  574MOL0     C77388   3.484   8.037   3.555 -0.5840  0.8220  0.8808
  574MOL0     C77389   3.387   7.937   3.556 -0.1110 -0.8602 -0.8369
  574MOL0     C77390   3.367   7.866   3.439 -1.4906 -0.2363 -0.3922
  574MOL0     O77391   3.268   7.769   3.458  1.0794 -0.4319  0.0532
  574MOL0     C77392   3.201   7.714   3.345  0.0335  0.6392 -0.4210
  574MOL0     C77393   3.083   7.623   3.375  0.5578 -0.6763 -0.3067
  574MOL0     C77394   2.972   7.685   3.466  0.0042  0.0598 -0.1352
  574MOL0     C77395   2.855   7.593   3.466  0.4485 -0.1259 -0.2250
  574MOL0     C77396   2.749   7.638   3.561  0.0006  0.0649 -0.7334
  574MOL0     C77397   2.617   7.561   3.545 -0.2120 -0.3163 -0.7729
  574MOL0     C77398   2.539   7.614   3.424 -0.3498  0.4616  0.0857
  574MOL0     C77399   2.393   7.565   3.444 -0.7044  0.4538 -0.6711
  574MOL0    Cl77400   2.305   7.656   3.572 -0.0866  0.3722  0.1628
  574MOL0     C77401   3.434   7.895   3.318 -0.9625  0.8683  0.1531
  574MOL0     C77402   3.535   7.999   3.325 -0.4743  0.5710  0.2167
  574MOL0     O77403   3.493   8.317   3.389 -0.2518  0.2931  0.3281
  574MOL0     C77404   3.693   8.487   3.277  0.3833 -0.7458 -0.5641
  574MOL0     C77405   3.791   8.582   3.242  0.1508  0.6181  0.7485
  574MOL0     N77406   4.539   8.490   3.279  0.6815 -0.2531 -0.0685
  574MOL0     N77407   4.651   8.484   3.330 -0.6024 -0.0014  0.3626
  574MOL0     C77408   5.983   8.577   3.257 -0.1836  0.0297 -0.5465
  574MOL0     C77409   6.099   8.658   3.250 -0.4183 -0.1207 -0.3437
  574MOL0     C77410   6.420   8.960   3.414  0.2799  0.6262  0.2421
  574MOL0     C77411   6.458   9.007   3.291 -0.2086  0.6038  0.4110
  574MOL0     C77412   6.579   9.062   3.270 -0.7880  0.1623 -0.2133
  574MOL0     C77413   6.655   9.100   3.380 -0.4703 -0.1957  0.7258
  574MOL0     O77414   6.775   9.160   3.342 -0.1336  0.5268 -0.0805
  574MOL0     C77415   6.886   9.143   3.436 -0.4400 -0.0014  0.3497
  574MOL0     C77416   7.003   9.058   3.376  0.3913 -0.0284 -0.2204
  574MOL0     C77417   7.136   9.108   3.428  0.6958 -0.5407  0.5854
  574MOL0     C77418   7.237   9.040   3.330  0.5516  0.6054  0.5733
  574MOL0     C77419   7.370   9.057   3.386  0.1560 -1.3347  0.3876
  574MOL0     C77420   7.483   9.069   3.428  0.2777  0.2275  0.4319
  574MOL0     C77421   6.607   9.082   3.507 -0.2848  0.2363  0.3515
  574MOL0     C77422   6.493   9.002   3.523 -0.1075 -0.3577  1.0238
  574MOL0     H77423   6.001   8.893   3.473 -0.4614 -0.8076  0.2263
  574MOL0     H77424   5.825   8.727   3.515  1.4440 -1.2746  2.0332
  574MOL0     H77425   5.580   8.494   3.396 -0.6301  1.2300 -0.3552
  574MOL0     H77426   5.641   8.659   3.371  1.5520  0.4892 -0.9144
  574MOL0     H77427   5.681   8.601   3.129  1.2635 -3.7479 -2.1072
  574MOL0     H77428   5.608   8.442   3.151 -1.2784 -0.2338  3.6489
  574MOL0     H77429   5.464   8.711   3.151  0.5144  0.4796  2.0217
  574MOL0     H77430   5.434   8.568   3.050 -0.5977  3.6349 -1.0207
  574MOL0     H77431   5.381   8.435   3.264  2.5499  0.7468 -0.0817
  574MOL0     H77432   5.342   8.586   3.340  1.2232  0.0795  0.6203
  574MOL0     H77433   5.198   8.650   3.134 -3.8996 -2.2328 -0.3188
  574MOL0     H77434   5.216   8.487   3.083  2.5927 -1.8989 -0.2934
  574MOL0     H77435   5.094   8.417   3.298 -0.3167 -0.3527 -0.3034
  574MOL0     H77436   5.113   8.585   3.355  2.7376 -0.3516 -0.9353
  574MOL0     H77437   4.971   8.632   3.125 -0.9112  0.2241  1.0507
  574MOL0     H77438   4.940   8.463   3.167  4.7703 -0.4229 -2.0598
  574MOL0     H77439   4.871   8.710   3.322 -0.4553 -0.0611  1.7382
  574MOL0     H77440   4.894   8.551   3.397 -2.4643 -0.3404 -0.5035
  574MOL0     H77441   4.690   8.689   3.075  0.8789 -0.7260 -0.5890
  574MOL0     H77442   4.438   8.632   2.972  0.1859 -1.8398 -0.3241
  574MOL0     H77443   4.377   8.487   3.039  0.9446  0.1483  0.1371
  574MOL0     H77444   4.232   8.695   3.062 -0.9431 -0.4156  0.7294
  574MOL0     H77445   4.373   8.765   3.151  2.3979 -1.3677  1.6664
  574MOL0     H77446   4.325   8.612   3.347  0.1883 -1.6529 -0.7136
  574MOL0     H77447   4.221   8.513   3.244  3.6443 -1.6860  0.9206
  574MOL0     H77448   4.175   8.789   3.308  2.0113 -1.5123 -2.9808
  574MOL0     H77449   4.132   8.666   3.432  0.6875  0.7112  0.3293
  574MOL0     H77450   4.052   8.479   3.428  0.5159  3.2010  2.1675
  574MOL0     H77451   3.987   8.333   3.582 -0.6089 -1.7707  5.3101
  574MOL0     H77452   3.824   8.269   3.608  2.7995 -1.5033  1.8618
  574MOL0     H77453   3.930   8.191   3.491 -0.5920  0.0994 -0.7553
  574MOL0     H77454   3.500   8.080   3.653  0.5103  0.0548  1.0632
  574MOL0     H77455   3.342   7.924   3.654 -0.8885  0.6317 -0.9634
  574MOL0     H77456   3.185   7.798   3.277  1.2777  0.9466 -0.3513
  574MOL0     H77457   3.275   7.643   3.309  1.0124  0.9269  0.9587
  574MOL0     H77458   3.034   7.600   3.280 -1.1557  1.9415 -0.1725
  574MOL0     H77459   3.106   7.526   3.420 -1.8065 -1.4802 -0.6742
  574MOL0     H77460   2.947   7.785   3.430 -0.0196 -0.6079 -2.1276
  574MOL0     H77461   3.014   7.695   3.567 -1.3709 -0.5988  0.5261
  574MOL0     H77462   2.815   7.597   3.364 -0.0574 -0.2064 -0.0350
  574MOL0     H77463   2.875   7.487   3.487  0.6636  0.1967  1.3313
  574MOL0     H77464   2.734   7.746   3.549  0.2338  0.2566  0.4830
  574MOL0     H77465   2.792   7.629   3.661  1.2163  0.2544 -1.2208
  574MOL0     H77466   2.620   7.452   3.548 -0.5397 -0.3598 -1.7067
  574MOL0     H77467   2.557   7.597   3.629  1.8448  0.1634  0.5772
  574MOL0     H77468   2.585   7.573   3.334  1.1777  0.6283  0.7483
  574MOL0     H77469   2.539   7.722   3.413  2.5780  0.6445  1.0358
  574MOL0     H77470   2.385   7.456   3.451 -0.9859  0.4359 -1.1998
  574MOL0     H77471   2.339   7.579   3.350 -2.0157  1.0252  0.1376
  574MOL0     H77472   3.422   7.833   3.230 -0.1108  0.6928  0.1532
  574MOL0     H77473   3.591   8.017   3.233  0.4980  2.2645  1.0892
  574MOL0     H77474   3.608   8.474   3.211 -1.7762 -2.8367  2.3538
  574MOL0     H77475   3.786   8.643   3.152  0.8273 -0.0229  0.2697
  574MOL0     H77476   5.981   8.484   3.200 -1.1150 -0.2270 -0.1169
  574MOL0     H77477   6.188   8.652   3.189 -0.2829  1.1539 -0.2902
  574MOL0     H77478   6.403   8.993   3.199 -0.5248 -0.6668  0.7753
  574MOL0     H77479   6.617   9.081   3.170 -0.4382 -0.5382 -0.2173
  574MOL0     H77480   6.916   9.244   3.465  0.9709  0.0181 -1.1053
  574MOL0     H77481   6.858   9.079   3.521  0.3600 -0.7403  0.0669
  574MOL0     H77482   7.003   9.074   3.267 -1.9306  2.0620  0.0053
  574MOL0     H77483   6.985   8.955   3.410  0.0667  0.6124  1.6194
  574MOL0     H77484   7.163   9.078   3.530  3.3925 -0.4825 -0.0379
  574MOL0     H77485   7.134   9.218   3.426  0.9082 -0.5222  1.1750
  574MOL0     H77486   7.237   9.076   3.226  3.0695  0.0004  0.3089
  574MOL0     H77487   7.218   8.933   3.312  2.5908 -0.1549  2.5005
  574MOL0     H77488   7.580   9.060   3.472  1.3094  0.3429 -1.6931
  574MOL0     H77489   6.649   9.135   3.592  1.6182 -1.6356  0.6665
  574MOL0     H77490   6.455   8.968   3.619  2.1178 -1.8140  1.4813
  575MOL0     O77491   3.284   5.137   7.851 -0.1763  0.2208  0.5197
  575MOL0     C77492   3.285   5.014   7.867  0.4772 -0.3562 -0.1170
  575MOL0     O77493   3.179   4.942   7.905  0.6623 -0.5906  0.1329
  575MOL0     C77494   3.083   5.009   7.975  0.5866  0.2280  0.6581
  575MOL0     C77495   3.107   5.049   8.107 -0.4063 -0.2757 -0.2544
  575MOL0     C77496   3.011   5.106   8.184 -0.1943 -0.5105 -0.5093
  575MOL0     C77497   2.882   5.111   8.137  0.3713  0.5822  0.4814
  575MOL0     O77498   2.784   5.153   8.226 -0.2909 -0.1073 -0.3191
  575MOL0     C77499   2.715   5.268   8.185 -0.5335  0.8279  0.4757
  575MOL0     C77500   2.624   5.322   8.289  0.3538 -0.5678  0.6010
  575MOL0     C77501   2.500   5.240   8.308  0.0896 -0.5399 -0.5179
  575MOL0     C77502   2.401   5.289   8.422  0.3024 -0.7547  0.0579
  575MOL0     C77503   2.270   5.198   8.422 -0.1805  0.7259  0.1419
  575MOL0     C77504   2.177   5.238   8.537  0.2656 -0.0321 -0.4468
  575MOL0     C77505   2.052   5.152   8.528 -0.0719 -0.3667 -0.8686
  575MOL0     C77506   1.946   5.205   8.622  0.8161 -0.2142  0.2892
  575MOL0     N77507   1.815   5.131   8.599 -0.9568  0.2409  0.0248
  575MOL0     C77508   1.801   4.997   8.626 -0.3888  0.0155 -0.1582
  575MOL0     C77509   1.673   4.968   8.604 -0.5702  0.2895 -0.0614
  575MOL0     C77510   1.599   4.834   8.632  0.3117  0.6147 -0.1124
  575MOL0     C77511   1.554   4.773   8.502  0.6637  0.1159  0.5660
  575MOL0     C77512   1.437   4.842   8.444 -0.1912  0.3451  0.6399
  575MOL0     C77513   1.386   4.761   8.328 -0.5695  0.7544  0.1049
  575MOL0     O77514   1.274   4.830   8.269  1.1080  0.3776 -0.0872
  575MOL0     C77515   1.240   4.806   8.136  0.0794 -0.7726  0.2994
  575MOL0     C77516   1.135   4.886   8.086 -0.3711 -1.2848  0.0825
  575MOL0     C77517   1.111   4.887   7.949  0.2563  0.2990  0.4611
  575MOL0     C77518   1.017   4.996   7.894 -1.1354  0.0402 -0.2388
  575MOL0     C77519   1.151   4.776   7.867  0.3632 -0.0641  0.0368
  575MOL0     C77520   1.105   4.763   7.725 -1.3815 -0.0423 -0.5569
  575MOL0     O77521   1.191   4.779   7.626  0.3716  0.3179  0.0010
  575MOL0     C77522   1.298   4.870   7.654 -0.0499 -0.2230  0.0892
  575MOL0     C77523   1.428   4.818   7.679  0.4381 -0.1293 -0.3408
  575MOL0     C77524   1.538   4.903   7.704 -0.3782  0.1779  0.4920
  575MOL0     C77525   1.521   5.041   7.694  0.0343  0.2345  0.2098
  575MOL0     O77526   1.636   5.111   7.716  0.0755  0.2700  0.2810
  575MOL0     C77527   1.647   5.228   7.634 -0.0702 -0.2844 -0.4097
  575MOL0     C77528   1.798   5.271   7.642 -0.0906  0.1504 -0.9416
  575MOL0     C77529   1.855   5.273   7.787  0.1583  0.3529 -0.2142
  575MOL0     C77530   1.780   5.367   7.877  0.1617 -1.4882  0.0493
  575MOL0     C77531   1.814   5.520   7.875 -0.2900  0.1761 -0.5844
  575MOL0     C77532   1.735   5.602   7.964  0.2335 -0.6600  0.0467
  575MOL0     C77533   1.816   5.727   8.009  0.5281  0.3070 -0.0350
  575MOL0     C77534   1.740   5.853   8.055  0.0362  0.6182 -0.0779
  575MOL0    Cl77535   1.845   5.981   8.129 -0.3275 -0.5066  0.3910
  575MOL0     C77536   1.393   5.092   7.666  0.2958  0.0377 -0.9079
  575MOL0     C77537   1.279   5.015   7.649  0.6750  0.1217 -0.0733
  575MOL0     O77538   0.986   4.757   7.713  0.7990  0.4342 -0.0153
  575MOL0     C77539   1.240   4.683   7.923  0.5253 -0.2059  0.2852
  575MOL0     C77540   1.296   4.701   8.051 -0.3042 -0.1774  0.6160
  575MOL0     N77541   1.607   5.085   8.576  0.9287 -1.1247 -0.4628
  575MOL0     N77542   1.695   5.183   8.566  1.1529  0.0278 -0.3924
  575MOL0     C77543   2.848   5.062   8.013  0.1556 -0.4088  0.0853
  575MOL0     C77544   2.949   5.017   7.918 -0.1224 -0.0178 -0.1690
  575MOL0     C77545   3.411   4.938   7.835  1.2663 -0.3129  0.0297
  575MOL0     C77546   3.408   4.805   7.808  0.1512 -0.0130 -0.2400
  575MOL0     C77547   3.517   4.730   7.786  0.2281  0.2077 -0.2157
  575MOL0     C77548   3.649   4.792   7.784  0.2472  0.0633  1.0694
  575MOL0     O77549   3.772   4.732   7.765  0.2572  0.5813  0.5207
  575MOL0     C77550   3.778   4.595   7.714 -0.1398 -0.3632 -0.3585
  575MOL0     C77551   3.923   4.583   7.652  0.0636 -0.1815 -0.0295
  575MOL0     C77552   3.923   4.439   7.593 -0.4038  0.3848  1.0978
  575MOL0     C77553   4.066   4.369   7.579  0.1093 -0.1415 -0.1339
  575MOL0     C77554   4.139   4.430   7.467 -0.2694  0.2136  0.4047
  575MOL0     C77555   4.197   4.464   7.364  0.2721 -0.7955 -1.0221
  575MOL0     C77556   3.646   4.929   7.814  0.2395 -0.1091  1.2336
  575MOL0     C77557   3.532   4.998   7.830 -0.7053 -0.8721  1.5428
  575MOL0     H77558   3.207   5.042   8.148  0.5453  1.3895 -2.0944
  575MOL0     H77559   3.038   5.146   8.282  1.5410 -0.1195 -1.1132
  575MOL0     H77560   2.778   5.353   8.158 -0.7970 -0.0587 -3.6452
  575MOL0     H77561   2.647   5.242   8.104 -1.1861 -4.3880  2.3393
  575MOL0     H77562   2.675   5.336   8.384  1.2957  1.4952 -0.1613
  575MOL0     H77563   2.589   5.419   8.252 -0.1095 -0.7178  0.6386
  575MOL0     H77564   2.433   5.245   8.222  0.5070  1.0153 -0.7826
  575MOL0     H77565   2.535   5.137   8.314  2.4570  0.1825 -1.0413
  575MOL0     H77566   2.443   5.269   8.521  0.1914 -0.5904  0.1388
  575MOL0     H77567   2.381   5.396   8.411  0.8830 -0.7154 -0.7583
  575MOL0     H77568   2.214   5.207   8.329  0.7929 -1.8371 -0.7873
  575MOL0     H77569   2.294   5.091   8.422 -3.3310 -0.0866 -1.4664
  575MOL0     H77570   2.227   5.212   8.631  2.3426 -2.0063 -1.9703
  575MOL0     H77571   2.153   5.344   8.528  2.0225  0.5411  0.9755
  575MOL0     H77572   2.010   5.142   8.427 -1.4092 -0.8108 -0.2806
  575MOL0     H77573   2.076   5.055   8.572 -0.0694 -1.1952 -2.5800
  575MOL0     H77574   1.942   5.314   8.607  2.7632  0.1302  1.9108
  575MOL0     H77575   1.991   5.195   8.721  0.1181 -0.1735  0.6212
  575MOL0     H77576   1.876   4.926   8.660 -0.6581  0.1271  0.6889
  575MOL0     H77577   1.662   4.761   8.683 -1.1422 -0.3618  0.3534
  575MOL0     H77578   1.507   4.855   8.688 -0.2306  0.0994 -0.7975
  575MOL0     H77579   1.535   4.668   8.526 -1.6446  0.1393 -0.8637
  575MOL0     H77580   1.644   4.771   8.439  0.9372 -0.7348  0.9651
  575MOL0     H77581   1.469   4.941   8.411 -2.5756  0.3738 -1.8844
  575MOL0     H77582   1.356   4.855   8.516  0.3203 -1.7337  1.6697
  575MOL0     H77583   1.362   4.657   8.354 -0.5153 -0.0323 -2.6664
  575MOL0     H77584   1.473   4.763   8.262  0.1801 -1.5688  0.9357
  575MOL0     H77585   1.093   4.958   8.154  1.7412 -1.1802  1.3555
  575MOL0     H77586   0.919   4.951   7.878 -0.7120 -0.7516 -0.6736
  575MOL0     H77587   1.001   5.067   7.976  1.4655 -1.4734  1.7483
  575MOL0     H77588   1.044   5.046   7.801  0.3540  1.4882  0.9050
  575MOL0     H77589   1.437   4.710   7.680 -3.6040 -0.6358  1.5072
  575MOL0     H77590   1.638   4.869   7.730  0.9893  2.9399 -0.6922
  575MOL0     H77591   1.624   5.201   7.530 -3.6080 -2.0726  0.6545
  575MOL0     H77592   1.572   5.303   7.664 -0.6686 -0.9633 -0.1727
  575MOL0     H77593   1.860   5.196   7.591  0.7128 -1.1634  1.7757
  575MOL0     H77594   1.828   5.365   7.594  1.6828  0.3072  0.3564
  575MOL0     H77595   1.964   5.273   7.792  0.2655 -1.4558 -1.5166
  575MOL0     H77596   1.837   5.176   7.833  2.2989 -0.3842 -0.7999
  575MOL0     H77597   1.673   5.366   7.855  0.1483  0.4898 -0.2128
  575MOL0     H77598   1.808   5.336   7.978  3.2459  0.4626 -0.0574
  575MOL0     H77599   1.818   5.570   7.777  0.1856  2.0376  0.3308
  575MOL0     H77600   1.917   5.523   7.913 -0.2543  0.2848 -0.6851
  575MOL0     H77601   1.650   5.649   7.913  0.6833  2.0910  1.6182
  575MOL0     H77602   1.695   5.546   8.049  0.7951 -1.6710 -0.3499
  575MOL0     H77603   1.886   5.756   7.931 -1.6308  4.5372 -0.7486
  575MOL0     H77604   1.879   5.703   8.095  2.3001 -3.5190 -2.1652
  575MOL0     H77605   1.666   5.827   8.131  0.3489  1.4212  0.5233
  575MOL0     H77606   1.699   5.896   7.963 -0.0456 -0.5289 -0.5953
  575MOL0     H77607   1.375   5.198   7.680  0.1318 -0.1305  0.2213
  575MOL0     H77608   1.177   5.051   7.642 -0.6159 -2.5218  2.6590
  575MOL0     H77609   1.256   4.591   7.867  1.0818  1.5108 -2.5318
  575MOL0     H77610   1.363   4.628   8.095  0.4840 -0.7008 -1.3315
  575MOL0     H77611   2.742   5.063   7.993 -0.5436 -0.2140  3.3214
  575MOL0     H77612   2.927   4.969   7.823  0.7788  0.2882 -0.5448
  575MOL0     H77613   3.315   4.751   7.815 -0.3969  0.5743 -2.3349
  575MOL0     H77614   3.509   4.623   7.777 -4.9030  0.3909 -0.9565
  575MOL0     H77615   3.761   4.528   7.799 -0.7171  0.5225  0.2449
  575MOL0     H77616   3.709   4.577   7.631 -1.3197 -0.5966  0.6440
  575MOL0     H77617   4.002   4.600   7.727  2.0282  2.3102 -2.4685
  575MOL0     H77618   3.943   4.660   7.578 -1.3610  0.5046  0.2810
  575MOL0     H77619   3.895   4.451   7.488  0.7013 -3.9008  0.0951
  575MOL0     H77620   3.851   4.378   7.648  1.6211  0.6686  4.3874
  575MOL0     H77621   4.048   4.263   7.562 -1.5576 -0.3660  2.4591
  575MOL0     H77622   4.128   4.375   7.669 -0.6830  1.7768  0.3472
  575MOL0     H77623   4.230   4.494   7.267 -0.6286  1.5889 -0.6637
  575MOL0     H77624   3.742   4.978   7.824 -0.4058  1.7561 -1.0295
  575MOL0     H77625   3.539   5.105   7.846  3.2267  0.1498 -3.9790
  576MOL0     O77626   1.439   5.212   6.928  0.1975  0.1213  0.4161
  576MOL0     C77627   1.377   5.229   6.826 -0.2030  0.1629 -0.0154
  576MOL0     O77628   1.393   5.154   6.712 -0.4294 -0.2916  0.0300
  576MOL0     C77629   1.478   5.049   6.693  0.1028  0.1307 -0.0601
  576MOL0     C77630   1.459   4.955   6.585  0.1814 -0.1127 -0.1926
  576MOL0     C77631   1.559   4.857   6.552 -0.0980 -0.9058  0.1950
  576MOL0     C77632   1.668   4.834   6.623  0.1619  0.2017 -0.4590
  576MOL0     O77633   1.755   4.731   6.588  0.2418  0.7165  0.0641
  576MOL0     C77634   1.844   4.680   6.695  0.0523 -0.7257 -0.1591
  576MOL0     C77635   1.916   4.558   6.647  0.1197 -0.1989 -0.6137
  576MOL0     C77636   2.019   4.572   6.534 -0.5903  0.6337  0.8573
  576MOL0     C77637   2.145   4.471   6.544  0.2698 -0.0513 -0.2377
  576MOL0     C77638   2.242   4.499   6.423 -0.2721 -0.1023  0.1805
  576MOL0     C77639   2.364   4.407   6.431  0.0268  0.3544 -0.1042
  576MOL0     C77640   2.449   4.423   6.305 -0.8055  0.7774  0.3671
  576MOL0     C77641   2.575   4.333   6.314 -0.0526 -0.2553  0.3882
  576MOL0     N77642   2.545   4.189   6.299  0.2662 -0.6729 -0.9178
  576MOL0     C77643   2.560   4.117   6.179 -0.1897  0.1298 -0.3034
  576MOL0     C77644   2.504   3.993   6.210  0.1592  0.7241 -0.0950
  576MOL0     C77645   2.494   3.876   6.122  0.1379  0.6459 -0.1611
  576MOL0     C77646   2.373   3.868   6.035  0.4354  0.1425 -0.9749
  576MOL0     C77647   2.243   3.831   6.106 -0.3120 -0.7801  0.3394
  576MOL0     C77648   2.134   3.805   6.013  0.1477  0.0174  0.5288
  576MOL0     O77649   2.084   3.932   5.976  0.1476  0.4563 -0.3307
  576MOL0     C77650   1.947   3.936   5.979  0.2672 -0.2592 -0.2864
  576MOL0     C77651   1.878   3.918   6.101  0.2789 -0.1255 -0.3240
  576MOL0     C77652   1.737   3.925   6.110  0.0571  0.3190 -0.6031
  576MOL0     C77653   1.677   3.904   6.250  0.1347 -0.0049  0.6502
  576MOL0     C77654   1.658   3.935   5.990  0.8340 -0.2238  0.5373
  576MOL0     C77655   1.509   3.934   5.987  0.6304 -0.0923  0.2643
  576MOL0     O77656   1.451   3.865   5.883 -0.6231  0.1267 -0.0225
  576MOL0     C77657   1.310   3.872   5.858 -0.4409 -0.4410  0.1508
  576MOL0     C77658   1.220   3.876   5.962  0.3189  0.3439 -0.6368
  576MOL0     C77659   1.085   3.870   5.930 -0.8219  0.3778  0.3385
  576MOL0     C77660   1.040   3.876   5.797  0.3319  0.3704 -0.9127
  576MOL0     O77661   0.898   3.881   5.786  0.6682 -0.4079 -1.1791
  576MOL0     C77662   0.841   3.870   5.661  0.7543 -0.5167 -0.1353
  576MOL0     C77663   0.710   3.780   5.656  0.4752  0.2403  0.2942
  576MOL0     C77664   0.635   3.779   5.523  0.3809 -0.4878 -0.5447
  576MOL0     C77665   0.512   3.693   5.533 -0.0919  0.1511 -0.2641
  576MOL0     C77666   0.423   3.720   5.407  0.0669 -0.2513  0.4121
  576MOL0     C77667   0.321   3.615   5.408  0.4585 -0.1027  0.5470
  576MOL0     C77668   0.192   3.643   5.319 -1.1291 -0.3899  0.1417
  576MOL0     C77669   0.102   3.518   5.310  0.4853 -0.5214 -0.4884
  576MOL0    Cl77670  -0.061   3.577   5.251 -0.1149 -0.0780 -0.1071
  576MOL0     C77671   1.135   3.895   5.696 -0.4700  0.0304  0.0073
  576MOL0     C77672   1.269   3.897   5.728  0.2761  0.8487  0.5718
  576MOL0     O77673   1.439   3.996   6.072  0.2956 -0.2039  0.2284
  576MOL0     C77674   1.730   3.946   5.870 -0.3075  0.5290  0.3728
  576MOL0     C77675   1.870   3.945   5.864 -0.4467 -0.9874  0.5282
  576MOL0     N77676   2.474   3.995   6.348 -0.5150 -0.2207 -0.1484
  576MOL0     N77677   2.521   4.104   6.401  0.3450 -0.0771 -0.3215
  576MOL0     C77678   1.685   4.914   6.739 -0.1556  0.2163  0.4837
  576MOL0     C77679   1.590   5.015   6.773  0.5215  0.1397  0.0387
  576MOL0     C77680   1.280   5.329   6.817  0.1561  0.0991  0.5932
  576MOL0     C77681   1.205   5.340   6.700  0.1009  0.0946 -0.4282
  576MOL0     C77682   1.113   5.441   6.680 -0.6350  0.0532 -0.4296
  576MOL0     C77683   1.089   5.543   6.771 -0.6920  0.1379 -0.4306
  576MOL0     O77684   1.008   5.650   6.765 -0.2869 -0.8199  0.5245
  576MOL0     C77685   0.923   5.641   6.653  0.0595  0.0350 -0.1645
  576MOL0     C77686   0.852   5.768   6.637 -0.2670  0.4060 -1.1975
  576MOL0     C77687   0.743   5.765   6.535 -0.7403  0.0648 -0.1907
  576MOL0     C77688   0.682   5.899   6.512  0.6854  0.2587  0.3383
  576MOL0     C77689   0.589   5.895   6.402  0.0887 -0.1853  0.2745
  576MOL0     C77690   0.506   5.889   6.312 -0.6308  0.2148  0.2756
  576MOL0     C77691   1.168   5.536   6.884  0.2549  0.2451 -0.9675
  576MOL0     C77692   1.260   5.428   6.914  0.3512 -0.4882  0.6478
  576MOL0     H77693   1.372   4.973   6.522  0.3557 -0.5824 -0.5721
  576MOL0     H77694   1.545   4.807   6.457  0.7103 -0.7264 -0.0318
  576MOL0     H77695   1.920   4.755   6.721 -0.1555  0.0911 -1.8053
  576MOL0     H77696   1.785   4.648   6.782 -0.1518 -1.1143 -0.4380
  576MOL0     H77697   1.961   4.508   6.733  2.7386  2.5296 -0.2586
  576MOL0     H77698   1.842   4.488   6.607 -0.5581 -0.0569  0.3599
  576MOL0     H77699   1.973   4.543   6.439  1.3008  1.0099 -0.2338
  576MOL0     H77700   2.071   4.668   6.529  2.7626 -1.0889 -2.3991
  576MOL0     H77701   2.192   4.474   6.642  1.6938 -4.5970 -0.5332
  576MOL0     H77702   2.101   4.371   6.544  1.3197 -0.5744  2.3878
  576MOL0     H77703   2.189   4.493   6.327  1.3387  0.7832 -0.8016
  576MOL0     H77704   2.270   4.603   6.438  0.0933 -0.2267  0.3773
  576MOL0     H77705   2.410   4.438   6.525  0.3079  1.9951 -0.7375
  576MOL0     H77706   2.346   4.299   6.430  1.5772  0.0491  0.8356
  576MOL0     H77707   2.394   4.411   6.211 -0.3331 -3.3597  0.4203
  576MOL0     H77708   2.490   4.524   6.302  2.2003 -0.3597 -0.5727
  576MOL0     H77709   2.626   4.361   6.406 -0.2022 -1.1897  0.7664
  576MOL0     H77710   2.653   4.351   6.239  2.5415 -1.8965  2.5044
  576MOL0     H77711   2.612   4.133   6.085 -2.7068 -0.1582 -1.8531
  576MOL0     H77712   2.578   3.881   6.052 -1.1864 -0.6056 -1.9072
  576MOL0     H77713   2.507   3.777   6.167 -1.6685  0.2350 -0.4985
  576MOL0     H77714   2.392   3.797   5.954  0.6646  0.2012 -0.9741
  576MOL0     H77715   2.365   3.962   5.980 -1.3453  1.1442  0.8713
  576MOL0     H77716   2.220   3.916   6.172  1.0442  0.2284 -0.4367
  576MOL0     H77717   2.249   3.744   6.171 -2.3115 -1.2515 -0.0548
  576MOL0     H77718   2.062   3.737   6.059  3.0827 -3.6656  0.2328
  576MOL0     H77719   2.160   3.763   5.915  1.6791 -0.7282  1.2075
  576MOL0     H77720   1.926   3.879   6.190 -1.4944 -1.7378 -0.0135
  576MOL0     H77721   1.747   3.898   6.333 -1.0782 -2.2333  1.5965
  576MOL0     H77722   1.606   3.987   6.259 -2.5421 -1.6683 -2.8455
  576MOL0     H77723   1.633   3.804   6.258  3.2359 -1.5009  0.2010
  576MOL0     H77724   1.247   3.870   6.067  0.2379  3.1713 -0.3790
  576MOL0     H77725   1.011   3.856   6.007 -0.0935  0.4532  1.0646
  576MOL0     H77726   0.808   3.972   5.640  0.5259 -0.4143  0.6746
  576MOL0     H77727   0.914   3.829   5.591  2.5141 -1.3738  2.0594
  576MOL0     H77728   0.735   3.676   5.678  0.1981  0.0380 -0.3131
  576MOL0     H77729   0.634   3.815   5.726 -0.5983  1.6174 -1.4571
  576MOL0     H77730   0.704   3.749   5.443  0.0338  0.2304 -1.1289
  576MOL0     H77731   0.612   3.881   5.488  2.8879  0.0194 -0.9526
  576MOL0     H77732   0.535   3.587   5.544 -3.5988 -0.8436 -1.3758
  576MOL0     H77733   0.448   3.714   5.620 -0.6370 -2.1533 -0.0359
  576MOL0     H77734   0.482   3.714   5.316  1.6286 -0.3781  1.3885
  576MOL0     H77735   0.380   3.820   5.412 -2.2326 -1.0694 -1.3697
  576MOL0     H77736   0.367   3.523   5.370 -1.9665 -0.8769 -0.7440
  576MOL0     H77737   0.285   3.577   5.505  0.3612  0.0802  0.5825
  576MOL0     H77738   0.222   3.659   5.215 -1.3084 -2.7929 -0.3223
  576MOL0     H77739   0.128   3.721   5.362  2.7005  1.7627  2.5221
  576MOL0     H77740   0.107   3.457   5.400 -2.3438  0.2663  0.3143
  576MOL0     H77741   0.138   3.458   5.226  1.9342  1.8685 -1.6845
  576MOL0     H77742   1.105   3.913   5.593 -0.4000 -0.4684 -0.0992
  576MOL0     H77743   1.334   3.916   5.643 -0.7990  1.3729 -0.1594
  576MOL0     H77744   1.674   3.947   5.777 -0.2870 -0.6003  0.3255
  576MOL0     H77745   1.924   3.948   5.770  1.5354 -0.4305  1.6379
  576MOL0     H77746   1.766   4.892   6.808  1.4744  0.1345 -1.3315
  576MOL0     H77747   1.624   5.067   6.862  0.3082  2.2408 -1.0509
  576MOL0     H77748   1.204   5.266   6.621  2.4610 -1.9495  1.2942
  576MOL0     H77749   1.057   5.446   6.587  0.4724  0.4291 -1.1018
  576MOL0     H77750   0.979   5.626   6.560 -3.8294 -2.3289 -2.4193
  576MOL0     H77751   0.853   5.559   6.672  0.0837  0.0025 -0.2155
  576MOL0     H77752   0.925   5.845   6.612  1.4005  0.6782  3.5718
  576MOL0     H77753   0.819   5.801   6.736 -0.2518 -2.4538 -0.1379
  576MOL0     H77754   0.672   5.692   6.574 -1.6759  1.0745  0.0381
  576MOL0     H77755   0.782   5.720   6.443 -2.3625 -1.6470 -0.1018
  576MOL0     H77756   0.757   5.975   6.489  1.6390 -0.3406  1.3802
  576MOL0     H77757   0.626   5.935   6.599 -1.8478  0.2863 -1.2038
  576MOL0     H77758   0.435   5.897   6.232 -2.1263  0.9518  1.6205
  576MOL0     H77759   1.147   5.608   6.963 -2.3144 -1.0474 -0.3575
  576MOL0     H77760   1.320   5.420   7.004  2.1485 -2.2281 -0.5971
  577MOL0     O77761   1.666   7.007   5.384  0.3575  0.2029  0.8517
  577MOL0     C77762   1.752   6.929   5.411  0.4084  0.7979  0.2669
  577MOL0     O77763   1.755   6.794   5.382  0.1240  0.9765  0.5115
  577MOL0     C77764   1.650   6.746   5.300 -0.0787 -0.2695  0.5292
  577MOL0     C77765   1.544   6.686   5.365 -0.4985 -0.2574 -0.8536
  577MOL0     C77766   1.439   6.636   5.283 -0.3435 -0.6533  0.1583
  577MOL0     C77767   1.446   6.642   5.143 -1.0306  0.2591 -0.4079
  577MOL0     O77768   1.342   6.585   5.077  0.3279 -0.0273  0.4379
  577MOL0     C77769   1.351   6.586   4.934  0.0304  0.1446 -0.4774
  577MOL0     C77770   1.223   6.519   4.883 -0.3955 -0.1439 -0.4071
  577MOL0     C77771   1.219   6.373   4.920  0.7067 -1.0167  0.3239
  577MOL0     C77772   1.072   6.310   4.920  0.1336  0.6631  0.3456
  577MOL0     C77773   1.078   6.161   4.925  0.1108 -0.3400  0.7246
  577MOL0     C77774   0.940   6.102   4.937 -0.3371  0.1572  0.1576
  577MOL0     C77775   0.866   6.113   4.802 -0.0735 -0.0356  0.0876
  577MOL0     C77776   0.734   6.039   4.802  0.2365  0.0396 -0.3099
  577MOL0     N77777   0.696   5.996   4.669  0.4905  0.3384  0.0463
  577MOL0     C77778   0.580   6.036   4.603 -0.4215  0.4435 -0.2441
  577MOL0     C77779   0.589   5.949   4.496 -0.0049  0.6558 -0.4921
  577MOL0     C77780   0.490   5.955   4.383 -0.6329 -0.2725  0.1033
  577MOL0     C77781   0.349   5.906   4.414 -0.1490 -0.0417  0.9721
  577MOL0     C77782   0.254   5.904   4.291 -0.8649 -0.0296 -0.9865
  577MOL0     C77783   0.124   5.843   4.332  0.7797 -0.3179  0.1678
  577MOL0     O77784   0.057   5.923   4.428  0.7644  0.2120 -0.1588
  577MOL0     C77785  -0.071   5.894   4.475  0.2404  0.2375  0.1769
  577MOL0     C77786  -0.173   5.820   4.412 -0.1687 -0.6884  0.4904
  577MOL0     C77787  -0.301   5.817   4.463  0.0339  0.1271 -0.1875
  577MOL0     C77788  -0.410   5.746   4.377 -0.2534 -0.1467  0.0293
  577MOL0     C77789  -0.327   5.866   4.590  0.6741 -0.6266 -0.2082
  577MOL0     C77790  -0.461   5.860   4.656 -0.8199 -0.2593  0.0471
  577MOL0     O77791  -0.541   5.755   4.635 -0.5588 -0.5007 -0.9026
  577MOL0     C77792  -0.669   5.765   4.685  0.1873  0.6087  0.0316
  577MOL0     C77793  -0.695   5.755   4.824 -0.0263  0.2944 -0.1873
  577MOL0     C77794  -0.823   5.738   4.863  0.4283 -0.4428  0.2290
  577MOL0     C77795  -0.924   5.754   4.780  0.2571  0.1398 -0.4217
  577MOL0     O77796  -1.054   5.744   4.831 -0.8318 -0.5344  0.5666
  577MOL0     C77797  -1.165   5.782   4.754  0.1024  0.0018  0.3878
  577MOL0     C77798  -1.290   5.761   4.842  0.2438  0.1193 -0.3525
  577MOL0     C77799  -1.421   5.759   4.760  0.0595  0.4158  0.9306
  577MOL0     C77800  -1.535   5.720   4.863 -0.7753  0.2461  0.6846
  577MOL0     C77801  -1.659   5.823   4.866 -0.3850  0.3137 -0.2094
  577MOL0     C77802  -1.701   5.851   5.008 -0.4475  0.1403  0.3240
  577MOL0     C77803  -1.781   5.977   5.023  0.7446  0.3316  0.5513
  577MOL0     C77804  -1.711   6.109   4.992  0.0902 -0.6396 -0.2193
  577MOL0    Cl77805  -1.570   6.135   5.105  0.5922 -0.0711 -0.1421
  577MOL0     C77806  -0.902   5.793   4.649 -0.1194 -0.0133  0.7336
  577MOL0     C77807  -0.769   5.787   4.598 -0.1222  0.2190  0.2978
  577MOL0     O77808  -0.496   5.955   4.728 -0.9431  0.0321  0.4309
  577MOL0     C77809  -0.221   5.930   4.656  0.1992  0.3886 -0.2964
  577MOL0     C77810  -0.092   5.941   4.600 -0.3463 -0.1539 -0.0888
  577MOL0     N77811   0.703   5.868   4.494  0.9766 -0.2178  0.4701
  577MOL0     N77812   0.771   5.905   4.596  0.1945 -0.4925  0.1637
  577MOL0     C77813   1.554   6.715   5.084 -0.3020  0.5964 -0.3047
  577MOL0     C77814   1.657   6.775   5.164 -0.7498 -0.1291  0.1053
  577MOL0     C77815   1.867   6.992   5.473  0.1852 -0.3384  0.1795
  577MOL0     C77816   1.894   7.129   5.484 -0.0447  0.2558 -0.0036
  577MOL0     C77817   2.012   7.169   5.538  0.5358  0.1203  0.7321
  577MOL0     C77818   2.109   7.080   5.578  0.8582 -0.2908 -0.0771
  577MOL0     O77819   2.228   7.122   5.634 -0.1458 -0.2218  0.1600
  577MOL0     C77820   2.354   7.079   5.577  0.2659  0.4305 -1.1213
  577MOL0     C77821   2.412   7.202   5.517  0.4485 -0.1235 -0.2243
  577MOL0     C77822   2.436   7.314   5.621  0.0731  0.4985 -0.6054
  577MOL0     C77823   2.501   7.445   5.566 -0.3932 -0.1606  1.1952
  577MOL0     C77824   2.411   7.510   5.463  0.1009  0.4470 -0.3679
  577MOL0     C77825   2.347   7.552   5.370  0.5132 -0.2574  0.0160
  577MOL0     C77826   2.076   6.946   5.584 -0.0168  0.5932 -0.3280
  577MOL0     C77827   1.953   6.902   5.533 -0.5597  0.6535  0.2462
  577MOL0     H77828   1.552   6.684   5.473  1.8916 -0.5076 -0.9878
  577MOL0     H77829   1.359   6.586   5.337  0.7947  0.3115  2.9156
  577MOL0     H77830   1.351   6.688   4.895  0.6359  0.9315  1.4715
  577MOL0     H77831   1.440   6.530   4.902 -0.4224 -0.4196 -0.7786
  577MOL0     H77832   1.132   6.567   4.920  0.8792  0.6892  1.8191
  577MOL0     H77833   1.225   6.520   4.774  1.3114 -2.1726 -0.4671
  577MOL0     H77834   1.285   6.316   4.853 -1.7191 -1.6586 -1.6950
  577MOL0     H77835   1.256   6.362   5.022  1.7742  1.1655  0.2226
  577MOL0     H77836   1.013   6.345   5.006 -1.3133 -2.2918  0.6623
  577MOL0     H77837   1.034   6.340   4.822 -0.0660 -0.4007  0.0921
  577MOL0     H77838   1.136   6.118   4.842  0.9942 -2.2471  2.2511
  577MOL0     H77839   1.131   6.136   5.017 -0.7564 -0.6430  1.1449
  577MOL0     H77840   0.954   5.998   4.968 -1.1711  0.2869  1.0224
  577MOL0     H77841   0.884   6.149   5.019  1.9065  2.5556  0.4766
  577MOL0     H77842   0.851   6.220   4.784  4.0863  0.8134  0.6002
  577MOL0     H77843   0.934   6.090   4.719  0.6967  2.0823  0.0673
  577MOL0     H77844   0.659   6.105   4.845  1.2262  0.1306  1.3457
  577MOL0     H77845   0.746   5.957   4.873  3.2417  0.0949 -0.6408
  577MOL0     H77846   0.510   6.115   4.628  1.3694  1.2320  2.8625
  577MOL0     H77847   0.488   6.060   4.352 -1.5218 -0.7631 -1.6281
  577MOL0     H77848   0.530   5.897   4.300 -0.9503 -0.9352  0.4121
  577MOL0     H77849   0.306   5.971   4.491  1.1710 -0.4126  2.0572
  577MOL0     H77850   0.355   5.806   4.457  2.8162  0.4174  1.8906
  577MOL0     H77851   0.310   5.842   4.221  1.4588 -1.8486  2.1595
  577MOL0     H77852   0.248   6.005   4.251  1.2543  1.0762  1.1477
  577MOL0     H77853   0.135   5.744   4.376 -1.9944 -1.6450 -1.8301
  577MOL0     H77854   0.055   5.823   4.250 -4.0782 -3.7586  4.4405
  577MOL0     H77855  -0.147   5.779   4.315 -0.4722 -0.2783  0.2308
  577MOL0     H77856  -0.429   5.642   4.402  0.6023 -0.9818 -2.4760
  577MOL0     H77857  -0.504   5.803   4.383  0.4160  1.4056 -2.5930
  577MOL0     H77858  -0.379   5.751   4.272 -1.2527 -0.1965 -0.2791
  577MOL0     H77859  -0.616   5.742   4.897  0.3236  2.2206 -0.1702
  577MOL0     H77860  -0.844   5.702   4.963 -0.9162 -0.4149 -0.0235
  577MOL0     H77861  -1.157   5.881   4.708  0.2826 -0.2389 -0.1059
  577MOL0     H77862  -1.166   5.718   4.665 -0.9197  2.2002 -1.2690
  577MOL0     H77863  -1.275   5.663   4.889 -2.9488  0.2182  1.1646
  577MOL0     H77864  -1.295   5.842   4.916  0.0289  3.8359 -4.0637
  577MOL0     H77865  -1.405   5.691   4.675 -0.0574  1.8975 -0.3211
  577MOL0     H77866  -1.436   5.860   4.720  0.6551 -0.1044 -0.6700
  577MOL0     H77867  -1.567   5.616   4.851  1.9975 -0.4841 -1.3467
  577MOL0     H77868  -1.496   5.716   4.965 -2.3244 -0.0248  1.2988
  577MOL0     H77869  -1.743   5.774   4.816  0.8207 -1.5338 -0.5574
  577MOL0     H77870  -1.633   5.911   4.806  0.9172  0.6928  0.8723
  577MOL0     H77871  -1.767   5.766   5.029  0.6281 -1.0700 -1.0301
  577MOL0     H77872  -1.617   5.857   5.077 -0.7654  2.1148  0.6052
  577MOL0     H77873  -1.817   5.984   5.125 -2.1408  0.4855 -0.3874
  577MOL0     H77874  -1.874   5.971   4.966 -0.1535  0.3564  1.9791
  577MOL0     H77875  -1.781   6.192   5.005  1.4229  0.6943 -1.1679
  577MOL0     H77876  -1.675   6.106   4.889 -1.1043 -2.8440 -0.6249
  577MOL0     H77877  -0.989   5.790   4.585 -0.1987 -1.2025  0.8711
  577MOL0     H77878  -0.762   5.814   4.493 -2.1035  0.3302  0.1683
  577MOL0     H77879  -0.236   5.960   4.760 -0.9070 -2.3526  0.4160
  577MOL0     H77880  -0.013   5.997   4.648  0.4638 -0.6106 -0.8698
  577MOL0     H77881   1.538   6.734   4.979 -3.3608  0.2086 -0.0115
  577MOL0     H77882   1.738   6.815   5.104  0.2733 -0.3505  1.3041
  577MOL0     H77883   1.832   7.204   5.435  0.5383  1.6382  1.3094
  577MOL0     H77884   2.041   7.273   5.532 -0.2374  0.2603 -1.7944
  577MOL0     H77885   2.426   7.046   5.653  1.7250  0.0188 -2.6152
  577MOL0     H77886   2.344   6.990   5.514  0.7526  1.5835 -2.9006
  577MOL0     H77887   2.346   7.243   5.440  1.5733  2.3534  0.0164
  577MOL0     H77888   2.511   7.178   5.476  0.7963  1.5374 -0.4223
  577MOL0     H77889   2.506   7.271   5.694 -0.7402  0.0021 -0.1058
  577MOL0     H77890   2.345   7.343   5.674  0.5306  0.7248  0.0629
  577MOL0     H77891   2.598   7.423   5.521 -1.3438 -0.9683 -0.5506
  577MOL0     H77892   2.509   7.516   5.649 -1.7139 -0.3429  1.5026
  577MOL0     H77893   2.282   7.590   5.294  0.6479 -1.8111 -0.8972
  577MOL0     H77894   2.141   6.882   5.643  3.0547  1.8199 -2.1435
  577MOL0     H77895   1.926   6.797   5.540 -0.5562  0.6115 -0.2654
  578MOL0     O77896   4.858   0.555   6.483 -0.1469 -0.0228 -0.2027
  578MOL0     C77897   4.893   0.447   6.528 -0.4991  0.3758  0.1400
  578MOL0     O77898   4.814   0.350   6.594  0.0623  0.2120  0.1229
  578MOL0     C77899   4.677   0.367   6.599  0.0288  0.2813  0.1986
  578MOL0     C77900   4.616   0.283   6.692 -0.3174  0.1526  0.5604
  578MOL0     C77901   4.483   0.290   6.707 -0.8106  0.1391 -0.3728
  578MOL0     C77902   4.398   0.372   6.638  0.3234  0.3304 -0.8372
  578MOL0     O77903   4.262   0.381   6.664  0.7119  0.2960  0.3740
  578MOL0     C77904   4.195   0.277   6.730 -0.2130 -0.7096 -0.2831
  578MOL0     C77905   4.050   0.296   6.759 -0.2721 -0.1999  0.0659
  578MOL0     C77906   3.973   0.351   6.632  0.4062  0.2929  0.0698
  578MOL0     C77907   3.830   0.311   6.659  0.3672  0.3772 -0.8955
  578MOL0     C77908   3.737   0.384   6.557 -0.1209  0.5568 -0.0863
  578MOL0     C77909   3.742   0.347   6.411 -0.5062  0.2619  0.8274
  578MOL0     C77910   3.677   0.213   6.377 -0.7164 -0.9555 -0.0022
  578MOL0     C77911   3.656   0.167   6.227  0.1858 -0.5437 -0.5908
  578MOL0     N77912   3.597   0.277   6.153 -0.1739 -0.2410  0.4238
  578MOL0     C77913   3.462   0.310   6.130 -0.1967  0.6004 -0.3125
  578MOL0     C77914   3.467   0.419   6.048 -0.9332  0.2768 -0.3358
  578MOL0     C77915   3.343   0.485   5.992 -0.3732  0.4424 -0.0662
  578MOL0     C77916   3.308   0.619   6.048  0.3677 -0.4040  0.9326
  578MOL0     C77917   3.302   0.636   6.197  0.2098  0.0741 -0.0152
  578MOL0     C77918   3.174   0.578   6.263  0.0523 -0.2002 -0.0983
  578MOL0     O77919   3.066   0.668   6.225  0.3171 -0.8546 -0.5937
  578MOL0     C77920   2.942   0.618   6.205 -0.3525 -0.2758  0.0448
  578MOL0     C77921   2.836   0.707   6.231 -0.0286  0.5199  0.3125
  578MOL0     C77922   2.703   0.670   6.216  0.3103  0.1698  0.0218
  578MOL0     C77923   2.603   0.784   6.253 -1.1907 -0.0731 -0.6522
  578MOL0     C77924   2.671   0.533   6.175 -0.8615  0.4495 -0.1270
  578MOL0     C77925   2.538   0.473   6.154  0.4124 -0.1903 -1.2850
  578MOL0     O77926   2.426   0.550   6.151  0.0621 -0.7148  0.6493
  578MOL0     C77927   2.303   0.493   6.132  0.2418 -0.4116 -0.3101
  578MOL0     C77928   2.246   0.521   6.008  0.6958  0.3232 -0.8385
  578MOL0     C77929   2.120   0.457   5.984 -0.2414  0.0736 -0.2803
  578MOL0     C77930   2.050   0.370   6.075  0.7474  0.2926  0.4642
  578MOL0     O77931   1.933   0.295   6.051  0.0016  0.6214  0.3926
  578MOL0     C77932   1.868   0.317   5.923  0.6912 -0.3964  0.3115
  578MOL0     C77933   1.732   0.257   5.917 -0.0158  0.0448 -0.0298
  578MOL0     C77934   1.723   0.106   5.920 -0.9982 -0.1469  0.1961
  578MOL0     C77935   1.578   0.051   5.913 -0.5789 -0.1925 -0.2924
  578MOL0     C77936   1.575  -0.098   5.937  0.2464  0.1266  0.6657
  578MOL0     C77937   1.434  -0.142   5.909  0.3812 -0.6403  0.8671
  578MOL0     C77938   1.370  -0.279   5.959 -0.8485 -1.0338  0.3773
  578MOL0     C77939   1.413  -0.324   6.103  0.1642 -0.1313  0.8136
  578MOL0    Cl77940   1.358  -0.502   6.117  0.2486 -0.5363 -0.3513
  578MOL0     C77941   2.108   0.364   6.204 -0.4282  0.1260 -0.0323
  578MOL0     C77942   2.238   0.415   6.228 -0.4334 -0.7705 -0.2740
  578MOL0     O77943   2.532   0.348   6.152 -0.0388 -0.1977 -0.6098
  578MOL0     C77944   2.782   0.444   6.140  0.3810  0.0745 -0.3264
  578MOL0     C77945   2.909   0.489   6.156  0.0144  0.0483  0.4914
  578MOL0     N77946   3.597   0.450   6.007  0.6654  0.0161  0.1459
  578MOL0     N77947   3.672   0.366   6.073 -0.0513 -0.6315 -0.6176
  578MOL0     C77948   4.458   0.460   6.545  0.3913  0.0275  0.3141
  578MOL0     C77949   4.596   0.457   6.521  0.2034 -0.4966 -0.7883
  578MOL0     C77950   5.043   0.420   6.522 -0.2226 -0.3992 -0.3934
  578MOL0     C77951   5.118   0.483   6.426 -0.0128 -0.1162 -0.3044
  578MOL0     C77952   5.259   0.454   6.421  0.4850 -0.1980 -0.1142
  578MOL0     C77953   5.321   0.373   6.519 -0.7469  0.3637 -0.1195
  578MOL0     O77954   5.453   0.346   6.523 -0.1630 -0.5044  0.3668
  578MOL0     C77955   5.537   0.417   6.436 -0.3921 -0.6754  0.6798
  578MOL0     C77956   5.682   0.391   6.468  0.2300  0.6155 -0.3307
  578MOL0     C77957   5.770   0.419   6.344  0.1013  0.1745 -0.0149
  578MOL0     C77958   5.913   0.379   6.352  0.2412  0.4451  0.3862
  578MOL0     C77959   5.998   0.471   6.426 -0.1887  0.2885  0.0691
  578MOL0     C77960   6.075   0.541   6.484 -0.1450 -0.6064  0.4617
  578MOL0     C77961   5.238   0.316   6.614  0.3783 -0.4855 -0.8572
  578MOL0     C77962   5.109   0.334   6.613 -0.1687  0.4221  0.7661
  578MOL0     H77963   4.680   0.226   6.758  2.4628  3.2873  0.8462
  578MOL0     H77964   4.441   0.223   6.782  1.4207  0.4290  1.2307
  578MOL0     H77965   4.210   0.190   6.666 -0.5367  0.1162 -1.5076
  578MOL0     H77966   4.243   0.255   6.826  0.8320 -1.9391 -1.0585
  578MOL0     H77967   4.009   0.202   6.799 -0.0585  0.5861  2.2474
  578MOL0     H77968   4.053   0.376   6.833  0.5408  0.7727 -0.9903
  578MOL0     H77969   3.981   0.457   6.610  0.4903  0.1840 -0.4272
  578MOL0     H77970   4.013   0.306   6.541  1.5271  2.4214 -0.5520
  578MOL0     H77971   3.824   0.201   6.655  1.0750  0.2971 -0.0952
  578MOL0     H77972   3.796   0.340   6.759 -1.6492 -0.0860 -1.4050
  578MOL0     H77973   3.637   0.365   6.597  0.6121 -0.2669  1.4634
  578MOL0     H77974   3.753   0.491   6.568  0.7599  0.1575  4.2051
  578MOL0     H77975   3.701   0.431   6.353  3.8007  0.9888 -1.6034
  578MOL0     H77976   3.840   0.329   6.367 -1.1087  0.0372 -0.4814
  578MOL0     H77977   3.732   0.133   6.427  0.8667  1.3749  2.1873
  578MOL0     H77978   3.575   0.224   6.416  0.1019 -0.5047  2.1461
  578MOL0     H77979   3.591   0.079   6.225  1.5864 -1.6124 -2.3982
  578MOL0     H77980   3.754   0.139   6.186 -0.2794  1.7125 -3.5299
  578MOL0     H77981   3.364   0.279   6.166  0.1361 -0.3487 -0.2043
  578MOL0     H77982   3.352   0.494   5.883  0.2994 -1.3154 -0.1796
  578MOL0     H77983   3.260   0.418   6.016 -0.5732  1.9076  4.1989
  578MOL0     H77984   3.214   0.654   6.006  1.0426  0.6580  0.2729
  578MOL0     H77985   3.383   0.689   6.009 -0.6898  0.6676  0.7667
  578MOL0     H77986   3.302   0.743   6.216  0.0279  0.0340  0.2169
  578MOL0     H77987   3.396   0.604   6.244  1.1514 -1.1832 -2.5434
  578MOL0     H77988   3.190   0.579   6.371 -1.3607  0.6545  0.1374
  578MOL0     H77989   3.160   0.474   6.232  1.1866  0.0331 -1.5456
  578MOL0     H77990   2.854   0.812   6.251 -1.5027  1.1262 -1.2960
  578MOL0     H77991   2.508   0.734   6.268 -0.6459 -0.4092  2.0822
  578MOL0     H77992   2.642   0.838   6.340  1.0251  0.3695 -1.8320
  578MOL0     H77993   2.596   0.850   6.165  2.0248 -1.0383 -1.7878
  578MOL0     H77994   2.296   0.579   5.932 -4.8767  1.6496 -4.0792
  578MOL0     H77995   2.072   0.469   5.887  2.1462  1.6685 -1.3956
  578MOL0     H77996   1.852   0.423   5.903 -2.5319 -1.1166 -1.5900
  578MOL0     H77997   1.931   0.267   5.849 -0.9434 -2.8501  0.4772
  578MOL0     H77998   1.669   0.289   6.001 -1.5499 -0.0895 -1.0905
  578MOL0     H77999   1.687   0.295   5.825 -0.4062 -0.5650 -0.0965
  578MOL0     H78000   1.769   0.073   6.013  1.4831  1.2193 -0.4463
  578MOL0     H78001   1.791   0.060   5.847  1.5177 -0.2495  2.4237
  578MOL0     H78002   1.504   0.099   5.978 -1.4275 -4.0804  1.9160
  578MOL0     H78003   1.544   0.072   5.811 -1.1714 -1.1187 -0.2879
  578MOL0     H78004   1.590  -0.119   6.044 -1.4930 -1.0271  0.7198
  578MOL0     H78005   1.648  -0.157   5.881  0.9010  0.0139  1.6102
  578MOL0     H78006   1.368  -0.076   5.966  0.3763  1.6413 -1.5830
  578MOL0     H78007   1.410  -0.131   5.803  1.8188 -2.6453  0.2677
  578MOL0     H78008   1.411  -0.359   5.896 -0.1527  1.2748 -2.2788
  578MOL0     H78009   1.262  -0.287   5.941 -0.8347 -2.5073  0.8079
  578MOL0     H78010   1.358  -0.259   6.171 -1.5766  0.9320 -1.4626
  578MOL0     H78011   1.519  -0.310   6.126 -0.0812  0.2724  1.7202
  578MOL0     H78012   2.069   0.301   6.284 -1.7940  0.0921 -0.7014
  578MOL0     H78013   2.279   0.400   6.327 -1.9886 -0.8065  0.3937
  578MOL0     H78014   2.763   0.349   6.090  2.2028 -0.0811 -0.7926
  578MOL0     H78015   2.991   0.422   6.128 -1.3241 -1.5751  0.2914
  578MOL0     H78016   4.397   0.532   6.492 -1.1454 -2.0888 -0.9003
  578MOL0     H78017   4.638   0.514   6.439  1.1435 -0.6902 -0.4555
  578MOL0     H78018   5.077   0.551   6.352  0.2598 -0.8142 -1.1171
  578MOL0     H78019   5.319   0.514   6.354  1.4488  0.6950  1.4730
  578MOL0     H78020   5.521   0.379   6.334 -3.4271 -0.9328  1.1772
  578MOL0     H78021   5.511   0.523   6.432 -2.2163 -1.1042 -0.0658
  578MOL0     H78022   5.693   0.289   6.504 -1.7263  0.4535 -0.0662
  578MOL0     H78023   5.715   0.453   6.551  3.6893 -0.8718 -0.4388
  578MOL0     H78024   5.756   0.524   6.319 -1.1510  0.5091  1.8960
  578MOL0     H78025   5.733   0.353   6.265  0.6013  0.2788 -0.3357
  578MOL0     H78026   5.945   0.374   6.247 -2.7632  2.7257 -0.7818
  578MOL0     H78027   5.912   0.279   6.396 -5.0359  0.2592  0.4673
  578MOL0     H78028   6.151   0.602   6.528  0.2075 -2.0143  1.9235
  578MOL0     H78029   5.287   0.247   6.681 -1.1953  0.6869  1.6555
  578MOL0     H78030   5.054   0.280   6.689 -0.2646  2.8829  2.5937
  579MOL0     O78031   2.255  10.015   6.535 -0.3690  0.0997  0.9273
  579MOL0     C78032   2.332   9.988   6.627  0.1422 -0.1112 -0.5602
  579MOL0     O78033   2.295   9.972   6.755 -0.1239 -1.0753  0.5789
  579MOL0     C78034   2.162  10.009   6.780 -0.1734 -0.2083 -0.3844
  579MOL0     C78035   2.120  10.147   6.798  0.3154 -0.1938  0.2859
  579MOL0     C78036   1.985  10.179   6.829  0.0508  0.4676  1.2344
  579MOL0     C78037   1.891  10.076   6.834  0.4317  0.5408 -1.0443
  579MOL0     O78038   1.765  10.125   6.866  0.2180  0.9584 -0.4168
  579MOL0     C78039   1.660  10.037   6.886 -0.0589  0.5615 -0.2600
  579MOL0     C78040   1.522  10.105   6.890  0.2882 -0.7866  0.0777
  579MOL0     C78041   1.519  10.189   7.021 -0.1510  0.0538  1.1494
  579MOL0     C78042   1.380  10.270   7.024 -0.1327  0.5769  0.1040
  579MOL0     C78043   1.265  10.183   7.075 -0.4322 -0.5743 -0.2505
  579MOL0     C78044   1.137  10.258   7.105 -0.1277  0.1476  0.3958
  579MOL0     C78045   1.025  10.150   7.130  1.1986  1.0886  0.2870
  579MOL0     C78046   0.891  10.196   7.193  0.1825  0.4192 -0.3343
  579MOL0     N78047   0.800  10.235   7.089  0.1505  0.0824  0.4383
  579MOL0     C78048   0.820  10.350   7.012 -0.6411  0.7607 -0.5131
  579MOL0     C78049   0.731  10.348   6.914 -0.1533  0.3417 -1.0255
  579MOL0     C78050   0.744  10.418   6.776 -0.4464 -0.6576  0.0643
  579MOL0     C78051   0.633  10.398   6.679  1.2399 -0.3959 -0.1319
  579MOL0     C78052   0.660  10.468   6.544  0.0446  0.8563 -0.0173
  579MOL0     C78053   0.547  10.458   6.446  0.6924  0.8049 -0.1283
  579MOL0     O78054   0.538  10.318   6.398 -0.1529 -0.4971 -0.5931
  579MOL0     C78055   0.410  10.274   6.371 -0.4778 -0.3929  1.0067
  579MOL0     C78056   0.376  10.239   6.242  0.2755 -0.9805 -0.8918
  579MOL0     C78057   0.248  10.184   6.209 -0.7995 -0.3764 -0.5488
  579MOL0     C78058   0.231  10.156   6.070  0.6659  0.1484 -0.1100
  579MOL0     C78059   0.150  10.166   6.314  0.3664  0.1575  0.0549
  579MOL0     C78060   0.016  10.119   6.285  0.6368  0.8540 -0.0028
  579MOL0     O78061  -0.078  10.144   6.391  0.8197 -0.4934  0.1002
  579MOL0     C78062  -0.210  10.097   6.397 -0.3217  0.2955 -0.2823
  579MOL0     C78063  -0.274  10.037   6.289  0.2417 -1.2347 -0.3815
  579MOL0     C78064  -0.403   9.997   6.305  1.2226  1.6461 -0.1654
  579MOL0     C78065  -0.476  10.019   6.428 -1.0856  0.3076  0.1065
  579MOL0     O78066  -0.596   9.965   6.448  1.0946  0.5894 -0.1526
  579MOL0     C78067  -0.673   9.924   6.340  0.3992 -0.2999  0.9627
  579MOL0     C78068  -0.818   9.928   6.374  0.6570 -0.8287  0.3052
  579MOL0     C78069  -0.868   9.808   6.454  0.0349 -0.3511 -0.4126
  579MOL0     C78070  -0.985   9.853   6.550 -0.6166 -0.7518 -0.4767
  579MOL0     C78071  -1.028   9.743   6.655 -0.5458 -0.0704 -0.4140
  579MOL0     C78072  -1.076   9.617   6.579 -0.0928  0.9602 -0.4057
  579MOL0     C78073  -1.216   9.651   6.524 -0.4888  0.2915 -0.3449
  579MOL0     C78074  -1.291   9.527   6.463  0.4589  0.2392  0.3135
  579MOL0    Cl78075  -1.186   9.457   6.340 -0.1126 -0.3214  0.6282
  579MOL0     C78076  -0.408  10.077   6.533  0.6508 -0.1257 -0.3723
  579MOL0     C78077  -0.278  10.117   6.515 -0.4902 -0.1626 -0.0386
  579MOL0     O78078   0.015  10.027   6.202  0.2585  0.2802 -0.1455
  579MOL0     C78079   0.191  10.199   6.440 -0.5316 -0.4429 -0.2406
  579MOL0     C78080   0.318  10.251   6.464 -0.0041 -0.9876  0.1044
  579MOL0     N78081   0.646  10.246   6.942  0.4016  0.1384  0.1723
  579MOL0     N78082   0.689  10.178   7.044 -0.1834 -0.3962 -0.4196
  579MOL0     C78083   1.927   9.948   6.801  0.4570  0.5959  0.3620
  579MOL0     C78084   2.062   9.917   6.779  0.4317 -0.1671 -0.1361
  579MOL0     C78085   2.474   9.983   6.588 -0.2550 -0.0498 -0.3251
  579MOL0     C78086   2.507   9.947   6.455  0.2591  0.5842 -0.4593
  579MOL0     C78087   2.640   9.958   6.418 -0.1789  0.4396 -0.6960
  579MOL0     C78088   2.739   9.992   6.508 -0.4015  0.0515 -0.0896
  579MOL0     O78089   2.872  10.028   6.472 -0.2513 -0.0389  0.5557
  579MOL0     C78090   2.903  10.027   6.337  0.0742  1.0100  1.0638
  579MOL0     C78091   3.038  10.089   6.313 -0.6478  0.6656  0.2012
  579MOL0     C78092   3.162   9.992   6.341 -0.3467 -0.3542 -0.3966
  579MOL0     C78093   3.297  10.069   6.337 -0.2731  0.1413 -0.2254
  579MOL0     C78094   3.317  10.157   6.453 -0.2582 -0.2297  0.7095
  579MOL0     C78095   3.345  10.231   6.545  0.2698 -0.3790  0.6169
  579MOL0     C78096   2.705  10.015   6.641 -0.0415  0.4637  0.1167
  579MOL0     C78097   2.579  10.010   6.680 -0.0450 -0.0907  0.3618
  579MOL0     H78098   2.192  10.226   6.783 -2.0603  1.7020 -2.0353
  579MOL0     H78099   1.943  10.275   6.856  0.2956  0.3734  1.9710
  579MOL0     H78100   1.642   9.969   6.802 -1.4779  1.4408 -0.7113
  579MOL0     H78101   1.681   9.981   6.978  1.4001  0.0732 -0.8530
  579MOL0     H78102   1.503  10.177   6.811  0.0692  0.4857  1.2487
  579MOL0     H78103   1.443  10.029   6.888 -0.2581 -0.2038 -0.7061
  579MOL0     H78104   1.528  10.129   7.112  0.5468  0.0359  1.0776
  579MOL0     H78105   1.597  10.265   7.021 -0.8634  0.9313 -2.1204
  579MOL0     H78106   1.380  10.365   7.079 -1.8182 -0.5344  2.1855
  579MOL0     H78107   1.356  10.307   6.924  1.5708  2.0681  0.1942
  579MOL0     H78108   1.245  10.093   7.016  1.6918 -0.2157 -1.6453
  579MOL0     H78109   1.293  10.149   7.175  2.1672 -1.1026 -1.0829
  579MOL0     H78110   1.138  10.322   7.193 -0.3360 -2.1189  2.1249
  579MOL0     H78111   1.118  10.306   7.008  2.0103 -3.2732 -1.9521
  579MOL0     H78112   1.006  10.096   7.036  1.1408 -0.7955  1.3152
  579MOL0     H78113   1.060  10.077   7.204 -4.4474 -0.3251  2.0751
  579MOL0     H78114   0.893  10.278   7.265  1.0606  0.4181 -0.3377
  579MOL0     H78115   0.850  10.113   7.252 -0.1718  1.4523  0.9076
  579MOL0     H78116   0.911  10.409   7.011  1.0216 -1.6221  0.0879
  579MOL0     H78117   0.762  10.525   6.790 -1.2213 -0.5237  0.1197
  579MOL0     H78118   0.830  10.371   6.729  0.4517  2.0207 -1.2123
  579MOL0     H78119   0.540  10.437   6.721  1.1749  0.6987 -1.2789
  579MOL0     H78120   0.621  10.290   6.666 -0.2251 -0.3474  0.5573
  579MOL0     H78121   0.754  10.423   6.511 -0.7318 -2.6001  2.0635
  579MOL0     H78122   0.678  10.575   6.561  1.4396  1.0986 -2.5474
  579MOL0     H78123   0.561  10.525   6.361  0.5373  0.1487 -0.6812
  579MOL0     H78124   0.455  10.484   6.499  1.9812  2.9804  1.2123
  579MOL0     H78125   0.454  10.242   6.166  0.1709 -0.3946 -0.9803
  579MOL0     H78126   0.210  10.050   6.054  0.2886 -0.1134  1.8191
  579MOL0     H78127   0.143  10.211   6.037  0.9151 -0.1813 -1.3573
  579MOL0     H78128   0.315  10.193   6.010  2.8064 -2.5470  0.9849
  579MOL0     H78129  -0.232  10.034   6.189 -4.1427  1.0707 -2.6226
  579MOL0     H78130  -0.450   9.946   6.222  0.4791 -0.8344  1.6290
  579MOL0     H78131  -0.663   9.996   6.259  0.0170 -2.6420 -1.3162
  579MOL0     H78132  -0.635   9.823   6.323 -2.2419 -0.9717 -1.7008
  579MOL0     H78133  -0.828  10.019   6.434 -1.3990 -1.7177  1.4012
  579MOL0     H78134  -0.888   9.942   6.292 -1.8373 -3.1213  1.8825
  579MOL0     H78135  -0.789   9.752   6.506 -1.9369 -1.2634  1.8023
  579MOL0     H78136  -0.909   9.743   6.376  0.0450  0.1471 -0.8342
  579MOL0     H78137  -0.932   9.927   6.611 -0.1645 -0.3534 -1.3444
  579MOL0     H78138  -1.070   9.896   6.495  0.8214  0.2177 -2.0218
  579MOL0     H78139  -1.103   9.777   6.727  2.2197 -0.8927  3.1418
  579MOL0     H78140  -0.946   9.706   6.717 -1.2923  2.0797  1.9969
  579MOL0     H78141  -1.012   9.580   6.498  1.0247 -1.4553  1.4553
  579MOL0     H78142  -1.088   9.538   6.653 -1.7511  1.2027 -0.3841
  579MOL0     H78143  -1.212   9.726   6.445 -1.5841  0.9946  0.2457
  579MOL0     H78144  -1.281   9.686   6.605  1.9725  2.6019  0.7766
  579MOL0     H78145  -1.382   9.560   6.413 -1.1628  0.2537  3.0904
  579MOL0     H78146  -1.316   9.453   6.541 -1.2022 -0.6579 -0.9880
  579MOL0     H78147  -0.465  10.121   6.614  0.4579  0.0688 -0.6138
  579MOL0     H78148  -0.221  10.171   6.589  0.2445  1.3900 -1.6772
  579MOL0     H78149   0.118  10.201   6.521  0.6677  2.1642  0.8965
  579MOL0     H78150   0.335  10.277   6.568  2.0923  0.4110 -0.5318
  579MOL0     H78151   1.850   9.872   6.803  2.8592 -2.1032 -1.3756
  579MOL0     H78152   2.082   9.816   6.745  0.0942  0.5755 -2.7860
  579MOL0     H78153   2.438   9.924   6.375  0.2769  1.7351 -0.8261
  579MOL0     H78154   2.663   9.923   6.318 -2.5519  2.0172 -1.9100
  579MOL0     H78155   2.889   9.926   6.298 -3.6950  1.0296  2.0083
  579MOL0     H78156   2.842  10.099   6.282  0.9669 -0.8656 -2.7576
  579MOL0     H78157   3.054  10.184   6.363 -0.3385  1.0095 -0.5278
  579MOL0     H78158   3.051  10.112   6.207  3.1515 -0.2038  0.3038
  579MOL0     H78159   3.150   9.914   6.265 -1.6391  0.3002 -0.9070
  579MOL0     H78160   3.158   9.950   6.442 -1.0066  1.7803  0.5312
  579MOL0     H78161   3.289  10.121   6.241 -1.9798  1.7563  0.7135
  579MOL0     H78162   3.385  10.005   6.325  0.7814  1.4127  0.3455
  579MOL0     H78163   3.380  10.294   6.624 -0.2925  2.8502 -1.5354
  579MOL0     H78164   2.784  10.032   6.713  1.3990 -2.0047 -0.7775
  579MOL0     H78165   2.542  10.046   6.776 -3.2838  3.3255 -1.8915
  580MOL0     O78166   6.639  11.058   2.594 -0.3729  0.2041  0.3899
  580MOL0     C78167   6.643  10.940   2.621 -1.4622  1.2733  0.4812
  580MOL0     O78168   6.540  10.863   2.658  0.6576  1.3692 -0.5163
  580MOL0     C78169   6.416  10.924   2.658  0.2448  0.3413 -0.3353
  580MOL0     C78170   6.367  11.012   2.564  0.4446 -0.3888 -0.2560
  580MOL0     C78171   6.236  11.069   2.570  0.1917  0.6400 -0.3361
  580MOL0     C78172   6.140  11.026   2.669 -0.4072 -0.5316 -0.6764
  580MOL0     O78173   6.008  11.061   2.685  0.0011  0.5847  0.2764
  580MOL0     C78174   5.941  11.083   2.561  0.1854  0.8319 -0.0678
  580MOL0     C78175   5.790  11.078   2.593 -0.2053  0.2572  0.5762
  580MOL0     C78176   5.726  10.965   2.506 -0.3572 -0.5133 -0.0534
  580MOL0     C78177   5.567  10.956   2.521 -0.1404 -0.5270 -0.6904
  580MOL0     C78178   5.488  11.044   2.430 -0.4342 -0.3277  0.3796
  580MOL0     C78179   5.330  11.058   2.438 -0.1164  0.4132 -1.1134
  580MOL0     C78180   5.282  11.104   2.576  0.1146 -0.0117  0.2165
  580MOL0     C78181   5.135  11.131   2.587  0.0873 -0.3740 -0.1324
  580MOL0     N78182   5.054  11.005   2.577  0.2931  0.1578  0.0862
  580MOL0     C78183   4.918  11.006   2.591  0.9230  0.3320  1.1029
  580MOL0     C78184   4.889  10.872   2.589  0.5590 -0.1632  0.5622
  580MOL0     C78185   4.750  10.806   2.589 -0.8637  0.0461 -0.5771
  580MOL0     C78186   4.655  10.862   2.480  0.5652  0.0770  0.0858
  580MOL0     C78187   4.553  10.760   2.430 -0.2104 -0.1123  0.4544
  580MOL0     C78188   4.431  10.738   2.517 -0.0188 -0.0360 -0.0262
  580MOL0     O78189   4.357  10.855   2.520 -0.1278 -0.3167 -0.6333
  580MOL0     C78190   4.232  10.861   2.581 -0.3268 -0.3010 -0.5246
  580MOL0     C78191   4.172  10.753   2.652  0.0629 -0.0808 -0.6324
  580MOL0     C78192   4.047  10.754   2.718  0.1394 -0.3235  0.2093
  580MOL0     C78193   3.996  10.624   2.782 -0.0143  0.2434 -0.2792
  580MOL0     C78194   3.972  10.871   2.695  0.1085  0.1649  0.4947
  580MOL0     C78195   3.828  10.893   2.740 -0.1638 -0.1253 -0.0390
  580MOL0     O78196   3.753  10.988   2.679  0.4038 -0.7118 -0.7878
  580MOL0     C78197   3.621  11.000   2.703 -0.3826 -0.0950  0.4657
  580MOL0     C78198   3.572  11.127   2.743  0.4128  0.0967  0.0863
  580MOL0     C78199   3.430  11.140   2.760  0.3331  0.0160 -0.1116
  580MOL0     C78200   3.341  11.026   2.744 -0.0958 -0.1729 -0.1852
  580MOL0     O78201   3.201  11.027   2.761 -0.4033  0.0671  0.0236
  580MOL0     C78202   3.135  11.134   2.832 -0.4063  0.3522 -0.8137
  580MOL0     C78203   2.988  11.113   2.810  0.0771  0.1558  0.1349
  580MOL0     C78204   2.916  11.231   2.876  1.0361  0.2192  0.2561
  580MOL0     C78205   2.764  11.205   2.844  0.1815  0.0894  0.5371
  580MOL0     C78206   2.676  11.301   2.913  0.3579  0.5333 -0.6337
  580MOL0     C78207   2.627  11.417   2.828  0.5418 -0.6132 -0.8950
  580MOL0     C78208   2.534  11.510   2.920 -0.8988  0.6298 -0.4842
  580MOL0     C78209   2.532  11.657   2.879 -0.3224  0.7511  0.9201
  580MOL0    Cl78210   2.436  11.750   3.006 -0.5032  0.2460  0.4985
  580MOL0     C78211   3.393  10.907   2.706 -0.5136  0.5603 -0.0913
  580MOL0     C78212   3.531  10.896   2.686 -0.1666 -0.4621  0.4159
  580MOL0     O78213   3.794  10.827   2.832  0.1576  0.7238 -0.0342
  580MOL0     C78214   4.032  10.985   2.637 -0.6560  0.1109  0.0785
  580MOL0     C78215   4.167  10.983   2.592  0.7085  0.3351 -0.1029
  580MOL0     N78216   5.008  10.795   2.595 -0.0955  0.4630  0.7785
  580MOL0     N78217   5.103  10.881   2.596  0.4712  0.5365  0.5558
  580MOL0     C78218   6.195  10.948   2.770  0.6344 -0.2331  0.5429
  580MOL0     C78219   6.324  10.893   2.760 -0.9563 -0.3721 -0.0364
  580MOL0     C78220   6.785  10.876   2.638  0.1165  1.0726  0.3023
  580MOL0     C78221   6.801  10.742   2.691  0.6161  0.6834 -0.1820
  580MOL0     C78222   6.926  10.694   2.730 -0.2013  0.1191 -0.3501
  580MOL0     C78223   7.041  10.773   2.700 -0.4762 -0.1868  0.1536
  580MOL0     O78224   7.171  10.737   2.738 -0.5017  0.3784 -0.1033
  580MOL0     C78225   7.206  10.779   2.866 -1.0190 -1.0221 -0.6209
  580MOL0     C78226   7.281  10.673   2.940  0.0229 -0.4218  0.8994
  580MOL0     C78227   7.366  10.733   3.053  0.6808 -0.1034  0.0032
  580MOL0     C78228   7.304  10.760   3.187 -0.3886 -0.4934 -0.6200
  580MOL0     C78229   7.408  10.752   3.295 -0.5852  0.0989 -0.6738
  580MOL0     C78230   7.493  10.752   3.387  0.1366 -0.1491  0.9680
  580MOL0     C78231   7.024  10.893   2.636 -0.2841 -0.6851  0.1843
  580MOL0     C78232   6.899  10.947   2.606  0.0167 -0.3281 -0.4992
  580MOL0     H78233   6.436  11.032   2.483 -0.2816 -1.0753 -1.0701
  580MOL0     H78234   6.206  11.132   2.487  0.7371  1.7010  0.2638
  580MOL0     H78235   5.959  11.184   2.523  0.1451  1.7726  2.2269
  580MOL0     H78236   5.973  11.012   2.484 -2.9965 -0.6052 -0.2047
  580MOL0     H78237   5.779  11.053   2.699  2.0464 -0.6017  0.6612
  580MOL0     H78238   5.741  11.175   2.580 -0.8049  0.3350  2.9703
  580MOL0     H78239   5.746  10.993   2.402  1.6323 -0.1377  0.4064
  580MOL0     H78240   5.783  10.875   2.531  0.3492 -0.0285  0.1075
  580MOL0     H78241   5.541  10.850   2.509  1.2440 -0.7279 -2.2782
  580MOL0     H78242   5.542  10.989   2.622 -3.1463  0.5559 -1.6935
  580MOL0     H78243   5.537  11.141   2.441 -1.5263  0.2895 -0.0077
  580MOL0     H78244   5.499  11.007   2.328 -1.7212 -0.7601  0.3843
  580MOL0     H78245   5.299  11.137   2.368 -1.8916  0.0257 -0.8062
  580MOL0     H78246   5.289  10.960   2.415  2.5008 -0.4908 -2.2493
  580MOL0     H78247   5.304  11.036   2.659 -0.7961 -2.3027 -1.3342
  580MOL0     H78248   5.338  11.198   2.588 -0.1006  0.2856 -0.9964
  580MOL0     H78249   5.094  11.206   2.519 -2.2332  0.2933  1.8461
  580MOL0     H78250   5.115  11.169   2.688 -0.4720 -1.3961  0.1625
  580MOL0     H78251   4.854  11.093   2.603  0.9193  0.0791  3.5196
  580MOL0     H78252   4.774  10.704   2.556 -0.8448  1.0137 -3.9669
  580MOL0     H78253   4.703  10.811   2.688 -0.6650  1.9532 -0.5373
  580MOL0     H78254   4.721  10.900   2.402  1.3729 -1.1948  0.1120
  580MOL0     H78255   4.610  10.949   2.528 -0.8759 -1.9652  2.7587
  580MOL0     H78256   4.602  10.662   2.421  1.6803  0.8129  0.2780
  580MOL0     H78257   4.522  10.798   2.332  0.0551  1.5325  0.9839
  580MOL0     H78258   4.465  10.725   2.620  0.3698 -2.2149 -0.3855
  580MOL0     H78259   4.365  10.656   2.489  0.7575 -0.7785  0.2973
  580MOL0     H78260   4.233  10.663   2.660 -2.6825 -2.1121 -0.9749
  580MOL0     H78261   3.896  10.604   2.745 -0.2157 -0.0743  0.4375
  580MOL0     H78262   4.055  10.535   2.760 -2.6098 -1.2431 -1.6086
  580MOL0     H78263   3.983  10.635   2.890 -3.0255  2.3906 -0.7347
  580MOL0     H78264   3.652  11.200   2.751  1.4535 -0.7378 -1.9718
  580MOL0     H78265   3.389  11.237   2.787  2.1792  1.1807 -1.3256
  580MOL0     H78266   3.152  11.136   2.940  2.1677  3.5975 -1.1209
  580MOL0     H78267   3.172  11.229   2.792  0.2072 -1.0897 -3.9871
  580MOL0     H78268   2.961  11.109   2.704 -1.2063  2.1501  0.3522
  580MOL0     H78269   2.967  11.017   2.859 -2.8655  0.9918  0.7077
  580MOL0     H78270   2.951  11.327   2.836 -1.7349  1.1921 -0.1090
  580MOL0     H78271   2.941  11.250   2.980  2.0406  0.1760  0.0271
  580MOL0     H78272   2.762  11.213   2.735  1.4048 -1.2856  0.3878
  580MOL0     H78273   2.732  11.107   2.879 -4.9492 -0.0202 -3.3184
  580MOL0     H78274   2.731  11.346   2.997 -0.6618  2.1558 -0.7874
  580MOL0     H78275   2.585  11.253   2.951 -0.6758  1.9864 -1.1854
  580MOL0     H78276   2.715  11.475   2.800 -1.7571  2.0849 -3.0707
  580MOL0     H78277   2.587  11.384   2.731 -1.5604 -3.4016  0.7629
  580MOL0     H78278   2.573  11.501   3.022  0.0496 -0.3113 -0.9134
  580MOL0     H78279   2.430  11.474   2.925 -0.4223 -0.8247 -0.3976
  580MOL0     H78280   2.482  11.671   2.783 -0.0314 -1.9326  0.2914
  580MOL0     H78281   2.635  11.692   2.867  0.5490 -1.9203 -0.0881
  580MOL0     H78282   3.327  10.823   2.686 -0.1884  0.1757  0.4045
  580MOL0     H78283   3.566  10.797   2.658 -1.2739 -0.8857  0.4632
  580MOL0     H78284   3.977  11.079   2.636  1.5551  1.4749 -0.6152
  580MOL0     H78285   4.209  11.071   2.543 -4.2256  1.7154 -2.5575
  580MOL0     H78286   6.127  10.928   2.851 -0.6991  4.6882  0.9614
  580MOL0     H78287   6.359  10.826   2.837 -0.1487 -1.5910 -1.4068
  580MOL0     H78288   6.712  10.685   2.714  0.6645 -0.4586 -2.5246
  580MOL0     H78289   6.936  10.609   2.796  3.1093  1.2239  0.7897
  580MOL0     H78290   7.267  10.870   2.855 -1.1517 -0.7642  0.6579
  580MOL0     H78291   7.120  10.814   2.925 -0.9856  4.0683 -3.0507
  580MOL0     H78292   7.347  10.622   2.869  0.6699 -0.2866  1.3907
  580MOL0     H78293   7.216  10.595   2.980  0.2322 -1.0412  0.0436
  580MOL0     H78294   7.396  10.835   3.028  0.7061  0.2002  1.1862
  580MOL0     H78295   7.452  10.665   3.062  0.6102 -0.6792 -2.8256
  580MOL0     H78296   7.245  10.672   3.213 -1.2208 -0.2819 -1.7378
  580MOL0     H78297   7.248  10.854   3.195 -0.0122 -0.4089  1.4045
  580MOL0     H78298   7.561  10.761   3.469  3.2703  0.4426 -1.5017
  580MOL0     H78299   7.118  10.946   2.631  0.9519 -2.7971 -0.3051
  580MOL0     H78300   6.892  11.049   2.569 -1.5641 -0.2857 -0.1294
  581MOL0     O78301   9.978   6.778   9.511 -0.1721 -0.4930  0.6656
  581MOL0     C78302  10.012   6.664   9.550  0.0652  0.7411  0.7156
  581MOL0     O78303   9.925   6.561   9.570 -0.5857 -0.2128 -0.4357
  581MOL0     C78304   9.792   6.568   9.551  0.3669  0.1478 -0.2363
  581MOL0     C78305   9.713   6.687   9.566  0.0038 -0.2479 -0.2819
  581MOL0     C78306   9.585   6.690   9.516 -0.5402  0.2052  0.3460
  581MOL0     C78307   9.514   6.575   9.491 -0.3453  0.3668  0.0650
  581MOL0     O78308   9.381   6.558   9.460  0.4552  0.3813  0.2898
  581MOL0     C78309   9.310   6.658   9.393  0.3191  0.5840  0.0755
  581MOL0     C78310   9.200   6.612   9.297 -0.0777 -0.2526  0.3039
  581MOL0     C78311   9.092   6.535   9.371 -0.1580 -0.2611 -0.0239
  581MOL0     C78312   8.986   6.497   9.265 -0.3542  0.1167 -0.1054
  581MOL0     C78313   8.871   6.436   9.354  0.0152 -0.4780 -0.6288
  581MOL0     C78314   8.762   6.395   9.254 -0.4824  0.4797 -0.0481
  581MOL0     C78315   8.674   6.283   9.309 -0.1240 -0.5571 -1.1409
  581MOL0     C78316   8.613   6.310   9.443  0.0691 -0.6109 -0.4340
  581MOL0     N78317   8.536   6.438   9.464 -0.1536 -0.6398  0.2975
  581MOL0     C78318   8.455   6.498   9.368  0.4566 -0.6100 -0.1841
  581MOL0     C78319   8.373   6.579   9.430 -0.5618 -1.0124 -0.3288
  581MOL0     C78320   8.276   6.675   9.364  0.0599 -0.1701  0.4071
  581MOL0     C78321   8.132   6.647   9.356  0.2155 -0.1054  0.0487
  581MOL0     C78322   8.101   6.503   9.318 -0.1668  0.3575  0.1859
  581MOL0     C78323   7.948   6.493   9.297 -0.2061  0.1249 -0.2568
  581MOL0     O78324   7.924   6.352   9.282 -0.1832 -0.5152 -0.3404
  581MOL0     C78325   7.804   6.299   9.244 -0.4608  0.0100  0.1924
  581MOL0     C78326   7.695   6.371   9.193 -0.0816  0.3479 -0.0157
  581MOL0     C78327   7.578   6.298   9.141 -0.1512 -0.3690 -0.2915
  581MOL0     C78328   7.463   6.377   9.102  0.1446  0.5386  0.6664
  581MOL0     C78329   7.581   6.154   9.149  0.5140 -0.8911  0.4346
  581MOL0     C78330   7.468   6.072   9.093 -0.5897  0.0284  0.4123
  581MOL0     O78331   7.472   5.944   9.131  0.1462  0.5786 -0.3708
  581MOL0     C78332   7.381   5.852   9.074 -0.1063 -0.3158  0.0744
  581MOL0     C78333   7.344   5.756   9.164  0.0666 -0.4193 -0.1098
  581MOL0     C78334   7.276   5.641   9.119 -0.4244  0.3435  0.6313
  581MOL0     C78335   7.234   5.628   8.988 -0.0265 -0.5776  0.2747
  581MOL0     O78336   7.171   5.511   8.948 -0.1686  0.3337  0.2767
  581MOL0     C78337   7.091   5.503   8.831 -0.0317  0.0690  0.5306
  581MOL0     C78338   6.974   5.411   8.858 -0.5382 -1.1882 -0.0761
  581MOL0     C78339   6.867   5.411   8.752 -0.6363  0.1155  0.8831
  581MOL0     C78340   6.755   5.305   8.769 -0.7128 -0.4453 -0.3610
  581MOL0     C78341   6.624   5.344   8.691 -0.8580 -0.4528  0.2942
  581MOL0     C78342   6.505   5.389   8.776 -0.4601 -0.1523  1.1408
  581MOL0     C78343   6.369   5.410   8.692  0.1808 -0.2938 -0.7877
  581MOL0     C78344   6.310   5.275   8.641  0.1927 -0.0747  0.3916
  581MOL0    Cl78345   6.141   5.291   8.580 -0.4275  0.0009 -0.2134
  581MOL0     C78346   7.266   5.728   8.898  0.3782 -0.2837  0.3763
  581MOL0     C78347   7.349   5.833   8.938  0.2750 -0.7556  0.4251
  581MOL0     O78348   7.388   6.121   9.018 -0.1606  0.2034 -0.2068
  581MOL0     C78349   7.688   6.093   9.206  0.2521 -0.0738  0.1156
  581MOL0     C78350   7.797   6.161   9.235  0.0684 -0.3474 -0.0479
  581MOL0     N78351   8.414   6.578   9.566 -0.1964  0.6253  0.0475
  581MOL0     N78352   8.515   6.499   9.587  0.4850 -0.6355  0.4540
  581MOL0     C78353   9.589   6.451   9.501 -0.7546 -0.6645  1.0967
  581MOL0     C78354   9.724   6.451   9.519  0.1338  0.2517  0.0703
  581MOL0     C78355  10.154   6.641   9.571 -0.0612  0.1986 -0.9019
  581MOL0     C78356  10.253   6.742   9.540  0.0319  0.8702 -0.0956
  581MOL0     C78357  10.385   6.703   9.563 -0.1118  0.4318 -0.3011
  581MOL0     C78358  10.429   6.578   9.605  1.4175  0.3724 -0.8536
  581MOL0     O78359  10.560   6.539   9.638  0.3378  0.0424  0.3073
  581MOL0     C78360  10.671   6.629   9.629  0.2188  0.5491  0.1222
  581MOL0     C78361  10.783   6.568   9.714 -1.3311 -0.2502  0.4955
  581MOL0     C78362  10.913   6.654   9.711  0.6023 -0.4853 -0.2590
  581MOL0     C78363  11.015   6.615   9.821 -0.7213  0.0486  0.5204
  581MOL0     C78364  11.126   6.544   9.766  0.4951  0.6629  0.4908
  581MOL0     C78365  11.221   6.491   9.708  0.2033  0.1186  0.5110
  581MOL0     C78366  10.330   6.488   9.650 -0.3815 -0.2812 -0.5220
  581MOL0     C78367  10.193   6.513   9.626 -0.8856  0.3505 -0.0680
  581MOL0     H78368   9.761   6.781   9.591 -1.0181  0.7448 -1.8830
  581MOL0     H78369   9.536   6.787   9.517 -0.4272  0.3036 -1.1854
  581MOL0     H78370   9.267   6.726   9.468 -0.7478  0.0441 -0.0445
  581MOL0     H78371   9.383   6.708   9.329  2.5446 -3.0907 -0.5206
  581MOL0     H78372   9.157   6.705   9.257 -3.8259 -1.3105  1.4167
  581MOL0     H78373   9.243   6.555   9.215  0.1532  0.5486 -0.1374
  581MOL0     H78374   9.139   6.441   9.404 -0.0327 -0.2268 -0.1017
  581MOL0     H78375   9.054   6.591   9.456 -1.0225  0.4934 -0.8981
  581MOL0     H78376   8.952   6.582   9.206 -0.1254 -0.3375 -0.9088
  581MOL0     H78377   9.027   6.418   9.202  1.6570  0.1057  1.1325
  581MOL0     H78378   8.919   6.357   9.412  3.3477  1.7566 -0.0309
  581MOL0     H78379   8.840   6.507   9.432  1.9583 -0.0353 -0.2082
  581MOL0     H78380   8.704   6.478   9.214 -0.1965  0.0303 -1.4510
  581MOL0     H78381   8.811   6.350   9.167  0.6503  3.0665 -0.8431
  581MOL0     H78382   8.594   6.263   9.237 -0.2598 -0.1301 -1.1075
  581MOL0     H78383   8.725   6.186   9.316 -2.5084 -1.7560  1.4595
  581MOL0     H78384   8.702   6.316   9.507 -1.1463  2.2138  1.1413
  581MOL0     H78385   8.553   6.220   9.456 -1.1194 -0.5961 -4.4295
  581MOL0     H78386   8.450   6.478   9.262 -0.2302  1.5662 -0.6256
  581MOL0     H78387   8.289   6.770   9.418 -1.8029 -0.5478  1.6129
  581MOL0     H78388   8.318   6.684   9.263 -0.7253  0.0923  0.1005
  581MOL0     H78389   8.078   6.724   9.300 -0.7085 -0.3588  0.5678
  581MOL0     H78390   8.099   6.670   9.458  0.9145 -0.2121  0.3078
  581MOL0     H78391   8.129   6.440   9.403  0.5968  0.9434  0.3791
  581MOL0     H78392   8.158   6.461   9.235 -0.4113 -1.1360  0.7357
  581MOL0     H78393   7.922   6.565   9.219  0.5427  3.2511  2.1651
  581MOL0     H78394   7.886   6.533   9.378 -0.9530  1.1213 -1.2931
  581MOL0     H78395   7.711   6.478   9.183 -0.4037  0.5788  1.5761
  581MOL0     H78396   7.486   6.480   9.129 -0.2253  0.3732  1.6562
  581MOL0     H78397   7.463   6.373   8.993 -1.5098  0.7036  0.6342
  581MOL0     H78398   7.368   6.337   9.140  0.3956  0.4673  1.2240
  581MOL0     H78399   7.383   5.747   9.265  0.9275 -2.3466 -0.5526
  581MOL0     H78400   7.255   5.556   9.183  2.2429 -0.8743  0.0203
  581MOL0     H78401   7.041   5.596   8.800  0.3589 -0.0981 -0.6630
  581MOL0     H78402   7.154   5.471   8.747 -0.6576 -1.0228  0.4586
  581MOL0     H78403   7.011   5.310   8.878 -1.3056 -1.4330  0.1207
  581MOL0     H78404   6.930   5.446   8.952  0.8035 -0.4734  0.3231
  581MOL0     H78405   6.915   5.383   8.658  0.0040 -1.6127  1.6819
  581MOL0     H78406   6.823   5.509   8.734 -0.9087 -0.2625 -0.6146
  581MOL0     H78407   6.793   5.207   8.740  1.1677 -0.7893  2.8234
  581MOL0     H78408   6.725   5.320   8.873 -0.5780  1.5453 -0.5806
  581MOL0     H78409   6.587   5.251   8.647 -4.2213 -0.6382  3.1582
  581MOL0     H78410   6.654   5.418   8.616 -0.4321  0.3319  1.2316
  581MOL0     H78411   6.478   5.316   8.853 -2.6361  0.8268  1.3835
  581MOL0     H78412   6.530   5.484   8.825 -1.1418  0.4431  0.3656
  581MOL0     H78413   6.381   5.475   8.605 -0.3437  0.2548 -0.4552
  581MOL0     H78414   6.293   5.451   8.759  0.1637  0.3151 -1.1679
  581MOL0     H78415   6.311   5.217   8.733 -1.7162  2.9863  2.5671
  581MOL0     H78416   6.366   5.229   8.559  0.9867 -1.1015  1.4784
  581MOL0     H78417   7.243   5.708   8.793  1.0419 -0.4799  0.2647
  581MOL0     H78418   7.377   5.891   8.851 -6.0539 -0.7496 -2.1843
  581MOL0     H78419   7.688   5.986   9.226  0.8194  0.0806  1.0298
  581MOL0     H78420   7.879   6.092   9.253 -1.4996 -2.3535 -0.2381
  581MOL0     H78421   9.537   6.357   9.486 -0.7968 -0.5288  0.3754
  581MOL0     H78422   9.777   6.358   9.500 -1.3296 -0.2125 -2.2318
  581MOL0     H78423  10.235   6.841   9.500  2.4215  1.7355  0.8048
  581MOL0     H78424  10.461   6.775   9.534 -1.6236  1.0066 -3.2637
  581MOL0     H78425  10.698   6.639   9.524 -3.3202  1.1657 -0.8664
  581MOL0     H78426  10.638   6.725   9.670 -0.9528  0.2662 -0.1250
  581MOL0     H78427  10.805   6.473   9.664 -2.9015 -0.1888 -0.3751
  581MOL0     H78428  10.748   6.556   9.817 -1.3961  1.2889  0.6822
  581MOL0     H78429  10.880   6.757   9.722 -1.9340 -1.2345 -0.1839
  581MOL0     H78430  10.961   6.646   9.613  0.4328  0.6926 -0.4455
  581MOL0     H78431  10.968   6.551   9.896 -0.9072 -0.8194 -0.3178
  581MOL0     H78432  11.062   6.701   9.869 -1.6340  0.4727  0.6816
  581MOL0     H78433  11.300   6.450   9.647 -0.6621 -1.3466  0.3358
  581MOL0     H78434  10.339   6.394   9.704  2.6006 -0.1089 -0.5592
  581MOL0     H78435  10.117   6.442   9.658 -0.5088 -2.6500 -4.8532
  582MOL0     O78436   2.289   0.998   9.613  0.6952 -0.3309  0.3234
  582MOL0     C78437   2.343   0.970   9.504  0.8495 -0.2636 -0.2088
  582MOL0     O78438   2.278   0.986   9.381 -0.5554  0.1614 -0.5536
  582MOL0     C78439   2.153   1.041   9.368 -0.1833  0.3261 -0.1468
  582MOL0     C78440   2.037   1.007   9.449  0.1610 -0.1967 -0.7213
  582MOL0     C78441   1.913   1.064   9.426 -0.5558  0.0013 -0.8856
  582MOL0     C78442   1.892   1.157   9.329  0.3734 -0.0361  0.1422
  582MOL0     O78443   1.774   1.215   9.313  0.2207 -0.1694  0.0254
  582MOL0     C78444   1.741   1.310   9.414  0.0188 -0.8006 -0.4981
  582MOL0     C78445   1.584   1.320   9.409  0.6692  0.7649 -0.7179
  582MOL0     C78446   1.554   1.434   9.503  0.0611  0.0233  0.3458
  582MOL0     C78447   1.534   1.401   9.648 -0.0100  0.0970  0.7871
  582MOL0     C78448   1.494   1.527   9.727  0.0304  0.3873  0.5816
  582MOL0     C78449   1.475   1.482   9.872  0.6673 -0.4589 -0.1085
  582MOL0     C78450   1.457   1.608   9.962  0.6008 -0.2616  0.6208
  582MOL0     C78451   1.390   1.580  10.098  0.3641  0.3423  0.3452
  582MOL0     N78452   1.263   1.506  10.093  0.0683  0.4381 -0.3613
  582MOL0     C78453   1.146   1.552  10.041 -0.1432 -0.6898 -0.0649
  582MOL0     C78454   1.063   1.447  10.014  0.4034 -0.2862 -0.4312
  582MOL0     C78455   0.930   1.442   9.948  0.2150  0.8439  0.0031
  582MOL0     C78456   0.874   1.581   9.949 -0.2833 -0.4045  0.0073
  582MOL0     C78457   0.725   1.582   9.916  0.4939  0.0987  0.5201
  582MOL0     C78458   0.700   1.543   9.773  0.8543  0.1214  0.6028
  582MOL0     O78459   0.575   1.598   9.737 -0.2573  0.0001 -0.6213
  582MOL0     C78460   0.470   1.506   9.718 -0.5223  0.0768 -0.4750
  582MOL0     C78461   0.360   1.539   9.637  0.4432  0.2693 -0.0970
  582MOL0     C78462   0.235   1.463   9.639 -0.8343 -0.3990  0.6546
  582MOL0     C78463   0.124   1.528   9.568 -0.2090 -0.1977  0.4898
  582MOL0     C78464   0.233   1.355   9.729  0.4750 -0.3301  0.3030
  582MOL0     C78465   0.108   1.271   9.721  0.2252 -0.5190  0.1914
  582MOL0     O78466   0.056   1.236   9.601 -0.0094 -0.2430 -0.0446
  582MOL0     C78467  -0.071   1.206   9.589  0.6142  0.2417 -0.1465
  582MOL0     C78468  -0.173   1.301   9.610 -0.2379  1.0219  0.2381
  582MOL0     C78469  -0.304   1.263   9.613 -0.0658 -0.4557  0.4441
  582MOL0     C78470  -0.337   1.131   9.611 -0.1985 -0.5577  0.2045
  582MOL0     O78471  -0.471   1.118   9.598 -0.2858  0.5002  0.6263
  582MOL0     C78472  -0.515   0.998   9.522 -0.4520 -0.1565 -0.1990
  582MOL0     C78473  -0.665   1.003   9.526  0.1467 -0.6467  0.5526
  582MOL0     C78474  -0.729   0.865   9.515  0.4796 -0.0774  0.3099
  582MOL0     C78475  -0.682   0.797   9.388  0.1552  0.0934  0.4195
  582MOL0     C78476  -0.745   0.659   9.376  0.5037  0.1769  0.1408
  582MOL0     C78477  -0.696   0.608   9.237 -0.0553  0.0584 -0.3698
  582MOL0     C78478  -0.728   0.465   9.212 -0.3929 -0.3471  0.9345
  582MOL0     C78479  -0.878   0.437   9.231 -0.3546  0.5919 -0.6235
  582MOL0    Cl78480  -0.913   0.270   9.158 -0.4071 -0.3128  0.3888
  582MOL0     C78481  -0.242   1.035   9.592  0.5130  0.6219  2.0646
  582MOL0     C78482  -0.108   1.066   9.584 -0.4777 -1.6283 -0.5862
  582MOL0     O78483   0.057   1.238   9.830 -0.0925  1.0196 -0.8948
  582MOL0     C78484   0.336   1.324   9.814  0.6387  0.3235 -0.4272
  582MOL0     C78485   0.450   1.401   9.806 -0.7463 -1.0526 -0.1842
  582MOL0     N78486   1.136   1.335  10.067 -0.3262 -0.2330  0.2214
  582MOL0     N78487   1.248   1.372  10.113 -0.0028 -0.2970  0.6771
  582MOL0     C78488   1.993   1.173   9.234  0.9341  0.0967  0.7818
  582MOL0     C78489   2.120   1.127   9.261 -0.1139 -0.1809 -0.2255
  582MOL0     C78490   2.470   0.895   9.493  0.2893 -0.0647  0.5134
  582MOL0     C78491   2.522   0.816   9.601 -0.2267  0.7871 -0.2791
  582MOL0     C78492   2.638   0.737   9.586 -0.0788 -0.1021  0.1998
  582MOL0     C78493   2.715   0.734   9.474  0.4806 -0.5427  0.1003
  582MOL0     O78494   2.840   0.681   9.473  0.6004  0.2136 -0.3297
  582MOL0     C78495   2.851   0.535   9.470  0.8030 -0.0498 -0.2782
  582MOL0     C78496   2.977   0.501   9.387 -0.0177  0.2484  1.3398
  582MOL0     C78497   2.960   0.527   9.239  0.5459 -0.3051  0.0846
  582MOL0     C78498   3.066   0.447   9.159  0.5854 -0.2555  0.0310
  582MOL0     C78499   3.199   0.478   9.212  0.3616 -0.0106 -0.2329
  582MOL0     C78500   3.306   0.526   9.253  0.6043  0.7586 -0.2763
  582MOL0     C78501   2.679   0.814   9.365 -0.1245  0.6564  0.4583
  582MOL0     C78502   2.553   0.890   9.376 -0.2038 -0.1116  0.3820
  582MOL0     H78503   2.063   0.946   9.535 -0.3384  0.7294  0.1049
  582MOL0     H78504   1.824   1.039   9.483  0.3308  0.1650  0.6120
  582MOL0     H78505   1.766   1.270   9.512 -0.6118 -1.6304 -0.6609
  582MOL0     H78506   1.788   1.408   9.397 -0.5129  0.1028  2.6140
  582MOL0     H78507   1.543   1.347   9.311 -1.9622 -0.6271 -0.0869
  582MOL0     H78508   1.539   1.225   9.439  0.3368  0.5303 -1.8900
  582MOL0     H78509   1.633   1.510   9.497 -0.4183  0.5712  0.7517
  582MOL0     H78510   1.471   1.488   9.457  3.3455  3.7686 -1.8200
  582MOL0     H78511   1.467   1.318   9.673 -1.3483  1.2480  1.1577
  582MOL0     H78512   1.632   1.374   9.689  0.6659 -0.1872 -0.9291
  582MOL0     H78513   1.564   1.611   9.725 -1.5117  1.7222  1.2654
  582MOL0     H78514   1.396   1.563   9.696 -0.2174  1.7819  2.7692
  582MOL0     H78515   1.390   1.414   9.879  1.7989 -1.8430  0.8920
  582MOL0     H78516   1.566   1.434   9.909  0.1475 -0.6429  0.9541
  582MOL0     H78517   1.553   1.658   9.976  1.3446 -1.1562 -1.0923
  582MOL0     H78518   1.390   1.669   9.901  0.9336 -0.4371  0.0812
  582MOL0     H78519   1.365   1.678  10.141 -2.7234 -0.7827  1.3680
  582MOL0     H78520   1.457   1.521  10.162 -0.4125  0.9975  1.8101
  582MOL0     H78521   1.126   1.655  10.015 -0.2757 -0.7267 -0.1109
  582MOL0     H78522   0.937   1.402   9.846  1.8447 -0.4894  0.5929
  582MOL0     H78523   0.860   1.381  10.006 -1.3998  0.4961 -2.1762
  582MOL0     H78524   0.924   1.644   9.876  1.2929 -0.0706  1.3167
  582MOL0     H78525   0.877   1.638  10.042 -3.4111  0.7252 -0.4643
  582MOL0     H78526   0.692   1.686   9.925 -2.7729 -0.6296 -1.3524
  582MOL0     H78527   0.660   1.524   9.982 -1.2122  0.3801 -0.8482
  582MOL0     H78528   0.716   1.435   9.777 -1.0264 -0.3283 -1.5919
  582MOL0     H78529   0.773   1.574   9.696  1.7697  0.5528  1.6202
  582MOL0     H78530   0.367   1.633   9.583 -0.2580  1.2115  1.4089
  582MOL0     H78531   0.048   1.470   9.514 -0.1616  2.2799 -2.4904
  582MOL0     H78532   0.077   1.603   9.632  1.7922  2.1690 -0.6953
  582MOL0     H78533   0.171   1.578   9.483 -2.4710 -0.2676 -0.8978
  582MOL0     H78534  -0.164   1.408   9.629 -1.0744  0.9419  1.1912
  582MOL0     H78535  -0.380   1.338   9.635  1.1936  0.0081  3.8778
  582MOL0     H78536  -0.479   1.017   9.421 -2.2873 -1.6019 -1.1858
  582MOL0     H78537  -0.476   0.903   9.559 -1.5759  0.0429  1.6458
  582MOL0     H78538  -0.694   1.062   9.613  1.1029  1.0520 -0.2163
  582MOL0     H78539  -0.691   1.066   9.440 -0.2635 -2.0109 -0.3612
  582MOL0     H78540  -0.837   0.871   9.502  0.5705  0.1823 -0.3501
  582MOL0     H78541  -0.706   0.810   9.607  2.6877 -1.2441 -0.8422
  582MOL0     H78542  -0.718   0.850   9.300 -0.4566  0.5488  0.9303
  582MOL0     H78543  -0.574   0.790   9.380  0.2950 -0.4927  2.2428
  582MOL0     H78544  -0.853   0.659   9.393  0.0670 -3.3883 -1.6565
  582MOL0     H78545  -0.706   0.586   9.447 -0.8973 -5.2842 -3.9824
  582MOL0     H78546  -0.739   0.665   9.154 -1.1829  1.4818  1.1277
  582MOL0     H78547  -0.589   0.627   9.245  0.2945 -1.9721  0.2777
  582MOL0     H78548  -0.670   0.401   9.279 -1.1915 -0.9839  1.0283
  582MOL0     H78549  -0.701   0.441   9.109 -2.7307 -0.4865  0.3028
  582MOL0     H78550  -0.937   0.505   9.169 -1.8693 -1.7615 -1.9597
  582MOL0     H78551  -0.925   0.443   9.330 -1.7534 -0.7864 -1.1524
  582MOL0     H78552  -0.273   0.934   9.565 -2.7898  0.7010  4.8719
  582MOL0     H78553  -0.037   0.986   9.567  1.2149 -0.3640  0.1415
  582MOL0     H78554   0.320   1.242   9.883 -1.4437 -0.2161 -1.4617
  582MOL0     H78555   0.532   1.378   9.873  0.6130 -0.7607 -1.6933
  582MOL0     H78556   1.979   1.243   9.152  2.8415  2.0734  2.0245
  582MOL0     H78557   2.193   1.145   9.183 -1.2406 -1.9260 -1.7879
  582MOL0     H78558   2.462   0.823   9.691  0.5184  0.7023  0.2394
  582MOL0     H78559   2.678   0.696   9.678  1.3790  0.7307 -0.0369
  582MOL0     H78560   2.866   0.495   9.571  2.0155 -0.9535 -0.7895
  582MOL0     H78561   2.760   0.487   9.433 -0.8814  1.1301  2.0277
  582MOL0     H78562   3.002   0.396   9.407 -0.2775 -0.5314 -1.9297
  582MOL0     H78563   3.067   0.557   9.417  1.9955 -2.2968  0.4266
  582MOL0     H78564   2.985   0.632   9.225 -1.4888  0.1450 -0.5798
  582MOL0     H78565   2.858   0.513   9.202  0.0121 -2.9639  2.1780
  582MOL0     H78566   3.051   0.473   9.054  1.6956  0.0040 -0.0750
  582MOL0     H78567   3.043   0.340   9.169 -2.1192  0.3034  0.5715
  582MOL0     H78568   3.408   0.547   9.279  0.8722  0.3864 -1.0086
  582MOL0     H78569   2.746   0.794   9.282  1.4970  0.9494  1.6376
  582MOL0     H78570   2.521   0.930   9.280  0.7042  0.4514  0.3091
  583MOL0     O78571   3.164   2.446   3.335 -0.2325 -0.1807 -0.5865
  583MOL0     C78572   3.215   2.359   3.269 -0.1777  0.1291  0.2567
  583MOL0     O78573   3.169   2.233   3.256 -0.3898  0.6302  0.4258
  583MOL0     C78574   3.057   2.204   3.321 -0.4045 -0.0437 -0.7736
  583MOL0     C78575   3.085   2.131   3.437 -0.6908 -0.4788  0.7269
  583MOL0     C78576   2.979   2.081   3.503 -0.2799  0.1056 -0.2814
  583MOL0     C78577   2.843   2.109   3.467  0.1066 -0.1211 -0.4295
  583MOL0     O78578   2.747   2.046   3.534  0.4212 -0.1882 -0.1886
  583MOL0     C78579   2.633   1.992   3.459 -0.5743  0.4953 -0.7587
  583MOL0     C78580   2.559   1.906   3.561  0.2936 -0.4737  0.4815
  583MOL0     C78581   2.423   1.853   3.510 -0.4330 -0.2831 -0.5004
  583MOL0     C78582   2.330   1.838   3.630 -0.6148 -0.2377 -0.3303
  583MOL0     C78583   2.202   1.770   3.587 -0.8275 -0.1564 -0.8707
  583MOL0     C78584   2.105   1.768   3.704 -0.4059 -0.7437 -0.0353
  583MOL0     C78585   1.989   1.681   3.677 -1.3307 -0.9302  0.1009
  583MOL0     C78586   1.908   1.669   3.805  0.0673 -0.4271 -0.8328
  583MOL0     N78587   1.783   1.592   3.798 -0.7350  0.1703  0.3109
  583MOL0     C78588   1.682   1.587   3.892 -0.4252  0.3212  0.6253
  583MOL0     C78589   1.587   1.509   3.841  0.9100  0.0423 -0.5893
  583MOL0     C78590   1.453   1.483   3.915  0.1865  0.4107  0.8885
  583MOL0     C78591   1.351   1.582   3.871  1.1621 -0.0779  0.1383
  583MOL0     C78592   1.354   1.716   3.946 -0.5692 -0.2604 -0.3633
  583MOL0     C78593   1.256   1.816   3.887  0.3724 -0.4633 -0.5299
  583MOL0     O78594   1.266   1.948   3.948  0.4462  0.3654  0.1302
  583MOL0     C78595   1.150   2.014   3.973  0.1206  0.3319  0.1434
  583MOL0     C78596   1.132   2.084   4.087 -0.3710 -0.0158  0.3770
  583MOL0     C78597   1.026   2.163   4.123 -0.5748  1.0284 -0.6469
  583MOL0     C78598   1.045   2.238   4.254  0.3007  0.0804  0.7891
  583MOL0     C78599   0.921   2.158   4.027  0.0989 -0.2237 -1.1247
  583MOL0     C78600   0.793   2.238   4.055  0.4762 -0.8067 -0.3960
  583MOL0     O78601   0.774   2.329   4.160  0.0354  0.1323 -0.3792
  583MOL0     C78602   0.676   2.422   4.157  1.2501 -0.5566  0.1307
  583MOL0     C78603   0.654   2.505   4.047  0.0993 -0.7088 -0.0152
  583MOL0     C78604   0.559   2.608   4.053  0.2992 -0.2637 -0.0780
  583MOL0     C78605   0.483   2.636   4.172 -0.3686  0.7938 -0.2995
  583MOL0     O78606   0.388   2.743   4.174 -0.4600 -0.1001 -0.5084
  583MOL0     C78607   0.302   2.764   4.284 -0.3402  0.1577  0.8171
  583MOL0     C78608   0.237   2.898   4.267  0.1781 -0.6605 -0.0213
  583MOL0     C78609   0.092   2.901   4.242 -0.2189  0.0815 -0.1833
  583MOL0     C78610   0.046   3.046   4.215  0.4018 -0.2688 -0.7305
  583MOL0     C78611  -0.093   3.063   4.169 -0.2440 -0.8586  0.2657
  583MOL0     C78612  -0.200   2.992   4.259  0.2462 -0.0442  0.8052
  583MOL0     C78613  -0.335   2.988   4.192  0.5755  0.0084 -0.1759
  583MOL0     C78614  -0.438   2.913   4.272  1.4147  0.8664 -0.2371
  583MOL0    Cl78615  -0.601   2.934   4.196 -0.0521  0.1090 -0.1635
  583MOL0     C78616   0.501   2.543   4.282 -0.1198 -0.2550 -0.2090
  583MOL0     C78617   0.591   2.440   4.271 -0.3389 -0.0825  0.8321
  583MOL0     O78618   0.706   2.216   3.968 -0.4119  0.4659  0.0135
  583MOL0     C78619   0.935   2.074   3.911 -0.2877  0.3783  0.3982
  583MOL0     C78620   1.053   2.010   3.876  0.7008 -1.0413  0.2479
  583MOL0     N78621   1.631   1.457   3.721  0.1701  0.0240  0.0155
  583MOL0     N78622   1.753   1.508   3.696 -1.2228  0.2577 -0.1882
  583MOL0     C78623   2.815   2.185   3.355 -0.4816  0.4560  0.1568
  583MOL0     C78624   2.928   2.222   3.275  0.8912  0.4717  0.2504
  583MOL0     C78625   3.339   2.394   3.197  0.3326  0.0644  0.2657
  583MOL0     C78626   3.435   2.295   3.158  0.9001  0.2096 -0.1092
  583MOL0     C78627   3.557   2.327   3.099  0.2107  0.4576 -0.5027
  583MOL0     C78628   3.587   2.463   3.076 -0.3793 -0.5474  0.4987
  583MOL0     O78629   3.704   2.506   3.007 -0.6347 -0.2983 -0.6585
  583MOL0     C78630   3.804   2.411   2.963  0.2937 -0.6389 -1.4449
  583MOL0     C78631   3.834   2.443   2.816 -0.4324  0.5353 -0.5065
  583MOL0     C78632   3.758   2.342   2.732  0.4134 -0.0011  0.0565
  583MOL0     C78633   3.791   2.355   2.585  0.2907 -0.3074 -0.1257
  583MOL0     C78634   3.746   2.481   2.520 -0.2845  1.0269  0.7069
  583MOL0     C78635   3.730   2.596   2.472  1.0379  0.4913 -0.8144
  583MOL0     C78636   3.498   2.562   3.120  0.3607  0.0460 -0.5205
  583MOL0     C78637   3.382   2.527   3.178 -0.0378  0.1836 -0.3550
  583MOL0     H78638   3.191   2.113   3.453 -0.2042 -1.9310 -3.1472
  583MOL0     H78639   2.997   2.031   3.598  0.4369 -0.0319 -0.4869
  583MOL0     H78640   2.561   2.065   3.421 -2.6622 -0.4390  1.1819
  583MOL0     H78641   2.659   1.919   3.382  0.1409  0.3681 -0.4017
  583MOL0     H78642   2.621   1.820   3.588  5.5271  2.0029 -2.1325
  583MOL0     H78643   2.543   1.967   3.651  0.3733 -0.7679  0.6985
  583MOL0     H78644   2.372   1.917   3.437  1.6313 -0.2986 -2.0655
  583MOL0     H78645   2.438   1.757   3.460  3.0862 -0.7626  1.1659
  583MOL0     H78646   2.385   1.785   3.709  2.1617  4.0438  0.9524
  583MOL0     H78647   2.308   1.937   3.670 -0.8104 -1.0947  1.8098
  583MOL0     H78648   2.156   1.814   3.498 -1.0285  1.5829  0.0384
  583MOL0     H78649   2.228   1.669   3.555 -3.1183 -1.8327  2.0860
  583MOL0     H78650   2.159   1.729   3.790  0.8180  1.2035  0.1637
  583MOL0     H78651   2.065   1.868   3.726 -0.8900 -0.8154 -0.5749
  583MOL0     H78652   1.934   1.720   3.591 -2.0105 -4.5272 -1.3023
  583MOL0     H78653   2.023   1.582   3.646  0.7478  0.1373 -1.2309
  583MOL0     H78654   1.892   1.766   3.853  2.0156 -1.1271  1.4201
  583MOL0     H78655   1.968   1.622   3.883 -1.0575 -0.8815 -0.2220
  583MOL0     H78656   1.689   1.636   3.988  1.3891 -2.4560  2.0287
  583MOL0     H78657   1.417   1.383   3.888  1.7247  0.9070 -3.9643
  583MOL0     H78658   1.473   1.495   4.021  2.5106  1.1104  0.4330
  583MOL0     H78659   1.253   1.539   3.892  0.4995  1.0169 -0.5792
  583MOL0     H78660   1.358   1.608   3.765  3.9869 -0.7028  0.1057
  583MOL0     H78661   1.453   1.761   3.939 -0.7115  0.3297  1.0288
  583MOL0     H78662   1.340   1.694   4.053 -3.7878  3.9459  0.3250
  583MOL0     H78663   1.156   1.773   3.897  0.3213 -0.3888 -0.7143
  583MOL0     H78664   1.276   1.832   3.781 -0.6235  2.1323 -0.4108
  583MOL0     H78665   1.210   2.074   4.162 -0.1946 -1.9979 -0.0174
  583MOL0     H78666   1.051   2.346   4.239 -1.7446  0.3685  1.6862
  583MOL0     H78667   0.971   2.205   4.328  0.3166 -0.3960  0.5986
  583MOL0     H78668   1.140   2.223   4.306  1.5543  2.2704 -0.7142
  583MOL0     H78669   0.725   2.496   3.965 -1.5270 -0.6690 -1.4751
  583MOL0     H78670   0.552   2.668   3.963 -0.0935 -0.1327  0.0378
  583MOL0     H78671   0.227   2.685   4.292  1.4201 -1.5923  0.7088
  583MOL0     H78672   0.363   2.758   4.375 -0.8589 -1.0745  1.1038
  583MOL0     H78673   0.249   2.946   4.365 -1.0545 -1.0500  0.3412
  583MOL0     H78674   0.280   2.966   4.193 -3.8792 -0.3823 -2.4261
  583MOL0     H78675   0.051   2.871   4.339 -0.6998 -2.3469 -1.0588
  583MOL0     H78676   0.062   2.836   4.159  0.7809 -0.0841 -0.4291
  583MOL0     H78677   0.064   3.107   4.304  0.2737 -1.6330  0.2632
  583MOL0     H78678   0.106   3.085   4.133  1.1982  2.2153  0.9236
  583MOL0     H78679  -0.107   3.033   4.065 -0.7231  0.9628 -0.2328
  583MOL0     H78680  -0.115   3.170   4.168  0.2795 -0.7495 -0.4695
  583MOL0     H78681  -0.172   2.889   4.286  0.6693  0.2376  1.4631
  583MOL0     H78682  -0.215   3.037   4.357 -1.5967  0.4100  0.3505
  583MOL0     H78683  -0.342   2.943   4.092  1.3403 -0.1392 -0.1664
  583MOL0     H78684  -0.364   3.093   4.185 -0.5957 -0.3672 -1.4404
  583MOL0     H78685  -0.438   2.950   4.375  0.6821 -0.9449  0.4495
  583MOL0     H78686  -0.414   2.807   4.282 -3.0682 -0.5732 -2.2524
  583MOL0     H78687   0.445   2.549   4.374  1.9875 -2.6804  1.3582
  583MOL0     H78688   0.601   2.366   4.350 -1.7716 -1.8545 -0.5401
  583MOL0     H78689   0.858   2.063   3.835 -0.6244 -1.0367  0.9167
  583MOL0     H78690   1.058   1.958   3.780  0.1701  2.4917 -1.8811
  583MOL0     H78691   2.711   2.208   3.336 -0.8701 -2.2688 -1.5655
  583MOL0     H78692   2.914   2.265   3.177 -0.1212 -1.2709 -0.4115
  583MOL0     H78693   3.407   2.195   3.190 -2.9884  1.5072  1.2003
  583MOL0     H78694   3.613   2.238   3.074 -2.1182 -1.6407  1.1907
  583MOL0     H78695   3.890   2.427   3.028 -0.3398 -0.8560 -0.5307
  583MOL0     H78696   3.768   2.309   2.976 -3.5451  0.6116 -1.1472
  583MOL0     H78697   3.941   2.432   2.796 -0.5971  0.4701 -1.4034
  583MOL0     H78698   3.791   2.542   2.800  2.7213  2.3161  1.1209
  583MOL0     H78699   3.652   2.361   2.745  0.0521 -1.0606 -1.0993
  583MOL0     H78700   3.784   2.244   2.771  0.5294  1.3300  3.7381
  583MOL0     H78701   3.759   2.271   2.523  0.9342 -0.3770 -0.3731
  583MOL0     H78702   3.899   2.338   2.586  0.4399  0.3976  2.4005
  583MOL0     H78703   3.715   2.697   2.438 -0.1683  1.1328  1.4303
  583MOL0     H78704   3.530   2.666   3.116  0.4134  0.3543  3.6117
  583MOL0     H78705   3.313   2.605   3.208  0.4580  1.8511 -3.1815
  584MOL0     O78706   1.302   2.159   6.378 -0.4019 -0.2657  0.2959
  584MOL0     C78707   1.312   2.227   6.476 -0.2006 -0.3403  0.3136
  584MOL0     O78708   1.216   2.319   6.518  0.8594 -0.3268  0.1107
  584MOL0     C78709   1.106   2.336   6.440  0.3599 -0.5144 -0.0584
  584MOL0     C78710   1.029   2.242   6.374  0.4572 -0.1301  0.1402
  584MOL0     C78711   0.907   2.275   6.304  0.7711  0.2364 -0.0359
  584MOL0     C78712   0.869   2.406   6.299 -0.3717 -0.3022 -0.5450
  584MOL0     O78713   0.753   2.444   6.241 -0.6132 -0.0366  0.6930
  584MOL0     C78714   0.638   2.429   6.326 -0.2148  0.9340 -0.1122
  584MOL0     C78715   0.511   2.497   6.270  0.3667 -1.1259  0.4851
  584MOL0     C78716   0.496   2.646   6.320 -0.1011  0.1600  0.2071
  584MOL0     C78717   0.367   2.702   6.251  1.1841  0.8139  0.1821
  584MOL0     C78718   0.341   2.845   6.312 -0.5068 -0.0575 -0.2927
  584MOL0     C78719   0.192   2.874   6.331  1.0881  0.6960  0.5305
  584MOL0     C78720   0.162   3.022   6.347 -0.2859 -0.2768  0.1015
  584MOL0     C78721   0.240   3.098   6.453  0.2371 -0.5991  0.2034
  584MOL0     N78722   0.217   3.041   6.588  0.2233 -0.3980  0.5302
  584MOL0     C78723   0.134   3.092   6.685  0.6721 -0.8632  0.7482
  584MOL0     C78724   0.151   3.005   6.786 -0.9768  0.3705 -0.3212
  584MOL0     C78725   0.128   3.030   6.931  0.7499  0.2940 -0.3738
  584MOL0     C78726   0.053   2.915   7.014 -0.0191  0.8475 -0.3409
  584MOL0     C78727   0.038   2.958   7.163  0.3728  0.0084  0.0591
  584MOL0     C78728  -0.084   2.878   7.218 -0.1847 -0.3465  0.4465
  584MOL0     O78729  -0.028   2.780   7.305 -0.1713  0.0807  0.5752
  584MOL0     C78730  -0.107   2.679   7.329 -0.6248  0.4970 -0.0019
  584MOL0     C78731  -0.044   2.555   7.350  0.3220  0.0576  0.1135
  584MOL0     C78732  -0.117   2.437   7.362  1.2913  0.3488 -0.5819
  584MOL0     C78733  -0.042   2.304   7.377 -0.4437  0.7883 -0.6300
  584MOL0     C78734  -0.260   2.443   7.353  0.4447  0.2947 -0.0526
  584MOL0     C78735  -0.352   2.325   7.335 -0.4015  0.0044 -0.4447
  584MOL0     O78736  -0.490   2.351   7.309 -0.0352  0.7473  0.1875
  584MOL0     C78737  -0.584   2.252   7.286  0.6618 -0.8618  0.4637
  584MOL0     C78738  -0.548   2.112   7.255  0.3535  0.1200  0.6631
  584MOL0     C78739  -0.658   2.024   7.229 -1.0969  0.0137  0.0531
  584MOL0     C78740  -0.788   2.069   7.242 -0.2909 -0.0342 -0.5474
  584MOL0     O78741  -0.898   1.980   7.210 -0.3575  0.2979 -0.0556
  584MOL0     C78742  -1.026   2.015   7.258 -0.1861  0.3060  0.8289
  584MOL0     C78743  -1.114   1.885   7.246  0.5886 -0.6316  0.4966
  584MOL0     C78744  -1.262   1.909   7.275 -0.3526 -0.8416 -0.0483
  584MOL0     C78745  -1.336   1.786   7.311 -0.4427 -0.0935  0.5799
  584MOL0     C78746  -1.492   1.795   7.309  0.3614  0.2946 -0.7783
  584MOL0     C78747  -1.545   1.815   7.169  0.1766 -0.2218  0.7766
  584MOL0     C78748  -1.697   1.800   7.145 -0.7518  0.2183  0.3085
  584MOL0     C78749  -1.756   1.669   7.179  0.8763 -0.2200 -0.2917
  584MOL0    Cl78750  -1.922   1.666   7.151 -0.2566  0.2584 -0.3764
  584MOL0     C78751  -0.816   2.199   7.287 -0.3189 -0.2600 -0.4440
  584MOL0     C78752  -0.717   2.294   7.302  0.2935  0.1665 -0.3659
  584MOL0     O78753  -0.298   2.216   7.354  0.5186  0.2565 -0.5898
  584MOL0     C78754  -0.323   2.571   7.357  0.4840 -0.4035  0.6873
  584MOL0     C78755  -0.247   2.682   7.342  0.7656  0.5379 -0.4079
  584MOL0     N78756   0.235   2.900   6.737  0.3585  0.3358  0.6206
  584MOL0     N78757   0.279   2.921   6.620 -0.0760  0.4827 -0.8450
  584MOL0     C78758   0.949   2.498   6.361  0.5253 -0.0103 -0.4503
  584MOL0     C78759   1.068   2.472   6.436  0.2328  0.4218  0.4354
  584MOL0     C78760   1.451   2.240   6.528 -0.4091 -0.0246 -0.5845
  584MOL0     C78761   1.494   2.352   6.604 -0.0176 -0.5290 -0.4500
  584MOL0     C78762   1.624   2.357   6.661  0.8489 -0.3361  0.1049
  584MOL0     C78763   1.705   2.248   6.640 -0.6607  0.5925 -0.1080
  584MOL0     O78764   1.832   2.255   6.690  0.1761 -0.0478 -0.4279
  584MOL0     C78765   1.914   2.139   6.692 -0.7933 -0.2794 -0.9793
  584MOL0     C78766   2.064   2.176   6.730 -0.4654 -0.6035 -0.1630
  584MOL0     C78767   2.071   2.282   6.843 -0.2658 -0.0375 -0.0595
  584MOL0     C78768   2.216   2.322   6.867  0.4921 -0.1938  0.2855
  584MOL0     C78769   2.301   2.223   6.933  0.3329 -0.5624 -0.2655
  584MOL0     C78770   2.377   2.141   6.972  0.8835  0.9752  0.0640
  584MOL0     C78771   1.665   2.142   6.559  0.2728  0.2018 -0.1722
  584MOL0     C78772   1.542   2.136   6.503  0.6517 -0.2089 -0.8969
  584MOL0     H78773   1.049   2.136   6.359  1.0864  0.2866 -2.6273
  584MOL0     H78774   0.843   2.199   6.262  0.8522  1.1955 -1.9819
  584MOL0     H78775   0.612   2.324   6.345 -0.3210  1.4119  2.8065
  584MOL0     H78776   0.651   2.467   6.428  0.5141  1.3148 -0.3354
  584MOL0     H78777   0.513   2.489   6.161 -1.8086  1.6510  0.1419
  584MOL0     H78778   0.425   2.442   6.309 -1.2111 -0.3502 -1.7371
  584MOL0     H78779   0.496   2.655   6.429  1.5801  1.1424  0.1529
  584MOL0     H78780   0.574   2.714   6.286 -1.9088  1.1333 -2.3597
  584MOL0     H78781   0.367   2.692   6.142 -1.4289 -2.5051  0.3434
  584MOL0     H78782   0.282   2.638   6.276  1.2059  1.5501  2.3895
  584MOL0     H78783   0.394   2.856   6.407  0.4604 -0.6380 -0.7476
  584MOL0     H78784   0.390   2.915   6.245 -2.4203  1.3631 -0.3061
  584MOL0     H78785   0.136   2.829   6.249  0.2980  0.9867  0.8954
  584MOL0     H78786   0.149   2.819   6.415 -0.4474  0.1884 -0.5438
  584MOL0     H78787   0.174   3.063   6.246 -0.5591 -1.9577 -0.6634
  584MOL0     H78788   0.055   3.025   6.369 -1.3622 -1.4847 -4.0857
  584MOL0     H78789   0.209   3.200   6.431  1.1236 -0.8018 -2.3247
  584MOL0     H78790   0.347   3.097   6.428  0.0301  0.2021 -0.7711
  584MOL0     H78791   0.097   3.194   6.688  0.5489 -0.8879  0.2286
  584MOL0     H78792   0.222   3.052   6.982  0.1726  1.6176  0.1496
  584MOL0     H78793   0.062   3.118   6.936 -0.4739 -0.6422  0.8504
  584MOL0     H78794   0.117   2.826   7.017 -1.9407 -0.6432 -1.4017
  584MOL0     H78795  -0.039   2.890   6.961 -0.2178 -0.8302  0.7292
  584MOL0     H78796   0.028   3.065   7.180  2.5666  0.4308 -0.9582
  584MOL0     H78797   0.128   2.926   7.216  0.2481 -0.0282  0.2503
  584MOL0     H78798  -0.143   2.830   7.138  0.8567 -2.2505  0.7592
  584MOL0     H78799  -0.141   2.950   7.277  0.1066 -0.0824  0.4090
  584MOL0     H78800   0.064   2.555   7.345  0.2961 -1.0866 -0.9844
  584MOL0     H78801  -0.072   2.255   7.470  0.3013  1.7442  0.1465
  584MOL0     H78802  -0.049   2.239   7.289  0.0182 -0.1412  0.0005
  584MOL0     H78803   0.063   2.329   7.399 -0.3757  0.2798 -0.3778
  584MOL0     H78804  -0.446   2.081   7.238  0.1211 -0.5412  0.4307
  584MOL0     H78805  -0.653   1.916   7.219  0.6590 -0.1076  1.6476
  584MOL0     H78806  -1.017   2.051   7.361  0.3684 -0.2903  0.9980
  584MOL0     H78807  -1.067   2.092   7.191 -0.0113 -1.2754 -1.2228
  584MOL0     H78808  -1.111   1.835   7.149 -1.3259 -0.0169  0.0753
  584MOL0     H78809  -1.083   1.816   7.324 -1.1471 -0.4882  1.3594
  584MOL0     H78810  -1.299   1.956   7.184 -1.2908 -1.0466  0.2135
  584MOL0     H78811  -1.265   1.980   7.359 -3.3795 -1.4511  0.4819
  584MOL0     H78812  -1.307   1.706   7.243 -1.4100 -0.8253  0.9994
  584MOL0     H78813  -1.305   1.746   7.408 -2.4227  1.2477  1.8354
  584MOL0     H78814  -1.533   1.868   7.380 -1.4215  0.0197 -1.4719
  584MOL0     H78815  -1.532   1.700   7.346 -1.6045  0.8509 -1.3491
  584MOL0     H78816  -1.520   1.918   7.145  1.6593 -0.6035  0.5755
  584MOL0     H78817  -1.491   1.751   7.098 -1.5920 -2.3992  1.2812
  584MOL0     H78818  -1.711   1.820   7.038  1.9805 -1.2767 -0.4269
  584MOL0     H78819  -1.755   1.872   7.204 -1.9364 -1.0137  0.6908
  584MOL0     H78820  -1.729   1.650   7.283  2.5086  2.7203 -0.0472
  584MOL0     H78821  -1.715   1.586   7.121  0.8184 -0.8999  0.6291
  584MOL0     H78822  -0.919   2.231   7.294  0.0673  0.8713  0.3797
  584MOL0     H78823  -0.729   2.397   7.333 -1.4547  0.0601 -0.5731
  584MOL0     H78824  -0.432   2.577   7.364  0.5714  0.8669  1.3148
  584MOL0     H78825  -0.304   2.774   7.334 -1.6318 -0.5342  2.6150
  584MOL0     H78826   0.930   2.605   6.355  0.7223  0.0911  0.5350
  584MOL0     H78827   1.123   2.548   6.490  0.5848 -0.5031  1.4007
  584MOL0     H78828   1.435   2.441   6.617 -1.8014 -2.0799  3.4074
  584MOL0     H78829   1.663   2.440   6.721 -0.8553 -0.7640  1.8790
  584MOL0     H78830   1.865   2.066   6.757 -1.4785 -1.0825 -2.3594
  584MOL0     H78831   1.927   2.092   6.594 -0.6991  0.0021 -1.1033
  584MOL0     H78832   2.103   2.217   6.636  0.3966 -1.8429 -0.3730
  584MOL0     H78833   2.127   2.089   6.747 -0.0710  0.0481  1.9674
  584MOL0     H78834   2.030   2.244   6.937 -1.5227  0.7979 -0.2417
  584MOL0     H78835   2.017   2.372   6.813 -2.0450 -0.6558  1.1177
  584MOL0     H78836   2.223   2.418   6.919 -0.3317 -0.2943  0.5944
  584MOL0     H78837   2.260   2.350   6.770 -0.1870  1.6886  0.4726
  584MOL0     H78838   2.448   2.078   7.020 -0.6193  0.9942  2.4698
  584MOL0     H78839   1.736   2.073   6.515 -1.7128 -2.4589  0.5947
  584MOL0     H78840   1.507   2.056   6.438  0.7423 -0.8963 -0.1176
  585MOL0     O78841   8.572   9.790   6.702 -0.4580  0.2950  0.4076
  585MOL0     C78842   8.619   9.850   6.606 -0.3447  0.1349  0.6858
  585MOL0     O78843   8.546   9.911   6.511 -0.3219 -0.1030  0.1497
  585MOL0     C78844   8.415   9.890   6.518 -0.0268 -0.9903 -0.0154
  585MOL0     C78845   8.351   9.833   6.405  0.3267  0.0851  0.1681
  585MOL0     C78846   8.223   9.782   6.414  1.5429 -0.2902 -0.9907
  585MOL0     C78847   8.143   9.812   6.526 -1.0045  0.4170 -0.8143
  585MOL0     O78848   8.017   9.765   6.541 -0.2401  0.3388  0.6037
  585MOL0     C78849   7.932   9.766   6.655  0.2835 -0.0234 -0.1594
  585MOL0     C78850   7.811   9.666   6.649 -0.5818 -0.0124 -0.5712
  585MOL0     C78851   7.699   9.720   6.743  0.2477 -0.2235 -0.1134
  585MOL0     C78852   7.598   9.607   6.777 -0.6776 -0.3453  0.1290
  585MOL0     C78853   7.521   9.644   6.899 -0.0565  0.5698 -0.9972
  585MOL0     C78854   7.431   9.524   6.932  0.7071  0.2296  0.1893
  585MOL0     C78855   7.357   9.554   7.063 -0.3502 -0.1298  0.5036
  585MOL0     C78856   7.282   9.423   7.109 -0.0640 -1.1756  0.2757
  585MOL0     N78857   7.222   9.429   7.243  1.1534 -0.3103 -0.4333
  585MOL0     C78858   7.096   9.478   7.267  0.4081  0.1744 -0.3238
  585MOL0     C78859   7.074   9.458   7.398 -0.2947  0.8353 -0.2898
  585MOL0     C78860   6.952   9.483   7.481 -0.0393  0.2672 -0.2104
  585MOL0     C78861   6.822   9.437   7.417  0.6204  0.1757 -0.0333
  585MOL0     C78862   6.805   9.277   7.413 -0.1837 -1.0877  0.3381
  585MOL0     C78863   6.664   9.248   7.442 -0.4935 -0.0505  0.0299
  585MOL0     O78864   6.580   9.274   7.325  0.3799  0.1164 -1.0130
  585MOL0     C78865   6.440   9.266   7.360 -0.0796  0.4659  0.0975
  585MOL0     C78866   6.392   9.242   7.496  0.0509  0.7044  0.2415
  585MOL0     C78867   6.252   9.249   7.519  0.2803  0.2067 -0.1189
  585MOL0     C78868   6.211   9.233   7.661  0.5053 -0.8910  0.2143
  585MOL0     C78869   6.165   9.259   7.413  0.2130 -0.2892 -0.0681
  585MOL0     C78870   6.022   9.281   7.439 -0.0130 -0.3334 -0.3399
  585MOL0     O78871   5.969   9.384   7.368 -0.4474  0.0434 -0.3641
  585MOL0     C78872   5.831   9.396   7.361  0.2997 -0.2143  0.0899
  585MOL0     C78873   5.765   9.478   7.452  1.0449 -0.2116 -0.0777
  585MOL0     C78874   5.625   9.471   7.466 -0.0913 -0.5760  0.3088
  585MOL0     C78875   5.545   9.395   7.380  0.1612  0.2164  0.3731
  585MOL0     O78876   5.405   9.391   7.402 -0.6585 -0.5857 -0.1633
  585MOL0     C78877   5.322   9.394   7.283 -0.5756 -0.0671 -0.1214
  585MOL0     C78878   5.185   9.457   7.318 -1.0664  0.2924  0.3442
  585MOL0     C78879   5.091   9.370   7.398  0.2008  0.0100 -0.2600
  585MOL0     C78880   4.943   9.418   7.392 -1.0366  0.0584  0.6269
  585MOL0     C78881   4.837   9.341   7.469  0.2381  0.3786  0.5597
  585MOL0     C78882   4.695   9.354   7.413  0.7352  0.2948 -0.1918
  585MOL0     C78883   4.579   9.323   7.516 -0.6044 -0.1948  0.5451
  585MOL0     C78884   4.434   9.338   7.462 -0.4216  0.0119 -0.3456
  585MOL0    Cl78885   4.316   9.300   7.601 -0.3555 -0.1238  0.1216
  585MOL0     C78886   5.609   9.323   7.275  0.1440  0.1966 -0.1379
  585MOL0     C78887   5.751   9.312   7.279  0.3959  0.1379  0.5536
  585MOL0     O78888   5.959   9.203   7.516  0.2166  0.2443 -0.5794
  585MOL0     C78889   6.215   9.263   7.284  0.1988 -0.3617 -0.4548
  585MOL0     C78890   6.349   9.269   7.257  0.5597  0.0984  0.7997
  585MOL0     N78891   7.185   9.390   7.452 -0.3171  0.1199 -0.1476
  585MOL0     N78892   7.269   9.371   7.356 -0.0484 -0.7525 -0.5228
  585MOL0     C78893   8.202   9.903   6.617 -0.0607 -1.3386  0.7883
  585MOL0     C78894   8.336   9.936   6.617  0.0575 -0.3688 -0.1530
  585MOL0     C78895   8.767   9.842   6.597  0.6702 -0.9489  0.5239
  585MOL0     C78896   8.829   9.744   6.668 -0.1016  0.0567  0.3810
  585MOL0     C78897   8.973   9.744   6.660  0.3593 -0.0343  0.2491
  585MOL0     C78898   9.050   9.830   6.579  0.8645  0.1248  0.1154
  585MOL0     O78899   9.186   9.818   6.582  0.3147  0.3516  0.1235
  585MOL0     C78900   9.263   9.910   6.502  0.3761  0.1818 -0.7302
  585MOL0     C78901   9.389   9.824   6.484 -0.1805  0.0163 -0.3004
  585MOL0     C78902   9.492   9.822   6.613  0.0412  0.2663  0.3755
  585MOL0     C78903   9.632   9.774   6.571  0.7232 -0.5461  0.4074
  585MOL0     C78904   9.731   9.834   6.667 -0.1407 -0.3316  0.1038
  585MOL0     C78905   9.818   9.889   6.732 -0.3962  0.9936  0.2141
  585MOL0     C78906   8.984   9.920   6.503 -0.1685 -0.0858  0.4806
  585MOL0     C78907   8.843   9.933   6.509 -0.0012 -0.2615 -0.7182
  585MOL0     H78908   8.394   9.830   6.305 -3.8280  0.8675 -1.8655
  585MOL0     H78909   8.179   9.734   6.327 -1.5710  0.5030  0.0089
  585MOL0     H78910   7.997   9.740   6.739  0.4858  0.5144 -0.1414
  585MOL0     H78911   7.894   9.869   6.663 -2.4194 -0.8745 -0.9229
  585MOL0     H78912   7.774   9.670   6.546  2.6751  0.0708 -1.8303
  585MOL0     H78913   7.841   9.562   6.662 -0.9167  0.0318  0.6651
  585MOL0     H78914   7.738   9.759   6.837 -1.3767 -0.4759  0.6907
  585MOL0     H78915   7.644   9.796   6.686  0.9770 -1.5681 -2.7973
  585MOL0     H78916   7.534   9.596   6.689 -0.2717  0.6460 -0.3007
  585MOL0     H78917   7.660   9.518   6.790  0.4103  0.4045  0.2259
  585MOL0     H78918   7.599   9.656   6.975 -0.0056  0.1328 -0.9778
  585MOL0     H78919   7.457   9.731   6.884  2.6120  2.3051 -3.3537
  585MOL0     H78920   7.360   9.520   6.849  2.4077 -1.1873 -1.2720
  585MOL0     H78921   7.483   9.428   6.943 -1.4016 -0.7785  2.4359
  585MOL0     H78922   7.421   9.571   7.149 -1.0669  1.2992  0.7853
  585MOL0     H78923   7.288   9.639   7.054  0.4756  0.3606 -1.8954
  585MOL0     H78924   7.362   9.349   7.121 -1.2335 -2.2670  1.7373
  585MOL0     H78925   7.206   9.397   7.035 -0.4827  1.5476 -0.3297
  585MOL0     H78926   7.029   9.532   7.201  1.3872  2.7319  0.6491
  585MOL0     H78927   6.966   9.441   7.580  0.1279 -0.6176 -0.6025
  585MOL0     H78928   6.949   9.592   7.494  2.4763  0.3057  0.5369
  585MOL0     H78929   6.810   9.483   7.318 -1.9946  1.2030  0.6768
  585MOL0     H78930   6.744   9.493   7.468  1.4764  0.7733  0.6558
  585MOL0     H78931   6.857   9.230   7.497 -2.1070  0.6508  2.6595
  585MOL0     H78932   6.835   9.228   7.320  2.6109  0.9206  0.0657
  585MOL0     H78933   6.638   9.304   7.532  2.7266 -1.8796  2.3181
  585MOL0     H78934   6.661   9.142   7.469  0.7478  0.5442  2.8026
  585MOL0     H78935   6.462   9.212   7.573  3.3983  0.4411 -2.6854
  585MOL0     H78936   6.132   9.307   7.675  1.0466 -0.1212 -0.7213
  585MOL0     H78937   6.164   9.134   7.664  1.6620 -1.9503 -5.3358
  585MOL0     H78938   6.298   9.241   7.727  1.7905 -1.4628 -1.3206
  585MOL0     H78939   5.825   9.530   7.527  0.9667 -1.6190  1.0005
  585MOL0     H78940   5.568   9.526   7.540 -1.8547 -1.3335 -0.4240
  585MOL0     H78941   5.377   9.456   7.212  0.6302 -1.4182 -0.4075
  585MOL0     H78942   5.312   9.290   7.249 -0.0863  0.2619 -1.2935
  585MOL0     H78943   5.203   9.557   7.358  1.7241  0.9410 -2.1947
  585MOL0     H78944   5.152   9.465   7.215 -0.2183 -2.5446 -0.2415
  585MOL0     H78945   5.121   9.377   7.503 -1.5145 -0.4783  0.2986
  585MOL0     H78946   5.097   9.267   7.360  0.0581 -0.3813  0.7416
  585MOL0     H78947   4.941   9.520   7.431  4.0811 -0.0622  1.9361
  585MOL0     H78948   4.925   9.420   7.285 -0.1576  1.2303  0.4841
  585MOL0     H78949   4.836   9.369   7.574 -1.9628  2.0920  0.1713
  585MOL0     H78950   4.859   9.235   7.459 -4.9611 -1.0039  0.7501
  585MOL0     H78951   4.680   9.456   7.376  0.7711  0.6008  0.6241
  585MOL0     H78952   4.681   9.284   7.330 -0.0666 -0.5745  0.6520
  585MOL0     H78953   4.599   9.389   7.601  0.2004 -0.4967  0.6023
  585MOL0     H78954   4.587   9.220   7.552  0.0300  0.6044  2.8879
  585MOL0     H78955   4.423   9.266   7.380  0.0012  0.1133 -0.4933
  585MOL0     H78956   4.397   9.433   7.422 -3.3115 -1.3284 -1.1889
  585MOL0     H78957   5.554   9.251   7.214  2.7851  0.5784 -3.2434
  585MOL0     H78958   5.796   9.252   7.200  0.2218 -3.2897  2.8634
  585MOL0     H78959   6.143   9.270   7.202 -1.2146 -1.1407  0.6785
  585MOL0     H78960   6.385   9.269   7.154 -0.4469  2.9828  0.3574
  585MOL0     H78961   8.147   9.938   6.704 -0.8178  1.2662 -0.6249
  585MOL0     H78962   8.383   9.989   6.699 -0.3104  2.1240 -1.4717
  585MOL0     H78963   8.772   9.687   6.741 -1.6544 -0.9119 -1.5164
  585MOL0     H78964   9.039   9.680   6.719  0.6379  0.1387  0.1275
  585MOL0     H78965   9.228   9.941   6.403 -0.3816 -3.3804 -1.7117
  585MOL0     H78966   9.272  10.002   6.561 -4.4222  0.8738 -0.6797
  585MOL0     H78967   9.449   9.860   6.400 -2.8145  0.6916 -1.9801
  585MOL0     H78968   9.360   9.720   6.467 -0.5249 -0.1721  1.2273
  585MOL0     H78969   9.459   9.758   6.696 -2.9550  2.3860  1.0114
  585MOL0     H78970   9.503   9.926   6.645  2.4494  0.6624 -1.4373
  585MOL0     H78971   9.650   9.812   6.470  1.5698  1.0211  1.0987
  585MOL0     H78972   9.648   9.666   6.572 -1.6217 -0.9371  0.4334
  585MOL0     H78973   9.892   9.935   6.796 -1.4894  0.6483  1.7663
  585MOL0     H78974   9.042  10.000   6.459  1.8772 -2.3883 -1.3406
  585MOL0     H78975   8.792  10.010   6.452 -0.2816 -0.3469 -0.5815
  586MOL0     O78976   5.663   9.600   6.967 -0.1232 -0.3645  0.6820
  586MOL0     C78977   5.681   9.554   6.851 -0.3694  0.4405  0.3512
  586MOL0     O78978   5.600   9.571   6.745  0.7000  0.1920  0.0798
  586MOL0     C78979   5.498   9.666   6.745 -0.8563  0.7928 -0.6799
  586MOL0     C78980   5.505   9.799   6.804 -0.6853  0.4877  0.0649
  586MOL0     C78981   5.394   9.888   6.818 -0.0339  0.0485  0.5900
  586MOL0     C78982   5.271   9.849   6.756 -0.7726  0.3375 -0.7876
  586MOL0     O78983   5.164   9.932   6.761  0.1600 -0.4669 -0.3311
  586MOL0     C78984   5.188  10.074   6.766  0.0176  0.1601  0.0036
  586MOL0     C78985   5.057  10.140   6.786 -0.2817 -0.1659 -0.4577
  586MOL0     C78986   4.954  10.087   6.684  0.1037  0.7509  0.1969
  586MOL0     C78987   4.838  10.182   6.651  0.3591  0.4634  0.5124
  586MOL0     C78988   4.757  10.129   6.540 -0.5442 -0.1759  0.4411
  586MOL0     C78989   4.621  10.190   6.538 -0.2991 -0.2625 -0.7460
  586MOL0     C78990   4.524  10.102   6.456  0.0002 -0.2582 -0.5547
  586MOL0     C78991   4.546  10.087   6.300  0.5596  0.3121 -0.0072
  586MOL0     N78992   4.440  10.009   6.233  0.6282 -0.3175  0.3653
  586MOL0     C78993   4.305  10.032   6.235  0.0493  0.3643  0.2361
  586MOL0     C78994   4.251   9.924   6.175  0.0773  0.4098  0.2700
  586MOL0     C78995   4.099   9.889   6.186 -0.2839  0.1587 -0.0788
  586MOL0     C78996   4.064   9.758   6.120 -0.0288  0.4831 -0.1228
  586MOL0     C78997   3.921   9.744   6.074 -0.8408 -0.4127  0.3430
  586MOL0     C78998   3.829   9.731   6.199  0.9795  0.1287  0.6406
  586MOL0     O78999   3.699   9.736   6.138 -0.3017  0.4495 -0.0973
  586MOL0     C79000   3.581   9.724   6.211  0.1293  0.0208 -0.7878
  586MOL0     C79001   3.473   9.674   6.137 -0.1647  0.1170 -0.0976
  586MOL0     C79002   3.345   9.650   6.200 -0.4961 -0.2146  0.6516
  586MOL0     C79003   3.246   9.596   6.098 -0.5661  0.5033 -0.8163
  586MOL0     C79004   3.334   9.673   6.344 -0.1802 -0.2282 -0.2368
  586MOL0     C79005   3.211   9.643   6.424  0.6613 -0.4562 -0.3020
  586MOL0     O79006   3.236   9.609   6.555 -0.8821 -0.5763 -0.4445
  586MOL0     C79007   3.135   9.568   6.624  0.4576  0.3339 -1.0933
  586MOL0     C79008   3.061   9.654   6.703  0.0458 -0.7689 -0.0575
  586MOL0     C79009   2.966   9.610   6.797 -0.7041  0.0883  0.1576
  586MOL0     C79010   2.957   9.470   6.825  0.7131 -0.8759  0.5294
  586MOL0     O79011   2.873   9.403   6.911  0.0355  0.0372  0.2332
  586MOL0     C79012   2.783   9.487   6.990 -0.5890 -0.2766  0.2562
  586MOL0     C79013   2.674   9.397   7.053  0.3045  0.0288 -0.3077
  586MOL0     C79014   2.604   9.449   7.171 -0.4514 -0.0546 -0.3168
  586MOL0     C79015   2.494   9.356   7.235  0.2367  0.8004  0.3089
  586MOL0     C79016   2.449   9.418   7.372 -0.1981 -0.3783  0.3452
  586MOL0     C79017   2.356   9.324   7.439  0.0091 -0.1524 -0.3724
  586MOL0     C79018   2.214   9.330   7.384 -1.0249  0.7995 -0.2064
  586MOL0     C79019   2.112   9.267   7.484 -0.7768 -0.4321 -0.7636
  586MOL0    Cl79020   1.946   9.217   7.405 -0.2405 -0.0908 -0.3544
  586MOL0     C79021   3.035   9.386   6.742 -0.0152  0.4059 -0.0918
  586MOL0     C79022   3.126   9.432   6.646  0.2357 -0.1372  0.1369
  586MOL0     O79023   3.097   9.655   6.376 -0.1090  0.1087  0.7319
  586MOL0     C79024   3.446   9.727   6.413 -0.8270  0.2708 -0.1143
  586MOL0     C79025   3.570   9.747   6.351 -0.1425 -0.2578  0.1441
  586MOL0     N79026   4.350   9.831   6.141 -0.9531 -0.1214  0.0024
  586MOL0     N79027   4.466   9.890   6.173 -0.5654  0.3751  0.8057
  586MOL0     C79028   5.263   9.723   6.695 -0.5601 -0.7966  0.2339
  586MOL0     C79029   5.374   9.633   6.691 -0.2406  0.2750 -0.0761
  586MOL0     C79030   5.803   9.472   6.825 -0.6622  0.6353 -0.7262
  586MOL0     C79031   5.893   9.439   6.929 -0.6732  0.6338 -0.0536
  586MOL0     C79032   6.011   9.366   6.914 -0.7540 -0.1234  0.0342
  586MOL0     C79033   6.050   9.325   6.783  0.9427  0.1426 -1.0454
  586MOL0     O79034   6.176   9.267   6.754 -0.4820 -0.1857  0.1476
  586MOL0     C79035   6.283   9.277   6.849  1.0146  0.4111 -0.2430
  586MOL0     C79036   6.417   9.246   6.782  0.2892 -0.1643  0.4303
  586MOL0     C79037   6.467   9.373   6.700  0.1007 -0.0258  0.1783
  586MOL0     C79038   6.564   9.354   6.584  0.5813 -0.3876  1.0760
  586MOL0     C79039   6.570   9.471   6.496 -0.8987  0.0025  0.0407
  586MOL0     C79040   6.558   9.575   6.434  0.0590 -0.1692  0.6725
  586MOL0     C79041   5.951   9.334   6.683  0.1058  0.9740 -1.1644
  586MOL0     C79042   5.838   9.418   6.702  0.2132  0.3775  0.3579
  586MOL0     H79043   5.593   9.833   6.858 -0.3831 -1.3173  0.7599
  586MOL0     H79044   5.417   9.990   6.848  1.8699  0.4419 -1.8917
  586MOL0     H79045   5.249  10.106   6.850  4.4472  0.8821 -3.1121
  586MOL0     H79046   5.242  10.108   6.677  1.6396 -0.4011  0.7541
  586MOL0     H79047   5.033  10.117   6.890  0.5999 -0.1093 -0.2366
  586MOL0     H79048   5.064  10.249   6.780  0.6099 -0.2156 -0.3990
  586MOL0     H79049   4.998  10.063   6.587  2.8993  3.4359  0.6279
  586MOL0     H79050   4.907   9.993   6.715  0.8250 -0.0581 -1.0928
  586MOL0     H79051   4.778  10.181   6.743 -1.4453  1.8582 -0.5768
  586MOL0     H79052   4.850  10.289   6.630 -2.6466  0.1964 -3.9455
  586MOL0     H79053   4.806  10.130   6.442  2.7868  0.4414  1.9981
  586MOL0     H79054   4.742  10.024   6.567  1.9395  0.1780  3.8354
  586MOL0     H79055   4.581  10.195   6.639  2.5900 -3.7217  0.7721
  586MOL0     H79056   4.620  10.293   6.499  0.3308  1.0580  2.4052
  586MOL0     H79057   4.515  10.004   6.505 -0.3000  0.0914  0.1079
  586MOL0     H79058   4.423  10.143   6.462  0.4921  0.7994  2.2332
  586MOL0     H79059   4.649  10.063   6.271  0.7080  2.4482 -1.4711
  586MOL0     H79060   4.539  10.189   6.262  3.2092  0.3062 -0.7317
  586MOL0     H79061   4.253  10.103   6.298  1.3262 -0.2182  2.0281
  586MOL0     H79062   4.065   9.887   6.291  0.9428 -2.1015  0.3334
  586MOL0     H79063   4.041   9.972   6.145 -1.4896  0.9280  2.9044
  586MOL0     H79064   4.093   9.678   6.189 -2.8895  1.3169  2.2708
  586MOL0     H79065   4.125   9.744   6.030  0.3801  1.3211  0.0148
  586MOL0     H79066   3.917   9.651   6.017  0.6668 -1.2163  1.4647
  586MOL0     H79067   3.895   9.833   6.015  0.2065  1.0988  2.0415
  586MOL0     H79068   3.844   9.817   6.264 -0.0847 -0.5151  1.7962
  586MOL0     H79069   3.842   9.634   6.248  2.7903 -0.4078 -0.7934
  586MOL0     H79070   3.489   9.639   6.035  0.9572 -2.0293  0.7627
  586MOL0     H79071   3.158   9.661   6.100 -1.0983 -0.2145  0.5432
  586MOL0     H79072   3.291   9.600   5.998  3.0305 -0.9372  0.5524
  586MOL0     H79073   3.223   9.490   6.108  0.5759  0.3808  1.1331
  586MOL0     H79074   3.066   9.762   6.690  1.5667 -0.7415  0.6458
  586MOL0     H79075   2.907   9.691   6.838 -0.3843  1.7216 -2.4045
  586MOL0     H79076   2.843   9.528   7.072  0.7022 -0.5146 -0.5294
  586MOL0     H79077   2.739   9.568   6.933  0.3792  0.7696  0.9496
  586MOL0     H79078   2.594   9.382   6.980 -1.0123 -1.7823  1.3779
  586MOL0     H79079   2.727   9.302   7.071  0.7923  0.4899  0.7730
  586MOL0     H79080   2.554   9.542   7.143  1.7480  0.9626 -1.1541
  586MOL0     H79081   2.679   9.480   7.245 -2.7111  1.4224  1.4843
  586MOL0     H79082   2.404   9.353   7.173  1.0262 -1.3697 -0.8384
  586MOL0     H79083   2.532   9.254   7.246 -0.1514  0.1650 -3.0557
  586MOL0     H79084   2.413   9.520   7.355 -0.7157 -0.4976  0.7231
  586MOL0     H79085   2.538   9.424   7.435  1.3377 -0.6856 -1.6630
  586MOL0     H79086   2.395   9.222   7.442 -0.4648 -0.3334 -0.1739
  586MOL0     H79087   2.361   9.344   7.546  1.0772  1.5029 -0.6997
  586MOL0     H79088   2.211   9.276   7.289 -4.3156  0.8164 -0.2341
  586MOL0     H79089   2.196   9.437   7.370  3.4854  2.0291  1.4674
  586MOL0     H79090   2.078   9.338   7.560 -4.5156 -0.3994 -2.2400
  586MOL0     H79091   2.158   9.178   7.528 -2.6468 -2.1637 -2.1190
  586MOL0     H79092   3.025   9.278   6.753 -0.2451  0.1714 -2.1113
  586MOL0     H79093   3.195   9.363   6.598  2.3317  2.4307 -0.8099
  586MOL0     H79094   3.427   9.748   6.517 -0.3735 -0.3355  0.0979
  586MOL0     H79095   3.647   9.790   6.415 -1.4034  1.6178  0.4846
  586MOL0     H79096   5.167   9.695   6.652  0.7031 -0.0457 -3.4500
  586MOL0     H79097   5.364   9.534   6.647 -3.1472  1.3905 -2.2988
  586MOL0     H79098   5.883   9.489   7.026 -1.6324  0.8300 -0.2409
  586MOL0     H79099   6.081   9.348   6.995  0.3762  3.3889  0.0012
  586MOL0     H79100   6.288   9.375   6.897 -0.9009  0.3286  0.2099
  586MOL0     H79101   6.269   9.211   6.935  6.5086 -0.0762  0.6185
  586MOL0     H79102   6.422   9.153   6.725 -0.9253 -0.0968  0.1998
  586MOL0     H79103   6.489   9.242   6.864  3.2026  1.0443 -1.8872
  586MOL0     H79104   6.510   9.449   6.765  0.8263 -1.0731  0.9525
  586MOL0     H79105   6.371   9.405   6.656 -0.1134  1.8235  1.8751
  586MOL0     H79106   6.519   9.285   6.512  1.0586  0.0260  0.3678
  586MOL0     H79107   6.669   9.335   6.608  0.7527 -0.6760  0.1345
  586MOL0     H79108   6.535   9.661   6.374  3.8575  0.5938  0.0820
  586MOL0     H79109   5.972   9.292   6.585 -3.3989  0.6665 -1.9441
  586MOL0     H79110   5.772   9.444   6.619 -0.1313 -1.2313  0.0976
  587MOL0     O79111   0.228   4.924   9.420  0.0768  0.3908 -0.1580
  587MOL0     C79112   0.257   4.967   9.305  0.3947 -0.2139 -0.4302
  587MOL0     O79113   0.197   5.074   9.240  0.1818 -0.0729 -0.3100
  587MOL0     C79114   0.070   5.110   9.286 -0.2563  0.7602  0.8076
  587MOL0     C79115   0.048   5.245   9.281 -0.4101 -0.3604 -0.2103
  587MOL0     C79116  -0.079   5.292   9.302  0.4461  0.5922 -0.6892
  587MOL0     C79117  -0.186   5.201   9.339 -0.3877  0.0186  0.1304
  587MOL0     O79118  -0.313   5.241   9.355 -0.0574 -0.4435  0.1244
  587MOL0     C79119  -0.348   5.376   9.380  0.3657 -0.2571  0.1337
  587MOL0     C79120  -0.486   5.393   9.461 -0.4632  0.6456  0.4878
  587MOL0     C79121  -0.602   5.290   9.439  0.7483 -0.7537 -0.3366
  587MOL0     C79122  -0.713   5.320   9.541  0.4840 -0.2851 -0.2996
  587MOL0     C79123  -0.816   5.210   9.565  0.0624  0.2145 -0.3281
  587MOL0     C79124  -0.884   5.187   9.434 -0.7609  0.5538 -0.0253
  587MOL0     C79125  -0.992   5.084   9.442  0.2216 -0.0257 -0.6750
  587MOL0     C79126  -1.100   5.121   9.546 -0.1982  0.3872 -0.2018
  587MOL0     N79127  -1.218   5.035   9.541 -0.1850  0.2256  0.3685
  587MOL0     C79128  -1.307   5.037   9.644  1.1050 -0.1196 -0.3752
  587MOL0     C79129  -1.417   4.972   9.592 -0.1590  0.4813  0.5153
  587MOL0     C79130  -1.531   4.917   9.667  1.2445  0.2093  0.3991
  587MOL0     C79131  -1.576   4.985   9.807 -0.1011 -0.3056  1.1138
  587MOL0     C79132  -1.648   4.886   9.904 -1.2588 -0.0753  0.3102
  587MOL0     C79133  -1.707   4.966  10.018  0.8948 -0.7924  0.0989
  587MOL0     O79134  -1.815   4.901  10.090  0.0421  0.2454  0.6718
  587MOL0     C79135  -1.943   4.912  10.054 -0.1203 -0.4937 -0.0697
  587MOL0     C79136  -2.025   4.850  10.151  0.3591 -0.1605 -1.0291
  587MOL0     C79137  -2.162   4.854  10.129  1.0643 -0.0919 -0.8203
  587MOL0     C79138  -2.253   4.773  10.228  0.2826 -0.8121 -0.7144
  587MOL0     C79139  -2.221   4.916  10.023 -0.7762 -0.4129  1.2549
  587MOL0     C79140  -2.362   4.920   9.993 -1.2797  0.4267 -0.0134
  587MOL0     O79141  -2.446   4.975  10.093  0.5034  0.3070 -0.0656
  587MOL0     C79142  -2.565   5.030  10.051 -0.2490  0.2511  0.7733
  587MOL0     C79143  -2.585   5.166  10.044 -0.8010 -0.4199  0.4948
  587MOL0     C79144  -2.701   5.221   9.995 -0.5957  0.0541 -0.1301
  587MOL0     C79145  -2.806   5.139   9.964  0.3305  0.5114  0.2084
  587MOL0     O79146  -2.913   5.183   9.901  0.7037  0.0468  0.2260
  587MOL0     C79147  -2.984   5.297   9.959  0.3217  0.6522  0.4295
  587MOL0     C79148  -3.121   5.277   9.892 -0.0129 -0.9069 -0.4572
  587MOL0     C79149  -3.198   5.165   9.956 -0.8115  0.0107  0.1229
  587MOL0     C79150  -3.314   5.207  10.045 -0.5952  0.1853  0.2948
  587MOL0     C79151  -3.407   5.100  10.086 -0.2509 -0.6752 -0.1993
  587MOL0     C79152  -3.541   5.161  10.132  0.0001  0.7073 -0.9307
  587MOL0     C79153  -3.629   5.047  10.193 -0.1490  0.4058  0.5220
  587MOL0     C79154  -3.704   4.966  10.085 -0.2740 -0.1310  0.6114
  587MOL0    Cl79155  -3.817   4.855  10.163 -0.1437  0.5670 -0.1897
  587MOL0     C79156  -2.793   5.000   9.989  0.6041 -0.1719  0.0287
  587MOL0     C79157  -2.671   4.948  10.028  0.1108  0.3884 -0.0648
  587MOL0     O79158  -2.399   4.885   9.879 -0.3725 -0.2748  0.3175
  587MOL0     C79159  -2.131   4.976   9.929  0.1436  0.0724  0.3224
  587MOL0     C79160  -1.991   4.974   9.942 -0.3984 -0.1925 -0.0675
  587MOL0     N79161  -1.385   4.931   9.467  0.3609  0.3365  0.6229
  587MOL0     N79162  -1.259   4.957   9.441  0.9902  0.3522  0.6878
  587MOL0     C79163  -0.158   5.060   9.330 -0.0086  0.2367 -0.0124
  587MOL0     C79164  -0.030   5.015   9.310 -0.3282 -0.8925 -0.2079
  587MOL0     C79165   0.370   4.896   9.248  0.4954 -0.2269 -0.1722
  587MOL0     C79166   0.395   4.893   9.109  0.0648  0.8075 -0.1225
  587MOL0     C79167   0.488   4.820   9.042  0.6057  0.2619 -0.5204
  587MOL0     C79168   0.566   4.740   9.122  0.6891 -0.7471  0.0549
  587MOL0     O79169   0.675   4.675   9.057  0.1531 -0.6538 -0.4279
  587MOL0     C79170   0.785   4.632   9.135 -0.5447 -0.3692 -0.0784
  587MOL0     C79171   0.884   4.757   9.160 -0.4802  0.2435 -0.3325
  587MOL0     C79172   0.939   4.807   9.030 -0.2800 -0.0559 -0.2416
  587MOL0     C79173   1.005   4.953   9.037  0.2750  1.0418 -0.2913
  587MOL0     C79174   1.101   4.961   9.140 -0.6153  0.2364  0.0867
  587MOL0     C79175   1.175   4.965   9.240 -0.0875  0.7887  0.0865
  587MOL0     C79176   0.553   4.745   9.266  0.7071  0.1910 -0.0672
  587MOL0     C79177   0.451   4.814   9.330 -0.4088  0.0140  0.1597
  587MOL0     H79178   0.118   5.326   9.263 -1.9044  1.6507  2.2294
  587MOL0     H79179  -0.089   5.400   9.308  2.2645  0.7557  5.2681
  587MOL0     H79180  -0.275   5.438   9.433 -0.3831  2.8283 -2.1878
  587MOL0     H79181  -0.374   5.418   9.283 -0.8309  1.5992  1.2013
  587MOL0     H79182  -0.457   5.389   9.566 -1.0877  0.2146  0.6477
  587MOL0     H79183  -0.520   5.495   9.440  3.9108  1.8418 -2.0357
  587MOL0     H79184  -0.640   5.297   9.337  0.2027  1.3082 -0.0388
  587MOL0     H79185  -0.565   5.188   9.445  2.5168 -0.4449 -3.8183
  587MOL0     H79186  -0.675   5.338   9.642  2.5246  1.7020 -1.3385
  587MOL0     H79187  -0.761   5.414   9.512 -0.4168 -0.3218  0.9978
  587MOL0     H79188  -0.764   5.117   9.590 -1.9007 -0.3114  2.1494
  587MOL0     H79189  -0.884   5.233   9.647  2.2667  1.0686  1.3896
  587MOL0     H79190  -0.928   5.283   9.404 -1.9386  0.5919  1.6562
  587MOL0     H79191  -0.811   5.145   9.365 -1.7062  0.7839 -1.2171
  587MOL0     H79192  -1.041   5.085   9.344  0.5287  2.4132 -0.8522
  587MOL0     H79193  -0.950   4.984   9.461  1.6869  0.1805 -2.4825
  587MOL0     H79194  -1.142   5.219   9.523 -1.3368 -0.1398 -0.4294
  587MOL0     H79195  -1.048   5.115   9.642  3.0167 -2.2905 -1.9035
  587MOL0     H79196  -1.305   5.078   9.744 -0.2464 -0.5558 -0.1514
  587MOL0     H79197  -1.622   4.927   9.607  0.9647 -0.6442  0.6657
  587MOL0     H79198  -1.511   4.812   9.693  2.7411  0.5371  0.6682
  587MOL0     H79199  -1.637   5.073   9.786 -0.9579 -0.9980  0.6003
  587MOL0     H79200  -1.480   5.011   9.853 -0.4550 -0.2952  1.8501
  587MOL0     H79201  -1.581   4.808   9.941 -3.1443 -2.7083 -1.4881
  587MOL0     H79202  -1.736   4.840   9.860 -0.8904 -0.3535 -0.1540
  587MOL0     H79203  -1.749   5.061   9.984 -0.1047 -1.3137 -0.1669
  587MOL0     H79204  -1.629   5.001  10.087 -0.7073  0.7994  1.1647
  587MOL0     H79205  -1.982   4.813  10.244 -1.7658  2.9225  1.4094
  587MOL0     H79206  -2.290   4.831  10.313 -1.1946  0.5640 -2.2281
  587MOL0     H79207  -2.336   4.734  10.169  0.8801 -1.9322 -0.8341
  587MOL0     H79208  -2.203   4.682  10.265 -1.4078 -0.7194  2.1465
  587MOL0     H79209  -2.506   5.239  10.057  0.0120 -0.3317 -3.5734
  587MOL0     H79210  -2.705   5.328   9.979 -0.6485 -0.0841 -1.1406
  587MOL0     H79211  -2.998   5.287  10.067  0.8603 -0.6631  0.4026
  587MOL0     H79212  -2.934   5.393   9.943  0.4757  1.0250  2.7938
  587MOL0     H79213  -3.183   5.367   9.900  1.9344  0.5858 -1.2353
  587MOL0     H79214  -3.094   5.266   9.786  1.4598  0.5506 -0.2703
  587MOL0     H79215  -3.133   5.095  10.009  0.2826  1.0257  0.1670
  587MOL0     H79216  -3.260   5.115   9.881  0.4216 -0.1329 -0.8417
  587MOL0     H79217  -3.284   5.254  10.139  0.0523 -2.6165  1.5655
  587MOL0     H79218  -3.368   5.279   9.982 -0.0089 -0.1782 -0.6446
  587MOL0     H79219  -3.364   5.037  10.164  1.4949  0.2953 -0.3261
  587MOL0     H79220  -3.427   5.035  10.001  3.6388  1.3978 -3.0229
  587MOL0     H79221  -3.518   5.221  10.220  3.2014 -0.5757 -0.7332
  587MOL0     H79222  -3.588   5.226  10.057 -1.2014  1.6333  0.5676
  587MOL0     H79223  -3.707   5.112  10.235 -1.1064  0.9005 -1.8773
  587MOL0     H79224  -3.592   4.991  10.279  0.4999  1.2862  0.8253
  587MOL0     H79225  -3.632   4.920  10.018 -1.1858  0.4799 -0.8350
  587MOL0     H79226  -3.767   5.025  10.017  1.8284 -1.3866 -2.6462
  587MOL0     H79227  -2.885   4.945   9.974  0.2803  0.1959  0.5999
  587MOL0     H79228  -2.644   4.846  10.055  1.2847  0.5590 -0.5260
  587MOL0     H79229  -2.171   5.022   9.839  0.9716 -2.4213 -1.4340
  587MOL0     H79230  -1.916   5.012   9.873 -0.0803  3.1757  1.8859
  587MOL0     H79231  -0.241   4.990   9.328 -0.6339  0.9681 -0.3192
  587MOL0     H79232  -0.002   4.910   9.313  1.2133 -0.5045 -0.4301
  587MOL0     H79233   0.325   4.950   9.048 -1.4209 -1.5606 -0.7645
  587MOL0     H79234   0.501   4.829   8.934  1.6961  0.0055 -0.4213
  587MOL0     H79235   0.760   4.577   9.226  1.8589  0.4259  1.1595
  587MOL0     H79236   0.844   4.561   9.076 -1.3306 -0.1563 -1.1443
  587MOL0     H79237   0.964   4.724   9.228 -2.0229 -0.4925  1.2068
  587MOL0     H79238   0.838   4.836   9.219 -0.4086  0.6872 -0.8601
  587MOL0     H79239   0.855   4.809   8.960 -0.1478  1.7179 -0.3936
  587MOL0     H79240   1.011   4.736   8.990 -0.8668  0.7511 -2.9140
  587MOL0     H79241   0.923   5.025   9.050 -1.3380 -0.2006 -2.8834
  587MOL0     H79242   1.061   4.981   8.948  0.4344  1.4153 -0.0796
  587MOL0     H79243   1.228   4.962   9.333 -0.2220  1.3357  0.1830
  587MOL0     H79244   0.622   4.693   9.332 -0.1582  0.1932  0.8710
  587MOL0     H79245   0.439   4.815   9.438 -1.1482  3.0311  0.1494
  588MOL0     O79246   4.594   4.476   9.025 -0.0316  0.4971  0.4848
  588MOL0     C79247   4.633   4.574   8.971 -0.5600  0.1132  0.4575
  588MOL0     O79248   4.561   4.686   8.941  0.3587 -0.4402  0.4594
  588MOL0     C79249   4.423   4.685   8.970  0.4890 -0.0899 -0.5827
  588MOL0     C79250   4.326   4.696   8.864 -0.1202  0.4172  0.5713
  588MOL0     C79251   4.186   4.699   8.887  0.6512  0.0634 -0.0101
  588MOL0     C79252   4.135   4.697   9.013 -0.0974 -0.2739 -0.1291
  588MOL0     O79253   3.998   4.713   9.043  0.0141  0.1307  0.7044
  588MOL0     C79254   3.924   4.776   8.947 -0.0871 -0.1023  0.8065
  588MOL0     C79255   3.788   4.819   8.998  0.3889 -0.1911 -0.3181
  588MOL0     C79256   3.683   4.706   9.019  0.2294 -0.3605 -0.3736
  588MOL0     C79257   3.551   4.758   9.072 -0.4477 -0.5290  0.5383
  588MOL0     C79258   3.465   4.647   9.115 -0.2118  0.6350  0.6007
  588MOL0     C79259   3.311   4.689   9.128  0.0470  0.5123 -0.0736
  588MOL0     C79260   3.232   4.566   9.183 -0.0443 -1.0702 -0.0326
  588MOL0     C79261   3.082   4.606   9.220 -0.5624  0.0177  0.1778
  588MOL0     N79262   3.070   4.693   9.342 -0.3311  1.0343 -0.0405
  588MOL0     C79263   2.999   4.666   9.457  0.5812 -0.4908 -0.2343
  588MOL0     C79264   2.995   4.781   9.527 -0.0861 -0.1093 -0.2387
  588MOL0     C79265   2.940   4.818   9.657 -0.0085 -0.3758 -0.4655
  588MOL0     C79266   2.815   4.909   9.636 -0.1548 -0.9377 -0.5302
  588MOL0     C79267   2.772   4.970   9.773  0.4922  0.5242  0.2121
  588MOL0     C79268   2.625   5.014   9.769  0.4701 -0.2304 -0.2013
  588MOL0     O79269   2.537   4.916   9.834 -0.0562 -0.2343 -0.0381
  588MOL0     C79270   2.422   4.967   9.887  0.1640  0.1548 -0.5087
  588MOL0     C79271   2.338   4.871   9.950 -0.7035  0.8832 -0.5905
  588MOL0     C79272   2.218   4.905  10.014 -0.1558  0.2352  0.2021
  588MOL0     C79273   2.139   4.782  10.055  0.4722 -0.1271  0.1797
  588MOL0     C79274   2.175   5.037  10.014 -0.6140 -0.2374 -0.0803
  588MOL0     C79275   2.048   5.080  10.067 -0.2377 -0.4765 -0.2284
  588MOL0     O79276   1.990   5.194  10.033 -0.3996  0.1826  0.1596
  588MOL0     C79277   1.868   5.225  10.087 -0.6992  0.3061  0.5381
  588MOL0     C79278   1.836   5.358  10.063 -0.3928 -0.1198 -1.3518
  588MOL0     C79279   1.715   5.408  10.102  0.0114 -0.2762 -0.3648
  588MOL0     C79280   1.620   5.323  10.162  0.2530 -0.1493  0.1755
  588MOL0     O79281   1.496   5.371  10.204 -0.1732 -0.0427 -0.1569
  588MOL0     C79282   1.428   5.449  10.105  0.2811 -0.3529 -0.2183
  588MOL0     C79283   1.282   5.486  10.141 -0.0680 -0.2967  0.1419
  588MOL0     C79284   1.229   5.568  10.018  0.0994 -0.4182 -0.5985
  588MOL0     C79285   1.086   5.614  10.068  0.1177  0.3157 -0.1473
  588MOL0     C79286   1.004   5.680   9.959 -1.1191 -0.0726 -1.3939
  588MOL0     C79287   0.971   5.598   9.838  1.2297  0.4433  0.7152
  588MOL0     C79288   0.852   5.664   9.762 -0.2178  0.3096  0.6143
  588MOL0     C79289   0.831   5.596   9.628  0.0600  0.1590 -0.0324
  588MOL0    Cl79290   0.954   5.646   9.511  0.2009 -0.3619 -0.3953
  588MOL0     C79291   1.651   5.190  10.176 -0.4715  0.5867  0.5133
  588MOL0     C79292   1.770   5.135  10.142  0.1561  0.9199  0.0930
  588MOL0     O79293   2.015   5.008  10.160  0.5215  0.3449 -0.2157
  588MOL0     C79294   2.268   5.136   9.967  0.2368 -0.0471 -0.6263
  588MOL0     C79295   2.396   5.101   9.913 -0.0912 -0.8905  0.3028
  588MOL0     N79296   3.060   4.875   9.455  0.4417 -0.3655  0.6977
  588MOL0     N79297   3.096   4.824   9.343 -0.3430 -0.5444 -0.2075
  588MOL0     C79298   4.231   4.678   9.118 -0.0827  0.1679 -0.8726
  588MOL0     C79299   4.368   4.675   9.101  0.1044  0.6573 -0.1052
  588MOL0     C79300   4.767   4.569   8.899 -0.5934  0.4922  0.1256
  588MOL0     C79301   4.798   4.645   8.781 -0.1070  1.3881 -0.6584
  588MOL0     C79302   4.917   4.617   8.712  0.7135 -0.2624  0.2463
  588MOL0     C79303   5.002   4.507   8.749 -1.3523 -0.0295 -0.1231
  588MOL0     O79304   5.109   4.447   8.673 -0.4707 -0.1180 -0.3670
  588MOL0     C79305   5.106   4.457   8.526 -0.6820  0.1120 -0.0789
  588MOL0     C79306   5.037   4.343   8.459  0.4015  0.7741  0.5681
  588MOL0     C79307   4.886   4.360   8.456 -0.5363 -0.8122 -0.2204
  588MOL0     C79308   4.817   4.223   8.452  0.1617  0.1312  0.1323
  588MOL0     C79309   4.692   4.217   8.371  0.4165  0.2678 -0.3042
  588MOL0     C79310   4.602   4.202   8.287 -1.0276  0.8207  0.1384
  588MOL0     C79311   4.972   4.437   8.865  0.2424  0.3065 -0.6209
  588MOL0     C79312   4.855   4.471   8.936 -0.7601  0.1309 -0.2422
  588MOL0     H79313   4.350   4.719   8.761 -2.6663 -0.3988 -0.2562
  588MOL0     H79314   4.124   4.714   8.800  1.7938 -4.5716 -1.9392
  588MOL0     H79315   3.981   4.861   8.910  4.9533 -3.8864 -1.2512
  588MOL0     H79316   3.915   4.710   8.860  2.5264  1.9829 -1.2059
  588MOL0     H79317   3.807   4.874   9.091 -1.1879 -2.7044  1.6129
  588MOL0     H79318   3.739   4.891   8.931  0.4589  0.3741  0.2307
  588MOL0     H79319   3.666   4.645   8.930 -0.4362 -1.8313  0.7227
  588MOL0     H79320   3.733   4.635   9.086  2.3444  0.2586 -1.1980
  588MOL0     H79321   3.559   4.831   9.153  2.7028  0.1986 -0.2659
  588MOL0     H79322   3.505   4.806   8.985  0.9155 -0.1580 -0.0116
  588MOL0     H79323   3.466   4.564   9.044 -2.4546  0.8790  0.1847
  588MOL0     H79324   3.510   4.613   9.208  1.6164 -0.0912 -0.5104
  588MOL0     H79325   3.294   4.783   9.180 -0.2929  1.7179 -2.2561
  588MOL0     H79326   3.275   4.694   9.024 -1.4872 -1.2344  0.3201
  588MOL0     H79327   3.240   4.483   9.113  1.6005 -0.1504 -1.0003
  588MOL0     H79328   3.293   4.540   9.269  0.4419  2.9685  1.0695
  588MOL0     H79329   3.022   4.518   9.245 -1.7088  1.1036  1.4388
  588MOL0     H79330   3.026   4.651   9.137  0.3108 -2.0673 -1.6454
  588MOL0     H79331   2.960   4.574   9.500 -1.5984  0.3838 -0.2218
  588MOL0     H79332   2.925   4.729   9.718  1.7462 -0.9457 -0.8092
  588MOL0     H79333   3.019   4.871   9.711  1.3087  0.4945 -3.0551
  588MOL0     H79334   2.735   4.843   9.602 -2.4263  1.5176 -0.2684
  588MOL0     H79335   2.834   4.982   9.556  1.7356 -2.1809 -1.2828
  588MOL0     H79336   2.837   5.058   9.776 -0.8451  1.9388 -3.8783
  588MOL0     H79337   2.798   4.897   9.849  0.1227 -1.2061 -1.2547
  588MOL0     H79338   2.596   5.045   9.668  0.5621  0.1632 -0.1078
  588MOL0     H79339   2.631   5.101   9.835  3.0210  0.5992 -1.3676
  588MOL0     H79340   2.355   4.765   9.939 -1.7718  0.2461  2.7556
  588MOL0     H79341   2.144   4.782  10.164  2.1489  4.5974  0.3305
  588MOL0     H79342   2.038   4.782  10.013  1.1078  0.2491 -1.3892
  588MOL0     H79343   2.195   4.695  10.020  1.9505 -0.2906  2.7320
  588MOL0     H79344   1.910   5.430  10.028 -1.2014  0.8116 -1.2024
  588MOL0     H79345   1.703   5.513  10.076  1.1215  0.0882  0.5186
  588MOL0     H79346   1.474   5.548  10.091 -3.1858  1.3882 -0.2623
  588MOL0     H79347   1.429   5.403  10.006  1.5038  0.7377 -0.7464
  588MOL0     H79348   1.227   5.394  10.160  0.6012 -1.5657 -3.2419
  588MOL0     H79349   1.274   5.559  10.222 -0.2850 -0.3347  0.1557
  588MOL0     H79350   1.226   5.506   9.928  1.7483 -2.2116  0.4957
  588MOL0     H79351   1.284   5.660   9.995  1.4778 -0.7836  0.9979
  588MOL0     H79352   1.037   5.525  10.110 -1.0695  0.1269 -1.7992
  588MOL0     H79353   1.089   5.682  10.153  1.2416  2.4701 -1.8130
  588MOL0     H79354   1.051   5.776   9.934 -2.7034  1.3396  0.7429
  588MOL0     H79355   0.913   5.712  10.010 -0.5504 -0.1060 -0.3279
  588MOL0     H79356   1.058   5.595   9.772 -0.0616 -1.8046 -1.0906
  588MOL0     H79357   0.943   5.495   9.861  0.9919  0.2108 -0.5036
  588MOL0     H79358   0.873   5.769   9.741 -0.0947  0.2500  0.4376
  588MOL0     H79359   0.753   5.651   9.808 -1.2143  0.3929 -1.4166
  588MOL0     H79360   0.733   5.625   9.589  1.2793  2.8944 -1.3756
  588MOL0     H79361   0.827   5.487   9.639  1.0067 -0.1850 -2.5232
  588MOL0     H79362   1.575   5.128  10.222 -0.0011  0.7751  1.5932
  588MOL0     H79363   1.781   5.028  10.152 -2.5971  0.4456 -1.2199
  588MOL0     H79364   2.245   5.241   9.981  0.4574  0.0504 -0.9941
  588MOL0     H79365   2.449   5.187   9.873 -3.9629  1.8223  0.4354
  588MOL0     H79366   4.197   4.664   9.220  0.7425  0.3488 -0.5701
  588MOL0     H79367   4.439   4.665   9.183  0.4282  0.8065 -0.3656
  588MOL0     H79368   4.747   4.725   8.727 -0.2029  2.1637  0.5517
  588MOL0     H79369   4.933   4.677   8.623  1.3946 -1.8230 -0.7284
  588MOL0     H79370   5.065   4.551   8.489 -1.2486  0.4765  1.4292
  588MOL0     H79371   5.203   4.459   8.476 -0.4022  0.3677  0.4726
  588MOL0     H79372   5.049   4.250   8.514 -1.3282 -0.2383 -0.6564
  588MOL0     H79373   5.073   4.329   8.357  1.6121 -0.0688  1.0927
  588MOL0     H79374   4.859   4.417   8.367 -0.0763 -0.5129 -0.1743
  588MOL0     H79375   4.850   4.409   8.547  1.1913 -0.0037  0.0740
  588MOL0     H79376   4.798   4.181   8.551 -0.6042 -0.1048 -0.1058
  588MOL0     H79377   4.882   4.148   8.405 -1.4228 -1.4086  0.2736
  588MOL0     H79378   4.516   4.198   8.222 -1.0818  1.5848  0.1605
  588MOL0     H79379   5.037   4.355   8.892 -0.5021 -0.6378 -1.5803
  588MOL0     H79380   4.839   4.427   9.034 -1.2055 -0.3842 -0.5351
  589MOL0     O79381   3.236   7.897   4.321  1.0446  0.6543  0.5606
  589MOL0     C79382   3.317   7.935   4.240 -0.1935 -0.3681  0.1237
  589MOL0     O79383   3.458   7.916   4.242 -0.1238 -0.2298  0.0399
  589MOL0     C79384   3.507   7.830   4.333  0.1248 -0.1874 -0.0158
  589MOL0     C79385   3.466   7.697   4.330 -0.3306  0.4419 -0.6670
  589MOL0     C79386   3.526   7.593   4.414  0.0613  0.3716  0.4175
  589MOL0     C79387   3.628   7.632   4.492  0.2686  0.2595  0.5147
  589MOL0     O79388   3.674   7.531   4.572 -0.0679  0.2433 -0.2880
  589MOL0     C79389   3.813   7.532   4.611  0.5282 -0.0276 -0.6645
  589MOL0     C79390   3.852   7.408   4.689  0.1209  0.8280  0.1497
  589MOL0     C79391   3.843   7.279   4.604 -0.5220  0.0208  0.8587
  589MOL0     C79392   3.804   7.163   4.690  0.3342  0.4967  0.4123
  589MOL0     C79393   3.652   7.161   4.732  0.4854  0.2611 -0.2498
  589MOL0     C79394   3.555   7.148   4.616 -0.8045 -0.0480  0.0401
  589MOL0     C79395   3.428   7.081   4.660  0.7147  0.0995 -0.2566
  589MOL0     C79396   3.348   7.174   4.748  0.6674  0.1656  0.0269
  589MOL0     N79397   3.293   7.293   4.674 -1.0747 -0.4484  0.6612
  589MOL0     C79398   3.322   7.424   4.705 -0.3781  0.5569  0.4396
  589MOL0     C79399   3.256   7.497   4.615 -0.2537  0.5124  0.8431
  589MOL0     C79400   3.244   7.645   4.615 -0.2887  0.0007 -1.4103
  589MOL0     C79401   3.137   7.693   4.714 -0.2889 -0.6291  0.5835
  589MOL0     C79402   3.018   7.589   4.730  0.5738  0.1185  0.1437
  589MOL0     C79403   2.908   7.634   4.820 -1.0305 -0.2081  0.0854
  589MOL0     O79404   2.817   7.725   4.753 -0.0321 -0.0253  0.3101
  589MOL0     C79405   2.707   7.779   4.816  0.1295  0.3291  0.8943
  589MOL0     C79406   2.620   7.864   4.740 -0.4751  0.2403 -0.3589
  589MOL0     C79407   2.509   7.923   4.801 -0.2783  1.4873 -0.4190
  589MOL0     C79408   2.422   8.000   4.713  0.5162 -0.0636  1.0732
  589MOL0     C79409   2.477   7.887   4.937 -0.9309  0.1314 -0.8559
  589MOL0     C79410   2.359   7.938   5.014  0.9790 -0.6738 -0.0892
  589MOL0     O79411   2.353   7.907   5.153 -0.0142 -0.3212  0.3231
  589MOL0     C79412   2.243   7.966   5.202  0.3475  0.3040  0.3959
  589MOL0     C79413   2.127   7.888   5.219  0.2983  0.9411  0.0324
  589MOL0     C79414   2.019   7.928   5.292  0.3170  0.2892  0.9259
  589MOL0     C79415   2.012   8.061   5.347 -0.4098  0.8924 -0.1646
  589MOL0     O79416   1.905   8.111   5.413  0.8565  0.5124  0.3536
  589MOL0     C79417   1.782   8.029   5.419 -0.7895 -0.9624  0.2333
  589MOL0     C79418   1.678   8.098   5.512  0.7871  0.5795 -0.1793
  589MOL0     C79419   1.540   8.045   5.471  0.3811  0.6182 -0.2020
  589MOL0     C79420   1.514   7.898   5.508  0.0201  0.2658  0.2234
  589MOL0     C79421   1.366   7.869   5.480  0.4903 -0.8506  0.3468
  589MOL0     C79422   1.327   7.717   5.474 -0.2111  0.0952  0.3917
  589MOL0     C79423   1.184   7.707   5.445  0.2948 -0.1087  0.2482
  589MOL0     C79424   1.136   7.566   5.417 -0.0699  0.0262  0.6847
  589MOL0    Cl79425   1.189   7.444   5.538 -0.1225 -0.1775  0.2184
  589MOL0     C79426   2.130   8.139   5.329  0.1110  0.2186  0.1130
  589MOL0     C79427   2.247   8.090   5.262  0.7731 -0.3411 -0.9858
  589MOL0     O79428   2.266   7.987   4.949  0.3918  0.0588  0.0675
  589MOL0     C79429   2.560   7.792   5.007  0.2359  0.5673  1.5958
  589MOL0     C79430   2.671   7.745   4.944  0.0244 -0.6621 -0.5880
  589MOL0     N79431   3.189   7.409   4.532 -0.3311  0.8615 -0.2631
  589MOL0     N79432   3.209   7.288   4.568 -0.3289 -0.2036 -0.0166
  589MOL0     C79433   3.674   7.769   4.499  0.2811 -0.3125  0.6383
  589MOL0     C79434   3.623   7.860   4.402 -0.5174  0.1393  0.7065
  589MOL0     C79435   3.265   7.993   4.124 -0.7676 -0.7110 -0.2683
  589MOL0     C79436   3.165   7.925   4.054 -0.6076 -0.1391  0.1175
  589MOL0     C79437   3.115   7.977   3.941  0.3766  0.5326  0.8072
  589MOL0     C79438   3.167   8.100   3.881  0.2225  0.4092 -0.0493
  589MOL0     O79439   3.106   8.157   3.779 -0.0128  0.1646 -0.3487
  589MOL0     C79440   3.167   8.268   3.703  0.7524 -0.0225 -1.0531
  589MOL0     C79441   3.073   8.310   3.590 -0.3705 -0.0668  0.1507
  589MOL0     C79442   3.149   8.398   3.496  0.2380  0.1796 -0.1501
  589MOL0     C79443   3.077   8.431   3.363  0.6235  0.6244 -0.9780
  589MOL0     C79444   2.935   8.486   3.391 -0.6442  0.4375 -0.4297
  589MOL0     C79445   2.821   8.518   3.421 -0.1572  0.3045 -0.0609
  589MOL0     C79446   3.278   8.165   3.948 -0.2937  0.1549 -0.4757
  589MOL0     C79447   3.324   8.112   4.072  0.1762  0.4472 -0.0949
  589MOL0     H79448   3.380   7.671   4.268 -0.7236  0.5128 -0.1608
  589MOL0     H79449   3.486   7.493   4.403  1.2669 -0.4685  2.9653
  589MOL0     H79450   3.881   7.523   4.525  0.1061  0.2419 -1.0310
  589MOL0     H79451   3.818   7.625   4.668  0.3380 -0.2463 -0.2865
  589MOL0     H79452   3.952   7.419   4.731  0.5387 -1.0282 -0.2575
  589MOL0     H79453   3.784   7.403   4.773  0.0255 -2.2884 -0.0089
  589MOL0     H79454   3.774   7.290   4.520 -0.4184  0.6065  0.8512
  589MOL0     H79455   3.944   7.277   4.562 -1.0924  2.4782 -0.8352
  589MOL0     H79456   3.828   7.071   4.636 -2.5459  1.4400 -2.7707
  589MOL0     H79457   3.874   7.164   4.775 -0.5869 -1.6066  1.2652
  589MOL0     H79458   3.643   7.072   4.795 -2.1501 -0.1380 -1.0446
  589MOL0     H79459   3.632   7.247   4.797 -0.4170  0.7153 -1.1004
  589MOL0     H79460   3.556   7.253   4.586  1.0521  0.6994  2.4657
  589MOL0     H79461   3.598   7.094   4.531  1.6272 -0.1657  1.2579
  589MOL0     H79462   3.368   7.048   4.574  1.4258 -0.9198 -0.3801
  589MOL0     H79463   3.455   6.991   4.717 -2.9375 -1.3098 -0.4539
  589MOL0     H79464   3.411   7.217   4.826  0.8150  1.1218 -0.5977
  589MOL0     H79465   3.265   7.127   4.800  1.3017  0.3441  1.2264
  589MOL0     H79466   3.383   7.463   4.785  0.1983 -1.9156  1.2855
  589MOL0     H79467   3.343   7.686   4.637 -0.1962 -0.9630  0.1190
  589MOL0     H79468   3.222   7.671   4.511  0.1403  4.3910 -0.6273
  589MOL0     H79469   3.117   7.791   4.670  4.5318  1.1283  1.6559
  589MOL0     H79470   3.191   7.708   4.808  1.7337 -1.0234 -0.4441
  589MOL0     H79471   3.047   7.488   4.760 -0.1115 -0.1208  0.0125
  589MOL0     H79472   2.968   7.566   4.636  1.3195 -1.8333  0.1737
  589MOL0     H79473   2.949   7.688   4.905 -0.8789 -2.4334  1.4791
  589MOL0     H79474   2.860   7.549   4.868 -2.7566 -0.0538 -1.2650
  589MOL0     H79475   2.642   7.880   4.635  0.9721  1.7909  0.1300
  589MOL0     H79476   2.459   8.013   4.611  0.0466  1.9897  1.1156
  589MOL0     H79477   2.334   7.936   4.702  0.9387 -0.3096 -1.4309
  589MOL0     H79478   2.391   8.101   4.744 -2.6530 -0.0669 -1.5194
  589MOL0     H79479   2.130   7.791   5.170 -1.3687  0.3558  1.0150
  589MOL0     H79480   1.929   7.867   5.283  0.9283 -0.3787 -1.4668
  589MOL0     H79481   1.751   8.011   5.316  1.0887 -2.2172 -0.1741
  589MOL0     H79482   1.807   7.928   5.453 -1.8635 -1.2432  0.2067
  589MOL0     H79483   1.706   8.073   5.615 -0.6900 -1.6293 -0.2447
  589MOL0     H79484   1.674   8.206   5.493  1.2678  0.5925 -0.1937
  589MOL0     H79485   1.524   8.077   5.367 -0.4691  3.0457  0.5967
  589MOL0     H79486   1.466   8.109   5.521 -0.9965  0.1962 -1.6032
  589MOL0     H79487   1.585   7.833   5.456 -0.7006 -0.7547  0.4666
  589MOL0     H79488   1.518   7.884   5.616 -2.4753 -0.4851  0.2797
  589MOL0     H79489   1.337   7.918   5.387 -1.0739 -2.3222  0.0094
  589MOL0     H79490   1.303   7.924   5.550 -0.8282 -2.1435  0.2336
  589MOL0     H79491   1.390   7.675   5.395 -0.7618 -0.6159  0.3309
  589MOL0     H79492   1.351   7.665   5.567 -0.3647  0.0207  0.3892
  589MOL0     H79493   1.170   7.770   5.356  1.3773 -0.0069  0.1332
  589MOL0     H79494   1.132   7.759   5.526 -0.8734 -0.9321  0.0504
  589MOL0     H79495   1.180   7.548   5.318  1.6512  0.5267  1.3170
  589MOL0     H79496   1.027   7.569   5.411 -0.1329  1.9937  1.7674
  589MOL0     H79497   2.121   8.237   5.375  1.1832  0.7196 -0.7047
  589MOL0     H79498   2.331   8.158   5.258  0.3609  0.2916  0.4476
  589MOL0     H79499   2.560   7.753   5.108  1.4864 -1.1312  0.9901
  589MOL0     H79500   2.741   7.682   4.997 -1.6204 -1.3803  0.8065
  589MOL0     H79501   3.742   7.802   4.577  0.5403  1.0406 -0.1276
  589MOL0     H79502   3.656   7.963   4.399  1.4499 -0.4384 -2.3497
  589MOL0     H79503   3.122   7.835   4.097  1.7578 -1.2825  0.2700
  589MOL0     H79504   3.027   7.928   3.901  0.6598  1.4345 -1.0300
  589MOL0     H79505   3.196   8.355   3.763 -0.7059 -0.9864  1.1835
  589MOL0     H79506   3.258   8.229   3.657  2.4422 -0.0607  2.0297
  589MOL0     H79507   2.985   8.365   3.626  0.3964  3.0172 -2.2640
  589MOL0     H79508   3.049   8.224   3.528  1.4935 -1.3916  1.1812
  589MOL0     H79509   3.240   8.343   3.472 -1.4259 -2.8154 -0.0448
  589MOL0     H79510   3.164   8.487   3.558 -2.6069 -0.9316  2.4132
  589MOL0     H79511   3.070   8.345   3.297  0.8014 -0.6313  0.5968
  589MOL0     H79512   3.144   8.512   3.332  2.0597  0.0803  0.5208
  589MOL0     H79513   2.727   8.565   3.442 -0.7569 -0.1826 -1.5083
  589MOL0     H79514   3.345   8.233   3.896  1.7554 -0.0861  1.6884
  589MOL0     H79515   3.412   8.149   4.123  0.1752 -1.1228  1.1032
  590MOL0     O79516   0.560   0.035  10.197 -0.2358 -0.2713  0.5637
  590MOL0     C79517   0.593   0.079  10.088  1.0636  0.0525  0.2200
  590MOL0     O79518   0.522   0.093   9.979  0.7994 -0.3153 -0.6027
  590MOL0     C79519   0.383   0.062   9.980 -0.5304 -0.0979  0.7139
  590MOL0     C79520   0.332  -0.023   9.885 -0.0303 -0.7575 -0.2897
  590MOL0     C79521   0.188  -0.047   9.875  0.2378 -0.5752 -0.1786
  590MOL0     C79522   0.104   0.030   9.960 -0.9727  0.4894  0.4220
  590MOL0     O79523  -0.024   0.021   9.926  0.5719  0.0988 -0.4217
  590MOL0     C79524  -0.126   0.111   9.975  0.0567  0.3815  1.1160
  590MOL0     C79525  -0.249   0.111   9.881  0.0134  0.3405 -0.2574
  590MOL0     C79526  -0.317  -0.028   9.889  0.1223  0.1668 -0.5952
  590MOL0     C79527  -0.409  -0.043  10.008  0.5170 -0.7763 -0.1922
  590MOL0     C79528  -0.475  -0.176   9.998 -0.3003 -0.6512  0.5037
  590MOL0     C79529  -0.582  -0.196  10.107  0.5549 -0.7861  0.6840
  590MOL0     C79530  -0.643  -0.340  10.115 -0.3402 -0.3470  0.1644
  590MOL0     C79531  -0.733  -0.351  10.245  0.0761  0.4080  0.5042
  590MOL0     N79532  -0.850  -0.268  10.229 -0.7351 -0.0594 -0.7019
  590MOL0     C79533  -0.963  -0.296  10.169  0.7229 -0.0012  0.7732
  590MOL0     C79534  -1.049  -0.192  10.175  0.0504  0.2890  0.2038
  590MOL0     C79535  -1.190  -0.186  10.118  0.3333 -0.2362 -0.6891
  590MOL0     C79536  -1.292  -0.284  10.191 -0.1955  0.6076  0.0590
  590MOL0     C79537  -1.297  -0.270  10.342 -0.0063  0.4711  0.0340
  590MOL0     C79538  -1.347  -0.140  10.396 -0.2838  0.0146  0.2630
  590MOL0     O79539  -1.485  -0.122  10.352 -0.0963  0.0540  0.1284
  590MOL0     C79540  -1.590  -0.151  10.439 -1.2209 -0.6718  0.0827
  590MOL0     C79541  -1.631  -0.062  10.532  0.5989 -0.0725  0.1854
  590MOL0     C79542  -1.730  -0.083  10.625  0.8363 -0.4525 -0.0423
  590MOL0     C79543  -1.753   0.022  10.743 -0.5530  0.1892  0.2633
  590MOL0     C79544  -1.789  -0.211  10.625 -0.8610  0.9512  0.8582
  590MOL0     C79545  -1.909  -0.241  10.702  0.3943  0.3334 -1.0791
  590MOL0     O79546  -2.021  -0.275  10.638  0.3912  0.4088 -0.3020
  590MOL0     C79547  -2.137  -0.263  10.706 -0.3679  0.1238 -0.5162
  590MOL0     C79548  -2.169  -0.156  10.789 -0.2452  0.5117 -0.0941
  590MOL0     C79549  -2.285  -0.153  10.857 -0.2406  0.2050 -0.0371
  590MOL0     C79550  -2.386  -0.247  10.836 -0.8985  0.6757 -0.2750
  590MOL0     O79551  -2.511  -0.231  10.904  0.1431 -0.5165  0.7873
  590MOL0     C79552  -2.577  -0.105  10.879 -0.0473  0.7591  0.5894
  590MOL0     C79553  -2.665  -0.096  10.757 -0.2395 -0.4707 -0.1954
  590MOL0     C79554  -2.757   0.027  10.756  0.3321  0.0893 -0.0430
  590MOL0     C79555  -2.874   0.020  10.649 -0.6476 -0.2165  0.7073
  590MOL0     C79556  -2.969   0.143  10.670  0.1877 -0.0769 -0.1420
  590MOL0     C79557  -3.089   0.126  10.580 -0.3116 -0.1930 -0.5048
  590MOL0     C79558  -3.057   0.154  10.436  0.7791  0.0047  0.6392
  590MOL0     C79559  -3.175   0.107  10.360 -0.5569  0.3063 -0.1757
  590MOL0    Cl79560  -3.140   0.124  10.188  0.1504 -0.4949 -0.0819
  590MOL0     C79561  -2.357  -0.356  10.758 -0.9045  0.3102  0.1076
  590MOL0     C79562  -2.237  -0.359  10.683 -0.2685  0.0613 -0.6700
  590MOL0     O79563  -1.895  -0.237  10.821 -0.1573 -0.4396 -0.3035
  590MOL0     C79564  -1.740  -0.306  10.530 -0.0002  0.7190 -0.8799
  590MOL0     C79565  -1.644  -0.281  10.435  0.0288 -0.9203 -0.4214
  590MOL0     N79566  -0.981  -0.094  10.243  0.1113  0.6767  0.3511
  590MOL0     N79567  -0.866  -0.142  10.284 -0.4067 -0.2435 -0.8488
  590MOL0     C79568   0.158   0.107  10.063 -0.1811 -0.3778  0.4711
  590MOL0     C79569   0.297   0.122  10.066  0.6902  0.6265 -0.5809
  590MOL0     C79570   0.738   0.105  10.081  0.0621 -0.3932  0.5762
  590MOL0     C79571   0.812   0.077   9.968 -0.3508 -0.6769  0.1234
  590MOL0     C79572   0.948   0.089   9.980 -0.3063 -0.3627 -0.1689
  590MOL0     C79573   1.015   0.120  10.103 -0.7606 -0.0410  0.2430
  590MOL0     O79574   1.154   0.113  10.103 -0.1108 -0.0060  0.1493
  590MOL0     C79575   1.221   0.192  10.002  0.2643 -0.9333  0.5245
  590MOL0     C79576   1.334   0.114   9.946 -0.5084 -0.5799  1.0953
  590MOL0     C79577   1.297  -0.001   9.853 -0.3850 -0.5476  0.7003
  590MOL0     C79578   1.423  -0.072   9.798  0.1829 -0.0745  0.4855
  590MOL0     C79579   1.504   0.012   9.712  0.0386 -0.8606 -0.0122
  590MOL0     C79580   1.573   0.086   9.646 -0.1494 -0.6792  1.0723
  590MOL0     C79581   0.940   0.164  10.210  0.4904 -0.9712 -0.0135
  590MOL0     C79582   0.801   0.160  10.199  0.4395  0.0903  0.6352
  590MOL0     H79583   0.399  -0.082   9.823 -0.2351 -0.0756 -1.1842
  590MOL0     H79584   0.145  -0.097   9.789  1.4691 -1.1606 -0.4762
  590MOL0     H79585  -0.163   0.107  10.077  1.4804  0.2513  1.6453
  590MOL0     H79586  -0.091   0.214   9.966 -1.0289  0.8226  1.7261
  590MOL0     H79587  -0.323   0.188   9.906 -0.6310  0.3213 -1.9540
  590MOL0     H79588  -0.224   0.125   9.775  0.6880 -1.3083 -0.3404
  590MOL0     H79589  -0.373  -0.052   9.798 -0.3199 -4.1621  0.6093
  590MOL0     H79590  -0.244  -0.108   9.898 -2.6615 -2.4089  1.0532
  590MOL0     H79591  -0.361  -0.038  10.106  0.7764 -0.0861 -0.3512
  590MOL0     H79592  -0.490   0.030   9.997  0.3888 -0.9636 -0.5263
  590MOL0     H79593  -0.529  -0.186   9.904 -0.9704 -0.6986  0.8902
  590MOL0     H79594  -0.393  -0.248  10.009  0.7680  0.6971  1.7993
  590MOL0     H79595  -0.526  -0.192  10.201 -0.3768 -0.0665  1.2247
  590MOL0     H79596  -0.657  -0.117  10.108  1.0021 -0.3031 -0.8126
  590MOL0     H79597  -0.699  -0.361  10.024 -2.3931  1.7102  0.8395
  590MOL0     H79598  -0.565  -0.417  10.122  2.3544  1.9682 -1.8347
  590MOL0     H79599  -0.689  -0.319  10.340  0.5681  2.3793 -0.3257
  590MOL0     H79600  -0.759  -0.457  10.252  1.2167  0.1779  1.5313
  590MOL0     H79601  -0.989  -0.391  10.123 -2.1557  1.7787 -1.6371
  590MOL0     H79602  -1.222  -0.082  10.119 -1.9306 -0.8442 -2.6240
  590MOL0     H79603  -1.174  -0.211  10.013  0.2507 -2.1045 -0.2969
  590MOL0     H79604  -1.265  -0.385  10.158 -1.0717  1.2353 -2.9267
  590MOL0     H79605  -1.393  -0.274  10.149 -0.0424  1.0063 -0.2193
  590MOL0     H79606  -1.201  -0.298  10.387 -1.1980 -0.7032  2.0413
  590MOL0     H79607  -1.370  -0.342  10.381  1.6033 -0.4421  1.5159
  590MOL0     H79608  -1.278  -0.063  10.360 -4.3806  3.7408 -0.4738
  590MOL0     H79609  -1.335  -0.125  10.504 -1.3173  0.3060  0.3497
  590MOL0     H79610  -1.592   0.039  10.527  0.0142  0.2482  1.5888
  590MOL0     H79611  -1.759   0.120  10.695  1.1391 -0.3578 -1.1729
  590MOL0     H79612  -1.851   0.013  10.791  0.4119  0.8780  2.4608
  590MOL0     H79613  -1.672   0.019  10.816 -1.2163 -0.0016  1.0175
  590MOL0     H79614  -2.093  -0.078  10.793 -0.7160  0.9545  0.4874
  590MOL0     H79615  -2.301  -0.069  10.924  1.2685  1.4914 -1.2111
  590MOL0     H79616  -2.652  -0.098  10.958 -0.8177 -1.8827  0.1891
  590MOL0     H79617  -2.516  -0.014  10.885 -0.5790  1.0695  1.4665
  590MOL0     H79618  -2.610  -0.099  10.662 -0.3238  0.2067 -0.2757
  590MOL0     H79619  -2.718  -0.191  10.753  1.7744 -1.6180 -1.0959
  590MOL0     H79620  -2.688   0.107  10.729 -0.4358  0.8905  0.3341
  590MOL0     H79621  -2.806   0.049  10.851 -0.6447  1.8464 -0.9045
  590MOL0     H79622  -2.834   0.014  10.548 -4.2182 -2.9255 -0.7681
  590MOL0     H79623  -2.920  -0.078  10.666  1.7859 -1.6491 -0.4010
  590MOL0     H79624  -2.924   0.242  10.658 -0.2736  0.0585 -0.7805
  590MOL0     H79625  -2.996   0.126  10.775  2.1897 -2.8281  0.0303
  590MOL0     H79626  -3.133   0.026  10.581 -2.0998  0.5057 -2.7887
  590MOL0     H79627  -3.160   0.199  10.618  2.3590  1.3598  1.9101
  590MOL0     H79628  -2.965   0.103  10.404  1.6581  1.4269  0.8336
  590MOL0     H79629  -3.038   0.261  10.427  0.9292 -0.0923 -0.2675
  590MOL0     H79630  -3.259   0.170  10.389  0.9902  1.4893  2.0457
  590MOL0     H79631  -3.206   0.005  10.384 -2.4064  0.3021 -2.2914
  590MOL0     H79632  -2.431  -0.434  10.742 -2.0206  1.7129 -2.0386
  590MOL0     H79633  -2.229  -0.449  10.622  0.1508  0.0748 -0.6361
  590MOL0     H79634  -1.776  -0.408  10.520  0.6646  0.5354 -1.4847
  590MOL0     H79635  -1.616  -0.358  10.364 -1.0015 -0.5471 -1.2563
  590MOL0     H79636   0.091   0.153  10.135  1.6024  0.2882  1.7634
  590MOL0     H79637   0.337   0.171  10.154 -1.1342 -1.1390  1.3437
  590MOL0     H79638   0.763   0.044   9.877  2.2275 -4.1814 -0.2219
  590MOL0     H79639   1.008   0.090   9.890  0.2392  2.4762  0.1345
  590MOL0     H79640   1.162   0.226   9.917 -1.7691 -1.0697  1.8168
  590MOL0     H79641   1.265   0.281  10.047  4.3169 -2.7239  0.6279
  590MOL0     H79642   1.383   0.063  10.030 -0.4975 -1.3417  0.6371
  590MOL0     H79643   1.401   0.178   9.889 -0.1240 -1.6895  0.2626
  590MOL0     H79644   1.239   0.041   9.771  0.6176  1.6860  1.0659
  590MOL0     H79645   1.233  -0.073   9.905 -0.9480 -0.5262  0.0486
  590MOL0     H79646   1.405  -0.163   9.741 -2.3005  2.2270 -2.8180
  590MOL0     H79647   1.485  -0.099   9.884 -1.4742  3.3647  3.0025
  590MOL0     H79648   1.619   0.163   9.587  0.0297 -2.6899 -1.6199
  590MOL0     H79649   0.983   0.206  10.300  0.3858  0.7852 -0.7436
  590MOL0     H79650   0.737   0.208  10.272 -0.2974 -0.0296  0.0780
  591MOL0     O79651   4.886   2.242   8.971 -0.6460 -0.0004  0.6651
  591MOL0     C79652   4.824   2.344   8.930 -0.1820  0.0033  0.4082
  591MOL0     O79653   4.887   2.459   8.894  0.1203 -0.5380 -0.5053
  591MOL0     C79654   5.005   2.455   8.817  0.4001  0.4875  0.3053
  591MOL0     C79655   5.069   2.337   8.768  0.3274  0.3184  0.7355
  591MOL0     C79656   5.186   2.340   8.697 -0.3415  0.2796 -0.0321
  591MOL0     C79657   5.245   2.457   8.651  0.0778 -0.0913 -0.0689
  591MOL0     O79658   5.366   2.444   8.588 -0.5499  0.3812 -0.0781
  591MOL0     C79659   5.428   2.558   8.536 -0.2301  0.1388 -0.0066
  591MOL0     C79660   5.540   2.530   8.441  0.5725 -0.0462 -0.1280
  591MOL0     C79661   5.633   2.656   8.425 -0.0852  0.4601  0.0719
  591MOL0     C79662   5.566   2.761   8.332  0.2270  0.0305  0.4710
  591MOL0     C79663   5.658   2.873   8.271  0.2308 -0.1075  0.8795
  591MOL0     C79664   5.687   2.986   8.364  0.3903  0.5719 -0.0107
  591MOL0     C79665   5.773   3.098   8.304 -0.2253 -0.3401  0.0665
  591MOL0     C79666   5.859   3.200   8.388  0.2648 -0.1024  0.2180
  591MOL0     N79667   5.761   3.273   8.471  0.8940  0.3002  0.6004
  591MOL0     C79668   5.675   3.362   8.411  0.2788 -0.5521  0.7159
  591MOL0     C79669   5.584   3.388   8.514  0.2992  0.3116  0.2192
  591MOL0     C79670   5.480   3.492   8.499 -0.1445 -0.1545  0.4933
  591MOL0     C79671   5.336   3.437   8.503 -0.3029  0.4620  0.0599
  591MOL0     C79672   5.228   3.535   8.459  0.4415 -0.3164  0.3355
  591MOL0     C79673   5.216   3.649   8.560  0.0646  0.3165  0.6786
  591MOL0     O79674   5.117   3.738   8.511 -0.3133 -0.4158 -0.2191
  591MOL0     C79675   4.980   3.714   8.520 -0.0249  0.2895  0.2131
  591MOL0     C79676   4.899   3.790   8.438 -0.5377  0.0231 -0.5094
  591MOL0     C79677   4.762   3.759   8.423 -1.0775  0.0912  0.3352
  591MOL0     C79678   4.683   3.840   8.332 -0.5988  0.7666 -0.1356
  591MOL0     C79679   4.709   3.640   8.480 -0.1756 -0.3357  0.4704
  591MOL0     C79680   4.571   3.594   8.479  0.1484  0.2402  0.4012
  591MOL0     O79681   4.542   3.472   8.526 -0.2882  0.7658  0.1892
  591MOL0     C79682   4.422   3.441   8.588  0.0040  1.5139 -0.4210
  591MOL0     C79683   4.355   3.535   8.662  0.3365 -0.2822 -0.5964
  591MOL0     C79684   4.225   3.502   8.704  0.9351 -0.1251  0.3423
  591MOL0     C79685   4.180   3.370   8.707  0.2010 -0.3106  0.6734
  591MOL0     O79686   4.079   3.331   8.782  0.5200 -0.0133  0.3411
  591MOL0     C79687   3.995   3.218   8.739 -0.6656 -0.4387 -0.6695
  591MOL0     C79688   3.847   3.258   8.787 -0.5261 -0.5918 -0.1958
  591MOL0     C79689   3.848   3.298   8.934 -0.6708 -0.0612 -0.3935
  591MOL0     C79690   3.848   3.180   9.029 -0.5117  0.1462 -0.3341
  591MOL0     C79691   3.852   3.227   9.181  0.2032 -0.2769  0.1151
  591MOL0     C79692   3.723   3.304   9.217  0.3586 -0.1799  0.0539
  591MOL0     C79693   3.709   3.344   9.367  0.5733 -0.3078  0.2113
  591MOL0     C79694   3.813   3.440   9.425  0.3966  0.4071  1.1021
  591MOL0    Cl79695   3.769   3.609   9.391  0.6004  0.1361  0.1740
  591MOL0     C79696   4.265   3.271   8.646  0.3607 -0.1530 -0.1048
  591MOL0     C79697   4.379   3.312   8.580  0.9804  0.6715  0.2963
  591MOL0     O79698   4.486   3.674   8.444  0.1348 -1.0519  0.0464
  591MOL0     C79699   4.792   3.577   8.571 -0.5583 -0.3552 -0.0125
  591MOL0     C79700   4.924   3.609   8.587  0.4343  1.1091 -0.4644
  591MOL0     N79701   5.607   3.304   8.622 -0.3445 -0.0641  0.3179
  591MOL0     N79702   5.712   3.228   8.592  0.1533  1.4289  0.3362
  591MOL0     C79703   5.185   2.578   8.694 -0.3998  0.5012  0.1740
  591MOL0     C79704   5.068   2.576   8.777 -0.3108  0.1724 -0.5975
  591MOL0     C79705   4.679   2.336   8.932 -0.2871 -0.2720  0.7579
  591MOL0     C79706   4.605   2.221   8.970  0.2775 -0.2693  0.4640
  591MOL0     C79707   4.466   2.219   8.987 -0.0123  0.2772  0.1509
  591MOL0     C79708   4.390   2.327   8.934  0.5199 -0.1906 -0.9280
  591MOL0     O79709   4.251   2.308   8.923 -0.1085 -0.7601 -0.5568
  591MOL0     C79710   4.154   2.411   8.890  0.2425 -0.7623 -0.1131
  591MOL0     C79711   4.029   2.342   8.898 -0.0404  0.5616 -0.2301
  591MOL0     C79712   3.918   2.431   8.874 -0.7620  0.3100  0.5410
  591MOL0     C79713   3.791   2.353   8.843 -0.3790 -0.0628  0.0718
  591MOL0     C79714   3.693   2.456   8.826 -0.4828 -0.5406  0.8197
  591MOL0     C79715   3.630   2.557   8.825  0.1115 -0.7617 -0.2388
  591MOL0     C79716   4.462   2.434   8.886  0.1634 -0.0087  1.3606
  591MOL0     C79717   4.603   2.443   8.880  0.1545  0.1981 -0.1482
  591MOL0     H79718   5.034   2.238   8.795 -1.2421  0.2281 -1.3855
  591MOL0     H79719   5.233   2.249   8.663  1.1990  0.8366  0.5130
  591MOL0     H79720   5.349   2.611   8.482  0.8664  0.1767 -1.6480
  591MOL0     H79721   5.465   2.617   8.621  0.1563 -2.8614  2.0769
  591MOL0     H79722   5.596   2.443   8.478 -0.1849 -0.1195  0.8774
  591MOL0     H79723   5.487   2.508   8.348 -2.7925 -0.0060  1.6220
  591MOL0     H79724   5.666   2.701   8.519 -1.3951 -0.8855  1.2277
  591MOL0     H79725   5.725   2.619   8.379 -0.7186 -0.2359 -0.6714
  591MOL0     H79726   5.517   2.713   8.247 -4.4692  2.8347  1.2197
  591MOL0     H79727   5.488   2.811   8.390 -0.9084  1.7693 -2.3352
  591MOL0     H79728   5.743   2.821   8.226 -1.4418 -2.1658 -0.1320
  591MOL0     H79729   5.605   2.913   8.184  3.8953 -1.0306 -2.0162
  591MOL0     H79730   5.590   3.027   8.394 -1.6765 -3.4304 -0.5333
  591MOL0     H79731   5.730   2.938   8.452  0.1481 -0.1387 -0.2773
  591MOL0     H79732   5.848   3.053   8.238  0.5182  1.3562 -0.3132
  591MOL0     H79733   5.709   3.161   8.241  1.4333 -1.5148 -3.0104
  591MOL0     H79734   5.918   3.269   8.327  1.0246  0.7649  1.8590
  591MOL0     H79735   5.927   3.139   8.449  0.4098  0.0068  0.1669
  591MOL0     H79736   5.678   3.400   8.310  3.5881  0.0328  0.9463
  591MOL0     H79737   5.509   3.558   8.582  0.3187 -2.5160  2.3413
  591MOL0     H79738   5.499   3.542   8.404 -2.9976 -1.0349 -0.6497
  591MOL0     H79739   5.311   3.399   8.603  1.2774  0.8682  0.6577
  591MOL0     H79740   5.329   3.346   8.443 -3.2451  0.7764 -0.2195
  591MOL0     H79741   5.130   3.487   8.448  1.9943 -3.2988 -2.2141
  591MOL0     H79742   5.260   3.562   8.358 -0.6578 -0.1888  0.0145
  591MOL0     H79743   5.312   3.702   8.560 -0.1649  0.7385  0.5198
  591MOL0     H79744   5.193   3.615   8.661 -2.3760  0.6766  0.2873
  591MOL0     H79745   4.935   3.876   8.383 -2.5466  1.7828  0.8005
  591MOL0     H79746   4.747   3.917   8.287  2.2409 -0.0308  2.2578
  591MOL0     H79747   4.656   3.794   8.236  1.7580 -1.5540  0.1943
  591MOL0     H79748   4.607   3.894   8.388 -0.8330 -0.3883  0.6838
  591MOL0     H79749   4.389   3.638   8.666  1.3849 -0.6289 -0.2780
  591MOL0     H79750   4.157   3.581   8.735  1.8834  0.5624  0.7109
  591MOL0     H79751   3.996   3.209   8.630 -1.9805  1.1382 -0.8454
  591MOL0     H79752   4.021   3.125   8.792 -2.7919 -0.2062  0.9219
  591MOL0     H79753   3.822   3.347   8.728  2.5613  0.5375  0.0247
  591MOL0     H79754   3.781   3.175   8.761  0.4962 -2.0344  1.5252
  591MOL0     H79755   3.755   3.353   8.951 -0.6658 -0.4537  1.1025
  591MOL0     H79756   3.928   3.366   8.964  1.0705 -1.7118 -1.0756
  591MOL0     H79757   3.753   3.125   9.020 -1.4797  1.6040  0.4979
  591MOL0     H79758   3.937   3.118   9.014  2.6270  3.2850  3.4060
  591MOL0     H79759   3.940   3.286   9.205  1.1843 -1.1360 -1.2638
  591MOL0     H79760   3.867   3.134   9.237  0.0060 -1.3134 -1.4758
  591MOL0     H79761   3.723   3.393   9.154  0.9169 -0.9989 -1.1608
  591MOL0     H79762   3.638   3.244   9.182 -0.1931  0.9463 -0.5947
  591MOL0     H79763   3.713   3.253   9.428  0.7860 -0.6771 -0.3489
  591MOL0     H79764   3.611   3.392   9.371 -0.2472 -1.1859 -4.1764
  591MOL0     H79765   3.903   3.425   9.364 -1.3448  2.4124 -2.2235
  591MOL0     H79766   3.837   3.428   9.531 -0.1498 -0.7957  1.1003
  591MOL0     H79767   4.232   3.168   8.637  0.5765 -0.3165  0.8721
  591MOL0     H79768   4.444   3.241   8.530 -0.9957 -0.2222 -1.1459
  591MOL0     H79769   4.758   3.487   8.621  1.2884 -1.3835 -0.5296
  591MOL0     H79770   4.977   3.547   8.658 -2.5455  0.0581  1.0282
  591MOL0     H79771   5.240   2.670   8.674 -0.9876  0.4847 -1.7458
  591MOL0     H79772   5.019   2.667   8.809 -0.2780 -0.1032  0.2667
  591MOL0     H79773   4.669   2.136   8.990  2.4378  0.1635 -3.5766
  591MOL0     H79774   4.423   2.131   9.034  1.8104  0.3493  2.1203
  591MOL0     H79775   4.162   2.500   8.954 -1.0870  0.7535 -1.9366
  591MOL0     H79776   4.163   2.449   8.788  0.3574  2.8919  1.1181
  591MOL0     H79777   4.019   2.297   8.997 -1.3361  2.0223  0.3488
  591MOL0     H79778   4.034   2.253   8.835  0.8935 -1.1883  2.1679
  591MOL0     H79779   3.939   2.499   8.791 -0.9752 -0.1679  0.0971
  591MOL0     H79780   3.903   2.499   8.959  0.0315  1.8817 -0.5150
  591MOL0     H79781   3.761   2.299   8.933  1.4372  0.1984  0.8768
  591MOL0     H79782   3.797   2.284   8.758  1.1632 -0.4643  0.4914
  591MOL0     H79783   3.576   2.650   8.825  4.1259  1.8017 -1.3906
  591MOL0     H79784   4.432   2.529   8.843  1.7406  0.3582  0.9939
  591MOL0     H79785   4.647   2.536   8.847  0.7996  0.0339  0.2384
  592MOL0     O79786   1.639   4.918   2.187  0.4714 -0.8389 -0.2574
  592MOL0     C79787   1.659   5.006   2.274 -0.7893 -0.6955 -0.2977
  592MOL0     O79788   1.578   5.104   2.319 -0.1267  0.0025 -0.4976
  592MOL0     C79789   1.456   5.112   2.255 -0.3434 -0.4093 -0.2054
  592MOL0     C79790   1.357   5.015   2.268 -0.5088  0.0989  0.0497
  592MOL0     C79791   1.237   5.028   2.205  0.6469 -0.4090 -0.1296
  592MOL0     C79792   1.210   5.137   2.110  0.2780  0.4420 -0.2047
  592MOL0     O79793   1.087   5.141   2.043  0.2221  0.0290  0.4945
  592MOL0     C79794   1.002   5.023   2.049 -0.2892  0.0671  0.6706
  592MOL0     C79795   0.918   5.018   1.914  0.1309 -0.3354 -0.0781
  592MOL0     C79796   0.800   5.114   1.920  0.7338 -0.3473 -0.0577
  592MOL0     C79797   0.697   5.101   1.805  0.2448  0.2501  0.2090
  592MOL0     C79798   0.583   5.194   1.803 -0.4321  0.7487  0.2364
  592MOL0     C79799   0.489   5.157   1.682  0.2219  0.2747  0.2723
  592MOL0     C79800   0.372   5.063   1.729 -0.0680 -0.3527  0.0602
  592MOL0     C79801   0.289   5.045   1.599  0.3315 -0.5508  0.1805
  592MOL0     N79802   0.164   4.988   1.624  0.1804  0.6424 -0.2040
  592MOL0     C79803   0.043   5.014   1.559 -0.9448  0.2252  0.2270
  592MOL0     C79804  -0.044   4.936   1.622  0.0438 -0.1995  0.8003
  592MOL0     C79805  -0.188   4.932   1.572 -0.3882 -0.1039 -0.4858
  592MOL0     C79806  -0.266   4.929   1.694 -0.4996  0.0102  0.2909
  592MOL0     C79807  -0.418   4.952   1.674 -0.1725 -0.8636 -0.3379
  592MOL0     C79808  -0.470   4.838   1.586 -0.6368 -0.2067  0.2707
  592MOL0     O79809  -0.608   4.848   1.614  0.1595  0.1394  0.1635
  592MOL0     C79810  -0.696   4.889   1.519 -1.1033 -0.1112  0.0445
  592MOL0     C79811  -0.659   4.986   1.423 -0.2182 -0.7508 -0.4822
  592MOL0     C79812  -0.762   5.047   1.348 -0.1223  0.2947  0.4571
  592MOL0     C79813  -0.725   5.172   1.260 -0.5025  0.2859 -0.5642
  592MOL0     C79814  -0.892   4.998   1.359  0.5630  0.3557  0.8895
  592MOL0     C79815  -1.005   5.047   1.271 -0.0196  0.4986 -1.0160
  592MOL0     O79816  -1.136   5.042   1.326  0.3295  0.2945 -0.4182
  592MOL0     C79817  -1.258   5.069   1.256  0.0575  0.0743 -0.4105
  592MOL0     C79818  -1.272   5.108   1.120  0.4784  0.0819  0.1777
  592MOL0     C79819  -1.395   5.114   1.064 -0.0032 -0.0463  0.7984
  592MOL0     C79820  -1.512   5.085   1.137  1.1444 -0.0245  0.2638
  592MOL0     O79821  -1.633   5.103   1.080  0.0915 -0.5525  0.2418
  592MOL0     C79822  -1.750   5.028   1.108  0.5815 -0.4933  0.6105
  592MOL0     C79823  -1.869   5.094   1.044  0.0306  0.1692  0.8613
  592MOL0     C79824  -1.999   5.032   1.108  0.1066 -0.2718 -0.8919
  592MOL0     C79825  -2.113   5.101   1.056  0.2216  0.2726  0.3077
  592MOL0     C79826  -2.236   5.076   1.141 -0.7810  0.8937 -0.4922
  592MOL0     C79827  -2.353   5.152   1.079 -0.1450 -0.1189 -0.2143
  592MOL0     C79828  -2.397   5.087   0.950 -0.5951  0.0401  0.2286
  592MOL0     C79829  -2.548   5.085   0.928 -0.6531  0.0071 -0.0028
  592MOL0    Cl79830  -2.636   5.242   0.926 -0.2432  0.0208 -0.3882
  592MOL0     C79831  -1.505   5.059   1.275  0.7821 -0.4617  0.1833
  592MOL0     C79832  -1.376   5.048   1.330  0.0056 -0.0881 -0.3755
  592MOL0     O79833  -0.975   5.068   1.157  0.0205 -0.0851  0.2705
  592MOL0     C79834  -0.922   4.902   1.454 -0.5990 -0.3609  0.6991
  592MOL0     C79835  -0.817   4.846   1.538  0.4931 -0.3925  0.1563
  592MOL0     N79836   0.017   4.872   1.727 -0.3810 -0.7917  0.7435
  592MOL0     N79837   0.142   4.898   1.726 -0.1729 -0.3322  0.5394
  592MOL0     C79838   1.316   5.230   2.099 -0.2111 -0.7086 -0.4594
  592MOL0     C79839   1.433   5.224   2.172 -0.0772  0.3526 -1.3929
  592MOL0     C79840   1.804   5.018   2.308  0.0420 -0.4539  0.5608
  592MOL0     C79841   1.856   5.106   2.406 -0.5035  0.4891 -0.3868
  592MOL0     C79842   2.004   5.123   2.417 -0.1848  1.2944 -0.4047
  592MOL0     C79843   2.093   5.062   2.329  0.3099 -0.1205 -0.2674
  592MOL0     O79844   2.230   5.092   2.335 -0.1928 -0.1888  0.1997
  592MOL0     C79845   2.320   5.038   2.240  1.0826  0.4550  0.5370
  592MOL0     C79846   2.463   5.101   2.270 -0.3124  0.2774  0.1204
  592MOL0     C79847   2.546   5.048   2.157 -0.7403  0.3322  0.4970
  592MOL0     C79848   2.698   5.060   2.186  0.2646 -0.1995  0.6663
  592MOL0     C79849   2.736   5.208   2.190 -0.5933 -0.0103 -0.2756
  592MOL0     C79850   2.772   5.321   2.186  0.3161  0.2496  0.0461
  592MOL0     C79851   2.032   4.975   2.235 -0.4129 -0.3884  0.2508
  592MOL0     C79852   1.896   4.955   2.224 -0.2315 -0.2249  0.6042
  592MOL0     H79853   1.372   4.927   2.330 -3.8141 -1.2655 -0.9083
  592MOL0     H79854   1.174   4.944   2.230  0.1169  0.9478  3.9015
  592MOL0     H79855   1.060   4.932   2.034 -0.4952 -0.1381  1.0834
  592MOL0     H79856   0.938   5.028   2.138  0.2196  2.5890  0.9621
  592MOL0     H79857   0.984   5.055   1.834 -1.2482 -0.2670 -1.2248
  592MOL0     H79858   0.886   4.916   1.892  0.1162  0.2946 -3.5901
  592MOL0     H79859   0.747   5.093   2.014  2.1160  2.8462  1.5843
  592MOL0     H79860   0.830   5.218   1.933 -0.9038  0.4830 -2.2901
  592MOL0     H79861   0.756   5.117   1.714 -0.3717 -1.0420 -0.4452
  592MOL0     H79862   0.649   5.003   1.802  0.8104 -0.0151 -1.8535
  592MOL0     H79863   0.529   5.194   1.898  2.7517  1.7180  2.1912
  592MOL0     H79864   0.630   5.291   1.786 -1.1324  2.0462  4.4827
  592MOL0     H79865   0.438   5.248   1.651  3.2655  1.7779 -0.6672
  592MOL0     H79866   0.541   5.104   1.601 -2.6902 -1.5385 -0.5911
  592MOL0     H79867   0.414   4.969   1.766  1.4158  1.6775  4.2066
  592MOL0     H79868   0.324   5.116   1.812 -0.6072  0.8406 -0.9851
  592MOL0     H79869   0.348   4.982   1.532 -2.3243 -1.6855 -1.2345
  592MOL0     H79870   0.285   5.138   1.541  1.3999  2.3338  4.3230
  592MOL0     H79871   0.027   5.071   1.467  1.5804 -1.5304 -1.4192
  592MOL0     H79872  -0.207   5.022   1.513 -0.7312  0.4652  0.4663
  592MOL0     H79873  -0.212   4.846   1.508 -0.2730 -0.4076 -0.1252
  592MOL0     H79874  -0.217   4.997   1.764  0.4014  0.3578 -0.6521
  592MOL0     H79875  -0.246   4.832   1.743  1.3023 -0.3408 -1.0361
  592MOL0     H79876  -0.434   5.050   1.628  2.4824 -0.2928 -0.2147
  592MOL0     H79877  -0.454   4.949   1.777  3.1579 -0.1194  0.9992
  592MOL0     H79878  -0.432   4.742   1.623  0.9255  0.0835 -0.5074
  592MOL0     H79879  -0.442   4.845   1.481 -0.8509  0.2630  0.2472
  592MOL0     H79880  -0.557   5.021   1.410 -1.3290  2.4477 -1.3752
  592MOL0     H79881  -0.803   5.245   1.238  0.4157  1.1815 -0.9512
  592MOL0     H79882  -0.649   5.230   1.313 -2.2934  3.0112 -0.7506
  592MOL0     H79883  -0.681   5.138   1.166  1.7640  1.7903 -0.1291
  592MOL0     H79884  -1.183   5.118   1.059 -1.1797  0.6210 -2.3286
  592MOL0     H79885  -1.402   5.126   0.956  3.0776 -1.5457  0.3066
  592MOL0     H79886  -1.749   4.920   1.090 -1.0220 -0.9023  2.5557
  592MOL0     H79887  -1.770   5.034   1.216  1.2539 -1.0871  0.7738
  592MOL0     H79888  -1.871   5.201   1.063  1.1364  0.7704 -1.8681
  592MOL0     H79889  -1.864   5.066   0.938  0.5344 -4.1829  1.8280
  592MOL0     H79890  -1.995   5.043   1.217  0.3235 -0.9931 -0.8252
  592MOL0     H79891  -2.019   4.927   1.089 -1.1648 -0.4143  1.0464
  592MOL0     H79892  -2.094   5.208   1.059  1.1373  0.1640 -0.9019
  592MOL0     H79893  -2.126   5.072   0.951  0.1429  1.4833 -0.0246
  592MOL0     H79894  -2.205   5.112   1.240 -0.8111  0.3418 -0.2763
  592MOL0     H79895  -2.257   4.970   1.158  0.7722  0.6841  0.2795
  592MOL0     H79896  -2.430   5.163   1.157 -0.2897 -1.0160 -0.2187
  592MOL0     H79897  -2.328   5.256   1.056 -1.7753  0.0924 -1.1570
  592MOL0     H79898  -2.357   4.986   0.940  1.5695  0.7198  1.2984
  592MOL0     H79899  -2.348   5.147   0.872 -1.0172 -0.3830 -0.3750
  592MOL0     H79900  -2.596   5.025   1.005  0.9300  0.9416  1.7909
  592MOL0     H79901  -2.582   5.041   0.834  0.7542  0.0904 -0.5806
  592MOL0     H79902  -1.591   5.050   1.341  0.0973  2.6566 -0.1224
  592MOL0     H79903  -1.373   5.034   1.437 -0.1277 -0.2529 -0.3926
  592MOL0     H79904  -1.020   4.865   1.480 -0.1661 -1.4666  0.8023
  592MOL0     H79905  -0.837   4.762   1.603  3.0889 -0.5798  0.7954
  592MOL0     H79906   1.301   5.314   2.032  1.1446  0.4211  0.5881
  592MOL0     H79907   1.510   5.302   2.165  1.1073 -0.1726  3.1050
  592MOL0     H79908   1.800   5.171   2.472  0.0993 -1.7278  2.5307
  592MOL0     H79909   2.048   5.184   2.495  2.4752 -0.3925 -0.4790
  592MOL0     H79910   2.324   4.929   2.238  1.5621  0.4739 -0.7385
  592MOL0     H79911   2.285   5.068   2.140 -1.5703 -0.8023  1.0186
  592MOL0     H79912   2.493   5.071   2.371  1.4521 -0.1057 -0.4868
  592MOL0     H79913   2.450   5.210   2.269  1.5393  0.6332  3.0546
  592MOL0     H79914   2.521   5.110   2.070 -1.4442 -0.9099 -0.2279
  592MOL0     H79915   2.519   4.947   2.125 -0.9251  0.6829 -0.4923
  592MOL0     H79916   2.755   5.011   2.107 -0.7688  2.9873 -2.2742
  592MOL0     H79917   2.711   5.006   2.281  0.2495  0.6410  1.1592
  592MOL0     H79918   2.802   5.424   2.174  2.6512 -0.4538 -0.7884
  592MOL0     H79919   2.085   4.934   2.150  0.4273  2.9537 -0.9964
  592MOL0     H79920   1.861   4.901   2.136  0.3798  0.5187 -0.1119
  593MOL0     O79921   9.238   4.030   8.353  0.0067  0.6457  0.0775
  593MOL0     C79922   9.224   4.136   8.417 -0.3145  0.9894 -0.1676
  593MOL0     O79923   9.145   4.154   8.523 -0.5052  0.0776  0.3449
  593MOL0     C79924   9.050   4.057   8.553 -0.1229  0.9001  0.3206
  593MOL0     C79925   9.082   3.971   8.667  0.5171 -0.4501  0.1874
  593MOL0     C79926   8.981   3.874   8.706  0.3522 -0.0552  0.6754
  593MOL0     C79927   8.850   3.868   8.646  0.2389  0.2821  0.0331
  593MOL0     O79928   8.749   3.781   8.691 -0.3925 -0.3354  0.0156
  593MOL0     C79929   8.612   3.796   8.659 -0.2592  0.4758 -0.5786
  593MOL0     C79930   8.523   3.699   8.742  0.2692  0.1386 -0.6282
  593MOL0     C79931   8.373   3.686   8.697  0.0763 -0.4580  0.7720
  593MOL0     C79932   8.295   3.807   8.747 -0.1783 -0.4182  0.6342
  593MOL0     C79933   8.143   3.817   8.698 -0.3730 -0.1611 -0.7982
  593MOL0     C79934   8.060   3.697   8.753  0.7964  0.7196  0.1271
  593MOL0     C79935   7.923   3.687   8.688 -0.8776 -0.3013  0.3237
  593MOL0     C79936   7.820   3.604   8.767 -0.8097  0.0542 -0.4769
  593MOL0     N79937   7.700   3.567   8.692  0.4321  0.3096  0.4222
  593MOL0     C79938   7.710   3.485   8.577 -0.1993 -0.1410 -0.7358
  593MOL0     C79939   7.583   3.469   8.546 -0.6671  0.0236 -0.3614
  593MOL0     C79940   7.531   3.402   8.426  0.2171 -0.0969 -0.0504
  593MOL0     C79941   7.412   3.474   8.346 -0.0445 -0.7868 -0.2278
  593MOL0     C79942   7.458   3.604   8.284  0.3583  0.8490 -0.0714
  593MOL0     C79943   7.333   3.649   8.211 -0.1118  0.5701  0.7524
  593MOL0     O79944   7.361   3.771   8.138 -0.3033  0.4143  0.1568
  593MOL0     C79945   7.257   3.837   8.072 -0.3377  0.7648  0.3961
  593MOL0     C79946   7.298   3.937   7.982 -0.8600 -0.5726 -0.2856
  593MOL0     C79947   7.213   4.023   7.921 -1.1321 -0.2128  0.2182
  593MOL0     C79948   7.279   4.135   7.839  0.1208  0.1966  0.1225
  593MOL0     C79949   7.076   4.004   7.943 -0.2495  0.0747 -0.6402
  593MOL0     C79950   6.971   4.095   7.879  0.7539  0.4287  1.0928
  593MOL0     O79951   6.856   4.117   7.945 -0.1526 -0.3830 -0.2913
  593MOL0     C79952   6.752   4.165   7.871 -0.0831 -0.0482 -0.3469
  593MOL0     C79953   6.649   4.076   7.849 -0.5747  0.2375  0.4021
  593MOL0     C79954   6.532   4.122   7.789  0.0647  0.2537 -0.2066
  593MOL0     C79955   6.528   4.251   7.741  0.7361  0.1375  0.5205
  593MOL0     O79956   6.429   4.283   7.650  0.8610 -0.2205  0.0760
  593MOL0     C79957   6.291   4.275   7.697  1.0280 -0.2810  0.0248
  593MOL0     C79958   6.200   4.301   7.573 -0.4998 -0.5032  0.4048
  593MOL0     C79959   6.050   4.283   7.614  0.0213 -0.1927 -0.2128
  593MOL0     C79960   5.971   4.281   7.484  0.3389 -0.6562 -0.7145
  593MOL0     C79961   5.820   4.270   7.524  0.0915 -0.3621  0.7446
  593MOL0     C79962   5.735   4.255   7.391 -0.4773  0.0782 -0.2189
  593MOL0     C79963   5.589   4.244   7.437  0.4911  0.7170 -0.3387
  593MOL0     C79964   5.506   4.323   7.340  1.2175 -0.3657 -0.2056
  593MOL0    Cl79965   5.340   4.354   7.417  0.0690 -0.1032  0.0595
  593MOL0     C79966   6.632   4.336   7.757 -0.1160 -0.6537  0.0316
  593MOL0     C79967   6.745   4.297   7.830  0.3297 -0.7131 -0.3026
  593MOL0     O79968   6.987   4.131   7.766 -0.0852 -0.0169 -0.1505
  593MOL0     C79969   7.031   3.894   8.025 -0.2012  0.2585  0.2684
  593MOL0     C79970   7.120   3.812   8.093  0.7059  0.1751  0.4821
  593MOL0     N79971   7.506   3.533   8.634 -0.2851 -0.3275 -0.1240
  593MOL0     N79972   7.575   3.603   8.711 -0.1080 -0.5845  0.3992
  593MOL0     C79973   8.832   3.955   8.538  0.9428 -0.0008 -0.4085
  593MOL0     C79974   8.928   4.046   8.491  0.0630  0.1549 -0.1313
  593MOL0     C79975   9.305   4.257   8.379  0.2633 -0.2722  0.5061
  593MOL0     C79976   9.371   4.251   8.247 -0.6008 -0.9000  0.0422
  593MOL0     C79977   9.462   4.352   8.204  0.2450 -0.6840  0.0174
  593MOL0     C79978   9.499   4.454   8.298  0.3698  0.0820 -0.0391
  593MOL0     O79979   9.600   4.532   8.259  0.7254 -0.5119  0.2100
  593MOL0     C79980   9.728   4.466   8.245  0.0736  0.3916 -0.2843
  593MOL0     C79981   9.829   4.578   8.205  0.5678  0.0657  0.2213
  593MOL0     C79982   9.812   4.625   8.060 -0.1487  0.8247  0.0635
  593MOL0     C79983   9.854   4.530   7.949 -0.9694 -0.5136 -0.1818
  593MOL0     C79984   9.737   4.466   7.882 -0.9931  0.5095 -0.4518
  593MOL0     C79985   9.654   4.396   7.828  0.0581 -1.2923  0.8373
  593MOL0     C79986   9.430   4.463   8.423  0.4826  0.2806 -0.4688
  593MOL0     C79987   9.338   4.365   8.470  1.0650  0.1100  0.2205
  593MOL0     H79988   9.165   3.981   8.736 -1.5372  2.1462  2.4936
  593MOL0     H79989   8.990   3.805   8.790 -2.2774 -0.6981  0.4944
  593MOL0     H79990   8.593   3.904   8.655  1.3867  0.7689 -2.4364
  593MOL0     H79991   8.597   3.768   8.554 -0.1414  0.6602 -0.6459
  593MOL0     H79992   8.556   3.596   8.728  0.4043  0.0799  0.0798
  593MOL0     H79993   8.531   3.720   8.849 -1.2867 -0.0255 -0.4490
  593MOL0     H79994   8.369   3.669   8.589  3.0542  0.4374  0.4242
  593MOL0     H79995   8.338   3.597   8.750  1.7891  0.1554  3.1017
  593MOL0     H79996   8.295   3.808   8.857  0.1327 -0.1914  0.6337
  593MOL0     H79997   8.348   3.895   8.711 -1.3260 -0.0140 -0.0922
  593MOL0     H79998   8.101   3.912   8.733  0.2044  0.1664 -0.9720
  593MOL0     H79999   8.141   3.809   8.589  0.0201  0.9913 -0.9072
  593MOL0     H80000   8.114   3.603   8.740 -0.2322  0.0248  0.7117
  593MOL0     H80001   8.057   3.713   8.861  0.9472  2.1507 -0.0537
  593MOL0     H80002   7.877   3.784   8.667  1.0562  0.3676 -1.1294
  593MOL0     H80003   7.928   3.638   8.590 -1.6567  0.7019 -0.2393
  593MOL0     H80004   7.785   3.652   8.859 -0.0707 -1.9365  0.9296
  593MOL0     H80005   7.875   3.514   8.795  1.0093  1.8846  2.4529
  593MOL0     H80006   7.796   3.443   8.527 -0.2793 -0.5452 -0.5369
  593MOL0     H80007   7.612   3.392   8.353 -0.7615  0.4231 -1.2288
  593MOL0     H80008   7.499   3.304   8.461 -1.8087  1.0395  1.4748
  593MOL0     H80009   7.332   3.496   8.417  1.7408 -0.6786  1.8665
  593MOL0     H80010   7.373   3.403   8.273  1.3684 -0.3651 -1.4328
  593MOL0     H80011   7.543   3.589   8.217 -0.9643  0.2628 -1.6932
  593MOL0     H80012   7.482   3.687   8.350  2.6631  0.9310 -0.9237
  593MOL0     H80013   7.257   3.670   8.286  0.0387  1.2529  0.7218
  593MOL0     H80014   7.284   3.575   8.148 -0.3887  0.6247  0.9035
  593MOL0     H80015   7.404   3.959   7.974 -1.0630  0.4810 -0.1895
  593MOL0     H80016   7.238   4.233   7.864  2.3914  0.9539  1.1653
  593MOL0     H80017   7.388   4.135   7.846  0.0589 -1.2921  1.6599
  593MOL0     H80018   7.251   4.123   7.734  0.1668  0.1121  0.1195
  593MOL0     H80019   6.662   3.970   7.871 -0.4612  0.1380 -0.1347
  593MOL0     H80020   6.457   4.047   7.766  0.0021  0.1027  0.4748
  593MOL0     H80021   6.266   4.179   7.742 -1.3374  0.1774 -0.1313
  593MOL0     H80022   6.260   4.353   7.767 -0.4852 -1.2157  0.4592
  593MOL0     H80023   6.215   4.402   7.534 -0.5057 -0.3949  0.6834
  593MOL0     H80024   6.220   4.230   7.493 -0.1277  0.5917 -0.5022
  593MOL0     H80025   6.003   4.362   7.674 -2.2304 -1.3971 -0.2909
  593MOL0     H80026   6.034   4.195   7.677 -2.3340  1.8497  2.2844
  593MOL0     H80027   5.985   4.374   7.430  0.1655 -0.8635 -1.1182
  593MOL0     H80028   5.987   4.203   7.409 -0.4484 -1.8023  0.2670
  593MOL0     H80029   5.794   4.361   7.580  1.8413 -0.1272  1.2101
  593MOL0     H80030   5.788   4.194   7.596 -0.4335 -0.5887  0.2852
  593MOL0     H80031   5.750   4.347   7.334  0.0728  1.5245  2.0901
  593MOL0     H80032   5.768   4.167   7.335  0.8052 -1.3474  2.5662
  593MOL0     H80033   5.577   4.295   7.533 -0.8952  2.2141 -1.2307
  593MOL0     H80034   5.543   4.145   7.440  0.6732  0.4326 -3.4936
  593MOL0     H80035   5.489   4.283   7.240 -1.0804  0.9314 -0.4208
  593MOL0     H80036   5.549   4.422   7.324  2.2770 -0.5834  1.1215
  593MOL0     H80037   6.631   4.435   7.711  0.8011 -0.0880  1.1717
  593MOL0     H80038   6.834   4.358   7.841  1.5046 -2.2104 -1.1287
  593MOL0     H80039   6.929   3.875   8.057 -0.5027  1.8342  0.3225
  593MOL0     H80040   7.086   3.743   8.170  2.0890  0.7590  1.6543
  593MOL0     H80041   8.740   3.943   8.481 -1.4593  1.5130  2.7934
  593MOL0     H80042   8.910   4.101   8.399  0.2154 -1.1627 -0.9648
  593MOL0     H80043   9.334   4.172   8.183 -0.4876 -0.9837  0.0781
  593MOL0     H80044   9.492   4.362   8.101  0.7553  1.3289  0.3174
  593MOL0     H80045   9.767   4.432   8.342  1.7528  0.8624 -0.7563
  593MOL0     H80046   9.725   4.374   8.187 -0.1298  1.1045 -1.4206
  593MOL0     H80047   9.932   4.547   8.225  1.1045 -0.0806 -2.4539
  593MOL0     H80048   9.800   4.664   8.267 -2.1947 -1.0451  0.6332
  593MOL0     H80049   9.883   4.708   8.053  0.1364  0.7015  1.2669
  593MOL0     H80050   9.712   4.667   8.047 -0.8324 -0.0922  2.0130
  593MOL0     H80051   9.914   4.453   7.998 -1.1096 -0.4137  0.1463
  593MOL0     H80052   9.918   4.583   7.878 -1.3315 -2.0796 -1.7621
  593MOL0     H80053   9.572   4.346   7.782 -2.0799  0.5814  2.3865
  593MOL0     H80054   9.461   4.532   8.501  1.9455 -0.4861 -0.3554
  593MOL0     H80055   9.297   4.364   8.570 -1.9787 -4.5975 -0.7906
  594MOL0     O80056   7.851   4.575  10.816  0.5227 -0.5000 -0.4160
  594MOL0     C80057   7.879   4.461  10.770  0.0638 -0.1058 -0.2502
  594MOL0     O80058   7.789   4.371  10.715 -0.3469  0.0632 -0.0532
  594MOL0     C80059   7.659   4.403  10.736  0.4017  0.0158  0.1587
  594MOL0     C80060   7.596   4.497  10.659  0.3248 -0.5101  1.0018
  594MOL0     C80061   7.475   4.552  10.692  0.6109 -0.3689  0.4245
  594MOL0     C80062   7.401   4.503  10.798 -0.8025 -0.7118  0.3483
  594MOL0     O80063   7.279   4.543  10.840  0.3538 -0.2709  0.1439
  594MOL0     C80064   7.182   4.575  10.737  0.4147  0.2603 -0.5793
  594MOL0     C80065   7.146   4.457  10.647 -0.3479 -0.5750  0.0999
  594MOL0     C80066   7.023   4.471  10.557 -0.1596  0.0944 -0.7221
  594MOL0     C80067   6.892   4.457  10.645 -0.7376  0.5963  0.9210
  594MOL0     C80068   6.767   4.465  10.555  0.0660  0.0202 -1.2182
  594MOL0     C80069   6.625   4.463  10.623  0.0846  0.3917  0.2080
  594MOL0     C80070   6.591   4.342  10.706  0.9076 -0.3264 -0.1500
  594MOL0     C80071   6.444   4.344  10.755 -1.2734  0.3189  0.0165
  594MOL0     N80072   6.346   4.344  10.644 -0.4665 -0.4834  0.3278
  594MOL0     C80073   6.288   4.466  10.588 -0.2308 -0.0357  0.1764
  594MOL0     C80074   6.218   4.416  10.490  0.1674 -0.2431 -0.3234
  594MOL0     C80075   6.124   4.508  10.407  0.4374 -0.3009  0.5587
  594MOL0     C80076   6.011   4.592  10.472  0.0961  0.8989 -0.4091
  594MOL0     C80077   5.912   4.497  10.528 -0.4408 -0.2739 -0.0742
  594MOL0     C80078   5.813   4.559  10.621 -0.5388  0.2742 -0.4991
  594MOL0     O80079   5.724   4.642  10.551  0.1799 -0.2838  0.0723
  594MOL0     C80080   5.603   4.668  10.604 -0.5844 -0.1400 -0.4684
  594MOL0     C80081   5.513   4.726  10.522  0.0365  0.7353 -0.0831
  594MOL0     C80082   5.391   4.762  10.564  0.1917 -1.2346 -0.1478
  594MOL0     C80083   5.306   4.837  10.463 -0.2480 -0.7345  0.1531
  594MOL0     C80084   5.350   4.737  10.699 -0.0885  0.3674 -0.1889
  594MOL0     C80085   5.211   4.772  10.758 -0.1705  0.0800  0.4530
  594MOL0     O80086   5.195   4.765  10.890  0.3339  0.6924 -0.6833
  594MOL0     C80087   5.081   4.791  10.963  0.1370 -0.9956  0.5117
  594MOL0     C80088   4.962   4.853  10.914 -0.6308 -0.3415 -0.3299
  594MOL0     C80089   4.851   4.867  10.992  0.5177 -0.1724 -0.2256
  594MOL0     C80090   4.844   4.826  11.130 -0.0681 -0.5237  0.0779
  594MOL0     O80091   4.740   4.855  11.218 -0.8458  0.1964  0.7348
  594MOL0     C80092   4.604   4.874  11.170  0.2396 -0.0074 -0.0735
  594MOL0     C80093   4.492   4.806  11.252 -0.4198  0.3022 -1.1089
  594MOL0     C80094   4.484   4.828  11.401  0.1457 -0.5081 -0.2944
  594MOL0     C80095   4.349   4.781  11.460  0.3437  0.1004  0.0331
  594MOL0     C80096   4.294   4.856  11.582 -0.7539  0.3416  0.5577
  594MOL0     C80097   4.159   4.810  11.635  0.0889 -0.2780  0.0677
  594MOL0     C80098   4.155   4.659  11.670  0.0779  0.3782  0.1672
  594MOL0     C80099   4.021   4.609  11.741  0.5407  0.1664 -0.2428
  594MOL0    Cl80100   3.888   4.597  11.615 -0.3306 -0.1178 -0.4895
  594MOL0     C80101   4.957   4.761  11.178  0.5510  1.2285 -0.5566
  594MOL0     C80102   5.069   4.751  11.094  0.2853  0.4212  0.3218
  594MOL0     O80103   5.121   4.787  10.679  0.3328 -0.2962 -0.2467
  594MOL0     C80104   5.443   4.679  10.788 -0.3302 -0.2116  0.1577
  594MOL0     C80105   5.574   4.666  10.745 -0.3164  0.3718 -0.3977
  594MOL0     N80106   6.226   4.275  10.484 -0.1742  0.4697  0.6547
  594MOL0     N80107   6.304   4.237  10.574  0.1619  0.8563  1.1358
  594MOL0     C80108   7.458   4.405  10.879 -0.4897  0.0045  0.2812
  594MOL0     C80109   7.591   4.359  10.854 -0.2438  0.6184  0.4279
  594MOL0     C80110   8.028   4.420  10.765 -0.1544 -0.5689 -0.7344
  594MOL0     C80111   8.126   4.498  10.835 -0.1860 -0.1055  0.6297
  594MOL0     C80112   8.262   4.459  10.836 -0.0607 -0.2304  0.2626
  594MOL0     C80113   8.300   4.340  10.767  0.4904 -0.6544 -0.8957
  594MOL0     O80114   8.430   4.289  10.775  0.2520 -0.3601 -0.8201
  594MOL0     C80115   8.539   4.377  10.791  0.1533  0.4392 -0.7091
  594MOL0     C80116   8.667   4.289  10.768 -0.7071  0.9028  0.3670
  594MOL0     C80117   8.703   4.210  10.903  0.2872 -0.8593 -0.3078
  594MOL0     C80118   8.840   4.137  10.889  1.0976 -1.1411 -0.1951
  594MOL0     C80119   8.848   4.054  11.012 -0.1459  0.6273  0.1036
  594MOL0     C80120   8.865   3.986  11.115  0.6108 -0.3880  0.0441
  594MOL0     C80121   8.205   4.268  10.697 -0.2405 -0.4010  0.4031
  594MOL0     C80122   8.071   4.314  10.685 -0.3534 -0.0854 -0.6689
  594MOL0     H80123   7.649   4.538  10.574 -0.1650 -2.3665 -0.2485
  594MOL0     H80124   7.429   4.625  10.627 -1.5183 -0.0161  2.1890
  594MOL0     H80125   7.091   4.612  10.783 -0.5444 -0.1837 -2.0609
  594MOL0     H80126   7.207   4.658  10.670  0.1937  2.2559  1.6771
  594MOL0     H80127   7.228   4.454  10.576 -1.0571  1.9530 -0.9286
  594MOL0     H80128   7.144   4.363  10.704  1.7509 -0.7583 -0.0548
  594MOL0     H80129   7.028   4.570  10.511 -0.7764  1.8576  2.6207
  594MOL0     H80130   7.037   4.387  10.488 -0.3556 -1.0591  0.5813
  594MOL0     H80131   6.894   4.356  10.687  3.4397 -0.9172 -2.2329
  594MOL0     H80132   6.886   4.537  10.719  0.3877  1.5946 -0.0319
  594MOL0     H80133   6.776   4.557  10.497 -1.3230  1.2020  0.3372
  594MOL0     H80134   6.773   4.375  10.493  0.8780 -0.3214 -0.6691
  594MOL0     H80135   6.636   4.551  10.687  0.0031  2.0529 -1.9775
  594MOL0     H80136   6.553   4.494  10.547  2.0096 -1.1115 -2.3695
  594MOL0     H80137   6.596   4.248  10.650 -0.5324 -0.4063 -0.1948
  594MOL0     H80138   6.659   4.330  10.790 -1.8737 -0.4551  2.2426
  594MOL0     H80139   6.424   4.430  10.820  0.7007  0.9395 -0.1426
  594MOL0     H80140   6.432   4.260  10.824  1.9317  0.5343  0.9684
  594MOL0     H80141   6.297   4.569  10.622  1.4379 -0.4554  1.1415
  594MOL0     H80142   6.196   4.570  10.353  0.0685 -0.2941  0.0579
  594MOL0     H80143   6.073   4.437  10.341 -0.5316 -1.6601  2.6571
  594MOL0     H80144   5.959   4.660  10.404 -4.0356  1.7369  3.1539
  594MOL0     H80145   6.053   4.658  10.549 -2.0844  0.7661  0.9971
  594MOL0     H80146   5.943   4.400  10.566 -1.1512 -1.2622 -1.9130
  594MOL0     H80147   5.863   4.469  10.434  0.8617  0.2142 -0.9454
  594MOL0     H80148   5.858   4.629  10.693 -0.2940  2.7834 -2.8943
  594MOL0     H80149   5.764   4.476  10.672  0.2717 -1.0200 -1.7640
  594MOL0     H80150   5.547   4.728  10.419 -1.0532  1.2430 -0.4411
  594MOL0     H80151   5.271   4.935  10.497 -0.2723 -1.1749  1.4520
  594MOL0     H80152   5.370   4.854  10.375 -0.5175  1.2881  0.3013
  594MOL0     H80153   5.223   4.774  10.429  0.3516 -1.6036  0.2886
  594MOL0     H80154   4.966   4.906  10.819  0.7472  0.4334  0.1285
  594MOL0     H80155   4.768   4.909  10.935  0.6303 -0.9772 -1.0015
  594MOL0     H80156   4.578   4.980  11.155  2.7842  0.7156  0.2108
  594MOL0     H80157   4.595   4.844  11.065  0.0172  2.2991 -0.7772
  594MOL0     H80158   4.393   4.829  11.211 -0.7058  3.0731  0.8313
  594MOL0     H80159   4.504   4.701  11.225 -2.2171 -0.8651  2.1403
  594MOL0     H80160   4.499   4.931  11.432  0.8570 -0.6381 -0.1703
  594MOL0     H80161   4.568   4.775  11.447  4.0995  3.6640 -1.9220
  594MOL0     H80162   4.272   4.776  11.382 -0.7912  0.6861  1.0867
  594MOL0     H80163   4.364   4.676  11.486 -1.8978  0.4722  3.3201
  594MOL0     H80164   4.282   4.961  11.551 -0.2987  0.4002  0.5752
  594MOL0     H80165   4.359   4.849  11.670 -1.0092  0.6460  0.7791
  594MOL0     H80166   4.145   4.871  11.725 -0.0119 -0.9198  0.4906
  594MOL0     H80167   4.080   4.832  11.562  2.0643  2.8435 -1.3241
  594MOL0     H80168   4.234   4.639  11.742  0.2437 -1.1520 -0.4045
  594MOL0     H80169   4.178   4.596  11.583 -0.2193 -0.4376  0.6588
  594MOL0     H80170   3.997   4.685  11.816  0.1169  0.1657 -0.3769
  594MOL0     H80171   4.049   4.513  11.787  1.9760  0.6702 -0.0047
  594MOL0     H80172   4.962   4.730  11.282 -0.5169 -2.9993 -1.5657
  594MOL0     H80173   5.155   4.700  11.137  0.9050  1.3013  0.1734
  594MOL0     H80174   5.419   4.651  10.890 -3.6377  1.7182  0.0366
  594MOL0     H80175   5.648   4.631  10.816  0.2290  0.6804 -0.8064
  594MOL0     H80176   7.404   4.358  10.961  0.7582  0.5807  1.4639
  594MOL0     H80177   7.643   4.290  10.918  1.2230  1.0092 -0.2852
  594MOL0     H80178   8.099   4.585  10.893  1.2421 -0.4788  1.8986
  594MOL0     H80179   8.331   4.518  10.895  3.5575 -2.4954 -1.3664
  594MOL0     H80180   8.541   4.448  10.708 -2.2406 -0.1013 -1.2948
  594MOL0     H80181   8.547   4.427  10.888  0.3089 -2.9130  1.1558
  594MOL0     H80182   8.745   4.364  10.753 -0.9610  0.6570 -3.1544
  594MOL0     H80183   8.650   4.227  10.680 -1.5519  2.0699 -0.3314
  594MOL0     H80184   8.617   4.146  10.922 -1.3113  0.6372 -2.1339
  594MOL0     H80185   8.712   4.278  10.988  3.5247  1.8605 -2.5509
  594MOL0     H80186   8.917   4.214  10.881 -2.3007  2.8890  1.5636
  594MOL0     H80187   8.842   4.070  10.803  3.9919 -0.4134 -0.8039
  594MOL0     H80188   8.883   3.914  11.192 -0.0220  0.1474  0.7018
  594MOL0     H80189   8.233   4.171  10.659 -1.6732 -0.4234 -0.6511
  594MOL0     H80190   8.002   4.256  10.624  0.4136 -1.7982  0.0383
  595MOL0     O80191   2.742   3.032   8.276  0.0534  0.1796 -0.3688
  595MOL0     C80192   2.809   3.027   8.170 -0.5927  0.3742 -0.1505
  595MOL0     O80193   2.758   3.055   8.041 -0.4178 -0.7513 -0.4888
  595MOL0     C80194   2.632   3.105   8.042  0.1543  0.2951  0.8272
  595MOL0     C80195   2.539   3.043   7.953  0.4386 -0.1549  0.2007
  595MOL0     C80196   2.416   3.104   7.927  0.1295 -0.7371 -1.0053
  595MOL0     C80197   2.384   3.222   7.992  0.5120 -0.2362 -0.0214
  595MOL0     O80198   2.258   3.267   7.963 -0.1681  0.4939 -0.4751
  595MOL0     C80199   2.211   3.365   8.048 -0.5382  0.2657 -0.2354
  595MOL0     C80200   2.067   3.386   8.022  0.7292 -0.4780  0.3515
  595MOL0     C80201   2.006   3.477   8.136 -0.9966  0.4107 -0.1025
  595MOL0     C80202   1.866   3.533   8.103 -0.2832 -0.1217 -0.5702
  595MOL0     C80203   1.815   3.605   8.223  1.0945 -0.1251  0.0445
  595MOL0     C80204   1.658   3.618   8.202  0.0674 -0.6311  0.3452
  595MOL0     C80205   1.588   3.717   8.306 -0.2640  0.2865  1.0638
  595MOL0     C80206   1.592   3.863   8.258 -0.0100  0.5651  0.6970
  595MOL0     N80207   1.541   3.956   8.364  0.6912  1.0347 -0.3410
  595MOL0     C80208   1.587   4.083   8.380 -0.2457  0.2759 -0.0431
  595MOL0     C80209   1.539   4.118   8.505 -0.0597  0.5170  0.7062
  595MOL0     C80210   1.557   4.250   8.581 -0.0112  0.1703  0.0355
  595MOL0     C80211   1.696   4.292   8.623 -0.3734 -0.5936  0.5326
  595MOL0     C80212   1.681   4.404   8.731  0.4431  0.3877 -1.4174
  595MOL0     C80213   1.807   4.478   8.769  0.3528  1.1383  0.4343
  595MOL0     O80214   1.839   4.574   8.668  0.1422 -0.6434  0.1219
  595MOL0     C80215   1.962   4.634   8.689 -0.8222 -0.2923 -0.2141
  595MOL0     C80216   2.044   4.632   8.802 -0.8653 -0.0907 -0.6022
  595MOL0     C80217   2.182   4.690   8.806 -0.0291 -0.1874 -0.1950
  595MOL0     C80218   2.252   4.667   8.938  0.9189  0.1375 -0.2164
  595MOL0     C80219   2.229   4.749   8.687  0.2031 -0.0096  0.1610
  595MOL0     C80220   2.369   4.793   8.667 -0.0095  0.2381  0.5040
  595MOL0     O80221   2.417   4.815   8.536 -0.3583 -0.0068  0.3513
  595MOL0     C80222   2.550   4.857   8.524 -0.3503  0.0623 -0.3972
  595MOL0     C80223   2.584   4.990   8.547 -0.9494 -0.4818  0.6273
  595MOL0     C80224   2.715   5.030   8.529  1.2104 -0.2174 -1.0127
  595MOL0     C80225   2.814   4.938   8.496 -0.4070 -0.1124 -0.0369
  595MOL0     O80226   2.944   4.971   8.481  0.6161 -0.0440  0.4576
  595MOL0     C80227   3.026   5.006   8.593 -0.1461 -0.5956 -0.7790
  595MOL0     C80228   3.086   4.894   8.675 -0.2563  0.2749 -0.8104
  595MOL0     C80229   3.169   4.949   8.800  0.9569 -0.1076 -0.2280
  595MOL0     C80230   3.074   5.015   8.916  0.6682  0.4456  0.3152
  595MOL0     C80231   3.144   5.055   9.042 -0.3268 -0.4299  0.0352
  595MOL0     C80232   3.251   5.154   9.017 -0.3522  0.8979  0.2984
  595MOL0     C80233   3.289   5.221   9.147  0.0196  0.3260  0.0707
  595MOL0     C80234   3.435   5.251   9.174  1.1778 -0.6709  0.2876
  595MOL0    Cl80235   3.545   5.292   9.037  0.0990 -0.3089 -0.4266
  595MOL0     C80236   2.779   4.806   8.469  0.6843  0.7298  0.6737
  595MOL0     C80237   2.650   4.762   8.491  0.4687  0.0711  0.1715
  595MOL0     O80238   2.443   4.801   8.766 -0.3146  0.0725  0.5631
  595MOL0     C80239   2.138   4.760   8.577  0.7036 -0.7304 -0.1424
  595MOL0     C80240   2.011   4.696   8.577 -0.4014  0.1827  0.9367
  595MOL0     N80241   1.452   4.027   8.554 -0.4572  0.3237 -0.4868
  595MOL0     N80242   1.456   3.922   8.469 -0.0772  0.5033  0.3975
  595MOL0     C80243   2.473   3.292   8.077  0.5164 -0.2825  0.4408
  595MOL0     C80244   2.599   3.230   8.099  0.7943 -0.1508 -0.7524
  595MOL0     C80245   2.940   2.959   8.163  0.6994  0.7722 -0.3036
  595MOL0     C80246   3.030   2.970   8.055 -0.5937 -0.4270 -0.0867
  595MOL0     C80247   3.158   2.905   8.049  0.2502 -0.0789  0.0482
  595MOL0     C80248   3.201   2.824   8.150  0.3928 -0.1335 -0.3536
  595MOL0     O80249   3.318   2.755   8.147  0.3445 -0.1262  0.1043
  595MOL0     C80250   3.398   2.762   8.032 -0.1308 -0.5733 -0.0372
  595MOL0     C80251   3.518   2.674   8.051  0.3998  0.1361 -0.4446
  595MOL0     C80252   3.623   2.695   7.945 -1.0575  0.3248  0.7120
  595MOL0     C80253   3.766   2.648   7.992  0.6600  0.4152 -0.3498
  595MOL0     C80254   3.870   2.693   7.903 -0.0579  0.1460 -0.8319
  595MOL0     C80255   3.962   2.726   7.836 -0.4920  0.3064  0.3923
  595MOL0     C80256   3.111   2.813   8.264  0.4719 -0.8568  0.0770
  595MOL0     C80257   2.985   2.883   8.271 -0.6814 -1.0010  0.0338
  595MOL0     H80258   2.571   2.946   7.915 -0.4260 -2.1888  4.0732
  595MOL0     H80259   2.342   3.057   7.862 -0.2194 -2.4041  0.5291
  595MOL0     H80260   2.226   3.336   8.152 -2.6824  0.2608  0.1114
  595MOL0     H80261   2.258   3.458   8.015  0.4303 -0.1512 -0.0725
  595MOL0     H80262   2.070   3.451   7.934  1.9023  0.2547  0.9082
  595MOL0     H80263   2.017   3.290   8.009  0.2087  0.0057 -1.5039
  595MOL0     H80264   1.992   3.415   8.224 -0.8798 -0.4051 -0.6447
  595MOL0     H80265   2.078   3.557   8.155  0.8147 -0.7836 -1.5469
  595MOL0     H80266   1.869   3.587   8.008 -0.3830  2.7966  0.9808
  595MOL0     H80267   1.797   3.450   8.084 -1.6807  0.7553  0.5211
  595MOL0     H80268   1.833   3.552   8.317  1.8277 -0.3805 -0.2314
  595MOL0     H80269   1.863   3.702   8.237  1.1823  0.3166 -2.6861
  595MOL0     H80270   1.633   3.663   8.105 -0.9597 -0.5605  0.6235
  595MOL0     H80271   1.603   3.525   8.219 -2.8678  0.9362  0.2666
  595MOL0     H80272   1.487   3.679   8.325 -1.1414  0.3737 -2.6989
  595MOL0     H80273   1.634   3.715   8.405 -0.3963  0.3545  1.1274
  595MOL0     H80274   1.537   3.884   8.166  2.6083  2.7907 -0.5246
  595MOL0     H80275   1.693   3.893   8.230 -0.1519 -1.7039 -2.7881
  595MOL0     H80276   1.640   4.146   8.310 -1.1799  0.9093 -0.2038
  595MOL0     H80277   1.515   4.328   8.517  0.7421 -0.0293 -0.7158
  595MOL0     H80278   1.497   4.254   8.673 -0.2310 -1.0414 -0.0412
  595MOL0     H80279   1.744   4.332   8.533  1.2964 -0.3009  1.5040
  595MOL0     H80280   1.758   4.208   8.658  0.6264 -1.1722 -2.3570
  595MOL0     H80281   1.654   4.351   8.823  0.4897  4.4776  1.2187
  595MOL0     H80282   1.608   4.480   8.702 -1.4326 -1.6123 -2.2346
  595MOL0     H80283   1.893   4.415   8.791 -0.0334 -0.4908 -2.2733
  595MOL0     H80284   1.786   4.528   8.864 -1.7189  2.0265 -0.4320
  595MOL0     H80285   2.013   4.576   8.890 -2.4966 -1.1159 -1.7864
  595MOL0     H80286   2.292   4.757   8.985 -0.9734  0.3983  1.0346
  595MOL0     H80287   2.188   4.616   9.011  1.4051 -0.1341  0.0260
  595MOL0     H80288   2.336   4.601   8.914  0.5610  0.0026 -1.1278
  595MOL0     H80289   2.505   5.062   8.567 -2.5655 -1.6904 -1.1230
  595MOL0     H80290   2.752   5.128   8.555  0.7108 -0.3251  0.1444
  595MOL0     H80291   3.113   5.069   8.570 -0.0742 -0.4806 -0.2074
  595MOL0     H80292   2.962   5.065   8.658  1.2363 -0.7464  0.7992
  595MOL0     H80293   2.995   4.851   8.719 -0.9440  1.1662 -1.3150
  595MOL0     H80294   3.146   4.824   8.616  0.9636 -0.1043  0.8102
  595MOL0     H80295   3.230   5.035   8.771  1.7205 -0.9354 -1.1680
  595MOL0     H80296   3.226   4.861   8.829  2.5302  0.4416 -1.4718
  595MOL0     H80297   3.029   5.108   8.881  0.5527  1.4937  2.9870
  595MOL0     H80298   2.992   4.948   8.942 -1.5718  2.4706 -1.0996
  595MOL0     H80299   3.182   4.971   9.100  2.6424  2.1976  2.2144
  595MOL0     H80300   3.067   5.100   9.105  0.3972  0.8535  0.0203
  595MOL0     H80301   3.339   5.110   8.969  1.1421  2.1726  1.7536
  595MOL0     H80302   3.210   5.239   8.961 -1.0014  0.0136 -0.5942
  595MOL0     H80303   3.242   5.158   9.223 -0.9765 -2.0182 -2.3459
  595MOL0     H80304   3.231   5.314   9.148 -0.0403  0.2906 -0.1578
  595MOL0     H80305   3.470   5.161   9.225 -0.5599 -0.6096  1.6746
  595MOL0     H80306   3.446   5.331   9.248 -1.2140 -0.8893  0.9433
  595MOL0     H80307   2.865   4.741   8.464  1.2500  1.4443  0.8579
  595MOL0     H80308   2.631   4.655   8.478  0.0012  0.2881 -1.0733
  595MOL0     H80309   2.169   4.812   8.487 -0.1620  2.4750  1.2878
  595MOL0     H80310   1.955   4.704   8.484  0.9904 -1.4401 -0.1256
  595MOL0     H80311   2.444   3.386   8.121 -2.2092  0.4498 -2.5801
  595MOL0     H80312   2.672   3.277   8.165 -0.9123  0.5475  0.7128
  595MOL0     H80313   3.004   3.046   7.982  0.0133 -0.3036 -0.1811
  595MOL0     H80314   3.219   2.927   7.962  0.4013  2.0510  0.6296
  595MOL0     H80315   3.342   2.722   7.947 -0.5113 -0.0829 -0.0215
  595MOL0     H80316   3.424   2.867   8.016 -1.0030 -0.3346  0.0755
  595MOL0     H80317   3.490   2.568   8.048 -0.0936  0.2898 -1.7523
  595MOL0     H80318   3.560   2.705   8.147  0.8060  0.3101 -0.6800
  595MOL0     H80319   3.622   2.800   7.918  0.6248 -0.1360 -1.4126
  595MOL0     H80320   3.598   2.649   7.849  1.8533 -0.9388  0.4408
  595MOL0     H80321   3.763   2.539   8.001 -0.1274  0.3591 -1.1510
  595MOL0     H80322   3.790   2.695   8.088  0.6348  1.0232 -0.6333
  595MOL0     H80323   4.041   2.763   7.774 -1.6708  1.6670 -0.3837
  595MOL0     H80324   3.135   2.762   8.357  0.8085 -2.3599 -0.8040
  595MOL0     H80325   2.924   2.894   8.361 -2.1327  0.9281 -1.0885
  596MOL0     O80326  10.430   1.141   8.929 -0.3477  0.1494  0.6191
  596MOL0     C80327  10.498   1.150   9.032 -0.3457 -0.4208  0.0877
  596MOL0     O80328  10.489   1.070   9.136  0.3433  0.4831  0.0365
  596MOL0     C80329  10.398   0.968   9.137 -0.6247  0.1561 -0.1948
  596MOL0     C80330  10.338   0.938   9.255  0.2055 -0.1103 -0.2474
  596MOL0     C80331  10.234   0.840   9.266  0.2008  0.3786 -0.4226
  596MOL0     C80332  10.204   0.764   9.151 -0.0257 -0.1473 -0.7517
  596MOL0     O80333  10.117   0.656   9.171  0.5004  0.0679  0.3008
  596MOL0     C80334  10.077   0.559   9.062  0.3013  0.3249 -0.9883
  596MOL0     C80335   9.964   0.470   9.119  0.0886 -0.3768  0.2897
  596MOL0     C80336   9.886   0.386   9.012  0.8538  0.1336  0.0299
  596MOL0     C80337   9.757   0.460   8.960  0.3022 -0.2261  0.7215
  596MOL0     C80338   9.635   0.446   9.051  0.6077  0.2174 -0.0432
  596MOL0     C80339   9.509   0.493   8.970 -0.1076  0.0496 -1.0065
  596MOL0     C80340   9.375   0.480   9.032 -0.6608  0.2704 -0.5864
  596MOL0     C80341   9.328   0.340   9.054 -0.6883  0.1413 -0.4959
  596MOL0     N80342   9.312   0.261   8.932 -0.4870  0.4660  0.1051
  596MOL0     C80343   9.386   0.150   8.897 -0.7953  0.2163 -1.2425
  596MOL0     C80344   9.370   0.129   8.763 -0.0612 -0.1826 -0.1116
  596MOL0     C80345   9.447   0.027   8.678 -0.1790 -0.4010 -1.0376
  596MOL0     C80346   9.593   0.068   8.676 -0.7099  0.1901 -0.1119
  596MOL0     C80347   9.619   0.203   8.613 -0.0323 -0.6565 -0.0477
  596MOL0     C80348   9.762   0.217   8.557 -0.4458  0.8705  0.1883
  596MOL0     O80349   9.865   0.206   8.654  0.5742  1.0869 -0.3141
  596MOL0     C80350   9.995   0.221   8.603 -0.0660  0.6366 -0.0320
  596MOL0     C80351  10.084   0.203   8.704 -0.1676  0.1699 -0.1956
  596MOL0     C80352  10.226   0.197   8.678  0.2605  1.0796 -0.8699
  596MOL0     C80353  10.315   0.175   8.788 -0.1347  0.3109  0.3760
  596MOL0     C80354  10.272   0.226   8.551 -0.5220 -1.1553 -0.0775
  596MOL0     C80355  10.422   0.222   8.513  0.9274  0.4646 -0.8870
  596MOL0     O80356  10.453   0.318   8.425 -0.0562  0.3962  0.0309
  596MOL0     C80357  10.574   0.325   8.373 -0.1674  0.2740 -0.3350
  596MOL0     C80358  10.610   0.290   8.239 -0.3796  0.3133  0.3599
  596MOL0     C80359  10.740   0.297   8.194 -0.2082 -0.5971  0.0607
  596MOL0     C80360  10.852   0.341   8.276  0.2015  0.2606 -0.3565
  596MOL0     O80361  10.983   0.369   8.240  0.2804 -0.1556  0.5104
  596MOL0     C80362  11.010   0.315   8.109 -0.0287 -0.3587  0.2208
  596MOL0     C80363  11.153   0.373   8.080  0.3879  1.0708 -0.3374
  596MOL0     C80364  11.188   0.369   7.944 -0.7478 -0.1259  0.6834
  596MOL0     C80365  11.333   0.399   7.915 -0.0461 -0.2089  0.4991
  596MOL0     C80366  11.349   0.422   7.763  1.1470  0.0351  0.1844
  596MOL0     C80367  11.492   0.382   7.712 -0.3928  0.1302 -0.5938
  596MOL0     C80368  11.495   0.408   7.560 -0.1731 -0.2035  0.5065
  596MOL0     C80369  11.487   0.548   7.515 -0.3666 -0.9341 -0.4158
  596MOL0    Cl80370  11.646   0.618   7.563 -0.5685  0.1120 -0.1035
  596MOL0     C80371  10.817   0.366   8.411  0.3173 -0.6545  0.4752
  596MOL0     C80372  10.685   0.363   8.460 -0.4932 -0.4309  0.0532
  596MOL0     O80373  10.497   0.134   8.550 -0.1083  0.5839 -0.0560
  596MOL0     C80374  10.185   0.250   8.445 -0.1524  0.3001  0.0553
  596MOL0     C80375  10.043   0.240   8.470 -0.5409  0.2048 -0.2971
  596MOL0     N80376   9.292   0.226   8.711  1.2062 -0.2007  0.5158
  596MOL0     N80377   9.260   0.302   8.812 -0.1349  0.3214 -0.5695
  596MOL0     C80378  10.277   0.783   9.032  0.1190  0.0346 -0.8892
  596MOL0     C80379  10.369   0.886   9.028 -0.1276  0.6164 -0.5221
  596MOL0     C80380  10.607   1.256   9.046 -0.1549  0.2708 -0.9040
  596MOL0     C80381  10.617   1.341   8.941 -0.4380 -0.3648 -0.6649
  596MOL0     C80382  10.722   1.436   8.939 -0.1395 -0.7977  0.2650
  596MOL0     C80383  10.819   1.444   9.040  0.0863  0.3749  0.3962
  596MOL0     O80384  10.934   1.514   9.018 -0.3440 -0.1502 -0.7058
  596MOL0     C80385  11.051   1.425   9.028 -0.2464 -1.0912 -0.0463
  596MOL0     C80386  11.182   1.515   9.011 -0.2883  0.9900 -0.1090
  596MOL0     C80387  11.196   1.574   8.876 -0.2769  0.1571 -0.1206
  596MOL0     C80388  11.282   1.701   8.869 -0.2149  0.3840  0.1038
  596MOL0     C80389  11.350   1.703   8.736 -0.0848  0.1467 -0.4406
  596MOL0     C80390  11.420   1.716   8.640 -0.1709  0.7894 -0.0179
  596MOL0     C80391  10.803   1.368   9.161  0.5641 -0.9056  0.6794
  596MOL0     C80392  10.698   1.272   9.157  0.6485 -0.3428 -0.7072
  596MOL0     H80393  10.366   0.996   9.343 -1.7607  0.2700  0.1885
  596MOL0     H80394  10.199   0.814   9.366 -0.5994  0.3273 -0.7120
  596MOL0     H80395  10.034   0.620   8.981 -1.3714 -0.1037 -0.4632
  596MOL0     H80396  10.159   0.499   9.022 -0.8177 -1.3295 -0.8817
  596MOL0     H80397  10.000   0.396   9.191 -0.0650 -0.8312 -0.1010
  596MOL0     H80398   9.893   0.536   9.170  0.8153 -0.5012  1.5067
  596MOL0     H80399   9.941   0.365   8.920 -2.7076 -1.7787 -1.8944
  596MOL0     H80400   9.856   0.288   9.049  2.8332 -1.5171 -2.3805
  596MOL0     H80401   9.785   0.564   8.940  0.4113 -0.4833 -0.5654
  596MOL0     H80402   9.725   0.422   8.863  2.6018 -0.3334 -0.0563
  596MOL0     H80403   9.623   0.341   9.080  2.1879 -0.0137 -0.1258
  596MOL0     H80404   9.655   0.508   9.139  3.3215  0.3238 -0.6402
  596MOL0     H80405   9.528   0.599   8.948 -0.4190  0.9881  2.6493
  596MOL0     H80406   9.503   0.439   8.875  0.4288  0.1299 -1.0911
  596MOL0     H80407   9.388   0.542   9.122  2.4667  0.1526 -0.8301
  596MOL0     H80408   9.304   0.530   8.965 -0.1619 -1.9926 -2.9794
  596MOL0     H80409   9.231   0.350   9.102 -1.5039 -1.8375 -1.5885
  596MOL0     H80410   9.401   0.303   9.127  2.2881  3.0350 -1.7589
  596MOL0     H80411   9.456   0.098   8.962  3.6459  2.4518 -3.7189
  596MOL0     H80412   9.449  -0.070   8.729 -2.4733 -0.5953 -1.1773
  596MOL0     H80413   9.414   0.008   8.576  2.3540 -2.4477 -1.5936
  596MOL0     H80414   9.651  -0.001   8.614 -2.0553  1.3085 -2.7692
  596MOL0     H80415   9.640   0.059   8.774  2.2622 -0.5430 -1.4921
  596MOL0     H80416   9.624   0.286   8.685  1.8167  0.3827 -1.2925
  596MOL0     H80417   9.548   0.234   8.537  0.2694  1.0342  0.3205
  596MOL0     H80418   9.777   0.315   8.511 -0.2869  1.7816  2.0990
  596MOL0     H80419   9.764   0.137   8.482 -0.6102  0.7972  0.2600
  596MOL0     H80420  10.054   0.194   8.808 -0.4248  0.0331 -0.2786
  596MOL0     H80421  10.275   0.203   8.886  0.5901 -2.4966  1.5840
  596MOL0     H80422  10.349   0.071   8.791  4.4673  1.5930  0.0081
  596MOL0     H80423  10.408   0.230   8.775 -0.4822  1.2012  1.4833
  596MOL0     H80424  10.536   0.251   8.169  0.7770 -0.0999 -0.6857
  596MOL0     H80425  10.744   0.271   8.089 -2.3916 -2.1098  0.2932
  596MOL0     H80426  11.003   0.205   8.113 -0.8971 -0.2829  1.1336
  596MOL0     H80427  10.947   0.365   8.035  1.0212 -1.5600 -1.5651
  596MOL0     H80428  11.162   0.475   8.116 -0.3150  1.4276 -1.1248
  596MOL0     H80429  11.220   0.305   8.134 -1.0742 -1.2091 -1.2374
  596MOL0     H80430  11.132   0.442   7.885  1.4264 -0.1583 -1.6377
  596MOL0     H80431  11.175   0.266   7.908  2.0199 -0.5217  0.5941
  596MOL0     H80432  11.365   0.490   7.967  2.7810  0.7304 -2.5350
  596MOL0     H80433  11.400   0.316   7.941  1.3063  0.2255 -1.3912
  596MOL0     H80434  11.331   0.529   7.748 -1.1800 -0.1296  1.3275
  596MOL0     H80435  11.271   0.365   7.711  3.2164 -0.1732 -2.9627
  596MOL0     H80436  11.563   0.445   7.766  0.6351 -1.5646  0.1181
  596MOL0     H80437  11.511   0.277   7.733 -1.0194 -0.0133 -0.7418
  596MOL0     H80438  11.409   0.351   7.525  1.2850 -2.1920 -0.0074
  596MOL0     H80439  11.575   0.352   7.511 -0.2201 -0.6443  0.9284
  596MOL0     H80440  11.404   0.598   7.565  0.8967 -1.6022  2.6369
  596MOL0     H80441  11.480   0.548   7.406  0.2297  0.8388 -0.4770
  596MOL0     H80442  10.894   0.368   8.487 -1.1278 -0.3899  1.9843
  596MOL0     H80443  10.665   0.392   8.562  0.0355  0.7109 -0.1485
  596MOL0     H80444  10.227   0.276   8.348 -1.1232 -0.7463 -0.6693
  596MOL0     H80445   9.977   0.245   8.384 -0.1004  0.1812 -0.6460
  596MOL0     H80446  10.256   0.723   8.944 -4.0729  0.1730 -0.1668
  596MOL0     H80447  10.408   0.907   8.929 -1.7048 -0.4996 -1.4249
  596MOL0     H80448  10.563   1.332   8.848  3.0840 -1.1108 -2.8041
  596MOL0     H80449  10.732   1.502   8.853  0.1044  0.6507  1.3586
  596MOL0     H80450  11.071   1.375   9.123  2.2442 -0.3242 -0.0806
  596MOL0     H80451  11.041   1.350   8.950 -0.2076  1.2541 -2.4497
  596MOL0     H80452  11.271   1.452   9.020  1.1112  2.3789 -2.8021
  596MOL0     H80453  11.179   1.585   9.095  1.2561  2.7324 -1.4248
  596MOL0     H80454  11.093   1.598   8.849 -0.4364 -1.6287 -1.3266
  596MOL0     H80455  11.231   1.497   8.806  2.7602  2.9660 -2.0406
  596MOL0     H80456  11.353   1.703   8.951  0.7077  0.4055 -0.6797
  596MOL0     H80457  11.220   1.790   8.881 -2.0527 -0.3970 -2.5994
  596MOL0     H80458  11.501   1.733   8.572 -0.5837  1.9948 -0.2413
  596MOL0     H80459  10.863   1.379   9.251  1.5178 -0.2817 -0.0004
  596MOL0     H80460  10.700   1.194   9.232 -0.1188 -0.1508 -0.4756
  597MOL0     O80461   4.789   1.138   7.727  0.6105 -0.2193  0.5604
  597MOL0     C80462   4.907   1.096   7.756  1.1596 -0.1711  1.0299
  597MOL0     O80463   4.960   1.105   7.881 -0.2642  0.1028 -0.4844
  597MOL0     C80464   4.877   1.160   7.976  0.0948 -0.1825  0.5461
  597MOL0     C80465   4.832   1.090   8.088  0.3148 -0.7426 -1.2874
  597MOL0     C80466   4.743   1.145   8.181  0.2582  0.2127 -0.0605
  597MOL0     C80467   4.704   1.281   8.159 -1.2442 -0.2124 -0.4432
  597MOL0     O80468   4.611   1.341   8.231  0.1844 -0.0131  0.2892
  597MOL0     C80469   4.629   1.332   8.374 -0.8714 -0.0952 -0.1842
  597MOL0     C80470   4.534   1.433   8.446  0.1405  1.1837 -0.3203
  597MOL0     C80471   4.391   1.421   8.399  0.1376  0.1815  0.9710
  597MOL0     C80472   4.301   1.529   8.468 -0.4751 -0.3198  0.4239
  597MOL0     C80473   4.147   1.520   8.429 -0.1587 -0.0150 -0.4803
  597MOL0     C80474   4.122   1.522   8.282  0.1981 -0.8216  0.2342
  597MOL0     C80475   3.969   1.535   8.262  0.0537 -0.0791 -0.3232
  597MOL0     C80476   3.949   1.542   8.106  0.3548  0.8616  0.1655
  597MOL0     N80477   3.804   1.555   8.083  0.7038 -0.2455  0.1266
  597MOL0     C80478   3.732   1.670   8.099 -0.4982 -0.1353  0.3089
  597MOL0     C80479   3.611   1.629   8.130  0.5671 -0.5737  0.7476
  597MOL0     C80480   3.499   1.720   8.178 -1.0490 -0.1587 -0.4183
  597MOL0     C80481   3.404   1.742   8.065 -0.5322  1.0546  0.1874
  597MOL0     C80482   3.312   1.853   8.105  0.1997  0.3051 -0.3679
  597MOL0     C80483   3.222   1.901   7.993 -0.5722  0.5672  0.1128
  597MOL0     O80484   3.167   2.027   8.051 -1.5291 -0.3646  0.0221
  597MOL0     C80485   3.033   2.060   8.014 -0.9908  0.2599 -0.3662
  597MOL0     C80486   2.973   2.013   7.897  0.4392 -0.3040  0.5982
  597MOL0     C80487   2.850   2.064   7.844  0.9181 -0.4619  1.0579
  597MOL0     C80488   2.813   2.042   7.706 -0.2911 -0.1691  0.1470
  597MOL0     C80489   2.771   2.140   7.937 -0.6361  0.1787  0.4768
  597MOL0     C80490   2.636   2.201   7.899  0.2358  0.5936 -0.0436
  597MOL0     O80491   2.565   2.144   7.797  0.7616 -0.6110  0.4799
  597MOL0     C80492   2.449   2.203   7.758 -0.0854 -0.1605 -0.2504
  597MOL0     C80493   2.458   2.314   7.686  0.0291 -0.6954 -0.4191
  597MOL0     C80494   2.344   2.387   7.650  0.1492 -0.6573  0.4099
  597MOL0     C80495   2.212   2.339   7.676 -0.2888 -0.7882  0.7525
  597MOL0     O80496   2.101   2.416   7.644  0.0346  0.5790 -0.2556
  597MOL0     C80497   1.977   2.358   7.677  0.3141 -0.4472 -1.3640
  597MOL0     C80498   1.864   2.460   7.642  0.0132  0.0757  0.0836
  597MOL0     C80499   1.726   2.419   7.687 -0.4234  0.7910 -0.2861
  597MOL0     C80500   1.708   2.264   7.700  0.5533 -0.4340  0.3706
  597MOL0     C80501   1.565   2.219   7.727 -1.0670  0.4582  0.7792
  597MOL0     C80502   1.475   2.190   7.605 -0.4128  0.4515 -0.0603
  597MOL0     C80503   1.327   2.153   7.646  0.1501 -0.2987 -0.3701
  597MOL0     C80504   1.244   2.137   7.526  0.0703  0.4308 -0.4750
  597MOL0    Cl80505   1.074   2.097   7.554  0.3483  0.0010  0.0166
  597MOL0     C80506   2.210   2.217   7.742  0.9465  0.1207 -0.1381
  597MOL0     C80507   2.322   2.153   7.783 -0.4262  0.7361  0.1496
  597MOL0     O80508   2.592   2.295   7.971 -0.0462  0.1089 -1.0657
  597MOL0     C80509   2.825   2.177   8.063 -0.6486  0.7796 -0.6613
  597MOL0     C80510   2.962   2.148   8.092  0.2433  0.4786  1.0451
  597MOL0     N80511   3.607   1.492   8.153 -0.4823  0.3976  0.0302
  597MOL0     N80512   3.722   1.442   8.106 -1.1036 -0.7216  0.4950
  597MOL0     C80513   4.746   1.351   8.040 -0.4837  0.0678  0.1653
  597MOL0     C80514   4.839   1.291   7.959 -0.2975 -0.4013  0.0209
  597MOL0     C80515   4.989   1.023   7.651 -0.9535 -0.3154  0.3465
  597MOL0     C80516   5.129   1.039   7.657  0.7044 -0.0991  0.7301
  597MOL0     C80517   5.221   0.982   7.567 -0.1352 -0.3122 -0.7820
  597MOL0     C80518   5.170   0.895   7.469 -0.3750  0.0164  0.6667
  597MOL0     O80519   5.258   0.837   7.375  0.4956  0.1215  0.7522
  597MOL0     C80520   5.302   0.910   7.257 -0.3513  0.7900 -0.2785
  597MOL0     C80521   5.395   1.028   7.290 -0.1742 -0.0759 -0.3738
  597MOL0     C80522   5.432   1.122   7.176 -0.3092 -0.0547  0.1861
  597MOL0     C80523   5.495   1.058   7.048 -0.1852 -0.2997 -0.1063
  597MOL0     C80524   5.616   0.983   7.065  0.1392  0.0199  0.1624
  597MOL0     C80525   5.712   0.913   7.084  0.0561 -0.0455  0.0427
  597MOL0     C80526   5.030   0.870   7.467  0.2933 -0.9855  0.1761
  597MOL0     C80527   4.940   0.941   7.555  0.1040  0.4903  0.2476
  597MOL0     H80528   4.854   0.983   8.096 -0.7889 -0.9078 -0.3939
  597MOL0     H80529   4.710   1.076   8.257  0.6075  1.4671  1.2783
  597MOL0     H80530   4.612   1.231   8.412  2.2344 -0.6052  0.1401
  597MOL0     H80531   4.735   1.338   8.402 -0.8629 -3.6117  1.0931
  597MOL0     H80532   4.528   1.409   8.553 -2.3030 -0.7600 -0.7921
  597MOL0     H80533   4.573   1.533   8.430  1.6918  0.3411 -2.2010
  597MOL0     H80534   4.391   1.427   8.289 -0.0298  0.5946  0.9933
  597MOL0     H80535   4.360   1.321   8.430 -0.2614 -0.6240 -1.6879
  597MOL0     H80536   4.308   1.532   8.577  1.1715 -0.1757  0.3377
  597MOL0     H80537   4.342   1.626   8.439  1.5471 -1.4053 -0.5467
  597MOL0     H80538   4.106   1.433   8.480  0.1587 -0.1935 -0.5250
  597MOL0     H80539   4.098   1.600   8.484 -1.8620 -2.1878  1.3164
  597MOL0     H80540   4.186   1.604   8.251  0.4388 -0.7826  0.8105
  597MOL0     H80541   4.159   1.426   8.244 -1.9162 -3.1982  3.5666
  597MOL0     H80542   3.925   1.444   8.306 -0.2426 -0.4632 -1.3698
  597MOL0     H80543   3.922   1.627   8.297  2.0873  1.0143 -0.3305
  597MOL0     H80544   3.993   1.461   8.047 -1.0655  1.2020 -1.4435
  597MOL0     H80545   3.992   1.637   8.072 -1.0686  0.7823 -2.0939
  597MOL0     H80546   3.765   1.771   8.075  1.1839 -0.7484 -0.1151
  597MOL0     H80547   3.452   1.662   8.259 -1.1795 -0.1295 -0.4734
  597MOL0     H80548   3.545   1.808   8.224  0.8018 -1.3733  0.1525
  597MOL0     H80549   3.352   1.649   8.039 -0.0658  0.8214  0.0897
  597MOL0     H80550   3.462   1.775   7.979  0.4140 -0.2757  0.2738
  597MOL0     H80551   3.382   1.934   8.127  1.8147 -0.7567 -1.4105
  597MOL0     H80552   3.252   1.834   8.195 -2.3407  1.8335 -1.6185
  597MOL0     H80553   3.150   1.827   7.956  0.5422 -0.0011 -1.0198
  597MOL0     H80554   3.284   1.931   7.907 -1.4312  0.5385 -0.5373
  597MOL0     H80555   3.039   1.964   7.826  1.0048  0.3047  0.6940
  597MOL0     H80556   2.786   2.138   7.661  0.1980  0.3012  0.8317
  597MOL0     H80557   2.888   1.996   7.642 -0.5801 -0.5828  0.1034
  597MOL0     H80558   2.725   1.978   7.698 -3.2028  3.5957 -1.2141
  597MOL0     H80559   2.558   2.349   7.663  0.0455 -1.4912 -1.6496
  597MOL0     H80560   2.354   2.476   7.588 -1.0609  0.1575  1.3510
  597MOL0     H80561   1.965   2.267   7.617 -2.6480 -1.2201  0.2170
  597MOL0     H80562   1.977   2.339   7.785 -2.0263 -0.0204 -1.2512
  597MOL0     H80563   1.893   2.549   7.698 -1.4769  1.1752 -0.8312
  597MOL0     H80564   1.854   2.483   7.536  1.2167  1.0990  0.1672
  597MOL0     H80565   1.655   2.449   7.609 -0.3226 -3.0565 -2.0901
  597MOL0     H80566   1.698   2.463   7.783 -0.9396  0.2370 -0.1768
  597MOL0     H80567   1.754   2.229   7.607 -1.5533 -1.3730 -0.3758
  597MOL0     H80568   1.771   2.237   7.785 -1.0032 -1.7351  1.1619
  597MOL0     H80569   1.520   2.299   7.786 -3.4274  0.7263 -1.2308
  597MOL0     H80570   1.577   2.123   7.778 -0.9270  0.1211  0.1356
  597MOL0     H80571   1.470   2.274   7.535 -1.4816  1.2874  0.9852
  597MOL0     H80572   1.521   2.101   7.559 -1.1343 -0.4365  0.8990
  597MOL0     H80573   1.285   2.227   7.715 -1.2568  0.7239 -2.2539
  597MOL0     H80574   1.333   2.053   7.690  0.3610  0.3731  1.1890
  597MOL0     H80575   1.289   2.066   7.455  0.5872  1.8842 -1.6415
  597MOL0     H80576   1.245   2.229   7.468  0.8858 -0.8404 -2.5872
  597MOL0     H80577   2.118   2.166   7.769  1.3288  0.6262  2.3230
  597MOL0     H80578   2.309   2.071   7.853  0.7251  0.7545  0.4169
  597MOL0     H80579   2.769   2.237   8.134  1.8664  2.7254 -0.1805
  597MOL0     H80580   2.997   2.175   8.191 -0.6069 -0.7374  1.7085
  597MOL0     H80581   4.706   1.450   8.025 -0.2914 -0.2211 -2.9955
  597MOL0     H80582   4.873   1.331   7.864  0.6524 -0.0650  0.4892
  597MOL0     H80583   5.168   1.099   7.738 -0.6478  1.9562 -0.0468
  597MOL0     H80584   5.326   0.999   7.589 -0.6391 -0.0762  1.7537
  597MOL0     H80585   5.360   0.838   7.197  1.6793 -0.1930  2.6299
  597MOL0     H80586   5.224   0.949   7.191 -1.0448 -0.3270 -0.1591
  597MOL0     H80587   5.493   0.991   7.321  0.2373  1.1332 -0.1474
  597MOL0     H80588   5.349   1.094   7.365 -0.5382 -0.7978  0.0438
  597MOL0     H80589   5.503   1.197   7.212 -2.7729  1.8754  1.3095
  597MOL0     H80590   5.343   1.179   7.148 -2.3880 -3.0472  0.1791
  597MOL0     H80591   5.515   1.135   6.973  2.5404 -1.1171 -0.3356
  597MOL0     H80592   5.420   0.993   7.002 -1.8789  1.5569 -0.1189
  597MOL0     H80593   5.802   0.861   7.110 -1.1709 -2.1226  0.3873
  597MOL0     H80594   5.003   0.801   7.388  1.8233 -3.1635  1.4670
  597MOL0     H80595   4.833   0.923   7.559  0.3628 -0.9202  2.0334
  598MOL0     O80596   7.297   8.443   6.988  0.0733 -0.5398  0.3816
  598MOL0     C80597   7.322   8.346   6.912 -0.3182  0.0646  0.0535
  598MOL0     O80598   7.231   8.278   6.834  0.2281 -0.3664 -0.6966
  598MOL0     C80599   7.097   8.264   6.864  0.4045  0.0463 -1.0413
  598MOL0     C80600   7.023   8.190   6.772  0.7064 -0.1108  0.3899
  598MOL0     C80601   6.884   8.165   6.792 -0.0041 -0.6312  0.0490
  598MOL0     C80602   6.825   8.209   6.910 -0.9725 -0.2428  0.1501
  598MOL0     O80603   6.692   8.188   6.921 -0.1026  0.4380  0.1500
  598MOL0     C80604   6.680   8.101   7.031  0.2368 -0.2914 -0.3558
  598MOL0     C80605   6.545   8.041   7.030 -0.9095  0.6892  0.2580
  598MOL0     C80606   6.435   8.152   7.015  0.3297 -0.7973 -0.4306
  598MOL0     C80607   6.366   8.130   6.881 -0.2537 -0.3073 -0.7722
  598MOL0     C80608   6.234   8.207   6.872 -0.6322  0.2777 -0.7599
  598MOL0     C80609   6.171   8.197   6.742  0.2718  0.6607  0.1204
  598MOL0     C80610   6.114   8.060   6.711  0.7288  0.2580 -0.1499
  598MOL0     C80611   5.982   8.032   6.797 -0.0662  0.3316 -0.3076
  598MOL0     N80612   5.876   8.129   6.770 -0.1554 -0.5141  0.4854
  598MOL0     C80613   5.827   8.225   6.855 -0.3617 -0.0748  0.3628
  598MOL0     C80614   5.732   8.287   6.790 -0.2350 -0.2600 -0.2077
  598MOL0     C80615   5.639   8.385   6.852  0.1369  0.6072  0.4352
  598MOL0     C80616   5.708   8.476   6.961  0.0546  0.2884  0.8210
  598MOL0     C80617   5.625   8.595   7.004  0.9535 -0.7640  0.9898
  598MOL0     C80618   5.551   8.570   7.135 -0.1347  0.1935 -0.5302
  598MOL0     O80619   5.468   8.455   7.136 -0.2054  0.4616  0.3255
  598MOL0     C80620   5.366   8.440   7.237 -0.0697 -0.6530  0.2798
  598MOL0     C80621   5.274   8.335   7.236 -0.0226  0.0134  0.9730
  598MOL0     C80622   5.175   8.310   7.335 -0.3692 -0.2153  0.0207
  598MOL0     C80623   5.082   8.193   7.306  0.3117 -0.0092 -0.1439
  598MOL0     C80624   5.173   8.393   7.459  0.5954 -0.7965  0.3300
  598MOL0     C80625   5.086   8.381   7.580  0.6136  0.0505 -0.6155
  598MOL0     O80626   5.130   8.420   7.701  1.2588 -0.7438  0.1074
  598MOL0     C80627   5.049   8.398   7.808  0.2346 -0.3231  0.2205
  598MOL0     C80628   4.998   8.517   7.869 -0.7439 -0.2007 -0.1305
  598MOL0     C80629   4.920   8.506   7.985  0.4583 -0.1692  0.7271
  598MOL0     C80630   4.889   8.385   8.041  0.0448 -0.5132  1.2342
  598MOL0     O80631   4.806   8.386   8.147  0.5069  0.1749 -0.0599
  598MOL0     C80632   4.743   8.262   8.189 -0.2045 -0.9582  0.4741
  598MOL0     C80633   4.643   8.289   8.298 -0.5052 -0.0639  0.7436
  598MOL0     C80634   4.699   8.301   8.434 -0.0974 -0.4518 -0.7062
  598MOL0     C80635   4.593   8.341   8.541  0.2000  0.2074  0.6447
  598MOL0     C80636   4.656   8.362   8.672 -0.5209 -0.4102 -0.0491
  598MOL0     C80637   4.548   8.412   8.764  0.6806  0.3367 -0.0559
  598MOL0     C80638   4.593   8.458   8.903  0.1185 -0.6508  0.1859
  598MOL0     C80639   4.492   8.461   9.017  0.2335  0.2338  0.1964
  598MOL0    Cl80640   4.591   8.550   9.135  0.0689  0.1325  0.0947
  598MOL0     C80641   4.944   8.264   7.975  0.5097 -0.1292  0.2613
  598MOL0     C80642   5.021   8.276   7.857 -0.8326 -0.2404  0.1758
  598MOL0     O80643   4.978   8.321   7.562  0.1432  0.1562 -0.2835
  598MOL0     C80644   5.264   8.498   7.460 -0.9004 -0.0714  0.9981
  598MOL0     C80645   5.359   8.516   7.354 -0.5501 -0.3298  0.7660
  598MOL0     N80646   5.716   8.230   6.669  0.4099 -0.3828 -0.2031
  598MOL0     N80647   5.803   8.134   6.660  0.0860  0.0039  0.8713
  598MOL0     C80648   6.904   8.269   7.013 -0.1815 -0.1305 -0.0957
  598MOL0     C80649   7.036   8.299   6.981  0.0667 -0.0895  0.2032
  598MOL0     C80650   7.460   8.307   6.902 -0.0259 -0.8255  0.9042
  598MOL0     C80651   7.565   8.373   6.971  0.4996  0.2559  0.3155
  598MOL0     C80652   7.699   8.341   6.968  0.6410  0.1130 -0.9705
  598MOL0     C80653   7.733   8.217   6.905 -0.8242  0.7878 -0.1921
  598MOL0     O80654   7.860   8.166   6.903  0.5422 -0.7024  0.3228
  598MOL0     C80655   7.951   8.221   6.999  0.2744 -0.1031  0.8046
  598MOL0     C80656   8.085   8.156   6.987 -0.4748 -0.0907 -0.1523
  598MOL0     C80657   8.153   8.185   6.858 -0.6922  0.3228  0.1244
  598MOL0     C80658   8.280   8.093   6.849 -0.2518 -0.0366  0.1906
  598MOL0     C80659   8.354   8.057   6.973  0.1882  0.3489  0.3736
  598MOL0     C80660   8.417   8.021   7.074 -0.4763 -0.2966  0.2759
  598MOL0     C80661   7.633   8.145   6.840 -0.0808  0.4444 -0.0033
  598MOL0     C80662   7.499   8.190   6.831 -0.1285 -0.0916 -0.5135
  598MOL0     H80663   7.081   8.168   6.683  0.2813  1.9573 -0.4395
  598MOL0     H80664   6.817   8.137   6.711 -1.8235  1.6745  0.6201
  598MOL0     H80665   6.756   8.022   7.029  0.2810 -0.2402 -0.6902
  598MOL0     H80666   6.681   8.141   7.133  1.9956  0.2404 -0.5499
  598MOL0     H80667   6.526   7.968   6.950 -1.3227 -0.8992  1.7440
  598MOL0     H80668   6.531   7.995   7.128  1.5727  2.3137  1.4800
  598MOL0     H80669   6.367   8.145   7.101  3.9393  0.5803  2.8081
  598MOL0     H80670   6.476   8.253   7.014 -0.0276 -0.5357 -4.1557
  598MOL0     H80671   6.435   8.150   6.799 -2.5491 -1.4282 -3.1429
  598MOL0     H80672   6.347   8.022   6.881 -1.4358 -0.1414 -2.5441
  598MOL0     H80673   6.171   8.170   6.954  0.0515 -2.2541 -1.2730
  598MOL0     H80674   6.253   8.313   6.892 -1.1133  0.3739 -0.7963
  598MOL0     H80675   6.097   8.275   6.722  3.3249  3.9463  0.6369
  598MOL0     H80676   6.249   8.212   6.666 -1.6791  0.0011 -2.1176
  598MOL0     H80677   6.081   8.051   6.607 -2.8546  0.3215  0.8338
  598MOL0     H80678   6.183   7.979   6.734 -0.8094 -1.4072 -1.1304
  598MOL0     H80679   6.006   8.028   6.903 -0.1558  1.8191 -0.2169
  598MOL0     H80680   5.951   7.932   6.766 -2.6094  1.2634 -1.0014
  598MOL0     H80681   5.869   8.236   6.954  0.0277 -1.4463  0.3765
  598MOL0     H80682   5.588   8.445   6.776 -1.2509 -0.9709  0.0683
  598MOL0     H80683   5.565   8.319   6.897 -0.3909  0.4043 -0.7111
  598MOL0     H80684   5.801   8.514   6.918 -0.1366 -0.5496 -0.4098
  598MOL0     H80685   5.732   8.414   7.048 -2.1196 -0.6885  0.8037
  598MOL0     H80686   5.560   8.630   6.923  0.7499 -0.5388  1.2467
  598MOL0     H80687   5.675   8.687   7.035 -0.8852  1.4719 -2.0809
  598MOL0     H80688   5.494   8.661   7.156 -1.5761 -0.9470  0.7130
  598MOL0     H80689   5.623   8.556   7.216 -1.0547  1.3211  0.5248
  598MOL0     H80690   5.275   8.277   7.144  0.4664  3.5026 -1.4133
  598MOL0     H80691   4.981   8.217   7.340  1.3316 -0.0159  3.2135
  598MOL0     H80692   5.078   8.180   7.197 -1.7399 -0.2413 -0.0849
  598MOL0     H80693   5.106   8.105   7.366 -0.2289  0.8911  1.4430
  598MOL0     H80694   5.025   8.618   7.839 -0.6872 -0.0918  0.2828
  598MOL0     H80695   4.871   8.594   8.024 -1.6543 -1.3401  0.8295
  598MOL0     H80696   4.701   8.203   8.106  0.0202 -2.0012  1.0864
  598MOL0     H80697   4.826   8.203   8.228  1.3187  0.9967  0.3462
  598MOL0     H80698   4.592   8.385   8.285  1.2309  0.7616 -0.3266
  598MOL0     H80699   4.571   8.207   8.296 -1.2713  0.5879  0.4938
  598MOL0     H80700   4.782   8.372   8.430  1.1881 -1.8039  0.6672
  598MOL0     H80701   4.746   8.208   8.467  0.7046 -0.1788 -1.0373
  598MOL0     H80702   4.552   8.439   8.514  0.8709  0.5659  0.8993
  598MOL0     H80703   4.518   8.262   8.533  1.0449 -0.5691  0.2839
  598MOL0     H80704   4.733   8.439   8.666  2.1945 -2.9469  0.0678
  598MOL0     H80705   4.693   8.266   8.710 -1.9756 -0.3084  1.7869
  598MOL0     H80706   4.493   8.497   8.723 -0.0547  0.7872  1.7640
  598MOL0     H80707   4.473   8.334   8.779 -1.3114  1.7343 -2.0780
  598MOL0     H80708   4.642   8.556   8.899  0.8973 -1.0584 -0.7431
  598MOL0     H80709   4.676   8.395   8.938  1.0673  0.9359  0.9171
  598MOL0     H80710   4.465   8.358   9.044 -0.8657  0.1315 -1.1913
  598MOL0     H80711   4.400   8.516   8.997  1.4762  1.7186 -1.7782
  598MOL0     H80712   4.935   8.160   8.004 -0.6767  0.1039  0.8075
  598MOL0     H80713   5.060   8.180   7.823 -1.9669 -0.3863 -0.7807
  598MOL0     H80714   5.275   8.561   7.548 -1.0926 -0.3928  1.2516
  598MOL0     H80715   5.433   8.595   7.362  0.5716 -0.7445 -3.1829
  598MOL0     H80716   6.860   8.294   7.109  1.2910  2.5982 -0.0381
  598MOL0     H80717   7.091   8.341   7.065 -0.8220  0.9482  0.2808
  598MOL0     H80718   7.538   8.469   7.014 -0.5915  1.2832 -2.4153
  598MOL0     H80719   7.782   8.396   7.010 -0.2566  0.1667  0.8546
  598MOL0     H80720   7.961   8.329   6.985  0.1864 -0.1784  0.1217
  598MOL0     H80721   7.905   8.207   7.097  0.2238 -0.5401  0.7213
  598MOL0     H80722   8.055   8.051   6.984 -1.0628  0.0393  0.7450
  598MOL0     H80723   8.132   8.186   7.081 -1.1844 -0.0283  0.1938
  598MOL0     H80724   8.183   8.290   6.864 -0.0927  0.2242 -0.8642
  598MOL0     H80725   8.085   8.174   6.773 -1.5011  1.3078  0.6257
  598MOL0     H80726   8.351   8.148   6.786 -0.5449 -2.1710 -2.1650
  598MOL0     H80727   8.249   7.997   6.807 -1.2132 -0.2993  1.4403
  598MOL0     H80728   8.479   7.988   7.155 -2.1165 -2.8499  0.6030
  598MOL0     H80729   7.666   8.057   6.785  0.3853  0.1403  0.7428
  598MOL0     H80730   7.423   8.130   6.782 -2.1850 -0.2326  2.5795
  599MOL0     O80731   8.040  10.823  11.294  0.0443 -0.2653 -0.2044
  599MOL0     C80732   7.973  10.784  11.200 -0.3374  0.1921 -0.2128
  599MOL0     O80733   7.844  10.824  11.169 -0.5052  0.0862  0.0547
  599MOL0     C80734   7.783  10.932  11.237  0.2585  0.6924 -0.0201
  599MOL0     C80735   7.841  11.040  11.282 -0.2261 -0.8511  0.6020
  599MOL0     C80736   7.765  11.148  11.323  0.0465 -0.1487  0.5722
  599MOL0     C80737   7.628  11.151  11.324  1.0464 -0.6030 -0.0476
  599MOL0     O80738   7.564  11.265  11.364  0.7140  0.8871  0.3120
  599MOL0     C80739   7.616  11.393  11.324  0.2139 -0.5076 -0.6639
  599MOL0     C80740   7.505  11.497  11.324 -0.3435 -0.4117 -0.6558
  599MOL0     C80741   7.400  11.468  11.218 -1.0199  0.0007 -0.6311
  599MOL0     C80742   7.276  11.537  11.258  0.2890 -0.6142 -0.5178
  599MOL0     C80743   7.171  11.538  11.144 -0.2548 -0.1832  0.1376
  599MOL0     C80744   7.206  11.616  11.009  0.1838  0.2561 -0.0370
  599MOL0     C80745   7.093  11.624  10.903  0.3985 -0.1509  0.6098
  599MOL0     C80746   7.131  11.693  10.775 -0.4231  0.2152  0.3013
  599MOL0     N80747   7.186  11.826  10.802 -0.8077 -0.4270  0.4028
  599MOL0     C80748   7.314  11.839  10.822 -0.7713 -0.6433 -0.2723
  599MOL0     C80749   7.329  11.977  10.815 -0.6847 -0.2997 -0.4639
  599MOL0     C80750   7.460  12.060  10.842 -0.1080 -0.1357 -0.3339
  599MOL0     C80751   7.603  11.995  10.817  0.1705 -0.5134 -0.2605
  599MOL0     C80752   7.727  12.089  10.835 -0.3686  0.2159 -0.2110
  599MOL0     C80753   7.818  12.019  10.936  0.1055  0.4340 -0.2996
  599MOL0     O80754   7.892  11.922  10.856 -0.2918  0.7272 -0.6144
  599MOL0     C80755   7.993  11.856  10.907 -0.4753 -0.5457 -0.3219
  599MOL0     C80756   8.047  11.901  11.029 -0.1356  0.1858 -0.4697
  599MOL0     C80757   8.163  11.866  11.093 -0.1101  0.7826  0.2111
  599MOL0     C80758   8.197  11.951  11.218 -0.8212  0.4302  0.4146
  599MOL0     C80759   8.240  11.776  11.023  0.0649 -0.2016 -1.2846
  599MOL0     C80760   8.370  11.730  11.072 -0.4227 -0.2493 -0.6891
  599MOL0     O80761   8.413  11.614  11.017  0.0951 -0.6340  0.3170
  599MOL0     C80762   8.548  11.572  11.025 -0.4924 -0.0738 -0.6604
  599MOL0     C80763   8.597  11.502  11.132  0.1559 -0.3372  0.1131
  599MOL0     C80764   8.736  11.463  11.128  0.0994 -0.1945  0.1144
  599MOL0     C80765   8.825  11.506  11.028 -1.3442 -0.0574  0.1536
  599MOL0     O80766   8.960  11.464  11.041 -0.4888  0.1460 -0.0102
  599MOL0     C80767   9.060  11.539  10.971  0.3710  0.2439 -0.1539
  599MOL0     C80768   9.199  11.478  11.008 -0.1253 -0.8407  0.1247
  599MOL0     C80769   9.315  11.569  10.961  0.5262  0.8932 -0.4498
  599MOL0     C80770   9.304  11.616  10.814 -0.0331  0.1587  0.0348
  599MOL0     C80771   9.436  11.693  10.769 -0.8290  1.0089  0.1578
  599MOL0     C80772   9.418  11.749  10.630 -0.6750 -0.9596 -0.0652
  599MOL0     C80773   9.549  11.806  10.571  0.6416 -0.2452 -0.5336
  599MOL0     C80774   9.625  11.907  10.657 -0.8053 -0.6978 -0.0539
  599MOL0    Cl80775   9.753  11.984  10.553 -0.2049 -0.2564 -0.0716
  599MOL0     C80776   8.769  11.567  10.918  0.0870 -0.5199 -0.0301
  599MOL0     C80777   8.636  11.610  10.920  1.5335  0.9116 -0.5473
  599MOL0     O80778   8.433  11.795  11.153 -0.3176  0.1410 -0.2127
  599MOL0     C80779   8.197  11.728  10.898  0.7502 -0.3427  0.2801
  599MOL0     C80780   8.064  11.758  10.842 -1.0823 -0.4263  0.5555
  599MOL0     N80781   7.209  12.030  10.784  0.1083  0.9437 -0.4845
  599MOL0     N80782   7.116  11.938  10.781  0.7646  0.7384 -0.5541
  599MOL0     C80783   7.560  11.030  11.291 -0.2789  0.1446  0.0638
  599MOL0     C80784   7.640  10.922  11.243  0.6048  0.4396 -0.3324
  599MOL0     C80785   8.047  10.685  11.114  1.4706  0.2565 -0.1516
  599MOL0     C80786   8.181  10.688  11.090  0.2455  0.3485  0.7069
  599MOL0     C80787   8.237  10.593  11.009 -0.0435 -1.1090 -0.7716
  599MOL0     C80788   8.165  10.499  10.942 -0.6267 -1.4778  0.0599
  599MOL0     O80789   8.211  10.401  10.856  0.5174  1.1536 -0.2417
  599MOL0     C80790   8.317  10.444  10.762  1.0536 -0.1244 -0.3440
  599MOL0     C80791   8.324  10.338  10.653  0.1159 -0.4586  0.0903
  599MOL0     C80792   8.346  10.192  10.691 -0.3810  0.3633 -0.3779
  599MOL0     C80793   8.342  10.097  10.570  0.6410  0.7613 -0.1209
  599MOL0     C80794   8.451  10.103  10.472 -0.3101  0.6447  0.6693
  599MOL0     C80795   8.536  10.099  10.395  0.0479  0.8460  1.1321
  599MOL0     C80796   8.028  10.509  10.954 -0.3407 -0.4122 -1.1810
  599MOL0     C80797   7.970  10.600  11.040  0.2808 -0.9177 -0.2101
  599MOL0     H80798   7.949  11.045  11.278 -0.3217  1.4579 -1.6397
  599MOL0     H80799   7.820  11.242  11.321  0.6266 -0.4861  0.2722
  599MOL0     H80800   7.703  11.421  11.385 -0.0707 -1.7222  0.3531
  599MOL0     H80801   7.656  11.393  11.223  1.2273 -0.1164 -0.2774
  599MOL0     H80802   7.460  11.497  11.424  0.3491 -2.3484 -0.3062
  599MOL0     H80803   7.541  11.600  11.311 -0.7728 -0.1771 -0.0775
  599MOL0     H80804   7.435  11.494  11.118  0.6446 -0.3975 -0.1777
  599MOL0     H80805   7.386  11.360  11.225  1.7618 -0.4301 -0.5764
  599MOL0     H80806   7.230  11.494  11.347  1.3649 -0.9864 -0.1238
  599MOL0     H80807   7.306  11.638  11.288  1.4924 -1.1536  0.1308
  599MOL0     H80808   7.141  11.435  11.119 -1.4320  0.1680  0.0359
  599MOL0     H80809   7.081  11.579  11.192  0.4677  0.4439  0.9937
  599MOL0     H80810   7.242  11.713  11.047  1.8149 -0.7035  1.0009
  599MOL0     H80811   7.292  11.567  10.963  0.4833 -0.1519  0.9262
  599MOL0     H80812   7.065  11.525  10.864 -5.1745  1.0793  0.6279
  599MOL0     H80813   7.004  11.676  10.939  1.5288  0.0659  3.2894
  599MOL0     H80814   7.044  11.689  10.710  0.8582 -4.5692 -1.5228
  599MOL0     H80815   7.212  11.634  10.732  2.2254  1.7104  2.8392
  599MOL0     H80816   7.395  11.768  10.836  0.2741  0.2408 -1.6424
  599MOL0     H80817   7.445  12.155  10.790  0.9806  0.3983  0.2928
  599MOL0     H80818   7.453  12.085  10.948  0.0458 -0.1167 -0.3277
  599MOL0     H80819   7.599  11.952  10.717 -2.6755  2.4656 -1.6479
  599MOL0     H80820   7.611  11.918  10.894  1.1035 -0.7046 -0.5456
  599MOL0     H80821   7.699  12.189  10.870 -2.6531  0.2037 -1.7793
  599MOL0     H80822   7.769  12.110  10.736 -1.6722  4.2453 -0.0711
  599MOL0     H80823   7.772  11.977  11.026  2.0512 -0.7229  0.2315
  599MOL0     H80824   7.884  12.099  10.970 -1.0907  0.6596  1.6071
  599MOL0     H80825   7.999  11.975  11.092  1.5167 -0.8627  2.2381
  599MOL0     H80826   8.132  12.037  11.234 -0.3046  0.6471  1.4311
  599MOL0     H80827   8.198  11.891  11.309  0.3266  0.3575  0.3629
  599MOL0     H80828   8.292  11.997  11.191 -0.3528 -1.2289 -0.9513
  599MOL0     H80829   8.530  11.479  11.214  0.6260  2.1972  1.3092
  599MOL0     H80830   8.762  11.416  11.222 -0.1831 -2.5301 -0.9128
  599MOL0     H80831   9.034  11.535  10.865 -1.3997  2.4801  0.1126
  599MOL0     H80832   9.043  11.641  11.006 -1.5747 -0.4568  1.1078
  599MOL0     H80833   9.218  11.446  11.111 -4.0951 -0.9369  0.9930
  599MOL0     H80834   9.200  11.395  10.937 -1.8872 -0.2785 -0.6317
  599MOL0     H80835   9.412  11.519  10.970 -0.1321 -0.1064  1.9739
  599MOL0     H80836   9.320  11.653  11.031 -0.2451 -2.2287  3.7031
  599MOL0     H80837   9.265  11.547  10.738  0.1461  1.4518 -1.2804
  599MOL0     H80838   9.221  11.688  10.813 -1.3432 -1.3056 -1.4894
  599MOL0     H80839   9.520  11.624  10.771 -1.7104 -0.3131 -2.5535
  599MOL0     H80840   9.459  11.767  10.846  2.1184  0.1359  0.2458
  599MOL0     H80841   9.379  11.669  10.567 -1.7418  0.7150 -1.6363
  599MOL0     H80842   9.345  11.831  10.631  0.1310 -0.2149  1.2806
  599MOL0     H80843   9.524  11.839  10.469  0.2453  0.6804 -0.1488
  599MOL0     H80844   9.608  11.716  10.550  1.4912  0.3971 -0.9383
  599MOL0     H80845   9.678  11.863  10.743  2.0064  3.1243  0.4359
  599MOL0     H80846   9.561  11.983  10.701 -0.8657  0.6673 -2.3580
  599MOL0     H80847   8.835  11.609  10.842  3.1390 -0.8709  2.2310
  599MOL0     H80848   8.585  11.654  10.834 -0.1405 -0.8678 -0.5416
  599MOL0     H80849   8.265  11.668  10.839  2.0727 -1.0123  2.3770
  599MOL0     H80850   8.036  11.720  10.744 -3.9502 -1.4737  1.6769
  599MOL0     H80851   7.453  11.025  11.306 -0.2651  2.4010  1.4286
  599MOL0     H80852   7.586  10.836  11.205 -0.1671 -0.1781  2.0409
  599MOL0     H80853   8.245  10.763  11.136  1.9325  0.0957 -1.0778
  599MOL0     H80854   8.342  10.581  10.987 -0.0591  1.3394 -2.5410
  599MOL0     H80855   8.284  10.540  10.721 -0.7044 -0.2045  0.7600
  599MOL0     H80856   8.416  10.461  10.806  1.9024  1.0134 -2.5211
  599MOL0     H80857   8.399  10.361  10.576  2.0374 -4.3611  0.5351
  599MOL0     H80858   8.232  10.338  10.593  0.7098 -1.3520 -0.8625
  599MOL0     H80859   8.281  10.152  10.769 -0.1528 -1.4500 -1.0681
  599MOL0     H80860   8.450  10.175  10.722 -0.2531  0.8698 -0.5243
  599MOL0     H80861   8.247  10.096  10.517  1.4203 -1.5117 -1.6474
  599MOL0     H80862   8.359   9.997  10.611 -2.3097 -0.1199 -0.8519
  599MOL0     H80863   8.615  10.078  10.326 -1.1011  0.3406 -0.0721
  599MOL0     H80864   7.962  10.446  10.894 -1.3798  1.5260 -2.1978
  599MOL0     H80865   7.862  10.602  11.033  0.0436 -4.5941  0.3539
  600MOL0     O80866  10.275  10.765   4.196 -0.4148  0.1194  0.3943
  600MOL0     C80867  10.315  10.737   4.082 -0.2404  0.2763  0.1244
  600MOL0     O80868  10.284  10.810   3.972  0.2101  0.4288 -0.2922
  600MOL0     C80869  10.221  10.931   3.978 -0.2310  0.3621 -0.3807
  600MOL0     C80870  10.075  10.934   3.963 -0.2392  0.5577 -0.5070
  600MOL0     C80871  10.018  11.065   3.954  0.7876  0.7830  0.1727
  600MOL0     C80872  10.088  11.184   3.950 -0.4109 -0.3721 -0.0472
  600MOL0     O80873  10.016  11.298   3.932 -0.6695 -0.1585 -0.0699
  600MOL0     C80874  10.056  11.419   3.995  0.2360 -0.8855 -0.3010
  600MOL0     C80875   9.942  11.517   3.995  0.7583  0.2972 -0.2041
  600MOL0     C80876   9.816  11.460   4.069  0.2688  1.0171  0.4826
  600MOL0     C80877   9.706  11.570   4.073 -0.2654  0.4951 -0.3574
  600MOL0     C80878   9.587  11.519   4.165  0.6030 -0.2649  0.0468
  600MOL0     C80879   9.459  11.605   4.147  0.2164  0.5290  0.0732
  600MOL0     C80880   9.357  11.572   4.254 -0.1231 -0.2036 -0.9593
  600MOL0     C80881   9.216  11.615   4.207 -0.5462 -0.8240 -1.0636
  600MOL0     N80882   9.214  11.756   4.171  0.9185 -0.2818  0.5050
  600MOL0     C80883   9.253  11.808   4.053  0.2437 -1.0383  0.0822
  600MOL0     C80884   9.222  11.941   4.075 -0.2589  0.5935 -0.7939
  600MOL0     C80885   9.270  12.054   3.993  0.3965  0.9998 -0.4000
  600MOL0     C80886   9.403  12.110   4.044 -0.6726 -0.4756  0.2713
  600MOL0     C80887   9.462  12.205   3.938  0.3057 -0.2718 -0.3273
  600MOL0     C80888   9.546  12.314   4.010 -0.4108  0.4984 -0.8368
  600MOL0     O80889   9.639  12.248   4.099  0.4992 -0.0764  0.0004
  600MOL0     C80890   9.726  12.333   4.162  0.0942 -0.1117 -0.3143
  600MOL0     C80891   9.833  12.259   4.218 -0.1632  0.1038 -0.3790
  600MOL0     C80892   9.933  12.313   4.300  0.2549 -0.2039 -0.2706
  600MOL0     C80893  10.026  12.222   4.371 -0.2732  0.1395 -0.7000
  600MOL0     C80894   9.920  12.457   4.314 -0.6077 -0.0753  0.7928
  600MOL0     C80895  10.024  12.528   4.384 -0.3685  0.7775 -0.6277
  600MOL0     O80896  10.059  12.486   4.506 -0.2733  0.1204 -0.0715
  600MOL0     C80897  10.162  12.556   4.570 -0.1750  0.3289 -0.9009
  600MOL0     C80898  10.145  12.599   4.704 -0.1092  0.3784  0.1393
  600MOL0     C80899  10.243  12.652   4.785  0.2534  0.4634  0.1281
  600MOL0     C80900  10.370  12.672   4.735 -1.2304 -0.8651 -0.0539
  600MOL0     O80901  10.454  12.718   4.839  0.7460 -0.7679 -0.1362
  600MOL0     C80902  10.565  12.641   4.865 -0.6967 -0.1512  0.2837
  600MOL0     C80903  10.554  12.585   4.999 -0.1686  0.1189  0.4146
  600MOL0     C80904  10.664  12.501   5.046  0.6965 -0.3224  0.0913
  600MOL0     C80905  10.654  12.356   5.004 -0.2814  0.5683  0.0213
  600MOL0     C80906  10.757  12.264   5.064 -0.1038  0.5395  0.6508
  600MOL0     C80907  10.891  12.323   5.045 -0.0207 -0.0632  0.2110
  600MOL0     C80908  11.002  12.228   5.081 -0.2527 -0.1523 -0.7082
  600MOL0     C80909  11.128  12.305   5.039  0.8042  0.1483  0.2446
  600MOL0    Cl80910  11.272  12.223   5.103  0.4913 -0.0620  0.1029
  600MOL0     C80911  10.398  12.639   4.602 -0.0636 -0.0836  0.1426
  600MOL0     C80912  10.295  12.587   4.515 -0.7887  0.3131 -0.7866
  600MOL0     O80913  10.062  12.628   4.333 -0.1935 -0.3222 -0.7099
  600MOL0     C80914   9.815  12.527   4.262  0.8529 -0.2006 -0.4050
  600MOL0     C80915   9.711  12.469   4.196  0.4779  0.4184  0.3037
  600MOL0     N80916   9.153  11.958   4.193 -0.2176  0.7589  0.0910
  600MOL0     N80917   9.160  11.846   4.255 -0.1125 -0.1801 -0.0253
  600MOL0     C80918  10.226  11.172   3.960 -0.7984 -1.3728  1.2182
  600MOL0     C80919  10.295  11.048   3.980 -0.1595 -0.5642  0.5700
  600MOL0     C80920  10.395  10.618   4.077  0.3412  1.0398  0.1581
  600MOL0     C80921  10.399  10.525   4.182  0.1305 -0.0687 -0.2527
  600MOL0     C80922  10.498  10.419   4.185  0.6718  0.1721  0.4087
  600MOL0     C80923  10.582  10.407   4.081 -0.0475  0.4533  0.0544
  600MOL0     O80924  10.669  10.303   4.093 -0.1038  0.7689 -0.5225
  600MOL0     C80925  10.804  10.305   4.047 -0.2352  0.2422 -0.4223
  600MOL0     C80926  10.841  10.204   3.945 -0.0185 -0.0306  0.1748
  600MOL0     C80927  10.761  10.209   3.815  0.2939 -0.7866 -0.3350
  600MOL0     C80928  10.817  10.308   3.708  0.5820  0.5085  0.2250
  600MOL0     C80929  10.724  10.313   3.596  0.6697 -0.0265  0.7347
  600MOL0     C80930  10.647  10.341   3.511  0.7280 -0.4519 -0.4891
  600MOL0     C80931  10.579  10.487   3.971  0.4554 -0.2122 -0.2302
  600MOL0     C80932  10.493  10.601   3.970  0.1970  0.1301  0.4776
  600MOL0     H80933  10.017  10.843   3.976  1.2864 -0.3541  0.1741
  600MOL0     H80934   9.914  11.080   3.928  1.2096  0.6072 -1.7413
  600MOL0     H80935  10.099  11.407   4.095 -0.7247  2.8950  0.7237
  600MOL0     H80936  10.133  11.472   3.939  0.8326 -2.2711 -0.8275
  600MOL0     H80937   9.961  11.620   4.025  0.9660  0.2928 -0.3150
  600MOL0     H80938   9.906  11.520   3.891 -2.6943 -2.0557  0.7568
  600MOL0     H80939   9.792  11.366   4.019  0.6987  0.3403  1.5167
  600MOL0     H80940   9.833  11.425   4.171 -3.2007  2.6756  1.7924
  600MOL0     H80941   9.752  11.663   4.107  2.3764 -1.0963  0.6840
  600MOL0     H80942   9.676  11.599   3.972 -0.9148  0.4758 -0.1771
  600MOL0     H80943   9.568  11.413   4.143 -1.9399 -0.3637  2.2169
  600MOL0     H80944   9.613  11.528   4.270 -2.6360  2.2488  0.7708
  600MOL0     H80945   9.499  11.706   4.156 -0.4299  1.1002 -2.4812
  600MOL0     H80946   9.432  11.599   4.041 -1.0918 -0.4528  0.4308
  600MOL0     H80947   9.360  11.463   4.263 -0.2967 -0.6292 -4.5198
  600MOL0     H80948   9.380  11.629   4.344 -1.1854 -2.0208  0.5329
  600MOL0     H80949   9.139  11.606   4.284  1.7375  2.1785  1.8394
  600MOL0     H80950   9.202  11.552   4.118  0.2963 -1.9707 -0.4207
  600MOL0     H80951   9.306  11.766   3.969 -2.2490 -0.8262 -1.7157
  600MOL0     H80952   9.280  12.035   3.886  0.6927  3.1679 -0.8213
  600MOL0     H80953   9.187  12.125   3.996  0.0200  0.5350  0.5228
  600MOL0     H80954   9.465  12.022   4.066 -0.7899 -1.3194 -2.4141
  600MOL0     H80955   9.383  12.158   4.140  0.9958 -0.1163  0.4661
  600MOL0     H80956   9.381  12.257   3.885  0.2500  0.7093  0.6827
  600MOL0     H80957   9.525  12.157   3.862 -1.9099 -0.9065 -1.8700
  600MOL0     H80958   9.486  12.389   4.061 -1.4106  0.3617 -1.7779
  600MOL0     H80959   9.606  12.369   3.936  2.3325 -1.6250 -0.3702
  600MOL0     H80960   9.835  12.151   4.211 -0.4841 -0.1773  2.5231
  600MOL0     H80961  10.029  12.251   4.477 -1.0819  0.3859 -0.7307
  600MOL0     H80962  10.001  12.116   4.382 -1.4764  0.6284  2.0961
  600MOL0     H80963  10.129  12.236   4.337 -0.0125 -0.3328 -0.1173
  600MOL0     H80964  10.054  12.566   4.753  0.7687 -1.9181  0.3246
  600MOL0     H80965  10.215  12.671   4.888 -0.3437 -3.0120  0.7283
  600MOL0     H80966  10.570  12.556   4.797 -3.1322 -0.1407  0.0002
  600MOL0     H80967  10.660  12.695   4.857  0.7711 -2.5353  0.6334
  600MOL0     H80968  10.545  12.664   5.074  1.0437 -0.5076  1.2581
  600MOL0     H80969  10.464  12.523   4.998  1.4110 -2.4676  2.4690
  600MOL0     H80970  10.670  12.497   5.155  3.1475 -2.8892 -0.0160
  600MOL0     H80971  10.759  12.546   5.018  0.5464  0.5181  0.9089
  600MOL0     H80972  10.556  12.314   5.028 -0.4438 -0.6746 -2.4893
  600MOL0     H80973  10.658  12.353   4.895  0.5667  2.0474 -0.0116
  600MOL0     H80974  10.750  12.168   5.013 -0.2010  0.1878  1.3125
  600MOL0     H80975  10.735  12.242   5.169 -2.0064 -1.4543 -0.0887
  600MOL0     H80976  10.907  12.346   4.940 -2.4240 -1.9551 -0.6931
  600MOL0     H80977  10.910  12.413   5.103 -0.5368 -0.4059  0.9388
  600MOL0     H80978  11.006  12.134   5.024  1.0506 -1.1799  0.9835
  600MOL0     H80979  10.997  12.210   5.188  0.1782  2.9127 -0.0992
  600MOL0     H80980  11.137  12.406   5.079  1.9225 -0.8103  2.6476
  600MOL0     H80981  11.129  12.320   4.931  1.9269 -0.0734  0.2082
  600MOL0     H80982  10.500  12.655   4.569  0.2023 -1.2576  0.3776
  600MOL0     H80983  10.330  12.555   4.417 -0.4506  2.2070 -1.3328
  600MOL0     H80984   9.815  12.634   4.277  1.8754 -0.3833  1.0530
  600MOL0     H80985   9.633  12.533   4.158 -0.3747 -1.1639 -0.7435
  600MOL0     H80986  10.287  11.261   3.945  1.2920 -2.9147  0.1679
  600MOL0     H80987  10.403  11.041   3.974  0.0177  0.7118  1.9489
  600MOL0     H80988  10.332  10.539   4.266 -1.0744 -2.2680 -0.7741
  600MOL0     H80989  10.504  10.356   4.273  2.7041  0.8080  0.7717
  600MOL0     H80990  10.824  10.410   4.024  3.2905  0.2507  1.9294
  600MOL0     H80991  10.876  10.297   4.128 -1.5471 -0.7927  0.6882
  600MOL0     H80992  10.819  10.106   3.987 -1.3772  0.6793  1.2023
  600MOL0     H80993  10.948  10.205   3.922  0.2167 -0.5876  1.1891
  600MOL0     H80994  10.657  10.238   3.837  0.5188  0.3650 -0.7282
  600MOL0     H80995  10.744  10.110   3.771 -1.2486 -0.8030  0.2319
  600MOL0     H80996  10.910  10.274   3.663 -0.1227  0.3533 -1.1682
  600MOL0     H80997  10.822  10.408   3.752  0.2052 -0.9795  4.0685
  600MOL0     H80998  10.571  10.346   3.436 -0.2520 -1.7196  0.3794
  600MOL0     H80999  10.643  10.454   3.890  2.6374  1.5945  0.6437
  600MOL0     H81000  10.487  10.659   3.878  0.8044  1.5582  1.3031
  601MOL0     O81001   4.920   2.447   0.669  0.3756 -0.7559 -0.2848
  601MOL0     C81002   5.011   2.526   0.683  0.1812 -1.5154  0.1146
  601MOL0     O81003   4.993   2.666   0.698 -0.0213  0.6868 -0.3823
  601MOL0     C81004   4.873   2.722   0.731 -0.3500 -0.5056  0.0466
  601MOL0     C81005   4.846   2.851   0.677  0.4886  0.6459  0.4727
  601MOL0     C81006   4.729   2.919   0.717 -0.7951  0.0538  0.3049
  601MOL0     C81007   4.634   2.864   0.807 -1.2692  0.2779  0.2795
  601MOL0     O81008   4.514   2.917   0.839 -0.4606  0.0963 -0.2557
  601MOL0     C81009   4.473   3.023   0.749  0.2420 -0.4727 -0.2368
  601MOL0     C81010   4.351   3.104   0.801  0.5373  0.0618  0.4473
  601MOL0     C81011   4.385   3.213   0.894 -0.3577 -0.0851  0.0165
  601MOL0     C81012   4.414   3.174   1.039  0.1086  0.2554  0.3776
  601MOL0     C81013   4.383   3.283   1.141  0.2794  0.2311 -0.1271
  601MOL0     C81014   4.238   3.337   1.123 -0.1909 -0.9175  0.2005
  601MOL0     C81015   4.193   3.395   1.249  0.3487  0.2529 -0.9598
  601MOL0     C81016   4.042   3.423   1.246 -0.2828  0.0718 -0.6331
  601MOL0     N81017   3.990   3.457   1.378  0.3306 -0.2293  0.1408
  601MOL0     C81018   3.920   3.371   1.456  0.5240  0.0832 -0.6126
  601MOL0     C81019   3.867   3.450   1.558 -0.1137  0.3717  1.3254
  601MOL0     C81020   3.769   3.406   1.653 -0.3164  0.0945 -0.3958
  601MOL0     C81021   3.635   3.453   1.642  0.8119 -0.1901 -0.0871
  601MOL0     C81022   3.568   3.391   1.518 -0.0655  0.3990 -0.0561
  601MOL0     C81023   3.423   3.356   1.548 -0.0519 -0.3767  0.3450
  601MOL0     O81024   3.391   3.272   1.434  0.0003  0.1280  0.1588
  601MOL0     C81025   3.266   3.214   1.422  0.1468  0.4786 -0.3232
  601MOL0     C81026   3.235   3.132   1.313  0.2239  0.3870  0.7434
  601MOL0     C81027   3.106   3.070   1.299  0.3797 -0.0373  0.0510
  601MOL0     C81028   3.075   3.003   1.167 -0.8516  0.3638  0.4741
  601MOL0     C81029   3.011   3.092   1.396  0.3409 -0.2312 -1.0029
  601MOL0     C81030   2.872   3.051   1.382 -0.5487 -0.9563  0.3672
  601MOL0     O81031   2.813   3.123   1.281  0.2994 -0.1386  0.1844
  601MOL0     C81032   2.678   3.096   1.261  0.0321 -0.3444  0.5940
  601MOL0     C81033   2.587   3.203   1.278 -0.2306  0.0664 -0.0025
  601MOL0     C81034   2.450   3.173   1.264 -0.3065 -0.2594 -0.0618
  601MOL0     C81035   2.399   3.045   1.236 -0.3225  0.1836  0.2273
  601MOL0     O81036   2.261   3.029   1.219 -0.1765 -1.0122  0.5817
  601MOL0     C81037   2.207   2.921   1.138 -0.1716 -0.1273  0.6080
  601MOL0     C81038   2.058   2.931   1.104 -0.1820  0.2215 -0.9076
  601MOL0     C81039   1.993   2.803   1.065 -0.7168  0.5963 -0.0021
  601MOL0     C81040   2.026   2.775   0.915 -0.1567  0.3376 -0.5324
  601MOL0     C81041   2.003   2.636   0.866 -0.4733  0.1364 -0.2011
  601MOL0     C81042   1.971   2.609   0.724  0.1651  0.4645  0.2572
  601MOL0     C81043   1.918   2.457   0.724  0.1856 -0.7583 -0.1070
  601MOL0     C81044   1.878   2.411   0.583 -0.0184  0.2777 -1.0030
  601MOL0    Cl81045   1.729   2.507   0.537  0.1112 -0.3329  0.2832
  601MOL0     C81046   2.492   2.942   1.221  0.3996  0.8078 -0.5093
  601MOL0     C81047   2.631   2.957   1.232  0.7845 -0.8945  0.0335
  601MOL0     O81048   2.827   2.962   1.456 -0.1833 -0.2799 -0.2444
  601MOL0     C81049   3.053   3.151   1.518  0.4204  0.7191 -0.8266
  601MOL0     C81050   3.171   3.219   1.524 -0.6359  0.2973 -0.1476
  601MOL0     N81051   3.926   3.578   1.547 -0.7279 -0.8572 -0.0181
  601MOL0     N81052   3.995   3.584   1.439  0.3800  0.0384 -0.1569
  601MOL0     C81053   4.661   2.738   0.862  0.0791  0.1032  0.1642
  601MOL0     C81054   4.782   2.670   0.832  0.1459  0.0001  0.6257
  601MOL0     C81055   5.150   2.477   0.668  1.0629  0.4385  1.0188
  601MOL0     C81056   5.256   2.564   0.651  0.2457 -0.6479 -0.5014
  601MOL0     C81057   5.387   2.512   0.654 -0.0304 -0.4357 -0.8032
  601MOL0     C81058   5.418   2.376   0.651  0.2528 -0.0565 -0.2283
  601MOL0     O81059   5.539   2.311   0.651 -0.1112  0.5071  0.4032
  601MOL0     C81060   5.657   2.382   0.656 -0.8077 -0.5652 -0.4771
  601MOL0     C81061   5.759   2.313   0.561 -0.0998 -0.9326 -0.4727
  601MOL0     C81062   5.891   2.368   0.568  0.0303 -0.6760 -0.0185
  601MOL0     C81063   5.985   2.314   0.459 -0.0381 -0.7842  0.7866
  601MOL0     C81064   6.035   2.179   0.486 -0.1564 -0.1411  0.1658
  601MOL0     C81065   6.083   2.068   0.512  0.1725  0.2302 -0.4705
  601MOL0     C81066   5.308   2.292   0.655  0.4646 -0.6848  0.1753
  601MOL0     C81067   5.168   2.335   0.666  0.2738  0.1040 -1.1631
  601MOL0     H81068   4.906   2.888   0.594  1.2191 -0.9110  0.2836
  601MOL0     H81069   4.722   3.016   0.668  2.5263  0.6119  0.7442
  601MOL0     H81070   4.543   3.102   0.723 -0.3585 -0.5788 -2.4166
  601MOL0     H81071   4.448   2.987   0.648  2.5426  0.1178 -1.0575
  601MOL0     H81072   4.298   3.136   0.710 -2.4598 -1.5628  1.4921
  601MOL0     H81073   4.276   3.039   0.846 -0.0516  1.5739  1.7756
  601MOL0     H81074   4.476   3.271   0.876 -0.3914  0.1976  0.7167
  601MOL0     H81075   4.307   3.288   0.889 -2.2374 -1.7722  1.9748
  601MOL0     H81076   4.350   3.090   1.066 -0.5511  0.5598 -0.2102
  601MOL0     H81077   4.519   3.147   1.057  0.9609  3.8500  1.6450
  601MOL0     H81078   4.385   3.235   1.239 -2.4569  3.0064  1.4779
  601MOL0     H81079   4.456   3.364   1.150  0.7930 -0.1443 -0.8457
  601MOL0     H81080   4.231   3.416   1.048 -2.2186 -0.4202  0.8573
  601MOL0     H81081   4.178   3.252   1.088 -0.6325 -0.1295 -0.9969
  601MOL0     H81082   4.211   3.321   1.327  0.5049 -0.8828 -2.0470
  601MOL0     H81083   4.257   3.479   1.278 -1.6201  1.1723  1.0213
  601MOL0     H81084   3.995   3.332   1.208  0.5635 -0.9896  0.7753
  601MOL0     H81085   4.002   3.505   1.185 -3.3262  0.8223  2.0681
  601MOL0     H81086   3.888   3.272   1.425  0.6327 -0.0192 -0.4009
  601MOL0     H81087   3.756   3.297   1.660 -1.1213  0.1004 -1.5256
  601MOL0     H81088   3.804   3.442   1.750  1.2975  0.5317 -1.1067
  601MOL0     H81089   3.633   3.562   1.634 -0.3632  0.0004  2.0479
  601MOL0     H81090   3.584   3.427   1.735  0.5113 -1.6545 -0.6304
  601MOL0     H81091   3.609   3.292   1.498  0.7130  1.0663 -1.9138
  601MOL0     H81092   3.577   3.460   1.434  2.6073  0.6827  0.4022
  601MOL0     H81093   3.364   3.447   1.540 -0.5449 -0.6473  0.8597
  601MOL0     H81094   3.408   3.306   1.644 -0.8781 -0.2156  0.3028
  601MOL0     H81095   3.311   3.111   1.239 -2.5698 -2.2050 -1.6552
  601MOL0     H81096   2.985   2.945   1.187 -1.0488 -0.2269 -1.8245
  601MOL0     H81097   3.068   3.070   1.080  1.0164  0.5970  0.4505
  601MOL0     H81098   3.149   2.931   1.131 -2.6488 -1.2811 -0.0631
  601MOL0     H81099   2.615   3.303   1.306 -1.0996  0.4417 -0.4125
  601MOL0     H81100   2.396   3.267   1.275  3.7944  2.8724 -3.3627
  601MOL0     H81101   2.263   2.908   1.045  0.1617 -0.7597  0.8936
  601MOL0     H81102   2.231   2.833   1.198  1.9895  1.2445  1.8676
  601MOL0     H81103   2.015   2.969   1.198  1.4076 -0.2649  0.0578
  601MOL0     H81104   2.048   3.011   1.030 -0.2643  0.4023 -0.7042
  601MOL0     H81105   1.885   2.795   1.083 -0.1706 -1.0867  3.4234
  601MOL0     H81106   2.032   2.714   1.117 -0.1906  0.4097 -0.6954
  601MOL0     H81107   1.974   2.845   0.850  1.9135  1.6062 -0.9059
  601MOL0     H81108   2.134   2.783   0.902  0.2912 -1.8004  1.1825
  601MOL0     H81109   1.914   2.598   0.918  0.9279 -1.7142  0.9824
  601MOL0     H81110   2.077   2.570   0.911 -1.9936 -0.2800  1.8623
  601MOL0     H81111   1.898   2.680   0.686  0.5976  0.8119  0.0707
  601MOL0     H81112   2.059   2.619   0.659 -0.0782 -0.8924 -0.3156
  601MOL0     H81113   1.824   2.453   0.779  0.9943  3.5870  2.0062
  601MOL0     H81114   1.993   2.389   0.767  0.5826 -0.6841 -0.6684
  601MOL0     H81115   1.844   2.307   0.586 -1.5470  0.7500 -0.7763
  601MOL0     H81116   1.968   2.410   0.521 -1.7094 -2.8121 -3.7031
  601MOL0     H81117   2.466   2.843   1.185  2.6664 -0.3568  0.8733
  601MOL0     H81118   2.701   2.877   1.211  1.0358 -0.8733  0.7858
  601MOL0     H81119   2.982   3.154   1.601  2.6383  0.0643  1.2040
  601MOL0     H81120   3.194   3.271   1.617  1.6668  0.0826 -0.5428
  601MOL0     H81121   4.593   2.688   0.930  1.1008  0.0768  1.2068
  601MOL0     H81122   4.811   2.576   0.877  1.5377 -0.9865 -2.1094
  601MOL0     H81123   5.234   2.670   0.649  0.3447 -0.6237 -0.3639
  601MOL0     H81124   5.464   2.587   0.638 -2.5028  3.2854  2.7766
  601MOL0     H81125   5.646   2.489   0.633 -2.0367 -0.1561  1.7568
  601MOL0     H81126   5.688   2.378   0.760 -0.6655 -1.8696 -0.5551
  601MOL0     H81127   5.732   2.307   0.455 -0.8999 -3.0115 -0.2150
  601MOL0     H81128   5.764   2.207   0.590 -0.7884 -0.9419 -0.3767
  601MOL0     H81129   5.932   2.335   0.664 -1.8590 -2.7656  0.1328
  601MOL0     H81130   5.881   2.477   0.566  0.3710 -0.5845  1.8112
  601MOL0     H81131   6.067   2.385   0.451 -1.4736  0.7134 -2.2734
  601MOL0     H81132   5.947   2.307   0.356  1.3947  0.4827  0.1366
  601MOL0     H81133   6.122   1.973   0.541  0.8445  0.5319 -0.3645
  601MOL0     H81134   5.317   2.184   0.658 -0.3219 -0.7514  0.3574
  601MOL0     H81135   5.084   2.268   0.676  0.9884 -0.3795  3.2229
  602MOL0     O81136   0.199   5.093  10.294 -0.1979  0.6409 -0.3008
  602MOL0     C81137   0.250   5.146  10.195  0.0344 -0.5579  0.3984
  602MOL0     O81138   0.211   5.256  10.135 -0.3438 -1.3193 -0.6711
  602MOL0     C81139   0.108   5.335  10.181  0.4148 -0.4476  0.3996
  602MOL0     C81140   0.055   5.353  10.308  0.2744 -0.1419 -0.2679
  602MOL0     C81141  -0.067   5.426  10.330  0.7162 -0.0427 -0.5485
  602MOL0     C81142  -0.124   5.491  10.222  1.6305 -0.4801  0.5946
  602MOL0     O81143  -0.239   5.572  10.247 -0.0359 -0.0996  0.4578
  602MOL0     C81144  -0.305   5.638  10.140 -0.0062  0.0095  0.0332
  602MOL0     C81145  -0.416   5.554  10.075  0.8891  0.6129 -0.2638
  602MOL0     C81146  -0.540   5.635  10.063 -0.1680  0.3441 -0.0032
  602MOL0     C81147  -0.647   5.546   9.979  0.2752 -0.4576 -0.2465
  602MOL0     C81148  -0.765   5.639   9.929 -0.1480  0.3230 -0.2957
  602MOL0     C81149  -0.869   5.553   9.847  0.3407 -0.2161 -0.2867
  602MOL0     C81150  -1.001   5.627   9.830  0.7105  0.7183 -0.4241
  602MOL0     C81151  -1.091   5.648   9.951  1.1211  0.1354 -0.4795
  602MOL0     N81152  -1.169   5.528   9.978  0.9346 -0.6167 -0.1173
  602MOL0     C81153  -1.299   5.521   9.921  0.2842 -1.0068  0.4473
  602MOL0     C81154  -1.334   5.399   9.949  0.6270 -0.0657 -0.1217
  602MOL0     C81155  -1.465   5.325   9.911  0.4501 -0.3513 -0.7726
  602MOL0     C81156  -1.591   5.404   9.966 -0.5251 -0.6314  0.3843
  602MOL0     C81157  -1.580   5.420  10.116 -0.0494  1.4752 -0.3744
  602MOL0     C81158  -1.597   5.298  10.203  0.6157  0.0398  0.0306
  602MOL0     O81159  -1.734   5.248  10.192  0.5446  0.1611  0.1232
  602MOL0     C81160  -1.836   5.288  10.269  0.1771 -0.1922 -0.0790
  602MOL0     C81161  -1.949   5.220  10.255 -0.6519 -0.3587  0.3201
  602MOL0     C81162  -2.061   5.250  10.334  0.2028 -0.4489  0.2000
  602MOL0     C81163  -2.189   5.182  10.294  0.8891  0.4642  0.7331
  602MOL0     C81164  -2.044   5.351  10.432  1.0757  0.2939 -0.1504
  602MOL0     C81165  -2.158   5.403  10.503 -0.1582  0.5069  0.2516
  602MOL0     O81166  -2.249   5.308  10.550 -0.6216 -0.8026 -0.4960
  602MOL0     C81167  -2.363   5.353  10.611 -0.2285 -0.8053 -0.5077
  602MOL0     C81168  -2.403   5.293  10.734 -0.1666  0.3613  0.4479
  602MOL0     C81169  -2.532   5.316  10.783  0.4678  1.0189  0.2602
  602MOL0     C81170  -2.618   5.403  10.726 -0.2116 -0.4782  0.8755
  602MOL0     O81171  -2.741   5.413  10.787 -0.0172  0.3026  0.2993
  602MOL0     C81172  -2.850   5.468  10.708 -0.2224  0.0216 -0.0882
  602MOL0     C81173  -2.874   5.618  10.741  0.4628  1.1320 -0.7959
  602MOL0     C81174  -3.014   5.666  10.702 -0.3888 -0.9335  0.2122
  602MOL0     C81175  -3.109   5.653  10.823 -0.0726  0.2737  0.0062
  602MOL0     C81176  -3.238   5.725  10.812  0.5580  0.8512 -0.2738
  602MOL0     C81177  -3.335   5.652  10.904  0.4847  0.9425 -1.0075
  602MOL0     C81178  -3.459   5.735  10.904  1.0608 -0.2746  0.1746
  602MOL0     C81179  -3.567   5.653  10.971  0.4206  0.1295  0.1417
  602MOL0    Cl81180  -3.530   5.634  11.139 -0.0266  0.5944 -0.3392
  602MOL0     C81181  -2.580   5.471  10.611  0.2764  0.7467 -0.7482
  602MOL0     C81182  -2.453   5.445  10.552  0.0383  0.4781  0.7750
  602MOL0     O81183  -2.178   5.523  10.509  1.1053  0.4096 -0.1669
  602MOL0     C81184  -1.920   5.407  10.459 -0.0913  0.0096  0.2701
  602MOL0     C81185  -1.822   5.379  10.370  0.4587 -0.5678 -0.1860
  602MOL0     N81186  -1.234   5.329  10.011  0.1095 -0.2894  0.7191
  602MOL0     N81187  -1.132   5.408  10.026 -0.2752 -0.4058 -0.5833
  602MOL0     C81188  -0.077   5.473  10.099  0.0513  0.1116 -0.0635
  602MOL0     C81189   0.041   5.401  10.075 -0.4461  0.9304  0.3183
  602MOL0     C81190   0.379   5.088  10.151 -0.2587  0.5913  0.7205
  602MOL0     C81191   0.446   5.132  10.023 -0.5341 -0.3013 -0.5787
  602MOL0     C81192   0.564   5.060   9.978 -0.5945  0.3707  0.1798
  602MOL0     C81193   0.620   4.960  10.056 -0.0687 -0.0651  0.1144
  602MOL0     O81194   0.730   4.895   9.999  0.5515 -0.1093  0.3123
  602MOL0     C81195   0.855   4.896  10.073 -0.6638 -0.2869 -0.3426
  602MOL0     C81196   0.903   5.036  10.090 -0.0590 -0.7500 -0.4731
  602MOL0     C81197   0.934   5.105   9.953 -0.4076  0.4598 -0.2343
  602MOL0     C81198   1.049   5.048   9.879  0.2246  0.2967 -0.1618
  602MOL0     C81199   1.171   5.082   9.946 -0.1532 -0.6319 -0.2093
  602MOL0     C81200   1.273   5.102  10.012  0.6259  0.4871 -0.2179
  602MOL0     C81201   0.560   4.925  10.175 -0.6329 -0.5155  0.1301
  602MOL0     C81202   0.436   4.983  10.220 -0.4659 -0.2516 -0.2984
  602MOL0     H81203   0.092   5.303  10.397 -0.5967 -0.9172 -0.3256
  602MOL0     H81204  -0.112   5.439  10.428 -0.8649  1.4695 -1.4369
  602MOL0     H81205  -0.351   5.723  10.192  0.8246 -0.4757  1.6295
  602MOL0     H81206  -0.243   5.682  10.062 -1.1204  1.1355 -0.2635
  602MOL0     H81207  -0.398   5.523   9.971 -0.9937 -2.4964  0.2119
  602MOL0     H81208  -0.444   5.467  10.135  2.3593  0.6430  0.5023
  602MOL0     H81209  -0.565   5.660  10.167  1.4143 -0.8146  0.7174
  602MOL0     H81210  -0.508   5.726  10.011  1.3775  0.4882  1.1263
  602MOL0     H81211  -0.608   5.501   9.888 -1.7911 -1.0542 -0.8871
  602MOL0     H81212  -0.690   5.472  10.047 -0.5106 -0.2787 -0.5423
  602MOL0     H81213  -0.818   5.681  10.015  0.3850  2.2114 -0.8340
  602MOL0     H81214  -0.732   5.720   9.863 -1.0859  1.7165  0.8814
  602MOL0     H81215  -0.827   5.539   9.747 -0.9848  1.1785 -1.0765
  602MOL0     H81216  -0.893   5.449   9.871 -0.7230  0.1064  0.1285
  602MOL0     H81217  -0.973   5.730   9.807  0.0997  0.9792 -0.0205
  602MOL0     H81218  -1.064   5.582   9.752  0.0761  0.4876  0.2038
  602MOL0     H81219  -1.170   5.720   9.927 -0.8069 -2.2074 -1.6587
  602MOL0     H81220  -1.047   5.684  10.044  1.2660 -1.1245 -0.0423
  602MOL0     H81221  -1.354   5.591   9.859  2.8303  1.0445  0.3043
  602MOL0     H81222  -1.477   5.309   9.804 -2.1013 -1.4604 -0.4061
  602MOL0     H81223  -1.455   5.225   9.953 -0.5132  0.1824  0.8244
  602MOL0     H81224  -1.679   5.344   9.943 -0.3070  0.0635 -2.5558
  602MOL0     H81225  -1.594   5.494   9.905 -3.4599 -1.7302 -1.2529
  602MOL0     H81226  -1.659   5.487  10.149 -0.4761 -0.6204  3.5403
  602MOL0     H81227  -1.486   5.472  10.140 -0.7016  1.9228  1.4067
  602MOL0     H81228  -1.576   5.323  10.307 -1.0413  0.6189  0.2623
  602MOL0     H81229  -1.530   5.216  10.177 -0.6506 -1.2415  0.6935
  602MOL0     H81230  -1.957   5.144  10.179  0.1142  1.2911 -1.4990
  602MOL0     H81231  -2.184   5.136  10.195 -2.1090 -0.9893  1.1188
  602MOL0     H81232  -2.213   5.103  10.366  0.4512 -1.3265 -1.2795
  602MOL0     H81233  -2.264   5.261  10.291 -0.2212 -0.4613  2.4258
  602MOL0     H81234  -2.330   5.224  10.774  0.6603  0.2737 -1.1157
  602MOL0     H81235  -2.579   5.262  10.864 -0.5516  1.2371 -0.1628
  602MOL0     H81236  -2.839   5.450  10.601 -0.8022 -1.5050  0.0925
  602MOL0     H81237  -2.942   5.422  10.744 -0.6669  0.5064 -0.5743
  602MOL0     H81238  -2.864   5.614  10.850  1.5756  0.6190 -0.9109
  602MOL0     H81239  -2.797   5.683  10.700 -0.1354  1.1642 -1.9083
  602MOL0     H81240  -3.054   5.615  10.614 -0.0747 -1.0899  0.1596
  602MOL0     H81241  -3.002   5.773  10.688 -1.0108 -0.4944  2.4729
  602MOL0     H81242  -3.112   5.545  10.840  0.6716  0.1893 -0.4049
  602MOL0     H81243  -3.072   5.695  10.917  1.2293  1.3750 -0.9621
  602MOL0     H81244  -3.280   5.730  10.711 -1.1655  0.8094  0.4122
  602MOL0     H81245  -3.226   5.830  10.840  1.3238  1.0167 -1.1420
  602MOL0     H81246  -3.351   5.550  10.868 -2.3904  0.7472  0.5953
  602MOL0     H81247  -3.295   5.637  11.005  2.1688 -2.0338 -1.9748
  602MOL0     H81248  -3.488   5.776  10.807  1.3054  2.7445  1.2703
  602MOL0     H81249  -3.433   5.826  10.960  1.1669  0.9593 -1.7855
  602MOL0     H81250  -3.587   5.557  10.924  0.5091 -0.3713  1.0981
  602MOL0     H81251  -3.657   5.713  10.956 -0.4812 -0.9943  0.8712
  602MOL0     H81252  -2.635   5.556  10.572  1.2845  2.2864  1.0265
  602MOL0     H81253  -2.430   5.501  10.462 -0.6626 -0.6803 -0.1551
  602MOL0     H81254  -1.908   5.482  10.538  1.6581  2.3392 -2.0227
  602MOL0     H81255  -1.725   5.428  10.372  0.3881 -0.2812 -2.1744
  602MOL0     H81256  -0.126   5.515  10.012  1.8229 -1.3878 -1.8963
  602MOL0     H81257   0.065   5.384   9.971 -1.6246  1.5617 -0.0751
  602MOL0     H81258   0.398   5.204   9.959  0.0263 -0.6348 -1.3884
  602MOL0     H81259   0.615   5.088   9.887 -1.1656 -0.4603 -0.4158
  602MOL0     H81260   0.832   4.851  10.170 -0.0828 -1.3132 -0.6684
  602MOL0     H81261   0.933   4.837  10.026 -1.5166  0.0868 -2.3445
  602MOL0     H81262   0.995   5.041  10.148 -0.2543  0.6711 -0.2589
  602MOL0     H81263   0.828   5.090  10.150  2.6254  0.1096  2.3750
  602MOL0     H81264   0.962   5.209   9.975  2.0355 -0.0083 -0.8325
  602MOL0     H81265   0.844   5.112   9.892  0.1795  0.7880 -1.0734
  602MOL0     H81266   1.046   5.096   9.781  1.0367  0.4857 -0.0956
  602MOL0     H81267   1.030   4.942   9.855  1.4310  0.3836 -1.6309
  602MOL0     H81268   1.357   5.122  10.076  1.1402 -2.1236  0.0545
  602MOL0     H81269   0.601   4.836  10.222 -0.0703 -0.1215  0.3894
  602MOL0     H81270   0.385   4.940  10.307 -3.1423 -0.1205 -1.6877
  603MOL0     O81271   2.130   9.789   2.167 -0.7241 -0.3648 -0.2936
  603MOL0     C81272   2.081   9.877   2.236  0.1046 -0.6295 -0.4772
  603MOL0     O81273   1.960   9.931   2.230  0.1701 -0.1089  0.2976
  603MOL0     C81274   1.866   9.887   2.140  0.4594  0.1474  0.6310
  603MOL0     C81275   1.849   9.765   2.087 -0.5464 -0.0342  0.4249
  603MOL0     C81276   1.742   9.726   2.001  0.0466 -0.4428 -0.1255
  603MOL0     C81277   1.645   9.821   1.962 -0.5550 -0.2789 -0.3552
  603MOL0     O81278   1.527   9.770   1.905 -0.4075 -0.1296  0.9116
  603MOL0     C81279   1.436   9.860   1.828 -0.5947 -0.4528  0.6583
  603MOL0     C81280   1.320   9.778   1.775  0.1559 -0.1031  0.0531
  603MOL0     C81281   1.209   9.867   1.730  1.0243 -0.1518  0.1358
  603MOL0     C81282   1.230   9.949   1.607 -0.1122  0.5264 -0.5827
  603MOL0     C81283   1.115  10.037   1.563 -0.0179  0.7252  0.2161
  603MOL0     C81284   1.004   9.962   1.492 -0.2216 -0.2526  0.2903
  603MOL0     C81285   0.891  10.059   1.456 -0.5603 -0.4303 -0.0137
  603MOL0     C81286   0.778   9.999   1.373 -0.4066 -0.1315 -0.4567
  603MOL0     N81287   0.700   9.906   1.457 -0.2361  0.1676  1.1299
  603MOL0     C81288   0.615   9.942   1.557  0.4304 -0.0147 -0.8006
  603MOL0     C81289   0.567   9.826   1.606 -0.0889 -0.3299  0.4053
  603MOL0     C81290   0.469   9.800   1.723 -0.4252 -0.4243  0.9015
  603MOL0     C81291   0.542   9.832   1.856  0.2134 -0.2958  0.1972
  603MOL0     C81292   0.507   9.757   1.984 -0.4382 -0.4993  0.1967
  603MOL0     C81293   0.355   9.746   2.009 -0.4698 -0.6676  0.4624
  603MOL0     O81294   0.307   9.870   2.052 -0.5827  0.0026  0.0124
  603MOL0     C81295   0.177   9.900   2.084 -0.6833 -0.7033  0.6317
  603MOL0     C81296   0.155  10.030   2.136  0.1417  0.2462  0.0273
  603MOL0     C81297   0.023  10.073   2.166  0.0781 -0.2408  0.9614
  603MOL0     C81298   0.007  10.202   2.244 -0.2023  0.5550  0.8122
  603MOL0     C81299  -0.092   9.994   2.135 -1.0408 -0.7995 -0.0803
  603MOL0     C81300  -0.237  10.039   2.155  0.2504  0.6506 -0.8408
  603MOL0     O81301  -0.329   9.941   2.134 -0.3957  0.2766 -0.3726
  603MOL0     C81302  -0.458   9.979   2.171  0.6464  0.4254 -1.0352
  603MOL0     C81303  -0.548  10.019   2.073 -0.3127 -0.3615 -0.9858
  603MOL0     C81304  -0.682  10.048   2.103 -0.0091  0.4713  0.0740
  603MOL0     C81305  -0.726  10.049   2.241 -1.0857  0.0536 -0.2892
  603MOL0     O81306  -0.860  10.066   2.270  0.3912  0.3585 -0.5941
  603MOL0     C81307  -0.901  10.120   2.403 -0.3330 -0.2175  0.1349
  603MOL0     C81308  -0.958  10.006   2.485  1.1928  0.1004 -0.5257
  603MOL0     C81309  -1.102   9.977   2.448 -1.0700 -0.1084  0.0577
  603MOL0     C81310  -1.161   9.884   2.556 -0.0726  0.2997 -0.1489
  603MOL0     C81311  -1.311   9.913   2.564 -0.1839 -0.1921  0.4165
  603MOL0     C81312  -1.376   9.833   2.674  0.5845 -0.1189  0.4844
  603MOL0     C81313  -1.531   9.850   2.666 -0.8165  0.2742 -0.2228
  603MOL0     C81314  -1.604   9.756   2.751 -0.7019  0.0989 -0.2571
  603MOL0    Cl81315  -1.542   9.777   2.923 -0.3313 -0.2145 -0.4710
  603MOL0     C81316  -0.634  10.008   2.340  0.1453 -0.1230  0.3539
  603MOL0     C81317  -0.505   9.981   2.304 -0.0443  1.2340 -0.1461
  603MOL0     O81318  -0.264  10.153   2.172  0.4078  0.2565 -0.0128
  603MOL0     C81319  -0.064   9.859   2.085 -0.1470  1.0893  0.2853
  603MOL0     C81320   0.064   9.819   2.066 -0.4150 -0.2166  0.4633
  603MOL0     N81321   0.617   9.726   1.521 -0.2988  0.3441 -0.4450
  603MOL0     N81322   0.693   9.777   1.434 -0.4351  0.1707 -0.4638
  603MOL0     C81323   1.655   9.946   2.022 -0.1919  0.7196 -0.5836
  603MOL0     C81324   1.764   9.980   2.100 -0.0669 -0.1768 -0.4599
  603MOL0     C81325   2.164   9.927   2.348  0.8879 -0.5408 -0.2130
  603MOL0     C81326   2.287   9.864   2.376 -0.1722  0.3914 -0.0270
  603MOL0     C81327   2.359   9.917   2.480 -0.1906 -0.4953 -0.1509
  603MOL0     C81328   2.321  10.024   2.560 -0.6978 -0.2432 -0.2249
  603MOL0     O81329   2.389  10.078   2.664  0.6479  0.2059  0.0493
  603MOL0     C81330   2.530  10.048   2.684 -0.2396 -0.1135 -0.6379
  603MOL0     C81331   2.577  10.122   2.810  0.2907  0.0361  0.0703
  603MOL0     C81332   2.719  10.096   2.854 -0.2212  1.3117  0.4743
  603MOL0     C81333   2.840  10.157   2.775 -0.1493 -0.5296 -0.0405
  603MOL0     C81334   2.966  10.130   2.848 -0.2939 -0.1804  0.4626
  603MOL0     C81335   3.078  10.117   2.897 -0.1620  0.0553  0.0793
  603MOL0     C81336   2.204  10.093   2.528 -0.0674  0.6476 -0.4707
  603MOL0     C81337   2.126  10.045   2.423 -0.0065  0.4167 -0.7381
  603MOL0     H81338   1.903   9.686   2.137  0.9277  0.9388  0.4365
  603MOL0     H81339   1.732   9.625   1.961  2.0312 -0.2744 -1.2236
  603MOL0     H81340   1.400   9.941   1.891  2.7583  3.1198 -1.6136
  603MOL0     H81341   1.496   9.909   1.751  1.0471  0.5497  2.5148
  603MOL0     H81342   1.365   9.712   1.700  1.1166 -0.3605  0.8386
  603MOL0     H81343   1.283   9.708   1.851  0.1224  0.9439  1.0255
  603MOL0     H81344   1.126   9.806   1.692 -0.7566  2.7062 -0.9796
  603MOL0     H81345   1.167   9.926   1.812  1.5961 -0.5143  0.6980
  603MOL0     H81346   1.301  10.027   1.634 -0.2096  0.6096 -0.5683
  603MOL0     H81347   1.274   9.886   1.529  0.4103 -2.7413  2.0686
  603MOL0     H81348   1.072  10.094   1.646 -2.5842  0.2017 -0.6537
  603MOL0     H81349   1.165  10.109   1.498  0.4424  1.8804  1.7882
  603MOL0     H81350   1.043   9.928   1.395 -2.4993  1.3656 -1.2950
  603MOL0     H81351   0.961   9.882   1.552 -0.9895  0.0771  0.1817
  603MOL0     H81352   0.847  10.098   1.548 -2.2780  3.3735 -2.2355
  603MOL0     H81353   0.934  10.147   1.409  2.1260 -0.3560  2.3291
  603MOL0     H81354   0.817   9.951   1.283 -2.0330 -0.8980 -0.8024
  603MOL0     H81355   0.723  10.089   1.343  2.9213  1.9016 -0.9585
  603MOL0     H81356   0.579  10.042   1.579 -2.0721 -0.4050 -2.5417
  603MOL0     H81357   0.384   9.868   1.715  0.3147  0.3165 -1.8270
  603MOL0     H81358   0.440   9.695   1.715 -2.6776 -0.0724  3.2878
  603MOL0     H81359   0.541   9.939   1.878 -0.2318 -0.2322 -0.1145
  603MOL0     H81360   0.649   9.818   1.839  0.6563  0.0450  2.4550
  603MOL0     H81361   0.568   9.803   2.062  0.2328 -0.2212 -0.4714
  603MOL0     H81362   0.553   9.659   1.965 -1.0974 -0.5098 -1.5079
  603MOL0     H81363   0.338   9.671   2.087  1.6910 -2.1894 -0.4165
  603MOL0     H81364   0.301   9.712   1.919  0.8301 -0.6380 -0.3584
  603MOL0     H81365   0.243  10.088   2.159 -0.7164  1.2981  0.7419
  603MOL0     H81366   0.093  10.212   2.310 -0.4383  0.2622  1.1640
  603MOL0     H81367   0.001  10.295   2.187  0.1867  0.6498  0.9236
  603MOL0     H81368  -0.079  10.197   2.311 -2.1493  0.4322 -1.5514
  603MOL0     H81369  -0.516  10.037   1.971 -0.9028  1.1434 -0.9258
  603MOL0     H81370  -0.740  10.076   2.015  1.1089 -2.3427 -1.7076
  603MOL0     H81371  -0.811  10.166   2.445  0.7621 -1.0262 -1.2010
  603MOL0     H81372  -0.968  10.203   2.379 -0.7247 -0.1352  1.4245
  603MOL0     H81373  -0.897   9.916   2.495  1.0894 -0.0702 -1.3997
  603MOL0     H81374  -0.953  10.053   2.584 -0.1934  0.2307 -0.5032
  603MOL0     H81375  -1.114   9.919   2.356 -2.1297 -1.3337  0.9380
  603MOL0     H81376  -1.151  10.075   2.445  2.8953  2.1095  1.0643
  603MOL0     H81377  -1.156   9.783   2.515  0.4420 -0.0676  0.7938
  603MOL0     H81378  -1.108   9.891   2.652 -0.3157  1.4913 -0.0858
  603MOL0     H81379  -1.355   9.898   2.465  1.0904 -2.0932  0.0725
  603MOL0     H81380  -1.314  10.019   2.591  3.5546 -0.1300  1.1452
  603MOL0     H81381  -1.346   9.729   2.657 -2.1463 -0.5744 -2.6704
  603MOL0     H81382  -1.340   9.866   2.772  1.1991  1.7137 -0.3225
  603MOL0     H81383  -1.567   9.842   2.563 -1.2415  1.6118 -0.1948
  603MOL0     H81384  -1.551   9.954   2.693 -1.0182  0.3485 -0.6450
  603MOL0     H81385  -1.581   9.654   2.719 -0.9884  0.2867 -1.0931
  603MOL0     H81386  -1.712   9.774   2.751 -0.8040 -0.1943 -2.4937
  603MOL0     H81387  -0.660   9.984   2.442  0.3764  0.4103  0.5383
  603MOL0     H81388  -0.429   9.940   2.369 -1.8309 -1.2123  0.5503
  603MOL0     H81389  -0.139   9.781   2.080 -0.8223  1.6459  1.2049
  603MOL0     H81390   0.085   9.718   2.031 -2.7791 -0.3227 -0.7890
  603MOL0     H81391   1.570  10.013   2.022 -1.2294 -0.5266  1.5215
  603MOL0     H81392   1.764  10.080   2.142 -0.7935  0.6563 -2.3187
  603MOL0     H81393   2.325   9.785   2.313 -0.1034  0.0814  0.3976
  603MOL0     H81394   2.460   9.882   2.501 -0.4202  0.3441  2.8721
  603MOL0     H81395   2.543   9.941   2.700  0.3731  0.2452  1.6156
  603MOL0     H81396   2.573  10.082   2.590 -3.1131  0.9639 -1.6964
  603MOL0     H81397   2.507  10.102   2.891 -0.7540  2.9152  0.0080
  603MOL0     H81398   2.565  10.230   2.796  0.6744  0.0861  0.1173
  603MOL0     H81399   2.737   9.988   2.850  0.6583  1.3423  2.2904
  603MOL0     H81400   2.725  10.124   2.960  0.8475 -0.3064  0.8804
  603MOL0     H81401   2.821  10.264   2.769 -4.8867 -0.8576  3.2388
  603MOL0     H81402   2.845  10.125   2.670  1.8143  0.6527 -0.3668
  603MOL0     H81403   3.175  10.100   2.939 -0.7216 -0.2703  1.3062
  603MOL0     H81404   2.168  10.177   2.585 -0.0878  0.6333 -0.4631
  603MOL0     H81405   2.026  10.084   2.408 -0.0252  0.9717  0.6388
  604MOL0     O81406   9.493  10.381   3.451 -0.0128  0.1619  0.1047
  604MOL0     C81407   9.547  10.489   3.443 -0.7453  0.1086 -0.9790
  604MOL0     O81408   9.492  10.608   3.493  0.1543  1.0968 -0.1951
  604MOL0     C81409   9.374  10.584   3.549  0.6682 -0.3537 -0.3163
  604MOL0     C81410   9.369  10.561   3.689  0.0608 -0.3955  0.1783
  604MOL0     C81411   9.248  10.525   3.745  0.4392 -0.2456  0.7929
  604MOL0     C81412   9.132  10.529   3.666  0.8976  0.1373 -0.8199
  604MOL0     O81413   9.019  10.493   3.729  0.1798 -0.2904 -0.2550
  604MOL0     C81414   8.890  10.512   3.666 -0.2130 -0.4918  0.0604
  604MOL0     C81415   8.773  10.475   3.755  0.0946  0.0308  0.0423
  604MOL0     C81416   8.772  10.325   3.769 -0.0171  0.3334  0.4181
  604MOL0     C81417   8.704  10.268   3.644  0.5457 -0.0496  0.0547
  604MOL0     C81418   8.685  10.116   3.638  0.4796  0.4497 -0.2526
  604MOL0     C81419   8.613  10.051   3.756 -0.4198  0.1021 -0.0062
  604MOL0     C81420   8.456  10.080   3.740 -0.8557  1.3954 -0.6943
  604MOL0     C81421   8.379   9.946   3.721 -0.1192 -0.4181 -0.7290
  604MOL0     N81422   8.234   9.955   3.712  0.3251  0.6884 -0.4428
  604MOL0     C81423   8.157  10.018   3.810  0.1096  0.7357 -0.4381
  604MOL0     C81424   8.032  10.009   3.763  0.1117  0.9102 -0.0864
  604MOL0     C81425   7.898  10.038   3.829 -0.1547 -0.1958 -0.2146
  604MOL0     C81426   7.857  10.186   3.808 -1.4290 -0.1598  0.8027
  604MOL0     C81427   7.860  10.228   3.661  0.0096 -0.3842  0.4829
  604MOL0     C81428   7.823  10.376   3.660  1.0067 -0.0410 -0.0439
  604MOL0     O81429   7.683  10.396   3.699 -0.0173 -0.4212  0.1579
  604MOL0     C81430   7.586  10.392   3.604 -1.3456 -0.4287  0.2412
  604MOL0     C81431   7.610  10.380   3.465  0.5048 -0.8379 -0.8336
  604MOL0     C81432   7.503  10.362   3.384 -0.2811  0.0769 -0.9178
  604MOL0     C81433   7.532  10.344   3.242 -0.4681  0.1422  0.5460
  604MOL0     C81434   7.371  10.387   3.435 -0.4245  0.2967 -0.0185
  604MOL0     C81435   7.246  10.360   3.349  0.5494  0.6416 -0.2848
  604MOL0     O81436   7.153  10.464   3.374  0.1160 -0.1756  0.2978
  604MOL0     C81437   7.032  10.450   3.296 -0.4756  0.0172  0.2533
  604MOL0     C81438   6.921  10.473   3.371 -0.5035 -0.0927 -0.3852
  604MOL0     C81439   6.795  10.469   3.311  0.4842  0.0051  0.6241
  604MOL0     C81440   6.788  10.434   3.169 -1.0900 -0.8909 -0.8805
  604MOL0     O81441   6.677  10.436   3.094 -0.2913  0.1811 -0.4349
  604MOL0     C81442   6.585  10.549   3.124 -0.6820  0.3173 -0.3491
  604MOL0     C81443   6.635  10.677   3.051  0.7860 -0.2234  0.3517
  604MOL0     C81444   6.735  10.761   3.124 -0.0989 -1.4171  0.8049
  604MOL0     C81445   6.765  10.885   3.044 -0.4375 -1.0495 -0.8145
  604MOL0     C81446   6.659  10.990   3.071  0.6184 -0.5128 -0.0163
  604MOL0     C81447   6.699  11.108   2.983  0.2400 -0.5888  0.2059
  604MOL0     C81448   6.610  11.223   3.018  0.1388 -0.2623  0.1086
  604MOL0     C81449   6.468  11.195   2.976  0.0589  0.9547  0.4752
  604MOL0    Cl81450   6.396  11.353   2.949  0.4635  0.2465 -0.3361
  604MOL0     C81451   6.902  10.404   3.104 -0.7217 -0.0744  0.0340
  604MOL0     C81452   7.026  10.412   3.164 -0.0731 -0.5900 -0.4264
  604MOL0     O81453   7.236  10.258   3.287 -0.2347 -0.0347 -0.3005
  604MOL0     C81454   7.345  10.418   3.569  0.9366  0.1463 -0.2285
  604MOL0     C81455   7.457  10.416   3.654  0.0346 -1.1278 -0.3564
  604MOL0     N81456   8.032   9.951   3.634 -0.9688 -0.2116 -0.6166
  604MOL0     N81457   8.155   9.929   3.603  0.4691  0.7446 -0.3332
  604MOL0     C81458   9.138  10.551   3.532 -0.4363 -0.7377 -1.2361
  604MOL0     C81459   9.263  10.585   3.473 -0.0169  0.4738 -0.1511
  604MOL0     C81460   9.694  10.486   3.402 -0.1334 -0.0821  0.2359
  604MOL0     C81461   9.776  10.603   3.400 -1.1081  0.7183  0.0280
  604MOL0     C81462   9.915  10.602   3.360  0.5479 -0.2124  0.1038
  604MOL0     C81463   9.971  10.485   3.306  0.0585 -0.3324 -0.9117
  604MOL0     O81464  10.100  10.473   3.251  0.2891 -0.1783 -0.7378
  604MOL0     C81465  10.176  10.590   3.276 -0.4001  0.4469  0.9024
  604MOL0     C81466  10.312  10.585   3.214  0.1591 -0.0934 -0.0480
  604MOL0     C81467  10.424  10.611   3.317 -0.1062  0.1588 -0.4418
  604MOL0     C81468  10.566  10.639   3.259 -0.3477  0.2461  0.8300
  604MOL0     C81469  10.626  10.516   3.186 -0.3966 -0.6232  0.3925
  604MOL0     C81470  10.670  10.414   3.143 -0.7309 -0.1281  1.0313
  604MOL0     C81471   9.891  10.369   3.304 -0.2332 -0.4311 -0.2131
  604MOL0     C81472   9.755  10.372   3.346 -0.6181  0.8065  0.5845
  604MOL0     H81473   9.445  10.571   3.766 -0.1201 -0.0596  0.3202
  604MOL0     H81474   9.245  10.506   3.851 -0.0993 -1.4589  0.5798
  604MOL0     H81475   8.882  10.616   3.633  2.2065 -0.8379 -1.9458
  604MOL0     H81476   8.886  10.453   3.574  0.6887  0.1200 -0.3910
  604MOL0     H81477   8.788  10.525   3.851  4.0171  0.0941 -0.4619
  604MOL0     H81478   8.685  10.515   3.703 -0.3112 -0.7274  0.1273
  604MOL0     H81479   8.871  10.279   3.773 -0.8579 -1.6237 -0.1928
  604MOL0     H81480   8.712  10.308   3.858 -0.2391  0.7719  0.3573
  604MOL0     H81481   8.604  10.312   3.633  0.5474  0.8140  2.9373
  604MOL0     H81482   8.758  10.294   3.552 -0.0578 -1.6487 -0.8068
  604MOL0     H81483   8.644  10.084   3.542 -1.3100 -1.4376  1.0508
  604MOL0     H81484   8.790  10.084   3.642  0.8301  1.4589 -0.9734
  604MOL0     H81485   8.635   9.944   3.747  1.5631  0.5762 -1.4980
  604MOL0     H81486   8.646  10.081   3.856 -1.7640 -1.4281  0.9519
  604MOL0     H81487   8.422  10.139   3.826 -0.1749 -0.7517  1.1358
  604MOL0     H81488   8.425  10.137   3.652 -2.0776  0.9521 -0.5769
  604MOL0     H81489   8.413   9.892   3.810 -1.1689  0.5282  0.2721
  604MOL0     H81490   8.403   9.888   3.631 -1.9797 -1.1960 -0.7744
  604MOL0     H81491   8.194  10.051   3.906 -0.4545 -1.5107  0.6328
  604MOL0     H81492   7.826   9.971   3.780 -1.2391  0.0002  1.0693
  604MOL0     H81493   7.892  10.011   3.935 -2.8019  2.4315  0.4125
  604MOL0     H81494   7.920  10.252   3.868  0.6944 -1.7880  0.5056
  604MOL0     H81495   7.754  10.191   3.842 -1.0030 -2.9464  2.8151
  604MOL0     H81496   7.809  10.165   3.589  2.0240  1.3648 -2.7439
  604MOL0     H81497   7.966  10.234   3.633  0.5110  1.9585  2.4669
  604MOL0     H81498   7.845  10.420   3.562  2.3014 -0.8463 -0.1354
  604MOL0     H81499   7.883  10.432   3.732 -1.3915  1.7405  0.6886
  604MOL0     H81500   7.708  10.353   3.428  1.0237  0.1515 -0.2226
  604MOL0     H81501   7.488  10.422   3.180  0.5915  0.9713  0.8112
  604MOL0     H81502   7.640  10.352   3.221 -0.3085 -1.7109  0.4086
  604MOL0     H81503   7.508  10.245   3.202 -1.1385  0.2375  0.7141
  604MOL0     H81504   6.920  10.494   3.477 -0.5574  2.9269 -0.8831
  604MOL0     H81505   6.698  10.477   3.357 -0.4386 -0.7333 -1.0808
  604MOL0     H81506   6.487  10.524   3.084 -2.0561  2.4634  1.4069
  604MOL0     H81507   6.569  10.577   3.229 -1.9334 -0.7850 -0.2275
  604MOL0     H81508   6.679  10.655   2.953  1.2293 -1.0004  0.7114
  604MOL0     H81509   6.551  10.740   3.021  0.7659  0.8318  2.4052
  604MOL0     H81510   6.825  10.699   3.127  0.3042 -0.8467  0.7012
  604MOL0     H81511   6.695  10.781   3.225  0.9367  1.9636  0.6989
  604MOL0     H81512   6.857  10.914   3.096 -0.8648 -2.6802  0.9721
  604MOL0     H81513   6.771  10.869   2.936  0.5418 -1.6251 -0.6821
  604MOL0     H81514   6.651  11.003   3.179 -1.5390  2.1274 -0.3940
  604MOL0     H81515   6.558  10.960   3.042  0.2937 -0.3837  0.9483
  604MOL0     H81516   6.806  11.128   2.991 -0.4296  3.7850  0.8869
  604MOL0     H81517   6.689  11.097   2.874  0.3046 -2.3464  0.3596
  604MOL0     H81518   6.644  11.313   2.967  1.4706 -1.1158 -0.5595
  604MOL0     H81519   6.615  11.246   3.124  1.0758  1.2197 -0.2285
  604MOL0     H81520   6.406  11.135   3.043  0.6718 -2.8458 -2.0369
  604MOL0     H81521   6.457  11.148   2.878 -0.5700  1.2311  0.4090
  604MOL0     H81522   6.897  10.361   3.004 -0.2804 -0.2733  0.0922
  604MOL0     H81523   7.115  10.389   3.106 -0.4499 -0.2672 -1.1355
  604MOL0     H81524   7.249  10.458   3.602  1.2786 -1.1571  2.6432
  604MOL0     H81525   7.451  10.437   3.760  1.7709 -0.5290 -0.3422
  604MOL0     H81526   9.060  10.552   3.457  0.8212 -2.5511 -2.6582
  604MOL0     H81527   9.270  10.597   3.366  0.7258 -1.9471 -0.4287
  604MOL0     H81528   9.734  10.696   3.437 -1.2845  1.5188 -2.0546
  604MOL0     H81529   9.977  10.691   3.366  0.6836 -0.3669  1.1772
  604MOL0     H81530  10.131  10.680   3.234  0.8913  1.5494  1.7874
  604MOL0     H81531  10.180  10.604   3.385 -1.8735  3.4732  0.6635
  604MOL0     H81532  10.324  10.657   3.132  2.5667  0.5133  0.7754
  604MOL0     H81533  10.340  10.489   3.171 -0.9266 -0.3000 -0.3199
  604MOL0     H81534  10.431  10.530   3.390  0.2776 -1.3091 -2.0383
  604MOL0     H81535  10.392  10.707   3.359  0.7129  0.2632 -0.0324
  604MOL0     H81536  10.641  10.655   3.338  3.0313 -2.3648 -1.5214
  604MOL0     H81537  10.574  10.724   3.190  1.3671 -0.2174  0.4121
  604MOL0     H81538  10.703  10.323   3.097 -0.7256  0.5504 -0.3744
  604MOL0     H81539   9.934  10.271   3.285  0.7714  0.5163 -3.4099
  604MOL0     H81540   9.706  10.275   3.355  3.5084 -1.4223  1.4331
  605MOL0     O81541  10.454  10.307   9.476 -0.2145  0.1209  0.6347
  605MOL0     C81542  10.472  10.412   9.424  0.0851 -0.5042  0.6713
  605MOL0     O81543  10.371  10.499   9.387  0.1380 -0.0499 -0.3126
  605MOL0     C81544  10.240  10.485   9.410 -0.0749  0.1785  0.5258
  605MOL0     C81545  10.172  10.366   9.411  0.7856 -0.2170 -0.4798
  605MOL0     C81546  10.040  10.361   9.463 -0.4236 -0.4546  0.3935
  605MOL0     C81547   9.963  10.476   9.496 -0.2906 -0.2115  0.3845
  605MOL0     O81548   9.831  10.463   9.533  0.0787 -0.3784 -0.2665
  605MOL0     C81549   9.787  10.540   9.643 -0.9354 -0.3722  1.0451
  605MOL0     C81550   9.661  10.494   9.713 -0.1753  0.5258 -0.5583
  605MOL0     C81551   9.534  10.518   9.631  0.5386 -0.7790 -0.1087
  605MOL0     C81552   9.404  10.513   9.728 -0.2941  0.1732  0.6518
  605MOL0     C81553   9.274  10.541   9.646 -0.0304  0.6529 -0.5462
  605MOL0     C81554   9.157  10.551   9.747 -0.9727  0.5740  0.3355
  605MOL0     C81555   9.026  10.578   9.674  0.3225  0.8775 -0.1208
  605MOL0     C81556   8.940  10.455   9.661  0.4604  0.4846  0.6870
  605MOL0     N81557   8.813  10.491   9.602 -0.4432 -0.5092  0.5085
  605MOL0     C81558   8.788  10.565   9.482  0.1529 -0.0972 -0.2277
  605MOL0     C81559   8.658  10.562   9.470  0.4136 -0.0640  0.1556
  605MOL0     C81560   8.587  10.617   9.356  0.8100 -0.3509 -0.0503
  605MOL0     C81561   8.567  10.771   9.375 -0.2312 -0.9396 -0.1373
  605MOL0     C81562   8.464  10.799   9.488 -0.9879  0.5338 -0.7572
  605MOL0     C81563   8.425  10.942   9.463  0.6110 -0.1459 -1.2033
  605MOL0     O81564   8.331  10.987   9.569 -0.1728 -0.1679  0.1545
  605MOL0     C81565   8.218  10.912   9.594 -0.4889 -0.4927  0.0461
  605MOL0     C81566   8.166  10.903   9.723  0.5081 -0.0267  1.0844
  605MOL0     C81567   8.065  10.810   9.752  0.4431  0.6826 -0.5912
  605MOL0     C81568   8.035  10.784   9.898  0.0597  0.6154 -0.2916
  605MOL0     C81569   7.993  10.748   9.654 -0.3861  0.6162 -0.2669
  605MOL0     C81570   7.877  10.658   9.681  0.2501  0.1286  0.1054
  605MOL0     O81571   7.863  10.590   9.793 -0.0038  0.4030 -0.4348
  605MOL0     C81572   7.747  10.526   9.808 -0.6461  0.2709  0.7155
  605MOL0     C81573   7.729  10.395   9.774  0.0046  0.3792 -0.5879
  605MOL0     C81574   7.603  10.330   9.785  1.0664 -0.3685  0.2456
  605MOL0     C81575   7.496  10.400   9.843 -0.0856 -0.0688 -0.9473
  605MOL0     O81576   7.382  10.327   9.854 -0.2292 -0.2210 -0.4651
  605MOL0     C81577   7.300  10.360   9.966  0.1627 -0.0954  0.2958
  605MOL0     C81578   7.206  10.241   9.984 -0.4234  0.5670 -0.5254
  605MOL0     C81579   7.103  10.253  10.098  0.4081  0.8900  0.3509
  605MOL0     C81580   6.992  10.352  10.071 -0.0464  0.1780 -0.0137
  605MOL0     C81581   6.892  10.350  10.179  0.3773 -0.7493 -0.7948
  605MOL0     C81582   6.791  10.457  10.149 -0.3127  0.9267  0.0080
  605MOL0     C81583   6.667  10.461  10.241 -0.5012 -0.6728  0.1852
  605MOL0     C81584   6.578  10.586  10.224 -0.2834 -0.5445  0.1912
  605MOL0    Cl81585   6.407  10.564  10.288 -0.2887 -0.1226  0.4584
  605MOL0     C81586   7.521  10.531   9.888  0.1335 -0.6634 -0.4194
  605MOL0     C81587   7.645  10.593   9.875  0.9913 -0.6287 -0.5185
  605MOL0     O81588   7.794  10.658   9.589 -0.4469  0.1346  0.2469
  605MOL0     C81589   8.028  10.769   9.521 -0.2812  0.4172  0.0930
  605MOL0     C81590   8.146  10.838   9.493  0.3070  0.1239  0.3918
  605MOL0     N81591   8.605  10.510   9.576  0.9705 -0.0181 -0.5862
  605MOL0     N81592   8.694  10.476   9.664  0.0767 -0.0907 -0.0885
  605MOL0     C81593  10.038  10.602   9.491 -0.8413  0.2821 -0.1957
  605MOL0     C81594  10.173  10.599   9.445 -0.2579  0.4631  0.7042
  605MOL0     C81595  10.612  10.438   9.381 -0.0728  0.0318  0.3446
  605MOL0     C81596  10.639  10.559   9.319  0.2444  0.5343 -0.3857
  605MOL0     C81597  10.767  10.587   9.256  0.8747  0.5548 -0.6404
  605MOL0     C81598  10.867  10.488   9.259 -0.0816 -0.0793 -0.2426
  605MOL0     O81599  10.985  10.514   9.195 -0.1522  0.4689 -0.2217
  605MOL0     C81600  11.042  10.651   9.195  0.0033  0.0527 -0.6599
  605MOL0     C81601  11.182  10.632   9.251  0.6149 -0.4537 -0.4947
  605MOL0     C81602  11.191  10.572   9.391 -0.9419  1.0272  0.1024
  605MOL0     C81603  11.335  10.578   9.446 -1.1316  1.3972 -0.5428
  605MOL0     C81604  11.421  10.499   9.361 -0.1023 -0.6207 -0.1713
  605MOL0     C81605  11.496  10.438   9.287  0.2156 -0.5739 -0.3785
  605MOL0     C81606  10.835  10.367   9.323 -0.4032  0.0494 -0.1545
  605MOL0     C81607  10.708  10.339   9.376  0.3009  0.1893  0.5296
  605MOL0     H81608  10.214  10.273   9.375 -2.5160 -2.3876  0.8465
  605MOL0     H81609  10.000  10.260   9.464 -4.2570  0.8184 -1.9315
  605MOL0     H81610   9.866  10.542   9.719 -0.2349  3.3605  0.4328
  605MOL0     H81611   9.776  10.642   9.603  0.7151 -1.1103 -1.5336
  605MOL0     H81612   9.656  10.388   9.738 -3.1516  1.3128  2.9629
  605MOL0     H81613   9.652  10.537   9.813  0.7023  0.5893 -0.4949
  605MOL0     H81614   9.532  10.622   9.596  0.3970 -0.8896 -0.4410
  605MOL0     H81615   9.517  10.443   9.553 -0.5064 -3.5940  2.6330
  605MOL0     H81616   9.399  10.413   9.771 -1.8979  0.7810  1.9530
  605MOL0     H81617   9.427  10.583   9.809  2.0723 -0.3902  0.5579
  605MOL0     H81618   9.285  10.634   9.589 -2.8542  0.1434 -2.1102
  605MOL0     H81619   9.277  10.458   9.575  0.7362  1.7237 -1.8258
  605MOL0     H81620   9.162  10.461   9.808  0.1401  0.2886 -0.1456
  605MOL0     H81621   9.181  10.639   9.807 -2.4392  1.2190  0.0253
  605MOL0     H81622   8.972  10.646   9.742  0.6408 -2.4852  3.9185
  605MOL0     H81623   9.038  10.621   9.574  2.2394 -1.9911 -1.2184
  605MOL0     H81624   8.916  10.408   9.757 -0.1886 -2.1131 -0.6695
  605MOL0     H81625   8.984  10.370   9.609  1.2790  0.8714  0.7250
  605MOL0     H81626   8.855  10.601   9.405 -0.3576 -0.2971 -0.7731
  605MOL0     H81627   8.650  10.603   9.269 -0.4118  0.2661 -1.0733
  605MOL0     H81628   8.497  10.559   9.335  0.7998 -1.7753  3.3426
  605MOL0     H81629   8.532  10.811   9.279 -0.2595  2.3577  1.1362
  605MOL0     H81630   8.660  10.820   9.405 -0.4907 -2.1713  3.1002
  605MOL0     H81631   8.499  10.779   9.589 -0.8109 -2.7586 -1.3464
  605MOL0     H81632   8.376  10.736   9.467 -0.7401 -0.5315  1.1786
  605MOL0     H81633   8.398  10.962   9.358  2.7352  0.5704 -1.6635
  605MOL0     H81634   8.508  11.013   9.468 -1.3130  2.1596  0.2619
  605MOL0     H81635   8.224  10.953   9.801  2.4993 -0.4010 -0.0922
  605MOL0     H81636   7.934  10.816   9.928  0.7978  0.7633  2.3031
  605MOL0     H81637   8.062  10.683   9.927  1.6108  0.8577 -0.8366
  605MOL0     H81638   8.099  10.852   9.955 -1.8011  1.6347  0.7186
  605MOL0     H81639   7.821  10.362   9.727  0.0607  0.8952 -0.8474
  605MOL0     H81640   7.582  10.229   9.750  1.4920  0.0390 -1.2997
  605MOL0     H81641   7.359  10.375  10.057  1.0584  2.0848 -0.5781
  605MOL0     H81642   7.242  10.452   9.955 -2.8723 -2.0240 -1.2260
  605MOL0     H81643   7.155  10.227   9.888  2.3249 -1.6406 -1.7975
  605MOL0     H81644   7.275  10.160  10.007  0.6001  1.7349  0.6893
  605MOL0     H81645   7.156  10.257  10.194 -3.2233  0.6505  2.5326
  605MOL0     H81646   7.058  10.153  10.105  1.4086  0.2653 -1.3191
  605MOL0     H81647   7.029  10.455  10.068  1.4237 -0.2118  2.1643
  605MOL0     H81648   6.948  10.336   9.972 -0.1743 -3.5611  0.5183
  605MOL0     H81649   6.937  10.377  10.275 -0.1263  0.9249 -1.0002
  605MOL0     H81650   6.848  10.249  10.179  0.2737 -0.7043 -1.0827
  605MOL0     H81651   6.838  10.555  10.157  1.1481  0.3913 -1.5011
  605MOL0     H81652   6.761  10.444  10.044 -1.2913  0.8005  0.2979
  605MOL0     H81653   6.700  10.474  10.345 -0.0873 -1.2963  0.1336
  605MOL0     H81654   6.609  10.370  10.229 -0.2153 -1.4311  3.6440
  605MOL0     H81655   6.564  10.606  10.118  1.4141 -0.8168 -0.1254
  605MOL0     H81656   6.641  10.660  10.277  0.7031 -3.0689  2.8316
  605MOL0     H81657   7.436  10.574   9.941 -1.1750 -3.2618 -0.2435
  605MOL0     H81658   7.656  10.692   9.919 -1.6153  1.6669 -4.4100
  605MOL0     H81659   7.977  10.731   9.433 -0.7008 -2.6742  1.5783
  605MOL0     H81660   8.176  10.847   9.389 -1.2337 -2.7732 -0.4211
  605MOL0     H81661   9.996  10.692   9.535 -1.4626 -1.9753  4.5059
  605MOL0     H81662  10.228  10.692   9.450 -0.4178  0.5001  2.4490
  605MOL0     H81663  10.558  10.631   9.325 -0.5004 -0.0849 -2.3843
  605MOL0     H81664  10.775  10.689   9.218 -0.0673  0.9812  0.2569
  605MOL0     H81665  11.048  10.693   9.094  2.1432 -1.5901 -1.2812
  605MOL0     H81666  10.984  10.717   9.260  1.2853  0.7241 -0.1707
  605MOL0     H81667  11.222  10.733   9.255  2.7254 -1.1726 -1.7862
  605MOL0     H81668  11.246  10.579   9.179  3.1906  1.6130  0.1182
  605MOL0     H81669  11.153  10.470   9.397 -1.5236  1.1351 -1.3665
  605MOL0     H81670  11.128  10.635   9.453 -0.1127  2.1382 -0.1536
  605MOL0     H81671  11.330  10.540   9.548  0.5738 -0.7380 -1.1893
  605MOL0     H81672  11.374  10.679   9.460  0.7880  0.5980  0.1767
  605MOL0     H81673  11.555  10.401   9.205 -1.4815  0.8642 -2.3482
  605MOL0     H81674  10.913  10.291   9.326 -0.5448 -0.0891  2.1716
  605MOL0     H81675  10.688  10.242   9.420 -1.9921 -0.4083 -1.5996
  606MOL0     O81676   7.798   0.693   4.179 -0.3096  0.1733  0.2710
  606MOL0     C81677   7.841   0.785   4.104  0.0004  0.2270  0.6590
  606MOL0     O81678   7.756   0.881   4.036  0.3827  0.1536 -0.3833
  606MOL0     C81679   7.617   0.883   4.052 -0.7493 -0.4734 -0.8433
  606MOL0     C81680   7.542   0.931   3.952 -0.5558 -0.4067 -0.0928
  606MOL0     C81681   7.402   0.935   3.948 -0.3512 -0.3905  0.8784
  606MOL0     C81682   7.338   0.872   4.054  0.5218 -0.5475  0.8191
  606MOL0     O81683   7.210   0.852   4.071  0.4018  0.4443  0.5092
  606MOL0     C81684   7.113   0.909   3.983 -0.4264  0.2877  0.6061
  606MOL0     C81685   6.963   0.870   4.029 -0.3239  0.2460  0.3153
  606MOL0     C81686   6.863   0.897   3.916  0.4856 -0.0167 -0.8931
  606MOL0     C81687   6.727   0.854   3.956  0.6042 -0.1205 -0.0331
  606MOL0     C81688   6.620   0.906   3.867  0.4980  0.5977 -0.8427
  606MOL0     C81689   6.481   0.861   3.932  0.3436  0.0376 -0.7457
  606MOL0     C81690   6.455   0.705   3.936 -0.3001  0.1373 -1.2785
  606MOL0     C81691   6.427   0.650   3.795 -0.2982  1.0058 -0.2324
  606MOL0     N81692   6.325   0.718   3.718  0.9260  0.6207 -0.3286
  606MOL0     C81693   6.334   0.810   3.618 -0.8119  0.5659 -0.9301
  606MOL0     C81694   6.212   0.817   3.569  0.0732 -0.9792  0.0874
  606MOL0     C81695   6.160   0.899   3.441  0.2267  0.3201 -0.1427
  606MOL0     C81696   6.139   0.789   3.335  0.4904  1.4727 -0.2594
  606MOL0     C81697   6.183   0.832   3.193  0.6037 -0.3572 -0.6360
  606MOL0     C81698   6.103   0.955   3.153 -0.3063  0.7726 -0.0004
  606MOL0     O81699   5.966   0.922   3.124 -0.3970 -0.0394 -0.2950
  606MOL0     C81700   5.871   1.015   3.086  0.2325  0.1359  0.0975
  606MOL0     C81701   5.908   1.142   3.040  0.4426  0.7518 -0.4545
  606MOL0     C81702   5.810   1.234   2.997 -0.2462 -0.2187 -0.1307
  606MOL0     C81703   5.857   1.366   2.944 -0.3981 -0.0400 -0.1859
  606MOL0     C81704   5.677   1.203   2.983  0.2323  0.1013 -0.6990
  606MOL0     C81705   5.565   1.291   2.938 -0.1783  0.1281 -0.0148
  606MOL0     O81706   5.463   1.228   2.865 -0.1366 -0.1085 -0.2349
  606MOL0     C81707   5.340   1.273   2.876 -0.2262 -0.9543 -0.7172
  606MOL0     C81708   5.258   1.267   2.767  0.2063 -0.0296 -0.0538
  606MOL0     C81709   5.123   1.302   2.780 -0.1887  0.1648  0.4029
  606MOL0     C81710   5.078   1.363   2.895  0.1603  0.8725  0.2542
  606MOL0     O81711   4.944   1.378   2.906 -0.4788 -0.1429  0.8133
  606MOL0     C81712   4.887   1.397   3.041  0.3518  0.0907 -0.5593
  606MOL0     C81713   4.743   1.462   3.047 -0.6898  0.0792  0.6151
  606MOL0     C81714   4.730   1.605   2.996 -0.6557  0.0572 -0.2743
  606MOL0     C81715   4.601   1.658   2.934  0.1454 -0.6552  0.5164
  606MOL0     C81716   4.483   1.637   3.032  0.4856  0.3816  0.0664
  606MOL0     C81717   4.356   1.692   2.967  0.2776 -0.7022  0.4601
  606MOL0     C81718   4.233   1.664   3.055  0.2396 -0.1892  0.1030
  606MOL0     C81719   4.099   1.680   2.993  1.0428  0.0908  0.2032
  606MOL0    Cl81720   4.083   1.531   2.903  0.2086  0.3602  0.2404
  606MOL0     C81721   5.167   1.377   3.001 -0.0402  0.0383  0.0784
  606MOL0     C81722   5.293   1.327   2.994  0.6846 -0.8619  0.4723
  606MOL0     O81723   5.569   1.412   2.971 -0.2997 -0.0418 -0.3342
  606MOL0     C81724   5.637   1.068   3.029 -0.5127 -0.8733  0.6121
  606MOL0     C81725   5.733   0.980   3.084 -0.6722 -0.1071 -0.3362
  606MOL0     N81726   6.123   0.734   3.642 -0.4128 -0.5451  0.6629
  606MOL0     N81727   6.201   0.677   3.730 -0.3607 -0.2796  0.5491
  606MOL0     C81728   7.408   0.822   4.158  0.0421 -0.1716  0.2328
  606MOL0     C81729   7.545   0.824   4.157 -0.6301  0.4781  0.0765
  606MOL0     C81730   7.986   0.804   4.087  0.5729 -0.3335 -0.5283
  606MOL0     C81731   8.083   0.728   4.162  0.3811 -0.3627 -0.5706
  606MOL0     C81732   8.213   0.764   4.154  0.3440 -0.0011  0.1485
  606MOL0     C81733   8.258   0.870   4.068 -0.9307 -0.4253 -0.2389
  606MOL0     O81734   8.397   0.897   4.070  0.0028 -0.0742 -0.6041
  606MOL0     C81735   8.450   0.997   3.983  0.3843  0.2198  1.0974
  606MOL0     C81736   8.604   1.018   3.995 -0.0913 -0.7464  0.3072
  606MOL0     C81737   8.639   1.062   4.141 -0.0892 -0.2897 -0.2387
  606MOL0     C81738   8.788   1.060   4.177 -0.2437 -0.0982  0.1576
  606MOL0     C81739   8.829   0.917   4.162  0.3077 -0.9162 -0.0989
  606MOL0     C81740   8.841   0.798   4.136  0.3986  0.5066 -0.0621
  606MOL0     C81741   8.161   0.945   3.988 -0.2826 -0.3918 -0.4858
  606MOL0     C81742   8.028   0.908   4.006 -0.0813  0.1923  0.5864
  606MOL0     H81743   7.587   0.983   3.867 -1.6757  3.8706  1.6684
  606MOL0     H81744   7.334   0.977   3.875  0.1829  1.3858  1.3582
  606MOL0     H81745   7.128   1.017   3.986  6.4756 -0.2037  0.4162
  606MOL0     H81746   7.127   0.876   3.879 -2.7855 -3.7463  1.3542
  606MOL0     H81747   6.972   0.767   4.067  1.7301  0.2397 -0.1112
  606MOL0     H81748   6.939   0.926   4.120  1.1501  1.3471  0.0497
  606MOL0     H81749   6.853   1.006   3.908 -0.2818 -0.2052 -2.9648
  606MOL0     H81750   6.902   0.856   3.823 -1.6277 -0.9726 -1.4176
  606MOL0     H81751   6.733   0.746   3.944  5.2132 -0.0494 -0.4764
  606MOL0     H81752   6.712   0.883   4.061 -0.3411  3.3364 -1.0057
  606MOL0     H81753   6.613   1.015   3.862  0.4148  0.7299  1.2012
  606MOL0     H81754   6.624   0.864   3.766 -1.2051  1.9181 -1.5100
  606MOL0     H81755   6.472   0.893   4.036  0.7356  1.5396 -1.1480
  606MOL0     H81756   6.401   0.915   3.879  0.5956 -0.2781 -1.4646
  606MOL0     H81757   6.538   0.656   3.987 -2.6228 -2.6795  0.0760
  606MOL0     H81758   6.364   0.691   3.995 -0.8064  3.2923 -1.0858
  606MOL0     H81759   6.408   0.543   3.803 -2.3169  1.4077  1.2176
  606MOL0     H81760   6.516   0.660   3.734 -0.6096 -0.9376 -1.0779
  606MOL0     H81761   6.429   0.856   3.596  0.3095 -0.9014  0.5302
  606MOL0     H81762   6.066   0.946   3.467  0.4835  1.0623 -0.5420
  606MOL0     H81763   6.232   0.970   3.400 -0.9628  2.4466  1.2595
  606MOL0     H81764   6.034   0.761   3.329  0.3497  1.8591  0.2945
  606MOL0     H81765   6.193   0.695   3.345 -0.2796  1.0394 -0.0958
  606MOL0     H81766   6.174   0.755   3.115 -1.6357  0.1654 -0.9502
  606MOL0     H81767   6.290   0.854   3.187  1.3047 -2.0522  2.8969
  606MOL0     H81768   6.156   0.988   3.063  1.5685  1.2802  1.2230
  606MOL0     H81769   6.115   1.044   3.216  0.7997  1.9014 -1.7024
  606MOL0     H81770   6.011   1.172   3.053  0.5359  0.1141  0.3488
  606MOL0     H81771   5.849   1.358   2.835  0.5261 -0.8004 -0.2086
  606MOL0     H81772   5.804   1.452   2.985  2.6919  0.6455  2.7451
  606MOL0     H81773   5.961   1.387   2.969 -0.1818  0.0937 -1.1498
  606MOL0     H81774   5.299   1.222   2.677 -1.2481  0.6812 -1.1258
  606MOL0     H81775   5.066   1.280   2.691  2.5089 -1.8576 -1.0075
  606MOL0     H81776   4.875   1.298   3.086 -3.3011 -0.1018 -1.6519
  606MOL0     H81777   4.950   1.461   3.104 -0.1765 -1.1497  1.3408
  606MOL0     H81778   4.689   1.400   2.974  3.4438 -1.7385 -1.2295
  606MOL0     H81779   4.706   1.454   3.149  0.5822 -1.2065  1.0129
  606MOL0     H81780   4.802   1.617   2.914  0.9919 -2.8385  0.5924
  606MOL0     H81781   4.760   1.678   3.071  1.3724  0.0044 -0.9857
  606MOL0     H81782   4.622   1.765   2.922 -0.6108 -0.2794  2.1905
  606MOL0     H81783   4.577   1.619   2.834 -2.3720 -1.7235  1.4618
  606MOL0     H81784   4.505   1.690   3.125 -0.1155  1.7097 -0.5095
  606MOL0     H81785   4.479   1.531   3.056  2.2045  0.4264  0.6501
  606MOL0     H81786   4.362   1.799   2.947 -2.0122 -0.5256  0.4212
  606MOL0     H81787   4.338   1.638   2.874  1.8858 -0.5010  0.0084
  606MOL0     H81788   4.238   1.729   3.142  1.5017  0.6187 -0.5459
  606MOL0     H81789   4.242   1.560   3.090 -0.1724 -0.8995 -1.7527
  606MOL0     H81790   4.091   1.768   2.929  1.0144  0.8080  1.1609
  606MOL0     H81791   4.029   1.682   3.077 -0.3821 -3.1335 -0.7831
  606MOL0     H81792   5.145   1.421   3.098 -1.9154  1.2859 -0.8549
  606MOL0     H81793   5.357   1.336   3.081  1.0545 -0.4174  0.1639
  606MOL0     H81794   5.535   1.032   3.037 -1.9037  2.8297  1.6806
  606MOL0     H81795   5.701   0.881   3.114  2.5539 -1.4101 -0.7419
  606MOL0     H81796   7.355   0.792   4.248 -2.3866  1.5374 -0.5374
  606MOL0     H81797   7.589   0.777   4.244 -0.0533  0.0312 -0.4469
  606MOL0     H81798   8.047   0.641   4.215 -0.6448  0.6311  0.4166
  606MOL0     H81799   8.290   0.705   4.202  1.7677  0.9988 -0.8377
  606MOL0     H81800   8.426   0.963   3.882 -1.5872  1.9644  0.9066
  606MOL0     H81801   8.393   1.091   3.989 -0.1004 -0.1159  1.9405
  606MOL0     H81802   8.638   1.089   3.919  0.3498 -2.7089 -1.4308
  606MOL0     H81803   8.638   0.916   3.971 -4.8999 -2.2107 -1.4868
  606MOL0     H81804   8.581   1.010   4.217  0.0774  2.1731  1.6930
  606MOL0     H81805   8.608   1.167   4.141 -1.9127 -0.8066 -0.3769
  606MOL0     H81806   8.807   1.093   4.280  0.2959 -2.4560  0.8825
  606MOL0     H81807   8.832   1.128   4.105 -1.8939 -0.8392 -1.6360
  606MOL0     H81808   8.847   0.699   4.096  0.1911  0.0973  0.8802
  606MOL0     H81809   8.185   1.034   3.931  1.2127 -0.4651 -0.0292
  606MOL0     H81810   7.957   0.966   3.948  0.1798 -0.7815 -0.7521
  607MOL0     O81811   3.212   2.665   2.337  0.3263 -0.2789 -0.5281
  607MOL0     C81812   3.128   2.752   2.313 -0.7047  0.1338  0.9021
  607MOL0     O81813   3.153   2.882   2.282 -0.4717 -0.3586  0.1903
  607MOL0     C81814   3.281   2.912   2.302 -0.5268 -0.1239 -0.3329
  607MOL0     C81815   3.320   2.952   2.430 -0.3192  0.5708 -0.3376
  607MOL0     C81816   3.454   2.975   2.452 -0.4735  0.3420 -0.2473
  607MOL0     C81817   3.550   2.969   2.356  0.7564 -0.2810  0.3831
  607MOL0     O81818   3.675   3.006   2.405  0.8491  0.1064  0.0933
  607MOL0     C81819   3.791   3.017   2.326  0.4087 -0.2057 -0.0872
  607MOL0     C81820   3.915   3.063   2.405  0.3585 -0.0989  0.3414
  607MOL0     C81821   3.938   2.997   2.544 -0.5401 -0.0494 -0.5413
  607MOL0     C81822   3.854   3.058   2.658 -0.5741  0.0586 -0.3103
  607MOL0     C81823   3.885   2.973   2.788 -0.0714  0.1408 -0.8602
  607MOL0     C81824   3.802   3.009   2.914 -0.0679 -0.1601 -0.3343
  607MOL0     C81825   3.840   2.931   3.046  0.4372 -0.1487  0.3505
  607MOL0     C81826   3.789   2.999   3.171  0.2335 -0.1079 -0.4567
  607MOL0     N81827   3.658   2.948   3.220  0.3346  0.2470 -0.3495
  607MOL0     C81828   3.618   2.917   3.349 -0.0501 -0.1227  0.3968
  607MOL0     C81829   3.494   2.858   3.339 -0.5907 -0.1248  0.4097
  607MOL0     C81830   3.421   2.809   3.455 -0.4037  0.2617  0.4480
  607MOL0     C81831   3.482   2.678   3.510  0.1280  0.0232 -0.5467
  607MOL0     C81832   3.428   2.639   3.654  0.2639 -0.2832 -0.0156
  607MOL0     C81833   3.285   2.604   3.638  0.7009 -0.2207 -0.1053
  607MOL0     O81834   3.240   2.563   3.763 -0.6212  0.1422  0.1255
  607MOL0     C81835   3.109   2.532   3.767  0.5937  0.0637  0.2485
  607MOL0     C81836   3.051   2.486   3.888 -0.0527  0.0038  0.2290
  607MOL0     C81837   2.919   2.448   3.906 -0.6708  0.0950 -0.2790
  607MOL0     C81838   2.891   2.397   4.040  1.0308 -0.4964  0.2996
  607MOL0     C81839   2.836   2.466   3.790  0.5862  1.0710 -0.1152
  607MOL0     C81840   2.692   2.438   3.796 -0.1891 -0.4913 -0.3806
  607MOL0     O81841   2.646   2.385   3.687  0.6708 -0.1650 -0.2648
  607MOL0     C81842   2.510   2.372   3.661  0.1763 -0.0017 -1.1928
  607MOL0     C81843   2.457   2.396   3.536  0.1215 -0.0483 -0.1257
  607MOL0     C81844   2.321   2.371   3.512  0.5487 -0.1474  0.5666
  607MOL0     C81845   2.241   2.334   3.612  0.2196 -0.2771 -0.1090
  607MOL0     O81846   2.109   2.322   3.600  0.2400  0.7276  0.1892
  607MOL0     C81847   2.039   2.446   3.586  0.0527 -0.5587  0.7534
  607MOL0     C81848   1.922   2.436   3.492  0.8227  0.2456 -0.3755
  607MOL0     C81849   1.832   2.550   3.495 -0.1886 -0.2683  0.5526
  607MOL0     C81850   1.707   2.522   3.407 -0.2681  0.9784 -0.4938
  607MOL0     C81851   1.608   2.641   3.405  0.5175 -0.7301 -0.2980
  607MOL0     C81852   1.469   2.627   3.342  0.4766 -0.4311  0.2109
  607MOL0     C81853   1.375   2.749   3.367 -0.0874 -0.1973  0.5550
  607MOL0     C81854   1.259   2.763   3.265  0.1928  0.2937  0.0696
  607MOL0    Cl81855   1.153   2.874   3.353 -0.7139 -0.4595 -0.1687
  607MOL0     C81856   2.293   2.309   3.739 -0.4821 -0.7396  0.2763
  607MOL0     C81857   2.432   2.327   3.769 -0.2593  0.6022 -0.0214
  607MOL0     O81858   2.626   2.476   3.898  0.0762  0.3508  0.0952
  607MOL0     C81859   2.889   2.500   3.666  0.1267 -0.9726  0.3325
  607MOL0     C81860   3.020   2.540   3.659 -0.4468  0.0094  0.7465
  607MOL0     N81861   3.453   2.871   3.207 -0.0382  0.1025 -0.0931
  607MOL0     N81862   3.552   2.929   3.140  1.0866  0.2777 -0.3417
  607MOL0     C81863   3.513   2.941   2.217  0.6934  0.2418 -0.5915
  607MOL0     C81864   3.375   2.913   2.197  0.5557 -0.0805 -0.8532
  607MOL0     C81865   2.985   2.722   2.307  1.2800 -0.2834  0.3782
  607MOL0     C81866   2.887   2.828   2.293 -0.5781 -0.0798  0.3110
  607MOL0     C81867   2.748   2.798   2.273 -0.2543 -0.7932 -0.3629
  607MOL0     C81868   2.703   2.665   2.292 -0.5374  0.2312  0.5011
  607MOL0     O81869   2.570   2.634   2.267 -0.3630  0.2807 -0.4118
  607MOL0     C81870   2.519   2.499   2.303 -0.1897 -0.7236 -0.1747
  607MOL0     C81871   2.376   2.486   2.259 -0.0013  0.7850  0.6532
  607MOL0     C81872   2.306   2.351   2.302 -0.1119  0.2777 -0.0515
  607MOL0     C81873   2.251   2.366   2.445  0.2767 -0.1958 -0.4442
  607MOL0     C81874   2.173   2.242   2.474  0.0088 -0.1075  0.3015
  607MOL0     C81875   2.113   2.153   2.512  0.4661 -0.3377  0.4717
  607MOL0     C81876   2.801   2.564   2.307 -0.3594  0.3904  0.0267
  607MOL0     C81877   2.934   2.589   2.315 -0.6608 -0.5827  0.2390
  607MOL0     H81878   3.248   2.972   2.509  0.5324  1.3280  0.2668
  607MOL0     H81879   3.485   2.982   2.556 -3.0261  2.5357  0.4957
  607MOL0     H81880   3.812   2.914   2.294 -0.0751 -0.4141  0.2426
  607MOL0     H81881   3.768   3.083   2.241  0.2841 -1.1942 -0.8483
  607MOL0     H81882   3.999   3.040   2.339  0.4884 -0.2368  0.5550
  607MOL0     H81883   3.914   3.172   2.420  2.2567 -0.0004 -0.0898
  607MOL0     H81884   3.916   2.891   2.530 -2.2064  0.3247 -0.9440
  607MOL0     H81885   4.046   3.009   2.557 -0.2697 -0.7396 -1.8859
  607MOL0     H81886   3.884   3.161   2.680 -0.1532  0.1687 -1.3351
  607MOL0     H81887   3.749   3.064   2.629 -0.7415  1.4000  0.4961
  607MOL0     H81888   3.870   2.868   2.761 -0.9195 -0.3973  1.4916
  607MOL0     H81889   3.987   3.008   2.807 -0.2844  0.7221 -0.7427
  607MOL0     H81890   3.821   3.116   2.927 -0.1941  0.0605 -1.8350
  607MOL0     H81891   3.696   3.001   2.890  0.4717 -1.6733 -2.6010
  607MOL0     H81892   3.786   2.836   3.040  1.9406 -0.9529 -2.8540
  607MOL0     H81893   3.949   2.917   3.046  0.4199 -0.3277 -0.0284
  607MOL0     H81894   3.785   3.106   3.151 -2.2811 -0.2155 -0.8502
  607MOL0     H81895   3.862   2.969   3.247  0.7074 -2.0405 -1.5823
  607MOL0     H81896   3.693   2.929   3.426  1.0454  0.7436 -0.7507
  607MOL0     H81897   3.402   2.885   3.531 -1.9684 -0.1493  0.4907
  607MOL0     H81898   3.320   2.781   3.424  1.1458 -4.7600 -0.9436
  607MOL0     H81899   3.589   2.699   3.513 -0.3193  2.4074  1.3554
  607MOL0     H81900   3.469   2.592   3.444 -0.5137 -1.1373  1.0353
  607MOL0     H81901   3.453   2.730   3.709 -0.7508 -0.0562  0.0919
  607MOL0     H81902   3.475   2.547   3.691 -1.3913 -1.3479 -0.4489
  607MOL0     H81903   3.263   2.529   3.562 -0.6043 -0.2380  0.2706
  607MOL0     H81904   3.232   2.692   3.599  0.7073  0.6855  1.7963
  607MOL0     H81905   3.126   2.460   3.962  2.2704  1.7379 -1.3601
  607MOL0     H81906   2.818   2.461   4.092  0.4609 -0.4075 -0.5793
  607MOL0     H81907   2.826   2.309   4.033 -3.1176  2.2862 -0.3350
  607MOL0     H81908   2.973   2.399   4.112  0.7501 -1.5975  0.6637
  607MOL0     H81909   2.521   2.430   3.455  1.6016  2.3216  1.9022
  607MOL0     H81910   2.275   2.387   3.415 -2.4004 -0.2772  1.8199
  607MOL0     H81911   2.009   2.475   3.687  0.3195  1.0815  0.3909
  607MOL0     H81912   2.097   2.531   3.549  2.5929 -2.0181  1.2007
  607MOL0     H81913   1.964   2.420   3.392  1.1934  2.0508 -0.5382
  607MOL0     H81914   1.870   2.343   3.517 -0.5467  0.9947 -0.3576
  607MOL0     H81915   1.883   2.637   3.451  2.1736 -2.3621 -1.1205
  607MOL0     H81916   1.793   2.573   3.594 -1.0572  2.2505 -0.2777
  607MOL0     H81917   1.735   2.482   3.309 -0.3183 -0.6270  0.1205
  607MOL0     H81918   1.651   2.446   3.462 -0.1622  0.8360 -0.5842
  607MOL0     H81919   1.661   2.725   3.359  1.7296 -1.0179  0.5237
  607MOL0     H81920   1.583   2.687   3.501 -1.0280 -0.8964 -0.6015
  607MOL0     H81921   1.470   2.618   3.233  1.1654  0.7795  0.1068
  607MOL0     H81922   1.433   2.539   3.397  2.6435 -0.9878  0.8151
  607MOL0     H81923   1.434   2.841   3.362 -0.4985  0.0761  0.7004
  607MOL0     H81924   1.336   2.749   3.469  0.7997  1.3769  0.9288
  607MOL0     H81925   1.205   2.669   3.248 -0.4296  0.7938 -0.7961
  607MOL0     H81926   1.303   2.804   3.174  0.8430  0.7429  0.5845
  607MOL0     H81927   2.222   2.285   3.818  1.0778  0.6784  2.2002
  607MOL0     H81928   2.476   2.310   3.866  2.1288  0.6777 -1.0236
  607MOL0     H81929   2.825   2.506   3.579 -0.2328 -0.1382  0.6378
  607MOL0     H81930   3.041   2.571   3.557 -1.3807 -0.1743  0.4924
  607MOL0     H81931   3.591   2.946   2.141  3.0782  1.8526  1.7631
  607MOL0     H81932   3.342   2.899   2.095 -1.2136  0.1291 -0.3470
  607MOL0     H81933   2.912   2.932   2.273 -0.2167  0.1188  1.6872
  607MOL0     H81934   2.679   2.879   2.250 -0.7072 -0.7900  0.9098
  607MOL0     H81935   2.579   2.418   2.259  1.3317  0.0360  0.4439
  607MOL0     H81936   2.528   2.477   2.410  4.4702 -1.1795 -0.4457
  607MOL0     H81937   2.368   2.494   2.151  1.9642  2.0707  0.5480
  607MOL0     H81938   2.318   2.572   2.296 -1.5194  0.7278 -1.4467
  607MOL0     H81939   2.376   2.268   2.290 -0.1510  0.3272 -0.6386
  607MOL0     H81940   2.225   2.335   2.230 -0.4383  1.1024  0.1264
  607MOL0     H81941   2.189   2.456   2.454  3.1785  1.8468  0.9491
  607MOL0     H81942   2.334   2.389   2.514  0.3044 -2.0681  0.2097
  607MOL0     H81943   2.062   2.062   2.536 -0.3592  0.0268  0.1197
  607MOL0     H81944   2.766   2.462   2.309 -0.7543  0.4264 -2.0455
  607MOL0     H81945   3.006   2.511   2.338 -1.7314 -1.6768 -0.0212
  608MOL0     O81946   1.759  10.666   5.122  0.5105  0.1216 -0.4027
  608MOL0     C81947   1.778  10.703   5.006 -0.0142 -0.0122  0.1296
  608MOL0     O81948   1.680  10.734   4.921 -0.1748  0.2028  0.1481
  608MOL0     C81949   1.556  10.696   4.963 -0.4837  0.5485  0.2686
  608MOL0     C81950   1.454  10.794   4.964 -0.5648  0.2067  0.3702
  608MOL0     C81951   1.324  10.759   4.973  0.4434 -0.3748 -0.2013
  608MOL0     C81952   1.281  10.633   4.988  0.3436  0.1847  0.1353
  608MOL0     O81953   1.150  10.595   5.003 -0.1022 -0.6697  0.7925
  608MOL0     C81954   1.093  10.500   4.916  0.8382 -0.1881 -0.5839
  608MOL0     C81955   0.972  10.572   4.862  0.1427  0.4273 -0.3647
  608MOL0     C81956   0.875  10.630   4.977  0.2777  0.0479  0.4314
  608MOL0     C81957   0.728  10.623   4.936  0.5388  0.5701 -0.0557
  608MOL0     C81958   0.637  10.690   5.042 -0.4043 -0.1445 -0.6900
  608MOL0     C81959   0.511  10.722   4.971  0.1495  0.6858  0.2529
  608MOL0     C81960   0.416  10.809   5.059 -0.3794 -0.7287 -0.7793
  608MOL0     C81961   0.283  10.847   4.984 -0.9265  0.0044 -0.5989
  608MOL0     N81962   0.194  10.924   5.064  0.3556 -0.1183 -0.6723
  608MOL0     C81963   0.101  10.868   5.152  0.8406 -0.4623 -1.1588
  608MOL0     C81964   0.035  10.977   5.198  0.0856  0.0054  0.5727
  608MOL0     C81965  -0.079  10.972   5.296 -0.1167 -0.0653  0.0725
  608MOL0     C81966  -0.228  10.977   5.226 -0.1691 -0.5219 -0.2629
  608MOL0     C81967  -0.271  11.116   5.176 -0.5946 -0.7355  0.3355
  608MOL0     C81968  -0.422  11.120   5.176 -0.5880 -0.0875 -0.2672
  608MOL0     O81969  -0.471  11.112   5.309 -0.4381  0.0154 -0.1158
  608MOL0     C81970  -0.602  11.092   5.317  0.2970  0.8720  0.1762
  608MOL0     C81971  -0.687  11.031   5.222  0.3412 -0.1064  0.2476
  608MOL0     C81972  -0.824  11.033   5.226  0.3967  0.0723 -0.3015
  608MOL0     C81973  -0.903  10.974   5.108  0.0510  0.7435  0.8607
  608MOL0     C81974  -0.885  11.096   5.339  0.0941  1.1823 -0.4432
  608MOL0     C81975  -1.036  11.107   5.353 -0.0555  0.2242  0.1488
  608MOL0     O81976  -1.118  11.016   5.283 -0.7271  0.3430  0.4032
  608MOL0     C81977  -1.255  11.035   5.302 -0.1538  0.2246 -0.6651
  608MOL0     C81978  -1.313  10.979   5.407  0.0557  0.0398  0.4103
  608MOL0     C81979  -1.456  10.981   5.413 -0.0119  0.1941 -1.2197
  608MOL0     C81980  -1.530  11.042   5.314 -0.5367 -0.3958 -0.5061
  608MOL0     O81981  -1.670  11.044   5.319  0.0415 -0.6273 -1.1366
  608MOL0     C81982  -1.747  10.932   5.279 -0.2472 -0.1032  0.0089
  608MOL0     C81983  -1.869  10.946   5.371  0.1991 -0.1149 -0.0853
  608MOL0     C81984  -1.988  10.862   5.329 -0.2910 -0.0973 -0.3765
  608MOL0     C81985  -1.978  10.725   5.400  0.2991  0.1469  0.2164
  608MOL0     C81986  -2.090  10.622   5.354  0.1537  0.6656  0.7495
  608MOL0     C81987  -2.228  10.670   5.392  0.3862  0.6354 -0.1920
  608MOL0     C81988  -2.241  10.674   5.546  0.6295 -0.0893 -0.0586
  608MOL0     C81989  -2.394  10.654   5.581  0.2581 -0.8700  0.1336
  608MOL0    Cl81990  -2.489  10.792   5.513  0.2676 -0.2689 -0.0842
  608MOL0     C81991  -1.464  11.112   5.208 -0.5276 -0.2523  0.4105
  608MOL0     C81992  -1.324  11.107   5.200  0.3578 -0.0817 -0.1716
  608MOL0     O81993  -1.086  11.197   5.421 -0.0637  0.5304 -0.2185
  608MOL0     C81994  -0.802  11.144   5.444  0.3085 -0.9681  0.5323
  608MOL0     C81995  -0.662  11.153   5.424 -0.3224 -1.0091 -0.3427
  608MOL0     N81996   0.086  11.095   5.146 -0.1580 -0.6989 -0.4355
  608MOL0     N81997   0.178  11.060   5.062 -0.3418  0.5266 -0.4199
  608MOL0     C81998   1.380  10.532   4.988  0.0660  0.2367 -1.4051
  608MOL0     C81999   1.517  10.561   4.974  0.4085  0.2916 -0.5507
  608MOL0     C82000   1.914  10.738   4.958  0.3407  0.3218  0.4161
  608MOL0     C82001   1.932  10.770   4.817 -0.0476  0.0743 -0.4409
  608MOL0     C82002   2.065  10.778   4.762  0.1631  0.1333 -0.6741
  608MOL0     C82003   2.177  10.764   4.854 -0.0687 -0.0667  0.0172
  608MOL0     O82004   2.308  10.778   4.813  0.2749  0.2971 -0.1905
  608MOL0     C82005   2.331  10.874   4.713  0.4172 -0.2619  0.0066
  608MOL0     C82006   2.486  10.898   4.712 -0.3163 -0.1755  0.0314
  608MOL0     C82007   2.548  10.922   4.856  0.0853  0.7454 -0.1145
  608MOL0     C82008   2.661  11.018   4.856 -0.6355  1.0570  0.2037
  608MOL0     C82009   2.785  10.973   4.790  0.3962  0.1749  2.0003
  608MOL0     C82010   2.888  10.922   4.747  0.9635 -0.0078  0.0588
  608MOL0     C82011   2.155  10.748   4.986  0.3824 -0.1896 -1.0646
  608MOL0     C82012   2.031  10.734   5.039  0.2932  1.1617  0.2785
  608MOL0     H82013   1.468  10.901   4.952 -0.7182  0.4277  1.9754
  608MOL0     H82014   1.244  10.832   4.979 -2.3855 -3.1573 -1.0874
  608MOL0     H82015   1.159  10.477   4.832  3.1158  0.2642  0.9949
  608MOL0     H82016   1.060  10.409   4.966 -1.4041  0.8067 -0.1059
  608MOL0     H82017   1.020  10.652   4.805 -0.1181 -1.3814 -3.3706
  608MOL0     H82018   0.914  10.514   4.790 -0.6003  0.1292  0.4501
  608MOL0     H82019   0.881  10.574   5.071  0.0924  0.3522  0.6264
  608MOL0     H82020   0.907  10.732   5.000  0.9010  0.0749 -0.4877
  608MOL0     H82021   0.707  10.672   4.840 -0.1628  2.8264  1.1780
  608MOL0     H82022   0.707  10.517   4.918  0.8416  0.8390 -2.3578
  608MOL0     H82023   0.621  10.637   5.136  2.4176  1.7120  1.0004
  608MOL0     H82024   0.691  10.778   5.080 -1.1924 -0.7239  1.9743
  608MOL0     H82025   0.521  10.764   4.870 -0.6803  0.7037  0.1700
  608MOL0     H82026   0.460  10.628   4.948  1.5083 -0.0993  0.3712
  608MOL0     H82027   0.391  10.755   5.151 -0.7212  0.6066 -0.0639
  608MOL0     H82028   0.463  10.899   5.101 -2.5394 -0.7476  1.9462
  608MOL0     H82029   0.238  10.751   4.956  1.1067 -1.7974  1.8318
  608MOL0     H82030   0.316  10.900   4.894  1.3059  0.2930  0.3319
  608MOL0     H82031   0.103  10.765   5.186 -0.3665  0.3194  1.5612
  608MOL0     H82032  -0.078  10.877   5.350 -0.5363 -0.6277 -0.8746
  608MOL0     H82033  -0.058  11.050   5.368  2.6763 -1.4788  0.9376
  608MOL0     H82034  -0.296  10.956   5.309 -0.0871  0.3977  0.0475
  608MOL0     H82035  -0.243  10.899   5.151 -0.1611  0.7921 -1.6721
  608MOL0     H82036  -0.233  11.133   5.075 -0.5602 -1.8306  0.1497
  608MOL0     H82037  -0.243  11.202   5.236 -4.0303 -0.4938  1.8721
  608MOL0     H82038  -0.456  11.037   5.113  0.1426 -1.4256  1.0346
  608MOL0     H82039  -0.458  11.213   5.130  0.1963  0.7681  0.7873
  608MOL0     H82040  -0.638  10.970   5.147  0.1375 -1.2388  1.0051
  608MOL0     H82041  -0.983  11.046   5.086  0.0291  1.1040  2.0471
  608MOL0     H82042  -0.836  10.974   5.022  2.9656 -2.0062  2.8843
  608MOL0     H82043  -0.940  10.873   5.127  2.3307 -0.1747  0.6854
  608MOL0     H82044  -1.266  10.918   5.483  0.9494  0.0056 -0.1593
  608MOL0     H82045  -1.506  10.937   5.499  1.6431  2.8401  1.2773
  608MOL0     H82046  -1.773  10.941   5.173  0.5692  0.5421 -0.1415
  608MOL0     H82047  -1.697  10.836   5.292 -0.4512 -0.0141  1.7081
  608MOL0     H82048  -1.842  10.919   5.473 -1.0062  0.1420  0.3167
  608MOL0     H82049  -1.900  11.050   5.359  3.3960  0.7353 -2.3239
  608MOL0     H82050  -1.999  10.864   5.221  2.3023  2.4033 -0.6967
  608MOL0     H82051  -2.069  10.923   5.371 -0.3273 -0.1529 -0.3660
  608MOL0     H82052  -1.880  10.683   5.379  0.1605  0.3325 -0.8364
  608MOL0     H82053  -1.982  10.742   5.508  0.1323 -2.8465  0.7422
  608MOL0     H82054  -2.064  10.526   5.398  0.4207  0.0102 -0.7662
  608MOL0     H82055  -2.089  10.606   5.246 -1.2014 -1.0294  0.9492
  608MOL0     H82056  -2.251  10.772   5.358 -0.9710  0.1181 -0.9289
  608MOL0     H82057  -2.309  10.612   5.345  0.8520  1.5149 -2.1935
  608MOL0     H82058  -2.208  10.773   5.579 -0.7761  0.8388 -1.2605
  608MOL0     H82059  -2.179  10.597   5.591  0.7422 -1.1941 -1.9964
  608MOL0     H82060  -2.412  10.655   5.689 -1.0416  1.7288 -0.0348
  608MOL0     H82061  -2.444  10.565   5.541  0.7518 -0.2085 -2.1381
  608MOL0     H82062  -1.521  11.164   5.131  0.0664 -0.6457 -0.3090
  608MOL0     H82063  -1.276  11.151   5.113 -1.7055  1.6108 -0.5357
  608MOL0     H82064  -0.849  11.185   5.533 -0.8900 -1.8928  0.3470
  608MOL0     H82065  -0.593  11.211   5.483 -0.9671  0.3927 -0.9190
  608MOL0     H82066   1.351  10.429   5.006 -1.7981  0.9183 -0.1163
  608MOL0     H82067   1.581  10.474   4.967 -0.2381 -0.3531  1.1340
  608MOL0     H82068   1.853  10.755   4.744 -0.4922  1.4486 -0.2704
  608MOL0     H82069   2.080  10.783   4.654  2.9501  1.7567 -0.3281
  608MOL0     H82070   2.291  10.845   4.615 -0.9586  1.8222 -0.1072
  608MOL0     H82071   2.291  10.972   4.741 -0.6469  0.1282 -2.5610
  608MOL0     H82072   2.500  10.986   4.648  1.9487  0.4159  1.2460
  608MOL0     H82073   2.540  10.817   4.662  1.3487  1.2493 -0.5783
  608MOL0     H82074   2.581  10.827   4.897 -0.3898  1.2850  1.5928
  608MOL0     H82075   2.457  10.948   4.910 -1.3621 -1.3574 -1.3955
  608MOL0     H82076   2.684  11.047   4.959 -0.6798  0.4785  0.3817
  608MOL0     H82077   2.628  11.111   4.808  0.2050  0.6655 -1.1947
  608MOL0     H82078   2.973  10.863   4.718 -1.1108 -3.6740  0.7764
  608MOL0     H82079   2.236  10.763   5.057  0.1525 -1.7085 -0.4350
  608MOL0     H82080   2.035  10.714   5.146  1.8906 -1.9562 -0.2417
  609MOL0     O82081   6.289   0.482   4.171 -0.4792 -0.0610 -0.6057
  609MOL0     C82082   6.264   0.410   4.076  0.2656 -0.2252  0.1705
  609MOL0     O82083   6.146   0.416   4.007 -0.1693 -0.3907  0.1889
  609MOL0     C82084   6.042   0.492   4.043  0.0412 -0.4253 -0.3124
  609MOL0     C82085   5.999   0.544   4.171  0.6078  0.1557  0.1752
  609MOL0     C82086   5.883   0.632   4.183  0.3520  0.3075  0.7293
  609MOL0     C82087   5.803   0.662   4.073  0.0658  0.5502 -0.1779
  609MOL0     O82088   5.688   0.729   4.104  0.6481  0.0482 -0.8630
  609MOL0     C82089   5.630   0.817   4.009 -0.0198  0.4656  0.1352
  609MOL0     C82090   5.490   0.844   4.069 -0.5281  1.0281 -1.1750
  609MOL0     C82091   5.427   0.960   3.979 -0.0879 -0.5413  0.4241
  609MOL0     C82092   5.272   0.962   3.996 -0.6624  0.3393 -0.0901
  609MOL0     C82093   5.224   1.084   3.922  0.9737 -0.7337 -0.2374
  609MOL0     C82094   5.072   1.113   3.931  0.1326  0.6293  0.2287
  609MOL0     C82095   5.030   1.220   3.836 -0.5833 -0.3812  0.2693
  609MOL0     C82096   4.870   1.233   3.824 -0.1245  0.7178  0.4231
  609MOL0     N82097   4.790   1.255   3.944  0.0565 -0.2185 -0.8411
  609MOL0     C82098   4.836   1.317   4.054  0.2075 -0.2394 -0.6084
  609MOL0     C82099   4.750   1.282   4.148  0.3831 -0.0014  1.0102
  609MOL0     C82100   4.778   1.309   4.290  0.3843  0.0915 -0.1756
  609MOL0     C82101   4.821   1.185   4.368  0.5056 -0.0486  0.4958
  609MOL0     C82102   4.932   1.101   4.302 -0.6505 -0.1418 -0.5337
  609MOL0     C82103   4.955   0.967   4.378  0.1128 -0.8924  0.3891
  609MOL0     O82104   5.029   1.003   4.492 -0.2588 -0.3451  0.2595
  609MOL0     C82105   5.081   0.914   4.578  0.2811  0.4946  0.3185
  609MOL0     C82106   5.046   0.780   4.590  1.2400 -0.0800  0.0901
  609MOL0     C82107   5.115   0.686   4.669  1.0874 -0.3862 -0.6212
  609MOL0     C82108   5.083   0.540   4.665 -0.0168  0.0897 -0.2647
  609MOL0     C82109   5.217   0.737   4.751 -0.0363 -0.0548 -0.4141
  609MOL0     C82110   5.315   0.657   4.836  0.2482 -1.1687  0.1617
  609MOL0     O82111   5.434   0.725   4.861  0.4791  0.9410  0.1405
  609MOL0     C82112   5.523   0.658   4.933 -0.3757 -0.0053  0.8215
  609MOL0     C82113   5.535   0.682   5.071  0.6039 -0.0261 -0.4634
  609MOL0     C82114   5.618   0.609   5.155  0.0801 -0.4568 -0.7775
  609MOL0     C82115   5.700   0.511   5.090  0.3371  0.0546  0.7917
  609MOL0     O82116   5.797   0.434   5.164  0.2008 -0.5020 -0.4708
  609MOL0     C82117   5.869   0.507   5.274  0.2351 -0.2682  0.1220
  609MOL0     C82118   5.928   0.400   5.366 -0.3116 -0.1528 -0.0079
  609MOL0     C82119   6.038   0.458   5.458  0.9365  0.4933  0.3906
  609MOL0     C82120   6.072   0.352   5.564 -0.5487  0.2645 -0.3096
  609MOL0     C82121   6.162   0.415   5.672 -0.5206 -0.2700 -0.3778
  609MOL0     C82122   6.319   0.425   5.631  0.2254 -0.4477  0.7388
  609MOL0     C82123   6.405   0.468   5.744 -0.2554 -0.8317  0.9682
  609MOL0     C82124   6.379   0.611   5.784  0.0501  0.3748  0.1795
  609MOL0    Cl82125   6.439   0.729   5.667  0.1650  0.3853 -0.2294
  609MOL0     C82126   5.687   0.495   4.952  0.2177 -0.5930  1.2954
  609MOL0     C82127   5.604   0.560   4.872  0.5742 -0.4318 -0.5026
  609MOL0     O82128   5.286   0.548   4.880  0.8535  0.5049  0.0896
  609MOL0     C82129   5.246   0.872   4.753 -0.1091 -0.5692  0.0284
  609MOL0     C82130   5.185   0.959   4.664  0.1573 -0.1923 -0.1683
  609MOL0     N82131   4.654   1.199   4.091  0.5431  0.2093  0.3022
  609MOL0     N82132   4.674   1.193   3.963 -0.4548 -0.1609  0.1480
  609MOL0     C82133   5.837   0.602   3.951  0.0192 -0.2121 -0.4854
  609MOL0     C82134   5.960   0.531   3.936 -0.2092  0.7037 -0.2864
  609MOL0     C82135   6.360   0.306   4.032 -0.9153 -0.6292  1.0871
  609MOL0     C82136   6.483   0.285   4.102  0.9189  0.4822 -0.2611
  609MOL0     C82137   6.574   0.189   4.057 -0.5842  0.6162  0.1220
  609MOL0     C82138   6.553   0.117   3.942 -0.6871  0.4207 -0.7369
  609MOL0     O82139   6.659   0.034   3.904  1.0335  0.2081  0.0770
  609MOL0     C82140   6.659  -0.033   3.775 -0.6199 -1.0817 -1.1159
  609MOL0     C82141   6.717   0.051   3.657  0.3118  0.0409  0.3020
  609MOL0     C82142   6.795  -0.048   3.568 -0.6219  0.6934  0.1368
  609MOL0     C82143   6.842   0.036   3.441 -0.0518  0.0014 -0.1490
  609MOL0     C82144   6.880  -0.055   3.330  0.4466  0.6998  0.2662
  609MOL0     C82145   6.924  -0.119   3.238 -0.5453 -0.3195  0.4594
  609MOL0     C82146   6.436   0.141   3.862  0.6846 -0.3206 -0.4794
  609MOL0     C82147   6.342   0.233   3.912  0.3610  0.3988 -0.2297
  609MOL0     H82148   6.050   0.516   4.263 -1.1818  2.2675  1.9291
  609MOL0     H82149   5.854   0.685   4.273  2.4145  3.4288 -0.3058
  609MOL0     H82150   5.682   0.912   3.991  2.6257 -1.0440 -0.6970
  609MOL0     H82151   5.641   0.770   3.911 -1.4819  3.0211 -1.3706
  609MOL0     H82152   5.430   0.753   4.075  1.9802 -0.7249 -1.1541
  609MOL0     H82153   5.499   0.891   4.167  0.6979 -1.3714 -0.0603
  609MOL0     H82154   5.460   1.060   4.011 -3.0900  0.6141  0.2581
  609MOL0     H82155   5.449   0.948   3.873  1.4960 -1.7645  0.8697
  609MOL0     H82156   5.236   0.870   3.949 -0.3942  1.3287 -2.3666
  609MOL0     H82157   5.262   0.959   4.105  1.0573 -1.1485  0.0671
  609MOL0     H82158   5.281   1.171   3.959 -1.2979  1.5028 -1.6834
  609MOL0     H82159   5.252   1.070   3.817 -1.5446  1.4830 -1.3421
  609MOL0     H82160   5.016   1.025   3.897  1.3539  0.1985 -0.7459
  609MOL0     H82161   5.041   1.129   4.035 -1.2528 -0.1839 -0.0344
  609MOL0     H82162   5.076   1.312   3.874 -2.4607  0.0663  1.6324
  609MOL0     H82163   5.072   1.196   3.738 -1.4776  0.7350 -0.4184
  609MOL0     H82164   4.836   1.136   3.786  1.2728 -0.2756  1.5986
  609MOL0     H82165   4.853   1.312   3.750 -1.9439  0.6118  0.6904
  609MOL0     H82166   4.931   1.370   4.055  0.5565 -0.7773 -2.2070
  609MOL0     H82167   4.859   1.383   4.287 -0.5464  1.1172 -1.5140
  609MOL0     H82168   4.697   1.362   4.341  0.1238  1.0370 -1.5023
  609MOL0     H82169   4.737   1.120   4.391  0.7122  0.1279  1.8384
  609MOL0     H82170   4.861   1.212   4.466  1.1932 -2.2401  0.8561
  609MOL0     H82171   5.023   1.161   4.312  0.2891 -1.3855 -1.2636
  609MOL0     H82172   4.904   1.098   4.196 -0.3725  2.2471 -0.7291
  609MOL0     H82173   5.028   0.907   4.323  1.7226  1.4223 -0.1493
  609MOL0     H82174   4.859   0.916   4.389  0.1800 -1.0118  0.4257
  609MOL0     H82175   4.964   0.742   4.529  2.3451 -0.7525 -1.0300
  609MOL0     H82176   5.008   0.518   4.590 -0.5875  0.3902  0.2107
  609MOL0     H82177   5.178   0.488   4.651  0.1666  0.4242 -0.2931
  609MOL0     H82178   5.044   0.510   4.763 -1.2557  3.8641  0.5691
  609MOL0     H82179   5.470   0.760   5.109  0.8890  0.8139 -1.6572
  609MOL0     H82180   5.612   0.616   5.263  0.8214 -1.6619 -0.6385
  609MOL0     H82181   5.950   0.565   5.229 -0.4628  1.6324  1.1903
  609MOL0     H82182   5.815   0.574   5.342  2.1063  1.8824 -0.3863
  609MOL0     H82183   5.840   0.366   5.421 -1.1289  3.2601  1.0830
  609MOL0     H82184   5.981   0.326   5.306 -0.9200 -0.5228 -0.0954
  609MOL0     H82185   6.004   0.546   5.513 -2.3097 -0.1018 -0.4484
  609MOL0     H82186   6.128   0.475   5.398  0.0441 -0.6570 -1.3303
  609MOL0     H82187   5.982   0.310   5.611 -0.1075 -0.5443 -0.1622
  609MOL0     H82188   6.128   0.267   5.524 -0.7801 -0.1925  0.3197
  609MOL0     H82189   6.149   0.359   5.765  0.3098 -1.4784 -0.9572
  609MOL0     H82190   6.121   0.513   5.699  0.6066  1.0154 -2.9587
  609MOL0     H82191   6.363   0.332   5.594  2.1266  1.5193 -2.4038
  609MOL0     H82192   6.327   0.487   5.542 -0.9894 -0.9003  0.2969
  609MOL0     H82193   6.510   0.450   5.720 -0.7356 -0.7217 -1.5481
  609MOL0     H82194   6.385   0.404   5.830  0.9656 -2.9412 -0.2122
  609MOL0     H82195   6.428   0.635   5.878 -0.2294  0.2628  0.3567
  609MOL0     H82196   6.270   0.623   5.794 -0.2788 -1.9083 -0.1420
  609MOL0     H82197   5.746   0.418   4.902  1.4567 -0.6461  2.7545
  609MOL0     H82198   5.583   0.521   4.772 -1.3827 -1.3336  0.1986
  609MOL0     H82199   5.326   0.914   4.812 -0.2363 -1.1268  0.6129
  609MOL0     H82200   5.219   1.061   4.649  0.8430 -0.3999 -0.0200
  609MOL0     H82201   5.764   0.624   3.873  1.1459  1.3826 -1.1266
  609MOL0     H82202   5.982   0.490   3.838 -0.2653 -0.2230  0.0813
  609MOL0     H82203   6.494   0.334   4.198  0.1566  3.0630 -1.3963
  609MOL0     H82204   6.667   0.171   4.110 -0.6174  1.1861  0.3778
  609MOL0     H82205   6.734  -0.110   3.795 -1.0213 -1.4919 -1.1989
  609MOL0     H82206   6.561  -0.075   3.752 -1.8703  0.9626  0.1568
  609MOL0     H82207   6.792   0.125   3.686  2.8797 -1.3711 -2.0961
  609MOL0     H82208   6.638   0.105   3.604  0.9912  1.9670  1.1462
  609MOL0     H82209   6.727  -0.129   3.542 -0.7005  0.9282 -0.4133
  609MOL0     H82210   6.874  -0.091   3.629 -0.4358 -0.1186 -0.6596
  609MOL0     H82211   6.926   0.099   3.470 -1.6729  1.8655  0.7948
  609MOL0     H82212   6.767   0.106   3.404  1.2487  0.5995 -1.7320
  609MOL0     H82213   6.952  -0.160   3.143 -0.8611  1.3620 -0.3950
  609MOL0     H82214   6.424   0.092   3.766  0.6870  0.1876 -0.7432
  609MOL0     H82215   6.258   0.253   3.846  0.5103 -2.3555 -1.3698
  610MOL0     O82216   1.450   2.497  10.422 -0.1415  0.3308 -0.2815
  610MOL0     C82217   1.501   2.428  10.335  0.3996  0.1591 -0.2637
  610MOL0     O82218   1.424   2.356  10.240  0.5556  0.6989  0.0987
  610MOL0     C82219   1.289   2.374  10.220 -0.6173  0.0447  0.2434
  610MOL0     C82220   1.236   2.400  10.090 -0.1153  0.7732 -0.3210
  610MOL0     C82221   1.096   2.391  10.077  0.2660 -0.1082  0.0680
  610MOL0     C82222   1.014   2.350  10.180  0.5944 -0.3683  0.4689
  610MOL0     O82223   0.882   2.345  10.177  0.0696 -0.1779  0.4990
  610MOL0     C82224   0.816   2.350  10.052 -0.4169  0.3978 -0.1228
  610MOL0     C82225   0.668   2.332  10.072 -0.2060 -0.3012  1.0297
  610MOL0     C82226   0.589   2.404   9.959  0.5222  0.4659 -0.1242
  610MOL0     C82227   0.432   2.365   9.967 -0.3131  0.6644 -0.2438
  610MOL0     C82228   0.337   2.428   9.863  0.2479  0.6475 -0.8241
  610MOL0     C82229   0.280   2.572   9.906 -0.3857  0.0428  0.6622
  610MOL0     C82230   0.224   2.576  10.042  0.6295  0.0986  0.0273
  610MOL0     C82231   0.105   2.474  10.053 -0.5102  0.4438  0.0305
  610MOL0     N82232   0.006   2.511   9.950 -0.6694  0.5822 -0.0607
  610MOL0     C82233  -0.107   2.594   9.976 -0.4579  0.4845  0.8911
  610MOL0     C82234  -0.170   2.598   9.850  0.6033  0.3268  0.4475
  610MOL0     C82235  -0.301   2.667   9.824  0.3408 -0.8496  1.0265
  610MOL0     C82236  -0.417   2.627   9.917  0.8230 -0.5043  0.2001
  610MOL0     C82237  -0.487   2.501   9.863 -0.0374 -0.0543  0.1944
  610MOL0     C82238  -0.563   2.494   9.726  0.2815  1.2956  0.1262
  610MOL0     O82239  -0.635   2.617   9.727  0.5949 -0.2960 -0.3870
  610MOL0     C82240  -0.773   2.603   9.721 -1.1201 -0.0332  0.7613
  610MOL0     C82241  -0.853   2.696   9.789 -0.3700  0.2785 -0.0406
  610MOL0     C82242  -0.990   2.703   9.779 -0.2147  0.6601 -0.1274
  610MOL0     C82243  -1.062   2.792   9.876  0.2338  0.6904 -0.4292
  610MOL0     C82244  -1.056   2.604   9.697 -0.3809 -0.0558  0.4296
  610MOL0     C82245  -1.201   2.577   9.679  0.4397 -0.2663  0.0469
  610MOL0     O82246  -1.238   2.452   9.635 -0.0751 -0.3532 -0.2479
  610MOL0     C82247  -1.369   2.433   9.594 -0.6618  0.3710  0.2461
  610MOL0     C82248  -1.397   2.414   9.458 -0.6088 -0.1990  0.1828
  610MOL0     C82249  -1.529   2.414   9.417 -0.0776 -0.1163  0.2580
  610MOL0     C82250  -1.633   2.413   9.513 -0.8871  0.1911 -0.2358
  610MOL0     O82251  -1.762   2.403   9.486  0.4791 -0.9880  0.1334
  610MOL0     C82252  -1.793   2.328   9.366 -0.2011 -0.3894  0.5748
  610MOL0     C82253  -1.935   2.283   9.369  0.7642 -0.3137 -0.7340
  610MOL0     C82254  -1.927   2.142   9.430  0.0894  0.1836 -0.9323
  610MOL0     C82255  -2.069   2.077   9.448  1.0010 -0.1933  0.3338
  610MOL0     C82256  -2.111   1.995   9.324 -0.2410  0.0635 -0.4817
  610MOL0     C82257  -2.227   1.895   9.341  0.1466  0.0178  0.1505
  610MOL0     C82258  -2.280   1.853   9.201  0.3109  0.4747 -0.5627
  610MOL0     C82259  -2.400   1.925   9.144  0.1020  0.2017 -0.1367
  610MOL0    Cl82260  -2.546   1.895   9.247 -0.2812  0.0781 -0.2480
  610MOL0     C82261  -1.599   2.420   9.649 -0.0997  0.2517 -0.0960
  610MOL0     C82262  -1.469   2.429   9.693 -0.1651 -0.0018 -0.2992
  610MOL0     O82263  -1.275   2.670   9.679 -0.0488 -0.0793 -0.3936
  610MOL0     C82264  -0.969   2.511   9.622  0.9952  0.2773 -0.8006
  610MOL0     C82265  -0.830   2.511   9.640 -0.4528 -0.3944 -0.0593
  610MOL0     N82266  -0.097   2.517   9.765 -0.4139 -0.3878 -0.1082
  610MOL0     N82267  -0.001   2.461   9.827  0.1644  0.1883 -0.3949
  610MOL0     C82268   1.063   2.337  10.310  1.0738  0.7057  0.0701
  610MOL0     C82269   1.208   2.337  10.326  0.6169 -0.1977  0.0391
  610MOL0     C82270   1.645   2.401  10.337 -0.3403  0.7182 -1.3910
  610MOL0     C82271   1.724   2.471  10.431 -0.3929 -0.3140 -1.0663
  610MOL0     C82272   1.854   2.437  10.440 -0.0220 -0.1474 -0.1537
  610MOL0     C82273   1.911   2.343  10.363 -0.1198 -0.2204  0.2196
  610MOL0     O82274   2.039   2.300  10.382 -0.0606  0.1009 -0.3505
  610MOL0     C82275   2.137   2.377  10.459 -0.3128 -0.2259  0.1785
  610MOL0     C82276   2.272   2.303  10.493  0.0412  0.0783  0.4544
  610MOL0     C82277   2.378   2.387  10.551  0.1676  0.1631  0.1113
  610MOL0     C82278   2.520   2.344  10.534  0.0181  0.4848  0.7285
  610MOL0     C82279   2.601   2.416  10.630 -0.6306 -0.1420 -0.8499
  610MOL0     C82280   2.658   2.485  10.719 -0.1078 -0.9372  0.7970
  610MOL0     C82281   1.836   2.272  10.275  0.0909  0.6362  0.2203
  610MOL0     C82282   1.701   2.303  10.249  0.3078 -0.3647 -0.4457
  610MOL0     H82283   1.302   2.423  10.006 -1.0027  3.2345 -0.4326
  610MOL0     H82284   1.048   2.416   9.983  2.3632  0.1922 -0.9967
  610MOL0     H82285   0.833   2.452  10.015  0.8281 -0.0372 -0.7943
  610MOL0     H82286   0.853   2.278   9.980  4.1710  0.0845  2.2011
  610MOL0     H82287   0.649   2.225  10.085  2.0575 -1.0210 -0.8310
  610MOL0     H82288   0.644   2.387  10.163  0.9399 -0.0909  1.2235
  610MOL0     H82289   0.598   2.507   9.994  2.1407 -0.1579  1.4006
  610MOL0     H82290   0.621   2.388   9.856 -0.6298 -1.8213 -0.1761
  610MOL0     H82291   0.428   2.256   9.964  0.8958  0.5824  0.5052
  610MOL0     H82292   0.404   2.390  10.070  1.7836  0.4713  0.4155
  610MOL0     H82293   0.400   2.443   9.775 -0.3578  1.6854 -1.1016
  610MOL0     H82294   0.255   2.358   9.846 -1.2072  1.4255  2.1945
  610MOL0     H82295   0.364   2.642   9.907 -0.1929 -0.1577  3.1163
  610MOL0     H82296   0.205   2.599   9.831 -0.6334 -0.9304  0.5426
  610MOL0     H82297   0.292   2.551  10.124 -0.4300 -0.6027  0.7019
  610MOL0     H82298   0.191   2.678  10.063  1.4011  0.4460 -0.3623
  610MOL0     H82299   0.071   2.482  10.156  1.3527 -1.6135  0.8735
  610MOL0     H82300   0.145   2.374  10.035  2.0429  1.3398  0.1951
  610MOL0     H82301  -0.129   2.657  10.061 -3.6303 -0.8165  1.1445
  610MOL0     H82302  -0.276   2.774   9.826 -2.2940  0.0089 -2.3046
  610MOL0     H82303  -0.338   2.655   9.721 -2.1077  0.2338  1.7050
  610MOL0     H82304  -0.495   2.703   9.925 -1.1588 -2.4037 -0.3769
  610MOL0     H82305  -0.376   2.615  10.018  1.9088 -1.1986 -0.3000
  610MOL0     H82306  -0.565   2.481   9.937  0.2041  0.0237  0.4682
  610MOL0     H82307  -0.408   2.426   9.869  0.6755  0.5238 -1.3411
  610MOL0     H82308  -0.616   2.398   9.721  1.6013  0.6140 -1.5346
  610MOL0     H82309  -0.495   2.488   9.641  0.0296 -1.2046  0.0071
  610MOL0     H82310  -0.800   2.761   9.858  2.1935  0.2538 -1.8419
  610MOL0     H82311  -1.004   2.883   9.896 -0.1925  0.9492 -0.3631
  610MOL0     H82312  -1.157   2.829   9.837  0.3100  0.7195 -0.5858
  610MOL0     H82313  -1.086   2.744   9.972  4.9199 -0.0226  0.6705
  610MOL0     H82314  -1.318   2.423   9.384 -1.3938  0.5846 -0.5958
  610MOL0     H82315  -1.547   2.402   9.310 -0.3294 -3.8951  0.5705
  610MOL0     H82316  -1.788   2.409   9.293 -2.6712 -0.1150  0.6095
  610MOL0     H82317  -1.726   2.246   9.337  1.6693  1.0450  0.6333
  610MOL0     H82318  -1.992   2.345   9.439  1.5937 -2.4634  2.0270
  610MOL0     H82319  -1.981   2.295   9.270  1.1965 -0.2368 -0.9296
  610MOL0     H82320  -1.891   2.141   9.533 -1.5001 -0.3240 -0.3515
  610MOL0     H82321  -1.867   2.082   9.362  1.2228 -0.0919  0.2780
  610MOL0     H82322  -2.069   2.016   9.538 -0.2584 -0.2198  0.3217
  610MOL0     H82323  -2.142   2.153   9.476 -1.1879 -3.1505  3.4685
  610MOL0     H82324  -2.018   1.956   9.284  0.6648  2.5539 -0.9866
  610MOL0     H82325  -2.151   2.068   9.253  3.1679  0.9852 -1.6214
  610MOL0     H82326  -2.201   1.801   9.390  0.3670 -0.2721 -0.5163
  610MOL0     H82327  -2.303   1.946   9.400 -1.9972 -0.9537 -1.6260
  610MOL0     H82328  -2.316   1.751   9.213  1.4293 -0.2184 -2.6112
  610MOL0     H82329  -2.207   1.844   9.120  1.2235 -0.7334  0.3596
  610MOL0     H82330  -2.413   1.888   9.042  2.0195 -0.3694 -0.1963
  610MOL0     H82331  -2.381   2.033   9.144 -0.3568  0.3696  3.0605
  610MOL0     H82332  -1.677   2.416   9.724  1.5025 -1.8620  1.6054
  610MOL0     H82333  -1.455   2.446   9.799 -4.3600  4.1992 -0.0691
  610MOL0     H82334  -1.003   2.432   9.556  2.1641  1.1582 -2.5185
  610MOL0     H82335  -0.776   2.427   9.596 -0.0465 -0.3772  0.4048
  610MOL0     H82336   0.994   2.311  10.390 -0.9887  0.4245 -1.7180
  610MOL0     H82337   1.266   2.332  10.418  0.0612  1.3630  0.5022
  610MOL0     H82338   1.676   2.545  10.495 -1.4621  0.3900 -2.6094
  610MOL0     H82339   1.915   2.486  10.515 -0.5353 -2.1055  1.6278
  610MOL0     H82340   2.158   2.463  10.395 -1.2059 -0.8965 -1.0595
  610MOL0     H82341   2.112   2.405  10.562 -2.0063  1.2027 -0.5651
  610MOL0     H82342   2.320   2.266  10.401 -1.0815 -1.6940  0.5279
  610MOL0     H82343   2.263   2.217  10.560  1.6057 -2.6135 -2.5185
  610MOL0     H82344   2.356   2.385  10.658  2.3846 -0.5557  0.6062
  610MOL0     H82345   2.363   2.490  10.520 -0.6049 -0.6589 -2.4952
  610MOL0     H82346   2.564   2.357  10.434 -1.4043  1.0211  0.1420
  610MOL0     H82347   2.539   2.239  10.557 -0.0150  0.1061 -0.8273
  610MOL0     H82348   2.708   2.534  10.799 -2.1737  3.4546 -0.3121
  610MOL0     H82349   1.876   2.186  10.223 -0.0460  1.9456 -2.1839
  610MOL0     H82350   1.641   2.242  10.182 -0.4375  1.2367 -1.2974
  611MOL0     O82351   6.428   1.203   6.776  0.4406 -1.1662  0.0261
  611MOL0     C82352   6.452   1.255   6.666 -0.0825 -0.0792 -0.0563
  611MOL0     O82353   6.378   1.252   6.548 -0.8556 -0.4125 -0.8755
  611MOL0     C82354   6.269   1.176   6.542 -0.3000  0.3801  0.1034
  611MOL0     C82355   6.154   1.211   6.598 -0.3255  0.3779  0.2956
  611MOL0     C82356   6.047   1.125   6.617  0.1274 -0.5295 -0.7120
  611MOL0     C82357   6.052   1.003   6.545  0.4484  0.4727 -0.1521
  611MOL0     O82358   5.947   0.911   6.534  0.4362 -0.0269 -0.8045
  611MOL0     C82359   5.836   0.919   6.622  0.3585  0.7345 -0.0355
  611MOL0     C82360   5.753   0.790   6.633 -0.1770  1.0119  0.4152
  611MOL0     C82361   5.646   0.813   6.737  0.2872 -0.1190 -0.1881
  611MOL0     C82362   5.556   0.690   6.782  1.0527  0.2827  0.9840
  611MOL0     C82363   5.454   0.744   6.876 -0.2301 -0.5719 -0.0570
  611MOL0     C82364   5.336   0.658   6.904 -0.1226 -0.9713 -0.8714
  611MOL0     C82365   5.370   0.507   6.898  0.0106 -0.1672  0.3335
  611MOL0     C82366   5.258   0.416   6.960 -0.3382  0.3506  0.8244
  611MOL0     N82367   5.193   0.468   7.084 -0.2684  0.1514 -0.5844
  611MOL0     C82368   5.231   0.439   7.214  0.7408  0.0106 -0.4495
  611MOL0     C82369   5.143   0.508   7.293  0.7078 -0.3479  0.8025
  611MOL0     C82370   5.136   0.533   7.442  0.2608 -0.6714  1.1349
  611MOL0     C82371   5.073   0.400   7.502  0.5324  0.5568 -0.2934
  611MOL0     C82372   5.078   0.407   7.662  0.3240  0.0501  0.4555
  611MOL0     C82373   5.007   0.532   7.719 -0.2561  0.2646 -0.2838
  611MOL0     O82374   4.993   0.509   7.865 -0.1710  0.1605 -0.4668
  611MOL0     C82375   4.907   0.585   7.937  0.4883  0.8165  0.1468
  611MOL0     C82376   4.829   0.695   7.891 -0.7584  0.2174  0.4929
  611MOL0     C82377   4.726   0.752   7.968 -0.0959  0.0885  0.2502
  611MOL0     C82378   4.644   0.857   7.891  0.0326 -0.3098  0.0672
  611MOL0     C82379   4.700   0.714   8.102 -0.6832 -0.0091  0.1990
  611MOL0     C82380   4.599   0.780   8.186  0.0755  0.1981 -0.4050
  611MOL0     O82381   4.475   0.783   8.129  0.1959  0.1331  0.4730
  611MOL0     C82382   4.371   0.844   8.194 -0.7686 -1.1181  1.0979
  611MOL0     C82383   4.255   0.779   8.246  0.5970 -0.3947 -0.1115
  611MOL0     C82384   4.159   0.859   8.308  0.9844  0.0455  0.2083
  611MOL0     C82385   4.172   1.003   8.315 -0.7914 -0.0609  0.2905
  611MOL0     O82386   4.089   1.082   8.386 -0.0993 -0.1442 -0.3869
  611MOL0     C82387   4.029   1.031   8.510 -0.4466  0.4131  0.2411
  611MOL0     C82388   3.976   1.154   8.573  0.4203 -0.0893 -0.3109
  611MOL0     C82389   3.842   1.201   8.514  1.2076 -0.9730 -0.0525
  611MOL0     C82390   3.787   1.326   8.578  0.4597 -0.0625 -0.1986
  611MOL0     C82391   3.673   1.378   8.489  0.0841  0.7840 -0.4992
  611MOL0     C82392   3.617   1.488   8.580  0.2016 -1.1089  0.2919
  611MOL0     C82393   3.518   1.576   8.507  1.3040  0.0863  0.1892
  611MOL0     C82394   3.457   1.669   8.619 -0.3809 -0.0796  0.0540
  611MOL0    Cl82395   3.360   1.572   8.734 -0.2653 -0.1023 -0.2496
  611MOL0     C82396   4.287   1.066   8.268 -0.1426  0.6968 -0.6352
  611MOL0     C82397   4.382   0.990   8.204  0.1104  0.4788  0.4273
  611MOL0     O82398   4.623   0.789   8.308  0.2324  0.4157  0.5720
  611MOL0     C82399   4.789   0.618   8.153 -0.1650  0.0796  0.6444
  611MOL0     C82400   4.889   0.556   8.073 -0.1828 -0.0949 -0.4026
  611MOL0     N82401   5.047   0.566   7.208  0.3996 -0.1513 -0.4498
  611MOL0     N82402   5.082   0.546   7.088  0.4251 -0.0792  0.2691
  611MOL0     C82403   6.167   0.977   6.467 -0.0173 -0.2296  0.5484
  611MOL0     C82404   6.280   1.063   6.468  0.2800  0.4076 -0.6383
  611MOL0     C82405   6.592   1.322   6.662 -0.3317  0.1052 -0.5996
  611MOL0     C82406   6.661   1.351   6.780  0.5046 -0.2976  0.3458
  611MOL0     C82407   6.793   1.400   6.774  0.2186 -0.2623 -0.4600
  611MOL0     C82408   6.852   1.423   6.653  0.4569 -0.0180  0.1360
  611MOL0     O82409   6.974   1.479   6.644  0.5657 -0.3543 -0.3724
  611MOL0     C82410   7.062   1.474   6.763 -0.4745 -0.2491  0.8853
  611MOL0     C82411   7.193   1.537   6.727 -0.2033 -0.7018  0.1993
  611MOL0     C82412   7.169   1.690   6.703 -0.1777 -0.9367  0.9993
  611MOL0     C82413   7.264   1.749   6.590  0.3814 -0.8087  0.3884
  611MOL0     C82414   7.399   1.741   6.632  0.4909 -0.9002  0.8144
  611MOL0     C82415   7.520   1.740   6.648  0.8269  0.7226  0.6868
  611MOL0     C82416   6.782   1.401   6.532  0.3887  0.2270 -0.6722
  611MOL0     C82417   6.650   1.355   6.538 -0.9899  0.4055 -0.1627
  611MOL0     H82418   6.148   1.302   6.656 -0.6246 -0.5902  1.8467
  611MOL0     H82419   5.964   1.170   6.672 -1.1958 -2.6209 -0.9105
  611MOL0     H82420   5.862   0.946   6.725 -1.0558 -1.2932  0.9163
  611MOL0     H82421   5.758   0.990   6.594 -0.8926 -0.4236  0.3756
  611MOL0     H82422   5.705   0.769   6.537  1.8833  2.6809 -1.0697
  611MOL0     H82423   5.804   0.697   6.659 -1.7665 -0.4414 -1.3682
  611MOL0     H82424   5.694   0.858   6.824 -0.6974  0.7928 -0.0927
  611MOL0     H82425   5.581   0.894   6.702 -2.6720 -2.2819 -0.0409
  611MOL0     H82426   5.515   0.649   6.690  3.0949 -0.3750  0.3190
  611MOL0     H82427   5.623   0.614   6.823  3.1886  1.8940  0.6687
  611MOL0     H82428   5.498   0.746   6.976 -1.0695 -1.6938  0.3575
  611MOL0     H82429   5.417   0.842   6.844  0.4983 -0.1619  0.3519
  611MOL0     H82430   5.306   0.679   7.007 -1.8250  0.7741 -1.6628
  611MOL0     H82431   5.255   0.683   6.835  0.4772  0.6133 -1.0488
  611MOL0     H82432   5.382   0.467   6.797 -1.1829 -0.2411  0.2041
  611MOL0     H82433   5.465   0.481   6.945 -0.8119 -1.8729  1.1586
  611MOL0     H82434   5.297   0.318   6.988  0.1971 -0.2041 -1.6616
  611MOL0     H82435   5.183   0.382   6.888  0.8282  1.0042 -0.7368
  611MOL0     H82436   5.324   0.393   7.247  0.7705  1.1713  1.2136
  611MOL0     H82437   5.237   0.557   7.476  2.4080 -2.8635 -2.9846
  611MOL0     H82438   5.073   0.619   7.470  0.1416 -0.4081  0.1142
  611MOL0     H82439   5.131   0.315   7.464  0.4747 -0.1871  1.1898
  611MOL0     H82440   4.972   0.396   7.462  0.0282  4.2670  0.2882
  611MOL0     H82441   5.185   0.402   7.686  0.1524  1.8135  1.8197
  611MOL0     H82442   5.029   0.324   7.714  0.5096 -2.3284 -2.8600
  611MOL0     H82443   4.906   0.538   7.676  0.0378 -0.0880 -1.0596
  611MOL0     H82444   5.071   0.619   7.701  2.1413 -1.0205  1.4578
  611MOL0     H82445   4.835   0.727   7.787 -1.0104  1.9003  0.9722
  611MOL0     H82446   4.698   0.898   7.805  1.2655 -1.0435  0.4621
  611MOL0     H82447   4.554   0.806   7.858 -2.3136  1.0817  3.6172
  611MOL0     H82448   4.613   0.935   7.962 -1.4210  0.5422 -1.4165
  611MOL0     H82449   4.242   0.672   8.236 -1.9890 -0.1291 -0.2471
  611MOL0     H82450   4.083   0.805   8.364  1.3640 -0.5652  0.1475
  611MOL0     H82451   3.952   0.955   8.497 -0.4817  0.7992 -2.2037
  611MOL0     H82452   4.116   1.005   8.572  1.2413  1.0004 -1.7670
  611MOL0     H82453   3.949   1.129   8.676 -1.6099  0.0167 -0.7675
  611MOL0     H82454   4.043   1.240   8.583 -0.1093  0.0370  4.5401
  611MOL0     H82455   3.768   1.121   8.523 -0.6670  0.7490  0.3103
  611MOL0     H82456   3.852   1.216   8.406  0.3915 -2.9838 -0.4561
  611MOL0     H82457   3.746   1.304   8.678  0.2068 -0.0251 -0.2928
  611MOL0     H82458   3.875   1.391   8.578  1.8774 -1.7740 -3.3109
  611MOL0     H82459   3.590   1.309   8.472 -0.3244  1.2297 -0.3276
  611MOL0     H82460   3.719   1.407   8.394  1.3206 -1.3849 -0.6445
  611MOL0     H82461   3.575   1.432   8.663 -1.0893 -1.5047 -0.5905
  611MOL0     H82462   3.697   1.553   8.617 -2.7234  3.1616 -0.2203
  611MOL0     H82463   3.432   1.518   8.470  1.1314 -1.1237  2.2996
  611MOL0     H82464   3.559   1.645   8.432 -2.2282  1.4756 -0.6551
  611MOL0     H82465   3.391   1.744   8.574 -1.1896 -1.2271 -0.7599
  611MOL0     H82466   3.536   1.724   8.670 -0.5692 -0.0868  0.3542
  611MOL0     H82467   4.295   1.174   8.281  0.9941  0.5693 -0.1663
  611MOL0     H82468   4.474   1.040   8.174 -1.2060  1.8688 -1.5257
  611MOL0     H82469   4.789   0.593   8.259  0.6950 -0.4331  0.5320
  611MOL0     H82470   4.964   0.485   8.106  1.4023  1.3716 -0.7341
  611MOL0     H82471   6.169   0.889   6.403 -1.6385  0.5042 -0.5758
  611MOL0     H82472   6.375   1.044   6.420 -0.2804  0.5380 -1.8335
  611MOL0     H82473   6.617   1.320   6.874 -0.6411 -1.3038 -0.4962
  611MOL0     H82474   6.837   1.407   6.873  0.2453 -2.1625 -0.3002
  611MOL0     H82475   7.026   1.550   6.833 -1.9266  1.6970 -1.7832
  611MOL0     H82476   7.058   1.375   6.807 -2.3375 -0.1507  0.9942
  611MOL0     H82477   7.237   1.487   6.641  2.4297  0.1722  0.9180
  611MOL0     H82478   7.263   1.537   6.811 -0.1167 -0.5204  0.1286
  611MOL0     H82479   7.178   1.751   6.793 -0.7540  0.2398  0.2794
  611MOL0     H82480   7.065   1.713   6.681 -0.1577  1.6722  3.1816
  611MOL0     H82481   7.245   1.855   6.572  2.1334 -0.2291  1.6763
  611MOL0     H82482   7.250   1.704   6.492  1.5469 -1.6787  0.6017
  611MOL0     H82483   7.625   1.735   6.668  1.0330 -0.0759 -0.4958
  611MOL0     H82484   6.831   1.434   6.441  0.3581  1.5886 -0.2201
  611MOL0     H82485   6.600   1.330   6.444 -1.3786 -3.5815  0.9358
  612MOL0     O82486   2.232   8.286   4.555 -0.9337  0.0596 -0.5629
  612MOL0     C82487   2.223   8.239   4.438 -0.0623 -0.9278  0.4381
  612MOL0     O82488   2.117   8.232   4.355 -0.1988 -0.3421  0.1940
  612MOL0     C82489   1.986   8.250   4.391  0.8305 -0.3119 -0.1900
  612MOL0     C82490   1.894   8.187   4.308  0.8938 -0.2762  0.3062
  612MOL0     C82491   1.760   8.181   4.354 -0.6581 -0.4447  0.1046
  612MOL0     C82492   1.714   8.242   4.476  0.2787 -0.0265  1.0003
  612MOL0     O82493   1.585   8.213   4.516  0.6153  0.1666 -0.0842
  612MOL0     C82494   1.536   8.294   4.626 -0.6776 -0.6525  0.3364
  612MOL0     C82495   1.385   8.298   4.638  0.4594  0.5308 -0.1149
  612MOL0     C82496   1.306   8.370   4.533  1.2038 -0.1189 -0.0545
  612MOL0     C82497   1.154   8.355   4.559  0.1254  0.0911 -0.7633
  612MOL0     C82498   1.083   8.413   4.436  0.9006 -0.2581  0.3575
  612MOL0     C82499   1.110   8.561   4.411 -0.0712  0.6900  0.7686
  612MOL0     C82500   1.028   8.648   4.318  0.4858  0.0779  0.3959
  612MOL0     C82501   0.892   8.672   4.375  0.9317  1.0145  0.6898
  612MOL0     N82502   0.785   8.689   4.271 -0.7552  0.0201  0.2330
  612MOL0     C82503   0.795   8.792   4.185 -0.7476  0.7379  0.3409
  612MOL0     C82504   0.699   8.760   4.093  0.1013  0.2392  0.4041
  612MOL0     C82505   0.639   8.835   3.972 -0.7449 -0.4575 -0.3081
  612MOL0     C82506   0.636   8.983   4.007  0.3455 -0.3342 -0.3803
  612MOL0     C82507   0.543   9.061   3.917  0.3786  0.4288  0.2817
  612MOL0     C82508   0.393   9.037   3.941 -0.0497  0.4188 -0.3744
  612MOL0     O82509   0.358   9.066   4.078 -0.3841  0.3173  0.2032
  612MOL0     C82510   0.227   9.060   4.117 -0.9387 -1.0267  0.0830
  612MOL0     C82511   0.197   9.115   4.242 -0.4607  0.1773  0.4038
  612MOL0     C82512   0.074   9.093   4.303  0.1204 -0.4545  0.0330
  612MOL0     C82513   0.067   9.149   4.445 -0.2916  0.6477  0.1621
  612MOL0     C82514  -0.032   9.031   4.223 -0.0883 -0.9058  0.1643
  612MOL0     C82515  -0.161   9.008   4.276  0.4896  0.4746 -0.0775
  612MOL0     O82516  -0.263   9.046   4.184 -0.7158  1.1331  0.1528
  612MOL0     C82517  -0.399   9.029   4.209  0.1119  0.1546 -0.2262
  612MOL0     C82518  -0.459   8.949   4.309 -0.5803  1.5797 -0.4982
  612MOL0     C82519  -0.595   8.938   4.323  0.2736 -1.0930 -0.6377
  612MOL0     C82520  -0.676   9.015   4.235  0.7463  0.0146 -0.5395
  612MOL0     O82521  -0.818   9.030   4.235  0.4604 -0.6110 -0.1336
  612MOL0     C82522  -0.890   8.941   4.317  0.0889  0.1183  0.1437
  612MOL0     C82523  -1.035   8.982   4.340 -0.2218 -0.1548  0.2476
  612MOL0     C82524  -1.119   8.966   4.206  0.1996 -0.1369  0.0145
  612MOL0     C82525  -1.270   8.993   4.235  0.1474  0.1718 -0.4795
  612MOL0     C82526  -1.339   9.085   4.134  0.1203 -0.4096  0.1777
  612MOL0     C82527  -1.337   9.015   3.990 -0.9087 -1.0341  0.4172
  612MOL0     C82528  -1.462   8.917   3.967 -0.2149  0.6291  0.2484
  612MOL0     C82529  -1.520   8.914   3.822  1.2293  0.1949  0.2283
  612MOL0    Cl82530  -1.410   8.823   3.706  0.3671 -0.0523 -0.1520
  612MOL0     C82531  -0.618   9.090   4.135  0.2912 -0.2733 -0.2254
  612MOL0     C82532  -0.480   9.105   4.125  0.3797  0.7746  0.3891
  612MOL0     O82533  -0.182   8.981   4.398  0.4520 -0.1898  0.2399
  612MOL0     C82534   0.002   8.983   4.101  0.0582  0.7887  0.6165
  612MOL0     C82535   0.129   8.990   4.046 -0.2232  0.4354 -0.7798
  612MOL0     N82536   0.636   8.638   4.129  0.1712 -0.5371 -0.3312
  612MOL0     N82537   0.688   8.599   4.236 -0.7362  1.0610  0.2414
  612MOL0     C82538   1.815   8.301   4.553 -0.2493 -0.2867 -0.2791
  612MOL0     C82539   1.940   8.316   4.508  0.2821 -0.4796 -0.0540
  612MOL0     C82540   2.338   8.172   4.390  0.1279 -0.1686  0.7933
  612MOL0     C82541   2.467   8.225   4.408 -0.1828 -0.3417  0.5619
  612MOL0     C82542   2.574   8.161   4.344 -0.4121  1.1244  0.6777
  612MOL0     C82543   2.565   8.052   4.269  0.2317 -0.3411 -0.3159
  612MOL0     O82544   2.688   8.011   4.215  0.4628  0.0618 -0.2524
  612MOL0     C82545   2.704   7.870   4.184  0.0365 -0.9174 -0.5531
  612MOL0     C82546   2.705   7.788   4.316  0.3719 -0.5804  0.0588
  612MOL0     C82547   2.811   7.833   4.416  0.3669  0.3446  0.0863
  612MOL0     C82548   2.952   7.802   4.361 -0.4504 -0.3942  0.1017
  612MOL0     C82549   2.970   7.659   4.319 -0.9843 -0.2915 -0.5870
  612MOL0     C82550   2.993   7.541   4.295 -0.8352  0.4692  0.1010
  612MOL0     C82551   2.435   7.998   4.251 -0.5258  1.2131 -0.2233
  612MOL0     C82552   2.326   8.050   4.318  0.8072 -0.4588 -0.5581
  612MOL0     H82553   1.910   8.144   4.210 -3.1659 -0.3720 -0.4909
  612MOL0     H82554   1.694   8.147   4.275  1.4408 -0.3491 -1.7863
  612MOL0     H82555   1.585   8.256   4.716  0.1452  0.2333  0.2852
  612MOL0     H82556   1.581   8.393   4.617  0.4058 -1.0523  1.1551
  612MOL0     H82557   1.343   8.197   4.640 -1.5098  1.2490 -1.7588
  612MOL0     H82558   1.359   8.348   4.731 -1.7812  1.1286 -0.9948
  612MOL0     H82559   1.336   8.474   4.527  5.4644 -0.8601  3.1785
  612MOL0     H82560   1.328   8.312   4.443 -3.1580 -0.9576 -0.8472
  612MOL0     H82561   1.123   8.251   4.573  1.8935 -0.3252  0.2647
  612MOL0     H82562   1.121   8.398   4.654 -1.5004 -1.5507 -0.5384
  612MOL0     H82563   1.123   8.363   4.347  1.4318 -1.9365  1.5035
  612MOL0     H82564   0.976   8.396   4.451  0.9662 -0.5984  0.4543
  612MOL0     H82565   1.109   8.615   4.507  0.2432  1.5894  0.2743
  612MOL0     H82566   1.213   8.574   4.379 -0.4965  0.9814 -0.5400
  612MOL0     H82567   1.082   8.742   4.307  1.4595 -0.2637  1.9687
  612MOL0     H82568   0.999   8.595   4.226 -2.7868  1.9497  0.2196
  612MOL0     H82569   0.878   8.763   4.434  1.2392  1.6266 -0.1547
  612MOL0     H82570   0.870   8.591   4.445  0.2396  1.3568  0.8823
  612MOL0     H82571   0.864   8.874   4.200 -1.0109  1.4923 -2.0851
  612MOL0     H82572   0.688   8.808   3.878 -1.6572 -1.9661 -0.3833
  612MOL0     H82573   0.534   8.807   3.957 -0.8825  0.4640 -1.1935
  612MOL0     H82574   0.740   9.015   3.993 -0.1364  0.8564 -1.4071
  612MOL0     H82575   0.607   8.998   4.111 -3.6269 -2.6487 -0.9658
  612MOL0     H82576   0.567   9.034   3.813  0.7741 -0.0883  0.5045
  612MOL0     H82577   0.562   9.166   3.941  1.5589  0.9239 -2.4363
  612MOL0     H82578   0.356   8.941   3.902  1.9496 -0.9251  0.8318
  612MOL0     H82579   0.340   9.108   3.878 -0.5845  1.1891  0.9227
  612MOL0     H82580   0.282   9.163   4.291  2.3812 -3.9778  0.0391
  612MOL0     H82581   0.154   9.213   4.465 -0.7963  1.3653  0.0995
  612MOL0     H82582  -0.029   9.200   4.459 -0.5770  0.7702 -1.9027
  612MOL0     H82583   0.063   9.064   4.513 -0.7699 -0.4762 -1.2218
  612MOL0     H82584  -0.394   8.903   4.383 -1.4563 -0.8994 -1.1836
  612MOL0     H82585  -0.639   8.875   4.399  0.6230 -0.0732  0.4477
  612MOL0     H82586  -0.887   8.839   4.278  1.6840  0.4087 -0.5887
  612MOL0     H82587  -0.844   8.947   4.415 -0.8511  2.0565  0.5186
  612MOL0     H82588  -1.086   8.943   4.428 -0.8383  2.5427  1.1655
  612MOL0     H82589  -1.029   9.091   4.351 -1.3444  0.2082 -1.9835
  612MOL0     H82590  -1.118   8.860   4.178  2.9575  0.0908 -1.0108
  612MOL0     H82591  -1.074   9.028   4.128  1.4371 -3.1624 -1.8432
  612MOL0     H82592  -1.311   8.892   4.243  1.5808 -0.3601  0.3821
  612MOL0     H82593  -1.285   9.034   4.335  2.6944  0.6433 -0.2253
  612MOL0     H82594  -1.287   9.181   4.131  0.3964 -0.5603 -2.4347
  612MOL0     H82595  -1.438   9.111   4.171  0.8287 -1.4474  3.0502
  612MOL0     H82596  -1.354   9.104   3.928 -0.1526  1.7829  3.9097
  612MOL0     H82597  -1.239   8.970   3.974 -0.3330  0.0348  0.8262
  612MOL0     H82598  -1.554   8.942   4.021  0.6352  2.8675  0.7761
  612MOL0     H82599  -1.427   8.816   3.990  0.6335  0.9168  0.2429
  612MOL0     H82600  -1.532   9.018   3.790  2.7287  0.5998  0.9173
  612MOL0     H82601  -1.619   8.867   3.829  1.7794 -0.8970  0.9797
  612MOL0     H82602  -0.674   9.158   4.072 -0.0168  1.5843  1.9323
  612MOL0     H82603  -0.437   9.167   4.047 -1.9691  2.1553  0.1061
  612MOL0     H82604  -0.074   8.940   4.037 -1.2834  1.9896  1.3625
  612MOL0     H82605   0.145   8.942   3.950  1.8692  0.5812 -0.5541
  612MOL0     H82606   1.797   8.333   4.655 -0.2737 -0.8709 -0.0934
  612MOL0     H82607   2.012   8.383   4.553  2.1130 -1.3604 -1.5113
  612MOL0     H82608   2.474   8.321   4.458  1.1623 -1.2542  2.2148
  612MOL0     H82609   2.671   8.207   4.361 -0.5250  1.4892  0.3658
  612MOL0     H82610   2.622   7.839   4.119 -0.2426 -0.3067 -0.4940
  612MOL0     H82611   2.802   7.853   4.136  0.5182  0.8239 -0.2356
  612MOL0     H82612   2.723   7.683   4.293  0.9391 -0.5129  0.1698
  612MOL0     H82613   2.606   7.803   4.361 -0.3490 -1.8482 -1.0530
  612MOL0     H82614   2.816   7.766   4.503  1.5839 -0.9197 -0.9074
  612MOL0     H82615   2.792   7.937   4.442 -0.5448  0.7817 -2.1381
  612MOL0     H82616   3.022   7.822   4.443 -1.7477  0.5484  1.0189
  612MOL0     H82617   2.982   7.873   4.283  0.2157  3.7991  3.7730
  612MOL0     H82618   3.013   7.437   4.276  0.4757 -0.1521  3.8948
  612MOL0     H82619   2.419   7.901   4.206  0.6986  0.2217  1.3925
  612MOL0     H82620   2.229   8.002   4.319  0.8400 -0.5390  0.4221
  613MOL0     O82621   7.277   0.171   7.820 -0.4588  0.1474  0.5637
  613MOL0     C82622   7.375   0.186   7.894 -0.2257 -0.3384 -0.1737
  613MOL0     O82623   7.368   0.190   8.036 -0.2938 -0.0809 -0.3315
  613MOL0     C82624   7.249   0.173   8.094 -0.7432 -0.2377 -0.0560
  613MOL0     C82625   7.155   0.271   8.094  0.1464 -0.6869  0.1180
  613MOL0     C82626   7.031   0.256   8.159  0.0701 -0.4631 -0.6888
  613MOL0     C82627   7.007   0.138   8.223 -1.3365  0.0862  0.6624
  613MOL0     O82628   6.891   0.129   8.292 -0.6354 -0.3690 -0.2916
  613MOL0     C82629   6.787   0.038   8.255 -0.2092 -0.2150 -0.2542
  613MOL0     C82630   6.664   0.079   8.334  0.3102 -0.2208  0.4832
  613MOL0     C82631   6.548  -0.003   8.264  1.1960  0.1464 -0.4406
  613MOL0     C82632   6.425  -0.002   8.356  0.9951  0.8943  0.3042
  613MOL0     C82633   6.296  -0.054   8.294  0.1406 -0.1288  1.0579
  613MOL0     C82634   6.189  -0.071   8.396  0.9203  0.0006 -0.2407
  613MOL0     C82635   6.055  -0.121   8.332 -0.3009 -0.4133 -0.2566
  613MOL0     C82636   5.957  -0.165   8.438 -0.1675  0.4280  0.2411
  613MOL0     N82637   5.833  -0.228   8.381 -0.0422 -0.0001  0.3881
  613MOL0     C82638   5.755  -0.188   8.276 -0.3182 -0.2559 -0.5666
  613MOL0     C82639   5.699  -0.302   8.234  0.6939 -0.6995 -0.2472
  613MOL0     C82640   5.590  -0.303   8.122 -0.7621  0.2115 -0.0616
  613MOL0     C82641   5.475  -0.208   8.145  0.2583  0.0047 -0.6374
  613MOL0     C82642   5.375  -0.227   8.026 -0.3091  0.1941 -0.4985
  613MOL0     C82643   5.219  -0.214   8.053 -0.4430 -0.7296  0.0671
  613MOL0     O82644   5.193  -0.084   8.104 -0.4043  0.1031 -0.0662
  613MOL0     C82645   5.059  -0.050   8.121 -0.1902 -1.1770 -0.6707
  613MOL0     C82646   4.949  -0.132   8.095  0.2531  0.2662  1.1963
  613MOL0     C82647   4.819  -0.083   8.079 -0.5104 -0.4659  0.0382
  613MOL0     C82648   4.735  -0.195   8.021  0.4602  0.1702 -0.2368
  613MOL0     C82649   4.788   0.050   8.109  0.1603  0.5945 -0.6467
  613MOL0     C82650   4.660   0.108   8.093  0.8842 -0.9862 -0.5835
  613MOL0     O82651   4.629   0.225   8.164  0.3408  0.1250  0.9071
  613MOL0     C82652   4.500   0.269   8.158 -0.1481  0.3676  0.2419
  613MOL0     C82653   4.481   0.396   8.097 -0.6762 -0.4206 -0.2915
  613MOL0     C82654   4.353   0.458   8.104 -0.6198 -0.0523 -0.8224
  613MOL0     C82655   4.250   0.396   8.172  0.5879 -0.2289  0.1168
  613MOL0     O82656   4.138   0.471   8.177 -0.0496  0.1308  0.2157
  613MOL0     C82657   4.011   0.403   8.186 -0.3029 -0.1267  0.3631
  613MOL0     C82658   3.900   0.514   8.172 -0.1467 -0.0650 -0.3414
  613MOL0     C82659   3.871   0.556   8.030 -0.1503 -0.5327  0.0476
  613MOL0     C82660   3.770   0.672   8.028  0.1124  0.6307 -0.5342
  613MOL0     C82661   3.749   0.719   7.888 -0.0658 -0.2471  0.1961
  613MOL0     C82662   3.803   0.866   7.871 -0.2120  1.2354 -0.4551
  613MOL0     C82663   3.771   0.912   7.725 -0.0329  0.7287 -0.3826
  613MOL0     C82664   3.619   0.920   7.703  0.4084  0.0474  0.4386
  613MOL0    Cl82665   3.568   1.011   7.551 -0.0520 -0.0551 -0.1711
  613MOL0     C82666   4.269   0.268   8.231  0.0561 -0.2434 -0.1724
  613MOL0     C82667   4.394   0.209   8.223 -1.0639  0.8620 -0.4368
  613MOL0     O82668   4.582   0.055   8.014 -0.0582 -0.2992 -0.1920
  613MOL0     C82669   4.895   0.131   8.164  0.6798  0.9969 -0.1586
  613MOL0     C82670   5.029   0.079   8.162 -0.5613  0.6615  0.9971
  613MOL0     N82671   5.727  -0.400   8.324  0.4769 -0.1127  0.0051
  613MOL0     N82672   5.812  -0.355   8.411  0.0306  0.0957  0.5058
  613MOL0     C82673   7.096   0.036   8.208 -0.3394 -0.3998 -0.5256
  613MOL0     C82674   7.225   0.058   8.157 -0.2478  0.3370  0.5794
  613MOL0     C82675   7.503   0.199   7.831  0.4253 -0.4262  0.6563
  613MOL0     C82676   7.510   0.199   7.691  0.7026 -0.4798  0.0732
  613MOL0     C82677   7.634   0.211   7.630  0.1065  0.3258 -0.6295
  613MOL0     C82678   7.758   0.212   7.703  0.1249  0.1754 -0.5429
  613MOL0     O82679   7.875   0.199   7.632  0.1844  0.4516  0.7418
  613MOL0     C82680   7.992   0.175   7.705 -0.5057 -0.0604 -0.8051
  613MOL0     C82681   8.103   0.128   7.613 -0.1435  0.3720 -1.0159
  613MOL0     C82682   8.164   0.253   7.541  0.6459  0.2046 -0.4934
  613MOL0     C82683   8.294   0.220   7.469 -0.7443 -0.2900 -0.1821
  613MOL0     C82684   8.258   0.154   7.344 -0.5076  1.3456  0.2168
  613MOL0     C82685   8.228   0.094   7.240 -0.1851 -0.0758  0.3446
  613MOL0     C82686   7.746   0.208   7.839  0.1271 -0.7599 -0.1689
  613MOL0     C82687   7.622   0.214   7.904  0.3379  0.2543 -0.1103
  613MOL0     H82688   7.181   0.371   8.062  0.1001 -0.0723  1.8791
  613MOL0     H82689   6.952   0.330   8.159 -0.6661 -1.2169 -1.4414
  613MOL0     H82690   6.773   0.045   8.147  2.0739  0.1094 -0.5858
  613MOL0     H82691   6.811  -0.063   8.290 -0.5747 -0.1354  0.2492
  613MOL0     H82692   6.665   0.043   8.437 -0.9120 -3.4619 -0.5151
  613MOL0     H82693   6.650   0.188   8.327 -1.4741 -0.3925  0.9470
  613MOL0     H82694   6.514   0.037   8.168 -0.0232 -3.2416 -1.5738
  613MOL0     H82695   6.578  -0.108   8.252 -0.4124 -0.3911  0.0119
  613MOL0     H82696   6.454  -0.056   8.447  0.6563  0.4689  0.1647
  613MOL0     H82697   6.391   0.094   8.395 -0.4068 -0.0673  1.5499
  613MOL0     H82698   6.264   0.008   8.209 -1.4983 -1.8900  0.3279
  613MOL0     H82699   6.311  -0.155   8.255 -0.7797  0.8724 -2.2222
  613MOL0     H82700   6.222  -0.142   8.473  1.4754 -0.1767 -0.6424
  613MOL0     H82701   6.178   0.024   8.450 -0.5842  0.3785 -1.1483
  613MOL0     H82702   6.007  -0.033   8.287 -1.4417 -0.2233  1.2558
  613MOL0     H82703   6.068  -0.203   8.260 -0.4100 -0.6086 -0.0527
  613MOL0     H82704   5.927  -0.073   8.491  0.5144  0.1090  1.1970
  613MOL0     H82705   6.004  -0.235   8.507 -1.8326  0.3569  1.3602
  613MOL0     H82706   5.743  -0.085   8.243 -1.4390  0.9419  3.0818
  613MOL0     H82707   5.634  -0.294   8.023 -2.5822 -0.6656 -0.9928
  613MOL0     H82708   5.558  -0.408   8.119 -3.6833  0.9757  0.7720
  613MOL0     H82709   5.504  -0.103   8.142 -0.3930  0.1897 -0.6594
  613MOL0     H82710   5.427  -0.213   8.244 -0.1189 -0.9261 -0.8554
  613MOL0     H82711   5.389  -0.324   7.977  0.0294  0.9974 -2.0295
  613MOL0     H82712   5.400  -0.156   7.947  1.3806 -0.5025 -0.6443
  613MOL0     H82713   5.183  -0.285   8.127 -1.6748 -0.4998 -0.2996
  613MOL0     H82714   5.176  -0.223   7.953  0.8765 -0.0926 -0.5889
  613MOL0     H82715   4.973  -0.233   8.064 -1.7656  0.8165 -2.6671
  613MOL0     H82716   4.641  -0.171   7.970  0.5399  1.5688  0.2233
  613MOL0     H82717   4.799  -0.239   7.944  3.2458  1.2652  1.2880
  613MOL0     H82718   4.709  -0.274   8.092  2.2321 -1.3266 -1.1668
  613MOL0     H82719   4.562   0.451   8.048  0.2912 -1.1408  0.4618
  613MOL0     H82720   4.341   0.561   8.071  0.6191  0.1676 -0.6595
  613MOL0     H82721   3.998   0.324   8.111  1.1829  0.2843 -0.3779
  613MOL0     H82722   3.998   0.354   8.283  0.7829  0.1971  0.6918
  613MOL0     H82723   3.805   0.495   8.223 -0.1625  1.8525  0.4268
  613MOL0     H82724   3.945   0.603   8.218  0.9506 -0.8223  0.0806
  613MOL0     H82725   3.832   0.468   7.977 -0.7240 -0.8445  0.9569
  613MOL0     H82726   3.961   0.596   7.984  0.4145 -0.2002  1.4011
  613MOL0     H82727   3.674   0.642   8.071  0.0979 -0.4843 -1.2847
  613MOL0     H82728   3.815   0.743   8.097  0.6744  0.8747 -1.1365
  613MOL0     H82729   3.640   0.710   7.878 -0.1225 -0.5368  0.9499
  613MOL0     H82730   3.786   0.650   7.811 -2.1014 -0.8253 -0.3483
  613MOL0     H82731   3.747   0.932   7.938 -0.7605 -0.8523  1.2434
  613MOL0     H82732   3.909   0.876   7.897 -0.2089  1.3418 -0.5044
  613MOL0     H82733   3.822   0.868   7.639  1.9363  0.2215  0.9614
  613MOL0     H82734   3.808   1.015   7.720 -2.9188  1.8945  0.2898
  613MOL0     H82735   3.572   0.969   7.789 -1.5561 -1.4054  0.2415
  613MOL0     H82736   3.576   0.820   7.697 -0.5604  0.4886 -0.2599
  613MOL0     H82737   4.192   0.221   8.291  0.1695 -0.6905 -0.3720
  613MOL0     H82738   4.415   0.113   8.269  1.3010  2.3111  1.8194
  613MOL0     H82739   4.876   0.225   8.215 -1.1521  0.4534  0.2468
  613MOL0     H82740   5.119   0.138   8.180 -0.2375  1.0674 -1.5766
  613MOL0     H82741   7.079  -0.057   8.261 -0.1732 -0.5061 -0.6589
  613MOL0     H82742   7.294  -0.026   8.153 -0.9453 -0.2345  0.4719
  613MOL0     H82743   7.418   0.198   7.633 -0.6209  1.0276  1.9780
  613MOL0     H82744   7.647   0.213   7.522 -0.0472  0.6398 -0.6429
  613MOL0     H82745   8.032   0.263   7.757  1.4630 -1.8848  0.9906
  613MOL0     H82746   7.985   0.098   7.782  1.7579 -1.3678 -1.7919
  613MOL0     H82747   8.068   0.045   7.552 -3.1323 -0.4105  1.5351
  613MOL0     H82748   8.183   0.080   7.670 -3.1098  0.0693  3.3832
  613MOL0     H82749   8.182   0.326   7.621 -2.1064  1.2704 -0.7260
  613MOL0     H82750   8.089   0.307   7.482  0.6516 -1.0773 -1.7376
  613MOL0     H82751   8.352   0.160   7.539 -0.8351 -0.0755  0.0781
  613MOL0     H82752   8.335   0.318   7.440  0.9255 -0.9871 -0.2793
  613MOL0     H82753   8.210   0.061   7.139 -0.5269  1.7742 -0.2428
  613MOL0     H82754   7.840   0.218   7.892  2.0355 -2.0104 -3.1081
  613MOL0     H82755   7.608   0.214   8.012 -1.3970  1.6493 -0.2849
  614MOL0     O82756   0.797   9.364   3.144 -0.2522 -0.1304  0.0070
  614MOL0     C82757   0.692   9.426   3.169  0.1328  1.0691  0.0935
  614MOL0     O82758   0.661   9.560   3.139 -0.6933  0.0383 -0.8941
  614MOL0     C82759   0.757   9.639   3.076 -0.0797 -0.4373  0.1868
  614MOL0     C82760   0.745   9.776   3.098 -0.8372 -0.0949 -0.0980
  614MOL0     C82761   0.818   9.875   3.023 -0.3184  0.8462 -0.0055
  614MOL0     C82762   0.917   9.830   2.933 -0.1839 -0.7614  0.7630
  614MOL0     O82763   0.985   9.910   2.847 -0.3406 -1.0488 -0.0025
  614MOL0     C82764   1.001  10.049   2.876  0.6943  0.3310 -0.3305
  614MOL0     C82765   1.114  10.103   2.777  0.4193  0.3236 -0.1229
  614MOL0     C82766   1.220   9.997   2.743  1.2074  0.0493  0.4523
  614MOL0     C82767   1.309   9.944   2.854  0.3322  0.0642 -0.5010
  614MOL0     C82768   1.424   9.860   2.788  0.5408 -0.6768 -0.0977
  614MOL0     C82769   1.475   9.751   2.865  0.3187 -0.3046 -2.0790
  614MOL0     C82770   1.593   9.699   2.786  0.1615  0.4333  0.2669
  614MOL0     C82771   1.635   9.570   2.844  0.2123 -0.1740  0.5532
  614MOL0     N82772   1.538   9.469   2.871  0.2529  0.5164 -0.2649
  614MOL0     C82773   1.446   9.419   2.782 -0.1447 -0.7565  0.3681
  614MOL0     C82774   1.365   9.345   2.854  0.2829 -0.9268  0.5418
  614MOL0     C82775   1.259   9.256   2.803  1.1040  1.0958 -0.6086
  614MOL0     C82776   1.119   9.328   2.816 -0.2327  0.1553  0.0479
  614MOL0     C82777   1.013   9.244   2.734  0.5987 -0.4740 -0.1302
  614MOL0     C82778   0.969   9.122   2.826  0.7879  0.1592  0.0778
  614MOL0     O82779   0.861   9.056   2.760 -0.2515 -0.9971  0.3913
  614MOL0     C82780   0.744   9.127   2.761  0.0644 -0.0325  0.5980
  614MOL0     C82781   0.678   9.133   2.642 -0.3915 -0.2574  0.2376
  614MOL0     C82782   0.547   9.192   2.627  0.1836 -0.2306  0.0736
  614MOL0     C82783   0.482   9.204   2.495  0.5205 -0.1367  0.4991
  614MOL0     C82784   0.482   9.233   2.749 -0.0973  0.9402 -0.3582
  614MOL0     C82785   0.345   9.301   2.762  0.1605  0.5493  1.0029
  614MOL0     O82786   0.315   9.360   2.878  0.1034  1.0326 -0.8644
  614MOL0     C82787   0.187   9.406   2.904 -0.4239  0.3465 -0.1013
  614MOL0     C82788   0.173   9.542   2.936 -0.0690  0.7162 -0.6514
  614MOL0     C82789   0.050   9.603   2.963  0.1460  0.6102 -0.4211
  614MOL0     C82790  -0.069   9.529   2.974  0.2698  0.5987  0.6575
  614MOL0     O82791  -0.183   9.597   3.009 -0.5989 -0.0202  0.1816
  614MOL0     C82792  -0.301   9.520   3.025  0.3443 -0.4213  0.6591
  614MOL0     C82793  -0.326   9.496   3.176 -0.2912  0.3545  0.2803
  614MOL0     C82794  -0.212   9.433   3.248 -0.0947 -0.7053  0.4921
  614MOL0     C82795  -0.238   9.450   3.401  0.0930 -0.2032  0.1117
  614MOL0     C82796  -0.109   9.407   3.476 -0.2786  0.1235  0.3736
  614MOL0     C82797  -0.008   9.518   3.499 -0.8230 -0.3194 -0.3683
  614MOL0     C82798   0.137   9.479   3.541 -0.7789 -0.7652 -0.1305
  614MOL0     C82799   0.158   9.443   3.691  0.5614 -0.5203  0.3701
  614MOL0    Cl82800   0.324   9.390   3.728 -0.2914 -0.2768  0.3033
  614MOL0     C82801  -0.058   9.385   2.949 -0.7734 -0.6899  0.0061
  614MOL0     C82802   0.074   9.322   2.921  0.3524  0.2054  0.6154
  614MOL0     O82803   0.271   9.303   2.665 -0.1924  0.2110 -0.0856
  614MOL0     C82804   0.558   9.230   2.874  0.4393 -0.6767  0.7399
  614MOL0     C82805   0.685   9.177   2.872  1.2834 -0.5457 -0.3979
  614MOL0     N82806   1.392   9.357   2.994 -0.4896 -0.1366  0.1535
  614MOL0     N82807   1.495   9.438   2.995 -0.0915 -0.5038 -0.0708
  614MOL0     C82808   0.944   9.694   2.921  0.7691  0.2745 -0.9562
  614MOL0     C82809   0.859   9.601   2.987 -0.4583  0.5464 -0.5619
  614MOL0     C82810   0.593   9.344   3.242 -0.4186 -0.3355  0.5822
  614MOL0     C82811   0.625   9.243   3.342  0.3069  0.7742 -0.3231
  614MOL0     C82812   0.519   9.175   3.407 -0.2942  0.2936  0.1308
  614MOL0     C82813   0.384   9.189   3.371 -0.3033  0.2615  0.0910
  614MOL0     O82814   0.291   9.115   3.432 -0.2023 -0.0003 -0.3190
  614MOL0     C82815   0.319   9.027   3.538  0.6172  0.7824  0.3539
  614MOL0     C82816   0.190   8.948   3.558  0.7512 -0.3486 -0.3521
  614MOL0     C82817   0.073   9.036   3.602  0.4883 -0.6662  0.9418
  614MOL0     C82818  -0.039   8.954   3.676  1.3783 -0.1783  0.6397
  614MOL0     C82819  -0.152   9.046   3.710 -0.4100  0.2496  0.1190
  614MOL0     C82820  -0.232   9.124   3.741 -0.5178 -0.4035 -0.3116
  614MOL0     C82821   0.350   9.280   3.269 -0.1188  0.4328 -0.6148
  614MOL0     C82822   0.451   9.357   3.205  0.4023 -0.3459  0.1304
  614MOL0     H82823   0.675   9.812   3.173  1.0269  2.0044  0.7756
  614MOL0     H82824   0.793   9.980   3.033 -0.6950  0.7358  0.2198
  614MOL0     H82825   0.911  10.109   2.861  2.1906  3.1886  1.3582
  614MOL0     H82826   1.027  10.063   2.981 -1.3830  6.4083 -0.2220
  614MOL0     H82827   1.068  10.139   2.685 -0.9797 -0.5684  0.1964
  614MOL0     H82828   1.161  10.191   2.821  1.6364 -0.4303  0.1145
  614MOL0     H82829   1.171   9.912   2.695 -0.1614 -0.5652  2.7743
  614MOL0     H82830   1.289  10.045   2.674 -0.6547 -2.1502 -3.2684
  614MOL0     H82831   1.348  10.025   2.917  1.9062 -0.2541 -1.0028
  614MOL0     H82832   1.254   9.873   2.916  1.2903  0.7643  1.2255
  614MOL0     H82833   1.382   9.815   2.697 -5.0120  2.0077  0.6821
  614MOL0     H82834   1.508   9.919   2.751  0.4510  0.3049  1.2013
  614MOL0     H82835   1.519   9.780   2.961 -1.7463 -3.0312 -0.1394
  614MOL0     H82836   1.392   9.682   2.885  0.8948 -0.4767 -0.0578
  614MOL0     H82837   1.556   9.676   2.686  1.2095 -1.5031  0.2788
  614MOL0     H82838   1.679   9.766   2.785  0.5025 -0.0014  0.2166
  614MOL0     H82839   1.687   9.586   2.940 -0.2076 -1.1947  0.9626
  614MOL0     H82840   1.714   9.540   2.775  1.1518  2.1632  0.5169
  614MOL0     H82841   1.450   9.417   2.673 -0.2003  0.6465  0.3146
  614MOL0     H82842   1.284   9.231   2.700 -0.1563 -1.0893 -0.4323
  614MOL0     H82843   1.258   9.164   2.862  2.5057  1.8049  0.6014
  614MOL0     H82844   1.123   9.434   2.791  4.0267  0.0259 -0.5819
  614MOL0     H82845   1.093   9.320   2.922  1.8984  0.4369  0.6523
  614MOL0     H82846   1.041   9.209   2.634 -0.4419  2.7223 -1.6734
  614MOL0     H82847   0.930   9.312   2.711  0.2783 -1.1188 -0.9286
  614MOL0     H82848   0.947   9.146   2.930  0.3165 -1.4658  0.3851
  614MOL0     H82849   1.046   9.045   2.834  0.7437  0.2930  2.5266
  614MOL0     H82850   0.735   9.096   2.557 -1.5884  0.1872 -0.7852
  614MOL0     H82851   0.402   9.130   2.482  0.0765  0.4636 -0.3356
  614MOL0     H82852   0.430   9.298   2.472 -0.0578 -0.7582 -0.8670
  614MOL0     H82853   0.554   9.195   2.413 -2.6955 -2.5076 -2.3586
  614MOL0     H82854   0.270   9.591   2.934 -0.1307  1.0152  1.2562
  614MOL0     H82855   0.053   9.708   2.988  3.1718  0.9441 -1.6724
  614MOL0     H82856  -0.381   9.576   2.975 -0.8068 -1.3460  1.4096
  614MOL0     H82857  -0.301   9.424   2.972  1.4759 -1.4616  2.4533
  614MOL0     H82858  -0.347   9.588   3.232 -2.3391 -0.7041  1.3849
  614MOL0     H82859  -0.413   9.431   3.188 -1.3171  0.7108 -3.6835
  614MOL0     H82860  -0.122   9.493   3.234 -1.6636  1.4883 -0.6888
  614MOL0     H82861  -0.199   9.328   3.218  1.1849 -0.1320 -1.0928
  614MOL0     H82862  -0.276   9.548   3.432 -3.4717 -0.0167 -3.9985
  614MOL0     H82863  -0.321   9.387   3.434 -0.8150  0.1474 -1.4222
  614MOL0     H82864  -0.064   9.322   3.424 -0.0338  0.1468  0.5447
  614MOL0     H82865  -0.144   9.368   3.572 -0.6365  0.4127  0.3637
  614MOL0     H82866  -0.003   9.572   3.404  1.1426 -0.6968 -0.5040
  614MOL0     H82867  -0.057   9.588   3.568  0.6892  0.9147 -0.4961
  614MOL0     H82868   0.200   9.563   3.512 -0.5557 -0.9754 -0.2569
  614MOL0     H82869   0.170   9.388   3.490 -1.2742 -1.1019  0.1331
  614MOL0     H82870   0.087   9.362   3.713  1.3176 -1.6405 -1.1433
  614MOL0     H82871   0.140   9.532   3.753  0.5140 -0.0586 -0.2949
  614MOL0     H82872  -0.142   9.321   2.972 -0.5848 -1.5161 -1.4698
  614MOL0     H82873   0.073   9.214   2.908 -0.3643  0.3222 -0.4299
  614MOL0     H82874   0.521   9.278   2.964 -2.5624 -0.5699 -0.4507
  614MOL0     H82875   0.725   9.174   2.972 -1.8800 -2.1642  0.9345
  614MOL0     H82876   1.007   9.662   2.839  3.0352  4.8471 -1.2933
  614MOL0     H82877   0.879   9.497   2.964 -1.0823  0.9279 -3.0628
  614MOL0     H82878   0.724   9.218   3.381 -1.0780 -3.2735  1.0974
  614MOL0     H82879   0.548   9.115   3.492 -1.3445  0.9208  0.9595
  614MOL0     H82880   0.397   8.957   3.506 -0.6317 -0.3395 -0.3447
  614MOL0     H82881   0.343   9.078   3.632 -0.1955  0.2329  0.8766
  614MOL0     H82882   0.203   8.865   3.628 -1.5886 -0.3272  0.1793
  614MOL0     H82883   0.166   8.893   3.466  0.8524 -0.4680 -0.3089
  614MOL0     H82884   0.032   9.086   3.514 -1.0950 -0.0973  1.9480
  614MOL0     H82885   0.102   9.115   3.671 -0.1915 -1.5648  2.3101
  614MOL0     H82886   0.005   8.888   3.751  2.9942 -1.2728 -1.1699
  614MOL0     H82887  -0.084   8.882   3.606 -2.1885  1.3896  1.1129
  614MOL0     H82888  -0.319   9.187   3.752 -0.6439 -0.6543  0.1346
  614MOL0     H82889   0.243   9.292   3.254 -0.0112  0.6698 -1.2154
  614MOL0     H82890   0.423   9.427   3.128 -0.4752 -2.1446 -1.2775
  615MOL0     O82891   5.748   4.750   5.014  0.3208  0.1105 -0.1786
  615MOL0     C82892   5.808   4.751   4.904 -0.4535  0.0955 -1.1319
  615MOL0     O82893   5.749   4.724   4.783  0.0499  0.3204  0.1082
  615MOL0     C82894   5.619   4.680   4.793  0.3651  0.6979  0.1677
  615MOL0     C82895   5.580   4.572   4.702  0.0135 -0.8301 -0.2239
  615MOL0     C82896   5.445   4.533   4.693 -0.7008  0.9603 -0.5220
  615MOL0     C82897   5.338   4.589   4.772 -0.3617 -0.2867 -0.2641
  615MOL0     O82898   5.209   4.527   4.761  0.4732 -0.1296  0.2822
  615MOL0     C82899   5.093   4.599   4.806 -0.2385 -0.1988  0.8674
  615MOL0     C82900   4.973   4.512   4.775  0.3371 -0.4621 -0.3717
  615MOL0     C82901   4.837   4.590   4.799  0.1901  0.4652 -0.2937
  615MOL0     C82902   4.727   4.497   4.746 -0.1919  0.4348 -0.1557
  615MOL0     C82903   4.610   4.591   4.718  0.6261 -0.0599  0.6194
  615MOL0     C82904   4.483   4.525   4.671 -0.2811 -0.0013 -0.1900
  615MOL0     C82905   4.365   4.618   4.632  0.1373 -0.3840  0.1025
  615MOL0     C82906   4.234   4.537   4.615  0.0659  0.1784  0.1022
  615MOL0     N82907   4.119   4.627   4.611 -0.8479 -0.2385 -0.2790
  615MOL0     C82908   4.050   4.682   4.709 -0.0035 -0.7453  0.2084
  615MOL0     C82909   3.962   4.767   4.648  0.1941 -0.2674  0.2070
  615MOL0     C82910   3.871   4.853   4.726  0.5565  0.0171  0.3351
  615MOL0     C82911   3.924   4.996   4.709 -0.4008  0.5611  0.5757
  615MOL0     C82912   3.864   5.095   4.812  0.0801 -0.0616  0.0836
  615MOL0     C82913   3.711   5.118   4.801  0.5430  0.0874  0.3602
  615MOL0     O82914   3.643   4.998   4.850 -0.0391  0.8751 -0.6719
  615MOL0     C82915   3.506   4.987   4.864  0.0634  0.1816  0.4494
  615MOL0     C82916   3.453   4.873   4.922  0.4147 -0.0919  0.4253
  615MOL0     C82917   3.320   4.837   4.912  0.3570 -0.5429 -0.5302
  615MOL0     C82918   3.294   4.687   4.941  0.6647 -0.4641 -1.1225
  615MOL0     C82919   3.223   4.943   4.894  1.2451  0.6402 -1.3221
  615MOL0     C82920   3.075   4.936   4.910  0.1996 -0.5401 -0.7817
  615MOL0     O82921   2.994   5.027   4.836  0.0846 -0.1038  0.2246
  615MOL0     C82922   2.860   5.002   4.817 -0.0546 -0.2096  0.7429
  615MOL0     C82923   2.819   4.871   4.793  0.2232 -0.6070  0.4213
  615MOL0     C82924   2.680   4.850   4.770 -0.4200 -0.3014 -0.3733
  615MOL0     C82925   2.585   4.954   4.769  0.2893  0.0925 -0.1658
  615MOL0     O82926   2.450   4.936   4.758  0.1714  0.0690  0.9728
  615MOL0     C82927   2.397   4.801   4.738 -0.3970 -0.5088  0.8363
  615MOL0     C82928   2.246   4.813   4.737 -0.3418 -0.3834  0.2252
  615MOL0     C82929   2.175   4.691   4.692 -0.0780  0.8123  0.2847
  615MOL0     C82930   2.016   4.713   4.707 -0.1194 -0.7511  0.2161
  615MOL0     C82931   1.939   4.597   4.646  0.4859 -0.8737 -0.5409
  615MOL0     C82932   1.792   4.628   4.671  0.3429 -0.9418  0.4159
  615MOL0     C82933   1.716   4.542   4.578 -0.6885  1.1039  0.3643
  615MOL0     C82934   1.577   4.517   4.641  0.5859 -0.7158  0.4992
  615MOL0    Cl82935   1.481   4.663   4.658  0.7967 -0.5388  0.5084
  615MOL0     C82936   2.628   5.084   4.795 -0.5060 -0.2950  0.1997
  615MOL0     C82937   2.766   5.104   4.813  0.1567  0.0407  0.4324
  615MOL0     O82938   3.027   4.860   5.001  0.1382  0.4917 -0.0008
  615MOL0     C82939   3.277   5.065   4.850  0.0370 -0.6513 -0.5198
  615MOL0     C82940   3.412   5.083   4.816  0.8346  0.5331 -0.1019
  615MOL0     N82941   3.974   4.752   4.519  0.6727 -0.1739 -0.3911
  615MOL0     N82942   4.074   4.677   4.495  0.2491  0.6078 -0.2223
  615MOL0     C82943   5.373   4.696   4.861 -0.0920  0.3014 -0.1192
  615MOL0     C82944   5.508   4.737   4.871 -0.6405  0.3422 -0.0258
  615MOL0     C82945   5.957   4.772   4.905  0.4401  0.4597  1.4515
  615MOL0     C82946   6.022   4.829   5.014  0.6042 -0.0029  0.2921
  615MOL0     C82947   6.162   4.848   5.003  0.0339  0.3075 -0.0593
  615MOL0     C82948   6.242   4.812   4.886 -0.3181  0.5775 -0.0436
  615MOL0     O82949   6.381   4.823   4.866  0.7618  0.1118 -0.1989
  615MOL0     C82950   6.451   4.857   4.985 -0.6376  0.3310  0.9193
  615MOL0     C82951   6.596   4.815   4.974 -0.5884  0.5152  0.0589
  615MOL0     C82952   6.606   4.662   4.965 -0.3152  0.0136 -0.3870
  615MOL0     C82953   6.748   4.604   4.979  0.3535  0.1576 -1.0144
  615MOL0     C82954   6.808   4.608   5.120 -0.4713 -0.5895 -0.3132
  615MOL0     C82955   6.846   4.601   5.231  0.3236 -0.6053 -0.4401
  615MOL0     C82956   6.173   4.777   4.778  0.3770  0.0526  0.7091
  615MOL0     C82957   6.037   4.740   4.790  0.5454 -0.4270  0.5826
  615MOL0     H82958   5.642   4.516   4.632 -1.9739 -2.1026 -1.0653
  615MOL0     H82959   5.417   4.448   4.631 -0.4943 -2.2225  3.3178
  615MOL0     H82960   5.100   4.622   4.912  1.6816  0.6631  0.5952
  615MOL0     H82961   5.087   4.696   4.756 -0.9532  0.4205  2.1243
  615MOL0     H82962   4.984   4.481   4.671  0.6503 -1.0574 -0.1654
  615MOL0     H82963   4.973   4.426   4.843 -1.8323 -1.3311 -1.4068
  615MOL0     H82964   4.812   4.593   4.906 -0.8417  2.3216 -0.5394
  615MOL0     H82965   4.835   4.692   4.761  1.6804  1.3856  1.9142
  615MOL0     H82966   4.764   4.445   4.657 -0.5200 -0.3429  0.1507
  615MOL0     H82967   4.705   4.426   4.826 -3.0568  2.1818  0.7630
  615MOL0     H82968   4.585   4.665   4.795 -1.6003  0.7091 -0.7489
  615MOL0     H82969   4.649   4.653   4.637 -2.4716  0.6251 -0.4754
  615MOL0     H82970   4.517   4.457   4.592  3.1664 -0.8166  1.7891
  615MOL0     H82971   4.449   4.474   4.762 -0.6901 -0.6559 -0.6990
  615MOL0     H82972   4.349   4.707   4.694  1.6082  0.0091 -0.0330
  615MOL0     H82973   4.389   4.655   4.531  0.0775 -0.7265 -0.0358
  615MOL0     H82974   4.224   4.467   4.699  0.2764 -0.3823 -0.3358
  615MOL0     H82975   4.240   4.474   4.526  2.8047  2.3250 -1.3676
  615MOL0     H82976   4.074   4.673   4.815  2.6675  0.7623 -0.1661
  615MOL0     H82977   3.771   4.844   4.681  0.6627 -1.4972  0.3520
  615MOL0     H82978   3.862   4.832   4.833 -1.9670 -1.7139 -0.1109
  615MOL0     H82979   3.903   5.027   4.606 -0.3648 -1.6265 -0.1507
  615MOL0     H82980   4.033   4.998   4.710 -0.3832  1.8381 -0.7515
  615MOL0     H82981   3.916   5.190   4.798 -1.2836  0.8891  1.1574
  615MOL0     H82982   3.881   5.054   4.912  1.8380  0.9598  0.2351
  615MOL0     H82983   3.695   5.137   4.695  0.7991  0.2109  0.3426
  615MOL0     H82984   3.679   5.210   4.851  0.3078  0.1927  0.0167
  615MOL0     H82985   3.539   4.810   4.944  2.5748  2.6731  0.3933
  615MOL0     H82986   3.381   4.624   4.918  0.3609 -1.4568  0.3540
  615MOL0     H82987   3.270   4.676   5.046 -1.5926 -0.1524 -1.5588
  615MOL0     H82988   3.205   4.654   4.887  0.1159 -0.1846 -0.3937
  615MOL0     H82989   2.891   4.789   4.790  1.3911  0.3997 -1.2395
  615MOL0     H82990   2.660   4.748   4.738  2.0135 -0.2812 -2.2413
  615MOL0     H82991   2.433   4.770   4.639 -0.5149  4.8387 -1.1826
  615MOL0     H82992   2.445   4.730   4.805 -1.0076 -0.4343  1.3607
  615MOL0     H82993   2.216   4.830   4.841 -0.7614 -3.7334  0.7656
  615MOL0     H82994   2.216   4.901   4.680  2.0450  1.6745  1.9190
  615MOL0     H82995   2.215   4.607   4.749  0.4938 -0.6930 -2.1926
  615MOL0     H82996   2.193   4.671   4.586  0.3687  0.4971  0.4206
  615MOL0     H82997   1.983   4.735   4.809 -1.9691  0.4941 -0.6174
  615MOL0     H82998   1.991   4.808   4.659 -0.9072 -1.3251 -0.5357
  615MOL0     H82999   1.953   4.493   4.677  1.7249 -0.2340  1.2031
  615MOL0     H83000   1.959   4.609   4.539 -1.5679  2.7355 -0.6783
  615MOL0     H83001   1.757   4.616   4.773 -1.1015 -1.0716 -0.0708
  615MOL0     H83002   1.775   4.735   4.655  0.1348 -1.0131  0.1405
  615MOL0     H83003   1.754   4.440   4.570 -3.5466 -0.2225  2.0836
  615MOL0     H83004   1.696   4.584   4.479  0.1829 -2.2419 -1.3732
  615MOL0     H83005   1.579   4.470   4.740  0.1751 -0.4312  0.6428
  615MOL0     H83006   1.520   4.446   4.580 -0.1628 -0.0717  0.4381
  615MOL0     H83007   2.564   5.171   4.793 -0.3712 -0.1645  1.0488
  615MOL0     H83008   2.808   5.205   4.815 -0.4433  0.2991  0.1008
  615MOL0     H83009   3.217   5.156   4.847  0.5991 -0.2588 -0.2506
  615MOL0     H83010   3.439   5.180   4.777 -2.6348  3.0902  3.1662
  615MOL0     H83011   5.295   4.738   4.924 -1.2668 -2.0996  0.1631
  615MOL0     H83012   5.522   4.819   4.940 -1.1327 -0.7233  1.3850
  615MOL0     H83013   5.956   4.849   5.098 -1.0333  0.6042 -1.0862
  615MOL0     H83014   6.207   4.878   5.097 -0.5467  1.8056 -0.2382
  615MOL0     H83015   6.440   4.961   5.016  0.2212 -0.2736  3.4924
  615MOL0     H83016   6.409   4.806   5.072  3.2263  4.4213  5.7698
  615MOL0     H83017   6.670   4.857   5.043 -0.5828  1.3178 -0.4206
  615MOL0     H83018   6.639   4.843   4.877  0.4013 -0.8941  0.0563
  615MOL0     H83019   6.568   4.625   4.870 -1.8573 -0.7745  0.5050
  615MOL0     H83020   6.540   4.623   5.043  0.0795  1.7752  0.9005
  615MOL0     H83021   6.820   4.661   4.920  1.4459 -0.9669 -0.8047
  615MOL0     H83022   6.743   4.501   4.941 -0.6807  0.1944 -0.9998
  615MOL0     H83023   6.891   4.599   5.329  2.0436 -1.5532 -1.2110
  615MOL0     H83024   6.223   4.743   4.687 -0.9377  0.6415 -0.2760
  615MOL0     H83025   5.985   4.687   4.712 -1.7052  1.4597  0.7077
  616MOL0     O83026   4.155   6.883   8.769 -0.3350  0.4821 -0.1783
  616MOL0     C83027   4.196   6.785   8.721 -1.0711  0.9036  1.3844
  616MOL0     O83028   4.119   6.695   8.659  0.2683  0.4510 -0.2581
  616MOL0     C83029   3.982   6.707   8.678  0.3533 -0.0710 -1.2959
  616MOL0     C83030   3.889   6.717   8.571  0.2037  0.4394 -0.2106
  616MOL0     C83031   3.757   6.704   8.602  0.4041 -0.0588 -0.0945
  616MOL0     C83032   3.714   6.708   8.732 -0.2643 -0.0426  0.0508
  616MOL0     O83033   3.582   6.726   8.740  0.5561 -0.4188 -0.5899
  616MOL0     C83034   3.526   6.769   8.868  0.0373 -0.0109  0.1106
  616MOL0     C83035   3.378   6.764   8.851  0.0246 -0.9743  0.0699
  616MOL0     C83036   3.308   6.805   8.976 -0.0850  0.1124  0.2539
  616MOL0     C83037   3.350   6.940   9.033  0.5209 -0.3785 -0.9337
  616MOL0     C83038   3.242   6.996   9.116 -0.1942 -0.5905  0.1104
  616MOL0     C83039   3.117   7.056   9.056  0.4974  0.6987  0.7986
  616MOL0     C83040   3.146   7.166   8.958 -0.4109 -0.5057  0.2225
  616MOL0     C83041   3.244   7.274   8.991 -0.5008  0.0500  0.7876
  616MOL0     N83042   3.205   7.341   9.112  0.4668  0.5344 -0.1387
  616MOL0     C83043   3.287   7.406   9.197  0.3988 -0.2017  0.3517
  616MOL0     C83044   3.212   7.460   9.297 -0.3569 -0.9533 -0.7586
  616MOL0     C83045   3.266   7.538   9.416  0.2566  0.1881 -0.8491
  616MOL0     C83046   3.333   7.664   9.380 -0.2850 -0.0664  0.0752
  616MOL0     C83047   3.250   7.759   9.294  0.4072  0.3386  0.0471
  616MOL0     C83048   3.197   7.889   9.355 -0.0937  0.9835  0.3207
  616MOL0     O83049   3.103   7.851   9.452 -0.7776  0.2570 -0.0241
  616MOL0     C83050   2.970   7.863   9.428  0.2209  0.0252  0.9351
  616MOL0     C83051   2.883   7.752   9.392  0.3088  0.0543  0.0438
  616MOL0     C83052   2.744   7.760   9.374  0.6047  0.1073  0.7884
  616MOL0     C83053   2.670   7.635   9.341  0.5133  0.0865 -1.0007
  616MOL0     C83054   2.685   7.894   9.392  0.8744  0.3930 -0.1173
  616MOL0     C83055   2.547   7.927   9.364 -0.7838  0.4762  0.1781
  616MOL0     O83056   2.504   8.049   9.412  0.3243 -0.0449 -0.1501
  616MOL0     C83057   2.373   8.082   9.403 -0.0396  0.2979  0.2319
  616MOL0     C83058   2.344   8.222   9.393  0.3044 -0.0456  0.1225
  616MOL0     C83059   2.212   8.261   9.384 -0.2659  0.6315  0.9423
  616MOL0     C83060   2.105   8.171   9.391  1.6411  0.8936  0.6066
  616MOL0     O83061   1.981   8.223   9.374  0.2759  0.7968 -0.3587
  616MOL0     C83062   1.870   8.134   9.402  0.2490  0.1487 -1.1459
  616MOL0     C83063   1.747   8.201   9.365 -0.3802 -0.3944  0.1453
  616MOL0     C83064   1.627   8.121   9.413 -0.3556 -0.8617  0.6154
  616MOL0     C83065   1.499   8.194   9.383  0.3821 -0.0480  0.1515
  616MOL0     C83066   1.378   8.100   9.395 -0.0512  0.2825 -0.3572
  616MOL0     C83067   1.260   8.169   9.327 -0.4828  0.6738  0.5078
  616MOL0     C83068   1.155   8.072   9.290 -0.1033  0.2829  0.3961
  616MOL0     C83069   1.011   8.133   9.275  0.3397 -0.0662 -0.3324
  616MOL0    Cl83070   0.885   7.998   9.287  0.5072  0.0905  0.3586
  616MOL0     C83071   2.127   8.037   9.423 -0.6698  0.4902 -0.7144
  616MOL0     C83072   2.264   7.989   9.419 -0.1412  0.3463 -0.2234
  616MOL0     O83073   2.489   7.849   9.284  1.2721  0.4129 -0.3441
  616MOL0     C83074   2.772   8.006   9.408  0.7051  0.8563  0.5900
  616MOL0     C83075   2.910   7.990   9.429  1.2882 -0.4800 -0.7889
  616MOL0     N83076   3.083   7.428   9.265 -0.3417 -0.2417  0.7159
  616MOL0     N83077   3.073   7.368   9.147 -0.1100  0.2338  0.0573
  616MOL0     C83078   3.805   6.682   8.838  0.2464 -0.5613  0.9167
  616MOL0     C83079   3.937   6.683   8.807 -0.3484  0.1123 -0.1483
  616MOL0     C83080   4.353   6.768   8.711  0.1912 -0.4858  0.5284
  616MOL0     C83081   4.437   6.847   8.789  0.1828  0.4453 -0.6702
  616MOL0     C83082   4.577   6.830   8.775  0.0518  1.1254  0.4458
  616MOL0     C83083   4.630   6.734   8.695 -0.6491  0.2760  0.2920
  616MOL0     O83084   4.775   6.730   8.688 -0.1639 -0.1276  0.6205
  616MOL0     C83085   4.847   6.619   8.626  0.0041 -0.2224  0.7714
  616MOL0     C83086   4.836   6.502   8.729  0.5605  0.3693 -0.3866
  616MOL0     C83087   4.944   6.509   8.838 -0.8143 -0.5792 -0.5050
  616MOL0     C83088   5.090   6.495   8.776  0.7431 -0.6552  0.0371
  616MOL0     C83089   5.191   6.477   8.884  1.0380 -0.5127 -0.1873
  616MOL0     C83090   5.290   6.441   8.934 -0.2143 -0.1093 -0.8524
  616MOL0     C83091   4.547   6.646   8.622 -0.4833 -0.6690  0.3919
  616MOL0     C83092   4.410   6.673   8.626 -0.7549  0.1240  0.2669
  616MOL0     H83093   3.932   6.729   8.472  2.1593  1.0070  0.6583
  616MOL0     H83094   3.683   6.712   8.523 -0.9463  0.5123  1.1724
  616MOL0     H83095   3.567   6.701   8.943  1.2706 -0.6681 -1.1007
  616MOL0     H83096   3.552   6.873   8.889 -1.1262  0.3322 -0.0597
  616MOL0     H83097   3.358   6.835   8.770  1.5314 -1.8907 -1.1624
  616MOL0     H83098   3.354   6.669   8.801 -2.4001 -0.8322  0.8291
  616MOL0     H83099   3.202   6.813   8.949 -0.7329 -2.0535  1.9372
  616MOL0     H83100   3.341   6.734   9.051 -0.2267  2.7258  2.9765
  616MOL0     H83101   3.441   6.925   9.092 -0.8312 -1.2626  1.0126
  616MOL0     H83102   3.374   7.017   8.960 -0.3364 -0.0999 -0.9249
  616MOL0     H83103   3.197   6.919   9.179  0.1633 -1.0687 -0.2197
  616MOL0     H83104   3.290   7.071   9.180  1.9045 -1.7772  0.0084
  616MOL0     H83105   3.062   6.973   9.009  0.5682  0.2693  1.4661
  616MOL0     H83106   3.059   7.102   9.136 -0.3293 -0.2369  0.7631
  616MOL0     H83107   3.180   7.118   8.866 -1.3684 -1.0300  0.1427
  616MOL0     H83108   3.057   7.224   8.933  0.2318 -0.4638 -2.3266
  616MOL0     H83109   3.252   7.347   8.910 -1.0301  0.2534  0.9136
  616MOL0     H83110   3.343   7.228   8.995  0.1525  1.3595  0.2457
  616MOL0     H83111   3.393   7.428   9.186  0.2618  0.0687 -0.4841
  616MOL0     H83112   3.183   7.564   9.482  2.8613  0.4910  2.5863
  616MOL0     H83113   3.327   7.473   9.479  0.1497 -0.7913 -1.7347
  616MOL0     H83114   3.419   7.645   9.316 -0.4485 -0.5029 -0.0136
  616MOL0     H83115   3.367   7.721   9.467  1.1348  0.1584 -0.5996
  616MOL0     H83116   3.165   7.706   9.251  0.7494  1.3261 -1.9729
  616MOL0     H83117   3.312   7.792   9.211  1.4094 -2.3556 -0.3720
  616MOL0     H83118   3.148   7.947   9.276 -0.3060 -0.1081 -0.3713
  616MOL0     H83119   3.273   7.951   9.404  0.4082 -1.1891  2.4626
  616MOL0     H83120   2.931   7.659   9.363 -0.7239 -0.1956 -0.9711
  616MOL0     H83121   2.656   7.626   9.233  1.3937  0.9137 -1.2012
  616MOL0     H83122   2.726   7.546   9.372  1.1647  0.6607 -0.4978
  616MOL0     H83123   2.579   7.640   9.402  1.0511  1.6290 -0.2639
  616MOL0     H83124   2.425   8.291   9.410  0.7376 -0.7204  0.8741
  616MOL0     H83125   2.193   8.367   9.377 -3.2649  0.2023  1.3484
  616MOL0     H83126   1.876   8.042   9.343  0.3688  1.9027 -4.0545
  616MOL0     H83127   1.859   8.121   9.510  1.1707  0.9632 -0.9324
  616MOL0     H83128   1.751   8.305   9.401  1.5522 -0.3261 -0.1450
  616MOL0     H83129   1.742   8.205   9.256 -2.3328 -1.6464  0.1467
  616MOL0     H83130   1.636   8.081   9.515  0.8817 -0.8326  0.5316
  616MOL0     H83131   1.617   8.039   9.341 -1.6798 -0.4383  0.2891
  616MOL0     H83132   1.485   8.275   9.455  0.4617  0.0458  0.0617
  616MOL0     H83133   1.505   8.242   9.285  0.7838 -0.4259 -0.0098
  616MOL0     H83134   1.351   8.084   9.499 -1.7326 -2.4462 -1.1298
  616MOL0     H83135   1.396   7.999   9.357 -0.1782 -0.3626  1.2330
  616MOL0     H83136   1.221   8.235   9.405  0.9675 -0.3443  2.1809
  616MOL0     H83137   1.306   8.211   9.238  3.7832 -2.4127  0.9326
  616MOL0     H83138   1.145   7.993   9.365 -1.8631  0.8068  0.7759
  616MOL0     H83139   1.185   8.024   9.197  0.3352  0.9402  0.1873
  616MOL0     H83140   0.993   8.196   9.187 -1.3175  0.6633  0.4889
  616MOL0     H83141   0.989   8.194   9.363 -1.0117 -0.9014 -0.0672
  616MOL0     H83142   2.047   7.966   9.436 -0.6819  0.8034  1.2400
  616MOL0     H83143   2.282   7.885   9.443 -0.3164  0.5854  1.0007
  616MOL0     H83144   2.737   8.109   9.411 -1.2321  0.2990  4.5121
  616MOL0     H83145   2.969   8.078   9.453  1.6491 -0.8478 -0.3069
  616MOL0     H83146   3.772   6.678   8.941  0.5782  0.6591  1.0788
  616MOL0     H83147   4.010   6.698   8.886 -0.2628  1.4320 -0.4577
  616MOL0     H83148   4.385   6.913   8.858  0.9974  1.1569 -0.7294
  616MOL0     H83149   4.647   6.892   8.829  1.3878 -0.5380  0.7209
  616MOL0     H83150   4.809   6.590   8.528  1.2173 -1.8556  0.7343
  616MOL0     H83151   4.949   6.657   8.610 -0.5251  1.1552  0.5384
  616MOL0     H83152   4.845   6.410   8.670 -0.4937  0.7874 -1.2379
  616MOL0     H83153   4.735   6.510   8.770  0.8035 -1.8608  0.7654
  616MOL0     H83154   4.924   6.428   8.909 -3.9634  1.3403  1.0101
  616MOL0     H83155   4.939   6.608   8.885 -0.6556  0.9095 -3.3866
  616MOL0     H83156   5.108   6.581   8.711  0.2286 -1.2096 -0.8587
  616MOL0     H83157   5.084   6.406   8.712 -1.3735 -1.6223  1.4295
  616MOL0     H83158   5.376   6.404   8.985 -0.9137 -3.4366 -1.8755
  616MOL0     H83159   4.591   6.569   8.560  3.8866  2.5332 -0.9684
  616MOL0     H83160   4.352   6.614   8.555 -0.8921  0.2725  0.2535
  617MOL0     O83161   7.520  10.053   5.441  0.4852  0.2922  0.1753
  617MOL0     C83162   7.530  10.168   5.399  0.1969  0.8049 -0.8154
  617MOL0     O83163   7.428  10.243   5.351 -0.1194 -0.1467 -0.7450
  617MOL0     C83164   7.303  10.197   5.352 -0.1347  0.0035 -0.2317
  617MOL0     C83165   7.254  10.072   5.306 -1.1177 -0.1169 -0.3189
  617MOL0     C83166   7.117  10.046   5.304  0.3748  0.0010  0.8612
  617MOL0     C83167   7.021  10.145   5.349  0.0715  0.9170  0.4203
  617MOL0     O83168   6.886  10.120   5.367 -0.0397  0.4688  0.5485
  617MOL0     C83169   6.830   9.994   5.308 -0.0874 -0.3291  0.3431
  617MOL0     C83170   6.681   9.997   5.275 -0.0881 -0.5173 -0.4688
  617MOL0     C83171   6.661   9.992   5.121  0.2847  0.6865 -0.6459
  617MOL0     C83172   6.515  10.018   5.093  0.2377 -0.2854 -0.1172
  617MOL0     C83173   6.491  10.049   4.942 -0.3721 -0.2709 -1.2749
  617MOL0     C83174   6.370  10.140   4.928  0.4339 -0.0509  0.3191
  617MOL0     C83175   6.236  10.086   4.974  0.0710  0.5736 -0.3129
  617MOL0     C83176   6.123  10.175   4.918 -0.0578  0.6249  0.2122
  617MOL0     N83177   6.129  10.302   4.996  1.4013 -0.3153 -0.2102
  617MOL0     C83178   6.202  10.415   4.968  0.1569 -0.0160  0.2549
  617MOL0     C83179   6.174  10.501   5.067 -0.4437 -1.0147  0.1783
  617MOL0     C83180   6.222  10.652   5.066  0.5932  0.0457  0.3673
  617MOL0     C83181   6.095  10.742   5.021  0.6504 -0.6264 -0.5933
  617MOL0     C83182   6.025  10.806   5.136 -0.3015  0.0093 -0.9868
  617MOL0     C83183   5.889  10.868   5.097  0.2122  0.6453 -0.3961
  617MOL0     O83184   5.882  10.989   5.025  0.1719 -0.0808  0.1665
  617MOL0     C83185   5.760  11.036   4.988 -0.4107  0.0497  0.0779
  617MOL0     C83186   5.733  11.180   5.016  0.0773  0.1725  0.0909
  617MOL0     C83187   5.611  11.236   4.979  0.0638  0.7483  0.1234
  617MOL0     C83188   5.586  11.373   5.009 -0.0506 -0.2462 -0.3502
  617MOL0     C83189   5.518  11.158   4.892  0.3886 -0.1433 -0.7868
  617MOL0     C83190   5.385  11.203   4.856 -0.1090 -0.2360  0.2156
  617MOL0     O83191   5.301  11.273   4.946  0.1281 -0.1719  0.1890
  617MOL0     C83192   5.173  11.301   4.899  0.1939 -0.2714  0.1275
  617MOL0     C83193   5.069  11.209   4.922 -0.6935 -0.4543 -0.4137
  617MOL0     C83194   4.937  11.240   4.881  0.2774  0.6450  0.7160
  617MOL0     C83195   4.899  11.366   4.824  0.4798 -0.5820  0.1300
  617MOL0     O83196   4.774  11.399   4.780 -0.3322 -0.4361  0.2829
  617MOL0     C83197   4.663  11.344   4.852  0.3255 -0.0812 -1.1587
  617MOL0     C83198   4.541  11.445   4.850 -0.3599  0.5736 -0.3041
  617MOL0     C83199   4.441  11.420   4.969  0.2927  0.4904 -0.1672
  617MOL0     C83200   4.335  11.533   4.980 -0.5473  0.6885  0.5007
  617MOL0     C83201   4.243  11.493   5.098 -1.2311 -1.1812  0.1478
  617MOL0     C83202   4.121  11.583   5.102  0.5185  0.1315  0.0786
  617MOL0     C83203   4.032  11.551   5.220 -0.4041 -0.0558  0.1015
  617MOL0     C83204   3.886  11.589   5.199  1.1507 -0.0822 -0.0410
  617MOL0    Cl83205   3.871  11.771   5.192 -0.2252 -0.4362 -0.1801
  617MOL0     C83206   5.010  11.457   4.794 -0.2194 -0.4758 -0.3113
  617MOL0     C83207   5.139  11.428   4.843 -0.0053 -0.6973 -0.0875
  617MOL0     O83208   5.345  11.162   4.743 -0.5963 -0.6868 -0.5027
  617MOL0     C83209   5.562  11.028   4.850 -0.3913 -0.4761 -0.0083
  617MOL0     C83210   5.677  10.970   4.896 -0.2557  0.2873 -0.3908
  617MOL0     N83211   6.086  10.442   5.148  0.9542 -0.1472  0.2723
  617MOL0     N83212   6.059  10.321   5.116 -0.6456 -0.2389  0.6092
  617MOL0     C83213   7.078  10.273   5.372 -0.5807  0.4651  0.2058
  617MOL0     C83214   7.210  10.298   5.371  0.3820 -0.0142 -0.1683
  617MOL0     C83215   7.663  10.224   5.407  0.0498  0.4456 -0.3902
  617MOL0     C83216   7.765  10.170   5.490 -0.6574  0.7844 -0.0521
  617MOL0     C83217   7.895  10.214   5.479  0.1167 -0.4568 -0.0794
  617MOL0     C83218   7.924  10.327   5.396 -0.1049 -0.1629 -0.0220
  617MOL0     O83219   8.053  10.368   5.408 -0.1789 -0.0689  0.2791
  617MOL0     C83220   8.111  10.452   5.307  0.1388  0.3023 -0.0926
  617MOL0     C83221   8.258  10.457   5.314  0.5154 -0.8187  1.1000
  617MOL0     C83222   8.315  10.504   5.450 -0.4692 -0.2259 -0.5537
  617MOL0     C83223   8.471  10.480   5.475 -0.0005 -0.1453  0.5012
  617MOL0     C83224   8.563  10.528   5.367  0.4777 -0.1984 -0.1532
  617MOL0     C83225   8.619  10.590   5.278 -0.5152 -0.0102 -0.9607
  617MOL0     C83226   7.823  10.386   5.310  0.0147  0.2164  0.0158
  617MOL0     C83227   7.698  10.326   5.312  0.0524  0.0086 -0.4480
  617MOL0     H83228   7.328   9.997   5.279  0.7055  1.7422 -0.7259
  617MOL0     H83229   7.094   9.943   5.278 -0.0731  0.2266  0.3483
  617MOL0     H83230   6.882   9.963   5.217  0.7893 -2.9363  1.6359
  617MOL0     H83231   6.864   9.926   5.386  3.7988  1.1043  0.1536
  617MOL0     H83232   6.622   9.924   5.331 -2.6329  2.2291  0.6644
  617MOL0     H83233   6.642  10.093   5.311  0.3221  0.0385 -1.4693
  617MOL0     H83234   6.733  10.062   5.076  0.8025  0.8018  0.3192
  617MOL0     H83235   6.687   9.891   5.090 -1.1647 -0.9830  2.9731
  617MOL0     H83236   6.450   9.944   5.141 -2.2769  0.9660 -1.4036
  617MOL0     H83237   6.499  10.111   5.149  2.4631 -0.0306  0.1705
  617MOL0     H83238   6.574  10.102   4.895  0.5446  1.6213  2.1595
  617MOL0     H83239   6.478   9.953   4.891  0.5872 -1.4871  0.6463
  617MOL0     H83240   6.386  10.231   4.986 -2.9939  1.4168 -0.8044
  617MOL0     H83241   6.366  10.172   4.823  1.2941 -3.5337 -0.8983
  617MOL0     H83242   6.214   9.989   4.928 -1.7028 -0.6042  2.7485
  617MOL0     H83243   6.238  10.075   5.083  2.7080 -1.4114 -0.4458
  617MOL0     H83244   6.031  10.116   4.924  0.2337  0.3231  2.8975
  617MOL0     H83245   6.143  10.199   4.813  1.9125  0.9290  0.6144
  617MOL0     H83246   6.258  10.452   4.883  0.6486  1.2194  1.0773
  617MOL0     H83247   6.247  10.678   5.169 -1.2606  0.6603  0.6997
  617MOL0     H83248   6.303  10.674   4.996 -1.9563  3.7932 -1.7471
  617MOL0     H83249   6.025  10.676   4.968 -0.1298 -0.6959  0.4947
  617MOL0     H83250   6.120  10.827   4.956 -0.4404 -0.5498 -0.9294
  617MOL0     H83251   6.089  10.880   5.184 -1.5540  0.4578  0.0585
  617MOL0     H83252   5.992  10.724   5.200 -0.0571  1.3927  1.0022
  617MOL0     H83253   5.829  10.889   5.185 -1.9035  1.1776 -1.8993
  617MOL0     H83254   5.832  10.793   5.040 -0.4601  0.2053  0.8206
  617MOL0     H83255   5.800  11.237   5.080 -3.4560  1.1908  3.2379
  617MOL0     H83256   5.555  11.435   4.924  1.4981  1.7246  0.4449
  617MOL0     H83257   5.513  11.390   5.090  2.1137 -0.8720  1.8544
  617MOL0     H83258   5.678  11.409   5.055 -0.7776  0.7772  0.3636
  617MOL0     H83259   5.078  11.108   4.959 -1.2044 -0.0089  0.9694
  617MOL0     H83260   4.857  11.167   4.893  1.7050 -1.5763 -2.0695
  617MOL0     H83261   4.624  11.245   4.826  1.2062 -1.5575  2.4681
  617MOL0     H83262   4.693  11.340   4.957 -0.9468 -0.0966 -0.7881
  617MOL0     H83263   4.585  11.545   4.860 -1.2201  1.0160 -0.8053
  617MOL0     H83264   4.497  11.445   4.750 -0.0896  3.7388 -0.5439
  617MOL0     H83265   4.497  11.415   5.063  1.4410  1.5603 -0.7680
  617MOL0     H83266   4.383  11.327   4.969  2.2099 -0.8114  2.3246
  617MOL0     H83267   4.379  11.632   4.993 -0.3193  0.5828  0.5530
  617MOL0     H83268   4.287  11.544   4.882 -2.7595  0.6728  1.5475
  617MOL0     H83269   4.302  11.485   5.190  1.0528 -1.3689 -1.2557
  617MOL0     H83270   4.210  11.392   5.071 -2.2924 -0.5271 -1.0329
  617MOL0     H83271   4.171  11.679   5.121  1.2591 -0.2829  0.2694
  617MOL0     H83272   4.063  11.584   5.010  1.3624  0.7934 -0.4660
  617MOL0     H83273   4.070  11.592   5.314 -0.2334 -1.9078  0.8927
  617MOL0     H83274   4.031  11.443   5.236 -0.6683  0.0872  1.1470
  617MOL0     H83275   3.827  11.543   5.279  4.0903 -1.3484  1.5695
  617MOL0     H83276   3.850  11.535   5.110 -0.9915 -2.0279  1.8680
  617MOL0     H83277   4.995  11.551   4.743  3.6154  0.5796  0.2078
  617MOL0     H83278   5.219  11.496   4.818 -0.4028 -1.1634 -3.0396
  617MOL0     H83279   5.498  10.978   4.779 -1.5427  0.4368  0.3478
  617MOL0     H83280   5.703  10.867   4.872  0.4604  0.7469 -1.7209
  617MOL0     H83281   7.009  10.356   5.386 -0.4683  0.7881 -1.0538
  617MOL0     H83282   7.251  10.398   5.383  1.1785 -0.0132 -2.4408
  617MOL0     H83283   7.749  10.085   5.555 -2.2083 -0.1593 -1.5738
  617MOL0     H83284   7.972  10.181   5.548 -0.9357  1.5229  2.2135
  617MOL0     H83285   8.071  10.412   5.214  0.6606 -0.6350  0.0656
  617MOL0     H83286   8.079  10.554   5.328  0.5345  0.6191 -0.9991
  617MOL0     H83287   8.295  10.512   5.227  0.5853 -0.9210  1.0638
  617MOL0     H83288   8.290  10.354   5.294  1.1527 -0.2300 -1.2025
  617MOL0     H83289   8.278  10.435   5.526 -0.1129  0.7696  0.5599
  617MOL0     H83290   8.279  10.607   5.459  3.9283  1.5240 -0.1650
  617MOL0     H83291   8.480  10.371   5.485 -3.7755 -0.6021  0.4294
  617MOL0     H83292   8.503  10.519   5.572 -3.2279  0.8239  1.3005
  617MOL0     H83293   8.666  10.658   5.210  1.0833  1.5465  1.5460
  617MOL0     H83294   7.850  10.481   5.265 -1.0849  2.0624  2.9051
  617MOL0     H83295   7.621  10.374   5.252  1.8093  2.4230 -0.9294
  618MOL0     O83296   4.904   0.065   3.511  0.6507  0.9253 -0.5102
  618MOL0     C83297   4.930  -0.008   3.418 -0.0275  0.0613 -0.4983
  618MOL0     O83298   4.848  -0.022   3.310 -0.3457  0.6217  1.1475
  618MOL0     C83299   4.720   0.024   3.314 -0.5251  0.0905 -0.1968
  618MOL0     C83300   4.675   0.101   3.207 -0.1414 -0.4903 -0.8848
  618MOL0     C83301   4.550   0.158   3.207  0.4937  0.0593 -0.3901
  618MOL0     C83302   4.463   0.147   3.308  0.8659 -0.0805 -0.9012
  618MOL0     O83303   4.337   0.210   3.315 -0.4321  0.1652  0.6407
  618MOL0     C83304   4.309   0.288   3.433 -0.3333  0.1079  0.1495
  618MOL0     C83305   4.288   0.429   3.389 -0.1457 -0.7169 -0.1978
  618MOL0     C83306   4.154   0.439   3.320  0.2022 -0.3051  0.1783
  618MOL0     C83307   4.121   0.576   3.262  0.4354  0.0765  0.3207
  618MOL0     C83308   4.196   0.618   3.134 -0.3721 -1.0123  0.6793
  618MOL0     C83309   4.208   0.522   3.020  0.0322  0.2285  0.5763
  618MOL0     C83310   4.082   0.446   2.981 -0.6479 -0.4384  0.5410
  618MOL0     C83311   4.107   0.320   2.895 -0.2651 -0.1102  0.3890
  618MOL0     N83312   3.987   0.249   2.854  0.0403  0.0813 -0.1908
  618MOL0     C83313   3.899   0.300   2.762  0.3382  0.4165  0.7392
  618MOL0     C83314   3.814   0.198   2.745  0.4353 -0.4892  1.3154
  618MOL0     C83315   3.703   0.194   2.643  1.2241  0.3952 -0.4902
  618MOL0     C83316   3.580   0.273   2.690 -0.8604 -0.3904 -0.0135
  618MOL0     C83317   3.439   0.220   2.647  0.3519 -0.1351 -0.2173
  618MOL0     C83318   3.314   0.258   2.722  1.3756  0.1514  0.0128
  618MOL0     O83319   3.345   0.210   2.854 -0.5089  0.2587 -0.5386
  618MOL0     C83320   3.237   0.197   2.938  0.1317 -0.7975  0.2955
  618MOL0     C83321   3.122   0.288   2.935  0.2018 -0.3833  0.6954
  618MOL0     C83322   3.016   0.288   3.033 -0.3687  0.2568  0.5679
  618MOL0     C83323   2.905   0.394   3.016 -0.0016 -0.0333 -0.7041
  618MOL0     C83324   3.025   0.185   3.135 -0.3469  0.0821  0.3314
  618MOL0     C83325   2.925   0.157   3.239 -0.2378 -0.6766 -0.2430
  618MOL0     O83326   2.947   0.062   3.333  0.0873 -0.6302 -0.7642
  618MOL0     C83327   2.847  -0.001   3.407  0.4494  0.0341 -0.0892
  618MOL0     C83328   2.890  -0.090   3.503  0.3245  0.5423  0.2934
  618MOL0     C83329   2.803  -0.158   3.589  0.1340 -0.1006  0.1578
  618MOL0     C83330   2.664  -0.141   3.576  0.1289  0.3913 -0.6656
  618MOL0     O83331   2.584  -0.216   3.659  0.5518 -0.1890 -0.2489
  618MOL0     C83332   2.445  -0.236   3.618  0.2466 -0.4114  0.1931
  618MOL0     C83333   2.443  -0.333   3.495 -0.5821 -0.2346  0.0481
  618MOL0     C83334   2.313  -0.417   3.487 -0.2891 -0.4167  0.1460
  618MOL0     C83335   2.281  -0.477   3.346  0.7182  0.1485  1.1429
  618MOL0     C83336   2.146  -0.551   3.331 -0.0477 -0.3495  1.2266
  618MOL0     C83337   2.087  -0.597   3.191 -0.9326 -0.5707 -0.2110
  618MOL0     C83338   1.957  -0.676   3.209  0.7064  0.5192  0.0793
  618MOL0     C83339   1.856  -0.627   3.318  0.1640  0.3963 -0.4661
  618MOL0    Cl83340   1.822  -0.451   3.272  0.1799 -0.0125 -0.5755
  618MOL0     C83341   2.614  -0.036   3.495  1.3943 -0.8301 -0.0909
  618MOL0     C83342   2.706   0.023   3.405 -0.0064 -0.4863 -0.1382
  618MOL0     O83343   2.828   0.230   3.235 -0.1723 -0.0289 -0.5723
  618MOL0     C83344   3.135   0.098   3.133  0.3470 -0.2197  0.6029
  618MOL0     C83345   3.243   0.109   3.045  0.0929 -0.1066 -0.0400
  618MOL0     N83346   3.847   0.092   2.818 -0.0168  0.2244  0.2863
  618MOL0     N83347   3.957   0.116   2.883  0.4544 -0.3707 -0.5914
  618MOL0     C83348   4.496   0.063   3.412 -0.3855 -0.6547  0.1190
  618MOL0     C83349   4.628   0.001   3.420 -0.1230  0.0257  0.4912
  618MOL0     C83350   5.048  -0.098   3.437  0.1735  0.1519 -0.3354
  618MOL0     C83351   5.134  -0.078   3.544 -0.3732 -0.2009 -0.0211
  618MOL0     C83352   5.264  -0.138   3.551  0.3920  0.1705  1.0590
  618MOL0     C83353   5.304  -0.230   3.449 -0.6298 -0.5542  0.7067
  618MOL0     O83354   5.426  -0.284   3.437 -0.0393  0.0441  0.3197
  618MOL0     C83355   5.525  -0.252   3.538 -0.3646  0.1582  0.9129
  618MOL0     C83356   5.627  -0.364   3.513 -0.2296  0.0427 -0.3721
  618MOL0     C83357   5.723  -0.314   3.406 -0.6245  0.1597  0.8318
  618MOL0     C83358   5.847  -0.399   3.395  0.6927 -0.5389 -0.5749
  618MOL0     C83359   5.920  -0.427   3.522  0.5417 -1.2425  0.2112
  618MOL0     C83360   5.965  -0.445   3.630  0.3553  0.1660 -0.6850
  618MOL0     C83361   5.209  -0.254   3.347 -1.0425  0.5511 -0.3923
  618MOL0     C83362   5.083  -0.191   3.343 -0.3696 -0.2713 -0.3087
  618MOL0     H83363   4.753   0.124   3.135 -0.1002 -1.4800 -1.1720
  618MOL0     H83364   4.540   0.236   3.132  0.2288  1.5117  1.0823
  618MOL0     H83365   4.220   0.255   3.488  0.1576  0.7213  1.3358
  618MOL0     H83366   4.396   0.282   3.498 -0.8776 -0.5374  0.8436
  618MOL0     H83367   4.287   0.497   3.474  1.8346  0.3423 -0.9523
  618MOL0     H83368   4.368   0.454   3.319  1.3368 -1.3445  1.2074
  618MOL0     H83369   4.163   0.357   3.248  0.4214 -1.6569  1.6939
  618MOL0     H83370   4.083   0.411   3.398  2.7889  1.5586  3.4616
  618MOL0     H83371   4.017   0.569   3.229  1.0265 -0.6601 -1.4660
  618MOL0     H83372   4.129   0.654   3.339 -2.9432 -0.0738  0.9781
  618MOL0     H83373   4.148   0.706   3.092  0.6953  0.0789  1.6583
  618MOL0     H83374   4.295   0.657   3.162 -0.6408  0.4065 -0.2351
  618MOL0     H83375   4.244   0.579   2.933 -0.2708 -2.8607 -1.7811
  618MOL0     H83376   4.286   0.448   3.041  1.1498 -0.1714 -3.8360
  618MOL0     H83377   4.029   0.420   3.072  0.1741 -0.5257  1.0056
  618MOL0     H83378   4.018   0.518   2.929 -1.6012  0.1258  2.4147
  618MOL0     H83379   4.174   0.259   2.957  2.0515  0.7277 -1.1607
  618MOL0     H83380   4.164   0.352   2.807  0.2670 -1.8208  0.0763
  618MOL0     H83381   3.892   0.397   2.715 -2.6138  0.1039  0.3499
  618MOL0     H83382   3.740   0.238   2.550  0.1075  1.9345 -0.2488
  618MOL0     H83383   3.664   0.095   2.618 -1.3882  1.4287 -0.8538
  618MOL0     H83384   3.585   0.379   2.663 -1.8195  0.1445  1.7050
  618MOL0     H83385   3.578   0.264   2.799 -1.5645 -0.2502 -0.0097
  618MOL0     H83386   3.441   0.111   2.634 -1.0044  0.0701 -2.7797
  618MOL0     H83387   3.426   0.249   2.542 -2.4392  2.3070  0.6640
  618MOL0     H83388   3.224   0.212   2.680  0.9165 -0.1498  1.2608
  618MOL0     H83389   3.297   0.367   2.718 -1.1284 -0.0974  1.2847
  618MOL0     H83390   3.110   0.369   2.863  0.7305  2.8430  3.9562
  618MOL0     H83391   2.888   0.451   3.108 -0.8141 -1.5709  0.1442
  618MOL0     H83392   2.930   0.469   2.941  0.7947  0.8534  0.4035
  618MOL0     H83393   2.812   0.349   2.980  1.2089 -0.2793 -3.8341
  618MOL0     H83394   2.996  -0.116   3.507  0.0341 -1.2269 -1.6503
  618MOL0     H83395   2.849  -0.219   3.666  1.7544 -0.0631 -0.7304
  618MOL0     H83396   2.383  -0.270   3.701 -1.5727  2.1162 -0.0252
  618MOL0     H83397   2.394  -0.143   3.594 -3.5076 -2.5307 -0.8331
  618MOL0     H83398   2.457  -0.262   3.413  1.1249  2.0857  2.1949
  618MOL0     H83399   2.528  -0.401   3.489 -1.7892 -1.8261  0.4044
  618MOL0     H83400   2.222  -0.359   3.507  0.6301  0.1722  3.1057
  618MOL0     H83401   2.325  -0.496   3.561  0.7161 -0.6817 -0.2879
  618MOL0     H83402   2.267  -0.396   3.273 -0.1513  0.4238  1.5968
  618MOL0     H83403   2.366  -0.538   3.315  1.6933  1.8435  0.3285
  618MOL0     H83404   2.075  -0.486   3.384  0.2217 -1.1837  2.6654
  618MOL0     H83405   2.150  -0.642   3.390 -1.1193 -1.1855  0.0595
  618MOL0     H83406   2.071  -0.512   3.124  0.5169 -0.7373 -0.8170
  618MOL0     H83407   2.158  -0.664   3.141 -1.8278 -2.0056  0.3517
  618MOL0     H83408   1.974  -0.780   3.238 -2.7746 -0.1534  0.1238
  618MOL0     H83409   1.902  -0.681   3.115 -1.1110 -0.1721  1.1402
  618MOL0     H83410   1.888  -0.630   3.423 -2.6750  1.2739  0.5116
  618MOL0     H83411   1.760  -0.678   3.311  0.5261 -0.3174 -0.3487
  618MOL0     H83412   2.515   0.007   3.489  2.6258  2.2234 -0.4714
  618MOL0     H83413   2.662   0.103   3.348  1.0198  0.1176 -0.1101
  618MOL0     H83414   3.156   0.019   3.206  1.8669 -2.5580 -2.1598
  618MOL0     H83415   3.335   0.053   3.054  2.0744  2.5744 -1.9541
  618MOL0     H83416   4.420   0.048   3.488 -2.3002  3.6216 -0.6954
  618MOL0     H83417   4.657  -0.067   3.500  2.2692 -2.0110 -1.9475
  618MOL0     H83418   5.101  -0.014   3.625  0.9911  1.1769 -0.5038
  618MOL0     H83419   5.329  -0.105   3.632  0.3297 -0.2265  1.2755
  618MOL0     H83420   5.568  -0.151   3.535  4.2670 -1.6024 -0.0304
  618MOL0     H83421   5.487  -0.267   3.639 -0.8234 -0.1551  0.6961
  618MOL0     H83422   5.583  -0.458   3.478  1.9166 -0.9476 -0.5803
  618MOL0     H83423   5.683  -0.382   3.606 -2.2494  3.2200  1.6426
  618MOL0     H83424   5.757  -0.213   3.433  1.4129 -0.2675  0.0257
  618MOL0     H83425   5.663  -0.311   3.314  0.1350  0.2467  0.3293
  618MOL0     H83426   5.905  -0.354   3.314 -1.2135 -0.9400 -2.2463
  618MOL0     H83427   5.818  -0.495   3.352  0.1757 -1.3266  1.4091
  618MOL0     H83428   6.005  -0.461   3.729  0.3258  1.0595 -0.5217
  618MOL0     H83429   5.224  -0.320   3.262 -0.9129  0.9972 -0.7197
  618MOL0     H83430   5.002  -0.230   3.282 -0.8667 -1.4045  1.0328
  619MOL0     O83431   0.630   4.138  10.553 -0.7773  0.0736 -0.6124
  619MOL0     C83432   0.655   4.175  10.440 -0.0961 -0.1132 -0.0395
  619MOL0     O83433   0.564   4.192  10.340 -0.3729 -0.5937 -0.4894
  619MOL0     C83434   0.427   4.193  10.360  0.3881  0.1502 -0.4583
  619MOL0     C83435   0.356   4.138  10.252 -0.1049 -0.1989  0.6625
  619MOL0     C83436   0.221   4.106  10.273  0.3391 -0.3952  0.6433
  619MOL0     C83437   0.151   4.148  10.386  0.2610 -0.5250 -0.9019
  619MOL0     O83438   0.013   4.124  10.409 -0.0378 -0.3468 -0.3816
  619MOL0     C83439  -0.068   4.143  10.294 -0.2741 -0.5012 -0.2825
  619MOL0     C83440  -0.186   4.224  10.337  0.1905 -0.0676 -0.7589
  619MOL0     C83441  -0.275   4.257  10.218  0.3495  0.4489 -0.2261
  619MOL0     C83442  -0.399   4.328  10.274  0.3535 -0.3795 -0.4106
  619MOL0     C83443  -0.509   4.359  10.170 -0.3016  0.5277  0.2360
  619MOL0     C83444  -0.453   4.451  10.053  0.3010 -0.3744 -0.5311
  619MOL0     C83445  -0.556   4.481   9.945 -0.2103 -0.1731  0.7205
  619MOL0     C83446  -0.694   4.537   9.985 -0.2332  0.4837 -0.2506
  619MOL0     N83447  -0.784   4.417  10.018 -0.2928 -0.4017 -0.2432
  619MOL0     C83448  -0.848   4.387  10.136  0.0774  0.2867 -0.2003
  619MOL0     C83449  -0.912   4.273  10.109  0.3253 -0.1163  0.6969
  619MOL0     C83450  -1.009   4.200  10.209  1.2983 -0.4232 -0.1106
  619MOL0     C83451  -1.158   4.213  10.170 -0.4167 -0.0590 -0.5044
  619MOL0     C83452  -1.196   4.121  10.056  0.8894 -0.3672 -0.6791
  619MOL0     C83453  -1.344   4.127  10.021  1.9769 -0.7388  0.5003
  619MOL0     O83454  -1.419   4.107  10.140 -0.2431 -0.1098  0.0204
  619MOL0     C83455  -1.554   4.088  10.136  1.3312  0.4814  0.3190
  619MOL0     C83456  -1.640   4.120  10.025 -0.6187 -0.0737  0.0337
  619MOL0     C83457  -1.774   4.096  10.021 -1.0947 -0.6742 -0.1343
  619MOL0     C83458  -1.842   4.129   9.892  0.3616 -0.8644 -0.2563
  619MOL0     C83459  -1.845   4.042  10.135 -0.3512 -0.4301 -0.0513
  619MOL0     C83460  -1.991   4.033  10.145  0.3519  0.5879 -0.0643
  619MOL0     O83461  -2.067   4.035  10.036  0.2431 -0.2253  1.1042
  619MOL0     C83462  -2.206   4.054  10.033 -0.5117 -0.5106 -0.0288
  619MOL0     C83463  -2.266   4.047   9.904  0.0794 -0.9311 -0.9291
  619MOL0     C83464  -2.407   4.062   9.891 -0.5717  0.9016 -0.9640
  619MOL0     C83465  -2.495   4.067  10.001  0.2908  0.5021 -0.2368
  619MOL0     O83466  -2.626   4.078   9.976 -0.5498  0.2668  0.0436
  619MOL0     C83467  -2.714   4.059  10.083  0.1729 -0.5962 -0.6527
  619MOL0     C83468  -2.854   4.114  10.052  0.0564  0.1455  0.0167
  619MOL0     C83469  -2.894   4.126   9.899  0.0371  0.9195  0.1470
  619MOL0     C83470  -2.884   3.988   9.827 -0.1161 -0.0479 -0.0796
  619MOL0     C83471  -2.954   3.982   9.691 -0.3528 -0.5147  0.4694
  619MOL0     C83472  -2.879   4.075   9.590 -0.7895 -0.4049 -0.1682
  619MOL0     C83473  -2.928   4.055   9.439  0.2297  0.0915 -0.4060
  619MOL0     C83474  -3.078   4.085   9.429 -0.4296  0.4862 -0.6695
  619MOL0    Cl83475  -3.136   3.913   9.455 -0.1579 -0.0095 -0.2026
  619MOL0     C83476  -2.432   4.069  10.126  0.0730 -0.6086  0.0160
  619MOL0     C83477  -2.295   4.066  10.143 -1.4850 -0.4536 -0.0805
  619MOL0     O83478  -2.033   4.015  10.262  0.2354 -0.0750  0.4897
  619MOL0     C83479  -1.763   4.014  10.245  0.0731 -0.3878 -0.4505
  619MOL0     C83480  -1.623   4.036  10.244  0.4438 -0.6759 -0.7080
  619MOL0     N83481  -0.893   4.238   9.977 -0.1773  0.2011  0.2688
  619MOL0     N83482  -0.814   4.324   9.924  0.1323 -0.0831  0.2964
  619MOL0     C83483   0.227   4.207  10.488  0.8062  0.3452 -0.1313
  619MOL0     C83484   0.363   4.233  10.476 -0.1436 -0.0755  0.2438
  619MOL0     C83485   0.803   4.195  10.413 -0.0525  0.6558 -1.1272
  619MOL0     C83486   0.901   4.184  10.518 -0.6439 -0.5093  0.3257
  619MOL0     C83487   1.036   4.201  10.483  0.6791  0.4616 -0.1795
  619MOL0     C83488   1.078   4.247  10.358  0.1098 -0.5034  0.3983
  619MOL0     O83489   1.210   4.280  10.335 -0.3305 -0.3212  0.3091
  619MOL0     C83490   1.232   4.402  10.263 -0.2524  0.5074 -0.0683
  619MOL0     C83491   1.370   4.447  10.311 -0.2792  0.0875  0.1960
  619MOL0     C83492   1.474   4.349  10.267 -0.9254  0.3709  0.4121
  619MOL0     C83493   1.611   4.403  10.240 -0.7775  0.6645 -0.1235
  619MOL0     C83494   1.688   4.412  10.362  0.4506 -0.4453  0.1204
  619MOL0     C83495   1.759   4.430  10.459 -0.3908  0.4523 -0.0702
  619MOL0     C83496   0.984   4.258  10.258  0.2793 -0.4770  0.8053
  619MOL0     C83497   0.849   4.227  10.285 -0.7901  0.7473  0.6255
  619MOL0     H83498   0.401   4.081  10.172 -1.2634 -1.4469  0.8799
  619MOL0     H83499   0.173   4.057  10.189 -1.5681  0.4319  1.2046
  619MOL0     H83500  -0.016   4.206  10.221  0.2310  0.3517  0.7739
  619MOL0     H83501  -0.098   4.047  10.252 -1.2823 -3.4469  5.9949
  619MOL0     H83502  -0.236   4.164  10.413  2.0243 -0.5772  0.0954
  619MOL0     H83503  -0.155   4.313  10.392 -0.3186 -0.5993  0.4098
  619MOL0     H83504  -0.225   4.313  10.139  2.3246 -0.6805  0.1383
  619MOL0     H83505  -0.290   4.160  10.170  3.5367  0.1093 -0.7702
  619MOL0     H83506  -0.443   4.276  10.360  1.1037  0.3325  0.4161
  619MOL0     H83507  -0.367   4.427  10.308  2.3022 -1.4984  1.1885
  619MOL0     H83508  -0.553   4.267  10.129  1.4617  0.3901 -1.5229
  619MOL0     H83509  -0.582   4.416  10.228  0.9397  2.5721 -0.1358
  619MOL0     H83510  -0.418   4.542  10.103 -1.2709 -1.1178  2.1497
  619MOL0     H83511  -0.368   4.408  10.000 -0.1130 -0.5799 -1.0381
  619MOL0     H83512  -0.512   4.537   9.861 -0.7870 -0.9373 -0.1103
  619MOL0     H83513  -0.571   4.384   9.897 -0.6124 -0.1650  0.8316
  619MOL0     H83514  -0.736   4.577   9.892 -0.1750 -1.3165 -1.0847
  619MOL0     H83515  -0.697   4.607  10.069 -1.6661  1.7096 -1.2601
  619MOL0     H83516  -0.849   4.450  10.224 -0.6140 -0.0740  0.0567
  619MOL0     H83517  -0.979   4.095  10.209  2.7124 -0.0856 -2.1895
  619MOL0     H83518  -0.989   4.236  10.310 -0.2136 -0.5031  0.2306
  619MOL0     H83519  -1.180   4.316  10.139 -1.4457 -0.6456 -1.7935
  619MOL0     H83520  -1.216   4.182  10.258  0.2015  0.1451 -0.0191
  619MOL0     H83521  -1.168   4.018  10.081  0.9927 -0.8113 -2.5055
  619MOL0     H83522  -1.140   4.143   9.966  0.5748 -1.0600 -1.0493
  619MOL0     H83523  -1.363   4.052   9.943 -1.3873  1.8643 -1.4867
  619MOL0     H83524  -1.368   4.225   9.978 -1.7959 -1.5803  0.2859
  619MOL0     H83525  -1.596   4.173   9.941 -0.2920  0.6422  0.6414
  619MOL0     H83526  -1.783   4.200   9.835 -3.5686 -0.8931 -5.0400
  619MOL0     H83527  -1.847   4.045   9.823  1.4481 -0.8603 -0.3493
  619MOL0     H83528  -1.939   4.178   9.906  0.2312 -0.7973 -1.3443
  619MOL0     H83529  -2.195   4.035   9.823 -0.6081 -1.7871 -1.4141
  619MOL0     H83530  -2.462   4.055   9.797  0.5351 -0.3268 -1.5582
  619MOL0     H83531  -2.738   3.955  10.107 -0.9144 -0.0360  0.8806
  619MOL0     H83532  -2.686   4.112  10.175  2.3064 -1.6015 -0.6773
  619MOL0     H83533  -2.933   4.059  10.103  0.2796  2.6392  3.3931
  619MOL0     H83534  -2.856   4.215  10.094 -1.0913  1.2945 -2.5399
  619MOL0     H83535  -2.849   4.213   9.852  0.5331  1.0005  0.7590
  619MOL0     H83536  -3.002   4.145   9.893 -0.2380 -0.2133  1.0089
  619MOL0     H83537  -2.778   3.963   9.820 -0.2737 -1.1368  0.9408
  619MOL0     H83538  -2.920   3.904   9.888  0.8753 -1.1418 -0.9433
  619MOL0     H83539  -3.051   4.030   9.702  0.9895  2.2574  1.1428
  619MOL0     H83540  -2.952   3.879   9.655  1.0501 -0.3514  0.0226
  619MOL0     H83541  -2.885   4.181   9.616  3.2296  0.0517 -0.4955
  619MOL0     H83542  -2.773   4.051   9.596 -0.5494  0.8496  1.5296
  619MOL0     H83543  -2.910   3.954   9.401  1.2902 -0.6497  1.9011
  619MOL0     H83544  -2.876   4.122   9.370 -1.3259 -0.7545 -2.5307
  619MOL0     H83545  -3.111   4.111   9.328  1.7166  0.6599 -1.3909
  619MOL0     H83546  -3.126   4.153   9.500  2.0155  3.1053 -1.3460
  619MOL0     H83547  -2.492   4.085  10.215 -0.1928 -1.7663  0.0620
  619MOL0     H83548  -2.252   4.094  10.239  0.6475  2.1062 -1.6302
  619MOL0     H83549  -1.813   3.983  10.336 -1.4132 -0.1400 -1.1462
  619MOL0     H83550  -1.564   4.020  10.333 -1.7101  4.8673  2.2217
  619MOL0     H83551   0.177   4.243  10.577  1.1336 -0.4451  0.3859
  619MOL0     H83552   0.407   4.283  10.562  0.1746  1.6657 -0.8993
  619MOL0     H83553   0.865   4.173  10.620  0.4173 -1.3337  0.6325
  619MOL0     H83554   1.109   4.174  10.559 -0.4418 -0.2156  0.6869
  619MOL0     H83555   1.211   4.398  10.155 -1.2520  5.8598 -0.3188
  619MOL0     H83556   1.166   4.483  10.294  0.9928  1.8746 -0.8790
  619MOL0     H83557   1.384   4.456  10.419  2.2909 -0.4514 -0.0309
  619MOL0     H83558   1.383   4.543  10.260 -0.5573  0.5774  1.0391
  619MOL0     H83559   1.441   4.302  10.174  1.6387 -0.3990 -0.1857
  619MOL0     H83560   1.472   4.267  10.339  0.2995 -0.7537 -0.7642
  619MOL0     H83561   1.603   4.503  10.198  0.1784  0.6109 -0.4607
  619MOL0     H83562   1.662   4.343  10.164 -1.6190 -1.1189  0.6356
  619MOL0     H83563   1.815   4.418  10.549 -1.6657 -1.1796  0.5652
  619MOL0     H83564   1.018   4.289  10.160  3.2676 -0.2557  1.8055
  619MOL0     H83565   0.784   4.223  10.199 -0.5802 -1.2948  0.5240
  620MOL0     O83566   8.896   2.008   9.819 -0.1146  0.1501  0.0853
  620MOL0     C83567   8.972   2.077   9.753 -0.0490  0.4475 -0.9848
  620MOL0     O83568   8.945   2.142   9.637 -0.3625  0.0878  0.8416
  620MOL0     C83569   8.814   2.167   9.614  0.6681 -0.9701 -0.8328
  620MOL0     C83570   8.763   2.135   9.485  0.0317  0.4122 -0.9935
  620MOL0     C83571   8.631   2.167   9.460  0.4519 -0.6479  0.6393
  620MOL0     C83572   8.553   2.243   9.543 -0.0733 -0.2850  0.0921
  620MOL0     O83573   8.422   2.259   9.492  0.1320  0.2090  0.0169
  620MOL0     C83574   8.349   2.370   9.537 -0.2591  0.1744 -0.4338
  620MOL0     C83575   8.221   2.381   9.460 -0.2983  0.4753  0.3331
  620MOL0     C83576   8.104   2.438   9.545  0.2160 -0.3700 -0.2279
  620MOL0     C83577   7.968   2.456   9.465 -0.8220 -0.5850  0.0871
  620MOL0     C83578   7.843   2.489   9.554  0.1217 -0.8212  0.0695
  620MOL0     C83579   7.715   2.486   9.457  0.3739 -0.8582 -0.3973
  620MOL0     C83580   7.575   2.510   9.530  0.0549  0.3681  0.4059
  620MOL0     C83581   7.562   2.637   9.610 -0.9169  0.3511  0.0460
  620MOL0     N83582   7.439   2.653   9.688  0.1332  0.2406  0.1978
  620MOL0     C83583   7.326   2.695   9.637  0.7819 -0.3763 -1.3865
  620MOL0     C83584   7.238   2.674   9.743  0.0956  0.8350  0.1615
  620MOL0     C83585   7.091   2.696   9.713  0.1851 -0.3676 -0.5078
  620MOL0     C83586   7.012   2.644   9.840  0.0647 -0.0036 -0.0157
  620MOL0     C83587   6.861   2.626   9.808 -0.5429 -0.1629 -0.2084
  620MOL0     C83588   6.782   2.600   9.932 -0.3705 -1.3026  0.4810
  620MOL0     O83589   6.783   2.461   9.967 -0.4205  0.1055 -0.3136
  620MOL0     C83590   6.720   2.432  10.082  0.1150  0.2576 -0.1201
  620MOL0     C83591   6.661   2.523  10.172 -0.4913  0.2508  0.1089
  620MOL0     C83592   6.600   2.473  10.292 -0.0366  0.6527  0.5463
  620MOL0     C83593   6.524   2.586  10.367 -0.3056  0.1916  0.3805
  620MOL0     C83594   6.602   2.331  10.323  0.1068  0.1204 -0.7315
  620MOL0     C83595   6.524   2.276  10.434  0.2306 -0.7759 -0.5394
  620MOL0     O83596   6.470   2.364  10.530  0.0704  0.4865 -0.2337
  620MOL0     C83597   6.364   2.334  10.619 -0.3738  0.1322 -0.2305
  620MOL0     C83598   6.282   2.437  10.662  0.4253 -0.1724 -0.1229
  620MOL0     C83599   6.175   2.410  10.738  0.3756 -0.2627  0.0985
  620MOL0     C83600   6.137   2.283  10.788  0.0157 -0.5430  0.3132
  620MOL0     O83601   6.030   2.259  10.877  0.2558 -0.1173  0.1102
  620MOL0     C83602   5.977   2.369  10.951 -0.5945 -0.1253  0.2304
  620MOL0     C83603   5.854   2.425  10.878  0.6651  0.5233 -0.4851
  620MOL0     C83604   5.756   2.314  10.838 -0.1438 -0.2550 -0.1375
  620MOL0     C83605   5.624   2.360  10.782  0.9223 -0.1811 -0.8647
  620MOL0     C83606   5.522   2.252  10.757  0.0659  0.2157  0.5605
  620MOL0     C83607   5.378   2.307  10.745  0.5025  0.5951  0.6431
  620MOL0     C83608   5.284   2.188  10.728 -0.4602 -0.6875 -0.1739
  620MOL0     C83609   5.139   2.238  10.715 -0.2775  0.3508 -0.4606
  620MOL0    Cl83610   5.109   2.313  10.566  0.1884  0.2871 -0.3963
  620MOL0     C83611   6.214   2.175  10.737 -0.4790  0.1592 -0.4915
  620MOL0     C83612   6.323   2.204  10.652  0.9761 -0.5339 -0.2451
  620MOL0     O83613   6.512   2.160  10.438  0.3216  0.1272 -0.2952
  620MOL0     C83614   6.663   2.246  10.231 -0.3957 -0.0894 -0.0039
  620MOL0     C83615   6.709   2.298  10.110 -0.3044  0.4758  0.0144
  620MOL0     N83616   7.300   2.619   9.853 -0.8168 -0.0483  0.5702
  620MOL0     N83617   7.422   2.603   9.815 -0.1580 -0.9447  0.1301
  620MOL0     C83618   8.611   2.286   9.662  0.4002  0.5020  0.6912
  620MOL0     C83619   8.744   2.251   9.700 -0.0065  0.1847 -0.7094
  620MOL0     C83620   9.108   2.095   9.816 -0.7147  0.4503 -0.0423
  620MOL0     C83621   9.159   1.993   9.901 -0.1712  0.5988  0.1623
  620MOL0     C83622   9.292   2.007   9.947 -0.5055  1.3473  0.6078
  620MOL0     C83623   9.377   2.100   9.888 -0.6353  0.5911  0.0775
  620MOL0     O83624   9.515   2.085   9.914 -0.3877  0.4829 -0.5599
  620MOL0     C83625   9.615   2.167   9.854  0.1503  0.0688  0.1174
  620MOL0     C83626   9.744   2.085   9.863 -0.2097 -0.5915 -0.5913
  620MOL0     C83627   9.808   2.074  10.001  0.4095 -1.2411  1.1110
  620MOL0     C83628   9.741   1.993  10.099  0.4551  0.6252  0.1141
  620MOL0     C83629   9.738   1.849  10.052  0.6218  0.0946 -0.5936
  620MOL0     C83630   9.737   1.733  10.035  0.5061 -0.2639  0.0073
  620MOL0     C83631   9.335   2.194   9.794  0.7443  0.1798 -0.4566
  620MOL0     C83632   9.197   2.192   9.762 -0.1499 -0.1790  0.1478
  620MOL0     H83633   8.831   2.086   9.416  1.5416 -0.1736  0.8282
  620MOL0     H83634   8.578   2.155   9.366  0.0022  2.1333  0.4623
  620MOL0     H83635   8.321   2.364   9.643  0.3741  4.1601  0.1233
  620MOL0     H83636   8.411   2.460   9.528  1.1978 -0.9635 -2.6949
  620MOL0     H83637   8.237   2.428   9.363  3.2206 -2.2169 -0.5861
  620MOL0     H83638   8.195   2.278   9.434  1.8787  0.9092 -4.7207
  620MOL0     H83639   8.078   2.366   9.624 -3.4867 -1.8596 -2.5548
  620MOL0     H83640   8.120   2.539   9.585  1.7962 -0.0143 -1.6879
  620MOL0     H83641   7.982   2.544   9.403 -1.9010 -0.7666 -0.4465
  620MOL0     H83642   7.965   2.370   9.398  0.1422 -0.5116 -0.0575
  620MOL0     H83643   7.823   2.408   9.625  2.5301 -1.3393  0.2236
  620MOL0     H83644   7.852   2.583   9.610  3.7627 -0.6782 -0.5736
  620MOL0     H83645   7.723   2.568   9.385  0.4616  1.1119  1.7351
  620MOL0     H83646   7.714   2.384   9.418  0.7253 -0.2589 -2.0306
  620MOL0     H83647   7.493   2.506   9.458 -0.1210  2.2091  0.4754
  620MOL0     H83648   7.562   2.434   9.608  0.3981 -0.4384 -0.3024
  620MOL0     H83649   7.553   2.716   9.535 -2.8281  1.0960  0.9934
  620MOL0     H83650   7.652   2.653   9.671  2.1327  1.5817 -4.2968
  620MOL0     H83651   7.291   2.717   9.537 -3.2501  1.6815  0.2378
  620MOL0     H83652   7.075   2.802   9.694  0.4502  0.0921  1.5501
  620MOL0     H83653   7.059   2.647   9.621 -0.9053  0.6576 -0.7018
  620MOL0     H83654   7.018   2.706   9.930 -0.5311 -0.8571  0.6290
  620MOL0     H83655   7.049   2.545   9.868 -1.7936 -1.5199 -2.4662
  620MOL0     H83656   6.854   2.543   9.736  0.9901 -1.3899  0.9843
  620MOL0     H83657   6.832   2.722   9.765  0.3621 -0.5997 -1.8869
  620MOL0     H83658   6.677   2.626   9.916 -0.1323 -0.7134 -0.1604
  620MOL0     H83659   6.823   2.659  10.014 -0.0794  1.6326 -1.6072
  620MOL0     H83660   6.650   2.627  10.144 -0.7213 -0.2358 -1.7645
  620MOL0     H83661   6.557   2.685  10.333  0.3806 -0.7614 -1.9920
  620MOL0     H83662   6.419   2.579  10.338  0.1563  0.3470 -1.4858
  620MOL0     H83663   6.540   2.574  10.474 -0.8666 -0.6826  0.3723
  620MOL0     H83664   6.307   2.541  10.641  0.9381 -0.1919  0.3641
  620MOL0     H83665   6.119   2.503  10.749 -0.5508 -0.8474  0.4389
  620MOL0     H83666   5.948   2.346  11.053 -0.6627  0.0400  0.2495
  620MOL0     H83667   6.057   2.444  10.956  2.0666 -2.7530 -0.4890
  620MOL0     H83668   5.802   2.498  10.942  0.4013 -0.5659  0.5873
  620MOL0     H83669   5.891   2.477  10.790 -0.6113  2.1865 -0.0929
  620MOL0     H83670   5.725   2.255  10.924 -2.9902 -0.9731 -1.5056
  620MOL0     H83671   5.800   2.241  10.770 -0.4854 -1.9700  1.4200
  620MOL0     H83672   5.581   2.423  10.860  0.4404 -1.4752 -0.0546
  620MOL0     H83673   5.635   2.406  10.683 -1.5845  3.0436  0.1565
  620MOL0     H83674   5.527   2.176  10.835  0.9233 -0.1079  0.2007
  620MOL0     H83675   5.540   2.205  10.660  1.5726 -0.3913  1.1052
  620MOL0     H83676   5.345   2.373  10.826  0.5807  0.7475  0.5506
  620MOL0     H83677   5.362   2.374  10.661 -1.9411 -0.4405  0.2071
  620MOL0     H83678   5.296   2.107  10.801 -1.3793 -1.0892 -0.4536
  620MOL0     H83679   5.304   2.141  10.632 -0.0676 -1.8249  0.4362
  620MOL0     H83680   5.118   2.306  10.798  2.8271  1.6138 -0.5544
  620MOL0     H83681   5.071   2.153  10.723 -1.4895  1.3403  0.1685
  620MOL0     H83682   6.192   2.074  10.769  1.7875 -0.3891 -0.5270
  620MOL0     H83683   6.380   2.118  10.619  1.5063  0.4257 -1.9729
  620MOL0     H83684   6.673   2.139  10.242 -3.3416 -0.4960 -0.4275
  620MOL0     H83685   6.751   2.223  10.043 -2.0168 -0.9018  0.4012
  620MOL0     H83686   8.550   2.341   9.734  1.7771  1.3815  1.2356
  620MOL0     H83687   8.778   2.270   9.802 -0.0653  1.0887 -0.8444
  620MOL0     H83688   9.107   1.903   9.934  0.5096  0.5386  1.1084
  620MOL0     H83689   9.338   1.942  10.021 -1.4664 -1.6442 -1.2383
  620MOL0     H83690   9.595   2.186   9.748  0.1318 -1.5247 -0.1943
  620MOL0     H83691   9.628   2.262   9.906 -0.9129  1.5067 -2.1429
  620MOL0     H83692   9.822   2.141   9.811  1.7809 -0.4345  2.2974
  620MOL0     H83693   9.731   1.988   9.813  0.1315 -1.4451  0.9011
  620MOL0     H83694   9.833   2.173  10.040  0.0438 -0.0190 -1.4733
  620MOL0     H83695   9.905   2.025   9.988  2.0360  2.1392 -1.4201
  620MOL0     H83696   9.643   2.042  10.109  1.7656  3.6934 -0.8645
  620MOL0     H83697   9.790   1.989  10.196 -0.3792 -0.6230  0.5074
  620MOL0     H83698   9.742   1.626  10.031  2.5456 -0.1783 -0.7114
  620MOL0     H83699   9.402   2.267   9.749  2.2233 -1.3500 -0.8304
  620MOL0     H83700   9.152   2.268   9.699 -3.0359  0.2287  2.4782
  621MOL0     O83701   4.726   6.371   3.660  0.7472 -0.5910 -0.2026
  621MOL0     C83702   4.821   6.384   3.737  0.2730  0.0375  0.6993
  621MOL0     O83703   4.824   6.471   3.849  0.2841 -0.5358 -0.5253
  621MOL0     C83704   4.709   6.531   3.877  0.1797 -0.0539  0.7128
  621MOL0     C83705   4.643   6.627   3.796  0.0549 -0.4923 -0.5251
  621MOL0     C83706   4.520   6.682   3.829 -0.6212 -0.2508 -0.0684
  621MOL0     C83707   4.461   6.658   3.951  0.7596  0.7002  0.6871
  621MOL0     O83708   4.348   6.715   4.000  0.0516 -0.4279  0.2939
  621MOL0     C83709   4.220   6.691   3.936  0.3868  0.1372  0.1959
  621MOL0     C83710   4.161   6.557   4.000 -1.1037 -0.0103 -0.0548
  621MOL0     C83711   4.104   6.575   4.140  0.6424 -0.1576  0.8752
  621MOL0     C83712   3.973   6.650   4.132  0.1392  0.0014 -0.0290
  621MOL0     C83713   3.898   6.646   4.260  0.0983 -0.0382  0.7482
  621MOL0     C83714   3.746   6.666   4.238 -0.0291 -0.1637 -0.1605
  621MOL0     C83715   3.656   6.645   4.361 -0.2297  0.1595 -0.2549
  621MOL0     C83716   3.653   6.757   4.459 -0.4976  0.2458  0.2921
  621MOL0     N83717   3.550   6.750   4.564  0.0512 -0.4912 -1.2005
  621MOL0     C83718   3.420   6.722   4.558 -0.2596 -0.0579  0.5573
  621MOL0     C83719   3.360   6.715   4.677  0.4988 -0.2749  0.3504
  621MOL0     C83720   3.228   6.664   4.707 -0.0363  0.4283  0.5443
  621MOL0     C83721   3.133   6.776   4.657 -0.0506  0.6491 -0.0030
  621MOL0     C83722   3.119   6.889   4.761 -0.1672  0.5378  0.0994
  621MOL0     C83723   3.030   7.002   4.710  1.2550 -0.2410 -0.6150
  621MOL0     O83724   2.896   6.959   4.681  0.3650 -0.3099  0.2673
  621MOL0     C83725   2.808   7.060   4.650 -0.1616  0.2075  0.5950
  621MOL0     C83726   2.677   7.027   4.683  0.3366  0.1115 -0.2153
  621MOL0     C83727   2.572   7.119   4.655  0.0269 -0.4683  0.3064
  621MOL0     C83728   2.423   7.071   4.679  0.4343 -0.1197 -0.2133
  621MOL0     C83729   2.604   7.242   4.594  0.3148 -0.4893 -0.6573
  621MOL0     C83730   2.501   7.337   4.549 -0.1641  0.3099 -0.5807
  621MOL0     O83731   2.530   7.404   4.426  0.7636 -0.4705 -0.3101
  621MOL0     C83732   2.429   7.491   4.385 -0.0567  0.2872 -0.2538
  621MOL0     C83733   2.367   7.470   4.264 -0.5440  0.4649 -0.4588
  621MOL0     C83734   2.258   7.545   4.227 -0.3242  0.2281  0.0902
  621MOL0     C83735   2.226   7.670   4.284 -0.2174 -0.1092  0.1139
  621MOL0     O83736   2.124   7.763   4.260 -0.5367  0.3827  0.0174
  621MOL0     C83737   2.078   7.753   4.130 -0.9688  0.3045  0.9177
  621MOL0     C83738   1.996   7.871   4.083 -0.5702  0.0726 -0.5048
  621MOL0     C83739   1.999   7.876   3.934 -0.5927 -0.1931  0.0183
  621MOL0     C83740   1.903   7.989   3.891  0.0741  0.2757 -0.0560
  621MOL0     C83741   1.904   8.008   3.737 -0.8202 -0.3818 -0.4107
  621MOL0     C83742   1.867   7.879   3.652  0.8047 -0.3479 -0.3967
  621MOL0     C83743   1.744   7.780   3.684  0.3631 -0.5827  0.1495
  621MOL0     C83744   1.612   7.835   3.633  0.3689 -0.3637  0.0038
  621MOL0    Cl83745   1.559   7.973   3.742  0.6140  0.0157 -0.1110
  621MOL0     C83746   2.302   7.703   4.401  0.5198  0.4014  0.3160
  621MOL0     C83747   2.403   7.611   4.450  0.2079 -0.2397 -0.1562
  621MOL0     O83748   2.397   7.343   4.613 -0.6579  0.0219  0.3971
  621MOL0     C83749   2.737   7.269   4.561 -0.4253 -0.1002  0.2935
  621MOL0     C83750   2.841   7.180   4.587 -0.7424 -0.9484  0.3639
  621MOL0     N83751   3.466   6.745   4.763 -0.7988  0.0376  0.3938
  621MOL0     N83752   3.581   6.756   4.696  0.3789 -0.8454  0.1598
  621MOL0     C83753   4.525   6.575   4.044 -0.2099 -0.3615  0.0924
  621MOL0     C83754   4.638   6.507   3.999  0.3903  0.9264  0.0270
  621MOL0     C83755   4.959   6.326   3.702  0.5194  0.0615  0.1557
  621MOL0     C83756   5.063   6.313   3.797  0.1890  0.0044  0.3904
  621MOL0     C83757   5.182   6.251   3.761  0.4865  0.3619 -0.0196
  621MOL0     C83758   5.209   6.208   3.632 -1.0571 -0.3585  0.3982
  621MOL0     O83759   5.324   6.149   3.600 -0.3284  0.1286  0.0958
  621MOL0     C83760   5.408   6.091   3.700  0.1577  0.4500 -0.6444
  621MOL0     C83761   5.337   5.970   3.762  0.1196 -0.1222  0.0122
  621MOL0     C83762   5.375   5.844   3.689  0.6488 -0.0526  0.1741
  621MOL0     C83763   5.303   5.706   3.741  0.2293 -0.9175  0.5900
  621MOL0     C83764   5.335   5.674   3.879 -0.2867 -0.1013 -0.5535
  621MOL0     C83765   5.364   5.655   3.994 -1.1787  0.2316  0.4952
  621MOL0     C83766   5.110   6.223   3.536  0.6223  0.4715  1.5166
  621MOL0     C83767   4.984   6.274   3.567  0.0364  0.3114  0.1329
  621MOL0     H83768   4.696   6.643   3.703 -1.4697  1.2641 -1.1526
  621MOL0     H83769   4.480   6.752   3.756  1.0782 -1.7375 -2.5430
  621MOL0     H83770   4.154   6.776   3.957 -0.6564 -1.1734  2.5903
  621MOL0     H83771   4.228   6.695   3.827 -0.5614  0.5147  0.1282
  621MOL0     H83772   4.087   6.516   3.931 -1.8386  0.4055  0.4791
  621MOL0     H83773   4.239   6.480   4.008 -0.5184  0.3716 -1.7135
  621MOL0     H83774   4.081   6.483   4.194 -4.1292  0.6434  0.6155
  621MOL0     H83775   4.179   6.624   4.203  0.2632  2.0186 -0.2713
  621MOL0     H83776   3.983   6.754   4.101 -1.2224 -0.3720 -1.8347
  621MOL0     H83777   3.907   6.609   4.056 -2.6247 -1.4038  2.8748
  621MOL0     H83778   3.909   6.548   4.308 -3.1926 -0.7206  0.3603
  621MOL0     H83779   3.941   6.716   4.333 -3.1515  1.9556  0.9470
  621MOL0     H83780   3.741   6.774   4.223  2.1986 -0.0244 -0.2210
  621MOL0     H83781   3.713   6.600   4.157  3.8479 -2.4983 -0.1000
  621MOL0     H83782   3.560   6.629   4.312 -0.7832  1.8570  0.2123
  621MOL0     H83783   3.684   6.555   4.417  0.9556  1.5691  1.5215
  621MOL0     H83784   3.633   6.855   4.415  1.4516 -0.2096 -1.7562
  621MOL0     H83785   3.755   6.763   4.498  0.3018 -0.4028 -1.5999
  621MOL0     H83786   3.366   6.716   4.464 -1.1081  0.3766  1.0014
  621MOL0     H83787   3.212   6.569   4.657  1.4280 -1.0647  2.7090
  621MOL0     H83788   3.219   6.638   4.813  0.1993 -2.0235  0.0097
  621MOL0     H83789   3.035   6.728   4.643  0.0990  1.1266 -3.3504
  621MOL0     H83790   3.152   6.824   4.561  0.8748  2.9743  1.2645
  621MOL0     H83791   3.218   6.924   4.793 -0.9966  0.7467  2.6596
  621MOL0     H83792   3.070   6.841   4.846 -0.7381  0.4860 -0.2510
  621MOL0     H83793   3.071   7.051   4.621  2.0752 -0.5445 -0.4149
  621MOL0     H83794   3.031   7.079   4.787 -0.7770 -0.8043  0.0250
  621MOL0     H83795   2.650   6.930   4.723  2.3990 -0.2568  0.3888
  621MOL0     H83796   2.421   6.973   4.727 -0.0177  0.6925  1.4817
  621MOL0     H83797   2.373   7.143   4.745 -2.0780 -0.0662 -2.0160
  621MOL0     H83798   2.364   7.073   4.586 -0.5955  3.6185  0.3417
  621MOL0     H83799   2.399   7.372   4.228 -1.0114 -1.0489  2.8032
  621MOL0     H83800   2.194   7.509   4.147 -1.7147  0.5420  1.0179
  621MOL0     H83801   2.156   7.738   4.054 -2.0116 -0.3752 -0.0511
  621MOL0     H83802   2.017   7.665   4.111 -1.0491  0.0285  2.3498
  621MOL0     H83803   1.894   7.871   4.121 -0.7891 -2.2545 -0.9246
  621MOL0     H83804   2.039   7.956   4.136 -0.2413 -0.6903  0.5016
  621MOL0     H83805   1.955   7.781   3.900 -3.1679 -0.2168  3.0259
  621MOL0     H83806   2.098   7.906   3.898 -0.2741 -1.0352  0.1717
  621MOL0     H83807   1.804   7.957   3.925  0.8921 -2.0378  0.3554
  621MOL0     H83808   1.926   8.083   3.941  2.1593 -0.3998  0.3437
  621MOL0     H83809   2.002   8.046   3.706 -0.3711 -1.9022 -0.9133
  621MOL0     H83810   1.846   8.100   3.726  0.0029  0.5610  2.2390
  621MOL0     H83811   1.847   7.902   3.547 -1.4198  2.0731  0.4350
  621MOL0     H83812   1.948   7.805   3.656 -1.1504 -2.5437  0.8790
  621MOL0     H83813   1.738   7.764   3.792 -0.4871 -1.2378  0.0191
  621MOL0     H83814   1.762   7.679   3.648  0.1291 -0.8860  0.8819
  621MOL0     H83815   1.537   7.756   3.628  0.0245  0.0045 -0.9339
  621MOL0     H83816   1.624   7.870   3.530  0.4400  0.0207  0.1439
  621MOL0     H83817   2.263   7.789   4.455 -1.7756  1.0180 -2.1120
  621MOL0     H83818   2.460   7.640   4.538  0.3461 -1.6830  0.2564
  621MOL0     H83819   2.751   7.369   4.521 -1.2281 -0.0519  0.1051
  621MOL0     H83820   2.940   7.200   4.549 -1.0893 -0.5261 -0.3398
  621MOL0     H83821   4.485   6.568   4.145  1.0876  0.0112  0.6568
  621MOL0     H83822   4.685   6.426   4.055  0.1254  2.6233  2.9034
  621MOL0     H83823   5.053   6.373   3.887 -3.0431  2.4800 -1.3930
  621MOL0     H83824   5.259   6.248   3.837 -0.9770 -1.3991  1.5228
  621MOL0     H83825   5.503   6.056   3.660 -0.7330 -1.3174 -1.3139
  621MOL0     H83826   5.437   6.160   3.780  0.6897 -0.1157 -0.3436
  621MOL0     H83827   5.228   5.981   3.757  0.2785  1.3696 -5.1392
  621MOL0     H83828   5.368   5.968   3.867  1.0015 -0.5711 -0.2518
  621MOL0     H83829   5.482   5.819   3.687  0.0387 -3.4076  2.2930
  621MOL0     H83830   5.349   5.852   3.583 -0.2758 -0.3201  0.3720
  621MOL0     H83831   5.327   5.630   3.665  0.3047  0.9346 -1.3435
  621MOL0     H83832   5.198   5.730   3.725 -0.1399 -0.4774  3.2370
  621MOL0     H83833   5.382   5.632   4.097 -0.6300 -1.5033  0.0381
  621MOL0     H83834   5.140   6.188   3.437  4.1091  3.4414  1.2810
  621MOL0     H83835   4.902   6.268   3.495 -0.5030 -3.1350  0.8920
  622MOL0     O83836   3.323  10.263   3.677 -0.7973 -0.5329 -0.3631
  622MOL0     C83837   3.351  10.143   3.682  0.0434 -0.5740 -0.3814
  622MOL0     O83838   3.270  10.040   3.687  0.1456 -0.1383  0.0415
  622MOL0     C83839   3.132  10.039   3.659 -0.1222 -0.7450  0.1172
  622MOL0     C83840   3.052  10.157   3.635 -0.6832  0.2401  0.7693
  622MOL0     C83841   2.912  10.136   3.613 -0.5657  0.2740  0.6494
  622MOL0     C83842   2.859  10.009   3.613 -1.0953  0.5118  0.5131
  622MOL0     O83843   2.728   9.987   3.591 -0.2927  0.6327 -0.4668
  622MOL0     C83844   2.661  10.088   3.506  0.2075 -0.2489  0.4032
  622MOL0     C83845   2.518  10.053   3.465 -0.6416  0.2066 -0.1788
  622MOL0     C83846   2.427  10.055   3.580 -0.0610 -0.0296 -0.0729
  622MOL0     C83847   2.281  10.044   3.536  0.6223  0.5873 -0.0956
  622MOL0     C83848   2.181  10.086   3.649  0.2254 -0.0597  0.6155
  622MOL0     C83849   2.031  10.059   3.594 -0.1221 -0.1199 -0.0802
  622MOL0     C83850   1.923  10.109   3.693 -0.6517 -0.7638 -0.8201
  622MOL0     C83851   1.779  10.087   3.649 -0.1590  0.5302  1.5219
  622MOL0     N83852   1.741  10.216   3.579 -0.4316 -0.0635  0.3319
  622MOL0     C83853   1.672  10.322   3.637 -0.7124 -0.3128  0.6552
  622MOL0     C83854   1.671  10.413   3.543 -0.2073  0.0570 -0.4578
  622MOL0     C83855   1.600  10.545   3.561  0.7356 -0.0169  1.1181
  622MOL0     C83856   1.464  10.552   3.476 -0.3807  0.5250  0.7847
  622MOL0     C83857   1.385  10.681   3.506 -0.0955 -0.5280 -0.0547
  622MOL0     C83858   1.464  10.798   3.446 -0.1287 -0.1256 -0.2340
  622MOL0     O83859   1.380  10.911   3.410 -0.3622  0.2182  0.7977
  622MOL0     C83860   1.321  10.977   3.513 -0.2746  0.1629 -0.6022
  622MOL0     C83861   1.245  11.080   3.467  0.1031  0.0034 -0.4129
  622MOL0     C83862   1.184  11.166   3.552 -0.0967  1.0817  0.0778
  622MOL0     C83863   1.101  11.273   3.479  0.3128 -1.1972 -0.8751
  622MOL0     C83864   1.210  11.160   3.695  0.0130  0.4216  0.2153
  622MOL0     C83865   1.149  11.247   3.793 -0.5531 -0.5285 -0.5152
  622MOL0     O83866   1.023  11.302   3.756  0.0808  0.6987  0.4883
  622MOL0     C83867   0.958  11.407   3.823 -0.7129 -1.0695  0.2298
  622MOL0     C83868   0.821  11.422   3.832  0.8254 -0.6839  0.2173
  622MOL0     C83869   0.760  11.526   3.905 -0.0545  0.3030  0.3176
  622MOL0     C83870   0.843  11.618   3.974  0.5052  0.2614  0.0936
  622MOL0     O83871   0.783  11.715   4.047  0.3942  0.5828  0.1925
  622MOL0     C83872   0.834  11.730   4.176  0.1582  0.0606 -0.3439
  622MOL0     C83873   0.740  11.811   4.267 -0.9282 -0.8947 -0.3101
  622MOL0     C83874   0.601  11.758   4.256 -0.2933 -0.1164 -0.4726
  622MOL0     C83875   0.496  11.821   4.352 -0.5898 -0.7040  0.6909
  622MOL0     C83876   0.425  11.946   4.301 -0.0188  0.5699  0.5252
  622MOL0     C83877   0.310  11.983   4.389  0.2525  0.1188  0.0625
  622MOL0     C83878   0.210  12.090   4.350 -0.3704  0.0117  0.2937
  622MOL0     C83879   0.248  12.231   4.394 -0.8512  0.2979 -0.1600
  622MOL0    Cl83880   0.395  12.294   4.327  0.3329 -0.2418 -0.3121
  622MOL0     C83881   0.983  11.603   3.961 -0.9448 -0.4722 -0.5123
  622MOL0     C83882   1.042  11.501   3.894 -0.1921  0.1607  1.1918
  622MOL0     O83883   1.212  11.262   3.897  0.2265 -0.8075  0.0393
  622MOL0     C83884   1.305  11.065   3.743  0.0577  0.7846  0.7758
  622MOL0     C83885   1.353  10.969   3.652 -0.0097 -0.0799  0.7014
  622MOL0     N83886   1.727  10.366   3.425 -0.3138  0.7804  0.2683
  622MOL0     N83887   1.773  10.244   3.450  0.3072 -0.3336 -0.5828
  622MOL0     C83888   2.938   9.899   3.643  0.3149 -0.5446  0.1718
  622MOL0     C83889   3.073   9.911   3.665  0.5145  0.1733  0.8618
  622MOL0     C83890   3.498  10.113   3.698  0.0321  0.0287  0.1125
  622MOL0     C83891   3.549   9.992   3.737 -0.2274 -0.0532 -0.3116
  622MOL0     C83892   3.688   9.982   3.744  0.7169 -0.8303  1.2187
  622MOL0     C83893   3.776  10.085   3.701  0.7506 -0.2140 -0.3331
  622MOL0     O83894   3.910  10.049   3.703 -0.4731 -0.1260 -0.4017
  622MOL0     C83895   4.016  10.146   3.694  0.3870 -0.9243  0.5710
  622MOL0     C83896   4.131  10.111   3.788 -1.4987  0.5188  0.4073
  622MOL0     C83897   4.246  10.206   3.758  0.9802 -0.3240 -0.6948
  622MOL0     C83898   4.370  10.160   3.838 -0.5042 -1.0011  0.1537
  622MOL0     C83899   4.483  10.239   3.778  0.6715 -0.1359  0.5586
  622MOL0     C83900   4.579  10.308   3.750 -0.8236  0.4508 -0.2643
  622MOL0     C83901   3.722  10.206   3.674 -0.4972  0.9779  0.1614
  622MOL0     C83902   3.591  10.218   3.672  0.7988 -0.1550  0.1084
  622MOL0     H83903   3.100  10.254   3.643  3.3433 -1.4334 -0.5062
  622MOL0     H83904   2.850  10.224   3.605  1.3988  1.7595  1.0036
  622MOL0     H83905   2.666  10.184   3.557  3.7381  0.4216 -0.9663
  622MOL0     H83906   2.718  10.100   3.413 -1.3218  0.0377 -0.5368
  622MOL0     H83907   2.489  10.128   3.391  1.1588 -0.6170 -1.8018
  622MOL0     H83908   2.512   9.956   3.415 -0.0931 -0.0648  0.2755
  622MOL0     H83909   2.445   9.980   3.657 -0.7842  0.3763  0.5059
  622MOL0     H83910   2.450  10.151   3.627 -1.3262 -0.6083  1.8525
  622MOL0     H83911   2.266  10.106   3.447  1.0986 -2.7134 -2.6724
  622MOL0     H83912   2.262   9.936   3.527  2.3173  0.0856  1.7138
  622MOL0     H83913   2.200  10.022   3.735 -2.7350 -1.0044  0.6681
  622MOL0     H83914   2.177  10.190   3.683 -3.4541 -0.3922  1.6851
  622MOL0     H83915   2.020  10.094   3.491 -0.1477  1.6989  0.5069
  622MOL0     H83916   2.024   9.951   3.578 -0.3580 -0.2894  1.0497
  622MOL0     H83917   1.940  10.054   3.785 -1.6444 -1.4066 -1.0016
  622MOL0     H83918   1.933  10.208   3.740 -3.4027 -2.2281  3.3953
  622MOL0     H83919   1.713  10.056   3.730 -0.4341 -2.9723  0.1475
  622MOL0     H83920   1.778   9.992   3.594 -1.2662  1.5024 -0.2272
  622MOL0     H83921   1.644  10.331   3.742 -1.1377  0.4353  0.4842
  622MOL0     H83922   1.589  10.556   3.669  1.1779 -1.7343  1.3633
  622MOL0     H83923   1.667  10.625   3.527 -0.8725  0.4589 -1.1929
  622MOL0     H83924   1.399  10.468   3.504 -1.9538  0.9272 -1.3482
  622MOL0     H83925   1.488  10.536   3.371 -2.3031 -0.5187  0.4477
  622MOL0     H83926   1.377  10.699   3.614  0.4269 -2.8885  0.4331
  622MOL0     H83927   1.282  10.673   3.470 -0.9244 -1.9829  2.4253
  622MOL0     H83928   1.504  10.758   3.353  0.4902 -0.4285  0.1507
  622MOL0     H83929   1.542  10.832   3.515  0.9057 -0.8086 -1.0376
  622MOL0     H83930   1.236  11.098   3.360 -0.5020 -1.0520 -0.5559
  622MOL0     H83931   0.993  11.273   3.497  0.0883  0.9627 -1.9611
  622MOL0     H83932   1.140  11.364   3.524  0.4273 -0.1921 -2.8810
  622MOL0     H83933   1.116  11.271   3.370 -0.0861  1.1386 -1.0277
  622MOL0     H83934   0.746  11.361   3.783  0.1863  0.1616  0.1194
  622MOL0     H83935   0.653  11.535   3.923  0.2370  1.4467  1.6170
  622MOL0     H83936   0.843  11.634   4.228  0.7376  1.5652  2.5876
  622MOL0     H83937   0.934  11.774   4.178  0.6648 -0.7976  4.1691
  622MOL0     H83938   0.771  11.807   4.372 -1.8335  0.2429  0.0197
  622MOL0     H83939   0.751  11.915   4.235  1.2424 -0.5753  1.2469
  622MOL0     H83940   0.603  11.651   4.275  2.4218  0.2095  1.5707
  622MOL0     H83941   0.566  11.779   4.154 -0.1981  1.0932 -0.2767
  622MOL0     H83942   0.421  11.743   4.369 -0.5052 -0.5546  1.7832
  622MOL0     H83943   0.543  11.851   4.445  2.3469 -0.3267 -0.8118
  622MOL0     H83944   0.379  11.933   4.202  0.5875 -2.0413  0.4940
  622MOL0     H83945   0.499  12.024   4.284 -0.1950  0.7408  0.5484
  622MOL0     H83946   0.256  11.888   4.398 -2.2837  1.2298 -2.1685
  622MOL0     H83947   0.342  12.008   4.490 -0.0464  0.4009  0.0862
  622MOL0     H83948   0.112  12.068   4.393 -1.6673  1.1366 -1.9613
  622MOL0     H83949   0.197  12.097   4.242 -0.1775  1.6477  0.3556
  622MOL0     H83950   0.249  12.229   4.503  2.3056 -1.9412 -0.1112
  622MOL0     H83951   0.164  12.292   4.360 -1.0561 -0.1585 -0.4954
  622MOL0     H83952   1.049  11.681   3.997 -0.7854  0.4074 -2.5396
  622MOL0     H83953   1.148  11.499   3.873 -0.2714 -0.4535  0.8086
  622MOL0     H83954   1.329  11.050   3.848  0.3129 -2.2493  0.3720
  622MOL0     H83955   1.414  10.887   3.689 -1.7462 -0.9198  1.8124
  622MOL0     H83956   2.901   9.800   3.668  4.3373 -2.1402  0.5576
  622MOL0     H83957   3.125   9.821   3.696 -1.2196 -0.5134  1.9198
  622MOL0     H83958   3.489   9.906   3.766  3.4844 -1.6704  3.7947
  622MOL0     H83959   3.724   9.883   3.770  2.4903 -1.1830 -2.0202
  622MOL0     H83960   4.060  10.158   3.595 -0.0978 -0.7011  0.3732
  622MOL0     H83961   3.971  10.242   3.724  0.4589 -1.3761  2.2077
  622MOL0     H83962   4.156  10.006   3.773 -2.2922  0.0090  2.3877
  622MOL0     H83963   4.107  10.105   3.895 -1.1028  2.8907  0.6922
  622MOL0     H83964   4.214  10.307   3.785  0.7944 -0.7971  0.9483
  622MOL0     H83965   4.265  10.194   3.651 -1.2320 -2.4833 -0.9165
  622MOL0     H83966   4.397  10.055   3.821 -4.1501 -2.2032  0.7541
  622MOL0     H83967   4.354  10.178   3.945 -1.9817  2.6039 -0.5479
  622MOL0     H83968   4.658  10.371   3.716 -1.9841  1.0894 -1.8702
  622MOL0     H83969   3.780  10.295   3.651  0.6876  0.3576  0.6202
  622MOL0     H83970   3.554  10.317   3.647  2.3034  1.1704  2.6735
  623MOL0     O83971   8.544   2.056   1.306 -1.0722  0.2816  0.2796
  623MOL0     C83972   8.529   2.098   1.421 -0.0236 -0.1561  0.0007
  623MOL0     O83973   8.411   2.130   1.476 -0.2276  0.3185 -0.1231
  623MOL0     C83974   8.303   2.135   1.397  0.6354  0.4344 -0.4684
  623MOL0     C83975   8.211   2.029   1.383 -0.4239  0.4731 -0.3206
  623MOL0     C83976   8.097   2.048   1.308  0.2743  0.5083  0.0078
  623MOL0     C83977   8.052   2.172   1.264 -0.1413  0.5292 -0.8179
  623MOL0     O83978   7.930   2.177   1.200 -0.6546 -0.3280  0.8207
  623MOL0     C83979   7.865   2.299   1.179 -0.1821 -0.4095  0.3350
  623MOL0     C83980   7.751   2.288   1.081 -0.0220  0.7923  0.3724
  623MOL0     C83981   7.625   2.213   1.138 -0.0704  0.1949  0.4962
  623MOL0     C83982   7.512   2.188   1.035  0.5605 -0.4370 -0.5738
  623MOL0     C83983   7.398   2.118   1.105  0.7114  0.1619  0.5105
  623MOL0     C83984   7.407   1.964   1.113  0.5568  0.6626 -0.3385
  623MOL0     C83985   7.306   1.905   1.201 -1.0478  0.0437 -0.5303
  623MOL0     C83986   7.176   1.889   1.124 -0.1410  0.8413  0.1279
  623MOL0     N83987   7.072   1.820   1.205 -0.7832 -0.5613  0.7574
  623MOL0     C83988   7.003   1.878   1.310 -0.4218  0.0640 -0.1299
  623MOL0     C83989   6.902   1.791   1.339 -0.1923  0.3569 -0.1740
  623MOL0     C83990   6.804   1.804   1.462 -1.2401  0.5951 -0.0996
  623MOL0     C83991   6.710   1.922   1.456  0.4640 -0.0610 -0.7296
  623MOL0     C83992   6.647   1.926   1.315 -0.5821  0.3096 -0.6797
  623MOL0     C83993   6.559   1.807   1.285  0.6788  0.0823 -1.1003
  623MOL0     O83994   6.470   1.783   1.393 -0.4032  0.0710  0.3219
  623MOL0     C83995   6.349   1.858   1.402  0.1615  0.3367  0.1557
  623MOL0     C83996   6.301   1.947   1.307 -0.4145 -0.6491  0.8271
  623MOL0     C83997   6.186   2.034   1.329 -0.3218  0.4530  0.5716
  623MOL0     C83998   6.163   2.144   1.228  0.4486 -0.1283  0.2571
  623MOL0     C83999   6.097   2.000   1.439 -0.1310  0.6225 -0.1485
  623MOL0     C84000   5.954   2.033   1.466  0.6993 -1.2068 -0.0772
  623MOL0     O84001   5.894   1.986   1.580  0.5005  0.8725  0.3904
  623MOL0     C84002   5.760   2.016   1.616 -0.1964 -0.0795  0.1117
  623MOL0     C84003   5.723   2.053   1.742  0.8205  0.6948 -0.2943
  623MOL0     C84004   5.584   2.091   1.773  0.0898  0.0040 -0.0609
  623MOL0     C84005   5.483   2.080   1.675 -0.2600  0.2510 -0.2198
  623MOL0     O84006   5.354   2.113   1.701  0.2136 -0.1788  0.6039
  623MOL0     C84007   5.311   2.122   1.836  0.4081 -0.3278 -0.4686
  623MOL0     C84008   5.171   2.182   1.824  0.4961 -0.4343  0.1445
  623MOL0     C84009   5.093   2.191   1.955 -1.3943  0.5975 -0.0373
  623MOL0     C84010   4.939   2.190   1.928 -0.5492 -0.1102 -0.2266
  623MOL0     C84011   4.866   2.194   2.064 -0.6043  0.1650 -0.1663
  623MOL0     C84012   4.716   2.187   2.021  0.0406  0.0947 -0.3994
  623MOL0     C84013   4.663   2.290   1.917  0.1340  0.1108 -0.4528
  623MOL0     C84014   4.523   2.318   1.935  0.3292 -0.2173 -0.7903
  623MOL0    Cl84015   4.492   2.419   2.087  0.6205 -0.0659  0.0779
  623MOL0     C84016   5.515   2.039   1.553 -0.3732 -0.4691  0.3140
  623MOL0     C84017   5.649   2.011   1.517  0.0156 -0.1028 -0.2793
  623MOL0     O84018   5.900   2.116   1.384  0.1362  0.5540 -0.2888
  623MOL0     C84019   6.149   1.892   1.522 -0.4457 -0.3660 -0.2101
  623MOL0     C84020   6.271   1.832   1.511  0.1375 -0.5294  0.0719
  623MOL0     N84021   6.907   1.687   1.248 -0.4041 -0.3397  0.0536
  623MOL0     N84022   7.012   1.702   1.169 -0.9521 -0.1382  0.9334
  623MOL0     C84023   8.141   2.278   1.282 -0.0735 -0.0795  0.2197
  623MOL0     C84024   8.260   2.257   1.353  0.0209  0.9064  0.5965
  623MOL0     C84025   8.640   2.104   1.517  0.0975 -0.3638 -0.2535
  623MOL0     C84026   8.769   2.062   1.472  0.0603  0.1260  0.0236
  623MOL0     C84027   8.885   2.094   1.547  0.0071 -0.6331  0.0840
  623MOL0     C84028   8.879   2.164   1.667 -0.3863 -0.1734  0.8544
  623MOL0     O84029   8.983   2.224   1.733  0.5850 -0.1225 -0.0893
  623MOL0     C84030   9.113   2.172   1.716 -0.3454  0.1000 -0.0313
  623MOL0     C84031   9.189   2.216   1.837  0.0985  0.1307  0.5994
  623MOL0     C84032   9.333   2.161   1.843  1.0132  0.6369  0.3043
  623MOL0     C84033   9.394   2.199   1.977  0.0596  0.5444 -0.6597
  623MOL0     C84034   9.428   2.344   1.972 -0.0821  0.3487  0.6420
  623MOL0     C84035   9.439   2.459   1.955 -0.2327 -0.7015 -0.0580
  623MOL0     C84036   8.751   2.199   1.710  0.0623 -0.6336  0.8194
  623MOL0     C84037   8.630   2.173   1.637  0.1778  0.1417 -0.4799
  623MOL0     H84038   8.242   1.930   1.414 -0.6928  0.6765  0.6177
  623MOL0     H84039   8.032   1.962   1.291  2.5165 -1.3792  0.3861
  623MOL0     H84040   7.827   2.338   1.274 -0.7857  1.0961 -0.4856
  623MOL0     H84041   7.939   2.372   1.146  2.6430 -2.8492  0.7991
  623MOL0     H84042   7.718   2.388   1.051 -0.3243  1.0057  1.3789
  623MOL0     H84043   7.777   2.232   0.990  1.1200 -0.1693  1.2665
  623MOL0     H84044   7.652   2.117   1.184 -1.3369 -1.0170 -1.1812
  623MOL0     H84045   7.582   2.279   1.214 -1.5505  0.9097 -0.8972
  623MOL0     H84046   7.480   2.288   1.002 -2.0749 -0.3496  1.8017
  623MOL0     H84047   7.544   2.128   0.950 -1.4073 -1.7627 -0.4404
  623MOL0     H84048   7.388   2.159   1.206 -5.0725 -0.1873  0.3891
  623MOL0     H84049   7.303   2.142   1.058  0.0591 -0.6705  1.3558
  623MOL0     H84050   7.411   1.910   1.018  1.6043 -0.0288  0.0806
  623MOL0     H84051   7.506   1.951   1.157 -0.3794 -1.0477  1.4463
  623MOL0     H84052   7.344   1.806   1.229 -3.0331 -0.8446 -0.7808
  623MOL0     H84053   7.294   1.958   1.295  1.9829 -0.4221  0.2138
  623MOL0     H84054   7.193   1.834   1.031  1.7708  1.5992 -0.0081
  623MOL0     H84055   7.133   1.983   1.087  1.4552  0.2781 -3.5672
  623MOL0     H84056   7.030   1.960   1.376  0.4836 -1.7479  1.8498
  623MOL0     H84057   6.762   1.707   1.491  1.4858 -0.4022  0.8512
  623MOL0     H84058   6.878   1.831   1.538 -0.1473  1.0614 -1.2889
  623MOL0     H84059   6.764   2.015   1.477 -2.4181  2.0765 -1.9642
  623MOL0     H84060   6.632   1.914   1.533  0.7202  0.7006 -0.3873
  623MOL0     H84061   6.717   1.943   1.233  0.8001 -1.5023  0.0684
  623MOL0     H84062   6.584   2.016   1.313  0.6152  1.1804 -0.4501
  623MOL0     H84063   6.620   1.717   1.278  0.9412  0.1586 -0.0462
  623MOL0     H84064   6.504   1.832   1.194  0.9402 -0.0928 -1.3051
  623MOL0     H84065   6.366   1.973   1.224  0.3791 -1.8609  1.0528
  623MOL0     H84066   6.172   2.241   1.278  0.1758 -0.3213  0.6850
  623MOL0     H84067   6.237   2.136   1.148 -0.9462 -1.1192 -0.9962
  623MOL0     H84068   6.073   2.133   1.166  0.3582 -1.8928  0.6516
  623MOL0     H84069   5.800   2.057   1.819  1.1328 -2.0778 -0.3724
  623MOL0     H84070   5.573   2.127   1.875 -2.6574  2.0358 -0.9617
  623MOL0     H84071   5.295   2.021   1.874 -1.4802 -0.3025 -1.0997
  623MOL0     H84072   5.367   2.194   1.896  2.6279  0.4255 -3.2000
  623MOL0     H84073   5.172   2.280   1.775 -2.0791 -0.5484 -0.2593
  623MOL0     H84074   5.116   2.111   1.762  2.4172 -0.9392 -1.0566
  623MOL0     H84075   5.125   2.285   2.000 -1.1648  0.6075 -0.2184
  623MOL0     H84076   5.126   2.117   2.028 -1.4351  1.4027  0.8198
  623MOL0     H84077   4.908   2.277   1.870 -3.6229 -0.0594  1.2950
  623MOL0     H84078   4.912   2.099   1.872  0.4568 -2.1711  2.4305
  623MOL0     H84079   4.894   2.284   2.120  2.6243 -0.8666  0.1059
  623MOL0     H84080   4.886   2.114   2.136 -1.0145  1.1041  1.0278
  623MOL0     H84081   4.695   2.085   1.987 -0.3002  0.1908 -0.4893
  623MOL0     H84082   4.648   2.187   2.107  1.0887  1.3560  0.4659
  623MOL0     H84083   4.672   2.248   1.816 -2.8449 -2.2374  0.1159
  623MOL0     H84084   4.733   2.374   1.915  0.1030  0.1675 -3.0354
  623MOL0     H84085   4.475   2.220   1.939  0.7430 -0.4111 -0.4654
  623MOL0     H84086   4.494   2.381   1.850  2.0136  1.1888 -0.3920
  623MOL0     H84087   5.435   2.022   1.482  1.1306  1.7662 -2.1107
  623MOL0     H84088   5.670   1.974   1.417 -0.9831  3.2951 -1.8741
  623MOL0     H84089   6.082   1.853   1.598  0.2449 -0.0907  0.5593
  623MOL0     H84090   6.316   1.764   1.582 -1.8896  1.1608  3.1903
  623MOL0     H84091   8.124   2.381   1.253  1.5938 -0.0121 -0.6422
  623MOL0     H84092   8.315   2.348   1.377  0.0105  0.0518  4.3558
  623MOL0     H84093   8.780   2.013   1.376 -1.5363  0.4696 -0.3594
  623MOL0     H84094   8.979   2.075   1.497 -0.3368 -3.8726  0.4625
  623MOL0     H84095   9.116   2.063   1.717  2.6679  0.0737  2.7842
  623MOL0     H84096   9.154   2.212   1.623 -0.6740 -0.2950 -0.3457
  623MOL0     H84097   9.146   2.180   1.932  0.2087  1.3780  1.1389
  623MOL0     H84098   9.193   2.325   1.846 -0.6510  0.2175 -0.0541
  623MOL0     H84099   9.393   2.193   1.758 -1.6625  1.2874 -1.4704
  623MOL0     H84100   9.326   2.053   1.830  0.3628  0.7900 -0.7740
  623MOL0     H84101   9.477   2.135   2.007 -1.5816 -0.6503  1.5904
  623MOL0     H84102   9.318   2.190   2.055 -1.1405  1.1089 -1.7347
  623MOL0     H84103   9.451   2.565   1.943  0.0125 -0.6419  0.6568
  623MOL0     H84104   8.737   2.246   1.807 -0.2852  1.9809 -0.3978
  623MOL0     H84105   8.535   2.206   1.679  0.6425 -0.7600  1.4070
  624MOL0     O84106   6.380   5.908  10.063 -0.5037  0.4591  0.4976
  624MOL0     C84107   6.454   5.873   9.970  0.7508  0.5669 -0.3335
  624MOL0     O84108   6.433   5.760   9.889  0.2210  0.1891  0.2025
  624MOL0     C84109   6.308   5.704   9.896 -0.2750 -0.3588  0.5045
  624MOL0     C84110   6.269   5.581   9.952  0.1249 -0.1967 -0.2629
  624MOL0     C84111   6.137   5.534   9.949 -0.6685  0.0473  0.5530
  624MOL0     C84112   6.044   5.605   9.874 -0.1943  0.1040 -1.2431
  624MOL0     O84113   5.916   5.557   9.866 -0.4653  0.0495 -0.5200
  624MOL0     C84114   5.824   5.658   9.903  0.3646 -0.2216 -0.1491
  624MOL0     C84115   5.688   5.605   9.938  0.2631 -0.1173  0.2017
  624MOL0     C84116   5.610   5.553   9.813 -0.3199 -0.2449  0.1409
  624MOL0     C84117   5.494   5.464   9.852  0.2485  1.4357  0.2394
  624MOL0     C84118   5.422   5.384   9.737 -0.8806 -0.2847 -0.1087
  624MOL0     C84119   5.361   5.472   9.631 -0.2863  0.3537  0.5164
  624MOL0     C84120   5.247   5.560   9.686 -0.4513 -0.9890 -0.3352
  624MOL0     C84121   5.156   5.605   9.568 -0.1002 -0.3001 -0.6028
  624MOL0     N84122   5.043   5.701   9.600  0.0425  0.2081 -0.2481
  624MOL0     C84123   5.039   5.834   9.563 -0.4270 -0.3151  0.4083
  624MOL0     C84124   4.925   5.883   9.610  0.0871  0.1500  0.2110
  624MOL0     C84125   4.883   6.026   9.590 -1.1170  0.5936 -0.0206
  624MOL0     C84126   4.916   6.109   9.716 -0.2849  0.3135  0.6965
  624MOL0     C84127   4.858   6.257   9.710 -0.4443  0.7044 -0.3545
  624MOL0     C84128   4.709   6.270   9.685  0.6569 -0.3160 -0.2252
  624MOL0     O84129   4.643   6.163   9.754 -0.5536 -0.2831  0.4540
  624MOL0     C84130   4.552   6.200   9.850  0.3300 -0.6904  0.3342
  624MOL0     C84131   4.579   6.276   9.964 -1.3814 -0.9939 -0.3985
  624MOL0     C84132   4.481   6.304  10.055  0.1107 -0.7137 -0.2301
  624MOL0     C84133   4.516   6.392  10.170  0.7907  0.3118  0.2015
  624MOL0     C84134   4.355   6.245  10.038  0.0710 -0.1919  0.0088
  624MOL0     C84135   4.230   6.269  10.130 -0.4434  0.1382 -0.0341
  624MOL0     O84136   4.136   6.177  10.138  0.5216 -0.1462  0.2597
  624MOL0     C84137   4.011   6.220  10.184 -0.3597  0.2783  0.5299
  624MOL0     C84138   3.985   6.234  10.323  0.5864 -0.2374  0.1781
  624MOL0     C84139   3.867   6.291  10.364 -0.0481  1.3851 -0.1673
  624MOL0     C84140   3.758   6.318  10.270 -1.6637  0.2922 -0.6361
  624MOL0     O84141   3.633   6.342  10.306  0.2242 -0.6825 -0.5129
  624MOL0     C84142   3.591   6.341  10.441  0.0250 -0.7122  0.4819
  624MOL0     C84143   3.432   6.365  10.441  0.2620  1.5605 -0.0912
  624MOL0     C84144   3.383   6.331  10.592 -0.2886  0.2936 -0.1544
  624MOL0     C84145   3.242   6.291  10.583  0.2383  0.3703 -0.4878
  624MOL0     C84146   3.179   6.310  10.719  0.1971  0.1328  0.2631
  624MOL0     C84147   3.031   6.294  10.697 -0.1063  0.8514 -0.1181
  624MOL0     C84148   2.969   6.280  10.836 -0.0262  0.6697  0.1468
  624MOL0     C84149   2.993   6.394  10.937  0.4068 -0.1113 -0.2674
  624MOL0    Cl84150   2.882   6.361  11.072 -0.2275 -0.0930 -0.0376
  624MOL0     C84151   3.789   6.299  10.132  0.2057  0.0169  1.0216
  624MOL0     C84152   3.911   6.253  10.090 -0.2924 -1.1776  0.3786
  624MOL0     O84153   4.228   6.369  10.199  0.2545 -0.1066 -0.4470
  624MOL0     C84154   4.331   6.154   9.933 -0.3324 -0.0845 -0.2279
  624MOL0     C84155   4.434   6.132   9.835 -0.1120  0.1528  0.0818
  624MOL0     N84156   4.872   5.788   9.694 -0.0211  0.9224 -0.1810
  624MOL0     N84157   4.930   5.676   9.674 -0.9080  0.6961  0.0911
  624MOL0     C84158   6.082   5.717   9.806  0.2550  0.3409 -0.3979
  624MOL0     C84159   6.210   5.773   9.824 -0.2896  0.2714 -0.6171
  624MOL0     C84160   6.562   5.965   9.933  0.3001  1.1254 -0.3500
  624MOL0     C84161   6.629   5.950   9.807  0.2530  0.7095  0.1622
  624MOL0     C84162   6.732   6.039   9.762 -0.4022 -0.3527  0.2184
  624MOL0     C84163   6.761   6.150   9.842 -0.0925  0.1555 -0.3293
  624MOL0     O84164   6.864   6.235   9.803  0.5698  0.2092 -0.7117
  624MOL0     C84165   6.984   6.214   9.875 -0.7715  0.0306  0.0032
  624MOL0     C84166   7.104   6.296   9.817 -0.5968 -0.3773  0.3205
  624MOL0     C84167   7.230   6.292   9.900  0.2729 -0.1635 -0.0244
  624MOL0     C84168   7.235   6.397  10.018 -0.3659  0.9884  0.5826
  624MOL0     C84169   7.376   6.435  10.047  0.1441 -0.2037 -1.1365
  624MOL0     C84170   7.495   6.464  10.073  0.1602  0.7061  0.1473
  624MOL0     C84171   6.689   6.169   9.962  0.1408 -0.4385 -0.2517
  624MOL0     C84172   6.596   6.082  10.000  0.1210  0.6270  0.1580
  624MOL0     H84173   6.346   5.516   9.993 -2.0042 -0.6660  3.4022
  624MOL0     H84174   6.113   5.437   9.993 -0.7406 -0.9386 -1.5299
  624MOL0     H84175   5.854   5.715   9.991 -2.6546  1.0319  0.1778
  624MOL0     H84176   5.815   5.727   9.818  2.2622 -0.9672 -1.0139
  624MOL0     H84177   5.710   5.530  10.015  1.1029  0.3925  0.4680
  624MOL0     H84178   5.631   5.689   9.978  0.3918 -0.0105  0.1612
  624MOL0     H84179   5.568   5.637   9.756 -1.7955 -1.0044  0.0553
  624MOL0     H84180   5.673   5.492   9.747 -2.1984 -0.5779 -1.4546
  624MOL0     H84181   5.535   5.379   9.908  1.7589  1.3648 -0.9358
  624MOL0     H84182   5.429   5.525   9.917  1.1185  2.1871  0.4203
  624MOL0     H84183   5.494   5.318   9.688  1.2795  0.7838  1.4749
  624MOL0     H84184   5.354   5.305   9.771 -1.5561 -0.2392 -1.3221
  624MOL0     H84185   5.440   5.542   9.602 -0.8336  1.5518  1.7605
  624MOL0     H84186   5.324   5.408   9.551 -0.4471 -1.2246  1.8148
  624MOL0     H84187   5.194   5.501   9.762  3.3815 -3.4147  0.7703
  624MOL0     H84188   5.298   5.640   9.739  1.1918 -1.5318 -1.0361
  624MOL0     H84189   5.103   5.520   9.524  1.1220  0.2902 -3.4399
  624MOL0     H84190   5.218   5.661   9.497 -1.9479  2.6701 -0.0579
  624MOL0     H84191   5.114   5.884   9.502  0.2870 -0.9446  0.7532
  624MOL0     H84192   4.926   6.061   9.496 -0.3790 -3.1329 -1.2005
  624MOL0     H84193   4.775   6.035   9.571 -1.2517 -0.9808 -0.1334
  624MOL0     H84194   5.024   6.123   9.726 -0.1370 -0.6603  0.5348
  624MOL0     H84195   4.874   6.056   9.801 -0.5104  3.2342  2.5608
  624MOL0     H84196   4.904   6.321   9.634  4.6876 -0.1706  1.5897
  624MOL0     H84197   4.882   6.305   9.806 -1.1427 -0.7814  0.6064
  624MOL0     H84198   4.685   6.254   9.580  0.6746 -1.5564 -0.0550
  624MOL0     H84199   4.661   6.364   9.714 -1.9235 -1.6451  0.0624
  624MOL0     H84200   4.680   6.315   9.973 -1.9759  0.8377 -1.2154
  624MOL0     H84201   4.622   6.417  10.181  0.0345  3.6209  1.1844
  624MOL0     H84202   4.461   6.487  10.172  1.4607  0.7064  2.7199
  624MOL0     H84203   4.470   6.356  10.262 -1.7101 -1.1232 -1.4983
  624MOL0     H84204   4.070   6.213  10.387  0.5008  0.4252  0.5154
  624MOL0     H84205   3.851   6.301  10.471  0.1783  1.5201 -0.1448
  624MOL0     H84206   3.611   6.242  10.482 -0.3106 -0.3086  1.6645
  624MOL0     H84207   3.628   6.422  10.505 -0.3720 -0.2965  0.1930
  624MOL0     H84208   3.399   6.464  10.408 -1.2780  0.7837 -1.0002
  624MOL0     H84209   3.385   6.286  10.382 -1.6303  0.6407  2.4321
  624MOL0     H84210   3.396   6.417  10.658 -1.9159  0.0387  0.5308
  624MOL0     H84211   3.441   6.251  10.640 -0.6571 -0.1172 -0.3932
  624MOL0     H84212   3.190   6.357  10.513 -0.0305  1.0816  0.3551
  624MOL0     H84213   3.237   6.189  10.547  2.0192  0.0359  0.0848
  624MOL0     H84214   3.191   6.414  10.748 -1.1729  0.5062 -0.4543
  624MOL0     H84215   3.214   6.250  10.805  0.4885  0.3760  0.3159
  624MOL0     H84216   2.984   6.380  10.648  0.4922  1.0780 -0.3043
  624MOL0     H84217   3.007   6.202  10.642  2.3073 -0.5219  0.9576
  624MOL0     H84218   3.005   6.183  10.873  2.0825  0.3101 -2.5034
  624MOL0     H84219   2.861   6.272  10.828  0.1054 -1.7506 -0.1232
  624MOL0     H84220   2.992   6.499  10.908 -0.4775  0.4554  1.6433
  624MOL0     H84221   3.088   6.377  10.989 -0.1167  0.0004  0.7596
  624MOL0     H84222   3.700   6.312  10.071 -0.1511  1.2977  1.7709
  624MOL0     H84223   3.930   6.257   9.983 -3.0925 -0.6577 -0.1688
  624MOL0     H84224   4.231   6.114   9.919  0.1885 -0.8986 -2.0373
  624MOL0     H84225   4.415   6.064   9.752 -0.0135 -2.0688  1.7859
  624MOL0     H84226   6.015   5.766   9.737 -0.7518 -0.6327 -0.1362
  624MOL0     H84227   6.247   5.862   9.773  0.2912  0.2455 -0.2471
  624MOL0     H84228   6.611   5.859   9.751  4.0540 -0.4649  0.5469
  624MOL0     H84229   6.787   6.009   9.673 -1.3353  3.4696 -1.8564
  624MOL0     H84230   6.967   6.242   9.979  2.1405  0.3537  0.4742
  624MOL0     H84231   7.009   6.108   9.879 -0.2450  0.2015  2.8994
  624MOL0     H84232   7.068   6.395   9.789 -0.2044  1.0906  4.3611
  624MOL0     H84233   7.145   6.249   9.727  0.4939  0.7139  0.2369
  624MOL0     H84234   7.313   6.305   9.830 -2.4504  0.5312 -3.4324
  624MOL0     H84235   7.243   6.193   9.945  0.5153 -1.2497 -2.3404
  624MOL0     H84236   7.196   6.349  10.109  0.7173  0.4157  0.7629
  624MOL0     H84237   7.181   6.491  10.001  0.5403  1.7328  1.6767
  624MOL0     H84238   7.600   6.476  10.087  0.6622 -1.9463 -0.8580
  624MOL0     H84239   6.707   6.256  10.024 -1.0624  0.4532 -1.0874
  624MOL0     H84240   6.536   6.107  10.087 -1.4634  0.4857 -0.8586
  625MOL0     O84241   5.662   7.655   7.976  0.2185 -0.5728  0.3761
  625MOL0     C84242   5.776   7.636   7.931  0.1896 -0.1208  0.4757
  625MOL0     O84243   5.804   7.603   7.806  0.6982 -0.1335  0.7237
  625MOL0     C84244   5.700   7.545   7.741 -0.3353 -0.0204 -0.3819
  625MOL0     C84245   5.690   7.406   7.738 -0.1293  0.3301 -0.4104
  625MOL0     C84246   5.583   7.341   7.673 -0.1232 -0.3148 -0.4374
  625MOL0     C84247   5.474   7.415   7.615 -0.9772  0.0432 -0.3645
  625MOL0     O84248   5.360   7.371   7.554  0.3618  0.4156 -0.5010
  625MOL0     C84249   5.349   7.232   7.521  1.2233 -0.0067 -0.2972
  625MOL0     C84250   5.202   7.205   7.496 -1.4216 -0.0093  0.1417
  625MOL0     C84251   5.144   7.270   7.367  1.1929 -0.0232 -0.0218
  625MOL0     C84252   5.221   7.209   7.246  0.5797 -0.5802  0.0304
  625MOL0     C84253   5.162   7.252   7.114 -0.1428  0.1345 -0.8004
  625MOL0     C84254   5.160   7.401   7.088  0.0443 -0.2075 -0.1378
  625MOL0     C84255   5.096   7.445   6.954 -0.9750  0.1348  0.2684
  625MOL0     C84256   5.114   7.597   6.912  0.5855  0.6250 -1.2723
  625MOL0     N84257   5.020   7.683   6.987  0.1197  0.3166 -1.0007
  625MOL0     C84258   4.896   7.724   6.947  0.4510  1.0979 -1.0410
  625MOL0     C84259   4.854   7.785   7.062 -0.1358 -0.1699 -0.1777
  625MOL0     C84260   4.723   7.865   7.061 -0.9598 -0.4550 -0.3373
  625MOL0     C84261   4.749   8.023   7.049  0.3695  0.0085  0.4111
  625MOL0     C84262   4.616   8.105   7.045  0.1749 -0.2452 -0.2070
  625MOL0     C84263   4.660   8.252   7.029  0.0308 -0.4521 -0.0357
  625MOL0     O84264   4.549   8.328   6.986  0.0308 -0.0823  0.3669
  625MOL0     C84265   4.451   8.365   7.068 -0.3785  0.5873 -0.1996
  625MOL0     C84266   4.465   8.379   7.206 -0.2201 -0.2168 -0.0529
  625MOL0     C84267   4.360   8.433   7.280 -0.1437  0.4903  0.1551
  625MOL0     C84268   4.388   8.470   7.426 -0.9637 -0.1282 -0.2521
  625MOL0     C84269   4.229   8.465   7.216 -1.4207 -0.0640 -0.1083
  625MOL0     C84270   4.123   8.536   7.286  0.1642 -0.5548  0.1106
  625MOL0     O84271   4.048   8.611   7.199 -0.1566  0.2394 -0.2484
  625MOL0     C84272   3.937   8.674   7.239 -0.4252  0.2755  0.6649
  625MOL0     C84273   3.823   8.677   7.154 -0.1318  0.8524  0.1170
  625MOL0     C84274   3.704   8.745   7.193 -0.3159 -0.1978  0.5963
  625MOL0     C84275   3.707   8.823   7.312 -0.6480 -0.1014  0.6713
  625MOL0     O84276   3.601   8.905   7.338 -0.2685 -0.2321 -0.3401
  625MOL0     C84277   3.587   8.978   7.459 -0.5607  0.3382  0.4941
  625MOL0     C84278   3.454   9.060   7.451 -0.3720  0.6384  0.9288
  625MOL0     C84279   3.340   8.955   7.490  0.1841 -0.2572  0.6629
  625MOL0     C84280   3.197   8.993   7.456  0.6324  0.2298  0.3132
  625MOL0     C84281   3.143   9.125   7.522 -0.6075  0.0744  0.1033
  625MOL0     C84282   2.996   9.151   7.485  0.5497  0.1851  0.5132
  625MOL0     C84283   2.941   9.290   7.515 -0.3651 -0.8943  0.0323
  625MOL0     C84284   3.013   9.397   7.440 -0.4282  0.2496  0.2547
  625MOL0    Cl84285   2.972   9.376   7.268 -0.2179  0.3664 -0.4275
  625MOL0     C84286   3.819   8.817   7.391 -0.7419  0.4600 -0.7088
  625MOL0     C84287   3.930   8.747   7.360  0.2852  0.1746 -0.7063
  625MOL0     O84288   4.103   8.527   7.410 -0.2929  0.9280  0.1389
  625MOL0     C84289   4.216   8.433   7.083 -0.5957  0.2397 -0.1807
  625MOL0     C84290   4.332   8.393   7.007  0.6084  0.6757 -0.6262
  625MOL0     N84291   4.961   7.805   7.157 -0.0618 -0.1575  1.4602
  625MOL0     N84292   5.058   7.733   7.110  0.2037 -0.2360  0.0010
  625MOL0     C84293   5.493   7.554   7.608 -0.7788 -0.4455 -0.1958
  625MOL0     C84294   5.599   7.619   7.676  0.0696 -0.1504 -0.3335
  625MOL0     C84295   5.889   7.674   8.023  0.1373 -0.5963  0.0884
  625MOL0     C84296   6.016   7.690   7.971  0.9944  0.0679  0.5681
  625MOL0     C84297   6.124   7.739   8.046  0.4117 -0.5350  0.2700
  625MOL0     C84298   6.097   7.773   8.182 -0.3875 -0.5298  0.4880
  625MOL0     O84299   6.189   7.829   8.272 -0.0279 -0.1213 -0.3482
  625MOL0     C84300   6.318   7.846   8.202 -0.2224 -0.2541 -0.5457
  625MOL0     C84301   6.400   7.960   8.262 -0.2349  0.3810  0.5529
  625MOL0     C84302   6.548   7.923   8.254  0.8821  0.1643 -0.2822
  625MOL0     C84303   6.633   8.026   8.321 -0.1757 -0.0500  0.7711
  625MOL0     C84304   6.769   7.987   8.337 -0.9736 -0.0173  0.1983
  625MOL0     C84305   6.888   7.962   8.358  0.2651  0.5433  0.2723
  625MOL0     C84306   5.975   7.754   8.228 -1.0716  0.0831 -0.1638
  625MOL0     C84307   5.874   7.726   8.147 -0.3253  0.3449  0.7061
  625MOL0     H84308   5.766   7.351   7.793 -1.6055  0.3113  1.7115
  625MOL0     H84309   5.585   7.232   7.678 -1.0210 -0.3197  0.2187
  625MOL0     H84310   5.415   7.199   7.441 -1.3435  0.0258 -2.5545
  625MOL0     H84311   5.372   7.174   7.611  2.8342  0.9082 -0.0724
  625MOL0     H84312   5.190   7.096   7.487 -3.8145  0.3822 -3.0559
  625MOL0     H84313   5.143   7.240   7.581  0.6226 -1.0756  2.1031
  625MOL0     H84314   5.039   7.239   7.359  1.6527 -1.3970 -0.9182
  625MOL0     H84315   5.147   7.379   7.367 -1.7812  0.2277  2.8194
  625MOL0     H84316   5.329   7.222   7.247  0.5441 -0.2660  0.1237
  625MOL0     H84317   5.203   7.102   7.261  1.0247 -0.8552 -1.2755
  625MOL0     H84318   5.206   7.205   7.026 -2.9398  0.4355 -2.4634
  625MOL0     H84319   5.059   7.215   7.110  0.4706 -1.5884 -2.0582
  625MOL0     H84320   5.113   7.456   7.171  0.0300  0.5520 -0.6438
  625MOL0     H84321   5.263   7.436   7.082  0.2200 -0.7068 -0.1056
  625MOL0     H84322   5.147   7.385   6.879 -0.1885  2.5947 -1.2975
  625MOL0     H84323   4.989   7.425   6.951 -1.0831  0.6206  0.7474
  625MOL0     H84324   5.089   7.600   6.806  1.0798  0.1875 -1.4066
  625MOL0     H84325   5.218   7.632   6.919  0.5464  0.5021  0.7165
  625MOL0     H84326   4.837   7.715   6.857 -4.6484 -3.4300  2.1492
  625MOL0     H84327   4.664   7.834   6.974 -2.3603 -0.5112  0.6148
  625MOL0     H84328   4.682   7.852   7.161  6.0143 -0.4620  3.1685
  625MOL0     H84329   4.801   8.034   6.954  2.7181 -0.6434  1.5164
  625MOL0     H84330   4.820   8.051   7.127 -0.0547  0.4844  0.6266
  625MOL0     H84331   4.558   8.088   7.136  0.2088  0.1559 -0.1075
  625MOL0     H84332   4.553   8.084   6.959 -0.5601 -0.3509  0.3459
  625MOL0     H84333   4.737   8.265   6.953  2.2400 -0.5772  2.0455
  625MOL0     H84334   4.708   8.287   7.121  1.8687 -0.4012 -0.9626
  625MOL0     H84335   4.562   8.345   7.241  0.3651  2.3185  0.9651
  625MOL0     H84336   4.334   8.414   7.502  2.3977  1.2683  3.5624
  625MOL0     H84337   4.493   8.460   7.458 -1.5114 -1.7223  1.1768
  625MOL0     H84338   4.365   8.576   7.434  0.3308  0.0172  3.3828
  625MOL0     H84339   3.840   8.610   7.071  1.9444  0.5566  0.7059
  625MOL0     H84340   3.619   8.732   7.128  2.0277 -0.9886 -2.5967
  625MOL0     H84341   3.585   8.907   7.542 -2.0642 -2.6924 -1.9028
  625MOL0     H84342   3.662   9.057   7.470 -2.6014  2.7911 -1.7266
  625MOL0     H84343   3.463   9.141   7.524  1.8233 -0.1510  1.6205
  625MOL0     H84344   3.440   9.104   7.352  1.3722 -0.2095  0.2702
  625MOL0     H84345   3.352   8.941   7.597  3.2636 -0.5442  0.3878
  625MOL0     H84346   3.368   8.860   7.442 -2.3815 -1.3485  1.1809
  625MOL0     H84347   3.195   9.004   7.348  1.4934  1.8678  0.4228
  625MOL0     H84348   3.141   8.911   7.502  0.8243  0.8251  1.6547
  625MOL0     H84349   3.210   9.208   7.498  0.2524  0.4562  3.3721
  625MOL0     H84350   3.163   9.107   7.628  0.2662  1.4464  0.2025
  625MOL0     H84351   2.978   9.136   7.379  1.0779  1.6957  0.1817
  625MOL0     H84352   2.937   9.072   7.532  0.5424 -2.1315 -3.0267
  625MOL0     H84353   2.947   9.303   7.624  0.3831  0.2295 -0.1235
  625MOL0     H84354   2.835   9.305   7.492 -0.7633  1.8423  2.9561
  625MOL0     H84355   3.122   9.400   7.451 -0.3887  1.1212 -0.2148
  625MOL0     H84356   2.978   9.495   7.474 -0.9850 -1.2544  4.6343
  625MOL0     H84357   3.828   8.886   7.475  0.9652 -1.6904  1.0198
  625MOL0     H84358   4.017   8.747   7.425 -0.3296 -2.9225  0.2639
  625MOL0     H84359   4.124   8.454   7.030 -0.5248 -0.3304 -0.5486
  625MOL0     H84360   4.325   8.386   6.899 -1.5808  1.3954 -0.5882
  625MOL0     H84361   5.437   7.626   7.548 -0.0952  0.5357  0.3136
  625MOL0     H84362   5.623   7.724   7.684  3.8560 -0.9759  1.5087
  625MOL0     H84363   6.048   7.660   7.871  1.2554 -1.4297  1.0676
  625MOL0     H84364   6.223   7.750   8.001  1.9853 -2.3263  3.0095
  625MOL0     H84365   6.378   7.755   8.213 -1.8531 -1.4626 -1.1971
  625MOL0     H84366   6.301   7.884   8.101 -0.3859 -1.6214 -1.0615
  625MOL0     H84367   6.362   7.969   8.364  1.1109  0.4583  1.0574
  625MOL0     H84368   6.392   8.050   8.200  1.1352 -0.1004 -0.3548
  625MOL0     H84369   6.576   7.924   8.149  1.3966  2.3620 -0.1687
  625MOL0     H84370   6.567   7.822   8.294 -0.5626 -0.2656 -0.6081
  625MOL0     H84371   6.598   8.041   8.423 -0.7287 -1.2623  0.7744
  625MOL0     H84372   6.628   8.120   8.265  0.2855  0.3369  1.3746
  625MOL0     H84373   6.990   7.932   8.359 -0.4865 -2.2731  0.4655
  625MOL0     H84374   5.947   7.792   8.326 -0.8125 -1.0235  0.3455
  625MOL0     H84375   5.771   7.746   8.176 -1.2681 -1.4992 -1.0819
  626MOL0     O84376   3.932   9.520   5.629  0.2928  0.2470 -0.0984
  626MOL0     C84377   4.021   9.450   5.680  1.1529 -0.2245  0.1796
  626MOL0     O84378   3.995   9.345   5.761 -0.0323  0.2770  0.0696
  626MOL0     C84379   3.861   9.315   5.772  0.4912  0.3135 -0.1451
  626MOL0     C84380   3.829   9.193   5.713  0.3446  0.0653  0.4143
  626MOL0     C84381   3.702   9.145   5.723 -1.4108  0.1623 -0.0521
  626MOL0     C84382   3.607   9.216   5.798  0.3407 -0.3943 -0.3727
  626MOL0     O84383   3.478   9.160   5.789  0.4919 -0.6757 -0.2475
  626MOL0     C84384   3.407   9.204   5.671 -0.9248 -0.3435 -0.1690
  626MOL0     C84385   3.270   9.145   5.663 -0.1524 -0.2148 -0.1187
  626MOL0     C84386   3.201   9.208   5.784 -0.7327  0.1742 -0.1743
  626MOL0     C84387   3.051   9.209   5.768  0.6276 -0.2979 -0.2105
  626MOL0     C84388   2.975   9.302   5.868  0.1955 -0.4364  0.3529
  626MOL0     C84389   3.011   9.267   6.013 -0.4636 -0.2177 -0.0079
  626MOL0     C84390   2.932   9.359   6.123  0.4199  0.4499  0.3350
  626MOL0     C84391   2.948   9.289   6.269 -0.2012 -0.1972 -0.1695
  626MOL0     N84392   2.825   9.325   6.345  0.2434 -0.7897  0.1047
  626MOL0     C84393   2.818   9.429   6.438  0.0657 -0.0809  0.6099
  626MOL0     C84394   2.705   9.410   6.509 -0.0212 -0.8866  0.3411
  626MOL0     C84395   2.671   9.492   6.632  0.1992  0.5560  0.4984
  626MOL0     C84396   2.529   9.546   6.605  0.4060  0.1019  0.6304
  626MOL0     C84397   2.462   9.617   6.721 -0.1013  0.8474 -0.1868
  626MOL0     C84398   2.388   9.521   6.812  0.2777  0.0116  0.2469
  626MOL0     O84399   2.264   9.491   6.747  0.1793 -0.5845 -0.7126
  626MOL0     C84400   2.145   9.519   6.806  0.3682  0.4039 -0.0485
  626MOL0     C84401   2.132   9.538   6.946 -0.3865  0.4083  0.4521
  626MOL0     C84402   2.008   9.575   6.991  0.4429  0.5303 -0.8912
  626MOL0     C84403   1.980   9.578   7.136  0.1303  0.0325  0.6399
  626MOL0     C84404   1.896   9.597   6.906 -0.6086  0.4440  0.6960
  626MOL0     C84405   1.765   9.643   6.953 -0.3271 -0.9952 -0.3251
  626MOL0     O84406   1.655   9.609   6.881  0.2155 -0.4998 -0.5575
  626MOL0     C84407   1.533   9.663   6.919  0.6833 -0.9461 -0.0468
  626MOL0     C84408   1.459   9.748   6.834 -0.1714  0.4714  0.2333
  626MOL0     C84409   1.329   9.786   6.863 -0.3577 -0.1631  0.1686
  626MOL0     C84410   1.269   9.743   6.984 -0.3654 -0.2980  0.2878
  626MOL0     O84411   1.137   9.761   7.015  0.1064  0.6525  0.7541
  626MOL0     C84412   1.052   9.816   6.919 -0.0527  0.1637 -0.3442
  626MOL0     C84413   0.921   9.836   6.991 -0.5632 -0.7411 -0.3254
  626MOL0     C84414   0.836   9.708   6.962 -0.4833  0.3344  0.0218
  626MOL0     C84415   0.695   9.726   6.998 -0.1147 -0.6364 -0.2919
  626MOL0     C84416   0.611   9.610   6.945 -0.4554 -0.1927  0.5251
  626MOL0     C84417   0.477   9.597   7.019  0.6433 -0.4296  0.2950
  626MOL0     C84418   0.375   9.696   6.966 -0.0563  0.6625  0.8738
  626MOL0     C84419   0.238   9.682   7.021  0.1718  0.6204 -0.2440
  626MOL0    Cl84420   0.255   9.676   7.196 -0.1922 -0.4557 -0.7756
  626MOL0     C84421   1.338   9.657   7.073  0.0302 -1.2061  0.3350
  626MOL0     C84422   1.467   9.618   7.037  0.1536  0.0737 -0.3988
  626MOL0     O84423   1.763   9.719   7.050 -0.4509 -0.7808  0.4817
  626MOL0     C84424   1.910   9.564   6.771 -0.1080  1.1705 -0.5309
  626MOL0     C84425   2.033   9.525   6.723  0.4481  0.0416  0.0036
  626MOL0     N84426   2.648   9.293   6.469 -0.3733  0.3192 -1.1244
  626MOL0     N84427   2.719   9.235   6.365 -0.8123 -0.1812 -0.0878
  626MOL0     C84428   3.631   9.346   5.845  0.5368 -0.7047 -0.3745
  626MOL0     C84429   3.763   9.400   5.841  0.0862  0.3276  0.3966
  626MOL0     C84430   4.159   9.497   5.665  0.0379 -0.1839 -0.2085
  626MOL0     C84431   4.200   9.609   5.589  0.0176 -0.2824 -0.5511
  626MOL0     C84432   4.337   9.637   5.581 -0.3436 -0.2014  0.7256
  626MOL0     C84433   4.437   9.569   5.653 -0.5836  0.2456  0.5053
  626MOL0     O84434   4.576   9.598   5.661  0.1263  0.4575  0.2654
  626MOL0     C84435   4.617   9.695   5.556 -0.3731  0.0466 -0.1475
  626MOL0     C84436   4.766   9.720   5.577  0.4544 -0.7413  0.0772
  626MOL0     C84437   4.838   9.586   5.560 -0.6721 -0.4727 -0.2836
  626MOL0     C84438   4.996   9.628   5.565  0.0615  0.6925 -0.3738
  626MOL0     C84439   5.040   9.665   5.434 -0.1406  0.4372 -1.0128
  626MOL0     C84440   5.076   9.695   5.322  0.8259  0.6490  0.5811
  626MOL0     C84441   4.392   9.468   5.731 -0.6691 -0.4955  0.6154
  626MOL0     C84442   4.258   9.426   5.731 -0.8402 -0.6095 -0.0573
  626MOL0     H84443   3.906   9.150   5.650  2.7957  2.8928  1.2100
  626MOL0     H84444   3.689   9.048   5.676 -2.8353 -0.2282  1.0733
  626MOL0     H84445   3.409   9.313   5.665  1.7422 -0.3300 -0.2689
  626MOL0     H84446   3.465   9.174   5.583  0.5215  0.9285  0.3041
  626MOL0     H84447   3.236   9.179   5.565  1.1806 -1.5011 -1.0710
  626MOL0     H84448   3.266   9.036   5.666  0.3420 -0.2602 -0.8766
  626MOL0     H84449   3.226   9.139   5.865 -0.6919 -0.8763 -1.0463
  626MOL0     H84450   3.235   9.307   5.814  0.9467 -0.4290  0.0211
  626MOL0     H84451   3.041   9.254   5.669 -0.0984  0.4124  0.1774
  626MOL0     H84452   3.003   9.111   5.756 -0.7369  0.5863 -2.8508
  626MOL0     H84453   2.994   9.407   5.843  0.9597 -0.6950 -0.2121
  626MOL0     H84454   2.871   9.275   5.849  0.3456 -1.2647  0.6765
  626MOL0     H84455   2.988   9.161   6.021  0.8125 -0.6044 -1.1970
  626MOL0     H84456   3.116   9.293   6.027 -1.2732  1.9888  3.3478
  626MOL0     H84457   2.966   9.463   6.119 -0.6277  0.7758 -0.9659
  626MOL0     H84458   2.828   9.364   6.088  0.6693  1.4335 -0.2944
  626MOL0     H84459   3.040   9.320   6.318  0.7800 -1.9739 -0.7682
  626MOL0     H84460   2.954   9.180   6.260  3.5978 -0.2065  0.6950
  626MOL0     H84461   2.896   9.503   6.448  0.1740 -0.1969  0.6271
  626MOL0     H84462   2.679   9.422   6.715 -0.0471  0.1258  0.1666
  626MOL0     H84463   2.740   9.575   6.648 -3.4097  4.2266 -1.2918
  626MOL0     H84464   2.461   9.467   6.573 -2.1810  2.6904 -0.6662
  626MOL0     H84465   2.532   9.624   6.529  0.0419 -1.6669 -1.2793
  626MOL0     H84466   2.390   9.688   6.679 -0.3836 -0.3251 -1.8033
  626MOL0     H84467   2.534   9.676   6.778  1.8870 -0.8144 -0.8655
  626MOL0     H84468   2.382   9.580   6.904 -0.5662  2.5861 -1.3721
  626MOL0     H84469   2.450   9.431   6.820  2.1066  1.0622 -1.2300
  626MOL0     H84470   2.219   9.535   7.011 -1.7085  0.2705  2.2760
  626MOL0     H84471   1.896   9.511   7.160  1.9858 -3.1364 -1.1282
  626MOL0     H84472   2.055   9.523   7.193 -0.3880 -1.5081 -0.1326
  626MOL0     H84473   1.977   9.681   7.175  3.1359 -0.3310  2.1254
  626MOL0     H84474   1.511   9.779   6.745  4.1351 -0.3884  2.2216
  626MOL0     H84475   1.285   9.859   6.796 -2.0982 -0.0604  1.3722
  626MOL0     H84476   1.097   9.913   6.896  1.6696 -0.5021  0.0255
  626MOL0     H84477   1.040   9.759   6.827  1.9522 -0.4711 -0.2682
  626MOL0     H84478   0.939   9.851   7.098  0.6092  0.6447 -0.6887
  626MOL0     H84479   0.879   9.925   6.943  2.3628  1.3343  0.6911
  626MOL0     H84480   0.879   9.624   7.018 -0.2204  1.0790  0.9671
  626MOL0     H84481   0.851   9.689   6.855  3.5465  2.9606 -0.1112
  626MOL0     H84482   0.694   9.745   7.106  0.3821 -0.6446 -0.2809
  626MOL0     H84483   0.653   9.814   6.950 -1.9255 -1.3275 -0.0640
  626MOL0     H84484   0.676   9.523   6.961  2.2400  2.1433  3.9070
  626MOL0     H84485   0.582   9.635   6.843  1.5344  0.3343  0.0424
  626MOL0     H84486   0.442   9.495   6.999  1.6968 -0.6199 -0.6868
  626MOL0     H84487   0.503   9.619   7.123 -0.5341  1.6152  0.2018
  626MOL0     H84488   0.364   9.669   6.860 -0.5190 -2.5006  1.6132
  626MOL0     H84489   0.404   9.801   6.975 -1.8968  1.0424  3.3345
  626MOL0     H84490   0.196   9.587   6.987 -0.9168 -0.2169  3.0966
  626MOL0     H84491   0.171   9.761   6.985  0.3633  0.8503 -0.0923
  626MOL0     H84492   1.294   9.614   7.162 -2.2606  0.0782 -0.0971
  626MOL0     H84493   1.515   9.554   7.110  1.8539  0.9828 -0.6919
  626MOL0     H84494   1.811   9.563   6.727 -0.2254 -0.8516 -0.2892
  626MOL0     H84495   2.048   9.515   6.616  1.9818  1.1294  0.0853
  626MOL0     H84496   3.548   9.402   5.886 -0.9265 -1.5989 -1.9962
  626MOL0     H84497   3.795   9.501   5.865  0.2027  0.1954  0.8196
  626MOL0     H84498   4.129   9.664   5.528  0.0176 -0.4140 -0.6705
  626MOL0     H84499   4.363   9.722   5.517  0.4202 -1.7885 -1.1756
  626MOL0     H84500   4.589   9.658   5.457  3.4512  2.2471 -2.2973
  626MOL0     H84501   4.561   9.787   5.576 -1.1985 -0.0799 -1.7259
  626MOL0     H84502   4.796   9.777   5.665 -2.3497 -1.2508  1.4544
  626MOL0     H84503   4.784   9.790   5.495 -4.3430 -0.1104 -0.7083
  626MOL0     H84504   4.809   9.542   5.464  1.7916 -2.1767 -0.3378
  626MOL0     H84505   4.805   9.520   5.641 -0.0671  1.2525  1.4481
  626MOL0     H84506   5.053   9.539   5.591 -1.2057  0.9979  4.3746
  626MOL0     H84507   5.008   9.710   5.637 -0.3190  1.2074 -0.8823
  626MOL0     H84508   5.127   9.724   5.232  0.3900 -1.9469 -0.6019
  626MOL0     H84509   4.467   9.418   5.791  1.2152  1.0774 -0.2900
  626MOL0     H84510   4.224   9.331   5.772 -2.4859 -0.1436 -0.2407
  627MOL0     O84511   6.746   9.943   2.505  0.0054 -0.4595  0.2281
  627MOL0     C84512   6.710   9.877   2.406 -0.3830 -0.0645 -0.3580
  627MOL0     O84513   6.582   9.832   2.389  0.8990 -0.2132  0.0969
  627MOL0     C84514   6.497   9.815   2.494 -0.5868 -0.1974 -0.4796
  627MOL0     C84515   6.536   9.791   2.628 -0.0347 -0.3776 -1.0740
  627MOL0     C84516   6.443   9.771   2.727 -0.5911  0.0365 -0.7770
  627MOL0     C84517   6.302   9.794   2.708 -0.6104  0.6680 -0.2621
  627MOL0     O84518   6.216   9.801   2.821  0.0159 -0.2642  0.0007
  627MOL0     C84519   6.273   9.791   2.949 -0.1445 -0.2057  0.5416
  627MOL0     C84520   6.161   9.803   3.043 -0.6309 -0.4228  0.6236
  627MOL0     C84521   6.095   9.664   3.069  0.5964  0.4578 -0.5978
  627MOL0     C84522   5.989   9.669   3.172 -0.3695 -0.1991 -0.5103
  627MOL0     C84523   5.865   9.762   3.142 -0.1991  0.0227 -0.2067
  627MOL0     C84524   5.795   9.730   3.014 -0.5508 -0.0600  0.1057
  627MOL0     C84525   5.668   9.808   2.985 -0.5214 -0.5554 -0.0106
  627MOL0     C84526   5.568   9.810   3.099  0.4868  0.0725  0.1118
  627MOL0     N84527   5.438   9.873   3.070  0.1681 -0.0307  0.3261
  627MOL0     C84528   5.400  10.002   3.103 -0.0299 -0.4933 -0.1014
  627MOL0     C84529   5.270  10.016   3.056  0.4881  0.0768 -0.0643
  627MOL0     C84530   5.185  10.142   3.050 -0.3401 -0.2461 -0.2670
  627MOL0     C84531   5.061  10.129   3.144  0.2964  0.5475 -0.0309
  627MOL0     C84532   4.975  10.016   3.112 -0.2813  0.3236 -0.2590
  627MOL0     C84533   4.832  10.016   3.169  0.4969  0.6176 -0.4051
  627MOL0     O84534   4.756  10.128   3.114 -0.2726 -0.1837  0.3008
  627MOL0     C84535   4.626  10.128   3.161  1.8323  0.0028 -0.4532
  627MOL0     C84536   4.594  10.208   3.269  0.3365 -0.1356 -0.3094
  627MOL0     C84537   4.461  10.219   3.316 -0.4159  0.2004  0.4661
  627MOL0     C84538   4.445  10.316   3.429  0.5926  0.2091 -0.4032
  627MOL0     C84539   4.356  10.140   3.257  0.0543 -0.2231 -0.0273
  627MOL0     C84540   4.215  10.164   3.279  0.1518 -0.2377  0.1008
  627MOL0     O84541   4.128  10.136   3.170 -0.2636 -0.2724 -0.0283
  627MOL0     C84542   3.992  10.124   3.179 -0.1312  0.3960 -0.3510
  627MOL0     C84543   3.914  10.134   3.057 -0.4774  0.3615  0.3192
  627MOL0     C84544   3.774  10.128   3.066 -0.5277 -0.1991 -0.0108
  627MOL0     C84545   3.706  10.106   3.185  0.0342  0.1748  0.2831
  627MOL0     O84546   3.573  10.123   3.188 -0.2980 -0.0602  0.5281
  627MOL0     C84547   3.518  10.115   3.318 -0.2958 -0.6829 -0.6769
  627MOL0     C84548   3.365  10.124   3.312 -0.0401  0.7637  0.1223
  627MOL0     C84549   3.313  10.256   3.286 -0.4726 -0.3594  0.3215
  627MOL0     C84550   3.170  10.274   3.261  0.6149 -0.5258 -0.3715
  627MOL0     C84551   3.135  10.422   3.284 -0.5499  0.4718 -0.2457
  627MOL0     C84552   2.982  10.443   3.247 -0.4339  0.0820  0.1736
  627MOL0     C84553   2.945  10.424   3.099 -0.1206  0.1882  0.5546
  627MOL0     C84554   2.802  10.406   3.077  0.2277 -0.0933  0.0929
  627MOL0    Cl84555   2.751  10.261   3.173 -0.3536 -0.0231 -0.1487
  627MOL0     C84556   3.778  10.080   3.300 -0.6027  0.5850  0.7683
  627MOL0     C84557   3.921  10.085   3.296 -0.7212 -0.4601 -0.0031
  627MOL0     O84558   4.172  10.201   3.388 -0.1742 -0.3109  0.3948
  627MOL0     C84559   4.391  10.058   3.147  0.4819  0.3248  0.4620
  627MOL0     C84560   4.524  10.064   3.097 -0.1287 -0.8728 -0.1298
  627MOL0     N84561   5.236   9.901   2.993  0.1036  0.8017 -0.5071
  627MOL0     N84562   5.331   9.811   3.005  0.1690 -0.4022  0.6977
  627MOL0     C84563   6.263   9.833   2.578 -0.3347 -0.0416  0.2515
  627MOL0     C84564   6.362   9.842   2.478 -0.4247 -0.4926  0.1089
  627MOL0     C84565   6.806   9.851   2.292 -0.2782 -0.1256  0.1701
  627MOL0     C84566   6.939   9.902   2.294  0.5391  0.7935 -0.1985
  627MOL0     C84567   7.027   9.866   2.191 -0.0038 -0.4524  0.1039
  627MOL0     C84568   6.992   9.760   2.104 -0.6170 -0.0953  0.1744
  627MOL0     O84569   7.071   9.707   2.003  0.0285 -0.4890 -0.1567
  627MOL0     C84570   7.209   9.743   1.999 -0.5567  0.0649 -0.1094
  627MOL0     C84571   7.292   9.688   1.882  1.2672 -0.1812  1.0083
  627MOL0     C84572   7.216   9.706   1.748  0.3163  0.7386  0.2801
  627MOL0     C84573   7.166   9.845   1.721 -0.5031 -0.5649 -0.2008
  627MOL0     C84574   7.278   9.925   1.720  0.2460 -0.3239 -0.0074
  627MOL0     C84575   7.378   9.992   1.715 -0.4122 -0.0549 -0.3796
  627MOL0     C84576   6.867   9.704   2.108 -0.7522  0.0377  0.0217
  627MOL0     C84577   6.775   9.750   2.199 -0.0001  0.0898  0.1715
  627MOL0     H84578   6.640   9.773   2.652  1.0262  3.9038 -1.5618
  627MOL0     H84579   6.490   9.745   2.821 -0.0964 -0.4816 -1.1599
  627MOL0     H84580   6.337   9.704   2.966  1.2320  0.8691  1.0217
  627MOL0     H84581   6.342   9.875   2.959 -0.7434  0.3710 -0.0660
  627MOL0     H84582   6.198   9.838   3.140  0.0450 -2.9927  1.3647
  627MOL0     H84583   6.084   9.870   3.004 -1.4254 -1.4122  0.4574
  627MOL0     H84584   6.045   9.619   2.983 -1.8678  0.6518  0.6304
  627MOL0     H84585   6.170   9.593   3.104 -0.7927 -1.3564 -1.1832
  627MOL0     H84586   5.949   9.571   3.197  0.2105  0.1705  2.0714
  627MOL0     H84587   6.036   9.699   3.266  0.4993 -0.3071 -0.8967
  627MOL0     H84588   5.793   9.744   3.223  1.2219 -2.3215  0.6389
  627MOL0     H84589   5.903   9.864   3.135  1.9144 -0.7536 -0.5486
  627MOL0     H84590   5.860   9.760   2.931 -2.2725 -3.6201 -2.8195
  627MOL0     H84591   5.781   9.622   3.011  0.4364 -0.2927  2.0031
  627MOL0     H84592   5.689   9.913   2.963  1.4156 -1.2460 -1.6749
  627MOL0     H84593   5.621   9.768   2.895 -1.8754  0.7060  0.0875
  627MOL0     H84594   5.624   9.855   3.182  0.0230 -1.2791  1.1903
  627MOL0     H84595   5.549   9.705   3.125 -1.2042  0.1114 -0.7962
  627MOL0     H84596   5.465  10.074   3.151  0.1344  0.6199 -1.9076
  627MOL0     H84597   5.241  10.218   3.105 -2.2900  0.1818  1.2146
  627MOL0     H84598   5.166  10.171   2.946 -3.5603  0.0634  0.3285
  627MOL0     H84599   5.000  10.219   3.154 -1.9636 -0.8714 -0.3754
  627MOL0     H84600   5.101  10.108   3.243  3.0940  0.9813 -0.9698
  627MOL0     H84601   5.027   9.930   3.156  1.9122  1.5315 -0.3161
  627MOL0     H84602   4.964   9.992   3.006 -2.5694 -0.1990  0.0561
  627MOL0     H84603   4.833  10.004   3.277  3.0881  2.5847 -0.0993
  627MOL0     H84604   4.780   9.924   3.140 -0.3889 -0.2929  3.5833
  627MOL0     H84605   4.674  10.269   3.309  1.8075 -1.0592 -1.7000
  627MOL0     H84606   4.537  10.366   3.462 -0.9052  3.1073 -0.2996
  627MOL0     H84607   4.370  10.393   3.409  0.7151 -0.1539 -2.5817
  627MOL0     H84608   4.403  10.268   3.518  2.5056 -2.1348 -0.6692
  627MOL0     H84609   3.970  10.141   2.964  1.0105 -1.2858  1.0422
  627MOL0     H84610   3.722  10.132   2.970  1.0399 -0.4362 -0.9129
  627MOL0     H84611   3.541  10.025   3.376 -2.2624 -0.3873  0.6645
  627MOL0     H84612   3.551  10.204   3.371 -1.8318  0.1461 -1.0380
  627MOL0     H84613   3.337  10.061   3.228 -0.1189  1.2844 -0.2419
  627MOL0     H84614   3.327  10.078   3.404 -1.1282 -0.3351 -0.8519
  627MOL0     H84615   3.368  10.301   3.203  1.4772 -0.3437  1.5559
  627MOL0     H84616   3.336  10.318   3.373  3.7461 -0.7891 -0.2670
  627MOL0     H84617   3.151  10.251   3.156 -0.0248 -2.4130  0.1271
  627MOL0     H84618   3.119  10.211   3.334  2.8135 -0.8401  1.0012
  627MOL0     H84619   3.191  10.483   3.212 -0.2304  1.2792  0.6600
  627MOL0     H84620   3.166  10.457   3.383  3.4856  1.0776 -1.5352
  627MOL0     H84621   2.926  10.372   3.308 -0.2568  0.9338  1.3692
  627MOL0     H84622   2.942  10.537   3.285 -1.1635 -0.8943  1.9415
  627MOL0     H84623   3.003  10.340   3.059  0.4566  0.5253  0.6614
  627MOL0     H84624   2.991  10.514   3.056  3.5068 -0.8659  1.7963
  627MOL0     H84625   2.787  10.386   2.971  1.6413  2.4520 -0.6470
  627MOL0     H84626   2.743  10.490   3.115 -0.0285 -0.1332 -0.2159
  627MOL0     H84627   3.743  10.054   3.400 -2.4796 -2.2253 -0.4947
  627MOL0     H84628   3.982  10.069   3.385  1.6551  1.6706 -1.1351
  627MOL0     H84629   4.315  10.002   3.094 -0.3777  0.7899  1.1734
  627MOL0     H84630   4.559  10.025   3.002  0.0926 -1.6914  0.2806
  627MOL0     H84631   6.164   9.872   2.557  0.3345  0.9634 -1.2271
  627MOL0     H84632   6.342   9.873   2.376 -0.8479 -0.6693  0.1367
  627MOL0     H84633   6.964   9.977   2.368  0.7895  0.0488  0.4833
  627MOL0     H84634   7.121   9.920   2.193  0.5476 -1.3282 -1.1399
  627MOL0     H84635   7.215   9.852   1.992 -0.5843 -0.0380 -2.8429
  627MOL0     H84636   7.269   9.729   2.089  2.6360  1.0451 -1.9093
  627MOL0     H84637   7.320   9.583   1.897  1.5918 -0.3265 -0.4575
  627MOL0     H84638   7.385   9.746   1.882  1.4701 -0.4299 -1.1263
  627MOL0     H84639   7.139   9.628   1.756  1.4040 -0.5522 -1.2073
  627MOL0     H84640   7.272   9.682   1.657 -2.2233 -0.8457 -1.0106
  627MOL0     H84641   7.094   9.866   1.801 -0.1261  2.0284 -0.4653
  627MOL0     H84642   7.112   9.850   1.626 -0.3590  0.1774 -0.2453
  627MOL0     H84643   7.466  10.053   1.704 -0.3140 -0.3495 -1.2891
  627MOL0     H84644   6.838   9.618   2.048  0.6781 -0.8325  0.5303
  627MOL0     H84645   6.677   9.704   2.200  0.8258 -1.8023 -0.8491
  628MOL0     O84646  11.149   2.551   0.718  0.3049 -0.5468  0.4619
  628MOL0     C84647  11.101   2.652   0.759  0.7050 -1.1871 -0.5965
  628MOL0     O84648  10.982   2.676   0.833 -0.0725  0.0821  0.5545
  628MOL0     C84649  10.868   2.587   0.837  0.0382  0.1832  0.3381
  628MOL0     C84650  10.745   2.650   0.853 -0.0213 -0.6328  0.1699
  628MOL0     C84651  10.629   2.570   0.866 -0.0621 -0.1713  0.0933
  628MOL0     C84652  10.639   2.430   0.856 -0.9546 -0.0358 -0.4188
  628MOL0     O84653  10.529   2.359   0.893  0.4530 -0.6406 -0.3824
  628MOL0     C84654  10.521   2.218   0.858 -0.1277 -0.2858 -0.3631
  628MOL0     C84655  10.383   2.167   0.861  0.0648  0.1082 -0.4354
  628MOL0     C84656  10.293   2.222   0.759  0.6532  0.1240  0.1644
  628MOL0     C84657  10.172   2.127   0.751  0.2887  0.4867 -0.0863
  628MOL0     C84658  10.083   2.168   0.633  0.8926 -1.5077 -0.1613
  628MOL0     C84659  10.022   2.313   0.663  0.5515 -0.0224 -0.0232
  628MOL0     C84660   9.896   2.338   0.584  0.7512 -0.1914 -0.1407
  628MOL0     C84661   9.797   2.220   0.579 -0.7647  0.1053  0.3171
  628MOL0     N84662   9.666   2.260   0.534  0.1482 -0.0725 -1.1598
  628MOL0     C84663   9.582   2.326   0.615  0.7703  0.3356 -0.0425
  628MOL0     C84664   9.473   2.359   0.537 -0.1758 -0.5320  0.2440
  628MOL0     C84665   9.361   2.443   0.566  0.4185  0.0517  0.6298
  628MOL0     C84666   9.405   2.588   0.549 -0.1946 -0.1097  0.3855
  628MOL0     C84667   9.302   2.691   0.592  0.7034  0.7234 -0.4169
  628MOL0     C84668   9.351   2.834   0.596 -0.2158  0.0960 -0.8518
  628MOL0     O84669   9.244   2.912   0.660  0.2078  0.1050  0.1568
  628MOL0     C84670   9.130   2.951   0.592  0.5462  0.6651  0.2440
  628MOL0     C84671   9.077   2.924   0.461 -0.3404  0.3564  0.3168
  628MOL0     C84672   8.949   2.964   0.416  0.0377  0.2997 -0.2163
  628MOL0     C84673   8.905   2.915   0.281 -0.0202 -0.9023 -0.5263
  628MOL0     C84674   8.865   3.037   0.501 -0.6588 -0.2537 -0.1925
  628MOL0     C84675   8.735   3.095   0.465 -0.3055  0.5767  0.0783
  628MOL0     O84676   8.708   3.216   0.526 -0.2522 -0.4903  0.1081
  628MOL0     C84677   8.585   3.268   0.506  0.2719  0.1086  0.5596
  628MOL0     C84678   8.572   3.345   0.386  0.0299 -0.6258 -0.8294
  628MOL0     C84679   8.443   3.364   0.327  0.0779  0.3066  0.1851
  628MOL0     C84680   8.329   3.314   0.388 -0.0647  0.2225 -0.4297
  628MOL0     O84681   8.220   3.306   0.307  0.5469 -0.4741  0.8065
  628MOL0     C84682   8.112   3.211   0.336  0.5924 -0.7550  0.1400
  628MOL0     C84683   7.988   3.242   0.247  0.7364  0.7903  0.0377
  628MOL0     C84684   7.876   3.138   0.257  0.3949  0.2577 -0.5037
  628MOL0     C84685   7.736   3.184   0.208  0.7285  0.2236 -0.2653
  628MOL0     C84686   7.645   3.067   0.241 -0.4188  0.0775 -0.0018
  628MOL0     C84687   7.504   3.101   0.214 -0.2268 -0.5475  0.4263
  628MOL0     C84688   7.392   3.001   0.180 -0.7456  0.0025  0.1393
  628MOL0     C84689   7.367   2.896   0.292  0.0283 -0.4607 -0.1432
  628MOL0    Cl84690   7.317   2.985   0.441  0.1999 -0.2760  0.3054
  628MOL0     C84691   8.332   3.260   0.513 -0.0823 -0.5363 -0.8282
  628MOL0     C84692   8.464   3.238   0.573  1.2142 -0.2309 -0.7182
  628MOL0     O84693   8.660   3.030   0.385  0.6041  0.2273 -0.1623
  628MOL0     C84694   8.914   3.065   0.635  0.1385  0.1408  0.9176
  628MOL0     C84695   9.036   3.013   0.676  0.8917  0.1971 -0.3357
  628MOL0     N84696   9.498   2.311   0.405 -0.0920 -0.9203  0.5831
  628MOL0     N84697   9.618   2.268   0.405  0.3710  0.3540  0.4040
  628MOL0     C84698  10.759   2.370   0.820 -0.5674 -1.1168 -0.1796
  628MOL0     C84699  10.875   2.454   0.811 -1.5821  0.2817 -0.2367
  628MOL0     C84700  11.196   2.774   0.750 -0.3984 -0.8891  0.0587
  628MOL0     C84701  11.331   2.758   0.705  0.6402 -0.7364  0.3271
  628MOL0     C84702  11.426   2.865   0.711 -0.1552 -0.5088  0.8147
  628MOL0     C84703  11.385   2.988   0.760  0.6272  0.4862 -1.0481
  628MOL0     O84704  11.480   3.083   0.767 -0.4516 -0.2778  0.0914
  628MOL0     C84705  11.605   3.048   0.834  0.3163  0.0207 -0.2858
  628MOL0     C84706  11.702   3.162   0.813  0.8320  0.3665  1.0434
  628MOL0     C84707  11.744   3.166   0.664 -1.1654 -0.5516  1.0844
  628MOL0     C84708  11.791   3.301   0.614  0.4600  0.4993 -0.7590
  628MOL0     C84709  11.929   3.324   0.648  0.6218 -0.1159  0.6894
  628MOL0     C84710  12.048   3.329   0.669  0.4383  0.3261  0.1417
  628MOL0     C84711  11.247   3.009   0.794  1.2736  0.3954 -0.1008
  628MOL0     C84712  11.157   2.900   0.802  0.1298 -0.1810  0.0391
  628MOL0     H84713  10.732   2.757   0.864 -0.2239 -0.3293 -2.3868
  628MOL0     H84714  10.531   2.614   0.880  0.0332 -0.5934  2.3177
  628MOL0     H84715  10.565   2.203   0.759 -1.0024  3.1884 -1.4021
  628MOL0     H84716  10.579   2.165   0.935 -0.6025  0.4910  0.5549
  628MOL0     H84717  10.386   2.059   0.850  0.6856  0.1269 -0.4796
  628MOL0     H84718  10.332   2.187   0.955 -0.1796 -0.3775 -0.4659
  628MOL0     H84719  10.266   2.324   0.789 -1.2784  0.0086 -1.0044
  628MOL0     H84720  10.345   2.219   0.663 -0.6160 -0.0704 -0.5383
  628MOL0     H84721  10.215   2.029   0.726  0.0865  0.0762  1.0948
  628MOL0     H84722  10.107   2.116   0.838 -0.3295 -3.3446 -0.8494
  628MOL0     H84723  10.152   2.178   0.549 -0.3996 -1.8904 -1.2931
  628MOL0     H84724  10.006   2.094   0.609 -0.8712  0.6771 -1.7015
  628MOL0     H84725   9.992   2.323   0.768 -1.2295  1.7648 -0.6418
  628MOL0     H84726  10.101   2.385   0.641  1.8273 -1.3394  0.0875
  628MOL0     H84727   9.849   2.425   0.631  0.4943  0.2501 -1.1839
  628MOL0     H84728   9.913   2.385   0.487  1.0247  1.8010  0.8249
  628MOL0     H84729   9.798   2.164   0.674  2.9574 -0.9263 -0.1701
  628MOL0     H84730   9.833   2.150   0.503  0.0626 -0.2207  0.9900
  628MOL0     H84731   9.598   2.356   0.718 -0.7354  1.3181 -0.0500
  628MOL0     H84732   9.279   2.421   0.497  1.6293 -0.2801 -0.7688
  628MOL0     H84733   9.335   2.426   0.671  0.3643 -0.1068  0.5914
  628MOL0     H84734   9.417   2.612   0.443 -2.3329  1.4179  0.4271
  628MOL0     H84735   9.499   2.608   0.602 -0.6776  3.3128  0.1558
  628MOL0     H84736   9.256   2.662   0.687 -3.6005 -1.5256 -2.8464
  628MOL0     H84737   9.220   2.696   0.520  0.1426 -0.9749  0.0567
  628MOL0     H84738   9.377   2.876   0.498  2.8494  0.2237 -0.0723
  628MOL0     H84739   9.439   2.832   0.661  0.0751 -1.3096 -1.2555
  628MOL0     H84740   9.139   2.870   0.390 -1.4027 -0.1424 -0.2507
  628MOL0     H84741   8.987   2.860   0.234  1.3095  0.9990 -0.5751
  628MOL0     H84742   8.815   2.853   0.289 -1.4826  1.3034  2.1320
  628MOL0     H84743   8.875   2.994   0.212 -1.1743 -3.7615 -3.5549
  628MOL0     H84744   8.665   3.376   0.339  0.1996  0.0339 -0.0784
  628MOL0     H84745   8.427   3.415   0.232 -0.9294 -0.3133  0.0087
  628MOL0     H84746   8.137   3.113   0.294  0.0600 -0.4041 -1.0264
  628MOL0     H84747   8.082   3.209   0.441 -2.3834 -0.8736 -0.6304
  628MOL0     H84748   7.952   3.344   0.259 -2.8221 -0.3350  0.0708
  628MOL0     H84749   8.019   3.238   0.142  0.7359 -0.9859  0.0707
  628MOL0     H84750   7.859   3.120   0.364 -1.2666  0.4377 -0.7222
  628MOL0     H84751   7.892   3.056   0.186 -2.5476 -0.5096 -0.4187
  628MOL0     H84752   7.694   3.267   0.265 -0.6642 -0.0843 -0.8227
  628MOL0     H84753   7.743   3.221   0.105  1.3783  2.7784  0.6239
  628MOL0     H84754   7.647   3.024   0.342 -2.1703 -0.8147 -0.3099
  628MOL0     H84755   7.664   2.988   0.168 -1.2038 -0.2619  0.1525
  628MOL0     H84756   7.470   3.156   0.302 -1.1649 -1.2094  0.4902
  628MOL0     H84757   7.489   3.172   0.132 -2.4041 -0.6341  0.6901
  628MOL0     H84758   7.431   2.943   0.096 -2.1228 -0.8951  0.0826
  628MOL0     H84759   7.299   3.052   0.155 -0.4891  1.0636  1.2257
  628MOL0     H84760   7.462   2.842   0.298  0.4073  0.2026  0.0388
  628MOL0     H84761   7.292   2.821   0.267  2.2296 -2.2043 -1.9279
  628MOL0     H84762   8.243   3.222   0.561  2.1465 -4.9162  0.3819
  628MOL0     H84763   8.459   3.176   0.663  1.5021 -0.5578 -0.9240
  628MOL0     H84764   8.865   3.129   0.708  0.4770  0.9394  0.4633
  628MOL0     H84765   9.065   3.021   0.780 -0.1501  0.9108 -0.0787
  628MOL0     H84766  10.793   2.268   0.803  4.3259  0.0970  0.6201
  628MOL0     H84767  10.961   2.392   0.789 -3.7882 -3.4502  0.8559
  628MOL0     H84768  11.364   2.663   0.663  0.5951 -0.3230 -0.6820
  628MOL0     H84769  11.527   2.843   0.678 -0.7053  1.4733 -2.5929
  628MOL0     H84770  11.600   3.032   0.942 -0.5213 -0.7010 -0.4177
  628MOL0     H84771  11.651   2.959   0.791  2.5185 -0.0321  1.9986
  628MOL0     H84772  11.786   3.150   0.883  0.3995  3.7553  2.3438
  628MOL0     H84773  11.661   3.259   0.843  0.1620  0.8249 -1.2009
  628MOL0     H84774  11.658   3.133   0.604 -1.5506 -0.4795  1.5979
  628MOL0     H84775  11.828   3.096   0.661  0.0000  0.6354  3.5544
  628MOL0     H84776  11.739   3.384   0.663 -2.0090 -0.4728 -1.6068
  628MOL0     H84777  11.766   3.307   0.508  0.4923 -0.2383 -0.8120
  628MOL0     H84778  12.151   3.312   0.692 -0.1287 -0.8725  2.0573
  628MOL0     H84779  11.228   3.107   0.837  1.3046 -0.3731  1.7551
  628MOL0     H84780  11.055   2.918   0.834 -1.3117 -4.3422 -1.6044
  629MOL0     O84781  10.434   7.974   5.727 -0.3570 -0.1578 -0.1224
  629MOL0     C84782  10.430   7.990   5.606  0.7759  0.0278  0.1508
  629MOL0     O84783  10.315   8.033   5.542 -0.1082 -0.5553 -0.0022
  629MOL0     C84784  10.196   8.030   5.610 -0.0867  0.8322 -0.5156
  629MOL0     C84785  10.113   8.141   5.594  0.1127 -0.1665  0.3033
  629MOL0     C84786   9.996   8.162   5.665 -0.1918 -0.1898  0.9455
  629MOL0     C84787   9.944   8.051   5.731  0.3106  0.4775  0.2063
  629MOL0     O84788   9.821   8.070   5.788  0.7179  0.5444 -0.5647
  629MOL0     C84789   9.711   8.007   5.714  0.8202 -0.0148 -0.6154
  629MOL0     C84790   9.580   8.048   5.775 -0.4386 -0.3245  0.5133
  629MOL0     C84791   9.456   8.001   5.708  0.7680 -0.0205  0.6533
  629MOL0     C84792   9.327   8.040   5.766  0.1708 -0.4624  0.2120
  629MOL0     C84793   9.211   7.990   5.673 -0.3993  0.4654 -0.0014
  629MOL0     C84794   9.075   8.002   5.743  0.7892 -0.1075  0.3741
  629MOL0     C84795   8.965   7.944   5.657 -0.2416 -0.9976  0.9678
  629MOL0     C84796   8.824   7.959   5.731 -0.5976  0.0600  0.0952
  629MOL0     N84797   8.718   7.897   5.653  0.2333 -0.1861  0.3835
  629MOL0     C84798   8.645   7.783   5.688  0.7784 -0.6137 -0.3104
  629MOL0     C84799   8.559   7.762   5.581 -0.4483  0.4087  0.6150
  629MOL0     C84800   8.453   7.652   5.556 -0.0200  0.0870 -0.9830
  629MOL0     C84801   8.311   7.700   5.574 -0.2561 -0.1420 -1.0012
  629MOL0     C84802   8.271   7.699   5.717 -0.9640  0.3740 -0.1722
  629MOL0     C84803   8.131   7.762   5.739 -0.3855 -0.3182  0.6016
  629MOL0     O84804   8.026   7.683   5.683 -0.3101 -0.0382  0.1738
  629MOL0     C84805   7.889   7.724   5.691 -0.2679  0.0529  0.1763
  629MOL0     C84806   7.835   7.833   5.754 -0.1244 -0.5644  0.4020
  629MOL0     C84807   7.698   7.859   5.769  1.3502 -0.0606 -0.6161
  629MOL0     C84808   7.661   7.989   5.853  0.2323 -0.4240  0.2804
  629MOL0     C84809   7.607   7.783   5.700 -0.4516 -0.1649 -0.3571
  629MOL0     C84810   7.458   7.810   5.702 -0.3795 -0.2874  0.1977
  629MOL0     O84811   7.418   7.891   5.802  0.5588  0.5976  0.3425
  629MOL0     C84812   7.285   7.918   5.822 -0.4453 -0.2668  0.7404
  629MOL0     C84813   7.231   7.916   5.953 -0.1035 -0.4695 -0.6800
  629MOL0     C84814   7.096   7.935   5.985  0.1605 -0.6755  0.4111
  629MOL0     C84815   7.009   7.966   5.872  0.0943 -0.8478 -1.4584
  629MOL0     O84816   6.878   7.990   5.902  0.0788 -0.3559  0.2814
  629MOL0     C84817   6.779   7.991   5.795  1.1837  0.0610  0.0601
  629MOL0     C84818   6.647   7.997   5.868  0.1419  0.2052  0.6185
  629MOL0     C84819   6.532   7.982   5.771 -0.3872 -0.3088  0.3934
  629MOL0     C84820   6.414   8.072   5.818 -0.4128  0.0995  0.6569
  629MOL0     C84821   6.309   8.068   5.710  0.9700 -0.4039  0.0360
  629MOL0     C84822   6.183   8.151   5.741  0.2549  0.5456  0.8121
  629MOL0     C84823   6.094   8.141   5.611  0.0651  0.5373  1.0320
  629MOL0     C84824   5.961   8.218   5.636 -0.7659  0.1049 -0.2537
  629MOL0    Cl84825   5.874   8.192   5.481 -0.6394 -0.5131 -0.0071
  629MOL0     C84826   7.058   7.964   5.737  1.8985  0.2096 -0.5239
  629MOL0     C84827   7.195   7.945   5.716 -0.1442 -0.0067 -0.9347
  629MOL0     O84828   7.384   7.749   5.624 -0.5759  0.0874 -0.1546
  629MOL0     C84829   7.655   7.673   5.635 -0.9938  0.9034  0.4536
  629MOL0     C84830   7.800   7.642   5.627  1.5409 -0.0180 -0.9451
  629MOL0     N84831   8.597   7.850   5.476  0.9926 -0.1509 -0.0785
  629MOL0     N84832   8.686   7.925   5.523 -0.3282  0.7786  0.5105
  629MOL0     C84833  10.012   7.923   5.721 -0.1844 -0.0338 -0.0005
  629MOL0     C84834  10.136   7.921   5.672  0.1639 -0.0757  0.1290
  629MOL0     C84835  10.540   7.951   5.522 -0.9951 -0.6166 -0.1449
  629MOL0     C84836  10.536   7.943   5.382  0.9763  1.2256 -0.8261
  629MOL0     C84837  10.640   7.887   5.312  0.3751  0.4805  0.6235
  629MOL0     C84838  10.765   7.867   5.372 -0.6852 -0.8879  0.2286
  629MOL0     O84839  10.880   7.816   5.310  0.7251 -0.2523  0.1874
  629MOL0     C84840  10.893   7.854   5.169  0.1450  0.4371 -0.3601
  629MOL0     C84841  10.942   7.998   5.145  0.1179 -0.4635 -0.5867
  629MOL0     C84842  11.082   8.024   5.197  0.3274  0.1432  0.2041
  629MOL0     C84843  11.096   8.047   5.348 -0.1218  0.5233 -0.4459
  629MOL0     C84844  11.235   8.093   5.384 -0.0459  0.1081  0.3158
  629MOL0     C84845  11.336   8.135   5.428 -0.2298 -0.1807 -0.3029
  629MOL0     C84846  10.787   7.900   5.506  0.5865 -0.0073 -0.0929
  629MOL0     C84847  10.668   7.931   5.582  0.6737  0.4443  0.6346
  629MOL0     H84848  10.147   8.225   5.535 -1.0946 -0.1892 -0.4521
  629MOL0     H84849   9.938   8.253   5.658  0.5844  0.2644  0.2374
  629MOL0     H84850   9.720   8.056   5.616 -0.9462 -1.2026 -1.4257
  629MOL0     H84851   9.718   7.898   5.715 -0.0416 -0.1081  1.4964
  629MOL0     H84852   9.577   8.002   5.874  1.5312  1.6335  1.5617
  629MOL0     H84853   9.575   8.157   5.787 -2.4563 -0.0919 -1.7163
  629MOL0     H84854   9.459   8.040   5.606  3.8960  0.9926  1.0213
  629MOL0     H84855   9.458   7.892   5.702  1.3163  0.0070  0.2244
  629MOL0     H84856   9.308   7.995   5.864  1.5118 -2.2955 -0.3110
  629MOL0     H84857   9.322   8.149   5.775 -0.3707 -0.3108 -1.5804
  629MOL0     H84858   9.206   8.049   5.581  1.7177 -2.5867 -2.2664
  629MOL0     H84859   9.222   7.889   5.632 -2.7060  0.6830 -1.3299
  629MOL0     H84860   9.073   7.946   5.837  0.5615 -1.6243 -0.5109
  629MOL0     H84861   9.051   8.108   5.761 -0.4717  0.0214 -1.7041
  629MOL0     H84862   8.960   8.013   5.572 -2.0005 -1.3445  0.7488
  629MOL0     H84863   8.991   7.844   5.620  0.3952  0.0527 -1.6323
  629MOL0     H84864   8.803   8.066   5.742  2.2739  0.7678 -0.4378
  629MOL0     H84865   8.826   7.928   5.835  3.0383  0.9308  0.4250
  629MOL0     H84866   8.658   7.726   5.779  1.3331 -0.6112 -0.3839
  629MOL0     H84867   8.466   7.628   5.450  0.0629 -1.1337 -0.7024
  629MOL0     H84868   8.468   7.557   5.608 -2.2529  0.5168  0.5963
  629MOL0     H84869   8.255   7.628   5.512  0.6502 -3.2067  1.4493
  629MOL0     H84870   8.298   7.800   5.533  0.1310  0.4670  0.3329
  629MOL0     H84871   8.340   7.756   5.780 -0.5861  0.9608 -1.1117
  629MOL0     H84872   8.274   7.595   5.752  1.0608  0.2729 -0.5456
  629MOL0     H84873   8.134   7.864   5.699  1.7056 -0.2373  0.8825
  629MOL0     H84874   8.114   7.788   5.844 -0.6457  4.9009 -0.4805
  629MOL0     H84875   7.899   7.909   5.797 -2.2635  1.3815  0.3395
  629MOL0     H84876   7.751   8.044   5.882  1.0973 -1.7114  0.1269
  629MOL0     H84877   7.600   8.050   5.785 -0.5223 -0.9098  0.5031
  629MOL0     H84878   7.605   7.970   5.945  1.1601 -0.4523  0.8460
  629MOL0     H84879   7.298   7.878   6.029 -2.7662 -1.2699  1.4275
  629MOL0     H84880   7.056   7.922   6.085  0.6694 -0.1466  0.6897
  629MOL0     H84881   6.787   8.079   5.731  0.0352  0.8279  0.9272
  629MOL0     H84882   6.783   7.902   5.732 -1.2328 -1.3569  1.7186
  629MOL0     H84883   6.659   7.918   5.942  2.5702 -2.3223 -2.1867
  629MOL0     H84884   6.643   8.099   5.908  0.9224  1.5314 -2.3887
  629MOL0     H84885   6.510   7.876   5.757  0.4919 -0.2524 -2.0487
  629MOL0     H84886   6.564   8.023   5.674 -0.7256 -2.6468 -0.7927
  629MOL0     H84887   6.383   8.031   5.915  0.4265  0.4976  1.1054
  629MOL0     H84888   6.451   8.172   5.842  0.2374 -0.4458  2.0752
  629MOL0     H84889   6.274   7.966   5.692  0.2550  0.3078 -3.4305
  629MOL0     H84890   6.338   8.107   5.612 -1.7805  0.2650 -0.6045
  629MOL0     H84891   6.134   8.103   5.827 -1.4337 -1.2281 -1.0172
  629MOL0     H84892   6.199   8.259   5.749  1.5303  0.2126  4.5572
  629MOL0     H84893   6.077   8.039   5.575 -0.3712  0.3093  1.8638
  629MOL0     H84894   6.149   8.187   5.528 -0.1481 -3.3447 -1.4998
  629MOL0     H84895   5.968   8.325   5.655  0.8262 -0.2045  1.0879
  629MOL0     H84896   5.916   8.168   5.722  0.0593  0.4806  0.4022
  629MOL0     H84897   6.986   7.982   5.659 -1.1663 -2.7492  1.3646
  629MOL0     H84898   7.233   7.950   5.615  1.6067 -0.7118 -0.3561
  629MOL0     H84899   7.589   7.603   5.585  0.5063  0.8670 -1.6074
  629MOL0     H84900   7.837   7.553   5.578 -0.8917 -2.0697  0.6761
  629MOL0     H84901   9.959   7.839   5.766 -0.4566 -1.0591 -2.1335
  629MOL0     H84902  10.199   7.832   5.680  0.4441  0.0200 -0.8710
  629MOL0     H84903  10.441   7.957   5.330  1.1230  0.3801 -1.3370
  629MOL0     H84904  10.626   7.850   5.211 -0.2683 -1.3215  1.3184
  629MOL0     H84905  10.978   7.790   5.145  0.9607  1.5173 -0.4354
  629MOL0     H84906  10.813   7.819   5.103 -0.9788  0.2665  1.0578
  629MOL0     H84907  10.866   8.073   5.169  1.6888  1.6604 -1.9200
  629MOL0     H84908  10.951   8.008   5.037 -3.2946  0.9208 -0.8580
  629MOL0     H84909  11.114   8.116   5.148 -0.9057 -1.3147 -3.6653
  629MOL0     H84910  11.150   7.944   5.166 -0.0534  0.0768 -0.4696
  629MOL0     H84911  11.071   7.966   5.417 -0.7214  0.8344 -0.2904
  629MOL0     H84912  11.025   8.127   5.370 -0.7301  0.4946 -2.1784
  629MOL0     H84913  11.428   8.171   5.469  0.1866 -0.4030 -1.0156
  629MOL0     H84914  10.885   7.908   5.552  0.4286  0.9287  0.0912
  629MOL0     H84915  10.684   7.942   5.689  1.7790  0.8412  0.4478
  630MOL0     O84916  11.093   7.497   6.109 -0.7668 -0.1252  0.2659
  630MOL0     C84917  11.124   7.450   6.004 -0.4906  0.1807 -0.5858
  630MOL0     O84918  11.047   7.376   5.929  0.2597 -0.3423 -0.0304
  630MOL0     C84919  10.913   7.384   5.957 -0.2326  0.4453  0.9499
  630MOL0     C84920  10.846   7.287   6.030 -0.1242 -0.1728 -0.4562
  630MOL0     C84921  10.704   7.296   6.040  0.5457 -0.2245 -0.7132
  630MOL0     C84922  10.625   7.395   5.984 -0.5521  0.8950 -0.0466
  630MOL0     O84923  10.488   7.396   5.985 -0.4708 -0.7135  0.1348
  630MOL0     C84924  10.413   7.525   6.009 -0.8105  0.4678 -0.1627
  630MOL0     C84925  10.277   7.516   5.943  0.3290  0.1241 -0.5849
  630MOL0     C84926  10.171   7.449   6.039  0.0640  0.4765 -0.0298
  630MOL0     C84927  10.057   7.404   5.947  1.5942  0.0340 -0.0423
  630MOL0     C84928   9.929   7.340   6.010  0.3132  0.3301  0.4731
  630MOL0     C84929   9.862   7.446   6.097  0.5024  0.8454 -0.1219
  630MOL0     C84930   9.732   7.381   6.148  0.0768  0.4332 -0.1754
  630MOL0     C84931   9.603   7.459   6.095  0.0032  1.0968  0.1084
  630MOL0     N84932   9.482   7.406   6.161  0.0338  0.3766 -0.0185
  630MOL0     C84933   9.431   7.274   6.150 -0.7670 -0.0347 -0.3377
  630MOL0     C84934   9.312   7.278   6.211 -1.0670  0.3575  0.5696
  630MOL0     C84935   9.232   7.151   6.231  0.5028 -0.3151  0.0807
  630MOL0     C84936   9.128   7.117   6.120 -0.1112  0.2611  0.0312
  630MOL0     C84937   9.003   7.208   6.136 -0.5962  0.5059  0.1036
  630MOL0     C84938   8.908   7.197   6.017 -0.0928 -0.0067 -0.4486
  630MOL0     O84939   8.837   7.074   6.009 -0.4444 -1.0088  0.1512
  630MOL0     C84940   8.889   6.955   5.959  0.9389 -0.3916 -0.2445
  630MOL0     C84941   8.959   6.951   5.842  0.1988  0.5312  0.5637
  630MOL0     C84942   9.042   6.832   5.816 -0.3232 -0.7489 -0.0125
  630MOL0     C84943   9.147   6.850   5.711 -0.7638  0.2577  0.2757
  630MOL0     C84944   9.029   6.715   5.896 -0.0367  0.2162 -0.6507
  630MOL0     C84945   9.118   6.593   5.881 -0.9741 -0.5982  0.6515
  630MOL0     O84946   9.155   6.530   5.994  0.2446  0.7771  0.0534
  630MOL0     C84947   9.252   6.438   5.993  0.4281  0.2754  0.4943
  630MOL0     C84948   9.379   6.496   5.971 -0.3914 -0.5180  0.0372
  630MOL0     C84949   9.500   6.416   5.974  0.3929 -0.2452 -0.3068
  630MOL0     C84950   9.487   6.282   6.005 -0.6150 -0.1177 -0.0566
  630MOL0     O84951   9.606   6.215   6.023 -0.0153  0.0602  0.3389
  630MOL0     C84952   9.608   6.113   6.126 -0.5371 -0.4490 -0.5522
  630MOL0     C84953   9.751   6.059   6.128  0.3612  0.3450 -0.0166
  630MOL0     C84954   9.779   5.956   6.228 -0.2482 -0.5675 -0.4650
  630MOL0     C84955   9.780   5.815   6.172 -0.3793 -0.6672  0.1758
  630MOL0     C84956   9.752   5.708   6.279 -0.6541  0.7685 -0.7645
  630MOL0     C84957   9.855   5.694   6.391 -0.0050 -0.3892  0.0192
  630MOL0     C84958   9.872   5.560   6.458  0.5727 -0.6376  0.1828
  630MOL0     C84959   9.741   5.515   6.514  0.5451  0.1754 -0.6350
  630MOL0    Cl84960   9.741   5.343   6.580  0.1462 -0.1863 -0.1983
  630MOL0     C84961   9.361   6.229   6.026  0.9950  0.0507 -0.2597
  630MOL0     C84962   9.240   6.306   6.014  0.1609 -0.2255  0.4084
  630MOL0     O84963   9.148   6.564   5.764 -0.1350  0.0913 -0.1051
  630MOL0     C84964   8.952   6.726   6.016  0.4744  0.1700 -0.4396
  630MOL0     C84965   8.885   6.844   6.043  0.8895 -0.0211  0.2489
  630MOL0     N84966   9.297   7.412   6.258  0.7941  0.8970 -0.0290
  630MOL0     N84967   9.394   7.482   6.238 -0.9946 -0.1251  0.0916
  630MOL0     C84968  10.704   7.491   5.907  0.2389 -0.4518  1.0359
  630MOL0     C84969  10.843   7.488   5.899  0.3563  0.1310 -0.0800
  630MOL0     C84970  11.266   7.454   5.962 -0.2026 -0.0175  0.1224
  630MOL0     C84971  11.361   7.489   6.056 -0.5181  0.3448  0.3137
  630MOL0     C84972  11.493   7.512   6.020  0.1325 -0.4660  0.4022
  630MOL0     C84973  11.537   7.511   5.884 -0.5339  0.6178  0.2744
  630MOL0     O84974  11.667   7.541   5.861 -0.1364  0.0084 -0.4118
  630MOL0     C84975  11.716   7.491   5.741 -0.6392  0.0681 -0.1071
  630MOL0     C84976  11.865   7.511   5.730  0.3702  0.1951  0.3959
  630MOL0     C84977  11.903   7.659   5.731 -0.1654  0.3579  1.0138
  630MOL0     C84978  12.052   7.665   5.763  0.4296  0.1780 -0.1027
  630MOL0     C84979  12.105   7.801   5.783 -0.9167 -0.1884 -0.1886
  630MOL0     C84980  12.141   7.917   5.782 -0.5733  0.6975 -0.1910
  630MOL0     C84981  11.446   7.457   5.792  0.1027  0.0453 -0.0970
  630MOL0     C84982  11.311   7.428   5.824  0.4174 -0.1604  0.4374
  630MOL0     H84983  10.895   7.198   6.069 -0.3699  0.1897  0.7194
  630MOL0     H84984  10.657   7.211   6.088 -2.1157  0.8739 -1.1815
  630MOL0     H84985  10.409   7.555   6.114  1.8631  0.4269  0.0305
  630MOL0     H84986  10.469   7.604   5.959  1.3535  0.2767  1.7631
  630MOL0     H84987  10.242   7.615   5.911 -1.6693 -0.2008  0.4203
  630MOL0     H84988  10.289   7.457   5.851  2.6232 -3.2051  1.6366
  630MOL0     H84989  10.212   7.371   6.104  3.1592  2.2680  0.3841
  630MOL0     H84990  10.137   7.523   6.112  0.1855  0.3056  0.2005
  630MOL0     H84991  10.026   7.489   5.885  0.9569 -1.3863 -1.7538
  630MOL0     H84992  10.089   7.324   5.881 -2.4643  0.1591 -2.5079
  630MOL0     H84993   9.868   7.306   5.926  3.9706 -2.8933 -1.2016
  630MOL0     H84994   9.950   7.247   6.063  1.3257 -0.3393 -1.0191
  630MOL0     H84995   9.918   7.465   6.189 -0.1044  1.9483  0.0389
  630MOL0     H84996   9.855   7.539   6.041  1.1928  0.9734 -0.0047
  630MOL0     H84997   9.728   7.276   6.120  2.9609  0.2795 -0.2504
  630MOL0     H84998   9.724   7.379   6.257 -0.4462 -1.8087 -0.2129
  630MOL0     H84999   9.590   7.434   5.989 -0.9038  1.1403  0.1976
  630MOL0     H85000   9.615   7.565   6.119 -0.4753  0.8659  1.4546
  630MOL0     H85001   9.478   7.183   6.113 -1.3528 -0.4311 -0.1372
  630MOL0     H85002   9.301   7.067   6.244  1.6293  0.8504  2.2132
  630MOL0     H85003   9.170   7.149   6.321  0.9928  0.0122  0.4338
  630MOL0     H85004   9.098   7.011   6.128  2.1833 -0.5781 -1.5555
  630MOL0     H85005   9.163   7.124   6.017 -0.5896  1.1764 -0.0750
  630MOL0     H85006   9.030   7.313   6.148 -0.0967  0.9900 -3.9471
  630MOL0     H85007   8.940   7.188   6.223 -1.1899  1.5128 -0.0800
  630MOL0     H85008   8.965   7.214   5.925 -2.8689 -1.6863 -2.6329
  630MOL0     H85009   8.839   7.280   6.031  0.8089  0.9967 -1.7017
  630MOL0     H85010   8.985   7.035   5.778  2.4551 -0.8266 -0.3827
  630MOL0     H85011   9.246   6.830   5.752 -0.3055  0.7733 -0.5470
  630MOL0     H85012   9.137   6.782   5.625 -0.8487  1.9176 -1.0911
  630MOL0     H85013   9.146   6.946   5.659  0.6195  1.0717  1.6904
  630MOL0     H85014   9.390   6.604   5.983 -2.0880 -0.4682  1.6468
  630MOL0     H85015   9.599   6.459   5.961 -0.3338  0.7631 -3.2587
  630MOL0     H85016   9.596   6.146   6.229  3.8918  2.4644 -0.6864
  630MOL0     H85017   9.543   6.029   6.097 -0.7806  0.4613 -2.8869
  630MOL0     H85018   9.783   6.023   6.029  2.8754  0.3766  0.7077
  630MOL0     H85019   9.824   6.139   6.141 -0.6214  1.3203 -0.3903
  630MOL0     H85020   9.709   5.967   6.311 -1.6229 -1.1227 -1.5253
  630MOL0     H85021   9.879   5.980   6.266  0.0390 -3.3288  0.7960
  630MOL0     H85022   9.696   5.809   6.103 -0.6700 -0.5769  0.5234
  630MOL0     H85023   9.877   5.797   6.125 -0.2541  0.2071  0.0688
  630MOL0     H85024   9.755   5.607   6.237 -2.0461  0.1190  0.5753
  630MOL0     H85025   9.654   5.728   6.324 -0.5949 -0.5489  0.0203
  630MOL0     H85026   9.954   5.713   6.348 -0.0322  0.3779  0.2798
  630MOL0     H85027   9.834   5.776   6.460 -1.0353  1.1894 -2.0738
  630MOL0     H85028   9.947   5.562   6.537  1.0891  0.7241 -0.3166
  630MOL0     H85029   9.903   5.485   6.384  1.8416 -0.6112  0.6623
  630MOL0     H85030   9.655   5.516   6.447 -0.3926  1.8954  0.5207
  630MOL0     H85031   9.708   5.579   6.596  0.1799 -0.5072 -0.2396
  630MOL0     H85032   9.348   6.125   6.057  0.7736  0.5585  1.4530
  630MOL0     H85033   9.141   6.262   6.019 -0.5712  1.4617  1.8645
  630MOL0     H85034   8.945   6.648   6.092 -0.1084  3.0666  2.7280
  630MOL0     H85035   8.822   6.848   6.131 -2.6726  2.2923 -2.1456
  630MOL0     H85036  10.659   7.580   5.865  0.9863  0.1473  1.4787
  630MOL0     H85037  10.883   7.565   5.833 -2.5028  0.2634 -1.8446
  630MOL0     H85038  11.335   7.525   6.155 -1.0232  1.2482 -0.1389
  630MOL0     H85039  11.558   7.553   6.096 -2.3088 -1.4317  3.1988
  630MOL0     H85040  11.676   7.390   5.725 -1.3437  0.6201 -2.0999
  630MOL0     H85041  11.670   7.552   5.662 -1.7034  0.1621  0.5673
  630MOL0     H85042  11.902   7.460   5.641  0.4159  1.3629 -0.2802
  630MOL0     H85043  11.897   7.462   5.822 -1.9607  0.9643  1.7130
  630MOL0     H85044  11.840   7.697   5.812 -3.9158 -0.0362 -1.4274
  630MOL0     H85045  11.883   7.718   5.641 -0.6644 -0.2024  0.7547
  630MOL0     H85046  12.103   7.618   5.679  0.7256 -0.3119  0.3454
  630MOL0     H85047  12.063   7.615   5.860 -0.1435 -0.2769 -0.2637
  630MOL0     H85048  12.181   8.017   5.786  2.8312 -0.5308  0.5989
  630MOL0     H85049  11.475   7.444   5.688  2.0769 -2.0570  0.6408
  630MOL0     H85050  11.236   7.412   5.748 -0.4860  1.1589  1.0086
  631MOL0     O85051   3.346   5.973  10.875 -0.3527 -0.7062 -0.4386
  631MOL0     C85052   3.384   5.861  10.887 -0.1991  0.9367  0.5557
  631MOL0     O85053   3.305   5.751  10.864  0.7182 -0.5978  0.6274
  631MOL0     C85054   3.173   5.784  10.826 -0.5830  0.4933 -0.5928
  631MOL0     C85055   3.075   5.744  10.913  0.1657 -0.5747  0.2348
  631MOL0     C85056   2.939   5.757  10.883 -0.9670  0.3443 -0.0973
  631MOL0     C85057   2.901   5.815  10.758 -0.0678  0.4009 -0.5268
  631MOL0     O85058   2.771   5.816  10.721 -0.4787 -0.1852 -0.6994
  631MOL0     C85059   2.711   5.934  10.766 -0.5474  0.2707 -0.2693
  631MOL0     C85060   2.567   5.944  10.722  0.9200 -0.5688  0.2432
  631MOL0     C85061   2.488   5.835  10.791  0.3015 -0.5034  0.1060
  631MOL0     C85062   2.350   5.817  10.733  0.6337 -0.4816 -1.0685
  631MOL0     C85063   2.261   5.728  10.814  0.0860  0.4842  0.0265
  631MOL0     C85064   2.216   5.787  10.951  0.0156  0.0505 -0.3863
  631MOL0     C85065   2.110   5.703  11.031  0.1505  0.0920 -0.2481
  631MOL0     C85066   2.071   5.759  11.165 -0.0915  0.4626  0.3133
  631MOL0     N85067   2.041   5.903  11.177  0.1096  0.0335 -0.0237
  631MOL0     C85068   2.142   5.983  11.233  0.8608  0.1330  0.0721
  631MOL0     C85069   2.078   6.100  11.261  0.2520  0.2302  0.3286
  631MOL0     C85070   2.141   6.219  11.316 -0.2238 -0.2810  0.7646
  631MOL0     C85071   2.155   6.196  11.471 -0.4839  0.2890 -0.1859
  631MOL0     C85072   2.204   6.321  11.552 -0.1240 -0.2161 -0.9907
  631MOL0     C85073   2.126   6.448  11.536  0.6315  0.4688 -0.3173
  631MOL0     O85074   1.990   6.433  11.595 -0.7325 -0.0300 -0.0052
  631MOL0     C85075   1.889   6.477  11.517  0.3000  0.6452 -0.4815
  631MOL0     C85076   1.873   6.613  11.498  0.0590 -0.2555  0.0070
  631MOL0     C85077   1.754   6.663  11.432  0.9397  0.3321 -0.2327
  631MOL0     C85078   1.739   6.807  11.404 -0.1881  0.9201  0.0665
  631MOL0     C85079   1.646   6.574  11.404 -0.5815  0.1481 -0.1480
  631MOL0     C85080   1.509   6.615  11.355 -0.2046  0.5592  0.3698
  631MOL0     O85081   1.410   6.533  11.406 -0.4116 -0.6457  0.3016
  631MOL0     C85082   1.281   6.578  11.374  0.6910 -0.6810  1.1302
  631MOL0     C85083   1.216   6.658  11.465 -0.5785 -0.0815  0.5443
  631MOL0     C85084   1.080   6.670  11.453 -0.3088 -0.7019  0.5099
  631MOL0     C85085   1.012   6.626  11.338 -0.3650  0.1701 -0.5114
  631MOL0     O85086   0.876   6.648  11.336  0.2626 -0.1805  0.6662
  631MOL0     C85087   0.808   6.670  11.212 -0.0694  0.0359  0.0373
  631MOL0     C85088   0.667   6.712  11.254 -0.0078  1.1248 -0.3067
  631MOL0     C85089   0.585   6.586  11.302  0.9253  0.2024 -0.1783
  631MOL0     C85090   0.435   6.611  11.324  0.6265 -0.0746  0.3537
  631MOL0     C85091   0.359   6.478  11.326  0.2276  0.0877 -0.1472
  631MOL0     C85092   0.209   6.512  11.328  0.1458  0.7793  1.6684
  631MOL0     C85093   0.160   6.550  11.195  0.0023 -0.8394  0.7015
  631MOL0     C85094   0.016   6.536  11.186  0.3581 -0.3098 -1.1405
  631MOL0    Cl85095  -0.034   6.364  11.148  0.2828 -0.1799  0.1508
  631MOL0     C85096   1.082   6.563  11.238 -0.8469  0.7843  0.0019
  631MOL0     C85097   1.218   6.528  11.256  0.2526 -0.1192  0.4658
  631MOL0     O85098   1.492   6.711  11.283  0.3720  0.7864 -0.0286
  631MOL0     C85099   1.670   6.432  11.429 -0.1064  0.2788  0.4937
  631MOL0     C85100   1.785   6.389  11.486  0.1028  0.1933 -0.0940
  631MOL0     N85101   1.940   6.084  11.224 -0.2632 -0.7152  0.9982
  631MOL0     N85102   1.917   5.960  11.191 -0.5682 -0.4541  0.9414
  631MOL0     C85103   3.002   5.873  10.673  0.1385 -0.0327  0.3017
  631MOL0     C85104   3.131   5.844  10.703 -0.3389  0.0053  0.2547
  631MOL0     C85105   3.530   5.834  10.910  0.9921 -1.4673  0.1440
  631MOL0     C85106   3.571   5.698  10.902 -0.4762 -0.3636 -0.3824
  631MOL0     C85107   3.709   5.667  10.923 -0.2808  0.1626  0.5638
  631MOL0     C85108   3.805   5.765  10.963  0.1100 -0.3467  0.6460
  631MOL0     O85109   3.929   5.747  11.007 -0.2490 -0.6966 -0.1201
  631MOL0     C85110   4.010   5.679  10.911  0.0645  0.3323  0.6383
  631MOL0     C85111   4.160   5.698  10.937  0.6581 -0.3166 -0.4787
  631MOL0     C85112   4.206   5.838  10.883 -0.6347  0.7129 -0.2523
  631MOL0     C85113   4.358   5.848  10.904  0.1967 -1.0130  0.4727
  631MOL0     C85114   4.427   5.757  10.814  0.5665  1.2165  0.3354
  631MOL0     C85115   4.476   5.680  10.745 -0.2154 -0.0151 -0.2404
  631MOL0     C85116   3.751   5.895  10.977 -0.3848 -0.1800  0.8172
  631MOL0     C85117   3.615   5.933  10.946 -0.4050 -1.1194 -0.2563
  631MOL0     H85118   3.115   5.703  11.005  0.6315 -2.0126 -0.5775
  631MOL0     H85119   2.870   5.737  10.965 -1.7558  2.3137 -0.2175
  631MOL0     H85120   2.710   5.942  10.875 -1.4631 -0.7281 -0.1977
  631MOL0     H85121   2.768   6.023  10.737  1.1063 -0.4446  0.6624
  631MOL0     H85122   2.533   6.045  10.744 -1.5904 -1.6932  1.8974
  631MOL0     H85123   2.542   5.917  10.619  1.0458 -0.2916  0.1393
  631MOL0     H85124   2.535   5.738  10.773 -0.4374 -1.1340  1.3761
  631MOL0     H85125   2.488   5.856  10.899 -1.3062 -2.1515  0.4846
  631MOL0     H85126   2.309   5.919  10.728 -1.8387 -1.2100  1.5012
  631MOL0     H85127   2.350   5.775  10.633  1.5753  0.1618 -1.3507
  631MOL0     H85128   2.172   5.704  10.754 -0.5649  1.4882  0.5659
  631MOL0     H85129   2.318   5.635  10.820 -0.0924  0.1433 -2.3492
  631MOL0     H85130   2.308   5.799  11.010  0.2304  0.3356 -0.7759
  631MOL0     H85131   2.179   5.890  10.944 -0.0477 -0.0421 -1.6407
  631MOL0     H85132   2.022   5.701  10.966 -0.0049  0.5114 -0.0510
  631MOL0     H85133   2.154   5.603  11.046 -0.4791 -0.2706 -0.8032
  631MOL0     H85134   2.156   5.739  11.231 -0.7197  0.5898  1.1744
  631MOL0     H85135   1.982   5.700  11.187 -1.2738  1.4254 -1.6525
  631MOL0     H85136   2.238   5.945  11.266 -0.2374 -1.3071  1.7440
  631MOL0     H85137   2.240   6.246  11.277 -1.3428  1.0117 -1.3738
  631MOL0     H85138   2.075   6.305  11.305 -0.5566 -0.6822 -0.6372
  631MOL0     H85139   2.234   6.121  11.482  0.7938  0.9625 -3.4799
  631MOL0     H85140   2.061   6.162  11.514  0.2295  0.2621  1.4292
  631MOL0     H85141   2.311   6.344  11.545 -0.6378  2.0768 -2.4140
  631MOL0     H85142   2.184   6.294  11.656  1.3602 -0.0917 -0.6465
  631MOL0     H85143   2.111   6.472  11.431  1.8270  0.6735 -0.4445
  631MOL0     H85144   2.171   6.534  11.586  1.5425 -1.0189  1.5564
  631MOL0     H85145   1.959   6.674  11.525  1.6634 -1.6672 -1.6663
  631MOL0     H85146   1.728   6.825  11.297 -0.8048 -2.0276 -0.4360
  631MOL0     H85147   1.642   6.842  11.442 -1.7769 -0.8804 -2.0999
  631MOL0     H85148   1.825   6.863  11.441  0.6570 -1.8462  2.6524
  631MOL0     H85149   1.275   6.695  11.549 -0.2207 -2.1389  1.2759
  631MOL0     H85150   1.032   6.729  11.531 -0.6662  2.4067 -1.8539
  631MOL0     H85151   0.856   6.750  11.154 -3.0696 -0.0794 -2.8755
  631MOL0     H85152   0.801   6.580  11.150  1.6717 -0.2810  0.2425
  631MOL0     H85153   0.658   6.775  11.343  3.7882 -0.0589  1.0703
  631MOL0     H85154   0.625   6.754  11.162 -0.9251  0.3367 -0.2713
  631MOL0     H85155   0.632   6.546  11.393 -2.7254  0.1211  1.8719
  631MOL0     H85156   0.602   6.504  11.232  1.3672 -0.5725  0.8076
  631MOL0     H85157   0.405   6.673  11.409 -0.0866 -1.0883  0.8624
  631MOL0     H85158   0.405   6.683  11.247  0.2443 -0.2595  0.3269
  631MOL0     H85159   0.393   6.427  11.417 -1.0334 -1.2279 -0.3828
  631MOL0     H85160   0.391   6.415  11.243  1.7483 -1.0546  1.2126
  631MOL0     H85161   0.147   6.428  11.363  0.9412 -0.7290 -0.3303
  631MOL0     H85162   0.188   6.587  11.405 -1.3403  0.3759  1.6905
  631MOL0     H85163   0.215   6.511  11.110 -0.2963  2.3101 -1.1127
  631MOL0     H85164   0.177   6.658  11.202 -2.7664 -0.3992  2.4316
  631MOL0     H85165  -0.004   6.596  11.097  0.4433  1.1337 -0.2166
  631MOL0     H85166  -0.034   6.581  11.273  0.6207 -1.9918 -0.0644
  631MOL0     H85167   1.019   6.525  11.158  0.6947 -2.6375  0.2540
  631MOL0     H85168   1.282   6.486  11.180  0.3225  1.3620 -0.3474
  631MOL0     H85169   1.603   6.362  11.381  0.2464  0.8305 -0.8430
  631MOL0     H85170   1.789   6.283  11.511  0.1305 -0.1871 -1.6012
  631MOL0     H85171   2.972   5.924  10.582  0.5391  0.2421  0.3240
  631MOL0     H85172   3.211   5.887  10.643  1.5403 -0.5962  2.1818
  631MOL0     H85173   3.506   5.620  10.864 -0.8846 -0.2575  0.0831
  631MOL0     H85174   3.740   5.565  10.904 -2.4878 -0.2161 -1.4347
  631MOL0     H85175   3.993   5.573  10.934  1.7908 -0.1757 -0.1940
  631MOL0     H85176   3.992   5.697  10.804 -0.0812 -1.4685  0.3155
  631MOL0     H85177   4.221   5.614  10.902 -0.3709 -0.4835 -1.9839
  631MOL0     H85178   4.172   5.702  11.045 -1.5350  0.5040 -0.2158
  631MOL0     H85179   4.155   5.919  10.937 -0.5189  2.1981 -2.2629
  631MOL0     H85180   4.181   5.838  10.776 -2.1267 -1.5984  0.0139
  631MOL0     H85181   4.379   5.817  11.007  1.3880  0.3112  0.6549
  631MOL0     H85182   4.385   5.953  10.892 -0.3989 -0.9797 -0.7208
  631MOL0     H85183   4.533   5.618  10.678  4.4955  2.1622  1.3021
  631MOL0     H85184   3.827   5.968  11.006 -1.7448  1.5286  0.2767
  631MOL0     H85185   3.588   6.038  10.939  0.1168 -1.0323 -1.2117
  632MOL0     O85186  10.664   9.254   5.003 -0.1349  0.6259  0.6688
  632MOL0     C85187  10.731   9.353   5.001 -0.5855 -0.4770  0.6652
  632MOL0     O85188  10.681   9.480   5.009 -0.3923 -0.3376  0.1112
  632MOL0     C85189  10.547   9.507   4.995 -0.2157  0.3606  0.4692
  632MOL0     C85190  10.490   9.621   5.061  0.2004  0.1264 -0.2076
  632MOL0     C85191  10.354   9.662   5.048  0.3348 -1.0080  0.8305
  632MOL0     C85192  10.267   9.580   4.966  0.0675 -0.3046  0.3708
  632MOL0     O85193  10.141   9.607   4.919 -0.1216 -0.2298  0.3108
  632MOL0     C85194  10.067   9.706   4.989 -0.3765  0.3581  0.4212
  632MOL0     C85195   9.915   9.688   4.964 -0.6580 -0.2385  0.1885
  632MOL0     C85196   9.884   9.692   4.813 -0.1995  0.3635 -0.2127
  632MOL0     C85197   9.866   9.838   4.759  1.2779  0.9370  0.1050
  632MOL0     C85198   9.827   9.828   4.610  0.0929 -0.0002  0.0334
  632MOL0     C85199   9.823   9.961   4.551  0.5774 -0.4718 -0.6454
  632MOL0     C85200   9.810   9.959   4.399  0.2508 -0.2637  0.4094
  632MOL0     C85201   9.781  10.096   4.349  1.2118  0.0088  0.0963
  632MOL0     N85202   9.668  10.163   4.420 -0.1812 -0.3007  0.1715
  632MOL0     C85203   9.676  10.256   4.520  0.6275  0.0120 -0.0659
  632MOL0     C85204   9.561  10.326   4.518  0.2108  0.3758 -0.2797
  632MOL0     C85205   9.514  10.434   4.612  0.1713  0.3893 -0.5351
  632MOL0     C85206   9.394  10.399   4.694  0.5795  1.0454 -0.2666
  632MOL0     C85207   9.392  10.468   4.826  0.1180  0.0039 -0.0132
  632MOL0     C85208   9.395  10.625   4.808 -0.6187  0.0868 -0.6495
  632MOL0     O85209   9.314  10.672   4.703 -0.4982  0.2061  0.0889
  632MOL0     C85210   9.173  10.674   4.704 -0.1420 -0.3665  0.7766
  632MOL0     C85211   9.097  10.673   4.827  0.1437 -0.2108  0.5375
  632MOL0     C85212   8.954  10.680   4.825 -0.0659 -0.5711  1.2015
  632MOL0     C85213   8.888  10.647   4.954 -0.0976  0.5580  0.2883
  632MOL0     C85214   8.887  10.682   4.701 -0.1875 -0.5177  0.4467
  632MOL0     C85215   8.739  10.689   4.675  0.0032  1.2170  0.0813
  632MOL0     O85216   8.667  10.746   4.783  0.3791  0.4012 -0.2201
  632MOL0     C85217   8.531  10.759   4.768  0.5975  0.3388 -0.1941
  632MOL0     C85218   8.450  10.669   4.844  0.6095  0.3293 -0.1480
  632MOL0     C85219   8.304  10.685   4.834 -0.7764 -0.2197  0.2193
  632MOL0     C85220   8.252  10.785   4.751 -0.0553  0.2009  0.4860
  632MOL0     O85221   8.120  10.794   4.737  0.1130  0.0811 -0.0092
  632MOL0     C85222   8.058  10.859   4.622  0.2231 -0.1614 -1.5139
  632MOL0     C85223   7.907  10.814   4.620  0.7309 -0.2492 -0.9957
  632MOL0     C85224   7.836  10.883   4.741 -0.2674 -0.0860 -0.3086
  632MOL0     C85225   7.688  10.849   4.738  0.5302 -0.2030  0.0146
  632MOL0     C85226   7.593  10.917   4.843  0.4400  0.0545  0.0158
  632MOL0     C85227   7.440  10.897   4.810 -0.4464  0.0884  0.5623
  632MOL0     C85228   7.340  10.974   4.895 -0.8267  0.1974 -0.4224
  632MOL0     C85229   7.292  11.092   4.820  0.0218  0.3255  0.3926
  632MOL0    Cl85230   7.203  11.200   4.930 -0.3914 -0.3177 -0.1236
  632MOL0     C85231   8.333  10.883   4.695  0.5257  0.3354 -0.3798
  632MOL0     C85232   8.474  10.871   4.704  0.4600 -0.1965  0.6671
  632MOL0     O85233   8.689  10.643   4.574  0.4391  0.2302 -0.0994
  632MOL0     C85234   8.962  10.696   4.583 -0.3771 -0.9152 -0.5991
  632MOL0     C85235   9.098  10.693   4.583 -0.2554  0.3270  0.4328
  632MOL0     N85236   9.472  10.264   4.428 -0.0592  0.0631  0.3230
  632MOL0     N85237   9.539  10.167   4.372 -0.5390  0.5601 -0.6039
  632MOL0     C85238  10.321   9.466   4.912  0.8531 -0.4116  0.5491
  632MOL0     C85239  10.454   9.445   4.915 -0.1780  0.6657  0.9139
  632MOL0     C85240  10.883   9.336   4.994  0.5717  0.3167 -0.1459
  632MOL0     C85241  10.945   9.210   5.001 -0.2933 -0.6480 -0.2066
  632MOL0     C85242  11.084   9.195   5.021  0.0846 -0.5655 -0.1446
  632MOL0     C85243  11.169   9.314   5.015  0.0125 -0.4367  0.4502
  632MOL0     O85244  11.301   9.321   5.021 -0.4981 -0.0194 -0.5973
  632MOL0     C85245  11.369   9.198   5.051 -0.9184 -0.6069  0.6419
  632MOL0     C85246  11.515   9.226   5.088  0.1021  0.7756  0.2884
  632MOL0     C85247  11.594   9.275   4.963  0.8350 -0.2719 -0.0095
  632MOL0     C85248  11.735   9.309   5.011  0.1681 -0.4586  0.7426
  632MOL0     C85249  11.784   9.425   4.933 -0.3650 -0.5304 -0.5052
  632MOL0     C85250  11.805   9.524   4.872  0.5611  0.0531  1.0851
  632MOL0     C85251  11.109   9.437   4.990  0.3574  0.4479  0.3150
  632MOL0     C85252  10.963   9.449   4.991  0.1026 -0.3056 -0.1069
  632MOL0     H85253  10.554   9.679   5.126 -0.0935 -1.8864  2.0084
  632MOL0     H85254  10.311   9.757   5.077  0.9982  0.2597 -1.9686
  632MOL0     H85255  10.082   9.710   5.097 -0.3454  1.4354  0.3905
  632MOL0     H85256  10.102   9.799   4.943  0.3974 -0.2285 -0.2022
  632MOL0     H85257   9.888   9.592   5.009 -0.3535 -0.0340  0.8143
  632MOL0     H85258   9.852   9.769   5.002  1.2483  1.4040  0.0272
  632MOL0     H85259   9.962   9.635   4.761 -0.0703  0.9290 -0.6567
  632MOL0     H85260   9.792   9.635   4.800 -0.2462 -0.2858  2.5035
  632MOL0     H85261   9.778   9.878   4.811  0.6738 -1.5858  1.1537
  632MOL0     H85262   9.944   9.914   4.770  0.9637  1.3335 -0.3158
  632MOL0     H85263   9.900   9.768   4.555 -0.3124  0.5644 -1.1708
  632MOL0     H85264   9.730   9.780   4.600 -0.0458  0.3264 -0.2228
  632MOL0     H85265   9.734  10.006   4.595  0.3936 -1.8397  0.4567
  632MOL0     H85266   9.914  10.017   4.572  0.6300 -0.5898 -0.5613
  632MOL0     H85267   9.895   9.918   4.344 -0.4008 -1.6029  0.3596
  632MOL0     H85268   9.727   9.898   4.362  0.9600 -0.0647 -1.6283
  632MOL0     H85269   9.755  10.087   4.244  2.2606 -0.1789 -0.1614
  632MOL0     H85270   9.861  10.170   4.361 -0.9254  2.1577  2.2245
  632MOL0     H85271   9.764  10.283   4.578  0.1919 -1.5410  1.3976
  632MOL0     H85272   9.597  10.450   4.682 -1.2446 -3.3388  2.2868
  632MOL0     H85273   9.484  10.522   4.554 -0.6131 -1.0526 -2.3860
  632MOL0     H85274   9.394  10.291   4.712 -1.9323  0.4704 -3.0277
  632MOL0     H85275   9.304  10.429   4.640 -1.0045  0.1497  1.7434
  632MOL0     H85276   9.480  10.433   4.882  0.1910  0.2704  0.0422
  632MOL0     H85277   9.302  10.432   4.877  0.3154  1.1635  1.2254
  632MOL0     H85278   9.496  10.646   4.772 -1.0642 -1.0069 -2.7110
  632MOL0     H85279   9.386  10.685   4.899  2.5631  0.3754 -0.4307
  632MOL0     H85280   9.151  10.651   4.919  1.4056 -2.0557 -0.5883
  632MOL0     H85281   8.961  10.612   5.027  0.9465  0.9412 -0.5389
  632MOL0     H85282   8.829  10.727   5.000 -1.0911 -0.3304  0.5883
  632MOL0     H85283   8.819  10.563   4.947  2.4490 -1.5807 -5.1096
  632MOL0     H85284   8.491  10.588   4.904 -3.3956 -2.6178 -0.9914
  632MOL0     H85285   8.242  10.617   4.891 -1.9996  0.9064  0.2854
  632MOL0     H85286   8.072  10.967   4.635  0.2171 -0.0690 -2.2441
  632MOL0     H85287   8.104  10.835   4.526 -1.1024 -0.5275 -2.0838
  632MOL0     H85288   7.862  10.848   4.527 -3.7566  0.9589  1.2912
  632MOL0     H85289   7.898  10.706   4.635  2.1225 -0.3954 -1.0967
  632MOL0     H85290   7.840  10.992   4.729 -0.7200 -0.1213 -0.8100
  632MOL0     H85291   7.874  10.857   4.840  3.1724 -2.1488 -1.9804
  632MOL0     H85292   7.649  10.878   4.640  1.5280 -1.2040 -0.6921
  632MOL0     H85293   7.681  10.740   4.741 -0.5317 -0.1453  0.1397
  632MOL0     H85294   7.608  11.025   4.839  0.7743  0.0036 -0.1442
  632MOL0     H85295   7.621  10.883   4.943  2.9341 -0.4143 -0.7714
  632MOL0     H85296   7.426  10.921   4.705  1.6254  0.4178  0.3290
  632MOL0     H85297   7.406  10.795   4.830 -3.2905  0.6650 -0.7761
  632MOL0     H85298   7.382  11.011   4.989 -1.2179 -1.0170  0.2506
  632MOL0     H85299   7.252  10.910   4.906  0.6260 -1.5142  1.9915
  632MOL0     H85300   7.233  11.060   4.733  2.7909  1.7838 -2.2285
  632MOL0     H85301   7.385  11.138   4.784 -1.0884  2.5482  0.1929
  632MOL0     H85302   8.297  10.975   4.649  1.7093  1.0744  0.1254
  632MOL0     H85303   8.537  10.952   4.668  0.9825 -0.1491  1.6638
  632MOL0     H85304   8.900  10.708   4.495  1.9204  1.8237 -2.0083
  632MOL0     H85305   9.156  10.720   4.496 -0.3902  1.2314  0.6108
  632MOL0     H85306  10.257   9.409   4.845  1.0955  0.4854 -0.4844
  632MOL0     H85307  10.503   9.367   4.859 -0.5119  0.6569  0.6319
  632MOL0     H85308  10.881   9.122   4.995 -2.0217  0.6193 -1.5230
  632MOL0     H85309  11.129   9.103   5.054  1.0331  0.7733  2.6591
  632MOL0     H85310  11.328   9.163   5.147  0.5352 -0.3359  1.3788
  632MOL0     H85311  11.356   9.123   4.972 -2.9639  1.6074 -1.2953
  632MOL0     H85312  11.565   9.131   5.110 -2.7589 -0.5396  1.5044
  632MOL0     H85313  11.533   9.295   5.171  2.2201 -1.0084  1.4203
  632MOL0     H85314  11.542   9.356   4.911  1.0988 -0.0073  0.1374
  632MOL0     H85315  11.599   9.189   4.895 -0.6221  0.5904 -1.2840
  632MOL0     H85316  11.796   9.225   4.977 -0.9561 -0.2764 -1.9484
  632MOL0     H85317  11.738   9.328   5.119 -2.4630 -1.7920  1.1219
  632MOL0     H85318  11.823   9.618   4.825 -0.8602  0.7558  1.8736
  632MOL0     H85319  11.169   9.526   4.974 -0.1717  0.6521 -0.6192
  632MOL0     H85320  10.912   9.544   4.979 -1.0225 -0.7973  0.5721
  633MOL0     O85321  11.249   3.479   4.053 -0.2248 -0.7609 -0.4436
  633MOL0     C85322  11.297   3.398   3.975  0.2550  0.3353 -0.2140
  633MOL0     O85323  11.226   3.335   3.878 -0.6200  0.8172  0.2035
  633MOL0     C85324  11.096   3.368   3.864 -1.4109  0.2330 -0.4385
  633MOL0     C85325  10.994   3.289   3.920  0.3555 -0.6212 -0.9611
  633MOL0     C85326  10.859   3.326   3.892 -0.0751  0.2740 -0.4455
  633MOL0     C85327  10.830   3.428   3.806  0.2249 -1.0081 -0.1904
  633MOL0     O85328  10.704   3.460   3.770  0.0023 -0.1026  0.3120
  633MOL0     C85329  10.588   3.388   3.808 -1.0158  0.0021 -0.2428
  633MOL0     C85330  10.473   3.419   3.708 -0.0076  0.7562 -0.1417
  633MOL0     C85331  10.351   3.357   3.762 -0.1060 -0.3797  0.2171
  633MOL0     C85332  10.230   3.423   3.681 -1.0566 -0.3310 -0.1837
  633MOL0     C85333  10.097   3.379   3.735 -0.3414  0.8968 -0.6416
  633MOL0     C85334   9.988   3.420   3.654  1.2607  0.4635 -0.5358
  633MOL0     C85335   9.848   3.388   3.718  0.1218 -0.1228  0.5601
  633MOL0     C85336   9.739   3.454   3.632  0.1934 -0.5494  0.2592
  633MOL0     N85337   9.603   3.436   3.695 -0.5716  0.5748 -0.1027
  633MOL0     C85338   9.529   3.323   3.671  0.3221 -0.6079 -0.4266
  633MOL0     C85339   9.407   3.356   3.727  0.0482  1.0249 -0.6052
  633MOL0     C85340   9.293   3.266   3.741  0.1409  0.4341 -0.1335
  633MOL0     C85341   9.190   3.337   3.652 -0.6495 -0.2892 -0.5331
  633MOL0     C85342   9.068   3.256   3.601  0.0781 -0.2561 -0.5201
  633MOL0     C85343   8.995   3.192   3.716  0.1194 -0.5657  0.7574
  633MOL0     O85344   8.886   3.115   3.666  0.6516 -0.3001  0.1411
  633MOL0     C85345   8.769   3.175   3.624  0.1266 -0.2847 -1.0270
  633MOL0     C85346   8.697   3.109   3.531  0.1244  0.2757 -0.9022
  633MOL0     C85347   8.569   3.151   3.488  0.4398 -0.6034 -0.2916
  633MOL0     C85348   8.496   3.058   3.386 -0.3023  0.0458 -0.7972
  633MOL0     C85349   8.523   3.279   3.530 -0.2545 -0.4231  0.9155
  633MOL0     C85350   8.390   3.338   3.485 -0.2416 -0.2736 -0.3266
  633MOL0     O85351   8.350   3.460   3.531  0.0934 -0.4763 -0.0640
  633MOL0     C85352   8.238   3.530   3.481 -0.5546  0.3699  0.1039
  633MOL0     C85353   8.255   3.665   3.461  0.3508 -1.2947 -0.5225
  633MOL0     C85354   8.138   3.746   3.440 -0.2973  0.4008  0.4964
  633MOL0     C85355   8.012   3.689   3.415 -0.4966  0.7069 -0.1134
  633MOL0     O85356   7.900   3.765   3.391 -0.1036  0.4240 -0.5680
  633MOL0     C85357   7.911   3.911   3.366 -0.0189  0.4135 -0.4714
  633MOL0     C85358   7.780   3.955   3.311 -0.2547 -0.2991 -0.3240
  633MOL0     C85359   7.665   3.908   3.397  0.4211  0.1954 -0.3645
  633MOL0     C85360   7.546   3.955   3.313 -0.4551  0.7820 -0.5005
  633MOL0     C85361   7.422   3.935   3.399  0.1343  0.5350 -0.2843
  633MOL0     C85362   7.293   3.987   3.335 -0.2996  0.0851 -0.3030
  633MOL0     C85363   7.178   3.936   3.429 -1.0739 -0.3596  0.5012
  633MOL0     C85364   7.042   3.999   3.386 -0.4519  0.3270  0.3859
  633MOL0    Cl85365   6.907   3.947   3.481 -0.1457 -0.5306  0.4369
  633MOL0     C85366   7.998   3.556   3.442  0.4516 -0.0763  0.0558
  633MOL0     C85367   8.106   3.478   3.481  0.3327  0.3705 -0.6973
  633MOL0     O85368   8.319   3.268   3.406 -0.2789 -0.6059  0.5659
  633MOL0     C85369   8.605   3.352   3.616  0.6843  0.8238 -0.0482
  633MOL0     C85370   8.723   3.303   3.669 -0.1023  0.0422 -0.2753
  633MOL0     N85371   9.412   3.491   3.768  0.2727  0.0185  0.1467
  633MOL0     N85372   9.529   3.529   3.749  0.2635 -0.0562  0.0502
  633MOL0     C85373  10.922   3.506   3.750 -0.3965  0.1340 -0.3166
  633MOL0     C85374  11.060   3.479   3.781  0.1145 -0.2128  0.3470
  633MOL0     C85375  11.436   3.351   3.995  0.1566 -0.2194 -0.1975
  633MOL0     C85376  11.527   3.412   4.086 -0.0820  0.5756 -0.0536
  633MOL0     C85377  11.661   3.385   4.099  0.5642 -0.2624  0.0164
  633MOL0     C85378  11.711   3.279   4.017 -0.2281  0.7162 -0.0147
  633MOL0     O85379  11.842   3.235   4.028  0.6588 -0.2841  0.9662
  633MOL0     C85380  11.895   3.124   3.943  0.5693  0.3469  0.4454
  633MOL0     C85381  12.028   3.077   3.991 -0.1085 -0.1381  0.6420
  633MOL0     C85382  12.031   2.973   4.100  0.1546  0.6318  1.0432
  633MOL0     C85383  11.925   3.005   4.208 -0.9354 -0.2448 -0.1867
  633MOL0     C85384  11.940   2.904   4.316  1.1525 -0.4025 -0.4977
  633MOL0     C85385  11.946   2.831   4.420 -0.9437 -0.4495  0.4520
  633MOL0     C85386  11.622   3.213   3.926  1.2148  0.0122 -0.1190
  633MOL0     C85387  11.484   3.249   3.915  0.3046 -0.4059  0.3399
  633MOL0     H85388  11.028   3.214   3.991  0.8162  1.5930  1.2561
  633MOL0     H85389  10.780   3.268   3.938  2.9430 -3.5652  0.4266
  633MOL0     H85390  10.616   3.282   3.803  0.5062  0.3654 -0.0061
  633MOL0     H85391  10.576   3.428   3.909  0.1315  0.7125 -0.3659
  633MOL0     H85392  10.463   3.528   3.715  0.2613  0.6781  4.6887
  633MOL0     H85393  10.496   3.388   3.605 -0.7002  0.6822 -0.2817
  633MOL0     H85394  10.351   3.248   3.768  1.0579 -0.3172  2.2499
  633MOL0     H85395  10.347   3.387   3.868  0.6282  2.0070 -0.3560
  633MOL0     H85396  10.235   3.532   3.689 -1.9098 -0.3576  0.9233
  633MOL0     H85397  10.249   3.393   3.577  0.8271  3.1808 -1.0257
  633MOL0     H85398  10.096   3.270   3.743  2.9808  0.9041  2.2305
  633MOL0     H85399  10.084   3.431   3.830 -0.9071  0.6224 -0.5667
  633MOL0     H85400   9.998   3.525   3.627  0.0802  0.9637  0.8042
  633MOL0     H85401   9.992   3.374   3.555  1.3551 -1.8910  0.4823
  633MOL0     H85402   9.824   3.281   3.718 -2.0581  0.2520 -1.9886
  633MOL0     H85403   9.845   3.433   3.817  0.5351  0.3456  0.3629
  633MOL0     H85404   9.746   3.403   3.535  1.7473  0.2127 -0.0573
  633MOL0     H85405   9.763   3.560   3.614  1.6430 -1.0564 -1.0297
  633MOL0     H85406   9.561   3.227   3.634 -0.2479 -1.3081  0.8284
  633MOL0     H85407   9.331   3.171   3.702 -1.0557 -1.2749  2.5628
  633MOL0     H85408   9.263   3.251   3.845  4.6579 -1.1801  1.1866
  633MOL0     H85409   9.233   3.384   3.563 -1.7263  0.4796 -0.6541
  633MOL0     H85410   9.160   3.424   3.710  2.3532 -0.9149  2.2361
  633MOL0     H85411   9.109   3.171   3.545 -0.1587 -1.8479  1.5620
  633MOL0     H85412   9.003   3.321   3.544  0.9163  0.6685 -0.4513
  633MOL0     H85413   8.953   3.264   3.787  1.0011  0.7969 -0.0607
  633MOL0     H85414   9.057   3.123   3.775 -2.5465 -3.0850  0.8574
  633MOL0     H85415   8.723   3.005   3.514 -3.4409 -0.8702 -0.1256
  633MOL0     H85416   8.541   2.958   3.388 -2.5307 -1.2192  4.8406
  633MOL0     H85417   8.392   3.040   3.414 -0.5781  0.5802 -1.4541
  633MOL0     H85418   8.499   3.104   3.286 -2.7717 -0.3600 -1.1093
  633MOL0     H85419   8.353   3.706   3.480 -0.3186 -1.3868  4.3621
  633MOL0     H85420   8.153   3.853   3.447  0.5640  0.3924 -0.9147
  633MOL0     H85421   7.939   3.958   3.461 -1.4965  2.5523 -1.0224
  633MOL0     H85422   7.992   3.929   3.294  0.7733 -3.8548 -0.8977
  633MOL0     H85423   7.783   4.064   3.315  0.0708 -0.3110 -0.2652
  633MOL0     H85424   7.776   3.927   3.205 -1.2210  0.8017 -0.5902
  633MOL0     H85425   7.664   3.958   3.495  2.1100  0.6214 -0.5289
  633MOL0     H85426   7.672   3.800   3.414 -0.2118  0.3000  0.6936
  633MOL0     H85427   7.556   4.061   3.287  2.3068  0.3523 -1.5437
  633MOL0     H85428   7.535   3.878   3.237  1.2322 -0.6534  0.6282
  633MOL0     H85429   7.440   3.994   3.490  3.9038 -0.1139 -0.4242
  633MOL0     H85430   7.421   3.833   3.440  3.0901  0.9475  1.1118
  633MOL0     H85431   7.289   4.095   3.321 -0.4158  0.2821  1.1421
  633MOL0     H85432   7.293   3.946   3.233  2.0115 -0.8119  0.0025
  633MOL0     H85433   7.196   3.975   3.529 -0.9598  0.2955  0.2276
  633MOL0     H85434   7.169   3.827   3.421 -1.7402 -0.2357 -0.8708
  633MOL0     H85435   7.032   3.983   3.279  1.4139  2.8326 -0.2570
  633MOL0     H85436   7.038   4.108   3.396 -2.3952  0.4402 -1.0430
  633MOL0     H85437   7.901   3.507   3.439 -0.3408  1.1642  2.4924
  633MOL0     H85438   8.072   3.378   3.506  0.3541 -0.1444 -2.5648
  633MOL0     H85439   8.551   3.432   3.666 -2.8847 -0.9357 -0.7333
  633MOL0     H85440   8.775   3.366   3.740  1.9620 -0.0245 -1.6541
  633MOL0     H85441  10.897   3.590   3.686 -1.0539  0.7777  0.7638
  633MOL0     H85442  11.135   3.536   3.726 -0.8463  0.9006  0.1544
  633MOL0     H85443  11.482   3.479   4.159 -1.4231  0.8051 -1.0559
  633MOL0     H85444  11.713   3.448   4.170 -3.9584  3.4311  0.4636
  633MOL0     H85445  11.824   3.041   3.939  0.1201  0.7478 -2.4987
  633MOL0     H85446  11.892   3.166   3.842 -2.0804  2.2895  1.2143
  633MOL0     H85447  12.094   3.159   4.022  0.0747 -0.1070  0.1783
  633MOL0     H85448  12.075   3.040   3.900  2.3390 -1.4208  2.3062
  633MOL0     H85449  12.128   2.953   4.146  0.5486 -2.2568 -0.8003
  633MOL0     H85450  12.014   2.877   4.050 -1.8421 -0.0865  2.9285
  633MOL0     H85451  11.822   3.007   4.172 -0.6449  0.2524 -0.9973
  633MOL0     H85452  11.959   3.104   4.239  1.2886 -0.7202 -0.9131
  633MOL0     H85453  11.982   2.768   4.499  1.7848  1.6842  1.0900
  633MOL0     H85454  11.648   3.133   3.859  0.6557 -0.9743  0.8134
  633MOL0     H85455  11.420   3.193   3.847  1.8020 -0.5647 -1.0102
  634MOL0     O85456   5.138   2.095   0.409 -0.4947  0.0747  0.4340
  634MOL0     C85457   5.099   2.063   0.296  0.8217  0.8567  0.4321
  634MOL0     O85458   5.176   1.997   0.197  0.2258 -1.0972 -0.1629
  634MOL0     C85459   5.314   1.998   0.196  0.2433  1.1936 -0.2092
  634MOL0     C85460   5.368   1.893   0.122 -0.3000  0.0238 -0.3470
  634MOL0     C85461   5.508   1.871   0.119 -0.7948 -0.2617 -0.3665
  634MOL0     C85462   5.594   1.946   0.200 -0.1620  0.3339  0.2392
  634MOL0     O85463   5.726   1.916   0.191  0.0394 -0.0929  0.4126
  634MOL0     C85464   5.774   1.864   0.317  0.1020 -0.2541  0.0533
  634MOL0     C85465   5.714   1.731   0.378 -0.5192 -0.7005  0.1231
  634MOL0     C85466   5.793   1.688   0.499 -0.4756 -0.7578 -0.1746
  634MOL0     C85467   5.794   1.790   0.620  0.1637 -0.6995  0.6472
  634MOL0     C85468   5.657   1.796   0.691 -0.0530 -0.5696  0.7046
  634MOL0     C85469   5.679   1.857   0.827  0.0438 -0.8014  0.9665
  634MOL0     C85470   5.554   1.935   0.880  1.1300 -0.0447  0.5931
  634MOL0     C85471   5.452   1.829   0.942  0.8049 -0.2859 -1.4731
  634MOL0     N85472   5.338   1.888   1.012  0.2425 -0.5043 -0.2884
  634MOL0     C85473   5.227   1.939   0.953 -0.5659  0.4924  0.5971
  634MOL0     C85474   5.135   1.950   1.052 -0.0760 -0.2160 -0.1472
  634MOL0     C85475   5.001   2.003   1.025  0.8656 -0.0451  0.7286
  634MOL0     C85476   4.895   1.948   1.138 -0.2580 -0.6809 -0.1031
  634MOL0     C85477   4.766   2.031   1.134  1.0093 -0.4188 -0.8491
  634MOL0     C85478   4.672   1.983   1.243  0.3261  0.6994  0.5391
  634MOL0     O85479   4.548   2.051   1.240 -0.3652 -0.4651 -0.5640
  634MOL0     C85480   4.449   2.014   1.322  0.2028 -0.6962  0.6118
  634MOL0     C85481   4.463   1.943   1.441 -0.3100  0.6150 -0.4504
  634MOL0     C85482   4.353   1.891   1.510 -0.8906  0.5195  0.1250
  634MOL0     C85483   4.385   1.822   1.638 -0.0394 -0.5406 -0.2888
  634MOL0     C85484   4.223   1.921   1.471  0.2437  0.2360  0.2002
  634MOL0     C85485   4.104   1.885   1.554  0.7582 -0.5739  0.7308
  634MOL0     O85486   3.988   1.949   1.514 -0.0034 -0.3828  0.4932
  634MOL0     C85487   3.874   1.946   1.580 -0.7484  0.4550 -0.4997
  634MOL0     C85488   3.861   1.989   1.707  0.9214 -0.3614  0.0126
  634MOL0     C85489   3.736   1.988   1.773 -0.5688 -0.5784  0.4755
  634MOL0     C85490   3.620   1.934   1.710  0.8213  0.0312 -1.0241
  634MOL0     O85491   3.493   1.919   1.774  0.2371  0.4695  0.7154
  634MOL0     C85492   3.441   2.030   1.848 -0.4199  0.2704 -0.7419
  634MOL0     C85493   3.285   2.009   1.848 -0.1610 -0.0089  0.1373
  634MOL0     C85494   3.227   2.013   1.703  0.7411 -0.1742  0.2854
  634MOL0     C85495   3.076   1.979   1.702 -0.3007 -0.3272 -0.4628
  634MOL0     C85496   3.050   1.832   1.724  0.0837 -0.0999 -0.0876
  634MOL0     C85497   2.906   1.791   1.773  0.1335  1.0320  1.0243
  634MOL0     C85498   2.798   1.800   1.668  0.5375  0.2554  0.4402
  634MOL0     C85499   2.658   1.793   1.728  0.2240  0.1533 -0.0390
  634MOL0    Cl85500   2.544   1.849   1.606  0.1328 -0.6200  0.2253
  634MOL0     C85501   3.629   1.897   1.581 -0.2251  0.1625  0.6914
  634MOL0     C85502   3.760   1.905   1.518 -0.4154  0.5916 -0.4575
  634MOL0     O85503   4.110   1.813   1.647 -0.4221  0.2354 -0.4398
  634MOL0     C85504   4.204   2.007   1.358  0.4686 -0.5531  0.1352
  634MOL0     C85505   4.316   2.050   1.281 -0.0754 -0.4212 -0.3577
  634MOL0     N85506   5.196   1.896   1.172  1.0874 -1.0730  0.5811
  634MOL0     N85507   5.318   1.876   1.149 -0.0952 -0.4082  0.2178
  634MOL0     C85508   5.536   2.053   0.274  0.0326 -0.3451 -0.1824
  634MOL0     C85509   5.396   2.075   0.271 -0.4293 -0.0795 -0.0793
  634MOL0     C85510   4.961   2.091   0.262 -0.3615 -0.8159  0.2676
  634MOL0     C85511   4.874   2.120   0.366  0.5380 -0.8131  0.5396
  634MOL0     C85512   4.740   2.163   0.333  0.0089 -0.7538 -0.0554
  634MOL0     C85513   4.706   2.168   0.198  0.5610  0.4502 -0.3379
  634MOL0     O85514   4.583   2.201   0.150  0.5679 -0.0976 -0.1842
  634MOL0     C85515   4.468   2.201   0.239  0.0993  0.6722  0.7376
  634MOL0     C85516   4.446   2.067   0.305  0.6066 -0.2422 -0.0657
  634MOL0     C85517   4.394   2.082   0.443 -0.0438 -0.9730 -0.4947
  634MOL0     C85518   4.249   2.123   0.425 -0.6460 -0.1044 -0.5847
  634MOL0     C85519   4.184   2.115   0.557  0.0409 -0.1988  0.2666
  634MOL0     C85520   4.132   2.107   0.665  0.4384 -0.2653  0.1323
  634MOL0     C85521   4.797   2.140   0.097 -0.9652 -0.4367 -0.0263
  634MOL0     C85522   4.925   2.097   0.125  0.8823 -0.2448  0.2935
  634MOL0     H85523   5.307   1.840   0.049  2.5813 -0.5996 -2.4630
  634MOL0     H85524   5.546   1.798   0.048  1.3136 -0.1471  0.5643
  634MOL0     H85525   5.881   1.847   0.309  0.2517  0.4184  0.5576
  634MOL0     H85526   5.766   1.937   0.398 -0.0482 -0.4308  0.1977
  634MOL0     H85527   5.613   1.742   0.417  0.6211 -0.4765  3.2660
  634MOL0     H85528   5.714   1.646   0.309  3.2334 -0.8729  0.1301
  634MOL0     H85529   5.753   1.590   0.529  1.4853 -2.2227 -2.0261
  634MOL0     H85530   5.896   1.667   0.467  0.1407 -1.1169  1.8871
  634MOL0     H85531   5.866   1.749   0.691  3.9726  0.4587 -2.1935
  634MOL0     H85532   5.826   1.889   0.585 -0.3393 -1.1811 -1.2887
  634MOL0     H85533   5.587   1.854   0.630 -0.3663 -0.6766  0.9596
  634MOL0     H85534   5.613   1.696   0.687 -0.1135 -0.5080 -0.7698
  634MOL0     H85535   5.713   1.783   0.899  0.6323 -0.1716  1.3433
  634MOL0     H85536   5.759   1.931   0.818 -0.3289 -0.3184  1.5571
  634MOL0     H85537   5.586   2.007   0.956  0.5826  0.0654  0.7236
  634MOL0     H85538   5.504   1.995   0.802 -1.6237 -1.6476  0.9843
  634MOL0     H85539   5.503   1.773   1.021 -0.5436 -0.3233 -0.5971
  634MOL0     H85540   5.416   1.750   0.875  0.9015  0.0666 -1.9447
  634MOL0     H85541   5.218   1.956   0.847  0.7471 -0.1920  0.3537
  634MOL0     H85542   4.999   2.112   1.023 -0.0071 -0.0019  2.2055
  634MOL0     H85543   4.975   1.964   0.926  0.2291  3.6370 -0.7047
  634MOL0     H85544   4.940   1.967   1.236  0.0708 -0.5286 -0.2789
  634MOL0     H85545   4.876   1.841   1.129 -3.2949 -0.5660  3.1512
  634MOL0     H85546   4.718   2.027   1.036 -1.2160 -2.8534  0.2275
  634MOL0     H85547   4.794   2.136   1.146  2.4985 -0.6298 -2.1323
  634MOL0     H85548   4.722   2.004   1.338  0.0441  0.7666  0.6724
  634MOL0     H85549   4.648   1.878   1.225  0.0775  0.7991  0.2875
  634MOL0     H85550   4.560   1.927   1.487 -0.2214  1.7821 -0.2043
  634MOL0     H85551   4.492   1.808   1.655  0.1200  1.0810  0.2616
  634MOL0     H85552   4.359   1.889   1.721 -0.6353  3.1768 -3.1871
  634MOL0     H85553   4.335   1.726   1.648  1.4642 -1.2800  0.4995
  634MOL0     H85554   3.953   2.028   1.748  2.0326 -0.8836 -1.8626
  634MOL0     H85555   3.730   2.028   1.874 -1.1540  1.1687 -0.2135
  634MOL0     H85556   3.476   2.035   1.952  0.3702 -1.0862 -0.9112
  634MOL0     H85557   3.470   2.119   1.791  1.7422  0.1853  0.1115
  634MOL0     H85558   3.282   1.910   1.895  2.5313 -0.1477  0.1548
  634MOL0     H85559   3.232   2.078   1.914 -1.9488  0.8183 -2.0345
  634MOL0     H85560   3.284   1.947   1.638  0.6948  0.1472 -0.0885
  634MOL0     H85561   3.244   2.115   1.667  1.0021  1.3484  4.2460
  634MOL0     H85562   3.032   2.034   1.786  1.4571  0.4127  0.0105
  634MOL0     H85563   3.024   2.018   1.613 -0.3717  1.5096  0.3289
  634MOL0     H85564   3.125   1.804   1.798  0.0718  3.2583  1.3977
  634MOL0     H85565   3.064   1.785   1.626  0.4694 -1.4371  0.5883
  634MOL0     H85566   2.909   1.687   1.808 -0.6758  0.2910 -0.9828
  634MOL0     H85567   2.873   1.855   1.855  1.5457  1.7412  1.0602
  634MOL0     H85568   2.817   1.710   1.610  0.9947 -0.5891  1.8447
  634MOL0     H85569   2.806   1.890   1.606 -1.2506 -1.3495 -2.2943
  634MOL0     H85570   2.637   1.852   1.819 -0.3683  0.1943 -0.1995
  634MOL0     H85571   2.634   1.690   1.756  2.8728 -0.3522  0.6799
  634MOL0     H85572   3.544   1.849   1.534  0.2567 -1.3444  1.3025
  634MOL0     H85573   3.777   1.877   1.415  2.7817 -2.0442  0.5917
  634MOL0     H85574   4.109   2.046   1.324  2.0943  1.4974 -2.4307
  634MOL0     H85575   4.296   2.117   1.199  0.1687 -0.6354 -0.5925
  634MOL0     H85576   5.607   2.114   0.328  1.5592 -2.0359 -0.1630
  634MOL0     H85577   5.361   2.146   0.345  0.3707  0.1678  0.0714
  634MOL0     H85578   4.917   2.118   0.466  0.8539 -2.8799  0.4100
  634MOL0     H85579   4.671   2.173   0.416  0.1666  1.0843 -0.1136
  634MOL0     H85580   4.481   2.277   0.317  0.3457  0.9390  0.4407
  634MOL0     H85581   4.381   2.219   0.176  0.6414  3.1349  0.5538
  634MOL0     H85582   4.537   2.006   0.307  2.0196  1.7874  1.4169
  634MOL0     H85583   4.373   2.006   0.252 -0.3828 -0.5483  1.5614
  634MOL0     H85584   4.454   2.159   0.491 -0.7440 -0.2871 -0.6978
  634MOL0     H85585   4.400   1.990   0.501  0.6002 -1.6469 -1.5793
  634MOL0     H85586   4.205   2.044   0.363 -0.1627 -0.9029  0.0727
  634MOL0     H85587   4.238   2.219   0.373 -0.0815 -0.5083 -1.4766
  634MOL0     H85588   4.078   2.093   0.756  0.0899 -2.8622 -0.3909
  634MOL0     H85589   4.759   2.157  -0.004 -1.5366  0.1675  0.2848
  634MOL0     H85590   5.005   2.079   0.053  0.4324  0.7735 -0.4766
  635MOL0     O85591   6.704   6.829   6.575  0.1385  0.3210 -0.3571
  635MOL0     C85592   6.662   6.848   6.685 -0.5332 -0.6212 -0.1665
  635MOL0     O85593   6.527   6.863   6.718 -0.3179 -0.5576 -0.3170
  635MOL0     C85594   6.438   6.914   6.623  0.2839  0.5855 -0.0563
  635MOL0     C85595   6.307   6.870   6.608  0.0621  0.8081  1.6892
  635MOL0     C85596   6.223   6.919   6.509  0.3207  0.8103  0.3442
  635MOL0     C85597   6.267   7.022   6.420 -0.0147  0.1433  0.5126
  635MOL0     O85598   6.208   7.075   6.306  0.0032 -0.1532 -0.6688
  635MOL0     C85599   6.068   7.044   6.293  1.0093 -0.1543  0.5092
  635MOL0     C85600   6.062   6.905   6.218  0.3853  0.2486 -1.0432
  635MOL0     C85601   5.914   6.901   6.178  0.2910  0.1644  0.7651
  635MOL0     C85602   5.882   6.777   6.106  0.2922 -0.1312 -0.4052
  635MOL0     C85603   5.734   6.773   6.061 -0.2694  0.8270  1.0476
  635MOL0     C85604   5.702   6.627   6.019  0.0820 -0.1034  0.1903
  635MOL0     C85605   5.562   6.627   5.958  0.2629  0.2562  0.0981
  635MOL0     C85606   5.448   6.662   6.055  0.2522 -0.7436  0.1827
  635MOL0     N85607   5.321   6.618   5.996 -0.3882  0.4836 -0.0325
  635MOL0     C85608   5.237   6.676   5.905 -0.5919 -0.9021 -0.0228
  635MOL0     C85609   5.140   6.580   5.893 -0.6071 -0.5612 -0.2177
  635MOL0     C85610   5.021   6.590   5.801  0.8220 -0.1785  0.3101
  635MOL0     C85611   4.887   6.640   5.877 -0.4138 -0.4908 -0.0580
  635MOL0     C85612   4.789   6.530   5.930 -0.5781 -0.2634  0.5977
  635MOL0     C85613   4.717   6.477   5.811  0.1076  0.2186  0.0347
  635MOL0     O85614   4.650   6.366   5.857 -0.4851  0.9000  0.0407
  635MOL0     C85615   4.518   6.376   5.891 -0.4889 -0.5692 -0.8662
  635MOL0     C85616   4.482   6.361   6.026 -0.1945  0.2179 -0.0393
  635MOL0     C85617   4.362   6.400   6.073 -0.1348  0.2683  0.1260
  635MOL0     C85618   4.331   6.373   6.212 -0.2908 -0.4586  0.0856
  635MOL0     C85619   4.263   6.446   5.975  1.0685  0.5155  0.2167
  635MOL0     C85620   4.121   6.477   6.013 -0.2801 -0.5740  0.0347
  635MOL0     O85621   4.042   6.465   5.908 -0.6867  0.3789  0.0810
  635MOL0     C85622   3.921   6.528   5.921 -1.3921  0.7649 -0.5189
  635MOL0     C85623   3.882   6.639   5.837  0.3551  0.0457  0.6722
  635MOL0     C85624   3.757   6.703   5.857  0.5795 -0.2560  0.1454
  635MOL0     C85625   3.667   6.659   5.957 -0.5249  0.4904  0.4729
  635MOL0     O85626   3.541   6.713   5.980  0.1413 -0.6719  0.7587
  635MOL0     C85627   3.484   6.783   5.863 -0.1110 -0.6432 -0.1118
  635MOL0     C85628   3.329   6.791   5.876  0.5776 -0.4596 -1.1115
  635MOL0     C85629   3.266   6.874   5.764 -0.6315 -0.2519  0.4559
  635MOL0     C85630   3.116   6.887   5.781 -0.6771  0.8983 -0.2049
  635MOL0     C85631   3.061   6.977   5.674 -0.1688  0.0157 -0.8604
  635MOL0     C85632   2.915   6.981   5.667 -0.0224 -0.1517 -0.0562
  635MOL0     C85633   2.854   7.016   5.803 -0.2814 -0.3218 -0.3362
  635MOL0     C85634   2.702   7.032   5.778 -0.2848 -0.5244  0.3151
  635MOL0    Cl85635   2.628   7.077   5.932  0.0258  0.1794 -0.2859
  635MOL0     C85636   3.715   6.560   6.049 -0.6093  0.8535  0.5113
  635MOL0     C85637   3.831   6.495   6.024 -0.3781  0.5333  0.3634
  635MOL0     O85638   4.085   6.510   6.129  0.4562  0.1346 -0.6704
  635MOL0     C85639   4.293   6.456   5.840 -0.1595 -0.1468  0.3087
  635MOL0     C85640   4.422   6.424   5.804 -0.1616 -0.7318  0.3879
  635MOL0     N85641   5.160   6.471   5.971  0.7297  0.0870  0.0160
  635MOL0     N85642   5.274   6.497   6.021 -0.1531 -0.1512  0.0891
  635MOL0     C85643   6.401   7.071   6.433 -0.6881 -0.9350 -0.7047
  635MOL0     C85644   6.483   7.023   6.535 -0.2738 -0.7577 -0.6983
  635MOL0     C85645   6.761   6.844   6.790 -0.6396  0.8201 -1.2447
  635MOL0     C85646   6.894   6.807   6.763  0.4139 -0.1037  0.7267
  635MOL0     C85647   6.983   6.783   6.863 -0.4233  0.4875 -0.1533
  635MOL0     C85648   6.946   6.798   6.997 -0.6782 -0.0349  0.7629
  635MOL0     O85649   7.049   6.783   7.088 -0.6331 -0.3095 -0.1072
  635MOL0     C85650   7.005   6.770   7.228  0.3303 -0.0035 -0.0561
  635MOL0     C85651   6.968   6.625   7.259  0.0245  0.2511  0.2832
  635MOL0     C85652   6.933   6.609   7.411  0.5976 -0.2070 -0.0276
  635MOL0     C85653   6.948   6.456   7.443 -0.7140 -0.2685  0.1110
  635MOL0     C85654   6.948   6.427   7.588  0.4805 -0.4213  0.6188
  635MOL0     C85655   6.962   6.416   7.709 -0.6104  0.0348  0.0796
  635MOL0     C85656   6.811   6.821   7.029  0.0917 -0.6122 -0.2774
  635MOL0     C85657   6.717   6.842   6.923 -0.2484 -0.5497 -0.4790
  635MOL0     H85658   6.273   6.787   6.668 -0.0836 -0.1191  0.3758
  635MOL0     H85659   6.126   6.870   6.503  0.4294  0.6986 -0.7066
  635MOL0     H85660   6.010   7.044   6.386 -0.8744 -0.1547 -0.5999
  635MOL0     H85661   6.018   7.121   6.232 -1.3421 -2.4841 -0.6997
  635MOL0     H85662   6.130   6.898   6.132  2.5858 -2.6216  0.7679
  635MOL0     H85663   6.081   6.826   6.290 -0.6786  1.7444  0.9934
  635MOL0     H85664   5.851   6.896   6.267 -0.4750  0.1697  0.2359
  635MOL0     H85665   5.903   6.983   6.106  0.3758 -0.5389 -0.0761
  635MOL0     H85666   5.940   6.756   6.016  0.9367 -0.1706  0.0143
  635MOL0     H85667   5.903   6.697   6.178  2.0260  1.0603  0.4730
  635MOL0     H85668   5.666   6.803   6.142 -2.4847  3.5059 -1.5640
  635MOL0     H85669   5.710   6.842   5.980  2.7175  0.2075 -0.4867
  635MOL0     H85670   5.773   6.587   5.946  0.3571 -2.1332  1.5021
  635MOL0     H85671   5.713   6.551   6.097  0.7002 -3.3712 -2.8520
  635MOL0     H85672   5.569   6.688   5.867 -1.1036  0.1611 -0.0802
  635MOL0     H85673   5.542   6.523   5.930  0.4935  0.5856 -1.3448
  635MOL0     H85674   5.435   6.769   6.069  1.0774 -0.6395  0.1782
  635MOL0     H85675   5.459   6.608   6.149  0.4922 -1.5468 -0.2909
  635MOL0     H85676   5.247   6.769   5.850 -1.4199  0.1052  1.4643
  635MOL0     H85677   5.044   6.665   5.724 -0.3396 -1.5081 -1.4117
  635MOL0     H85678   5.018   6.494   5.750  0.7642  0.1825 -0.3784
  635MOL0     H85679   4.838   6.705   5.804 -1.8661  2.0524  2.9620
  635MOL0     H85680   4.916   6.705   5.960  0.5265 -0.6267 -0.2725
  635MOL0     H85681   4.720   6.584   5.996 -0.9380  3.4702 -2.4700
  635MOL0     H85682   4.844   6.456   5.990  1.4727  0.2198 -0.5766
  635MOL0     H85683   4.786   6.442   5.733 -0.4365 -0.1213 -0.3043
  635MOL0     H85684   4.665   6.568   5.780  1.8648  0.8670 -1.1614
  635MOL0     H85685   4.559   6.317   6.088 -3.7285 -2.3835  2.9626
  635MOL0     H85686   4.402   6.295   6.242 -0.7389 -0.5230  1.0319
  635MOL0     H85687   4.330   6.470   6.263 -1.6265 -0.4457  0.0748
  635MOL0     H85688   4.233   6.326   6.223 -0.5483 -0.6422 -2.4577
  635MOL0     H85689   3.956   6.676   5.767 -1.8546 -0.0892 -1.8821
  635MOL0     H85690   3.726   6.783   5.791 -0.4074 -1.9941 -1.6010
  635MOL0     H85691   3.532   6.881   5.866  0.5484 -0.9127 -1.2078
  635MOL0     H85692   3.516   6.724   5.776  1.4810 -0.5403  0.3867
  635MOL0     H85693   3.284   6.691   5.876 -2.3239  0.7207  0.5949
  635MOL0     H85694   3.301   6.848   5.965  0.4075 -0.7687 -0.9655
  635MOL0     H85695   3.295   6.824   5.671 -1.5450  2.0699 -1.1989
  635MOL0     H85696   3.312   6.973   5.753 -1.7024  0.3109  0.8984
  635MOL0     H85697   3.066   6.791   5.767 -0.8465  1.1260 -1.2359
  635MOL0     H85698   3.107   6.926   5.883  3.8360  1.6978  0.0869
  635MOL0     H85699   3.091   6.927   5.581  1.2843  2.0242 -1.5426
  635MOL0     H85700   3.109   7.076   5.679  1.0813 -0.6207  1.3711
  635MOL0     H85701   2.880   7.044   5.584 -1.3463 -1.1313 -0.2627
  635MOL0     H85702   2.868   6.885   5.644  0.1689 -0.2543 -0.0220
  635MOL0     H85703   2.900   7.104   5.848  1.1537 -0.8769 -0.6754
  635MOL0     H85704   2.875   6.936   5.874  0.9849 -2.0386 -2.5238
  635MOL0     H85705   2.661   6.935   5.749  3.3237 -1.6809 -1.4814
  635MOL0     H85706   2.688   7.106   5.698 -0.2157 -1.4885 -0.6071
  635MOL0     H85707   3.642   6.522   6.120 -0.2504 -1.9089 -0.4733
  635MOL0     H85708   3.848   6.400   6.072 -0.9962 -0.8509 -1.9742
  635MOL0     H85709   4.240   6.511   5.763  1.0543  1.8073  0.8019
  635MOL0     H85710   4.458   6.429   5.701 -0.4980  0.6625  0.3123
  635MOL0     H85711   6.432   7.159   6.377 -2.0613 -0.3829 -0.6425
  635MOL0     H85712   6.583   7.064   6.546 -1.0149  1.3966 -1.5629
  635MOL0     H85713   6.936   6.801   6.663 -3.3812 -3.4722 -1.0014
  635MOL0     H85714   7.087   6.756   6.851 -0.2289  1.1386  0.0155
  635MOL0     H85715   7.096   6.799   7.281  1.6561  0.6276 -2.5600
  635MOL0     H85716   6.921   6.836   7.252 -2.1799 -2.1358 -2.3221
  635MOL0     H85717   7.053   6.564   7.228  0.0665  0.4750 -0.0431
  635MOL0     H85718   6.888   6.583   7.198  2.2590 -1.6868 -1.4807
  635MOL0     H85719   6.836   6.652   7.435  0.3672 -0.5912 -0.2516
  635MOL0     H85720   6.998   6.654   7.487 -1.0679 -0.9229  1.8944
  635MOL0     H85721   7.038   6.415   7.395 -0.8854  0.8850 -1.2732
  635MOL0     H85722   6.872   6.397   7.390 -1.5727 -0.8226  1.9007
  635MOL0     H85723   6.975   6.424   7.815  2.3184 -1.6970 -0.0383
  635MOL0     H85724   6.766   6.835   7.126 -4.8144 -2.2342 -1.9818
  635MOL0     H85725   6.612   6.862   6.941  0.4119  1.6200  1.3613
  636MOL0     O85726   6.712   2.756   6.222 -0.5064 -0.6968  0.2839
  636MOL0     C85727   6.721   2.875   6.189 -0.3898 -0.2323 -0.4704
  636MOL0     O85728   6.616   2.970   6.191 -0.2180  0.2383  0.0642
  636MOL0     C85729   6.489   2.922   6.202  0.5451  0.0364 -0.6856
  636MOL0     C85730   6.451   2.850   6.316  0.6393 -0.2574  0.8631
  636MOL0     C85731   6.319   2.792   6.313 -0.0503  0.1263  0.6539
  636MOL0     C85732   6.231   2.822   6.199 -0.0197 -0.2762 -0.2921
  636MOL0     O85733   6.102   2.781   6.204 -0.2201  0.8455 -0.3326
  636MOL0     C85734   6.035   2.695   6.301 -0.4541 -0.7428  0.0512
  636MOL0     C85735   5.881   2.688   6.274 -0.3471 -1.0286  0.4244
  636MOL0     C85736   5.799   2.598   6.377  0.7105 -0.9753 -0.5743
  636MOL0     C85737   5.672   2.673   6.425 -0.7110  0.2477 -0.4499
  636MOL0     C85738   5.696   2.809   6.496  0.1420  0.2283 -0.4260
  636MOL0     C85739   5.764   2.789   6.637 -0.3592  0.1918  0.4275
  636MOL0     C85740   5.667   2.767   6.752  0.4241 -0.3147  0.8524
  636MOL0     C85741   5.628   2.901   6.805 -0.6716 -0.3829 -0.3719
  636MOL0     N85742   5.508   2.897   6.888  0.0019 -0.4682 -0.6046
  636MOL0     C85743   5.405   2.981   6.875  0.3416  0.0066  0.8556
  636MOL0     C85744   5.332   2.968   6.981  0.2346 -0.1257  0.7717
  636MOL0     C85745   5.200   3.038   6.996  0.0867 -0.9438  0.3068
  636MOL0     C85746   5.173   3.160   6.906  0.1619 -0.1334  0.2729
  636MOL0     C85747   5.026   3.202   6.902  0.0768  0.5530 -0.1742
  636MOL0     C85748   4.976   3.231   7.044  0.1784 -0.2030 -0.0654
  636MOL0     O85749   4.936   3.106   7.114  1.4702 -0.2128  0.0644
  636MOL0     C85750   4.816   3.044   7.089  0.3536  0.4737 -0.4764
  636MOL0     C85751   4.727   3.068   6.982  0.2892  0.6669 -0.8884
  636MOL0     C85752   4.598   3.004   6.970 -1.1026  0.1067 -0.1774
  636MOL0     C85753   4.515   3.048   6.849 -0.4035 -1.2502 -0.3429
  636MOL0     C85754   4.567   2.895   7.065  0.6371  0.3993  0.3544
  636MOL0     C85755   4.442   2.818   7.057  0.3944 -0.0456  0.6028
  636MOL0     O85756   4.425   2.722   7.147  0.2786  0.7538 -0.3680
  636MOL0     C85757   4.332   2.617   7.140 -0.6073  0.8343 -0.4511
  636MOL0     C85758   4.226   2.604   7.042 -0.3166  0.4109 -0.1156
  636MOL0     C85759   4.146   2.486   7.039 -1.5123 -0.7784 -0.1177
  636MOL0     C85760   4.178   2.379   7.133  0.5953 -0.3140  0.0035
  636MOL0     O85761   4.108   2.260   7.127  0.7390 -0.5875  0.5336
  636MOL0     C85762   4.000   2.231   7.042 -0.7085 -0.6310 -0.0856
  636MOL0     C85763   3.980   2.076   7.030 -1.1813 -0.2161  0.2625
  636MOL0     C85764   3.848   2.012   6.969 -0.0361  0.3823 -0.1938
  636MOL0     C85765   3.860   1.986   6.818 -0.8919  0.7063  0.1378
  636MOL0     C85766   3.779   1.865   6.771 -0.2500 -0.9018  0.3876
  636MOL0     C85767   3.830   1.813   6.639 -1.0785  0.4478  0.2168
  636MOL0     C85768   3.720   1.740   6.564 -0.9035 -0.4910  0.6200
  636MOL0     C85769   3.770   1.642   6.452  1.0265  0.3027  0.0869
  636MOL0    Cl85770   3.880   1.701   6.319  0.4813 -0.3149  0.1013
  636MOL0     C85771   4.280   2.390   7.225  0.6766  0.2309 -0.2399
  636MOL0     C85772   4.356   2.513   7.231  0.9324  0.7651 -0.5602
  636MOL0     O85773   4.350   2.852   6.977 -0.5308  0.1190 -0.1516
  636MOL0     C85774   4.657   2.874   7.172 -1.1564  1.1936 -1.1837
  636MOL0     C85775   4.782   2.934   7.173  0.5184 -0.0011 -0.5946
  636MOL0     N85776   5.394   2.876   7.065 -0.4670  0.4507 -0.1459
  636MOL0     N85777   5.504   2.837   7.009 -0.3643 -0.1056 -0.7187
  636MOL0     C85778   6.277   2.910   6.106 -0.8885 -0.4951  1.0114
  636MOL0     C85779   6.403   2.965   6.105  0.1643  0.9690  0.8950
  636MOL0     C85780   6.857   2.925   6.176  0.1452  0.0837  0.6227
  636MOL0     C85781   6.883   3.056   6.151 -0.0641 -0.4308 -0.6013
  636MOL0     C85782   7.011   3.102   6.134 -1.2177 -0.0832 -0.2960
  636MOL0     C85783   7.121   3.021   6.137  0.0928  0.2671  0.1629
  636MOL0     O85784   7.244   3.080   6.113 -0.3779  0.3744  0.3881
  636MOL0     C85785   7.362   2.998   6.139 -1.0450  0.2847 -0.0252
  636MOL0     C85786   7.490   3.070   6.104 -0.2122 -0.3093 -0.3451
  636MOL0     C85787   7.530   3.172   6.213  0.0697  0.5389  1.0466
  636MOL0     C85788   7.663   3.229   6.186  0.1049 -0.4075  0.6016
  636MOL0     C85789   7.688   3.350   6.277 -0.0831 -0.1072 -0.2681
  636MOL0     C85790   7.698   3.444   6.355  0.0869 -0.4662  0.0367
  636MOL0     C85791   7.104   2.888   6.170  0.0527 -0.0424 -0.4629
  636MOL0     C85792   6.970   2.837   6.185 -1.0087 -0.0704 -0.3591
  636MOL0     H85793   6.515   2.823   6.399  0.2429 -1.0532  0.9167
  636MOL0     H85794   6.282   2.739   6.400 -1.9424 -0.6383 -0.5429
  636MOL0     H85795   6.067   2.590   6.299  0.8262 -0.3592 -0.6459
  636MOL0     H85796   6.052   2.735   6.401 -0.3770 -0.9217  0.1109
  636MOL0     H85797   5.843   2.790   6.266  0.4929 -0.6152  1.4070
  636MOL0     H85798   5.853   2.650   6.176 -1.2959 -3.0324  1.4150
  636MOL0     H85799   5.768   2.507   6.326 -2.6575 -0.3378  0.0551
  636MOL0     H85800   5.864   2.574   6.461  1.0490 -0.9674 -0.8350
  636MOL0     H85801   5.618   2.694   6.332  2.3293 -0.4711 -2.5612
  636MOL0     H85802   5.616   2.600   6.484 -0.6783  0.0354 -0.6830
  636MOL0     H85803   5.756   2.888   6.449  0.5195 -1.0362 -2.2005
  636MOL0     H85804   5.593   2.839   6.515  0.3908  0.3700  0.7313
  636MOL0     H85805   5.822   2.697   6.630 -1.5377 -0.8315  3.0628
  636MOL0     H85806   5.826   2.876   6.662  1.7868 -1.1628  0.0301
  636MOL0     H85807   5.587   2.712   6.700  1.0291  2.4854 -3.5296
  636MOL0     H85808   5.706   2.713   6.839 -0.9500 -0.8191  1.1967
  636MOL0     H85809   5.620   2.988   6.740  0.7063  1.4263  1.7159
  636MOL0     H85810   5.707   2.928   6.876 -3.3706  2.3842  1.9092
  636MOL0     H85811   5.380   3.045   6.791  1.9358 -0.4358 -0.0016
  636MOL0     H85812   5.117   2.967   7.002  1.7198 -2.9615 -0.1229
  636MOL0     H85813   5.214   3.084   7.095  0.3570 -0.4376  0.0357
  636MOL0     H85814   5.194   3.144   6.800  0.6389 -0.3512  0.3973
  636MOL0     H85815   5.240   3.243   6.933 -1.8082  1.2857  1.0881
  636MOL0     H85816   4.965   3.125   6.853 -1.7020  1.3829  0.6258
  636MOL0     H85817   5.024   3.292   6.840  3.1396  2.0851  1.7200
  636MOL0     H85818   4.893   3.302   7.044  1.9227  2.0498 -2.9501
  636MOL0     H85819   5.051   3.285   7.102  0.3944  0.6667 -1.1354
  636MOL0     H85820   4.749   3.143   6.907  0.8256 -0.6674 -2.1134
  636MOL0     H85821   4.419   3.083   6.889 -0.0691 -0.5064 -0.1649
  636MOL0     H85822   4.564   3.127   6.791 -1.2448  1.3079  2.1357
  636MOL0     H85823   4.493   2.955   6.797 -0.0077 -2.0937  0.9564
  636MOL0     H85824   4.205   2.679   6.966  2.3387  1.5153  0.1321
  636MOL0     H85825   4.065   2.478   6.968 -0.4359  1.0649 -1.6417
  636MOL0     H85826   3.917   2.277   7.097  0.1349  0.2181  0.5096
  636MOL0     H85827   4.012   2.277   6.943  1.0299  2.3045  1.3675
  636MOL0     H85828   4.070   2.033   6.984 -0.4545  2.2900 -0.8381
  636MOL0     H85829   3.983   2.036   7.132 -0.3798 -2.5799 -0.6097
  636MOL0     H85830   3.770   2.083   6.997  0.7188  2.3631 -2.7614
  636MOL0     H85831   3.833   1.919   7.024 -1.4689  2.0808  2.5067
  636MOL0     H85832   3.831   2.081   6.774 -0.7148  0.4555 -0.5281
  636MOL0     H85833   3.964   1.967   6.791 -0.3960  1.5179  1.3876
  636MOL0     H85834   3.673   1.892   6.778  0.1758  0.8277  0.5589
  636MOL0     H85835   3.786   1.782   6.841 -2.8477 -1.0750  0.5484
  636MOL0     H85836   3.872   1.889   6.572  1.0194 -0.9493 -0.1439
  636MOL0     H85837   3.905   1.734   6.649 -1.3170 -0.0264 -1.4351
  636MOL0     H85838   3.654   1.816   6.520  1.5222 -0.2597 -3.0282
  636MOL0     H85839   3.663   1.678   6.634 -1.9980 -0.9073 -0.6023
  636MOL0     H85840   3.675   1.610   6.407  1.9899 -1.8230 -0.5933
  636MOL0     H85841   3.804   1.549   6.499 -1.1150 -1.9331 -2.4047
  636MOL0     H85842   4.296   2.315   7.301 -1.6223 -0.2728 -0.1787
  636MOL0     H85843   4.434   2.526   7.305  2.1003 -0.7253 -1.4652
  636MOL0     H85844   4.646   2.799   7.250 -0.3592  0.3480 -1.8704
  636MOL0     H85845   4.848   2.913   7.257 -2.0200  0.8443  1.7470
  636MOL0     H85846   6.208   2.950   6.033  1.0089  0.4308 -0.3735
  636MOL0     H85847   6.440   3.024   6.022  0.0745 -0.5012 -0.2256
  636MOL0     H85848   6.800   3.127   6.146  0.9333  0.8120 -0.1121
  636MOL0     H85849   7.024   3.205   6.100 -3.4674  1.4492  2.9931
  636MOL0     H85850   7.367   2.991   6.249  0.8506 -1.0329 -0.1415
  636MOL0     H85851   7.363   2.903   6.085 -1.3845  1.4888 -2.2492
  636MOL0     H85852   7.504   3.125   6.010 -1.2211  2.0040  0.7790
  636MOL0     H85853   7.557   2.984   6.093 -1.6295 -1.6604  1.0184
  636MOL0     H85854   7.529   3.120   6.310  1.0808  0.0851  0.8342
  636MOL0     H85855   7.446   3.241   6.211 -2.1990 -2.0131 -1.7036
  636MOL0     H85856   7.667   3.269   6.084 -1.0118  0.8778  1.0313
  636MOL0     H85857   7.743   3.155   6.194  1.0492  0.5723  0.4917
  636MOL0     H85858   7.691   3.534   6.413  0.2237  0.1026 -0.8126
  636MOL0     H85859   7.183   2.823   6.204 -0.1856  0.7534  1.7366
  636MOL0     H85860   6.951   2.736   6.218  1.0761 -0.2400  0.5062
  637MOL0     O85861   1.151   3.385   1.895 -0.2061 -0.1856 -0.4373
  637MOL0     C85862   1.172   3.301   1.801  0.1642 -0.1051 -0.1406
  637MOL0     O85863   1.074   3.227   1.748  0.4547 -0.7111 -0.7669
  637MOL0     C85864   0.946   3.267   1.761 -0.4537 -0.1966 -0.3407
  637MOL0     C85865   0.892   3.399   1.764 -0.1172  0.2299  0.0419
  637MOL0     C85866   0.752   3.424   1.760 -0.2481 -0.6924 -0.1410
  637MOL0     C85867   0.661   3.321   1.747  0.5811  0.5890 -0.4175
  637MOL0     O85868   0.522   3.344   1.724 -1.2502 -0.0398 -0.1934
  637MOL0     C85869   0.439   3.289   1.817 -0.4726  0.1364  0.3272
  637MOL0     C85870   0.425   3.399   1.928  0.3770 -0.0026  0.1503
  637MOL0     C85871   0.289   3.374   2.009 -0.5312 -0.9436  0.5858
  637MOL0     C85872   0.228   3.516   2.046  0.5977 -0.1201 -0.5941
  637MOL0     C85873   0.095   3.505   2.108 -0.1998  0.2020 -0.0304
  637MOL0     C85874   0.005   3.633   2.104 -0.0259  0.3679  0.3876
  637MOL0     C85875  -0.119   3.604   2.193  1.3296  1.0683 -0.1877
  637MOL0     C85876  -0.203   3.720   2.249  0.4946  0.0299 -0.3080
  637MOL0     N85877  -0.321   3.690   2.332 -0.5814 -0.4024 -0.3421
  637MOL0     C85878  -0.364   3.762   2.446 -0.1806  0.1515 -0.1333
  637MOL0     C85879  -0.494   3.713   2.474 -0.2076  0.0414  0.7620
  637MOL0     C85880  -0.584   3.751   2.593  0.3740  0.4258 -0.0798
  637MOL0     C85881  -0.710   3.813   2.539 -0.3654 -0.4477  0.1200
  637MOL0     C85882  -0.798   3.857   2.655  0.3000 -0.9178 -0.1688
  637MOL0     C85883  -0.745   3.981   2.736 -1.1698  0.1426  0.5154
  637MOL0     O85884  -0.738   4.100   2.661 -0.1320  0.2364 -0.2631
  637MOL0     C85885  -0.855   4.144   2.617  0.4804 -0.1124  0.2204
  637MOL0     C85886  -0.963   4.173   2.703 -0.4345 -1.0096 -0.0481
  637MOL0     C85887  -1.081   4.223   2.653  0.4529  0.4770  0.0855
  637MOL0     C85888  -1.182   4.255   2.760  0.4270  0.2690  0.0786
  637MOL0     C85889  -1.100   4.250   2.510 -0.7277 -0.4947 -0.8873
  637MOL0     C85890  -1.229   4.287   2.453 -0.8115 -0.2104 -0.8036
  637MOL0     O85891  -1.295   4.393   2.515  0.0897 -0.0423  0.6215
  637MOL0     C85892  -1.411   4.443   2.451 -0.0387  0.4565  0.3816
  637MOL0     C85893  -1.535   4.373   2.450 -0.1270  0.0865 -1.0744
  637MOL0     C85894  -1.643   4.421   2.382  0.1607 -0.9377  0.1941
  637MOL0     C85895  -1.642   4.562   2.351 -1.1647  0.0207 -0.3297
  637MOL0     O85896  -1.748   4.635   2.299  0.8779  0.4610  0.8910
  637MOL0     C85897  -1.872   4.569   2.268 -0.9554  0.0948  0.0207
  637MOL0     C85898  -1.950   4.656   2.175 -0.6414  0.4541 -0.9097
  637MOL0     C85899  -2.077   4.585   2.119 -0.0987  0.7566  0.0911
  637MOL0     C85900  -2.186   4.687   2.071  0.3523  0.3047 -0.9993
  637MOL0     C85901  -2.245   4.783   2.185  0.1631  1.1375 -0.3411
  637MOL0     C85902  -2.376   4.841   2.129 -0.1057 -0.5638  0.1149
  637MOL0     C85903  -2.353   4.938   2.002 -0.1025  0.2288  0.1980
  637MOL0     C85904  -2.489   4.971   1.934  0.1219 -0.1262 -0.6315
  637MOL0    Cl85905  -2.538   4.823   1.836  0.4052  0.1089 -0.1195
  637MOL0     C85906  -1.524   4.638   2.360  0.3916  0.3724  0.7381
  637MOL0     C85907  -1.412   4.571   2.408 -0.3330 -0.9620 -0.4898
  637MOL0     O85908  -1.263   4.230   2.354 -0.1539 -0.0281  0.7031
  637MOL0     C85909  -0.982   4.222   2.429  0.8434  0.3132 -0.2516
  637MOL0     C85910  -0.862   4.178   2.479 -0.5020 -0.1112 -0.3634
  637MOL0     N85911  -0.520   3.631   2.367 -0.2004  0.6458 -0.1963
  637MOL0     N85912  -0.418   3.616   2.282 -0.1132 -0.1983 -0.2423
  637MOL0     C85913   0.703   3.188   1.728 -0.0294  0.2667  0.0088
  637MOL0     C85914   0.845   3.164   1.744  0.2914 -0.7171  0.1801
  637MOL0     C85915   1.305   3.302   1.738 -0.3192 -0.3420  0.0293
  637MOL0     C85916   1.319   3.264   1.604 -0.1085  0.7865  0.3949
  637MOL0     C85917   1.446   3.247   1.546  1.1598  1.3538 -0.4158
  637MOL0     C85918   1.555   3.298   1.616 -0.0204 -0.1676  0.8935
  637MOL0     O85919   1.683   3.330   1.570  0.2089  0.3773 -0.4317
  637MOL0     C85920   1.708   3.297   1.433 -0.2421  0.0132  0.0767
  637MOL0     C85921   1.863   3.301   1.418  0.1382  0.2354 -0.5454
  637MOL0     C85922   1.902   3.234   1.287  0.5408 -0.2591  0.4350
  637MOL0     C85923   2.056   3.241   1.274  0.0416  0.2242  0.4095
  637MOL0     C85924   2.117   3.365   1.300  0.3071 -0.0103 -0.3615
  637MOL0     C85925   2.186   3.461   1.328  0.5874 -0.5619 -0.2797
  637MOL0     C85926   1.537   3.343   1.739  0.5954  0.0631 -0.5622
  637MOL0     C85927   1.415   3.344   1.805  0.0968  0.1446  0.3797
  637MOL0     H85928   0.962   3.482   1.763  0.4663 -0.2519 -1.4420
  637MOL0     H85929   0.707   3.523   1.756  1.0604 -0.1011 -3.8274
  637MOL0     H85930   0.345   3.263   1.767 -0.2187  0.8129 -0.5257
  637MOL0     H85931   0.457   3.189   1.858  1.7061  0.8165  1.1362
  637MOL0     H85932   0.506   3.405   2.002 -0.7405 -0.5953  1.4534
  637MOL0     H85933   0.421   3.497   1.879  1.1454 -1.0626 -2.1966
  637MOL0     H85934   0.216   3.327   1.942 -0.6279 -0.6978  0.5165
  637MOL0     H85935   0.294   3.305   2.094  1.9553  0.3174  1.5499
  637MOL0     H85936   0.299   3.566   2.113  0.8819 -1.0834 -0.1639
  637MOL0     H85937   0.211   3.567   1.951 -2.3699 -2.7545 -1.6191
  637MOL0     H85938   0.040   3.415   2.078  2.6274 -1.5817 -0.2533
  637MOL0     H85939   0.119   3.492   2.213  0.5270 -0.4371 -0.2698
  637MOL0     H85940   0.064   3.720   2.135 -1.8199  2.4250 -1.5374
  637MOL0     H85941  -0.023   3.660   2.002 -0.1680  2.7432  0.9900
  637MOL0     H85942  -0.189   3.534   2.148  3.2876 -1.8909  1.0155
  637MOL0     H85943  -0.079   3.547   2.278 -1.0783  1.3854  1.2452
  637MOL0     H85944  -0.236   3.781   2.164  0.8348  0.0680 -0.4135
  637MOL0     H85945  -0.138   3.786   2.307  0.7341  2.9347 -3.5654
  637MOL0     H85946  -0.311   3.841   2.499  0.1402  1.3572 -2.1391
  637MOL0     H85947  -0.617   3.666   2.653 -3.5425  1.8934  0.1453
  637MOL0     H85948  -0.530   3.822   2.656  2.5866 -0.5112 -0.7856
  637MOL0     H85949  -0.761   3.745   2.470 -0.8879  0.9255 -0.8853
  637MOL0     H85950  -0.691   3.896   2.470 -2.3611 -0.2652 -0.2734
  637MOL0     H85951  -0.808   3.779   2.730  1.1103  0.3840  1.3418
  637MOL0     H85952  -0.901   3.874   2.620 -0.7424 -2.3879  1.9535
  637MOL0     H85953  -0.649   3.953   2.779 -0.8497  3.2824  2.1272
  637MOL0     H85954  -0.808   4.002   2.823 -0.3746  1.2530  0.8408
  637MOL0     H85955  -0.950   4.161   2.810 -1.6075  1.1156  0.3998
  637MOL0     H85956  -1.164   4.352   2.806  4.8186 -1.1967  1.9550
  637MOL0     H85957  -1.280   4.236   2.715  0.6537  0.1099 -0.3530
  637MOL0     H85958  -1.163   4.195   2.850  1.2520  1.8923  1.0332
  637MOL0     H85959  -1.543   4.275   2.497 -1.7009  0.6973  0.0086
  637MOL0     H85960  -1.732   4.359   2.387  0.7013 -1.7429  0.1113
  637MOL0     H85961  -1.850   4.477   2.213  1.5796  0.0624  0.9290
  637MOL0     H85962  -1.928   4.552   2.360 -2.7276 -0.1060 -1.0656
  637MOL0     H85963  -1.981   4.738   2.241 -0.8851 -0.2941 -0.0769
  637MOL0     H85964  -1.889   4.693   2.093 -1.3624 -0.3442 -1.8276
  637MOL0     H85965  -2.123   4.513   2.188  2.3934 -1.7881 -0.7320
  637MOL0     H85966  -2.054   4.528   2.029 -2.0700 -0.1842  0.1168
  637MOL0     H85967  -2.136   4.747   1.994 -2.0900 -1.2948 -4.0589
  637MOL0     H85968  -2.262   4.637   2.010 -0.4508 -0.8967  0.9010
  637MOL0     H85969  -2.167   4.855   2.211  0.5539  0.3446  0.7130
  637MOL0     H85970  -2.273   4.724   2.272 -3.0541  1.1482 -1.2406
  637MOL0     H85971  -2.448   4.766   2.093 -0.4563  0.5830 -1.6492
  637MOL0     H85972  -2.433   4.892   2.207  1.2725  0.9238  0.1844
  637MOL0     H85973  -2.277   4.906   1.930  1.2377 -1.0614  2.1003
  637MOL0     H85974  -2.312   5.028   2.049 -0.5323 -1.2285  3.6304
  637MOL0     H85975  -2.470   5.055   1.867 -0.2077  2.4042  2.2162
  637MOL0     H85976  -2.571   5.002   1.999 -0.0332  1.4244 -1.5167
  637MOL0     H85977  -1.528   4.742   2.327  1.6074  0.5359  1.0669
  637MOL0     H85978  -1.321   4.630   2.409 -0.3825 -0.8741  1.1182
  637MOL0     H85979  -0.991   4.239   2.322 -1.2558 -0.1081 -0.1924
  637MOL0     H85980  -0.770   4.156   2.426 -0.7152  0.6151 -1.0550
  637MOL0     H85981   0.625   3.112   1.725  0.1354  0.0731  0.5370
  637MOL0     H85982   0.869   3.059   1.735 -2.9985 -1.5646  0.0211
  637MOL0     H85983   1.236   3.241   1.538 -0.0080  0.5933  0.3373
  637MOL0     H85984   1.456   3.209   1.445  0.4472  1.4540 -0.5278
  637MOL0     H85985   1.657   3.205   1.400 -1.8919  0.6783  0.6575
  637MOL0     H85986   1.669   3.378   1.371 -2.2311 -0.0441  1.1604
  637MOL0     H85987   1.914   3.242   1.494 -0.1745  1.3283  0.5486
  637MOL0     H85988   1.887   3.408   1.426 -3.0795  0.9626  1.1500
  637MOL0     H85989   1.860   3.292   1.205  2.7320 -0.9540 -1.2770
  637MOL0     H85990   1.856   3.135   1.277  0.9324 -0.2735 -1.5978
  637MOL0     H85991   2.083   3.210   1.172 -0.5188 -1.7136  0.7983
  637MOL0     H85992   2.097   3.160   1.335  0.1340 -1.2826 -1.5391
  637MOL0     H85993   2.260   3.535   1.349  2.2795 -1.9597 -1.0519
  637MOL0     H85994   1.625   3.388   1.782  1.1623 -0.6803 -0.9219
  637MOL0     H85995   1.404   3.373   1.909 -0.3635 -0.7003  0.5750
  638MOL0     O85996   2.459   5.170   6.493 -0.0447  0.3736  0.1645
  638MOL0     C85997   2.551   5.216   6.429 -0.1135  0.1225  0.7489
  638MOL0     O85998   2.542   5.332   6.363  0.1908  0.5257  0.6732
  638MOL0     C85999   2.422   5.390   6.345  1.4509  0.6373 -0.1923
  638MOL0     C86000   2.298   5.322   6.335  0.4996  0.1662  0.2889
  638MOL0     C86001   2.174   5.382   6.320 -0.9194 -0.6021  0.2932
  638MOL0     C86002   2.167   5.519   6.289 -0.3025 -1.5526 -0.2690
  638MOL0     O86003   2.038   5.578   6.266 -0.2067  0.0870 -0.1455
  638MOL0     C86004   2.035   5.713   6.211 -0.4306 -0.3321 -0.7886
  638MOL0     C86005   1.896   5.751   6.156  0.0209  0.2479  0.4411
  638MOL0     C86006   1.879   5.720   6.004 -0.1009  0.7664 -0.4212
  638MOL0     C86007   1.732   5.730   5.960 -0.1816 -0.5201 -0.4354
  638MOL0     C86008   1.665   5.595   5.989  1.1403 -0.0615 -0.0010
  638MOL0     C86009   1.519   5.577   5.946 -0.4852 -0.8462 -0.1549
  638MOL0     C86010   1.411   5.683   5.986 -0.0778  0.3010  0.9288
  638MOL0     C86011   1.372   5.771   5.859 -0.1695  0.5331  0.4134
  638MOL0     N86012   1.262   5.722   5.770 -0.0904  0.1952 -0.6724
  638MOL0     C86013   1.257   5.596   5.723 -0.2538 -0.7031 -0.2628
  638MOL0     C86014   1.156   5.595   5.639 -0.6766 -0.1996 -0.4917
  638MOL0     C86015   1.107   5.463   5.571  0.0731 -0.3202 -1.0634
  638MOL0     C86016   1.004   5.487   5.459 -0.1421  0.1092  0.0599
  638MOL0     C86017   0.978   5.356   5.389 -0.0827 -0.1296 -0.4997
  638MOL0     C86018   0.871   5.385   5.286 -0.1623 -0.0466  0.6251
  638MOL0     O86019   0.811   5.268   5.233  0.3514 -0.7677  0.0512
  638MOL0     C86020   0.675   5.271   5.212  0.1669  0.5578  0.2014
  638MOL0     C86021   0.601   5.376   5.162  0.0369 -0.4064 -0.1975
  638MOL0     C86022   0.460   5.370   5.157 -0.0474  0.0427  0.0729
  638MOL0     C86023   0.383   5.479   5.084  0.2740 -0.3212  0.0970
  638MOL0     C86024   0.391   5.253   5.195 -0.4306  0.0645  0.0002
  638MOL0     C86025   0.241   5.242   5.199 -0.0619  0.0523 -0.3990
  638MOL0     O86026   0.190   5.129   5.142 -0.7543  0.4240  0.2648
  638MOL0     C86027   0.062   5.121   5.101  0.3520  0.5663 -0.6730
  638MOL0     C86028   0.043   5.121   4.966  0.1072  0.1982  0.0247
  638MOL0     C86029  -0.081   5.101   4.912  0.2696 -0.3029 -0.2354
  638MOL0     C86030  -0.192   5.078   4.993 -0.2401 -1.1582 -1.4144
  638MOL0     O86031  -0.321   5.045   4.962  0.4428 -0.8989  0.7919
  638MOL0     C86032  -0.344   5.011   4.825  0.2886 -0.5899  0.0635
  638MOL0     C86033  -0.496   4.997   4.818  0.3900 -0.1484  0.3362
  638MOL0     C86034  -0.552   4.950   4.682 -0.4851 -0.0637  0.0498
  638MOL0     C86035  -0.702   4.985   4.657 -0.1416  0.3880  0.1982
  638MOL0     C86036  -0.796   4.891   4.738  0.0376  0.0911 -0.0345
  638MOL0     C86037  -0.932   4.934   4.703 -0.1627 -0.5701 -0.1220
  638MOL0     C86038  -1.043   4.854   4.770  0.0960 -0.0177 -0.6438
  638MOL0     C86039  -1.182   4.914   4.735 -0.1329 -0.3931 -0.6236
  638MOL0    Cl86040  -1.325   4.824   4.806 -0.1376  0.0122  0.1011
  638MOL0     C86041  -0.167   5.088   5.132 -0.0367  0.8622  0.1754
  638MOL0     C86042  -0.044   5.119   5.187  0.6468  0.1597  0.0939
  638MOL0     O86043   0.173   5.337   5.232  0.6694 -0.9167  0.0057
  638MOL0     C86044   0.466   5.144   5.237  0.3633 -0.6886  0.1352
  638MOL0     C86045   0.604   5.151   5.244 -1.1728  0.5449  0.1619
  638MOL0     N86046   1.093   5.715   5.642 -0.1699 -0.2850  0.2869
  638MOL0     N86047   1.158   5.793   5.717 -0.4399  0.0071 -0.7952
  638MOL0     C86048   2.293   5.592   6.298  0.3000  0.0797  0.7432
  638MOL0     C86049   2.410   5.527   6.321 -0.2773  0.5210  1.0419
  638MOL0     C86050   2.687   5.153   6.438  0.5081  1.0709 -0.1952
  638MOL0     C86051   2.717   5.086   6.556  0.0440 -0.9714  0.4435
  638MOL0     C86052   2.834   5.008   6.549 -0.0199  0.0090  0.0478
  638MOL0     C86053   2.922   5.001   6.438 -0.2163 -0.1218 -0.2473
  638MOL0     O86054   3.027   4.919   6.450 -0.3569  1.2093  0.3299
  638MOL0     C86055   3.109   4.911   6.333  0.3699  0.6314  0.4379
  638MOL0     C86056   3.194   4.788   6.363 -0.5721  0.6106  0.5072
  638MOL0     C86057   3.310   4.766   6.258 -0.1889 -0.9461 -0.1637
  638MOL0     C86058   3.424   4.879   6.281  0.2695 -0.6042  0.3849
  638MOL0     C86059   3.510   4.828   6.385 -0.3849  0.8114  0.4535
  638MOL0     C86060   3.559   4.770   6.479 -0.2062 -0.3616 -0.5123
  638MOL0     C86061   2.884   5.076   6.325  0.6335 -0.2490  0.0672
  638MOL0     C86062   2.762   5.143   6.330 -0.7136  0.0732  0.4677
  638MOL0     H86063   2.285   5.214   6.335  0.2478  0.0407 -4.0794
  638MOL0     H86064   2.082   5.324   6.322 -0.9065 -0.8168 -2.5348
  638MOL0     H86065   2.049   5.782   6.294 -3.4575  0.3053 -0.6983
  638MOL0     H86066   2.113   5.721   6.135 -2.5214 -0.8043 -3.1156
  638MOL0     H86067   1.823   5.706   6.225  0.6761  1.9773  2.3517
  638MOL0     H86068   1.882   5.859   6.157  3.0162  0.7774 -1.1649
  638MOL0     H86069   1.951   5.781   5.949  2.4992 -0.7228  1.1044
  638MOL0     H86070   1.913   5.621   5.972 -4.2339 -0.7241 -0.8231
  638MOL0     H86071   1.666   5.801   6.011  1.6373  3.3772 -3.0273
  638MOL0     H86072   1.722   5.762   5.856  0.5749  1.1942 -0.0031
  638MOL0     H86073   1.729   5.514   5.953  3.9388  0.7383  2.7635
  638MOL0     H86074   1.659   5.571   6.096 -1.0579  0.8702  0.1298
  638MOL0     H86075   1.525   5.568   5.837  2.8405  3.5593 -0.6306
  638MOL0     H86076   1.494   5.476   5.980 -0.5211 -1.7715 -2.7157
  638MOL0     H86077   1.329   5.630   6.034  1.1304 -1.7393  0.8569
  638MOL0     H86078   1.449   5.749   6.065  0.8863 -0.6148  1.2558
  638MOL0     H86079   1.462   5.787   5.800 -0.4741  1.7145  0.2314
  638MOL0     H86080   1.341   5.873   5.885  0.5276  1.0077 -0.5814
  638MOL0     H86081   1.325   5.514   5.747 -0.6503 -0.5272  1.6205
  638MOL0     H86082   1.197   5.418   5.529 -0.1385 -0.1915 -1.6683
  638MOL0     H86083   1.062   5.388   5.638 -0.8960  0.5329 -0.7264
  638MOL0     H86084   1.052   5.549   5.382  1.0372 -2.2110 -1.1606
  638MOL0     H86085   0.915   5.538   5.499  1.7899  1.0632  3.6089
  638MOL0     H86086   0.932   5.284   5.457 -1.7295 -0.6646 -2.0897
  638MOL0     H86087   1.070   5.317   5.345  0.9134  0.4455  0.9967
  638MOL0     H86088   0.916   5.445   5.207 -0.7852  0.7301  0.8393
  638MOL0     H86089   0.792   5.445   5.333 -0.6933  1.1816 -1.6892
  638MOL0     H86090   0.656   5.464   5.128  0.8744 -0.3620  1.2300
  638MOL0     H86091   0.313   5.515   5.159  2.4665  2.5203  0.9609
  638MOL0     H86092   0.445   5.561   5.048 -0.7383  1.5640  2.4022
  638MOL0     H86093   0.332   5.433   4.999 -0.8993  0.6624  0.2416
  638MOL0     H86094   0.131   5.127   4.903  1.1603 -2.2545  1.1254
  638MOL0     H86095  -0.096   5.100   4.804 -0.1087  1.4669 -0.2275
  638MOL0     H86096  -0.306   5.089   4.759  3.4813 -0.3133  2.0068
  638MOL0     H86097  -0.285   4.922   4.801 -0.2761 -0.3906 -2.2022
  638MOL0     H86098  -0.511   4.907   4.879 -1.0794 -0.5377 -0.5653
  638MOL0     H86099  -0.545   5.085   4.860 -0.8543  0.1747 -1.6674
  638MOL0     H86100  -0.532   4.843   4.671  2.8057  0.2665  1.5780
  638MOL0     H86101  -0.482   4.994   4.611  1.2067  0.1885  1.7915
  638MOL0     H86102  -0.728   5.084   4.694  0.4505  0.7551 -0.3511
  638MOL0     H86103  -0.726   4.963   4.553  0.0262 -0.8041  0.3940
  638MOL0     H86104  -0.764   4.904   4.841  2.5277 -0.3485 -0.6826
  638MOL0     H86105  -0.780   4.784   4.723  1.3109  0.1523  0.7833
  638MOL0     H86106  -0.948   5.042   4.708  1.2521 -0.0294 -3.7653
  638MOL0     H86107  -0.959   4.910   4.599 -1.2034 -2.3058  0.5033
  638MOL0     H86108  -1.035   4.863   4.879 -2.9903 -0.2478 -0.3188
  638MOL0     H86109  -1.026   4.752   4.736  1.5049 -0.5119  1.3549
  638MOL0     H86110  -1.195   4.931   4.627  3.8171  2.4466 -0.9043
  638MOL0     H86111  -1.180   5.019   4.767  0.5395  0.8303 -4.1439
  638MOL0     H86112  -0.255   5.068   5.193 -0.8593  1.6279 -0.7170
  638MOL0     H86113  -0.030   5.133   5.294 -0.5796 -0.2838  0.3308
  638MOL0     H86114   0.423   5.057   5.285 -1.7974 -0.0852 -0.5943
  638MOL0     H86115   0.651   5.058   5.273 -3.0089 -1.2446 -2.2006
  638MOL0     H86116   2.298   5.700   6.283  0.3111 -0.3236 -3.5298
  638MOL0     H86117   2.499   5.588   6.328  0.5725 -0.6793  0.8432
  638MOL0     H86118   2.647   5.094   6.639  0.9611  1.1226  1.0941
  638MOL0     H86119   2.859   4.955   6.640 -1.9223  0.8406  1.1049
  638MOL0     H86120   3.051   4.904   6.240 -1.6901  3.0113  1.4102
  638MOL0     H86121   3.170   5.001   6.326  1.0842  0.1093 -0.1702
  638MOL0     H86122   3.129   4.699   6.365 -0.0293  0.1935 -0.0882
  638MOL0     H86123   3.250   4.783   6.457 -0.6003 -2.8072  0.4725
  638MOL0     H86124   3.268   4.772   6.157  0.5601  1.1595 -0.3861
  638MOL0     H86125   3.343   4.666   6.287 -0.8641 -0.5197  2.2982
  638MOL0     H86126   3.374   4.973   6.305  1.4051 -0.5978  3.0760
  638MOL0     H86127   3.491   4.884   6.194 -0.2906 -2.7495 -0.2426
  638MOL0     H86128   3.585   4.712   6.565 -2.4268  0.4202  0.7538
  638MOL0     H86129   2.944   5.087   6.235 -1.5010  1.7934 -1.1965
  638MOL0     H86130   2.726   5.197   6.243 -0.1518 -1.3311 -0.6817
  639MOL0     O86131   3.081   9.171  10.486  0.3477 -0.1113  0.5503
  639MOL0     C86132   3.138   9.144  10.383  0.0381 -0.2831 -0.8350
  639MOL0     O86133   3.092   9.145  10.257  0.2703  0.2339  0.5154
  639MOL0     C86134   2.959   9.188  10.245  0.7236 -0.0864  0.2889
  639MOL0     C86135   2.919   9.323  10.258  0.0896 -1.3259  0.3620
  639MOL0     C86136   2.788   9.367  10.215  0.0732  0.3279 -0.2465
  639MOL0     C86137   2.694   9.272  10.168 -0.2559 -0.9823 -1.0224
  639MOL0     O86138   2.566   9.320  10.135  0.7957 -0.5029 -0.3280
  639MOL0     C86139   2.515   9.269  10.017 -0.2179 -0.6291 -0.5073
  639MOL0     C86140   2.472   9.379   9.926  0.2175 -0.3246  0.0735
  639MOL0     C86141   2.597   9.462   9.879  0.5491 -0.5525 -0.1879
  639MOL0     C86142   2.580   9.608   9.914 -0.1094  1.0068  0.0896
  639MOL0     C86143   2.683   9.697   9.852  0.3925  0.2592  1.0094
  639MOL0     C86144   2.657   9.836   9.899 -0.0273 -0.2984 -0.3822
  639MOL0     C86145   2.760   9.929   9.843  0.2229 -0.1871 -0.3382
  639MOL0     C86146   2.753   9.952   9.694  0.3191  0.5063 -0.1544
  639MOL0     N86147   2.621   9.989   9.648 -0.4527 -0.7745 -0.2457
  639MOL0     C86148   2.551  10.095   9.694  0.3743 -0.3023  0.0079
  639MOL0     C86149   2.417  10.084   9.649 -0.9889  0.0124 -0.7403
  639MOL0     C86150   2.300  10.162   9.700  0.1233  0.5307 -0.9854
  639MOL0     C86151   2.163  10.084   9.693  0.4669  0.6740  0.0138
  639MOL0     C86152   2.173   9.983   9.804 -0.1036 -0.2413 -0.2447
  639MOL0     C86153   2.055   9.897   9.817  0.1294  0.2488 -0.9576
  639MOL0     O86154   1.952   9.993   9.859  0.1494  0.1742  0.4016
  639MOL0     C86155   1.842  10.015   9.785  0.5259 -0.3381  0.0267
  639MOL0     C86156   1.775  10.143   9.805  0.5151  0.4013  0.7159
  639MOL0     C86157   1.646  10.154   9.753 -0.6653  0.4494  0.2751
  639MOL0     C86158   1.586  10.286   9.777  0.1212  0.0080  0.4456
  639MOL0     C86159   1.575  10.045   9.682 -1.0497  0.7554 -0.5322
  639MOL0     C86160   1.431  10.055   9.625  0.3607 -0.6094 -0.0049
  639MOL0     O86161   1.354  10.173   9.661 -0.1500 -0.5554  0.1741
  639MOL0     C86162   1.240  10.209   9.609 -1.0635 -0.1683  0.0315
  639MOL0     C86163   1.144  10.230   9.707 -0.5726  0.3050  0.0119
  639MOL0     C86164   1.006  10.249   9.663  0.0046  0.0127  0.3406
  639MOL0     C86165   0.981  10.230   9.528  0.1602  1.1160 -0.5702
  639MOL0     O86166   0.852  10.223   9.471 -0.6102 -0.8089 -0.1511
  639MOL0     C86167   0.730  10.207   9.555  0.8472  0.4251  1.1246
  639MOL0     C86168   0.609  10.144   9.475  0.1213 -0.1113 -0.0385
  639MOL0     C86169   0.486  10.133   9.566  0.6707 -0.2700 -0.2316
  639MOL0     C86170   0.362  10.143   9.482 -0.6267  0.0636  0.8436
  639MOL0     C86171   0.231  10.097   9.551 -0.1047 -0.0389  0.0508
  639MOL0     C86172   0.099  10.140   9.489  0.6065  0.3344  0.1043
  639MOL0     C86173   0.084  10.086   9.353  0.3377 -0.1113  0.2519
  639MOL0     C86174  -0.053  10.115   9.292  0.4676  0.4144 -0.2580
  639MOL0    Cl86175  -0.175  10.051   9.398  0.0232  0.2068  0.0725
  639MOL0     C86176   1.081  10.215   9.437  0.2754 -0.3998  0.1860
  639MOL0     C86177   1.211  10.201   9.477  0.0662 -0.0513 -0.4707
  639MOL0     O86178   1.396   9.975   9.538 -0.4674 -0.1109 -0.2809
  639MOL0     C86179   1.650   9.929   9.656  0.1015 -0.2743  0.0067
  639MOL0     C86180   1.780   9.908   9.703  0.4611 -0.7060 -0.3813
  639MOL0     N86181   2.417   9.974   9.574 -0.0214  0.9107  0.6237
  639MOL0     N86182   2.528   9.915   9.583  0.0110 -0.6292  0.1121
  639MOL0     C86183   2.731   9.138  10.168 -0.2500 -0.7679  0.5392
  639MOL0     C86184   2.866   9.092  10.203  0.6205 -0.4502  0.1705
  639MOL0     C86185   3.282   9.098  10.399  0.8555  0.1264  0.5983
  639MOL0     C86186   3.343   9.057  10.521  0.6880 -0.3380 -0.5184
  639MOL0     C86187   3.477   9.018  10.530  0.6308 -0.5317 -0.0058
  639MOL0     C86188   3.550   9.024  10.415 -0.4622  0.4446 -0.3013
  639MOL0     O86189   3.679   8.983  10.415  0.2346  0.5193 -0.3606
  639MOL0     C86190   3.750   8.962  10.540  0.0351 -0.3198 -0.4119
  639MOL0     C86191   3.889   8.916  10.505 -0.2915  0.4946  0.6960
  639MOL0     C86192   3.888   8.765  10.477  0.0130  0.6266  0.1005
  639MOL0     C86193   3.869   8.663  10.593  0.2076 -1.0416 -0.3220
  639MOL0     C86194   3.728   8.616  10.613 -0.9473 -0.0756 -0.0603
  639MOL0     C86195   3.630   8.553  10.640 -0.2567  0.2085 -0.6087
  639MOL0     C86196   3.505   9.075  10.293 -0.8707  0.3088 -0.2967
  639MOL0     C86197   3.372   9.110  10.279  0.5893  0.8150 -0.1403
  639MOL0     H86198   2.983   9.391  10.312  2.7855 -2.9778 -0.5700
  639MOL0     H86199   2.773   9.475  10.222  4.7533  1.0857  2.3422
  639MOL0     H86200   2.586   9.203   9.966  1.0966  0.5025 -0.1711
  639MOL0     H86201   2.415   9.228  10.038 -0.6412 -0.6405 -2.3137
  639MOL0     H86202   2.413   9.339   9.843 -1.4856 -1.1315  1.5837
  639MOL0     H86203   2.404   9.444   9.983  0.0332 -0.7377  0.3277
  639MOL0     H86204   2.691   9.427   9.922  2.4313  1.5186 -2.2907
  639MOL0     H86205   2.606   9.450   9.771 -1.2860 -2.2931 -0.2153
  639MOL0     H86206   2.475   9.635   9.897 -0.2332  0.7007  0.3433
  639MOL0     H86207   2.591   9.615  10.023 -0.4667 -2.2991  0.4456
  639MOL0     H86208   2.780   9.652   9.878 -0.3857 -2.9541 -1.0645
  639MOL0     H86209   2.682   9.682   9.744  0.2730 -2.6689  1.3233
  639MOL0     H86210   2.554   9.857   9.868  0.4108 -1.7119 -3.1122
  639MOL0     H86211   2.681   9.844  10.006  2.2433 -0.2872 -0.8480
  639MOL0     H86212   2.752  10.024   9.896  1.0212 -0.8820  1.0719
  639MOL0     H86213   2.858   9.890   9.875  0.0616  0.5335  1.1269
  639MOL0     H86214   2.778   9.856   9.648  0.9017  0.1269  0.9216
  639MOL0     H86215   2.825  10.031   9.674  0.8060  0.8460  2.5679
  639MOL0     H86216   2.598  10.167   9.760 -1.3316  0.0180  0.9480
  639MOL0     H86217   2.317  10.215   9.794 -1.9352  0.5184 -0.5656
  639MOL0     H86218   2.278  10.248   9.636  0.3803  3.8910  3.0429
  639MOL0     H86219   2.147  10.039   9.595 -2.0759  2.8647 -0.6968
  639MOL0     H86220   2.073  10.144   9.710  0.9783  0.9989  1.8399
  639MOL0     H86221   2.186  10.038   9.898  0.0745 -0.9748  0.1709
  639MOL0     H86222   2.253   9.912   9.786 -1.0781 -1.6133  0.6238
  639MOL0     H86223   2.064   9.823   9.897 -0.0396  0.7967 -0.4240
  639MOL0     H86224   2.027   9.840   9.728 -0.7011  2.7499 -2.4165
  639MOL0     H86225   1.816  10.224   9.866  1.8580  0.5160 -0.2897
  639MOL0     H86226   1.537  10.318   9.684 -0.8093 -0.1475  0.8722
  639MOL0     H86227   1.523  10.289   9.866 -1.0135  0.7326 -0.3529
  639MOL0     H86228   1.666  10.360   9.790 -0.8453  0.9983  1.0141
  639MOL0     H86229   1.171  10.221   9.812 -0.5869  0.7589  0.0566
  639MOL0     H86230   0.926  10.258   9.737 -0.0971  0.6232  0.1607
  639MOL0     H86231   0.754  10.136   9.634  1.0341 -1.8944 -0.9246
  639MOL0     H86232   0.694  10.301   9.598  0.1834  0.0444  1.4193
  639MOL0     H86233   0.589  10.209   9.390 -0.3144 -1.8175 -1.3042
  639MOL0     H86234   0.632  10.045   9.434 -2.5028 -0.8493  0.1178
  639MOL0     H86235   0.477  10.212   9.642  0.5702  0.3098 -0.8386
  639MOL0     H86236   0.484  10.038   9.621 -2.0888 -1.1386 -1.6656
  639MOL0     H86237   0.364  10.247   9.447 -0.2966 -0.6064 -1.2874
  639MOL0     H86238   0.375  10.089   9.387  1.4382  1.8814  0.0001
  639MOL0     H86239   0.228  10.150   9.647  0.4796  3.4244 -1.6637
  639MOL0     H86240   0.240   9.991   9.573  0.2634 -0.3774 -1.6433
  639MOL0     H86241   0.013  10.112   9.550 -0.2150  3.1092  0.3920
  639MOL0     H86242   0.101  10.250   9.486  0.3735  0.3629  0.9022
  639MOL0     H86243   0.100   9.978   9.352  0.0089 -0.1860 -1.6745
  639MOL0     H86244   0.165  10.127   9.293  0.8421  3.7265  3.1953
  639MOL0     H86245  -0.070  10.065   9.196  3.3172  1.1862 -1.2650
  639MOL0     H86246  -0.062  10.223   9.279 -0.0574  0.3609 -0.3363
  639MOL0     H86247   1.057  10.224   9.331  2.6317  1.5931 -0.2721
  639MOL0     H86248   1.294  10.184   9.409 -0.6263 -0.3485 -1.2673
  639MOL0     H86249   1.603   9.848   9.603  0.7248  0.7112 -2.2029
  639MOL0     H86250   1.838   9.820   9.677  4.7579  1.3314  1.2543
  639MOL0     H86251   2.662   9.063  10.131  2.3431 -4.4548  2.4862
  639MOL0     H86252   2.893   8.988  10.188 -0.9584 -1.1718  1.9161
  639MOL0     H86253   3.277   9.050  10.607  1.2693  1.1367  0.0802
  639MOL0     H86254   3.517   8.992  10.628  0.9111 -1.8765 -0.4619
  639MOL0     H86255   3.766   9.060  10.586  3.7069 -0.6842 -0.5823
  639MOL0     H86256   3.698   8.894  10.608  1.3911 -0.4866  0.5094
  639MOL0     H86257   3.963   8.931  10.585  0.2805 -3.9453  1.2591
  639MOL0     H86258   3.919   8.984  10.426  1.0648  0.0978  0.8489
  639MOL0     H86259   3.977   8.738  10.420 -0.7600  1.6643 -1.6791
  639MOL0     H86260   3.820   8.733  10.397  1.2894  1.3029 -1.2918
  639MOL0     H86261   3.910   8.696  10.689 -0.7031  1.3076 -0.6816
  639MOL0     H86262   3.932   8.576  10.573  2.1803  0.6963 -2.1368
  639MOL0     H86263   3.536   8.512  10.670  0.7383 -0.7362  1.4523
  639MOL0     H86264   3.576   9.087  10.212 -4.0846  1.9397 -3.1686
  639MOL0     H86265   3.331   9.150  10.187  0.7898  0.3918 -0.4189
  640MOL0     O86266   0.416   2.340   7.986 -0.1764 -0.0343 -1.0104
  640MOL0     C86267   0.422   2.359   7.868  0.5876  0.5581 -0.5930
  640MOL0     O86268   0.305   2.340   7.781 -0.2037  0.4049 -0.5924
  640MOL0     C86269   0.187   2.291   7.834 -0.7272  0.0388  0.2118
  640MOL0     C86270   0.104   2.227   7.747 -0.7301  0.1370 -0.4132
  640MOL0     C86271  -0.025   2.187   7.777 -0.2465 -0.4555  0.4616
  640MOL0     C86272  -0.075   2.194   7.906 -0.4524  0.6570  0.0065
  640MOL0     O86273  -0.197   2.154   7.944 -0.1967  0.1352 -0.2981
  640MOL0     C86274  -0.281   2.069   7.865 -0.1708  0.5547  0.9652
  640MOL0     C86275  -0.407   2.023   7.937  0.4157  0.5505 -1.1804
  640MOL0     C86276  -0.429   1.874   7.919 -0.1704  0.2628  0.3208
  640MOL0     C86277  -0.533   1.826   8.016 -0.2834 -0.5028  0.3784
  640MOL0     C86278  -0.553   1.675   8.012  0.3286  0.2977 -0.9983
  640MOL0     C86279  -0.657   1.641   8.113  0.0702 -0.6163 -0.2106
  640MOL0     C86280  -0.593   1.624   8.260  0.0911 -0.2251 -0.0893
  640MOL0     C86281  -0.692   1.609   8.376 -0.3231 -0.2739  0.3175
  640MOL0     N86282  -0.786   1.496   8.339 -0.0544  0.8673 -0.1492
  640MOL0     C86283  -0.918   1.513   8.303 -0.2036 -0.6661  0.4669
  640MOL0     C86284  -0.968   1.390   8.287 -0.4428  0.3646  0.7495
  640MOL0     C86285  -1.110   1.352   8.254  0.4588  1.1320  1.0130
  640MOL0     C86286  -1.178   1.463   8.175  0.3972 -1.2382  0.7656
  640MOL0     C86287  -1.317   1.428   8.126 -0.4126 -0.1028 -0.0856
  640MOL0     C86288  -1.394   1.547   8.060 -0.8129  0.1409 -0.8560
  640MOL0     O86289  -1.521   1.508   8.018 -0.4752 -0.2025 -0.5241
  640MOL0     C86290  -1.630   1.589   8.037 -0.0546 -0.2471 -0.3941
  640MOL0     C86291  -1.627   1.730   8.043 -0.3585 -0.5210  0.2951
  640MOL0     C86292  -1.744   1.801   8.033 -0.8552  0.2180  0.4560
  640MOL0     C86293  -1.724   1.946   7.991 -0.0248 -0.8034 -0.3059
  640MOL0     C86294  -1.869   1.742   8.047  0.2405  0.8769  0.1086
  640MOL0     C86295  -2.002   1.822   8.029 -0.3739  0.3473 -0.3455
  640MOL0     O86296  -2.117   1.749   8.039  1.1205 -0.0271 -0.5710
  640MOL0     C86297  -2.234   1.821   8.066 -0.5676  0.2115  0.5143
  640MOL0     C86298  -2.264   1.912   8.166  0.4866 -0.2413 -0.6696
  640MOL0     C86299  -2.397   1.962   8.192 -0.9000  0.0154  0.1471
  640MOL0     C86300  -2.502   1.914   8.113  0.0423  0.4516 -0.3653
  640MOL0     O86301  -2.627   1.963   8.140  0.3512 -0.4042  0.0287
  640MOL0     C86302  -2.744   1.903   8.079  0.4202 -0.6128 -0.3491
  640MOL0     C86303  -2.876   1.952   8.132  0.0128 -0.2969 -0.4470
  640MOL0     C86304  -2.988   1.913   8.034 -0.3252 -0.8163  0.8342
  640MOL0     C86305  -3.119   1.990   8.060  0.2696  0.3758  0.4860
  640MOL0     C86306  -3.234   1.936   7.972 -0.3747  0.2134  1.0210
  640MOL0     C86307  -3.364   1.989   8.023 -0.0316 -0.9225  0.4800
  640MOL0     C86308  -3.476   1.926   7.935 -0.2401 -0.7453 -1.3998
  640MOL0     C86309  -3.620   1.977   7.975  0.1288  0.0216 -0.7882
  640MOL0    Cl86310  -3.734   1.906   7.860  0.0592  0.2857  0.4609
  640MOL0     C86311  -2.477   1.828   8.005 -0.1452 -0.6161  0.1044
  640MOL0     C86312  -2.340   1.790   7.983  0.1703 -0.1129  0.7095
  640MOL0     O86313  -1.999   1.947   8.014  1.0296  0.3712  0.3058
  640MOL0     C86314  -1.869   1.599   8.068 -1.4113 -0.0784  0.0755
  640MOL0     C86315  -1.755   1.520   8.052  0.5503 -0.7665 -0.0347
  640MOL0     N86316  -0.859   1.306   8.311  0.5716 -0.1485  0.0735
  640MOL0     N86317  -0.752   1.364   8.351 -0.5042 -0.4706 -0.6564
  640MOL0     C86318   0.013   2.252   7.999  1.3534  0.3366 -0.2375
  640MOL0     C86319   0.138   2.304   7.964  0.0866 -0.1133  0.2799
  640MOL0     C86320   0.548   2.411   7.808  0.6399  0.1880 -0.7556
  640MOL0     C86321   0.543   2.442   7.674 -0.0998  0.2591 -0.1181
  640MOL0     C86322   0.656   2.482   7.608  0.6589  0.8988  0.4296
  640MOL0     C86323   0.778   2.495   7.679 -0.0061 -0.2369 -0.0858
  640MOL0     O86324   0.895   2.540   7.612 -0.1270  0.3094 -0.4289
  640MOL0     C86325   1.018   2.482   7.654  0.2085  0.8163  0.5939
  640MOL0     C86326   1.094   2.579   7.738  0.4577  0.4074 -1.0017
  640MOL0     C86327   1.232   2.610   7.684  0.2065 -0.1689 -0.0820
  640MOL0     C86328   1.312   2.697   7.789  0.3249  0.2119  0.8410
  640MOL0     C86329   1.447   2.731   7.736 -0.1736 -0.4555 -0.9213
  640MOL0     C86330   1.555   2.754   7.686 -0.5926 -0.5523 -0.3740
  640MOL0     C86331   0.782   2.456   7.816 -0.2640  0.9935  0.1878
  640MOL0     C86332   0.667   2.421   7.881 -0.2256  0.2911  0.4698
  640MOL0     H86333   0.131   2.203   7.644 -0.5429  3.5648 -1.2979
  640MOL0     H86334  -0.090   2.155   7.697  0.4904 -3.2138  0.8635
  640MOL0     H86335  -0.319   2.113   7.772 -3.3493 -0.9595  1.4325
  640MOL0     H86336  -0.226   1.978   7.840 -1.8915 -0.0338 -0.9371
  640MOL0     H86337  -0.409   2.055   8.041 -0.9919 -0.9998 -0.6778
  640MOL0     H86338  -0.495   2.075   7.898  0.1081  0.6746 -0.3496
  640MOL0     H86339  -0.460   1.848   7.817 -1.9570 -2.5409  1.4604
  640MOL0     H86340  -0.334   1.822   7.931 -2.5219 -4.4656  0.8975
  640MOL0     H86341  -0.492   1.857   8.113 -0.1241 -1.5695  0.6632
  640MOL0     H86342  -0.630   1.873   7.996  0.8564  2.2067  0.6622
  640MOL0     H86343  -0.589   1.654   7.911  0.3874  2.5740 -1.5578
  640MOL0     H86344  -0.463   1.616   8.030 -1.3425 -1.1729  4.2060
  640MOL0     H86345  -0.744   1.707   8.112 -1.3886 -2.3763  1.4411
  640MOL0     H86346  -0.686   1.543   8.076 -1.1466 -0.5071  0.4110
  640MOL0     H86347  -0.509   1.554   8.263  1.9459  1.9164  1.6904
  640MOL0     H86348  -0.539   1.715   8.288  2.2723 -1.2062 -0.8110
  640MOL0     H86349  -0.754   1.697   8.396  0.5892  0.3092  0.6106
  640MOL0     H86350  -0.642   1.574   8.467 -1.4697 -0.9434  0.7186
  640MOL0     H86351  -0.975   1.605   8.291 -0.9886 -0.9782  1.6071
  640MOL0     H86352  -1.106   1.260   8.194  1.0491  1.8435 -0.0749
  640MOL0     H86353  -1.175   1.325   8.338  2.5390 -0.4241  2.2128
  640MOL0     H86354  -1.115   1.495   8.092  2.4374 -0.6330  2.4616
  640MOL0     H86355  -1.189   1.550   8.241 -2.3419  1.2065 -2.5208
  640MOL0     H86356  -1.365   1.396   8.219  1.4897  1.1320  1.4157
  640MOL0     H86357  -1.306   1.347   8.053  1.5753 -0.9047  1.0206
  640MOL0     H86358  -1.326   1.586   7.983  2.4095 -1.0955  1.1280
  640MOL0     H86359  -1.399   1.624   8.138  2.4527 -1.5505  1.2459
  640MOL0     H86360  -1.547   1.803   8.031  0.0881 -0.9564  0.5641
  640MOL0     H86361  -1.740   2.013   8.076 -2.3928 -2.3074  0.5542
  640MOL0     H86362  -1.628   1.972   7.947 -0.8167  2.4208 -0.3498
  640MOL0     H86363  -1.794   1.978   7.913 -0.2109  2.1055  0.9414
  640MOL0     H86364  -2.182   1.946   8.227  0.8962 -1.0479 -0.7573
  640MOL0     H86365  -2.419   2.031   8.273  0.9996 -0.6208  1.2802
  640MOL0     H86366  -2.746   1.914   7.970  2.8612 -2.1681 -0.6496
  640MOL0     H86367  -2.736   1.797   8.105  0.6051 -1.0780 -2.1470
  640MOL0     H86368  -2.901   1.920   8.233 -1.9228  1.4812 -0.3084
  640MOL0     H86369  -2.886   2.061   8.128 -3.0828 -0.2763  2.7748
  640MOL0     H86370  -3.007   1.806   8.042  2.6494 -1.5157 -0.1747
  640MOL0     H86371  -2.958   1.934   7.931 -0.9731  2.5949  1.2186
  640MOL0     H86372  -3.150   1.978   8.164 -0.0249 -3.2006  0.1256
  640MOL0     H86373  -3.106   2.098   8.046  0.9482  0.4339  1.4534
  640MOL0     H86374  -3.236   1.827   7.982  1.8548 -0.0743 -0.9873
  640MOL0     H86375  -3.214   1.954   7.866 -0.2381  1.1597  1.2024
  640MOL0     H86376  -3.385   1.972   8.129 -1.7571  0.4022  0.4040
  640MOL0     H86377  -3.364   2.099   8.022 -1.0914 -0.8633  2.3912
  640MOL0     H86378  -3.477   1.819   7.960  0.7881 -0.6580 -0.9394
  640MOL0     H86379  -3.453   1.953   7.832 -4.2974  1.1156 -1.9991
  640MOL0     H86380  -3.624   2.086   7.968  2.2302  0.1948 -0.0613
  640MOL0     H86381  -3.641   1.940   8.075 -2.4155  2.7808 -0.1584
  640MOL0     H86382  -2.547   1.793   7.929  0.1377 -3.6578  1.0984
  640MOL0     H86383  -2.325   1.717   7.905  1.9996  1.9652 -1.0229
  640MOL0     H86384  -1.961   1.548   8.096 -0.4848 -1.6159  0.4261
  640MOL0     H86385  -1.772   1.414   8.064  0.0991 -0.6458  0.4648
  640MOL0     H86386  -0.018   2.276   8.100 -2.1467  3.1234 -1.7544
  640MOL0     H86387   0.191   2.357   8.043  0.2431 -0.3833  0.3557
  640MOL0     H86388   0.452   2.424   7.617  0.0558 -1.2465  0.0603
  640MOL0     H86389   0.651   2.506   7.503  0.8656 -3.4255 -0.7229
  640MOL0     H86390   1.011   2.382   7.697 -0.0181  0.2667 -0.6779
  640MOL0     H86391   1.068   2.470   7.558 -1.5956  2.8397 -0.6743
  640MOL0     H86392   1.112   2.522   7.830  0.2827  1.5073 -0.2751
  640MOL0     H86393   1.042   2.673   7.760 -0.6159 -0.7823  2.2606
  640MOL0     H86394   1.222   2.654   7.584 -0.7129 -1.3504 -0.5293
  640MOL0     H86395   1.280   2.513   7.665 -4.3519 -2.4165 -1.6182
  640MOL0     H86396   1.328   2.640   7.881  0.3403  1.0650  1.3796
  640MOL0     H86397   1.260   2.792   7.800  0.5005  0.2190  1.6836
  640MOL0     H86398   1.660   2.766   7.668  0.1216 -3.9981  0.7387
  640MOL0     H86399   0.876   2.467   7.871  0.6861 -0.7875 -0.9583
  640MOL0     H86400   0.662   2.402   7.988  1.9250 -0.6499  0.4487
  641MOL0     O86401  10.547   5.890   2.573 -0.2809  0.2441  0.3092
  641MOL0     C86402  10.587   5.999   2.606  0.1714 -0.1643  0.3394
  641MOL0     O86403  10.498   6.101   2.654  0.2518  0.1745  0.1418
  641MOL0     C86404  10.359   6.083   2.655 -0.8407  0.2350  0.9764
  641MOL0     C86405  10.292   6.157   2.752 -0.1710 -0.0619  1.0606
  641MOL0     C86406  10.159   6.151   2.768  0.7103  0.0282  0.1806
  641MOL0     C86407  10.080   6.072   2.684  0.0585 -0.0254 -0.0442
  641MOL0     O86408   9.936   6.069   2.686 -0.3982  0.0499 -0.1071
  641MOL0     C86409   9.850   6.150   2.771 -0.6200 -0.1683  0.2927
  641MOL0     C86410   9.835   6.291   2.713 -0.2244  0.7690 -0.6564
  641MOL0     C86411   9.709   6.345   2.766  0.0736 -0.3536  0.1334
  641MOL0     C86412   9.671   6.479   2.683 -0.0513 -0.8132 -0.0581
  641MOL0     C86413   9.527   6.528   2.711  0.1832 -0.6162  0.1855
  641MOL0     C86414   9.421   6.434   2.644  0.2656  0.1841 -0.1104
  641MOL0     C86415   9.283   6.503   2.628  0.2343 -0.0886 -0.2891
  641MOL0     C86416   9.212   6.516   2.757  0.2153  0.0185 -0.0856
  641MOL0     N86417   9.069   6.545   2.740 -0.1204  0.4813 -0.5480
  641MOL0     C86418   8.967   6.452   2.762 -1.3358 -0.0354 -0.2887
  641MOL0     C86419   8.859   6.522   2.794 -0.3974 -0.0026  0.6152
  641MOL0     C86420   8.729   6.455   2.830 -0.0800  0.0134  0.1666
  641MOL0     C86421   8.620   6.444   2.722  0.3327 -0.3686 -0.4431
  641MOL0     C86422   8.564   6.575   2.673 -0.1248 -0.4208  0.6291
  641MOL0     C86423   8.443   6.549   2.581 -0.0638  0.0666 -0.0012
  641MOL0     O86424   8.341   6.502   2.662  0.6874 -0.4174 -0.2927
  641MOL0     C86425   8.237   6.436   2.600 -0.3367  0.2937  0.6439
  641MOL0     C86426   8.193   6.450   2.462  0.7534 -0.3767 -0.0899
  641MOL0     C86427   8.078   6.395   2.420  0.6939  0.6269  0.4866
  641MOL0     C86428   8.041   6.425   2.274  0.9472  1.0567  0.1862
  641MOL0     C86429   7.997   6.314   2.503 -0.3977  0.1518 -0.0590
  641MOL0     C86430   7.870   6.257   2.467 -0.5329 -0.1216  0.0484
  641MOL0     O86431   7.796   6.237   2.584 -0.0640 -0.3630  0.0182
  641MOL0     C86432   7.676   6.170   2.576  0.5459 -0.2305 -0.4821
  641MOL0     C86433   7.651   6.079   2.681 -0.3742  0.1606 -0.7684
  641MOL0     C86434   7.535   6.004   2.696 -0.2355 -0.1409  0.0761
  641MOL0     C86435   7.433   6.018   2.603  0.8404 -0.3363  0.2721
  641MOL0     O86436   7.312   5.963   2.596 -0.2399  0.7945  0.4104
  641MOL0     C86437   7.301   5.838   2.670 -0.1505 -0.0510  0.2826
  641MOL0     C86438   7.364   5.723   2.592  0.4495 -0.2508 -0.6945
  641MOL0     C86439   7.329   5.584   2.653 -0.4239 -0.3962 -1.0072
  641MOL0     C86440   7.436   5.479   2.624 -0.3064 -0.2644 -0.1563
  641MOL0     C86441   7.440   5.437   2.479 -0.9357 -0.0202  0.2038
  641MOL0     C86442   7.342   5.324   2.439 -0.3306 -0.0980  0.3838
  641MOL0     C86443   7.188   5.361   2.420 -0.1132  0.3916 -0.6306
  641MOL0     C86444   7.113   5.238   2.368  1.5575  0.3847  0.4854
  641MOL0    Cl86445   6.927   5.268   2.366 -0.3481  0.3123 -0.1461
  641MOL0     C86446   7.456   6.112   2.499 -0.8495  0.4203 -0.0030
  641MOL0     C86447   7.578   6.181   2.474 -0.2928 -0.2857  0.2268
  641MOL0     O86448   7.834   6.212   2.357 -0.2072 -0.0116  0.6343
  641MOL0     C86449   8.049   6.292   2.633  1.3697  0.6138 -0.3432
  641MOL0     C86450   8.157   6.353   2.683 -0.3318 -0.5959  0.0642
  641MOL0     N86451   8.896   6.652   2.799  0.2606 -0.3683 -0.0566
  641MOL0     N86452   9.020   6.664   2.768  0.1008 -0.4413 -1.1306
  641MOL0     C86453  10.148   5.985   2.594  1.1864  0.2004  0.5603
  641MOL0     C86454  10.283   6.000   2.578  0.2825  0.0615 -0.1667
  641MOL0     C86455  10.736   6.007   2.634 -0.1417  0.2832  0.9199
  641MOL0     C86456  10.798   6.129   2.644 -0.6200  0.0045  0.8051
  641MOL0     C86457  10.933   6.140   2.633  0.0830 -1.0944  0.5258
  641MOL0     C86458  11.018   6.029   2.612  0.3303 -0.2061 -0.8769
  641MOL0     O86459  11.152   6.045   2.611  0.3458 -0.4783  0.1792
  641MOL0     C86460  11.241   5.969   2.528  0.4496 -0.4610 -0.6733
  641MOL0     C86461  11.267   6.010   2.380  0.3681 -0.6812  0.1745
  641MOL0     C86462  11.158   5.972   2.278 -0.0724  0.7071  0.1350
  641MOL0     C86463  11.178   6.022   2.141  0.5699  0.2203  1.1649
  641MOL0     C86464  11.160   6.167   2.125  0.0124 -0.8252 -1.1194
  641MOL0     C86465  11.151   6.286   2.116 -0.2007 -0.5814 -0.7901
  641MOL0     C86466  10.958   5.905   2.601 -0.1718 -0.0813  0.7568
  641MOL0     C86467  10.817   5.892   2.617  0.4091 -0.6033  0.4333
  641MOL0     H86468  10.341   6.241   2.800  1.4834  2.2643 -4.0802
  641MOL0     H86469  10.119   6.197   2.858  3.4219  1.1653  0.9064
  641MOL0     H86470   9.753   6.106   2.792  0.0290 -2.8274 -1.6682
  641MOL0     H86471   9.897   6.159   2.869  1.9028 -1.3103 -0.7235
  641MOL0     H86472   9.914   6.359   2.747  1.9577 -1.5160 -0.8321
  641MOL0     H86473   9.852   6.295   2.605  0.7207  2.5963 -0.4810
  641MOL0     H86474   9.620   6.282   2.768  0.9099 -1.5561  1.1584
  641MOL0     H86475   9.733   6.377   2.868  0.8689  1.9923 -0.7206
  641MOL0     H86476   9.748   6.554   2.704  1.6756 -2.1370 -1.3488
  641MOL0     H86477   9.669   6.464   2.575  0.7053  1.6256 -0.4622
  641MOL0     H86478   9.497   6.536   2.816  0.2175 -0.1115  0.1603
  641MOL0     H86479   9.516   6.631   2.674  2.5691  0.3630  1.9857
  641MOL0     H86480   9.453   6.422   2.540 -0.6423  1.0934 -0.5134
  641MOL0     H86481   9.424   6.336   2.692  2.5377  0.7141  0.9750
  641MOL0     H86482   9.287   6.603   2.583  1.5442  0.4381  0.9069
  641MOL0     H86483   9.229   6.442   2.556  2.8378 -1.3774 -1.2854
  641MOL0     H86484   9.256   6.593   2.821 -2.0576  0.3668  1.1542
  641MOL0     H86485   9.222   6.417   2.802  1.0589 -0.0437 -0.3966
  641MOL0     H86486   8.982   6.348   2.733 -0.0502  0.1125 -0.2023
  641MOL0     H86487   8.757   6.351   2.850  1.1137 -0.3216 -2.8134
  641MOL0     H86488   8.686   6.496   2.922  0.9046  2.1154 -0.2671
  641MOL0     H86489   8.539   6.376   2.749 -0.2925  0.5873  0.1437
  641MOL0     H86490   8.665   6.398   2.634 -2.9882 -3.6145 -0.6794
  641MOL0     H86491   8.632   6.649   2.629 -2.2358  1.6996  0.6829
  641MOL0     H86492   8.519   6.621   2.762 -1.3554  0.4224 -0.3927
  641MOL0     H86493   8.474   6.475   2.507  2.8726 -0.1194  1.2611
  641MOL0     H86494   8.398   6.638   2.536  1.9395 -0.5073 -3.5299
  641MOL0     H86495   8.249   6.510   2.391 -1.6843 -0.0362 -1.8807
  641MOL0     H86496   8.065   6.335   2.217 -3.9118 -1.5482  1.7080
  641MOL0     H86497   7.934   6.443   2.261  0.5549 -2.2307 -2.3614
  641MOL0     H86498   8.104   6.506   2.235  0.7285  1.7479  1.2278
  641MOL0     H86499   7.720   6.060   2.763  1.1758 -1.0251 -2.2801
  641MOL0     H86500   7.519   5.945   2.785 -0.0392  0.7920  0.7523
  641MOL0     H86501   7.346   5.848   2.769 -1.1913 -2.9741  1.1359
  641MOL0     H86502   7.195   5.816   2.685  0.1617 -1.0570  1.1203
  641MOL0     H86503   7.324   5.730   2.490 -0.5271  2.6291 -0.2116
  641MOL0     H86504   7.471   5.744   2.587  0.2384  1.1111  0.0807
  641MOL0     H86505   7.231   5.553   2.617 -0.1763 -1.5183 -0.7670
  641MOL0     H86506   7.316   5.592   2.761 -1.2933  1.0700 -1.1952
  641MOL0     H86507   7.535   5.514   2.655 -1.1403  0.4802  1.8356
  641MOL0     H86508   7.428   5.392   2.690 -0.5005  0.7734  1.2447
  641MOL0     H86509   7.537   5.397   2.449 -2.2577 -0.4769 -4.1406
  641MOL0     H86510   7.441   5.526   2.415 -0.4652  0.2205  0.5365
  641MOL0     H86511   7.380   5.286   2.344 -1.4390  0.4710 -0.3045
  641MOL0     H86512   7.358   5.237   2.504 -0.5730 -1.9521 -1.9193
  641MOL0     H86513   7.189   5.448   2.353  3.5217  0.6748 -0.4233
  641MOL0     H86514   7.146   5.391   2.516  3.0274  0.9849  0.6966
  641MOL0     H86515   7.120   5.143   2.422 -1.1947  0.1930  0.6416
  641MOL0     H86516   7.139   5.212   2.265  2.1756  1.3471  0.3831
  641MOL0     H86517   7.383   6.138   2.422  1.2969  0.0858 -2.2696
  641MOL0     H86518   7.585   6.252   2.392 -0.5614  0.2538  0.6650
  641MOL0     H86519   7.984   6.232   2.696  0.5310 -1.9192 -3.3572
  641MOL0     H86520   8.191   6.344   2.786  2.0437 -0.7304 -0.6738
  641MOL0     H86521  10.090   5.907   2.546  1.0347  0.1880  0.7641
  641MOL0     H86522  10.334   5.942   2.502  0.3823 -1.7523  1.1950
  641MOL0     H86523  10.756   6.229   2.649  1.4079  1.1526 -2.0176
  641MOL0     H86524  10.987   6.234   2.638  0.6633 -1.4803  2.6491
  641MOL0     H86525  11.333   5.984   2.586  0.3699 -2.2609 -0.0047
  641MOL0     H86526  11.223   5.861   2.537 -2.0631 -0.1677 -1.3528
  641MOL0     H86527  11.365   5.973   2.346  0.5878 -2.1578  2.1998
  641MOL0     H86528  11.271   6.119   2.375 -0.5428 -0.6972 -1.9976
  641MOL0     H86529  11.066   6.017   2.316  0.4660  0.9917  1.1501
  641MOL0     H86530  11.146   5.864   2.274  2.1323  0.3951  0.5844
  641MOL0     H86531  11.113   5.966   2.072  1.4736 -1.1497  1.3907
  641MOL0     H86532  11.281   6.009   2.106  1.2165  1.9887  2.2997
  641MOL0     H86533  11.143   6.392   2.103  1.6933 -0.5814 -2.3344
  641MOL0     H86534  11.025   5.819   2.600 -1.6158 -1.2328  0.4426
  641MOL0     H86535  10.780   5.792   2.598 -0.2464 -0.6152  1.7008
  642MOL0     O86536  11.017   0.618  10.986 -0.4045  0.2877 -0.8808
  642MOL0     C86537  10.938   0.708  10.965  0.1406 -0.1730 -0.0585
  642MOL0     O86538  10.806   0.692  10.984 -0.1399 -0.6448 -0.0988
  642MOL0     C86539  10.734   0.581  11.025 -0.9821  0.2921  0.4731
  642MOL0     C86540  10.603   0.587  11.004 -0.4787  0.2589 -0.6975
  642MOL0     C86541  10.517   0.503  11.070  0.4925 -0.7459  0.6110
  642MOL0     C86542  10.563   0.393  11.140  0.1293 -0.0676 -0.6960
  642MOL0     O86543  10.484   0.300  11.202  0.7296 -0.0999 -0.1535
  642MOL0     C86544  10.344   0.328  11.212  0.7308  0.2232  0.0858
  642MOL0     C86545  10.288   0.222  11.311  0.4144  0.6485  0.0531
  642MOL0     C86546  10.142   0.248  11.346  0.2337 -0.2157 -1.5582
  642MOL0     C86547  10.083   0.143  11.436 -0.2756 -0.5140 -0.2342
  642MOL0     C86548   9.935   0.169  11.478 -0.4282  0.1770  0.3732
  642MOL0     C86549   9.894   0.086  11.601 -0.6436  0.2290  0.2388
  642MOL0     C86550   9.751   0.102  11.646 -0.7060  0.0002  0.5236
  642MOL0     C86551   9.719   0.027  11.767  0.0513  0.2498  0.3796
  642MOL0     N86552   9.574   0.044  11.790  0.5375  0.6292 -0.3235
  642MOL0     C86553   9.467  -0.048  11.795  0.1164  0.1030  0.4246
  642MOL0     C86554   9.360   0.022  11.831  0.2703  0.6597 -0.8581
  642MOL0     C86555   9.219  -0.030  11.839  0.7010 -0.1880 -0.1847
  642MOL0     C86556   9.108   0.071  11.801  0.1411 -0.2536 -0.6898
  642MOL0     C86557   9.064   0.163  11.920 -0.1546 -0.2648 -0.2811
  642MOL0     C86558   8.948   0.259  11.880 -0.0576  0.5123 -0.5192
  642MOL0     O86559   8.918   0.323  12.001 -0.2175 -0.5628  0.8894
  642MOL0     C86560   8.792   0.372  12.012  0.4610 -0.5257 -0.1824
  642MOL0     C86561   8.726   0.367  12.134 -0.2315  0.6248  0.4050
  642MOL0     C86562   8.604   0.430  12.150 -0.4043  0.5638  0.9458
  642MOL0     C86563   8.559   0.451  12.288 -0.6972  0.1430  0.4264
  642MOL0     C86564   8.537   0.488  12.032  0.3043  0.8771  0.5821
  642MOL0     C86565   8.412   0.563  12.042 -0.1487  0.8714 -0.2165
  642MOL0     O86566   8.353   0.587  11.924  0.3777 -0.7686  0.2331
  642MOL0     C86567   8.237   0.666  11.928 -0.1355  0.2128 -0.0399
  642MOL0     C86568   8.116   0.610  11.893  0.3068 -0.0046 -0.2804
  642MOL0     C86569   7.992   0.680  11.908  0.2580  0.8692  0.3738
  642MOL0     C86570   7.990   0.806  11.961  0.4357 -0.9143  0.0111
  642MOL0     O86571   7.874   0.883  11.969  0.7281  0.2095 -0.1947
  642MOL0     C86572   7.775   0.886  11.859  0.1917  0.3224 -0.8392
  642MOL0     C86573   7.634   0.869  11.912 -0.0126 -1.0815 -0.5709
  642MOL0     C86574   7.623   0.742  12.000  0.8525  0.0730 -0.6616
  642MOL0     C86575   7.477   0.700  12.044  0.1085 -0.6379  0.1950
  642MOL0     C86576   7.369   0.689  11.940  0.3588 -1.0855 -0.0489
  642MOL0     C86577   7.240   0.639  12.016  0.0083 -0.0493  0.0371
  642MOL0     C86578   7.237   0.489  12.005  0.5513  0.0057  0.7772
  642MOL0     C86579   7.100   0.452  12.054  0.2567 -1.0160 -0.1265
  642MOL0    Cl86580   7.080   0.283  12.055  0.2183  0.2070  0.2836
  642MOL0     C86581   8.116   0.867  11.996  0.4140 -0.0253 -0.4196
  642MOL0     C86582   8.233   0.796  11.982 -0.4411  0.9222 -0.4989
  642MOL0     O86583   8.371   0.598  12.148  0.4592 -0.0576 -0.6726
  642MOL0     C86584   8.607   0.489  11.905  0.2088 -0.4675  0.3911
  642MOL0     C86585   8.737   0.440  11.904  0.1928 -0.2168  0.5276
  642MOL0     N86586   9.395   0.154  11.859 -0.1746  0.1913  0.2588
  642MOL0     N86587   9.520   0.161  11.837  0.0997  0.6456  1.1184
  642MOL0     C86588  10.703   0.371  11.150 -1.3062 -0.5778 -0.7815
  642MOL0     C86589  10.787   0.471  11.091 -0.0494 -0.7817  0.7892
  642MOL0     C86590  10.993   0.832  10.918 -0.2880  0.6971  0.4432
  642MOL0     C86591  10.915   0.927  10.843 -0.5381  1.2546 -0.8836
  642MOL0     C86592  10.975   1.040  10.791  0.5750  0.2215 -0.8168
  642MOL0     C86593  11.106   1.075  10.818 -0.8548 -0.4588  0.4956
  642MOL0     O86594  11.158   1.198  10.766  0.0899  0.4069  0.3211
  642MOL0     C86595  11.279   1.249  10.826 -0.0897  0.6587  0.3478
  642MOL0     C86596  11.289   1.398  10.802 -0.1345 -0.2590  0.0231
  642MOL0     C86597  11.201   1.477  10.888  0.2408  0.1250  0.1766
  642MOL0     C86598  11.260   1.528  11.025 -0.9693  0.0236  0.3887
  642MOL0     C86599  11.185   1.639  11.078  0.1983 -0.0612  0.0913
  642MOL0     C86600  11.112   1.721  11.115 -0.0993 -0.5809 -0.3232
  642MOL0     C86601  11.186   0.984  10.893  0.5755  0.2522 -0.4182
  642MOL0     C86602  11.125   0.872  10.953  0.4179  0.3804  0.0201
  642MOL0     H86603  10.570   0.659  10.929  1.5294  1.3201 -0.6376
  642MOL0     H86604  10.410   0.521  11.076 -0.0417 -2.3289 -2.4662
  642MOL0     H86605  10.329   0.430  11.247  2.1419  0.6432 -0.4961
  642MOL0     H86606  10.293   0.315  11.116  0.1008 -1.4328  0.6096
  642MOL0     H86607  10.288   0.123  11.265 -3.5866 -0.2317  1.5453
  642MOL0     H86608  10.332   0.223  11.412 -0.8609  0.5908  0.6317
  642MOL0     H86609  10.130   0.344  11.398 -1.2596 -0.1634 -1.9438
  642MOL0     H86610  10.092   0.247  11.249 -1.7112 -3.1734 -0.6474
  642MOL0     H86611  10.098   0.041  11.400  3.9325  0.1532 -0.8893
  642MOL0     H86612  10.149   0.142  11.524  0.4562 -0.8989 -0.7798
  642MOL0     H86613   9.919   0.274  11.505 -0.8089 -0.1577  1.5430
  642MOL0     H86614   9.865   0.141  11.400  1.4794  1.0119 -1.7464
  642MOL0     H86615   9.936  -0.013  11.584  2.9043  1.2581  2.2101
  642MOL0     H86616   9.949   0.128  11.685 -0.5793 -4.1363  2.6314
  642MOL0     H86617   9.720   0.206  11.663 -2.5045 -0.7403  2.1219
  642MOL0     H86618   9.678   0.065  11.574  0.0790  1.5702 -1.1781
  642MOL0     H86619   9.780   0.082  11.840  2.7535  1.4580 -2.5515
  642MOL0     H86620   9.752  -0.076  11.750 -0.6085 -0.1353  1.3005
  642MOL0     H86621   9.480  -0.154  11.776 -0.2103 -0.0237  0.8910
  642MOL0     H86622   9.216  -0.108  11.763  1.4308 -2.9825  2.4456
  642MOL0     H86623   9.192  -0.074  11.936  1.3381 -1.2577 -0.4717
  642MOL0     H86624   9.013   0.024  11.778  0.1039 -1.2863  1.3220
  642MOL0     H86625   9.137   0.141  11.723  2.3319 -1.2418 -0.8438
  642MOL0     H86626   9.153   0.212  11.959 -1.0763  1.6914 -0.5256
  642MOL0     H86627   9.019   0.113  12.007 -0.4314  0.4303 -0.0147
  642MOL0     H86628   8.861   0.201  11.848 -1.9973  2.4493  0.9364
  642MOL0     H86629   8.987   0.332  11.809  2.3537  0.8442  1.0135
  642MOL0     H86630   8.778   0.331  12.222 -0.9980 -1.9125 -0.0982
  642MOL0     H86631   8.612   0.385  12.356  0.4669  2.6685  2.1125
  642MOL0     H86632   8.577   0.553  12.325 -1.8573 -1.0038  4.6850
  642MOL0     H86633   8.452   0.429  12.290 -0.6364 -0.2277 -0.2315
  642MOL0     H86634   8.104   0.513  11.845 -0.5943 -0.7045  1.2756
  642MOL0     H86635   7.903   0.625  11.880 -0.4301  0.5663  2.9537
  642MOL0     H86636   7.780   0.992  11.830 -1.0994  1.3142  2.1193
  642MOL0     H86637   7.795   0.805  11.789  1.1190 -3.7618  3.6081
  642MOL0     H86638   7.610   0.944  11.988 -1.7846 -2.2270  0.0706
  642MOL0     H86639   7.561   0.875  11.831 -0.3086 -0.1493 -0.2431
  642MOL0     H86640   7.687   0.743  12.088  0.6840 -1.1529 -0.5068
  642MOL0     H86641   7.672   0.662  11.944 -0.7537 -2.0964  0.8838
  642MOL0     H86642   7.488   0.601  12.088 -2.2395 -0.0098  2.4918
  642MOL0     H86643   7.440   0.764  12.125 -0.5107 -1.3501  0.4897
  642MOL0     H86644   7.393   0.625  11.854  2.0895 -3.0913  1.8223
  642MOL0     H86645   7.344   0.788  11.899 -2.1056 -1.0201  1.4178
  642MOL0     H86646   7.242   0.680  12.118  1.8823 -0.4098  0.1921
  642MOL0     H86647   7.153   0.677  11.962  0.1160 -1.3434 -1.1068
  642MOL0     H86648   7.305   0.448  12.081  1.1661  0.7736  0.6481
  642MOL0     H86649   7.264   0.451  11.906  0.5191 -0.8651  1.0873
  642MOL0     H86650   7.026   0.482  11.979 -1.4854 -3.2607  0.5663
  642MOL0     H86651   7.058   0.495  12.145  0.6778 -1.7284  0.4153
  642MOL0     H86652   8.117   0.966  12.041 -1.7171 -0.6847  1.2313
  642MOL0     H86653   8.321   0.846  12.023 -0.0820 -0.0180 -0.0926
  642MOL0     H86654   8.550   0.524  11.819  0.5456 -0.7434  0.0528
  642MOL0     H86655   8.793   0.440  11.812 -0.8089 -0.3881 -0.0928
  642MOL0     H86656  10.736   0.278  11.193 -2.4894  0.5184  2.9317
  642MOL0     H86657  10.894   0.455  11.098  0.0014 -0.7062  0.2771
  642MOL0     H86658  10.812   0.910  10.814 -0.9438  1.5741  0.3427
  642MOL0     H86659  10.914   1.103  10.727 -2.4024 -2.6850 -1.1213
  642MOL0     H86660  11.277   1.234  10.935  1.4471 -3.4432  0.0053
  642MOL0     H86661  11.366   1.194  10.788 -1.1985 -1.9274  1.2840
  642MOL0     H86662  11.260   1.420  10.698 -1.6700 -1.8058  0.0782
  642MOL0     H86663  11.390   1.438  10.812 -0.2423 -0.1998  0.8891
  642MOL0     H86664  11.113   1.418  10.918  1.6657 -0.6760  3.1794
  642MOL0     H86665  11.166   1.555  10.820  1.8912 -0.5112 -1.4730
  642MOL0     H86666  11.358   1.572  11.008 -1.2064  0.8934  1.2138
  642MOL0     H86667  11.271   1.447  11.098  1.6863 -0.1082 -0.0541
  642MOL0     H86668  11.034   1.793  11.131  1.1544  1.2388 -1.9536
  642MOL0     H86669  11.287   1.014  10.919  0.0960  3.0524 -1.4381
  642MOL0     H86670  11.194   0.815  11.013 -0.5284  0.9972  1.7753
  643MOL0     O86671   4.992   6.935   1.870  0.0529 -0.1946 -0.6302
  643MOL0     C86672   5.018   6.930   1.990  0.4897 -0.6465  1.0145
  643MOL0     O86673   4.926   6.906   2.091  0.1556  0.3701 -0.7992
  643MOL0     C86674   4.794   6.873   2.080  0.2985 -0.2518  0.6329
  643MOL0     C86675   4.719   6.867   1.956 -0.0976  1.1747 -0.1426
  643MOL0     C86676   4.581   6.827   1.958  0.3081  0.4704  0.5389
  643MOL0     C86677   4.521   6.792   2.079  0.8160  0.6554 -0.1264
  643MOL0     O86678   4.387   6.759   2.093 -0.6016 -0.4252  0.0332
  643MOL0     C86679   4.347   6.645   2.171  0.1106 -0.9336  0.5399
  643MOL0     C86680   4.194   6.644   2.155  0.2968  0.1847 -0.5520
  643MOL0     C86681   4.140   6.509   2.200 -0.7438  0.0750 -0.0958
  643MOL0     C86682   3.980   6.500   2.180  0.2358  0.0815  0.8112
  643MOL0     C86683   3.906   6.375   2.224  0.2734 -0.4847 -0.1813
  643MOL0     C86684   3.900   6.344   2.379 -0.0918  0.0361  1.0010
  643MOL0     C86685   3.759   6.302   2.414 -0.0935  0.2512  0.0904
  643MOL0     C86686   3.667   6.427   2.431  0.5987  0.2528 -0.0525
  643MOL0     N86687   3.521   6.384   2.439 -0.4484 -0.3020  0.7397
  643MOL0     C86688   3.446   6.390   2.550  0.2498 -0.5098 -0.1923
  643MOL0     C86689   3.327   6.338   2.514 -0.7134  0.0601 -0.0130
  643MOL0     C86690   3.214   6.320   2.615 -0.7033  0.3677 -0.5568
  643MOL0     C86691   3.107   6.425   2.598 -0.0273 -0.1627  1.1780
  643MOL0     C86692   3.108   6.534   2.705  0.1355 -0.7080 -0.0361
  643MOL0     C86693   2.965   6.600   2.693 -0.3764  0.1276  0.0393
  643MOL0     O86694   2.942   6.696   2.798  0.3312 -0.2500  0.2124
  643MOL0     C86695   2.813   6.731   2.813  0.1124  0.3246 -0.0456
  643MOL0     C86696   2.761   6.850   2.764 -0.1756 -0.9235  0.8207
  643MOL0     C86697   2.626   6.883   2.764  0.7372  0.0131 -0.0076
  643MOL0     C86698   2.582   7.008   2.691 -0.7085 -0.7657  0.3126
  643MOL0     C86699   2.528   6.798   2.829  0.0642 -0.1234 -0.4142
  643MOL0     C86700   2.385   6.832   2.834  0.4301  0.4612 -0.0946
  643MOL0     O86701   2.340   6.956   2.818 -0.0841  0.4398 -0.3837
  643MOL0     C86702   2.206   6.985   2.824  0.3787  0.5519 -0.0631
  643MOL0     C86703   2.118   7.029   2.724  0.1445  0.5511  0.5946
  643MOL0     C86704   1.976   7.044   2.746  0.4513  0.0181 -0.2004
  643MOL0     C86705   1.928   7.009   2.871 -0.2638 -0.6717 -0.0448
  643MOL0     O86706   1.794   6.999   2.903  0.2029  0.0381  0.3513
  643MOL0     C86707   1.693   7.003   2.801  0.5382  0.1927 -0.2677
  643MOL0     C86708   1.563   6.922   2.833  0.0453 -0.5206  0.0222
  643MOL0     C86709   1.478   6.908   2.713 -0.3950  0.0774  0.7451
  643MOL0     C86710   1.358   6.820   2.736 -0.0484 -0.2008  0.9686
  643MOL0     C86711   1.289   6.789   2.602 -1.3157  0.2981 -0.6041
  643MOL0     C86712   1.206   6.909   2.541 -0.3865  0.6361  0.4846
  643MOL0     C86713   1.062   6.909   2.581  0.2197  0.1925 -0.2684
  643MOL0     C86714   0.987   7.005   2.500  0.4165 -0.1916  0.0806
  643MOL0    Cl86715   0.959   6.935   2.341 -0.3398 -0.4328  0.0557
  643MOL0     C86716   2.006   6.960   2.969  0.3438 -0.6365 -0.4076
  643MOL0     C86717   2.146   6.951   2.948  0.0667  0.2393 -1.2818
  643MOL0     O86718   2.311   6.737   2.857 -0.2957 -0.2884 -0.1523
  643MOL0     C86719   2.581   6.678   2.883 -0.5824  0.1420 -0.0284
  643MOL0     C86720   2.718   6.644   2.869  0.3780 -0.2146 -0.5228
  643MOL0     N86721   3.328   6.292   2.381 -0.2617  0.6630  0.2405
  643MOL0     N86722   3.449   6.321   2.344 -1.3281  0.3942 -0.5542
  643MOL0     C86723   4.592   6.803   2.200 -0.3590  0.5027  0.3870
  643MOL0     C86724   4.726   6.837   2.198  0.4063  1.0449 -0.1120
  643MOL0     C86725   5.150   6.962   2.031  0.4534 -0.3415  0.3419
  643MOL0     C86726   5.180   6.961   2.170  0.1676 -0.1278 -0.3095
  643MOL0     C86727   5.308   6.978   2.225  0.6915  0.3906  0.3303
  643MOL0     C86728   5.418   6.988   2.137 -0.3067 -0.2811  0.6439
  643MOL0     O86729   5.553   6.985   2.167 -0.5812 -0.4259  0.1847
  643MOL0     C86730   5.596   6.959   2.303 -1.1999 -0.6402 -0.6502
  643MOL0     C86731   5.743   6.925   2.304  0.7880  0.2650 -0.1796
  643MOL0     C86732   5.806   6.934   2.440  0.0035  0.3679  0.2560
  643MOL0     C86733   5.957   6.947   2.422  0.7641  0.5986  0.0138
  643MOL0     C86734   5.984   7.080   2.364  0.3393 -0.8359 -0.0138
  643MOL0     C86735   6.000   7.169   2.275  0.0050 -0.4444 -0.0440
  643MOL0     C86736   5.390   6.987   2.002  0.4895  0.5400 -0.5967
  643MOL0     C86737   5.262   6.989   1.949 -0.0953  0.0997  0.1221
  643MOL0     H86738   4.756   6.894   1.857  2.0266  1.5870  0.7150
  643MOL0     H86739   4.521   6.843   1.869  2.0796  1.5954 -0.5220
  643MOL0     H86740   4.387   6.550   2.135 -0.6845 -0.6441 -1.2342
  643MOL0     H86741   4.367   6.664   2.277 -1.8067  2.8979  0.3898
  643MOL0     H86742   4.153   6.720   2.223 -0.2646  0.3910 -1.1119
  643MOL0     H86743   4.155   6.676   2.058  0.2582  1.1548 -0.2311
  643MOL0     H86744   4.195   6.433   2.144  0.4876  0.3106  0.7460
  643MOL0     H86745   4.164   6.497   2.306  1.0470  1.0720 -0.3429
  643MOL0     H86746   3.930   6.575   2.242 -0.8845  0.0359 -0.0121
  643MOL0     H86747   3.968   6.515   2.073 -0.4041 -1.9433  0.5588
  643MOL0     H86748   3.802   6.376   2.191 -0.9345 -2.2017  3.1531
  643MOL0     H86749   3.945   6.288   2.170 -2.0715 -0.3714 -2.2164
  643MOL0     H86750   3.972   6.269   2.413  0.7776  0.0968 -0.5808
  643MOL0     H86751   3.918   6.438   2.433 -0.5779  0.6667  0.0878
  643MOL0     H86752   3.717   6.226   2.348  1.5779  0.0229 -0.7648
  643MOL0     H86753   3.765   6.254   2.512  1.0164  0.7884  0.3089
  643MOL0     H86754   3.679   6.493   2.344  0.8824  0.1671 -0.0818
  643MOL0     H86755   3.679   6.491   2.519 -4.7290  0.7710  0.5847
  643MOL0     H86756   3.463   6.435   2.647 -0.5842  1.9818 -1.1193
  643MOL0     H86757   3.168   6.226   2.582  0.2824  0.9156 -3.9198
  643MOL0     H86758   3.239   6.310   2.721 -3.0764  0.4297  0.0782
  643MOL0     H86759   3.006   6.386   2.584 -0.1840  1.2913 -3.1811
  643MOL0     H86760   3.124   6.470   2.500  0.4632 -0.2982  1.2011
  643MOL0     H86761   3.191   6.602   2.681 -2.2937  1.3440 -3.6797
  643MOL0     H86762   3.115   6.488   2.804  0.5030  0.9518  0.7440
  643MOL0     H86763   2.890   6.522   2.705  0.8581 -0.9651  0.8974
  643MOL0     H86764   2.955   6.635   2.590 -0.8790 -0.4270 -0.1046
  643MOL0     H86765   2.834   6.916   2.717 -3.7981  1.0261 -2.6029
  643MOL0     H86766   2.526   6.995   2.599  1.8869 -0.1738 -1.4567
  643MOL0     H86767   2.540   7.085   2.756  0.7603  0.3195  0.0182
  643MOL0     H86768   2.669   7.062   2.653 -0.2576  0.4612  2.8879
  643MOL0     H86769   2.146   7.089   2.639 -3.4454  1.3588 -0.1835
  643MOL0     H86770   1.908   7.074   2.668 -4.5345  0.3976  3.7939
  643MOL0     H86771   1.665   7.106   2.777  1.0245  0.2367 -0.6676
  643MOL0     H86772   1.744   6.953   2.717 -0.8912 -2.6548  0.4263
  643MOL0     H86773   1.591   6.822   2.867  0.7477 -0.0588  0.8676
  643MOL0     H86774   1.498   6.967   2.909  0.6250 -0.2595  0.3737
  643MOL0     H86775   1.533   6.860   2.631  0.0290  0.6096  0.7138
  643MOL0     H86776   1.458   7.007   2.673  0.7569 -0.3209 -0.9672
  643MOL0     H86777   1.384   6.719   2.768 -2.3819 -1.7836 -1.6318
  643MOL0     H86778   1.282   6.868   2.799 -1.8738 -1.1322 -0.4141
  643MOL0     H86779   1.230   6.700   2.622  0.8331 -0.7430  1.6056
  643MOL0     H86780   1.366   6.762   2.529  1.3605  0.7933  1.8381
  643MOL0     H86781   1.250   7.007   2.561 -1.8746  1.4879 -0.2781
  643MOL0     H86782   1.209   6.890   2.433  1.3132 -0.2029  0.6300
  643MOL0     H86783   1.057   6.939   2.686  0.4104 -0.5433 -0.0380
  643MOL0     H86784   1.019   6.809   2.569  2.1523 -0.5601 -1.4326
  643MOL0     H86785   1.031   7.105   2.499 -0.6050  0.2734  0.5607
  643MOL0     H86786   0.889   7.022   2.546  0.7354 -0.5661  0.9083
  643MOL0     H86787   1.949   6.921   3.052  0.3726 -2.5951 -1.2434
  643MOL0     H86788   2.207   6.910   3.028 -2.7029  0.6214  1.1888
  643MOL0     H86789   2.518   6.603   2.930 -3.2988  2.0670 -0.3623
  643MOL0     H86790   2.753   6.549   2.908  2.3658  0.4453 -0.5728
  643MOL0     H86791   4.549   6.781   2.297  1.1290 -0.2067  0.9178
  643MOL0     H86792   4.792   6.836   2.284  0.7329 -2.3090 -0.2930
  643MOL0     H86793   5.105   6.936   2.245  2.9889  0.2426  2.8793
  643MOL0     H86794   5.311   6.979   2.333 -2.3501  0.3654  0.4918
  643MOL0     H86795   5.596   7.045   2.371 -2.1532 -1.9816  1.1465
  643MOL0     H86796   5.530   6.888   2.354 -0.6684  2.2353  4.8954
  643MOL0     H86797   5.786   6.998   2.234  0.2311  0.7274 -0.0460
  643MOL0     H86798   5.764   6.823   2.271  1.8751  0.1260  0.8986
  643MOL0     H86799   5.778   6.846   2.498 -4.0183 -0.6136 -2.6683
  643MOL0     H86800   5.764   7.021   2.492  1.2481  0.7401  0.6692
  643MOL0     H86801   5.998   6.864   2.364  1.8334  1.4751 -0.5397
  643MOL0     H86802   6.003   6.943   2.522 -0.9136  1.4081  0.8563
  643MOL0     H86803   6.009   7.238   2.194 -1.4406  0.9115  0.9034
  643MOL0     H86804   5.476   6.990   1.935  1.6575 -1.5701  0.6964
  643MOL0     H86805   5.259   7.008   1.842  0.6318  3.1245  0.5518
  644MOL0     O86806   4.209   0.667   3.688 -0.0437 -0.4589  0.2109
  644MOL0     C86807   4.152   0.560   3.705  0.1619 -0.7306  0.1274
  644MOL0     O86808   4.020   0.534   3.662 -0.2543  0.2209 -0.5088
  644MOL0     C86809   3.939   0.619   3.589  0.6339  0.2606  0.0452
  644MOL0     C86810   3.822   0.551   3.546  0.7675  0.7833 -0.7840
  644MOL0     C86811   3.732   0.609   3.457  0.5817 -0.7967 -0.0200
  644MOL0     C86812   3.747   0.738   3.409  0.1801  0.0844 -0.7222
  644MOL0     O86813   3.659   0.777   3.312 -0.3969 -0.0595 -0.2015
  644MOL0     C86814   3.619   0.913   3.299  0.1415  0.0407  0.5234
  644MOL0     C86815   3.533   0.926   3.173 -0.5660  0.7690 -0.2285
  644MOL0     C86816   3.495   1.075   3.149 -0.2221  0.2121  0.1314
  644MOL0     C86817   3.409   1.150   3.259 -0.3953  0.8824 -0.5878
  644MOL0     C86818   3.262   1.114   3.237 -0.7667  0.1734 -0.2605
  644MOL0     C86819   3.180   1.203   3.341 -0.1802 -0.5379  0.1511
  644MOL0     C86820   3.032   1.170   3.308 -0.3688 -0.4016 -0.2334
  644MOL0     C86821   2.937   1.264   3.374  0.4965  0.3556 -0.6082
  644MOL0     N86822   2.798   1.212   3.343  0.8567 -0.4243  0.3406
  644MOL0     C86823   2.722   1.138   3.438 -0.1928 -0.6493 -0.6747
  644MOL0     C86824   2.592   1.167   3.399 -0.0901 -0.4241 -0.9767
  644MOL0     C86825   2.469   1.134   3.489 -0.3851 -0.1384 -0.1991
  644MOL0     C86826   2.440   0.993   3.472 -0.2348  0.3018  0.0241
  644MOL0     C86827   2.291   0.978   3.532  0.5581  0.8748 -0.1746
  644MOL0     C86828   2.247   0.837   3.537  0.4188 -0.9414 -0.2738
  644MOL0     O86829   2.269   0.780   3.401  0.4225 -0.1109 -0.0539
  644MOL0     C86830   2.164   0.781   3.314  0.4131  0.4511  0.9140
  644MOL0     C86831   2.044   0.847   3.336 -0.6290  0.0220  0.1084
  644MOL0     C86832   1.945   0.847   3.239 -0.1681  0.1125  0.0437
  644MOL0     C86833   1.814   0.920   3.268  0.8688 -0.4494  0.3696
  644MOL0     C86834   1.962   0.770   3.115 -0.0084  0.5936 -0.5976
  644MOL0     C86835   1.856   0.754   3.019 -0.0822 -0.1512  0.2124
  644MOL0     O86836   1.832   0.629   2.963 -0.0558 -0.0393  0.0026
  644MOL0     C86837   1.730   0.614   2.867 -0.0890 -0.9357 -0.7096
  644MOL0     C86838   1.765   0.590   2.730  0.4495  0.3031  0.2594
  644MOL0     C86839   1.662   0.575   2.639  0.2437 -0.1263 -0.3255
  644MOL0     C86840   1.530   0.585   2.671  0.4335  0.4736  0.0778
  644MOL0     O86841   1.437   0.592   2.572  0.5144 -0.4225  0.3878
  644MOL0     C86842   1.311   0.519   2.585 -0.7968 -0.0699 -0.2509
  644MOL0     C86843   1.199   0.614   2.557  0.6050 -0.4476  0.1932
  644MOL0     C86844   1.055   0.557   2.610 -0.2707 -0.2469 -0.7957
  644MOL0     C86845   1.017   0.430   2.533 -0.1378  0.6304  0.4045
  644MOL0     C86846   0.914   0.341   2.609 -0.2510 -0.6446  0.4248
  644MOL0     C86847   0.780   0.407   2.576  0.1732  0.1146 -0.7886
  644MOL0     C86848   0.670   0.344   2.658 -0.8254  0.1917  0.2859
  644MOL0     C86849   0.527   0.395   2.620 -0.3587 -0.0723 -0.3095
  644MOL0    Cl86850   0.499   0.341   2.459 -0.0882 -0.3872  0.0766
  644MOL0     C86851   1.494   0.609   2.811  0.2215 -0.1302  0.4326
  644MOL0     C86852   1.595   0.615   2.902  0.0788 -0.1988 -0.7552
  644MOL0     O86853   1.785   0.852   2.989  0.0734 -0.6389 -0.1436
  644MOL0     C86854   2.084   0.702   3.094  1.0843 -0.0095  0.7891
  644MOL0     C86855   2.180   0.709   3.197 -0.6107  0.3462  0.2196
  644MOL0     N86856   2.593   1.246   3.284  0.1054  0.0859  0.5372
  644MOL0     N86857   2.715   1.282   3.259 -0.1086 -0.1583  1.0609
  644MOL0     C86858   3.857   0.811   3.457  0.2313  0.1250  0.1607
  644MOL0     C86859   3.951   0.749   3.537  0.5686 -0.6403  0.5563
  644MOL0     C86860   4.235   0.454   3.770 -0.4026  0.4960 -0.6031
  644MOL0     C86861   4.370   0.468   3.772 -0.9864  0.2466  0.6031
  644MOL0     C86862   4.457   0.358   3.790  0.0931 -0.1148 -1.1327
  644MOL0     C86863   4.399   0.239   3.843  0.4563 -0.2085 -0.1532
  644MOL0     O86864   4.488   0.143   3.887 -0.8264  0.1246 -1.1251
  644MOL0     C86865   4.450   0.009   3.888  0.1629 -0.2745 -0.2986
  644MOL0     C86866   4.588  -0.074   3.875  0.8188 -0.3993  0.2679
  644MOL0     C86867   4.671  -0.058   4.001  0.2160  0.0823 -0.5512
  644MOL0     C86868   4.817  -0.104   3.962 -0.3890 -0.2047  0.1150
  644MOL0     C86869   4.906  -0.082   4.079  0.2975  0.1654  0.3238
  644MOL0     C86870   4.983  -0.087   4.174  0.2261  0.8144 -0.1543
  644MOL0     C86871   4.264   0.236   3.876  1.1833 -0.4103  0.5561
  644MOL0     C86872   4.185   0.333   3.813  0.0565  0.3427 -0.0739
  644MOL0     H86873   3.808   0.448   3.578 -2.9836  1.0724 -0.9953
  644MOL0     H86874   3.644   0.558   3.420  1.0127 -1.7115  0.1698
  644MOL0     H86875   3.557   0.940   3.385 -1.3656  1.3457 -0.8856
  644MOL0     H86876   3.708   0.976   3.295  2.2664 -2.7736  0.5345
  644MOL0     H86877   3.596   0.904   3.086 -1.1044 -1.2753 -0.1496
  644MOL0     H86878   3.454   0.851   3.169 -0.2803  0.5192 -2.6082
  644MOL0     H86879   3.585   1.134   3.132 -1.9115  3.4419  1.5674
  644MOL0     H86880   3.440   1.091   3.055  0.2109 -0.3976 -0.2310
  644MOL0     H86881   3.445   1.121   3.358  1.2604  0.3593 -1.3096
  644MOL0     H86882   3.425   1.258   3.251  0.9379  0.9029  1.7221
  644MOL0     H86883   3.244   1.151   3.136  2.4695  1.9726 -0.3095
  644MOL0     H86884   3.241   1.008   3.256  0.7644 -0.4766 -1.9382
  644MOL0     H86885   3.211   1.175   3.442 -0.2763 -0.3463  0.2351
  644MOL0     H86886   3.203   1.308   3.319 -0.3683 -1.0810 -3.1197
  644MOL0     H86887   3.030   1.188   3.200  0.4902 -3.4591 -0.8600
  644MOL0     H86888   3.004   1.066   3.326 -0.3976 -0.6725 -1.7292
  644MOL0     H86889   2.962   1.366   3.346  0.1574  0.4064 -0.7262
  644MOL0     H86890   2.950   1.263   3.483 -0.3074  0.5557 -0.4999
  644MOL0     H86891   2.753   1.091   3.530 -0.4135  1.5962  0.5969
  644MOL0     H86892   2.480   1.160   3.594 -2.2154 -1.5770  0.4002
  644MOL0     H86893   2.394   1.202   3.448 -1.0491  0.0112  1.2192
  644MOL0     H86894   2.509   0.936   3.534 -1.3749 -0.8007  0.3271
  644MOL0     H86895   2.447   0.953   3.371 -0.3700 -1.9678  0.8651
  644MOL0     H86896   2.226   1.033   3.464 -0.9888 -0.2319  0.3461
  644MOL0     H86897   2.281   1.015   3.635  2.1327 -0.9870  0.7097
  644MOL0     H86898   2.143   0.821   3.569  1.0173 -0.7436  1.8836
  644MOL0     H86899   2.312   0.788   3.610  1.1163  0.2103 -0.0978
  644MOL0     H86900   2.020   0.909   3.422  0.0608  1.2231 -0.5330
  644MOL0     H86901   1.787   0.922   3.374 -0.6636 -2.7275  0.0959
  644MOL0     H86902   1.820   1.020   3.224 -2.5131  0.4223  1.6016
  644MOL0     H86903   1.733   0.867   3.216  0.0868  3.0665 -2.3783
  644MOL0     H86904   1.870   0.587   2.701 -0.2033 -1.7286 -2.2418
  644MOL0     H86905   1.692   0.577   2.535 -1.0346 -1.1796 -0.7336
  644MOL0     H86906   1.306   0.435   2.515  1.6886 -2.4710  2.1726
  644MOL0     H86907   1.299   0.468   2.681 -2.6430 -0.3344 -0.5909
  644MOL0     H86908   1.219   0.713   2.600 -4.3510  0.4632  1.0527
  644MOL0     H86909   1.196   0.624   2.448  3.1359 -1.4895 -0.0307
  644MOL0     H86910   0.976   0.632   2.600 -1.5634 -1.6130 -1.2428
  644MOL0     H86911   1.061   0.532   2.716  2.3489  0.8943 -0.6109
  644MOL0     H86912   0.989   0.445   2.429  0.0509  0.1705  0.2837
  644MOL0     H86913   1.107   0.368   2.521 -1.7717 -1.4315 -2.3306
  644MOL0     H86914   0.935   0.345   2.716  1.0265  0.6040  0.1610
  644MOL0     H86915   0.923   0.234   2.592  0.4530 -0.7739  1.5352
  644MOL0     H86916   0.788   0.511   2.610 -1.5101  0.5158 -1.5041
  644MOL0     H86917   0.760   0.393   2.470  0.0370 -0.3348 -0.7048
  644MOL0     H86918   0.689   0.368   2.763 -1.4958 -2.0942  0.9796
  644MOL0     H86919   0.682   0.236   2.657 -0.0620  0.2295  2.2593
  644MOL0     H86920   0.527   0.504   2.630 -0.5377 -0.1981  1.4505
  644MOL0     H86921   0.460   0.356   2.697 -0.3853  0.6965  0.0724
  644MOL0     H86922   1.389   0.609   2.838 -0.3370  0.0219 -1.5632
  644MOL0     H86923   1.562   0.617   3.006  0.3914  0.1849 -0.6603
  644MOL0     H86924   2.103   0.642   3.006  1.2447  1.4727 -0.2217
  644MOL0     H86925   2.274   0.656   3.190  0.7226  2.4470  1.2994
  644MOL0     H86926   3.876   0.912   3.423  0.8798  0.0615  0.3322
  644MOL0     H86927   4.032   0.810   3.575  0.3458 -1.6129  2.7063
  644MOL0     H86928   4.417   0.562   3.744 -2.3667  0.8394  0.2240
  644MOL0     H86929   4.564   0.373   3.795 -0.2000  1.7990  1.8137
  644MOL0     H86930   4.387  -0.008   3.975  0.7744  0.8563  0.3793
  644MOL0     H86931   4.393  -0.016   3.797  1.8130  0.3961 -1.5800
  644MOL0     H86932   4.645  -0.043   3.787  0.1993  0.5831  0.1967
  644MOL0     H86933   4.556  -0.177   3.853 -1.5202  0.1349  0.8932
  644MOL0     H86934   4.635  -0.114   4.088  1.2983  5.1345  3.6702
  644MOL0     H86935   4.673   0.048   4.030 -0.5211  0.0279 -0.2627
  644MOL0     H86936   4.856  -0.047   3.877  1.5864  0.4796  1.4097
  644MOL0     H86937   4.818  -0.209   3.930  1.2717  0.0053 -0.5944
  644MOL0     H86938   5.062  -0.081   4.247  0.4627 -1.6732 -0.1115
  644MOL0     H86939   4.221   0.145   3.916  1.2058 -1.1882 -1.1310
  644MOL0     H86940   4.077   0.322   3.821  0.0814  0.5045  0.6026
  645MOL0     O86941   3.192   5.924   2.883 -0.2392  0.2839  0.1843
  645MOL0     C86942   3.202   5.948   2.759  0.1082  0.1681  0.0748
  645MOL0     O86943   3.097   5.978   2.680  0.7824 -1.1305  1.1975
  645MOL0     C86944   2.999   6.064   2.712  0.0574 -0.3350  0.6051
  645MOL0     C86945   2.903   6.075   2.608 -0.1874 -0.3762  0.9870
  645MOL0     C86946   2.793   6.169   2.630 -0.4086 -0.1572  0.5100
  645MOL0     C86947   2.771   6.225   2.755  0.2703 -0.2606 -0.7715
  645MOL0     O86948   2.655   6.295   2.788 -0.1404 -0.0850 -0.3455
  645MOL0     C86949   2.534   6.235   2.745  0.5858 -0.4938 -0.7631
  645MOL0     C86950   2.421   6.348   2.753 -0.6908  1.0141  0.4986
  645MOL0     C86951   2.278   6.297   2.725 -0.2162 -0.3830 -0.3568
  645MOL0     C86952   2.184   6.412   2.691  0.0192 -0.5645  0.0979
  645MOL0     C86953   2.047   6.362   2.651 -0.6811 -0.2776 -1.1630
  645MOL0     C86954   1.952   6.484   2.623  0.3033 -0.4711  0.3699
  645MOL0     C86955   1.810   6.445   2.571 -0.3824  0.1466 -0.4908
  645MOL0     C86956   1.715   6.576   2.560  0.1194  0.0068  0.5943
  645MOL0     N86957   1.592   6.528   2.490  0.9918  0.3387 -0.9395
  645MOL0     C86958   1.479   6.488   2.560  0.2329 -0.5638 -0.0965
  645MOL0     C86959   1.386   6.466   2.463 -0.1949 -0.0026 -0.0397
  645MOL0     C86960   1.249   6.404   2.485 -0.3810  0.6872 -0.3169
  645MOL0     C86961   1.140   6.460   2.395  0.2344 -0.1642 -0.3969
  645MOL0     C86962   0.997   6.434   2.447 -0.0456  0.4706 -0.5429
  645MOL0     C86963   0.895   6.532   2.379 -0.1789  0.7185  0.8824
  645MOL0     O86964   0.771   6.504   2.438 -0.0904  0.4452  0.0498
  645MOL0     C86965   0.658   6.571   2.383 -1.1948  0.6948 -0.2346
  645MOL0     C86966   0.655   6.701   2.334 -0.5115 -0.3951 -0.3136
  645MOL0     C86967   0.529   6.766   2.286  0.2417 -0.1287  0.6776
  645MOL0     C86968   0.538   6.905   2.220  0.3642 -0.3298 -0.7657
  645MOL0     C86969   0.414   6.689   2.289 -0.4192  0.6961 -1.0254
  645MOL0     C86970   0.284   6.727   2.226 -0.2384 -0.4829  0.3413
  645MOL0     O86971   0.181   6.644   2.262 -0.1756 -0.3575 -0.7116
  645MOL0     C86972   0.068   6.656   2.185  0.4007 -0.2069 -1.2554
  645MOL0     C86973  -0.056   6.684   2.242  0.1073 -0.2354  0.3462
  645MOL0     C86974  -0.181   6.682   2.174 -0.4190  0.3522 -0.6988
  645MOL0     C86975  -0.179   6.654   2.041 -0.0797  0.1452  0.1073
  645MOL0     O86976  -0.290   6.636   1.969  0.8458  0.1005  0.1855
  645MOL0     C86977  -0.418   6.595   2.033 -0.2561 -0.5750 -0.3168
  645MOL0     C86978  -0.544   6.615   1.943  0.0252  0.9153  0.6130
  645MOL0     C86979  -0.670   6.565   2.011  0.0567 -0.4198 -0.1758
  645MOL0     C86980  -0.795   6.639   1.957 -0.5689  0.2662 -0.2649
  645MOL0     C86981  -0.921   6.582   2.012 -0.6304  1.5386  0.2510
  645MOL0     C86982  -1.038   6.669   1.995  0.5504 -0.0253 -0.4847
  645MOL0     C86983  -1.172   6.588   2.009 -0.2412 -0.4573 -0.2200
  645MOL0     C86984  -1.294   6.668   1.989  0.6016  0.0528  0.6654
  645MOL0    Cl86985  -1.445   6.575   2.023 -0.0806 -0.0533 -0.1212
  645MOL0     C86986  -0.050   6.626   1.976 -0.7629 -0.3583  0.2475
  645MOL0     C86987   0.070   6.614   2.052 -1.2167  0.4161  0.9378
  645MOL0     O86988   0.280   6.826   2.153  0.3370 -0.1336  0.5906
  645MOL0     C86989   0.419   6.556   2.342  0.3285  0.2307  0.0092
  645MOL0     C86990   0.539   6.498   2.377 -0.4682 -0.0611  0.1261
  645MOL0     N86991   1.437   6.501   2.342  0.8561 -0.0522  0.0474
  645MOL0     N86992   1.558   6.533   2.361  0.4572  0.0681 -0.5517
  645MOL0     C86993   2.871   6.202   2.855 -0.5475  0.1759 -0.4603
  645MOL0     C86994   2.991   6.138   2.838  0.9050  1.0208  0.6554
  645MOL0     C86995   3.332   5.932   2.698  0.6187  0.0077  0.6483
  645MOL0     C86996   3.449   5.896   2.772 -0.3379 -0.2063  0.6832
  645MOL0     C86997   3.571   5.891   2.716  0.2247 -1.0591  0.2388
  645MOL0     C86998   3.593   5.913   2.578  0.4968  0.2255 -0.6977
  645MOL0     O86999   3.706   5.920   2.508 -0.1314 -0.7199 -0.0393
  645MOL0     C87000   3.828   5.905   2.591 -0.5777  1.1380 -0.5392
  645MOL0     C87001   3.955   5.921   2.501 -0.7919 -0.3688  0.2298
  645MOL0     C87002   4.087   5.944   2.583 -0.1440  0.1831  0.2402
  645MOL0     C87003   4.175   5.817   2.583 -1.2284 -1.3343 -0.4337
  645MOL0     C87004   4.211   5.789   2.439  0.2741  0.5005  0.4502
  645MOL0     C87005   4.258   5.763   2.326 -0.5075  0.7958  0.2989
  645MOL0     C87006   3.480   5.950   2.507  0.0218 -0.5355  0.4667
  645MOL0     C87007   3.350   5.964   2.561 -0.2865 -0.3910 -1.4552
  645MOL0     H87008   2.911   6.032   2.508 -3.1650  1.5453 -0.2207
  645MOL0     H87009   2.725   6.183   2.547  1.5342 -1.6265 -1.4626
  645MOL0     H87010   2.536   6.180   2.651 -0.4953 -2.8694  0.5084
  645MOL0     H87011   2.509   6.161   2.822 -1.6797 -1.2918 -2.1518
  645MOL0     H87012   2.429   6.387   2.855  0.8146  0.3187  0.6758
  645MOL0     H87013   2.455   6.427   2.685 -2.0750  1.3573  0.1707
  645MOL0     H87014   2.282   6.238   2.633  2.2683 -0.3727 -0.3050
  645MOL0     H87015   2.251   6.245   2.818  1.2676  2.3764  1.7718
  645MOL0     H87016   2.180   6.488   2.769  1.2261 -0.9405  0.5428
  645MOL0     H87017   2.227   6.454   2.599  0.7368  0.4471  0.8719
  645MOL0     H87018   2.061   6.289   2.572 -0.9241 -0.9120 -0.6276
  645MOL0     H87019   2.001   6.311   2.736 -0.3582 -2.3938 -2.1967
  645MOL0     H87020   1.926   6.541   2.712 -0.6877 -0.3120 -0.0127
  645MOL0     H87021   2.007   6.551   2.556  0.2553 -0.8085 -0.0150
  645MOL0     H87022   1.819   6.400   2.472  3.8473 -0.2087 -0.1509
  645MOL0     H87023   1.776   6.371   2.644 -1.7762 -2.6053 -3.6495
  645MOL0     H87024   1.760   6.657   2.501 -1.0272  0.5565  0.4393
  645MOL0     H87025   1.694   6.628   2.654 -0.0382  1.0382  0.0042
  645MOL0     H87026   1.464   6.472   2.666 -3.5163  0.4775 -0.3035
  645MOL0     H87027   1.255   6.297   2.459 -1.2631  0.6659 -0.4500
  645MOL0     H87028   1.215   6.412   2.588  1.0552 -1.0524  0.3514
  645MOL0     H87029   1.157   6.411   2.298  1.8738 -2.2681  0.8816
  645MOL0     H87030   1.154   6.568   2.386  1.0453 -0.4126 -3.3475
  645MOL0     H87031   0.996   6.458   2.554  1.3770 -0.0836 -0.3895
  645MOL0     H87032   0.970   6.330   2.429  4.0326 -1.2169  1.9056
  645MOL0     H87033   0.898   6.530   2.269  1.4008  1.3371  0.8826
  645MOL0     H87034   0.936   6.627   2.415 -0.1881  0.2237  2.2334
  645MOL0     H87035   0.746   6.760   2.332  0.8043 -2.3480 -1.0367
  645MOL0     H87036   0.528   6.897   2.112 -0.6942  0.2687 -0.7149
  645MOL0     H87037   0.465   6.977   2.258  1.0326 -0.4558  0.8540
  645MOL0     H87038   0.638   6.941   2.249  1.1215 -1.6044 -1.6841
  645MOL0     H87039  -0.057   6.714   2.346  0.1985 -0.1014  0.3088
  645MOL0     H87040  -0.266   6.692   2.240 -0.9442 -4.1805 -0.3887
  645MOL0     H87041  -0.402   6.489   2.057 -1.8443 -1.3774 -2.5046
  645MOL0     H87042  -0.435   6.653   2.124  1.5107 -1.5921  0.7333
  645MOL0     H87043  -0.544   6.719   1.908  1.1439  0.8835  0.4664
  645MOL0     H87044  -0.526   6.560   1.851 -1.5085  0.6166  0.4720
  645MOL0     H87045  -0.666   6.568   2.121 -1.1642 -0.3333 -0.1250
  645MOL0     H87046  -0.670   6.464   1.969 -1.3676  1.3041 -4.9280
  645MOL0     H87047  -0.772   6.743   1.980  1.6478 -0.3902  0.8239
  645MOL0     H87048  -0.789   6.625   1.849  0.4409 -0.3117 -0.1500
  645MOL0     H87049  -0.901   6.552   2.115  3.3705  1.9608 -0.2566
  645MOL0     H87050  -0.937   6.480   1.974 -0.7239  0.8269  2.0971
  645MOL0     H87051  -1.038   6.754   2.063  2.1733  0.7885 -1.4496
  645MOL0     H87052  -1.033   6.703   1.891 -1.2214  0.8310 -0.3317
  645MOL0     H87053  -1.178   6.550   2.111 -0.0947 -0.6324 -0.2748
  645MOL0     H87054  -1.172   6.505   1.938 -0.4834  0.1632 -0.9640
  645MOL0     H87055  -1.310   6.708   1.889 -0.6942  0.0562  0.8585
  645MOL0     H87056  -1.280   6.743   2.068  0.4085  1.3560 -0.5088
  645MOL0     H87057  -0.051   6.599   1.871 -0.5043  0.0658  0.1328
  645MOL0     H87058   0.160   6.579   2.001 -0.8400  2.6027 -0.0468
  645MOL0     H87059   0.332   6.492   2.341  1.6192 -1.6087 -0.4295
  645MOL0     H87060   0.549   6.396   2.413  1.4903  0.3264  0.8441
  645MOL0     H87061   2.840   6.237   2.953 -1.2029 -2.1120  0.2023
  645MOL0     H87062   3.057   6.120   2.923  0.8966 -0.8587  0.2976
  645MOL0     H87063   3.447   5.886   2.880 -2.3186  1.1033  0.7994
  645MOL0     H87064   3.653   5.873   2.786 -0.2612  1.7930  1.7173
  645MOL0     H87065   3.833   5.978   2.673 -1.2143  0.6263 -0.0358
  645MOL0     H87066   3.833   5.805   2.634  0.0929  0.4102 -2.2377
  645MOL0     H87067   3.940   6.012   2.441  2.6682 -0.4956 -1.0393
  645MOL0     H87068   3.967   5.839   2.430  1.0893  1.1635 -1.3384
  645MOL0     H87069   4.045   5.976   2.679 -0.9909  0.9688 -0.3650
  645MOL0     H87070   4.143   6.026   2.538 -1.9689  2.1758  1.3878
  645MOL0     H87071   4.121   5.730   2.624  1.9112 -2.3300  1.9520
  645MOL0     H87072   4.257   5.836   2.653  0.3698 -1.4098 -2.2260
  645MOL0     H87073   4.314   5.722   2.244 -1.2647  1.7953 -0.7531
  645MOL0     H87074   3.489   5.972   2.401 -0.5890 -1.8810  0.1197
  645MOL0     H87075   3.268   6.002   2.501 -1.5789  0.7438  0.8555
  646MOL0     O87076   6.822  10.033   9.199  0.2284  0.1119 -0.5561
  646MOL0     C87077   6.868  10.145   9.214  0.5827  0.7995  0.2497
  646MOL0     O87078   6.805  10.250   9.268  1.0383 -0.0790  0.6273
  646MOL0     C87079   6.686  10.226   9.340  0.2528 -1.1044 -0.4954
  646MOL0     C87080   6.692  10.192   9.473  0.2232 -0.6988 -0.0778
  646MOL0     C87081   6.575  10.206   9.553 -0.1849 -0.7997 -0.0759
  646MOL0     C87082   6.455  10.243   9.497 -0.2695 -0.7324 -0.1690
  646MOL0     O87083   6.352  10.247   9.579  0.0460 -0.5307 -0.7928
  646MOL0     C87084   6.244  10.340   9.550  0.0353  0.1639  0.6114
  646MOL0     C87085   6.122  10.257   9.504  0.2241  0.1603  0.1289
  646MOL0     C87086   6.009  10.351   9.500  0.8948 -0.8479  0.0687
  646MOL0     C87087   6.000  10.431   9.372 -0.7691 -0.1991 -0.0419
  646MOL0     C87088   5.866  10.504   9.366  0.0521 -0.8364 -0.1512
  646MOL0     C87089   5.860  10.594   9.236  0.2982 -0.6314 -0.1397
  646MOL0     C87090   5.723  10.656   9.209 -0.2606 -0.0119 -0.4523
  646MOL0     C87091   5.665  10.713   9.336  0.3318 -0.6307 -1.2737
  646MOL0     N87092   5.543  10.787   9.305 -0.7162  0.1241 -0.5719
  646MOL0     C87093   5.547  10.914   9.260  0.6750 -0.3338  0.9488
  646MOL0     C87094   5.417  10.949   9.266  0.9669  0.4846  0.0909
  646MOL0     C87095   5.351  11.072   9.230  0.3007 -0.6342 -0.3460
  646MOL0     C87096   5.331  11.180   9.338  0.6501  0.5445 -0.6020
  646MOL0     C87097   5.188  11.229   9.349  0.6147 -0.6261 -0.3861
  646MOL0     C87098   5.115  11.140   9.445 -0.2526  0.2662  0.4000
  646MOL0     O87099   4.981  11.197   9.453 -0.1119 -0.1916 -0.2945
  646MOL0     C87100   4.888  11.164   9.553 -0.6629  0.6261  0.7453
  646MOL0     C87101   4.912  11.068   9.655 -0.2551  0.5876  0.3640
  646MOL0     C87102   4.809  11.017   9.738  0.0648 -0.6946  0.6700
  646MOL0     C87103   4.838  10.900   9.831  0.1281 -0.0392 -0.0745
  646MOL0     C87104   4.680  11.071   9.714 -0.1179 -0.2219 -0.6058
  646MOL0     C87105   4.553  11.021   9.774 -0.3601  0.0534 -0.4318
  646MOL0     O87106   4.450  11.115   9.794 -0.1941  0.2038 -0.1142
  646MOL0     C87107   4.321  11.098   9.827  0.0970 -0.2881  0.0332
  646MOL0     C87108   4.266  10.972   9.867  0.3382  0.1086  0.4038
  646MOL0     C87109   4.130  10.958   9.897  0.2050 -0.1087  0.1697
  646MOL0     C87110   4.049  11.077   9.889 -0.3167 -0.4703 -0.3289
  646MOL0     O87111   3.915  11.080   9.927  0.1337 -0.3076  0.1997
  646MOL0     C87112   3.859  10.948   9.956 -0.4656 -0.8918 -0.0611
  646MOL0     C87113   3.708  10.974   9.980  0.1639 -0.5754  0.6704
  646MOL0     C87114   3.621  10.856   9.978  0.2325  1.0011 -0.1484
  646MOL0     C87115   3.474  10.881  10.018 -1.0073 -0.5897  0.7319
  646MOL0     C87116   3.393  10.965   9.906  0.4321  0.1497 -0.4986
  646MOL0     C87117   3.319  11.078   9.982 -0.2903  0.0137 -0.3467
  646MOL0     C87118   3.190  11.033  10.058  0.1638 -0.1952  0.5979
  646MOL0     C87119   3.108  11.150  10.118 -0.3137 -0.6777 -0.4394
  646MOL0    Cl87120   3.176  11.211  10.278 -0.3974  0.5487 -0.5147
  646MOL0     C87121   4.108  11.199   9.852 -0.7415 -0.2533  0.2439
  646MOL0     C87122   4.237  11.210   9.823  0.3390 -0.0991  0.2025
  646MOL0     O87123   4.536  10.895   9.780 -0.6020 -0.0138 -0.3096
  646MOL0     C87124   4.663  11.179   9.618 -0.5009  0.1950  0.2763
  646MOL0     C87125   4.770  11.229   9.548  0.3865 -0.0548  0.2931
  646MOL0     N87126   5.342  10.843   9.305  0.0856  0.0432  0.2724
  646MOL0     N87127   5.419  10.741   9.330  0.0589 -0.8037  0.2222
  646MOL0     C87128   6.448  10.265   9.361  0.8451  0.0144 -0.3483
  646MOL0     C87129   6.564  10.252   9.284 -0.3445  0.1654 -0.0846
  646MOL0     C87130   7.009  10.175   9.185  0.0045  1.4729  0.6051
  646MOL0     C87131   7.072  10.301   9.145  0.1267 -0.0247  0.3031
  646MOL0     C87132   7.209  10.303   9.108 -0.0687 -0.2750 -0.5230
  646MOL0     C87133   7.292  10.192   9.123  0.2842  0.4785 -0.1686
  646MOL0     O87134   7.428  10.194   9.100  0.1504 -0.3646  0.0439
  646MOL0     C87135   7.494  10.274   9.002  0.0311 -1.2756  0.2804
  646MOL0     C87136   7.629  10.220   8.971  0.3679  0.1765 -0.1148
  646MOL0     C87137   7.705  10.304   8.864  0.3511 -0.4368 -0.3147
  646MOL0     C87138   7.860  10.282   8.860  0.3336  0.5287 -0.6124
  646MOL0     C87139   7.935  10.322   8.740 -0.6625 -0.4914 -0.5792
  646MOL0     C87140   7.999  10.356   8.642  0.5540  1.0192  0.4986
  646MOL0     C87141   7.236  10.077   9.163  0.7172  0.1679  1.5320
  646MOL0     C87142   7.098  10.068   9.200 -0.3044 -0.2586 -0.3068
  646MOL0     H87143   6.791  10.166   9.510  0.5216  1.3498  0.7107
  646MOL0     H87144   6.572  10.191   9.660  2.2949 -2.4214 -0.1656
  646MOL0     H87145   6.215  10.390   9.643 -1.4660 -0.9513  0.7889
  646MOL0     H87146   6.268  10.425   9.486 -2.7511  2.1272  1.9220
  646MOL0     H87147   6.138  10.214   9.405  1.6789 -1.1390  0.9040
  646MOL0     H87148   6.120  10.163   9.560 -0.3596 -1.8592 -3.0182
  646MOL0     H87149   5.912  10.300   9.508 -0.1993  1.0487 -0.3895
  646MOL0     H87150   6.008  10.425   9.580 -0.3899  0.2861 -0.9508
  646MOL0     H87151   6.086  10.498   9.367 -0.7640 -0.1805  0.2771
  646MOL0     H87152   6.013  10.368   9.284 -0.8148  0.0123 -0.2020
  646MOL0     H87153   5.780  10.437   9.367 -0.3083 -0.3801  1.6006
  646MOL0     H87154   5.845  10.565   9.454 -2.1167 -2.6227  0.6639
  646MOL0     H87155   5.948  10.659   9.239  1.5508 -2.2780  0.8820
  646MOL0     H87156   5.863  10.535   9.144 -1.5393 -1.2572  0.1709
  646MOL0     H87157   5.736  10.735   9.135  4.7977 -0.5176 -0.4445
  646MOL0     H87158   5.652  10.580   9.176 -1.6430  0.8481  0.4343
  646MOL0     H87159   5.737  10.777   9.387  0.0539  0.7800 -2.6054
  646MOL0     H87160   5.635  10.634   9.406  1.0521  0.5461  0.4201
  646MOL0     H87161   5.630  10.979   9.236 -0.3718  0.0890 -1.8655
  646MOL0     H87162   5.402  11.121   9.147  2.0524 -0.8985  0.5263
  646MOL0     H87163   5.251  11.060   9.188 -0.3891 -1.6039  1.4720
  646MOL0     H87164   5.391  11.267   9.306 -0.4639  1.1315 -1.1444
  646MOL0     H87165   5.359  11.149   9.439 -0.4014  1.7519  0.1003
  646MOL0     H87166   5.134  11.230   9.255  2.1269 -2.1926 -1.3330
  646MOL0     H87167   5.196  11.327   9.397 -0.4957 -1.8417  2.5490
  646MOL0     H87168   5.162  11.133   9.543 -1.7721 -2.9199  1.0144
  646MOL0     H87169   5.117  11.039   9.403 -1.5446 -1.0521  3.2808
  646MOL0     H87170   5.008  11.017   9.662  0.1406  1.2594 -0.0911
  646MOL0     H87171   4.945  10.887   9.850 -0.1957 -2.7448  0.2113
  646MOL0     H87172   4.793  10.915   9.930 -2.3420 -3.0497 -0.5801
  646MOL0     H87173   4.789  10.806   9.805 -1.1337  0.6968 -0.4506
  646MOL0     H87174   4.329  10.887   9.887  1.9115  1.6420  2.3107
  646MOL0     H87175   4.093  10.863   9.932  2.2480 -0.7998  0.5586
  646MOL0     H87176   3.879  10.886   9.868 -2.2829  0.1131 -1.2611
  646MOL0     H87177   3.912  10.904  10.040  1.5764  0.9185 -0.3035
  646MOL0     H87178   3.705  11.031  10.073  3.2357  2.0239 -0.6464
  646MOL0     H87179   3.663  11.050   9.917 -4.3809 -0.8665  3.1751
  646MOL0     H87180   3.665  10.779  10.043  1.0347 -1.3866 -3.3032
  646MOL0     H87181   3.623  10.815   9.877  0.3688  2.9111 -0.9580
  646MOL0     H87182   3.426  10.783  10.020 -3.0914  0.3195 -0.8311
  646MOL0     H87183   3.478  10.929  10.117 -0.3016  1.0001 -0.0205
  646MOL0     H87184   3.315  10.896   9.871 -1.5086  2.2316 -0.4813
  646MOL0     H87185   3.449  11.002   9.819 -1.0220 -0.1782 -1.6235
  646MOL0     H87186   3.391  11.124  10.050 -1.9621 -1.2145  2.3926
  646MOL0     H87187   3.290  11.161   9.916 -0.9422 -0.0375 -0.1346
  646MOL0     H87188   3.221  10.959  10.132  1.1800 -0.6304 -0.2342
  646MOL0     H87189   3.127  10.979   9.986  0.8680 -1.3397  0.8088
  646MOL0     H87190   3.005  11.115  10.128  0.3015 -2.5902 -0.3365
  646MOL0     H87191   3.113  11.241  10.058  3.0795 -1.9530 -2.3845
  646MOL0     H87192   4.040  11.284   9.851 -0.6082 -0.1028  1.7642
  646MOL0     H87193   4.285  11.305   9.802  0.5668 -0.8478 -3.4136
  646MOL0     H87194   4.564  11.209   9.586  0.1782  1.8114 -0.4077
  646MOL0     H87195   4.750  11.307   9.475 -3.3028  1.4403  2.6423
  646MOL0     H87196   6.358  10.300   9.313 -0.0088  0.0169  1.2009
  646MOL0     H87197   6.560  10.263   9.176 -1.6766 -1.9697 -0.3255
  646MOL0     H87198   7.011  10.391   9.139  2.0606  1.4293  1.4686
  646MOL0     H87199   7.252  10.395   9.070  0.0924  0.5034  1.4278
  646MOL0     H87200   7.440  10.273   8.907 -0.9641  3.6743  0.5253
  646MOL0     H87201   7.502  10.378   9.035 -1.4776 -0.8057 -0.7896
  646MOL0     H87202   7.619  10.115   8.944  0.3950 -0.3945  1.9316
  646MOL0     H87203   7.689  10.223   9.062 -1.4569 -2.2438  1.2539
  646MOL0     H87204   7.672  10.407   8.880 -0.0164 -0.8365  1.7867
  646MOL0     H87205   7.666  10.274   8.766 -0.8554 -5.4468  1.3902
  646MOL0     H87206   7.877  10.175   8.875  0.8655  0.3763 -2.1236
  646MOL0     H87207   7.899  10.342   8.943 -0.5619  0.1864  0.0737
  646MOL0     H87208   8.059  10.383   8.557  1.8893  0.8176  1.3517
  646MOL0     H87209   7.301   9.992   9.180  1.0599 -0.1778 -1.0912
  646MOL0     H87210   7.072   9.973   9.245 -0.2504 -0.8132 -1.4046
  647MOL0     O87211   7.360   6.622  10.833  0.6350  0.0769  0.5066
  647MOL0     C87212   7.403   6.729  10.793  0.6808 -0.2421 -0.2582
  647MOL0     O87213   7.332   6.847  10.790  0.1358 -0.1950  0.8145
  647MOL0     C87214   7.200   6.833  10.799 -0.3473 -0.4070  0.2312
  647MOL0     C87215   7.123   6.843  10.682 -0.0552 -0.1691 -0.6241
  647MOL0     C87216   6.984   6.828  10.692  0.1023  0.2777 -0.1126
  647MOL0     C87217   6.919   6.782  10.804 -0.7513  0.8672  0.5014
  647MOL0     O87218   6.788   6.772  10.787  0.1113  0.2307  0.3598
  647MOL0     C87219   6.708   6.717  10.889  0.5361 -0.2227 -0.3883
  647MOL0     C87220   6.563   6.749  10.855 -0.2945  0.7230 -0.7796
  647MOL0     C87221   6.515   6.697  10.718 -0.8037 -0.3469  0.0289
  647MOL0     C87222   6.363   6.671  10.717  0.0520  0.0548  0.2884
  647MOL0     C87223   6.301   6.602  10.589  0.3104  0.1776  0.1364
  647MOL0     C87224   6.148   6.589  10.590 -0.9530 -0.3984 -0.1888
  647MOL0     C87225   6.081   6.517  10.479  0.5677  0.0167 -0.0878
  647MOL0     C87226   5.922   6.517  10.487  0.9833 -0.1792  0.5608
  647MOL0     N87227   5.858   6.651  10.476 -0.3373 -0.4236  0.4894
  647MOL0     C87228   5.756   6.713  10.548  1.6783  0.4494 -0.8593
  647MOL0     C87229   5.727   6.831  10.495  1.0287  0.1472  0.6589
  647MOL0     C87230   5.638   6.937  10.559 -0.0932 -0.1318 -0.3272
  647MOL0     C87231   5.492   6.933  10.535  0.5402  0.0879 -0.6889
  647MOL0     C87232   5.472   6.966  10.390 -1.3091  0.2715  0.2447
  647MOL0     C87233   5.452   7.121  10.376  0.5197 -1.0551  0.5827
  647MOL0     O87234   5.340   7.195  10.434  0.0444  0.4284  0.9293
  647MOL0     C87235   5.210   7.187  10.371 -0.1681  0.1303 -0.7367
  647MOL0     C87236   5.181   7.114  10.251 -0.5360 -0.5885 -0.4087
  647MOL0     C87237   5.052   7.109  10.197  0.2340 -0.6577  0.4967
  647MOL0     C87238   5.045   7.024  10.071 -0.2577 -0.5019  0.4263
  647MOL0     C87239   4.946   7.189  10.253 -0.5992 -0.8559 -0.0933
  647MOL0     C87240   4.810   7.208  10.195  0.3796 -0.1842 -0.2982
  647MOL0     O87241   4.729   7.303  10.266 -0.1654  0.0443  0.4102
  647MOL0     C87242   4.605   7.325  10.219 -0.2054  0.0220  0.6235
  647MOL0     C87243   4.559   7.331  10.088  0.0216  0.0938  0.1367
  647MOL0     C87244   4.423   7.352  10.055 -0.0041 -0.5690 -0.4302
  647MOL0     C87245   4.323   7.350  10.151  0.1916 -0.6569  0.6931
  647MOL0     O87246   4.198   7.372  10.104  0.3688  0.1145 -0.5520
  647MOL0     C87247   4.151   7.276  10.014  0.2420  0.0334  0.5917
  647MOL0     C87248   4.001   7.279  10.016 -0.6491  0.5693  0.2455
  647MOL0     C87249   3.941   7.148   9.964 -0.2205  0.5584  0.1662
  647MOL0     C87250   3.786   7.176   9.952  0.2288  0.3446  0.6194
  647MOL0     C87251   3.705   7.042   9.941  0.2018  0.2540  0.7231
  647MOL0     C87252   3.545   7.043   9.937 -0.3318 -0.8215  0.1169
  647MOL0     C87253   3.496   6.904   9.862  0.0401 -0.8502  0.0355
  647MOL0     C87254   3.346   6.888   9.847 -1.4722 -0.3584 -0.3243
  647MOL0    Cl87255   3.312   6.722   9.781  0.3909 -0.3871  0.2188
  647MOL0     C87256   4.367   7.365  10.284  0.2807  0.2454 -0.3159
  647MOL0     C87257   4.498   7.348  10.312 -0.0373  0.0196 -0.5556
  647MOL0     O87258   4.774   7.139  10.101  0.1700 -0.0289  0.0906
  647MOL0     C87259   4.973   7.265  10.369 -0.5070  0.7371  0.9510
  647MOL0     C87260   5.102   7.260  10.422  0.2792  0.2238  0.7621
  647MOL0     N87261   5.796   6.840  10.370  0.1266 -0.1663 -0.4275
  647MOL0     N87262   5.876   6.735  10.366  1.0877  0.1621  0.8021
  647MOL0     C87263   6.993   6.756  10.915 -0.0956  0.2454 -0.1221
  647MOL0     C87264   7.126   6.786  10.917  0.6776 -0.3679  1.0830
  647MOL0     C87265   7.546   6.735  10.785  0.4608  0.3576  0.7380
  647MOL0     C87266   7.627   6.649  10.856  0.0142 -0.5158  0.1835
  647MOL0     C87267   7.765   6.666  10.853  0.6385  0.4302 -0.2156
  647MOL0     C87268   7.830   6.762  10.776 -0.4849 -0.0905  0.1458
  647MOL0     O87269   7.961   6.782  10.765 -0.3832 -0.5460 -0.4891
  647MOL0     C87270   8.054   6.725  10.865  0.1141 -0.5071 -0.1867
  647MOL0     C87271   8.112   6.585  10.826  0.6253  0.1454 -0.7794
  647MOL0     C87272   8.240   6.547  10.899  0.0885  0.2109  0.2611
  647MOL0     C87273   8.237   6.419  10.991  0.3403  0.2594  0.0638
  647MOL0     C87274   8.162   6.425  11.113  0.2473 -1.7941 -0.4736
  647MOL0     C87275   8.082   6.417  11.205 -0.6292 -0.6298 -0.5072
  647MOL0     C87276   7.744   6.843  10.702  1.0167 -0.0566 -0.6448
  647MOL0     C87277   7.604   6.832  10.708 -0.1966 -0.4529  0.0758
  647MOL0     H87278   7.173   6.874  10.591  0.6558  1.0330  0.1396
  647MOL0     H87279   6.926   6.851  10.604  0.9170 -3.4982 -1.8672
  647MOL0     H87280   6.715   6.608  10.880 -3.7401 -0.5550 -2.2297
  647MOL0     H87281   6.733   6.763  10.985  0.1940  0.5558 -0.6667
  647MOL0     H87282   6.509   6.706  10.941  0.9270  2.5846  0.9959
  647MOL0     H87283   6.544   6.856  10.859 -1.1856  0.5317  0.6621
  647MOL0     H87284   6.547   6.775  10.648  1.3226 -2.2110 -1.1812
  647MOL0     H87285   6.574   6.609  10.692  1.8613  1.3811 -0.1394
  647MOL0     H87286   6.329   6.609  10.800 -0.7339 -2.8066 -1.9942
  647MOL0     H87287   6.320   6.770  10.733 -1.6815 -0.9651  2.3353
  647MOL0     H87288   6.330   6.663  10.504 -1.6521 -0.5113 -1.1154
  647MOL0     H87289   6.344   6.504  10.567 -0.0265  0.2679 -0.9352
  647MOL0     H87290   6.123   6.544  10.687  0.7022 -1.7390 -0.3533
  647MOL0     H87291   6.112   6.693  10.591 -2.1842 -0.7901  1.3574
  647MOL0     H87292   6.101   6.562  10.382 -0.4491  1.0158  0.1514
  647MOL0     H87293   6.111   6.411  10.483  1.8645  0.3158 -1.2315
  647MOL0     H87294   5.898   6.485  10.589 -2.6583  2.8196  0.8424
  647MOL0     H87295   5.878   6.451  10.412 -0.4857 -1.0368  2.1335
  647MOL0     H87296   5.708   6.677  10.639  0.4391  0.4630 -1.4894
  647MOL0     H87297   5.662   6.944  10.666  2.1070  2.8999 -0.8797
  647MOL0     H87298   5.677   7.035  10.530  0.5966  0.2562  1.7308
  647MOL0     H87299   5.428   6.999  10.595 -0.1796 -2.2366  1.2761
  647MOL0     H87300   5.472   6.827  10.553  0.2329 -0.1011 -2.0765
  647MOL0     H87301   5.382   6.918  10.351 -1.9424  1.1356  0.6000
  647MOL0     H87302   5.556   6.936  10.327 -1.4035  2.4409 -1.0238
  647MOL0     H87303   5.460   7.153  10.272  0.1224  0.6228  1.0449
  647MOL0     H87304   5.545   7.170  10.406 -0.9640  3.8382 -1.8016
  647MOL0     H87305   5.264   7.067  10.200  0.2660  0.5241 -0.1558
  647MOL0     H87306   4.946   6.976  10.067  0.0113 -1.0041 -0.5422
  647MOL0     H87307   5.058   7.093   9.987  0.2004  0.0518  0.9466
  647MOL0     H87308   5.127   6.952  10.066  2.5137  2.5445 -1.1938
  647MOL0     H87309   4.634   7.321  10.010  0.2834 -2.5954  0.6371
  647MOL0     H87310   4.406   7.363   9.948  1.7293 -0.6100 -0.7305
  647MOL0     H87311   4.187   7.309   9.916 -3.8069  0.6308 -0.8880
  647MOL0     H87312   4.185   7.172  10.024 -0.8364 -0.2331  1.9596
  647MOL0     H87313   3.973   7.297  10.121 -0.4156  0.2028  0.3729
  647MOL0     H87314   3.967   7.363   9.955 -0.8046  0.8204  0.6719
  647MOL0     H87315   3.961   7.071  10.038  0.7554  1.7208  1.1580
  647MOL0     H87316   3.989   7.116   9.871 -0.1161  2.9072 -0.6514
  647MOL0     H87317   3.769   7.231  10.045  1.7863  0.0044  1.1407
  647MOL0     H87318   3.766   7.240   9.866 -0.9662 -0.3645  0.3538
  647MOL0     H87319   3.733   6.981  10.028 -0.5775  0.0503  0.8421
  647MOL0     H87320   3.737   6.983   9.855 -2.5639 -0.2218 -0.0937
  647MOL0     H87321   3.518   7.033  10.043  0.9934  0.5168  0.6196
  647MOL0     H87322   3.508   7.135   9.889  2.2453 -0.3635 -1.1432
  647MOL0     H87323   3.533   6.827   9.930  0.5112  1.9975  3.2824
  647MOL0     H87324   3.539   6.891   9.762 -2.7155 -1.1416 -1.2059
  647MOL0     H87325   3.315   6.968   9.779  4.9748  2.3123 -0.8402
  647MOL0     H87326   3.296   6.899   9.944 -1.5365 -0.6468 -0.3238
  647MOL0     H87327   4.288   7.375  10.358 -0.5518  0.5566 -1.2206
  647MOL0     H87328   4.515   7.346  10.420 -0.6215  0.4684 -0.4440
  647MOL0     H87329   4.898   7.327  10.418  1.6880  2.4283  2.4262
  647MOL0     H87330   5.133   7.318  10.508  0.6059 -0.8112  1.3705
  647MOL0     H87331   6.954   6.716  11.008  0.0243 -3.0885 -1.3629
  647MOL0     H87332   7.193   6.785  11.003  2.0598 -0.8684  0.0500
  647MOL0     H87333   7.576   6.573  10.915 -2.2991  0.7360 -0.0923
  647MOL0     H87334   7.830   6.593  10.901  1.7196  1.8390  0.5450
  647MOL0     H87335   8.134   6.799  10.870 -1.5504  1.3957 -0.4938
  647MOL0     H87336   8.000   6.727  10.960  1.6279 -0.2191  0.6914
  647MOL0     H87337   8.136   6.588  10.719  2.2683 -1.0267 -0.4776
  647MOL0     H87338   8.030   6.513  10.835 -0.2402  1.1160 -0.7665
  647MOL0     H87339   8.270   6.631  10.963  1.0286  3.4067 -3.9089
  647MOL0     H87340   8.319   6.532  10.824  0.3622 -0.1627  0.6210
  647MOL0     H87341   8.335   6.381  11.022 -0.2351 -0.5314  0.9781
  647MOL0     H87342   8.201   6.334  10.932  1.7628  0.8157 -1.6865
  647MOL0     H87343   8.010   6.412  11.284  1.2385  3.8540  1.8099
  647MOL0     H87344   7.783   6.918  10.633  1.4348  0.3821  0.0503
  647MOL0     H87345   7.546   6.904  10.651 -0.9477  0.0577  1.4395
  648MOL0     O87346   5.369   8.536   6.451 -0.3971 -0.8120 -0.1273
  648MOL0     C87347   5.439   8.639   6.450  0.2676  0.3557  0.2048
  648MOL0     O87348   5.403   8.768   6.460  0.1789  0.1994 -0.6079
  648MOL0     C87349   5.276   8.794   6.513 -0.5161 -0.2673  0.5456
  648MOL0     C87350   5.266   8.877   6.618 -0.3702  0.1281  0.1284
  648MOL0     C87351   5.150   8.913   6.683  0.9551  0.4197 -0.4016
  648MOL0     C87352   5.024   8.867   6.634 -0.5869  0.4432 -0.1492
  648MOL0     O87353   4.899   8.896   6.684 -0.2345 -0.1092 -0.1163
  648MOL0     C87354   4.883   8.989   6.784  0.3066  0.1072  0.1327
  648MOL0     C87355   4.890   8.942   6.936  0.2991  0.3677  0.3050
  648MOL0     C87356   4.859   9.062   7.033 -0.0094  0.0621 -0.7243
  648MOL0     C87357   4.859   9.011   7.174  0.2026 -0.6065 -0.5236
  648MOL0     C87358   5.007   8.973   7.219 -0.3134 -0.4349 -0.3114
  648MOL0     C87359   4.994   8.887   7.341 -0.0910  1.3657 -0.9378
  648MOL0     C87360   4.958   8.967   7.467 -0.3197  0.6997 -0.0163
  648MOL0     C87361   4.952   8.874   7.599  0.7087 -0.4568  0.1473
  648MOL0     N87362   4.879   8.955   7.692 -0.0300  0.3224 -0.8317
  648MOL0     C87363   4.739   8.946   7.709  0.5465 -0.0943 -0.2571
  648MOL0     C87364   4.711   9.042   7.801 -0.3192 -0.1704  0.0794
  648MOL0     C87365   4.574   9.079   7.856  0.3403 -0.2950 -0.4003
  648MOL0     C87366   4.575   8.991   7.987 -0.1800 -0.3684 -0.3100
  648MOL0     C87367   4.448   8.912   8.013  0.2163 -0.3661  0.0990
  648MOL0     C87368   4.335   9.009   8.034 -0.1084  0.5593  0.3026
  648MOL0     O87369   4.218   8.934   8.068 -0.6765  0.1372  0.1434
  648MOL0     C87370   4.112   9.019   8.112  0.6579  0.3604  0.7984
  648MOL0     C87371   4.002   8.956   8.167  0.2693  0.4387  0.8662
  648MOL0     C87372   3.893   9.024   8.202  1.2686 -0.4080 -0.0756
  648MOL0     C87373   3.773   8.939   8.246  0.5609 -0.2925 -0.0906
  648MOL0     C87374   3.892   9.164   8.198 -0.5307  0.7646  0.1095
  648MOL0     C87375   3.780   9.236   8.245 -0.4048 -0.5028  0.4508
  648MOL0     O87376   3.659   9.218   8.193 -0.0806  0.0563  0.1060
  648MOL0     C87377   3.541   9.248   8.255 -0.0394 -0.3576  0.3838
  648MOL0     C87378   3.427   9.265   8.172 -1.4644  0.0434  0.2929
  648MOL0     C87379   3.305   9.295   8.230 -0.5535  0.3311  0.8380
  648MOL0     C87380   3.287   9.329   8.366  0.4692 -0.0502  0.0319
  648MOL0     O87381   3.166   9.374   8.415 -0.1773 -0.7055 -0.9904
  648MOL0     C87382   3.048   9.375   8.339  0.2759 -0.1595 -0.1448
  648MOL0     C87383   2.993   9.235   8.324 -0.2009 -0.4274 -0.9182
  648MOL0     C87384   2.870   9.203   8.409  0.4921 -0.5392 -0.2459
  648MOL0     C87385   2.742   9.288   8.366 -1.4252 -0.4576 -0.2710
  648MOL0     C87386   2.628   9.245   8.465  0.4749 -0.1575  0.3145
  648MOL0     C87387   2.499   9.314   8.447 -0.3412 -0.1252  1.3102
  648MOL0     C87388   2.436   9.290   8.313 -0.0483 -0.4949  0.8141
  648MOL0     C87389   2.310   9.377   8.286  0.0322  0.6399  0.5976
  648MOL0    Cl87390   2.165   9.267   8.279  0.3387  0.6017  0.1796
  648MOL0     C87391   3.399   9.319   8.443 -0.8867 -0.5690  0.2001
  648MOL0     C87392   3.521   9.272   8.397  0.7053 -0.3648 -0.0282
  648MOL0     O87393   3.803   9.330   8.321 -0.3060 -0.2064  0.3976
  648MOL0     C87394   4.006   9.231   8.141  0.1280 -0.5643  0.5295
  648MOL0     C87395   4.111   9.160   8.094 -0.2630 -0.8755 -0.4694
  648MOL0     N87396   4.836   9.095   7.831  0.3054 -0.8395 -0.5753
  648MOL0     N87397   4.935   9.057   7.765  0.0598  0.5852  0.0805
  648MOL0     C87398   5.032   8.783   6.527 -0.2127  0.3027  0.6366
  648MOL0     C87399   5.153   8.752   6.466 -0.0177 -0.1565  0.9387
  648MOL0     C87400   5.577   8.625   6.416  1.1621  0.9321 -0.6939
  648MOL0     C87401   5.659   8.715   6.344  0.8485  0.2546 -0.3686
  648MOL0     C87402   5.789   8.696   6.304 -0.2241  0.1474 -0.6646
  648MOL0     C87403   5.852   8.580   6.334  0.1280 -0.0340  0.7332
  648MOL0     O87404   5.978   8.544   6.281 -0.4622  0.2698  0.2392
  648MOL0     C87405   6.066   8.634   6.217 -0.5950 -0.2426 -0.6224
  648MOL0     C87406   6.180   8.555   6.139  0.0342  0.5474 -0.3760
  648MOL0     C87407   6.271   8.653   6.079 -0.7819  0.0324  0.7768
  648MOL0     C87408   6.405   8.592   6.017  0.3196  0.3636 -0.0381
  648MOL0     C87409   6.506   8.580   6.120 -0.8292 -0.7954  0.0395
  648MOL0     C87410   6.601   8.577   6.196 -0.1045 -0.4113 -0.5169
  648MOL0     C87411   5.776   8.481   6.403 -0.3070 -0.2192 -0.0656
  648MOL0     C87412   5.642   8.497   6.443 -0.5795  0.9840  0.1879
  648MOL0     H87413   5.362   8.915   6.652  0.3672 -1.6111  0.1467
  648MOL0     H87414   5.147   8.967   6.777 -3.4161  2.9998 -1.7046
  648MOL0     H87415   4.951   9.073   6.769 -0.0502  0.6774  1.5510
  648MOL0     H87416   4.785   9.036   6.775 -0.3220 -0.8718  1.4626
  648MOL0     H87417   4.811   8.866   6.939  0.3353  0.1571 -1.8729
  648MOL0     H87418   4.991   8.900   6.937  0.7324  1.2927 -1.0160
  648MOL0     H87419   4.932   9.143   7.031  1.2549 -1.0419 -1.8355
  648MOL0     H87420   4.764   9.110   7.007  1.2996  1.9981 -2.2180
  648MOL0     H87421   4.831   9.091   7.243  1.7348 -1.9439  1.7883
  648MOL0     H87422   4.782   8.934   7.186 -1.7445  1.4109  0.8597
  648MOL0     H87423   5.055   8.903   7.151 -1.2532  0.1214 -1.5733
  648MOL0     H87424   5.065   9.065   7.230 -0.6795  0.4727 -4.4341
  648MOL0     H87425   4.920   8.808   7.325  0.1540  1.2102 -1.3096
  648MOL0     H87426   5.092   8.839   7.354 -1.6388 -1.8546 -0.1285
  648MOL0     H87427   5.032   9.043   7.491 -0.8159  0.8542  1.0617
  648MOL0     H87428   4.854   8.999   7.458 -0.2819  0.3920 -2.4086
  648MOL0     H87429   5.051   8.840   7.633  0.6533 -0.4115  0.3562
  648MOL0     H87430   4.892   8.784   7.582  2.7073 -2.1111  1.3797
  648MOL0     H87431   4.665   8.886   7.656  0.5078  0.0066 -0.3159
  648MOL0     H87432   4.565   9.185   7.880 -1.2696 -0.3015 -0.8435
  648MOL0     H87433   4.489   9.050   7.793 -0.0147 -0.5951  0.2145
  648MOL0     H87434   4.603   9.053   8.073 -0.5891 -0.6779  0.0481
  648MOL0     H87435   4.659   8.921   7.978  0.6189  0.0263  2.9287
  648MOL0     H87436   4.468   8.847   8.099  1.4028 -2.7229 -1.8601
  648MOL0     H87437   4.412   8.848   7.932 -3.6516 -1.9677  2.7920
  648MOL0     H87438   4.317   9.057   7.938 -1.5215 -2.3537 -1.0307
  648MOL0     H87439   4.371   9.075   8.113  0.0976  0.2525  0.4700
  648MOL0     H87440   4.006   8.848   8.179 -0.0459  0.2864 -0.2541
  648MOL0     H87441   3.687   8.959   8.182  0.3629 -0.7755  0.0222
  648MOL0     H87442   3.809   8.836   8.237 -1.0343 -1.1661  2.4303
  648MOL0     H87443   3.737   8.961   8.347 -5.4827 -0.5144 -1.8037
  648MOL0     H87444   3.449   9.243   8.068 -0.8652  2.9405 -0.2854
  648MOL0     H87445   3.218   9.293   8.165  0.8153  0.3592 -1.0532
  648MOL0     H87446   2.970   9.442   8.375 -0.0807 -0.1045 -1.0001
  648MOL0     H87447   3.065   9.425   8.243 -1.4409  2.3201  0.7505
  648MOL0     H87448   2.972   9.222   8.218 -4.5802 -0.6805 -0.1811
  648MOL0     H87449   3.064   9.160   8.362 -2.8128 -0.9050  3.8246
  648MOL0     H87450   2.886   9.227   8.515 -1.2578  2.3524 -0.5111
  648MOL0     H87451   2.847   9.097   8.401 -2.8916 -0.0095  0.5844
  648MOL0     H87452   2.762   9.395   8.384  2.8143 -0.9753 -0.8933
  648MOL0     H87453   2.713   9.271   8.262  1.7418  2.6358 -1.8805
  648MOL0     H87454   2.661   9.245   8.569 -0.9496 -0.5432  0.7954
  648MOL0     H87455   2.614   9.138   8.449 -0.1592 -0.0830  0.3507
  648MOL0     H87456   2.434   9.280   8.527 -2.7902  1.8174  0.2816
  648MOL0     H87457   2.498   9.422   8.461  0.1999  0.2136 -0.8466
  648MOL0     H87458   2.411   9.183   8.315 -4.7635  0.3674 -0.3959
  648MOL0     H87459   2.506   9.310   8.231 -0.6547  1.0768  0.6571
  648MOL0     H87460   2.327   9.427   8.191  1.1924  0.3513  0.6380
  648MOL0     H87461   2.292   9.453   8.362 -0.4125  0.3816  0.7559
  648MOL0     H87462   3.388   9.351   8.546 -1.7602  1.6643 -0.5209
  648MOL0     H87463   3.601   9.283   8.470  1.7838 -0.0712 -1.2110
  648MOL0     H87464   4.003   9.340   8.140 -1.6421 -0.5100 -2.9486
  648MOL0     H87465   4.187   9.221   8.046 -2.3571  1.8552 -0.5315
  648MOL0     H87466   4.936   8.748   6.491 -0.9155  0.8976  1.8518
  648MOL0     H87467   5.151   8.696   6.373 -0.7697  0.8438  0.3282
  648MOL0     H87468   5.625   8.813   6.314  1.7405 -0.2674 -3.5072
  648MOL0     H87469   5.840   8.770   6.243  2.2352 -0.0296  1.0331
  648MOL0     H87470   6.005   8.697   6.151 -2.4894  0.2799  1.4792
  648MOL0     H87471   6.117   8.697   6.290 -0.7908  0.0216 -0.7131
  648MOL0     H87472   6.141   8.491   6.059  2.9529  0.5217 -1.8988
  648MOL0     H87473   6.238   8.497   6.212  1.2281  0.5329 -1.3248
  648MOL0     H87474   6.294   8.723   6.160  1.0872 -1.3942  1.5779
  648MOL0     H87475   6.225   8.705   5.995  0.6726 -1.5504 -1.1091
  648MOL0     H87476   6.444   8.649   5.932  1.5285 -3.0301 -1.9282
  648MOL0     H87477   6.379   8.496   5.973 -0.5707 -0.7637  2.7200
  648MOL0     H87478   6.680   8.551   6.263  0.5496  0.3437 -0.9885
  648MOL0     H87479   5.821   8.385   6.427 -0.2002  0.1563  1.2895
  648MOL0     H87480   5.592   8.415   6.493  0.8728 -0.6284 -0.8734
  649MOL0     O87481   6.695   8.240  10.008  0.5372 -0.1694  0.1553
  649MOL0     C87482   6.704   8.122  10.010 -0.4020  0.4500 -0.1772
  649MOL0     O87483   6.605   8.032   9.963  0.4514 -0.7111 -0.0324
  649MOL0     C87484   6.488   8.084   9.912 -0.5065  1.2105  0.5504
  649MOL0     C87485   6.355   8.045   9.950  0.1382  1.1223 -0.1356
  649MOL0     C87486   6.243   8.089   9.880 -0.0005 -0.6152 -0.1548
  649MOL0     C87487   6.243   8.170   9.769  0.6006 -0.2054  0.0569
  649MOL0     O87488   6.138   8.213   9.698 -0.0654  0.0122 -0.7825
  649MOL0     C87489   6.147   8.214   9.553  0.3952  0.1503  0.2928
  649MOL0     C87490   6.016   8.284   9.493 -0.6358 -0.1315 -0.0660
  649MOL0     C87491   5.892   8.199   9.490 -0.0120  0.1331 -0.8675
  649MOL0     C87492   5.861   8.103   9.611  0.0249  0.2921 -0.1860
  649MOL0     C87493   5.734   8.009   9.600  0.2847  0.5690  0.8634
  649MOL0     C87494   5.607   8.099   9.574 -0.1088  0.2940  0.6065
  649MOL0     C87495   5.482   8.008   9.556 -0.7236 -0.3236  0.6919
  649MOL0     C87496   5.359   8.094   9.553 -1.3168  0.1509  0.6325
  649MOL0     N87497   5.245   7.999   9.541 -0.8978 -0.4751 -0.3722
  649MOL0     C87498   5.198   7.920   9.644 -0.0927 -0.3040 -0.6863
  649MOL0     C87499   5.117   7.828   9.582 -0.8523 -0.1967 -0.4926
  649MOL0     C87500   5.045   7.714   9.644  0.2582 -0.4365  0.0646
  649MOL0     C87501   4.897   7.767   9.668  0.0347  0.5061  0.9639
  649MOL0     C87502   4.822   7.789   9.539  0.0102 -0.6243 -0.6716
  649MOL0     C87503   4.703   7.870   9.580 -0.3667 -0.3041  0.1316
  649MOL0     O87504   4.618   7.787   9.658 -0.0159 -0.1944  0.0576
  649MOL0     C87505   4.484   7.822   9.671  1.0661 -0.2956  0.2834
  649MOL0     C87506   4.410   7.741   9.757 -0.3796  0.3137 -0.1447
  649MOL0     C87507   4.272   7.758   9.784  0.1098  0.0954  0.9211
  649MOL0     C87508   4.209   7.658   9.868  0.1661 -0.6305 -0.2718
  649MOL0     C87509   4.204   7.867   9.717 -0.5341  0.4669  0.9938
  649MOL0     C87510   4.062   7.905   9.729  0.2667  0.1471  0.2160
  649MOL0     O87511   4.020   8.035   9.697 -0.2146 -0.1844  0.5210
  649MOL0     C87512   3.894   8.085   9.712 -0.0793 -0.5871 -0.2810
  649MOL0     C87513   3.772   8.017   9.704 -0.4749 -0.3708 -0.1411
  649MOL0     C87514   3.659   8.085   9.729  0.8989  0.0477  0.0997
  649MOL0     C87515   3.657   8.219   9.762 -0.4060  0.4156 -0.1708
  649MOL0     O87516   3.534   8.270   9.789  0.1817 -0.4088  0.2115
  649MOL0     C87517   3.519   8.400   9.734 -0.2384  0.1713  1.0591
  649MOL0     C87518   3.375   8.449   9.725  0.3363 -0.5612 -0.0369
  649MOL0     C87519   3.275   8.354   9.654  0.3542  1.2035  0.7966
  649MOL0     C87520   3.149   8.440   9.628  0.0720 -0.4205 -0.2584
  649MOL0     C87521   3.054   8.379   9.522 -0.1103 -0.2041  0.4959
  649MOL0     C87522   3.072   8.425   9.382  0.6153  1.0741 -0.2525
  649MOL0     C87523   2.947   8.402   9.303  0.5431 -0.2470  1.4699
  649MOL0     C87524   2.948   8.490   9.168  0.4677  0.6594  0.2401
  649MOL0    Cl87525   2.966   8.660   9.216 -0.0855 -0.0334 -0.3445
  649MOL0     C87526   3.779   8.285   9.769 -0.8449 -0.5812 -0.2428
  649MOL0     C87527   3.898   8.218   9.743  0.7582 -0.3321  0.0288
  649MOL0     O87528   3.986   7.828   9.773 -0.4684  0.2486  0.4683
  649MOL0     C87529   4.273   7.950   9.628 -0.2138  1.5188  0.2959
  649MOL0     C87530   4.410   7.925   9.605  0.1040 -0.9245  0.0960
  649MOL0     N87531   5.117   7.856   9.443  0.2322 -0.0016  0.2587
  649MOL0     N87532   5.197   7.952   9.421 -1.1833  0.0409 -0.1146
  649MOL0     C87533   6.374   8.203   9.729  1.2399  0.3768  0.1936
  649MOL0     C87534   6.488   8.161   9.795  0.4302  0.0543 -0.2053
  649MOL0     C87535   6.827   8.059  10.070  0.2709 -0.4332 -0.0462
  649MOL0     C87536   6.950   8.112  10.045 -0.0557  0.7556  0.5054
  649MOL0     C87537   7.061   8.049  10.102  0.6837 -0.4104 -0.3486
  649MOL0     C87538   7.044   7.926  10.169 -1.4740  0.1637 -0.3454
  649MOL0     O87539   7.155   7.851  10.216  0.0195 -0.3455 -0.5630
  649MOL0     C87540   7.278   7.843  10.149 -0.4927 -0.2180  0.2391
  649MOL0     C87541   7.261   7.765  10.020 -0.0360 -0.2843  0.2725
  649MOL0     C87542   7.245   7.614  10.057  0.1544 -0.9407  0.9442
  649MOL0     C87543   7.323   7.513   9.964 -0.0307 -0.5077 -0.4715
  649MOL0     C87544   7.442   7.478  10.035  0.1598 -0.6294  0.5470
  649MOL0     C87545   7.543   7.461  10.101  0.1356 -0.5871  0.2155
  649MOL0     C87546   6.914   7.866  10.184  0.0639 -0.4760 -1.1156
  649MOL0     C87547   6.812   7.942  10.138  0.3631  0.2770 -0.6350
  649MOL0     H87548   6.340   7.986  10.039  1.0092  2.3157  0.8427
  649MOL0     H87549   6.143   8.066   9.915 -0.9663  0.3126 -2.1307
  649MOL0     H87550   6.225   8.271   9.501 -1.0782  0.5173 -1.6340
  649MOL0     H87551   6.152   8.116   9.506 -0.8268 -0.1417  0.7331
  649MOL0     H87552   6.002   8.380   9.544  0.4670 -0.4706  0.9140
  649MOL0     H87553   6.044   8.314   9.391 -0.1475  1.2774  0.4562
  649MOL0     H87554   5.820   8.281   9.479  2.4880  2.7036  0.7363
  649MOL0     H87555   5.892   8.140   9.398 -0.1935  0.8517 -1.3325
  649MOL0     H87556   5.949   8.047   9.643 -0.6334 -0.8320 -0.2847
  649MOL0     H87557   5.851   8.166   9.700  1.9032 -1.7974  1.6364
  649MOL0     H87558   5.755   7.936   9.522  1.0406  1.3956  0.2689
  649MOL0     H87559   5.722   7.963   9.698  0.2228  0.2248  0.6977
  649MOL0     H87560   5.590   8.172   9.654  0.7810  1.4682 -0.2560
  649MOL0     H87561   5.618   8.159   9.484 -0.4808  0.0273  0.3841
  649MOL0     H87562   5.483   7.944   9.468 -2.8555 -0.2001  0.5433
  649MOL0     H87563   5.477   7.935   9.637  1.7347  0.3529  1.5693
  649MOL0     H87564   5.368   8.151   9.460 -0.5306 -4.4966 -2.5065
  649MOL0     H87565   5.365   8.154   9.644  1.8139 -1.2163  1.4737
  649MOL0     H87566   5.225   7.922   9.749 -2.2466 -2.7381  0.0131
  649MOL0     H87567   5.047   7.626   9.578  2.8221 -2.8130  2.9982
  649MOL0     H87568   5.093   7.695   9.740  0.3001 -1.8743 -0.2231
  649MOL0     H87569   4.900   7.861   9.724 -1.6439  1.7112 -0.8430
  649MOL0     H87570   4.844   7.686   9.720 -0.1503 -2.2971 -3.1456
  649MOL0     H87571   4.794   7.690   9.503 -0.2272 -0.6309 -0.4704
  649MOL0     H87572   4.883   7.846   9.469  0.8726 -0.4240  0.2170
  649MOL0     H87573   4.651   7.898   9.487 -1.0222 -0.3943  0.4664
  649MOL0     H87574   4.747   7.951   9.640  0.9694 -1.1407  0.3213
  649MOL0     H87575   4.475   7.660   9.791 -1.5399 -1.2728 -1.4998
  649MOL0     H87576   4.163   7.706   9.954  1.2533 -0.5601  0.2851
  649MOL0     H87577   4.129   7.607   9.813 -1.1901 -0.2745  1.2956
  649MOL0     H87578   4.280   7.581   9.900 -0.2435 -1.4714 -1.3043
  649MOL0     H87579   3.779   7.910   9.691  2.6742 -0.2022 -0.5994
  649MOL0     H87580   3.563   8.035   9.727  1.5314 -1.2020 -0.0197
  649MOL0     H87581   3.570   8.474   9.797  1.2061 -0.5451  0.7690
  649MOL0     H87582   3.556   8.402   9.631  1.0577  0.3994  1.5098
  649MOL0     H87583   3.342   8.465   9.828 -1.9175 -1.7041 -0.5134
  649MOL0     H87584   3.384   8.550   9.684 -0.0059  0.7946  2.9814
  649MOL0     H87585   3.259   8.275   9.728 -0.7652  0.1278 -0.5616
  649MOL0     H87586   3.327   8.313   9.567 -0.8656  1.4647 -0.0614
  649MOL0     H87587   3.101   8.455   9.725  0.9440  0.9449 -0.0239
  649MOL0     H87588   3.174   8.541   9.596  1.5549 -1.4042 -2.4683
  649MOL0     H87589   2.954   8.401   9.559 -0.0029  0.5500  0.3577
  649MOL0     H87590   3.067   8.271   9.513  1.9993  0.1434 -2.3115
  649MOL0     H87591   3.093   8.532   9.386  1.3498  0.9858  4.4001
  649MOL0     H87592   3.152   8.371   9.331  0.9486  1.3614 -0.0440
  649MOL0     H87593   2.854   8.421   9.358  0.4939 -0.8032  1.5855
  649MOL0     H87594   2.937   8.297   9.273 -1.0162 -0.5358  2.8644
  649MOL0     H87595   2.855   8.467   9.116 -0.8839 -0.2023  2.9129
  649MOL0     H87596   3.033   8.463   9.104  0.6508  0.6215  0.4975
  649MOL0     H87597   3.781   8.390   9.797  1.9702 -0.4039 -0.8016
  649MOL0     H87598   3.990   8.274   9.748  0.7480 -0.2023 -1.0781
  649MOL0     H87599   4.219   8.028   9.575 -1.7156  0.3072 -0.0391
  649MOL0     H87600   4.461   7.985   9.531  2.8531 -0.5581  2.1152
  649MOL0     H87601   6.396   8.258   9.638 -1.0690 -1.7401 -1.7848
  649MOL0     H87602   6.583   8.202   9.761 -0.8022  2.7941 -0.6231
  649MOL0     H87603   6.951   8.202   9.985 -1.4258 -0.8997 -2.2292
  649MOL0     H87604   7.162   8.081  10.076  1.1018 -0.6993  0.8708
  649MOL0     H87605   7.315   7.944  10.127 -2.0875 -0.1221 -2.4918
  649MOL0     H87606   7.343   7.796  10.223 -1.8237 -0.5172  1.2503
  649MOL0     H87607   7.350   7.783   9.958  0.2782 -0.2325  0.7261
  649MOL0     H87608   7.173   7.802   9.967  2.2888  0.0551 -3.7604
  649MOL0     H87609   7.140   7.588  10.038 -0.3354 -0.6958  3.0656
  649MOL0     H87610   7.266   7.589  10.161  1.0184 -5.1541 -0.0809
  649MOL0     H87611   7.346   7.556   9.866  1.1853  0.2592  0.1153
  649MOL0     H87612   7.267   7.420   9.955  0.2626 -0.6386 -0.9321
  649MOL0     H87613   7.634   7.458  10.159  1.2653  0.7196 -1.3807
  649MOL0     H87614   6.895   7.787  10.256  1.6731  0.1655  0.0862
  649MOL0     H87615   6.715   7.896  10.155  0.6956  0.2710  1.6158
  650MOL0     O87616   2.649   3.528   1.418 -0.1198  0.2525  0.8627
  650MOL0     C87617   2.719   3.480   1.503 -0.1627  0.4615 -0.6267
  650MOL0     O87618   2.681   3.377   1.584 -0.2003 -0.4086 -0.1333
  650MOL0     C87619   2.553   3.337   1.585 -0.1250 -0.2686 -0.3917
  650MOL0     C87620   2.521   3.202   1.580  0.1972  0.1245  0.2759
  650MOL0     C87621   2.384   3.157   1.604 -0.0598  0.0844  0.1247
  650MOL0     C87622   2.275   3.256   1.618  0.2775  0.2841  0.4480
  650MOL0     O87623   2.139   3.227   1.622 -0.1142 -0.0072  0.6382
  650MOL0     C87624   2.115   3.121   1.710  0.3780 -0.5468  1.0269
  650MOL0     C87625   1.961   3.116   1.709 -0.0074  0.1566 -0.2489
  650MOL0     C87626   1.907   3.062   1.847  0.6792 -0.2305 -0.7074
  650MOL0     C87627   1.758   3.071   1.849  0.3234  0.0754  0.3709
  650MOL0     C87628   1.712   2.988   1.966 -1.0704  0.2038 -0.0672
  650MOL0     C87629   1.560   2.983   2.000  0.7453 -0.8855 -1.0421
  650MOL0     C87630   1.489   2.881   1.903  0.1136  0.1506 -0.3517
  650MOL0     C87631   1.365   2.951   1.849  0.2449 -0.1023  0.0399
  650MOL0     N87632   1.274   2.865   1.777 -0.0709  0.7922  0.3436
  650MOL0     C87633   1.143   2.890   1.758  0.3619  0.9215 -0.9296
  650MOL0     C87634   1.086   2.782   1.708  0.1010 -0.8078  0.1841
  650MOL0     C87635   0.934   2.770   1.680  0.6330 -0.9360  0.2432
  650MOL0     C87636   0.914   2.827   1.534  0.1415  0.5931  0.3686
  650MOL0     C87637   0.775   2.784   1.483 -0.7094  0.2338  0.2778
  650MOL0     C87638   0.655   2.865   1.541  0.8657 -0.1057 -0.1694
  650MOL0     O87639   0.602   2.799   1.659  0.3781  0.7891 -0.6697
  650MOL0     C87640   0.470   2.760   1.648  0.0947  0.0733 -0.0315
  650MOL0     C87641   0.360   2.824   1.706  0.4697  1.0135 -0.4860
  650MOL0     C87642   0.232   2.783   1.688  0.2138 -0.1685  0.3930
  650MOL0     C87643   0.134   2.876   1.754 -0.0911  0.7497 -1.0666
  650MOL0     C87644   0.193   2.675   1.601 -0.9305  0.3663  0.6306
  650MOL0     C87645   0.053   2.642   1.581  0.2704  0.0287  0.9771
  650MOL0     O87646  -0.034   2.747   1.572 -0.1567  0.9152 -0.4173
  650MOL0     C87647  -0.166   2.718   1.593  0.0050 -0.1723 -0.0063
  650MOL0     C87648  -0.256   2.787   1.517 -0.4485  0.4267  0.8027
  650MOL0     C87649  -0.392   2.750   1.527 -0.0743  0.2909  0.8630
  650MOL0     C87650  -0.439   2.648   1.613  0.1712 -0.2537  0.1972
  650MOL0     O87651  -0.567   2.614   1.615  0.5628 -0.3047  0.2218
  650MOL0     C87652  -0.616   2.537   1.724 -0.1436  0.3442 -0.0535
  650MOL0     C87653  -0.760   2.496   1.704 -0.3193  0.1313 -0.0898
  650MOL0     C87654  -0.854   2.603   1.762  0.2164 -0.3922 -0.7406
  650MOL0     C87655  -0.962   2.657   1.667 -0.0299 -0.8783 -0.5026
  650MOL0     C87656  -1.071   2.549   1.633 -0.1777 -0.3017 -0.2412
  650MOL0     C87657  -1.179   2.597   1.534  0.8832 -0.1364  1.1274
  650MOL0     C87658  -1.283   2.698   1.584  0.4498 -0.0243  0.3312
  650MOL0     C87659  -1.404   2.704   1.491 -0.0696  0.5909  0.1221
  650MOL0    Cl87660  -1.495   2.550   1.519 -0.6642  0.1602  0.2818
  650MOL0     C87661  -0.345   2.596   1.707  0.0191 -1.0601  0.4636
  650MOL0     C87662  -0.209   2.636   1.693 -0.0983  0.3701 -0.3745
  650MOL0     O87663   0.028   2.521   1.566  0.4065 -0.9059  0.4017
  650MOL0     C87664   0.304   2.599   1.559  0.3316 -0.5108  0.5191
  650MOL0     C87665   0.444   2.638   1.583  0.4485  0.1885 -0.2210
  650MOL0     N87666   1.179   2.682   1.701  0.3441  0.6078 -0.2125
  650MOL0     N87667   1.293   2.728   1.742 -0.8638  0.5818  0.4342
  650MOL0     C87668   2.315   3.390   1.613 -0.0380 -0.0576 -0.3728
  650MOL0     C87669   2.452   3.430   1.603 -0.2781  0.0776 -0.3370
  650MOL0     C87670   2.856   3.531   1.502  0.2969 -0.6906  0.9363
  650MOL0     C87671   2.904   3.627   1.402 -0.2232  0.1167 -0.2638
  650MOL0     C87672   3.028   3.688   1.429  0.2552  0.0985  0.3458
  650MOL0     C87673   3.108   3.640   1.529  0.7099  0.5186 -0.6817
  650MOL0     O87674   3.234   3.687   1.566  0.0310  0.1104 -0.2698
  650MOL0     C87675   3.295   3.775   1.474  0.0992 -0.4319 -0.1557
  650MOL0     C87676   3.428   3.815   1.530  0.2956 -0.0524 -0.9043
  650MOL0     C87677   3.509   3.882   1.432 -0.4028 -0.5531  0.5838
  650MOL0     C87678   3.656   3.898   1.479  0.5552 -1.1501  0.7608
  650MOL0     C87679   3.725   3.998   1.390  0.3749  0.9031 -0.4561
  650MOL0     C87680   3.798   4.052   1.316 -0.2000 -0.5469 -0.4830
  650MOL0     C87681   3.072   3.534   1.612 -0.7888 -0.0787  0.2336
  650MOL0     C87682   2.941   3.492   1.608  0.2693  0.7235 -0.2842
  650MOL0     H87683   2.596   3.130   1.549  0.5478  1.4114 -2.0325
  650MOL0     H87684   2.359   3.052   1.592 -1.5208  0.2011  1.8853
  650MOL0     H87685   2.158   3.027   1.677 -2.8376 -2.2841  1.3526
  650MOL0     H87686   2.146   3.160   1.807 -1.4182  0.8965  1.0960
  650MOL0     H87687   1.919   3.216   1.692  2.1395  0.5485 -4.6456
  650MOL0     H87688   1.928   3.052   1.627 -0.8389  1.0354 -0.6259
  650MOL0     H87689   1.940   2.958   1.855  1.7597  0.2025  1.0489
  650MOL0     H87690   1.954   3.107   1.935 -2.8861  2.7295 -0.0565
  650MOL0     H87691   1.723   3.174   1.860 -0.9958 -0.4090  0.9329
  650MOL0     H87692   1.709   3.030   1.759  1.0485 -0.9310  0.4253
  650MOL0     H87693   1.748   2.885   1.954 -0.4218  0.6866 -3.0583
  650MOL0     H87694   1.765   3.031   2.052 -2.4570 -0.8207  1.3446
  650MOL0     H87695   1.540   2.956   2.104 -0.6624 -3.6300 -1.9368
  650MOL0     H87696   1.530   3.087   1.987  0.2598 -1.0823 -1.4692
  650MOL0     H87697   1.546   2.857   1.812  1.5264 -3.1150  1.2210
  650MOL0     H87698   1.489   2.782   1.948  0.9369  0.0001 -0.6463
  650MOL0     H87699   1.391   3.046   1.802 -1.5781  0.8813  0.8923
  650MOL0     H87700   1.309   2.981   1.938  0.1169  2.2200 -0.7550
  650MOL0     H87701   1.096   2.986   1.776  1.0090  1.3478 -1.4895
  650MOL0     H87702   0.898   2.667   1.684  0.8201 -0.9677  1.3028
  650MOL0     H87703   0.882   2.833   1.753  0.4394  1.2666 -1.6741
  650MOL0     H87704   0.986   2.779   1.468  1.2919 -0.2426  2.1369
  650MOL0     H87705   0.932   2.934   1.523  1.2974  0.4507  0.7354
  650MOL0     H87706   0.758   2.678   1.505  0.0051  0.2947  1.1541
  650MOL0     H87707   0.782   2.804   1.376  0.4454  2.0384  0.6618
  650MOL0     H87708   0.584   2.868   1.458  3.2557 -1.8770 -2.4711
  650MOL0     H87709   0.692   2.964   1.570 -1.8165  0.8397  0.2940
  650MOL0     H87710   0.381   2.915   1.761 -3.8124  2.9554 -1.6911
  650MOL0     H87711   0.065   2.809   1.807 -1.6000 -0.5238 -4.3091
  650MOL0     H87712   0.179   2.942   1.828  0.6404 -0.1221 -0.7081
  650MOL0     H87713   0.085   2.936   1.677  0.1966 -0.1637 -1.9958
  650MOL0     H87714  -0.222   2.852   1.437 -0.3792 -0.2673  0.2494
  650MOL0     H87715  -0.458   2.808   1.463  2.4546  0.8630 -1.4303
  650MOL0     H87716  -0.558   2.446   1.743 -1.3673 -0.4484  0.0491
  650MOL0     H87717  -0.599   2.599   1.812  3.7763 -0.6259  0.0397
  650MOL0     H87718  -0.769   2.463   1.600  2.4254 -2.3074  0.3065
  650MOL0     H87719  -0.753   2.418   1.781 -0.0865  2.2344  2.1285
  650MOL0     H87720  -0.791   2.688   1.790 -2.0141  0.4333  2.2185
  650MOL0     H87721  -0.902   2.568   1.854  1.5838  0.3699  0.3035
  650MOL0     H87722  -1.009   2.745   1.712 -0.1914 -2.1961  2.1291
  650MOL0     H87723  -0.917   2.694   1.575  3.0402 -1.5835  0.6004
  650MOL0     H87724  -1.113   2.498   1.720  0.2010  0.9366  0.7049
  650MOL0     H87725  -1.012   2.477   1.576 -0.7964 -1.8722  1.0247
  650MOL0     H87726  -1.136   2.647   1.446 -1.7706 -2.0957 -1.4798
  650MOL0     H87727  -1.232   2.508   1.499 -1.3184  1.7117 -0.5978
  650MOL0     H87728  -1.245   2.801   1.581 -0.3966  0.2817 -0.2931
  650MOL0     H87729  -1.318   2.681   1.686 -1.4407  1.7449  0.0501
  650MOL0     H87730  -1.376   2.712   1.385 -3.5117  2.4849 -0.7848
  650MOL0     H87731  -1.468   2.789   1.515  0.7090  1.4319 -0.6896
  650MOL0     H87732  -0.372   2.522   1.782  0.2561 -1.8912 -0.2533
  650MOL0     H87733  -0.137   2.583   1.755 -0.0694  0.5888 -0.2248
  650MOL0     H87734   0.275   2.525   1.485 -2.1039  1.9467 -1.1659
  650MOL0     H87735   0.524   2.585   1.534 -1.8458 -0.5165 -3.5985
  650MOL0     H87736   2.251   3.477   1.626 -0.5589 -0.4404 -0.3186
  650MOL0     H87737   2.480   3.534   1.611 -0.3955  0.1619 -0.9780
  650MOL0     H87738   2.837   3.645   1.319  0.3075 -0.4999 -0.8272
  650MOL0     H87739   3.056   3.768   1.362 -2.0453 -0.2831 -1.1988
  650MOL0     H87740   3.306   3.728   1.376 -0.3398  0.2612 -0.5458
  650MOL0     H87741   3.233   3.864   1.461  0.4403 -0.0542  0.7218
  650MOL0     H87742   3.479   3.727   1.569  2.5449  2.1732  1.5471
  650MOL0     H87743   3.414   3.885   1.612 -0.4170  1.3798 -2.1972
  650MOL0     H87744   3.470   3.984   1.431 -0.6944 -0.6615  0.6952
  650MOL0     H87745   3.513   3.829   1.337 -1.6772 -1.9607  1.2752
  650MOL0     H87746   3.707   3.802   1.471 -1.5700 -2.1908 -3.3704
  650MOL0     H87747   3.654   3.935   1.582 -0.3953 -1.3758  0.8332
  650MOL0     H87748   3.858   4.110   1.248  1.1946 -2.2030 -0.7170
  650MOL0     H87749   3.143   3.496   1.685  0.1159  0.8957 -0.1162
  650MOL0     H87750   2.907   3.409   1.671 -1.8770  1.5259 -0.2993
  651MOL0     O87751   9.552   7.184   4.545  0.0764  0.2724 -0.2292
  651MOL0     C87752   9.618   7.103   4.477  0.8353  0.1149 -0.7105
  651MOL0     O87753   9.561   7.003   4.409 -0.4449 -0.3621 -0.0102
  651MOL0     C87754   9.427   6.996   4.414  0.0776 -0.2546  0.0936
  651MOL0     C87755   9.350   7.071   4.327 -0.6685  0.0608 -0.0511
  651MOL0     C87756   9.211   7.062   4.324  0.2411  0.5827 -0.4200
  651MOL0     C87757   9.149   6.983   4.416  0.3860  0.3382  0.1641
  651MOL0     O87758   9.007   6.996   4.432 -0.4481 -0.8368  0.2078
  651MOL0     C87759   8.948   6.872   4.452  1.2437  0.2157 -0.2440
  651MOL0     C87760   8.802   6.878   4.417 -0.4414 -0.1326 -0.0188
  651MOL0     C87761   8.710   6.971   4.497  1.1611  0.4483 -0.6803
  651MOL0     C87762   8.691   6.935   4.641  0.2068  0.2507 -0.5449
  651MOL0     C87763   8.567   7.000   4.713 -0.5325  0.3442  0.3202
  651MOL0     C87764   8.560   6.948   4.850  0.5164 -0.7240 -0.4305
  651MOL0     C87765   8.438   6.995   4.930 -0.6272  1.1467 -0.2181
  651MOL0     C87766   8.309   6.941   4.870 -0.3242  0.5721 -0.3700
  651MOL0     N87767   8.194   6.997   4.943  0.6677 -0.5177 -0.2258
  651MOL0     C87768   8.115   7.101   4.912  1.1324 -0.0069  0.4007
  651MOL0     C87769   8.008   7.092   4.992 -0.0237  0.3507  0.8824
  651MOL0     C87770   7.888   7.185   4.982 -0.3891  0.4833 -0.0237
  651MOL0     C87771   7.757   7.103   4.980 -0.0219 -0.7420 -0.0628
  651MOL0     C87772   7.713   7.051   5.123 -0.2460  0.2115 -0.0542
  651MOL0     C87773   7.563   7.017   5.144  0.0887  0.2461  0.2873
  651MOL0     O87774   7.473   7.116   5.093 -0.7554  0.2192 -0.4802
  651MOL0     C87775   7.347   7.086   5.072 -0.0780  0.7592 -0.5644
  651MOL0     C87776   7.279   6.973   5.123  0.4361  0.2929  0.4983
  651MOL0     C87777   7.149   6.949   5.088 -0.0467  0.7022 -0.1973
  651MOL0     C87778   7.090   6.819   5.139  0.4999  0.2298  1.1300
  651MOL0     C87779   7.073   7.041   5.020 -0.0639  0.5455 -0.0222
  651MOL0     C87780   6.926   7.025   4.992 -0.3326  0.3681  0.4014
  651MOL0     O87781   6.880   7.103   4.887 -0.0037  0.6870  0.1881
  651MOL0     C87782   6.745   7.110   4.858 -0.8304  0.5311  0.5622
  651MOL0     C87783   6.690   7.031   4.763  0.4955  0.1354 -0.7344
  651MOL0     C87784   6.555   7.042   4.739 -0.8197  0.0884  0.6350
  651MOL0     C87785   6.470   7.134   4.807 -0.8778 -0.5036 -0.5864
  651MOL0     O87786   6.342   7.156   4.770  0.7395  0.1340 -0.8743
  651MOL0     C87787   6.304   7.119   4.631  0.2451 -0.7146 -0.4035
  651MOL0     C87788   6.157   7.174   4.617 -0.6700  1.4956  0.5751
  651MOL0     C87789   6.052   7.076   4.676 -0.1136  0.5147 -0.1053
  651MOL0     C87790   6.002   7.123   4.814  0.0676 -0.2653  0.4326
  651MOL0     C87791   5.890   7.031   4.880  0.1091  0.1937 -0.4520
  651MOL0     C87792   5.836   7.080   5.006  0.5437  0.4834 -0.2489
  651MOL0     C87793   5.725   6.978   5.061 -0.8007 -0.0272  0.3523
  651MOL0     C87794   5.653   7.021   5.191 -0.0127  0.9251 -0.3318
  651MOL0    Cl87795   5.562   6.873   5.248  0.4790 -0.3781 -0.3000
  651MOL0     C87796   6.529   7.212   4.905 -0.8972 -0.6101  0.4065
  651MOL0     C87797   6.668   7.198   4.933  0.1055 -0.2479 -0.9242
  651MOL0     O87798   6.854   6.961   5.062  0.4572 -0.0527  0.5267
  651MOL0     C87799   7.132   7.153   4.977 -0.2685 -0.2247 -0.1145
  651MOL0     C87800   7.267   7.179   5.008  0.3540  0.4587 -0.4930
  651MOL0     N87801   8.019   6.984   5.073 -0.3845  1.1594  0.0586
  651MOL0     N87802   8.133   6.926   5.043  0.1735  0.6860  0.5579
  651MOL0     C87803   9.226   6.900   4.490  0.2335 -0.0296 -0.0360
  651MOL0     C87804   9.361   6.910   4.496 -0.6829  0.8902  0.6317
  651MOL0     C87805   9.764   7.120   4.484  0.6751 -0.6174  0.3404
  651MOL0     C87806   9.850   7.018   4.454 -0.1502 -0.1435  1.4611
  651MOL0     C87807   9.985   7.044   4.413  0.4254  0.9499 -0.2958
  651MOL0     C87808  10.043   7.167   4.437 -0.2300 -0.2860  0.3244
  651MOL0     O87809  10.183   7.175   4.414  0.2795 -0.3384 -0.2349
  651MOL0     C87810  10.261   7.275   4.467  0.6263 -0.4340 -0.0177
  651MOL0     C87811  10.400   7.236   4.460  0.1677  0.2775 -0.9249
  651MOL0     C87812  10.500   7.346   4.520 -0.2074  0.1681 -0.6888
  651MOL0     C87813  10.595   7.394   4.413  0.4054 -0.2018  0.4909
  651MOL0     C87814  10.680   7.508   4.459  0.2356  1.2920  0.4443
  651MOL0     C87815  10.763   7.594   4.486  0.0115  0.4991 -0.3952
  651MOL0     C87816   9.957   7.266   4.493 -1.4586  0.2197  0.0596
  651MOL0     C87817   9.820   7.247   4.510 -0.8421  0.0810 -0.2235
  651MOL0     H87818   9.392   7.140   4.255 -2.2370 -0.1346 -1.2129
  651MOL0     H87819   9.148   7.113   4.251  1.5786  1.1127 -1.2444
  651MOL0     H87820   8.988   6.791   4.391  0.7127 -0.8961  0.8536
  651MOL0     H87821   8.939   6.844   4.558 -1.6260 -1.8025 -0.9085
  651MOL0     H87822   8.795   6.911   4.313  0.9234  2.4543  0.6154
  651MOL0     H87823   8.766   6.776   4.431  0.3167 -0.5768 -1.1717
  651MOL0     H87824   8.765   7.066   4.492  0.5106  0.8458 -0.3908
  651MOL0     H87825   8.609   6.982   4.456  0.2981 -1.0221  0.9480
  651MOL0     H87826   8.691   6.827   4.656 -1.8855  0.3394  0.5942
  651MOL0     H87827   8.776   6.960   4.705  1.4871 -2.9462 -0.7935
  651MOL0     H87828   8.583   7.109   4.714 -0.8411  0.4069 -0.5283
  651MOL0     H87829   8.471   6.985   4.663 -1.0160  4.3341 -0.3150
  651MOL0     H87830   8.563   6.839   4.859 -0.8951 -0.6709  0.9332
  651MOL0     H87831   8.650   6.988   4.899 -2.4819  3.7103  2.0913
  651MOL0     H87832   8.449   6.957   5.032 -0.4013  2.4484  0.2677
  651MOL0     H87833   8.439   7.103   4.914  0.4449  0.7922 -3.2328
  651MOL0     H87834   8.317   6.832   4.885  1.4449  0.4727 -1.7490
  651MOL0     H87835   8.307   6.961   4.763  3.9139 -0.6080 -0.8715
  651MOL0     H87836   8.136   7.178   4.838  1.3427  0.0095  0.4774
  651MOL0     H87837   7.879   7.260   5.062  0.0398 -0.5636  1.0349
  651MOL0     H87838   7.890   7.237   4.885  1.1780  3.7654  1.5849
  651MOL0     H87839   7.760   7.020   4.909 -2.3849  1.1458 -2.5986
  651MOL0     H87840   7.675   7.164   4.940  0.1696 -1.0213 -0.8964
  651MOL0     H87841   7.742   7.116   5.205  1.0708 -1.1056  0.5570
  651MOL0     H87842   7.757   6.951   5.134 -0.1973 -0.3177 -3.5733
  651MOL0     H87843   7.535   6.985   5.245  0.7033 -2.9902 -0.4378
  651MOL0     H87844   7.544   6.924   5.089 -3.3946 -1.0375  3.2519
  651MOL0     H87845   7.329   6.898   5.184 -0.8309 -0.2922  0.8600
  651MOL0     H87846   7.010   6.845   5.208 -1.2629 -0.8128 -0.4465
  651MOL0     H87847   7.055   6.756   5.057  4.5992  1.4459 -1.8899
  651MOL0     H87848   7.167   6.758   5.188  3.2704  2.2539 -0.3905
  651MOL0     H87849   6.759   6.965   4.712  0.5220 -0.9631  0.6560
  651MOL0     H87850   6.519   6.984   4.654 -2.0222  1.6242  0.0328
  651MOL0     H87851   6.371   7.164   4.558 -0.8167 -1.0597 -1.6094
  651MOL0     H87852   6.308   7.010   4.619 -0.1777 -0.9125  0.9570
  651MOL0     H87853   6.156   7.273   4.663  0.5192  1.7783  0.0287
  651MOL0     H87854   6.133   7.181   4.510  0.2505 -0.2766  0.2186
  651MOL0     H87855   6.083   6.972   4.685 -1.0171 -0.1634 -3.4312
  651MOL0     H87856   5.968   7.079   4.605  0.9782 -0.5607 -1.4734
  651MOL0     H87857   6.086   7.126   4.883 -0.1189  0.7422  0.6403
  651MOL0     H87858   5.964   7.226   4.812  1.6041  0.3317  0.8625
  651MOL0     H87859   5.923   6.927   4.869  2.3476  0.9272 -1.1139
  651MOL0     H87860   5.802   7.041   4.816 -0.9619  1.3026  1.1379
  651MOL0     H87861   5.918   7.093   5.078 -0.8700 -0.9499  1.7510
  651MOL0     H87862   5.786   7.177   4.996 -0.2671  0.3803  2.0467
  651MOL0     H87863   5.778   6.887   5.090 -1.5852 -0.4638  0.4298
  651MOL0     H87864   5.654   6.955   4.981  2.3224 -1.6276 -2.2140
  651MOL0     H87865   5.585   7.105   5.174 -2.2005 -0.6753  0.0798
  651MOL0     H87866   5.722   7.032   5.275 -0.0210  0.0000 -0.1874
  651MOL0     H87867   6.471   7.281   4.966 -1.4450 -0.6493 -0.0545
  651MOL0     H87868   6.716   7.266   5.003  0.0991  1.5546 -2.5829
  651MOL0     H87869   7.071   7.226   4.924 -2.4060 -1.4181  0.5906
  651MOL0     H87870   7.311   7.270   4.968  3.8426 -0.3771  1.1029
  651MOL0     H87871   9.175   6.826   4.552  2.9543  0.3657  2.9972
  651MOL0     H87872   9.422   6.856   4.568  0.3686  1.8074  0.4605
  651MOL0     H87873   9.817   6.914   4.450  4.2892 -1.7204  0.3742
  651MOL0     H87874  10.053   6.965   4.381  3.3185  2.7523  0.9070
  651MOL0     H87875  10.250   7.370   4.414 -0.5502 -0.2081  0.6008
  651MOL0     H87876  10.253   7.288   4.575  1.5125 -1.2498  0.1560
  651MOL0     H87877  10.436   7.209   4.360  2.3869  0.9513 -0.3749
  651MOL0     H87878  10.414   7.150   4.526  3.8526  2.7194  1.9089
  651MOL0     H87879  10.545   7.290   4.603  0.1215 -2.3470 -2.4439
  651MOL0     H87880  10.448   7.435   4.557  0.0147 -1.0430  2.9103
  651MOL0     H87881  10.537   7.434   4.330  1.5448  1.9525  0.6606
  651MOL0     H87882  10.670   7.327   4.371  1.5688  1.2194  0.2493
  651MOL0     H87883  10.835   7.671   4.509  2.7619 -2.1951  0.6751
  651MOL0     H87884  10.005   7.361   4.516  1.2575 -1.5921  2.5828
  651MOL0     H87885   9.764   7.333   4.546  1.8211  1.3640  1.1781
  652MOL0     O87886   5.996   4.471   8.673  0.0087  0.1644 -0.1282
  652MOL0     C87887   5.991   4.523   8.785  0.7973  0.5636  0.7965
  652MOL0     O87888   5.879   4.535   8.860 -0.1094 -0.3712  0.6861
  652MOL0     C87889   5.777   4.453   8.831 -0.1588  0.1149 -0.1065
  652MOL0     C87890   5.800   4.316   8.840  0.0938  0.1613  0.2993
  652MOL0     C87891   5.711   4.224   8.786 -0.3181 -0.6233  0.3489
  652MOL0     C87892   5.583   4.273   8.741 -0.1148  0.6627 -0.8190
  652MOL0     O87893   5.480   4.194   8.708  0.3051  0.2321 -0.3033
  652MOL0     C87894   5.490   4.048   8.717 -0.1855 -0.5376 -0.4222
  652MOL0     C87895   5.354   3.988   8.682  0.0794 -0.1388 -0.1180
  652MOL0     C87896   5.240   4.040   8.759  0.5772 -0.6021 -0.2636
  652MOL0     C87897   5.109   3.987   8.707  0.6340 -0.3736 -0.3494
  652MOL0     C87898   4.993   4.047   8.788 -0.6685  0.3186 -0.2840
  652MOL0     C87899   4.861   3.973   8.740 -0.0794 -0.7801 -0.3542
  652MOL0     C87900   4.741   4.041   8.816 -0.0769  0.8117  0.0373
  652MOL0     C87901   4.621   3.945   8.814 -0.2075  0.7128  0.2416
  652MOL0     N87902   4.512   3.997   8.896 -0.1412  0.5083 -0.2683
  652MOL0     C87903   4.514   4.088   9.003  0.0483  0.4448  0.1403
  652MOL0     C87904   4.385   4.119   9.024  0.4790 -0.2251  0.5553
  652MOL0     C87905   4.317   4.207   9.130  0.4348  0.1880  0.2060
  652MOL0     C87906   4.165   4.214   9.118 -0.1542 -0.8524  0.2066
  652MOL0     C87907   4.099   4.327   9.201  0.1538  0.7909 -0.2177
  652MOL0     C87908   3.940   4.320   9.190  0.5086  0.5706  0.0741
  652MOL0     O87909   3.892   4.201   9.254 -0.3128  0.7511  0.1336
  652MOL0     C87910   3.758   4.188   9.256  0.2558  0.1484 -0.1450
  652MOL0     C87911   3.716   4.079   9.323  0.8887  0.7155 -0.1560
  652MOL0     C87912   3.584   4.045   9.322 -0.1918  0.0708 -0.2152
  652MOL0     C87913   3.555   3.923   9.411 -0.5796 -0.1401  0.0869
  652MOL0     C87914   3.488   4.118   9.248  0.5047 -0.3487  0.2097
  652MOL0     C87915   3.348   4.096   9.240  0.1556  0.3786  0.8266
  652MOL0     O87916   3.275   4.207   9.184 -0.7246  1.1230  0.2987
  652MOL0     C87917   3.143   4.225   9.212 -0.6033  0.2559 -0.2367
  652MOL0     C87918   3.101   4.253   9.340  0.3701 -0.1607 -0.1044
  652MOL0     C87919   2.963   4.275   9.361 -0.5565 -0.3020 -0.4620
  652MOL0     C87920   2.868   4.261   9.261 -0.0574  0.0393  0.7089
  652MOL0     O87921   2.738   4.292   9.302  0.6254  0.2031  0.2329
  652MOL0     C87922   2.636   4.262   9.208 -0.1159  0.2298  0.7540
  652MOL0     C87923   2.508   4.291   9.286 -0.8040 -0.0735 -0.7377
  652MOL0     C87924   2.377   4.271   9.207 -0.4965 -0.1713 -0.1658
  652MOL0     C87925   2.269   4.350   9.278 -0.4634  1.0617 -1.0536
  652MOL0     C87926   2.133   4.331   9.201 -0.4422 -0.4075 -0.4523
  652MOL0     C87927   2.019   4.334   9.301 -0.9204 -0.5921  0.5889
  652MOL0     C87928   1.881   4.282   9.255  0.0629 -0.7058 -0.2722
  652MOL0     C87929   1.808   4.364   9.141  0.2578  0.6619  0.0120
  652MOL0    Cl87930   1.649   4.304   9.125 -0.4292 -0.0667 -0.3308
  652MOL0     C87931   2.911   4.233   9.136  0.4800  0.0940  0.5593
  652MOL0     C87932   3.045   4.209   9.109 -0.9314 -0.2533  0.6191
  652MOL0     O87933   3.298   4.001   9.302 -0.4890  0.1999  0.0277
  652MOL0     C87934   3.532   4.237   9.175  0.6738  0.0796 -0.0895
  652MOL0     C87935   3.665   4.262   9.183 -0.4017 -0.1524 -0.3460
  652MOL0     N87936   4.301   4.036   8.953 -0.3839  0.1303  0.7486
  652MOL0     N87937   4.381   3.981   8.866  0.4043 -0.1197 -0.1606
  652MOL0     C87938   5.558   4.409   8.749 -0.7377 -0.6223  0.3726
  652MOL0     C87939   5.654   4.505   8.780  0.0992 -0.6817  0.4164
  652MOL0     C87940   6.117   4.567   8.847 -0.3289  0.2613  0.6642
  652MOL0     C87941   6.111   4.620   8.978 -1.1051 -0.3244 -0.4157
  652MOL0     C87942   6.233   4.647   9.038 -0.0781 -0.1042 -1.1109
  652MOL0     C87943   6.360   4.632   8.978 -0.4996 -0.2107 -0.2786
  652MOL0     O87944   6.488   4.657   9.027  0.2315  0.5820  0.4203
  652MOL0     C87945   6.489   4.720   9.153 -0.0769  0.0339  1.4168
  652MOL0     C87946   6.624   4.777   9.203 -0.0143 -0.4161  0.4500
  652MOL0     C87947   6.653   4.721   9.347 -0.0268 -0.1779 -0.6909
  652MOL0     C87948   6.759   4.620   9.355  0.0793 -0.1749 -0.0137
  652MOL0     C87949   6.890   4.674   9.309  0.0246  0.9069 -0.0316
  652MOL0     C87950   6.989   4.722   9.258 -0.3830 -0.8411 -0.1266
  652MOL0     C87951   6.359   4.579   8.851 -0.9747  0.3116 -0.9049
  652MOL0     C87952   6.247   4.551   8.780 -0.0082 -0.2098  0.1253
  652MOL0     H87953   5.898   4.277   8.864  0.9094  1.7812 -0.2589
  652MOL0     H87954   5.732   4.118   8.772 -1.2656 -0.7746 -0.0565
  652MOL0     H87955   5.563   4.008   8.645 -0.5557  1.0283 -1.7320
  652MOL0     H87956   5.511   4.027   8.822  0.2671 -1.3676 -0.6654
  652MOL0     H87957   5.335   4.006   8.576  0.2901  0.4946 -0.0552
  652MOL0     H87958   5.350   3.879   8.690  1.5412 -0.1550  0.8845
  652MOL0     H87959   5.239   3.996   8.859 -5.1139 -0.9420 -0.1096
  652MOL0     H87960   5.231   4.149   8.752 -1.3259 -0.7437 -0.5327
  652MOL0     H87961   5.091   4.006   8.600 -1.4218 -0.0336  0.0056
  652MOL0     H87962   5.109   3.878   8.715 -1.5334 -0.4740 -0.9233
  652MOL0     H87963   5.005   4.024   8.894  1.1277  0.3348 -0.4552
  652MOL0     H87964   4.979   4.153   8.767 -2.3798 -0.1365 -1.7886
  652MOL0     H87965   4.842   3.988   8.633 -0.8534 -1.9165 -0.3900
  652MOL0     H87966   4.865   3.866   8.761 -1.7021 -0.5619  1.3410
  652MOL0     H87967   4.766   4.057   8.922 -1.8038  1.0433  0.4417
  652MOL0     H87968   4.707   4.136   8.775  0.5682  1.6549  1.3831
  652MOL0     H87969   4.652   3.849   8.857 -0.1383 -0.1539 -1.6566
  652MOL0     H87970   4.592   3.922   8.711 -4.1428  0.7258  1.2103
  652MOL0     H87971   4.593   4.132   9.063  0.5942 -0.8983  0.4579
  652MOL0     H87972   4.347   4.163   9.226  0.9276 -0.0416 -0.0506
  652MOL0     H87973   4.355   4.309   9.125  1.2263  0.0297  2.2355
  652MOL0     H87974   4.115   4.120   9.143 -3.8094  0.0034 -2.9340
  652MOL0     H87975   4.135   4.233   9.014 -0.8391 -4.4276 -0.3925
  652MOL0     H87976   4.137   4.423   9.165  0.8473 -0.2438 -2.3951
  652MOL0     H87977   4.111   4.304   9.307  1.4095  0.1147 -0.4850
  652MOL0     H87978   3.924   4.326   9.082  2.0064  1.3076 -0.1343
  652MOL0     H87979   3.888   4.404   9.236 -2.7039  0.1782 -2.5333
  652MOL0     H87980   3.784   4.020   9.384 -3.0975 -0.2139  3.8534
  652MOL0     H87981   3.531   3.829   9.360  1.6464 -0.0490 -1.2613
  652MOL0     H87982   3.644   3.893   9.467 -0.1980 -0.6871 -0.7948
  652MOL0     H87983   3.482   3.949   9.488  0.5038 -1.5351  1.6678
  652MOL0     H87984   3.173   4.254   9.421  1.2176  2.7503 -0.7849
  652MOL0     H87985   2.923   4.273   9.462  0.3377 -1.8908 -0.1038
  652MOL0     H87986   2.637   4.320   9.115 -0.0283 -2.3421 -0.9811
  652MOL0     H87987   2.645   4.161   9.166  0.5562  0.8425 -0.6578
  652MOL0     H87988   2.507   4.226   9.374  0.1095 -0.0831 -0.7241
  652MOL0     H87989   2.523   4.393   9.321  1.6837 -1.0351  1.3215
  652MOL0     H87990   2.354   4.164   9.205  0.4953 -0.4232  0.8630
  652MOL0     H87991   2.387   4.317   9.109 -1.0619 -0.8130 -0.5396
  652MOL0     H87992   2.273   4.315   9.381 -1.7058  2.9937 -0.3069
  652MOL0     H87993   2.297   4.455   9.290 -0.6597  1.0389 -0.3889
  652MOL0     H87994   2.125   4.231   9.158  5.1210 -1.7686  0.8662
  652MOL0     H87995   2.118   4.404   9.121 -2.0452 -0.3185 -0.1108
  652MOL0     H87996   2.059   4.267   9.379  0.7100 -3.1356 -2.2266
  652MOL0     H87997   2.013   4.439   9.331  2.6660  0.0357 -0.4291
  652MOL0     H87998   1.821   4.293   9.346  0.2818 -1.8267  0.0223
  652MOL0     H87999   1.882   4.176   9.229 -2.8000 -0.7487 -0.4835
  652MOL0     H88000   1.851   4.351   9.041 -0.8547 -0.4350 -0.3438
  652MOL0     H88001   1.803   4.466   9.181  0.0462 -0.2495  2.4870
  652MOL0     H88002   2.832   4.221   9.063  0.3279  1.4488  0.4785
  652MOL0     H88003   3.085   4.181   9.012  0.6648 -1.5880  1.6074
  652MOL0     H88004   3.474   4.306   9.115  2.4961  1.9116  0.1307
  652MOL0     H88005   3.701   4.350   9.129 -1.4758 -0.9669 -2.4948
  652MOL0     H88006   5.457   4.443   8.731 -1.1181 -2.3092 -0.9934
  652MOL0     H88007   5.638   4.612   8.769  2.2765 -0.4753 -1.2258
  652MOL0     H88008   6.021   4.624   9.037  0.2990 -5.2802  2.6031
  652MOL0     H88009   6.206   4.693   9.132 -0.2851 -0.7807 -0.8292
  652MOL0     H88010   6.418   4.803   9.156 -2.1075 -1.6100  0.7833
  652MOL0     H88011   6.458   4.645   9.226  2.0353 -3.6418 -1.1213
  652MOL0     H88012   6.610   4.885   9.211 -0.6331 -0.5646  1.7552
  652MOL0     H88013   6.708   4.752   9.138  1.4220  0.1169  2.0209
  652MOL0     H88014   6.571   4.668   9.396  0.6972 -0.0425  0.6961
  652MOL0     H88015   6.670   4.810   9.409 -3.2955 -0.6064  1.0383
  652MOL0     H88016   6.742   4.524   9.305  0.3956 -0.5938  0.6686
  652MOL0     H88017   6.761   4.584   9.458 -0.3340  1.5836  0.6342
  652MOL0     H88018   7.072   4.768   9.209 -0.5762 -2.0042 -1.6157
  652MOL0     H88019   6.455   4.562   8.802  0.3103  1.6971  0.9727
  652MOL0     H88020   6.254   4.506   8.681 -0.6125 -0.8855  0.3748
  653MOL0     O88021   2.202   0.042   0.484  0.0873  0.6948 -0.5102
  653MOL0     C88022   2.216   0.013   0.603  0.3386 -0.3058  0.5249
  653MOL0     O88023   2.122  -0.044   0.683  0.3956 -0.0690 -0.3726
  653MOL0     C88024   2.015  -0.105   0.638  0.2454  1.4109  0.0354
  653MOL0     C88025   1.899  -0.038   0.603  0.1415  0.8955 -0.2557
  653MOL0     C88026   1.785  -0.123   0.570 -0.1465 -0.5639  0.0513
  653MOL0     C88027   1.788  -0.263   0.575 -0.3461 -0.1426 -0.0552
  653MOL0     O88028   1.682  -0.345   0.560 -0.5176 -0.3551 -0.3583
  653MOL0     C88029   1.548  -0.292   0.557  0.1288 -0.6832  0.5062
  653MOL0     C88030   1.442  -0.405   0.545  0.3249  0.2399 -0.5874
  653MOL0     C88031   1.303  -0.347   0.549 -0.1006  0.3151  0.0195
  653MOL0     C88032   1.264  -0.303   0.694  1.3284  0.4783 -1.1086
  653MOL0     C88033   1.099  -0.291   0.689 -1.1060 -0.0578 -1.2832
  653MOL0     C88034   1.039  -0.249   0.829 -0.7061  0.6483  0.2289
  653MOL0     C88035   0.892  -0.254   0.803  0.7136 -0.7322 -0.0057
  653MOL0     C88036   0.798  -0.183   0.907 -0.1675 -0.5386  0.3874
  653MOL0     N88037   0.828  -0.224   1.045  0.1407  0.3462  0.6421
  653MOL0     C88038   0.856  -0.354   1.091  0.3817  0.0095  0.3892
  653MOL0     C88039   0.875  -0.336   1.221 -0.8556  0.7874  0.3860
  653MOL0     C88040   0.888  -0.442   1.315  0.5491 -0.0627  0.0934
  653MOL0     C88041   0.765  -0.536   1.330 -0.0584  0.3513 -0.5105
  653MOL0     C88042   0.639  -0.464   1.372 -0.4089  0.7320  0.7247
  653MOL0     C88043   0.534  -0.565   1.376 -0.1587  0.5665 -1.0343
  653MOL0     O88044   0.484  -0.585   1.239 -0.0664 -0.4035 -0.4865
  653MOL0     C88045   0.346  -0.610   1.256 -0.6093 -0.3388  0.3777
  653MOL0     C88046   0.287  -0.725   1.324  0.0595 -0.2808 -0.0751
  653MOL0     C88047   0.148  -0.732   1.344  0.2754  0.6452 -0.7287
  653MOL0     C88048   0.101  -0.825   1.446 -0.4493  0.5364  0.4221
  653MOL0     C88049   0.069  -0.635   1.275  0.1116  0.9261 -0.0305
  653MOL0     C88050  -0.082  -0.638   1.290  0.7822 -0.0951  0.9007
  653MOL0     O88051  -0.140  -0.529   1.232  0.1461  0.2506 -0.0819
  653MOL0     C88052  -0.269  -0.556   1.173  0.1115  0.3193 -1.1781
  653MOL0     C88053  -0.288  -0.648   1.070 -0.1988  0.2732  0.5481
  653MOL0     C88054  -0.418  -0.674   1.024 -0.1083  0.1808 -0.3041
  653MOL0     C88055  -0.527  -0.614   1.079 -0.1468 -1.3024  0.0874
  653MOL0     O88056  -0.643  -0.645   1.024 -0.4037  0.0591  0.5572
  653MOL0     C88057  -0.764  -0.636   1.091 -0.0417  0.3686 -0.5015
  653MOL0     C88058  -0.776  -0.759   1.181  0.2629 -0.3984 -0.1444
  653MOL0     C88059  -0.906  -0.795   1.250  0.1659 -0.5214 -0.2663
  653MOL0     C88060  -1.006  -0.681   1.289 -0.7745 -0.3268  0.8241
  653MOL0     C88061  -1.129  -0.733   1.372 -0.1738 -0.2742  0.3514
  653MOL0     C88062  -1.102  -0.727   1.525  0.3136 -0.0742 -0.8025
  653MOL0     C88063  -1.231  -0.755   1.598  0.0167  0.1679 -0.2482
  653MOL0     C88064  -1.214  -0.775   1.745 -1.2991  0.2742  0.1932
  653MOL0    Cl88065  -1.119  -0.643   1.814 -0.1087 -0.1873 -0.5651
  653MOL0     C88066  -0.501  -0.522   1.186 -0.1926  0.3592 -0.2172
  653MOL0     C88067  -0.378  -0.481   1.220 -0.0247  0.4153 -0.5243
  653MOL0     O88068  -0.146  -0.740   1.327 -0.5085  0.1780 -0.1404
  653MOL0     C88069   0.124  -0.527   1.206  0.3331  0.1437 -0.2490
  653MOL0     C88070   0.263  -0.513   1.208 -0.0908  0.6557  0.0268
  653MOL0     N88071   0.878  -0.203   1.256 -0.4335  0.4095 -0.0612
  653MOL0     N88072   0.852  -0.129   1.145 -0.4800  0.6187  0.2926
  653MOL0     C88073   1.907  -0.324   0.608  0.5876  0.1075  0.7082
  653MOL0     C88074   2.018  -0.247   0.632 -0.3879 -0.6647 -0.6010
  653MOL0     C88075   2.334   0.075   0.673 -1.0908  0.8498 -0.3326
  653MOL0     C88076   2.346   0.088   0.814 -0.0256 -0.2671  0.2176
  653MOL0     C88077   2.458   0.150   0.870 -0.1573 -0.8096 -0.4341
  653MOL0     C88078   2.566   0.192   0.788 -1.0645 -0.6904  0.0441
  653MOL0     O88079   2.688   0.248   0.826  0.5864 -0.2255  0.0590
  653MOL0     C88080   2.710   0.270   0.965 -0.4437  0.7740 -0.3612
  653MOL0     C88081   2.807   0.382   0.986  1.2165  0.4685  0.4434
  653MOL0     C88082   2.946   0.336   0.960  0.2466  0.0270  0.5515
  653MOL0     C88083   3.049   0.446   0.991  0.7651  0.4248 -0.3043
  653MOL0     C88084   3.187   0.392   0.971  0.2326 -0.5164  0.5142
  653MOL0     C88085   3.297   0.339   0.965 -0.3700 -0.5038  0.2534
  653MOL0     C88086   2.554   0.163   0.650 -0.3176  1.1685 -0.0651
  653MOL0     C88087   2.447   0.103   0.593  0.5816  0.3848 -0.2327
  653MOL0     H88088   1.893   0.070   0.606  1.6118  0.9817  0.1840
  653MOL0     H88089   1.698  -0.064   0.545  0.9535  1.1219  0.0023
  653MOL0     H88090   1.530  -0.241   0.652 -0.1184  1.1914 -0.4967
  653MOL0     H88091   1.542  -0.215   0.480  2.7865 -0.8353  0.0713
  653MOL0     H88092   1.460  -0.456   0.451  0.3965 -2.1839  0.6651
  653MOL0     H88093   1.465  -0.474   0.627  0.2979  0.8302 -0.0689
  653MOL0     H88094   1.298  -0.269   0.472  0.4260 -0.2502 -0.6022
  653MOL0     H88095   1.233  -0.424   0.513  1.2394 -0.6576 -0.5786
  653MOL0     H88096   1.301  -0.376   0.766 -0.9436 -0.6254 -0.9730
  653MOL0     H88097   1.317  -0.209   0.713  0.6221  1.2318 -2.7000
  653MOL0     H88098   1.062  -0.221   0.614 -3.1740  0.2881 -0.0042
  653MOL0     H88099   1.051  -0.386   0.663 -1.5491  0.0029 -0.6973
  653MOL0     H88100   1.063  -0.312   0.915 -0.2726 -1.1889 -1.1853
  653MOL0     H88101   1.069  -0.146   0.847 -0.1444  0.3428  1.0698
  653MOL0     H88102   0.877  -0.194   0.713  2.3420  0.5922  0.5702
  653MOL0     H88103   0.857  -0.355   0.778 -0.7299  0.2894 -2.5516
  653MOL0     H88104   0.693  -0.198   0.880 -0.6272  0.0011  1.7934
  653MOL0     H88105   0.819  -0.076   0.902 -0.1127 -0.5746 -0.2074
  653MOL0     H88106   0.850  -0.444   1.031  3.2914 -1.2059  1.7252
  653MOL0     H88107   0.965  -0.515   1.285 -0.5911 -2.2679  2.1755
  653MOL0     H88108   0.911  -0.399   1.413 -1.1399  2.5099 -0.5494
  653MOL0     H88109   0.786  -0.611   1.406 -0.5296  1.7721  1.0698
  653MOL0     H88110   0.742  -0.587   1.236 -2.6659  0.4686 -0.0051
  653MOL0     H88111   0.629  -0.379   1.304  4.4156  0.2876 -0.8988
  653MOL0     H88112   0.657  -0.423   1.472 -1.0991  1.8359  0.4132
  653MOL0     H88113   0.453  -0.531   1.441 -1.8007 -2.2952 -1.4432
  653MOL0     H88114   0.570  -0.662   1.410  2.0070  1.0538 -1.8118
  653MOL0     H88115   0.345  -0.808   1.364  1.0979 -0.1250 -1.2072
  653MOL0     H88116   0.072  -0.916   1.393  0.3227  1.2624 -1.3142
  653MOL0     H88117   0.176  -0.834   1.525  0.3859 -0.7139 -0.4690
  653MOL0     H88118   0.007  -0.794   1.493 -1.1804 -0.0259 -0.6448
  653MOL0     H88119  -0.204  -0.699   1.023 -0.4878 -0.8138  1.1809
  653MOL0     H88120  -0.437  -0.749   0.947  3.4159  0.2812 -1.4139
  653MOL0     H88121  -0.782  -0.547   1.152 -2.2613 -1.7921  2.2987
  653MOL0     H88122  -0.848  -0.644   1.022  0.5714 -2.2809 -1.0555
  653MOL0     H88123  -0.749  -0.851   1.129 -1.8205 -1.5368  0.6432
  653MOL0     H88124  -0.697  -0.759   1.256 -0.0274 -1.3319  0.1790
  653MOL0     H88125  -0.884  -0.856   1.337 -1.0510 -2.9274 -1.5463
  653MOL0     H88126  -0.957  -0.870   1.188 -0.2848  0.0731 -0.6303
  653MOL0     H88127  -0.940  -0.601   1.324 -1.1963  0.0864  0.6980
  653MOL0     H88128  -1.048  -0.654   1.192 -3.3253 -0.6811  1.7407
  653MOL0     H88129  -1.156  -0.834   1.338 -0.2630 -0.3855  0.7519
  653MOL0     H88130  -1.211  -0.664   1.350 -1.3991 -1.3922  1.2632
  653MOL0     H88131  -1.027  -0.806   1.542  0.3414 -0.3072 -1.9116
  653MOL0     H88132  -1.065  -0.626   1.542 -3.3119  1.6766 -2.4355
  653MOL0     H88133  -1.284  -0.839   1.551  0.0933 -0.0265  0.0145
  653MOL0     H88134  -1.296  -0.668   1.588 -2.4713 -1.3301  1.6441
  653MOL0     H88135  -1.160  -0.867   1.767  1.2462  1.6806  0.1569
  653MOL0     H88136  -1.315  -0.788   1.787 -0.9366 -2.1484  0.4729
  653MOL0     H88137  -0.590  -0.486   1.237  0.2705  2.5983 -0.8748
  653MOL0     H88138  -0.358  -0.403   1.293  3.6208 -1.8147  1.1460
  653MOL0     H88139   0.058  -0.457   1.157 -0.2887 -0.3683 -0.1561
  653MOL0     H88140   0.307  -0.431   1.152  0.6739  2.0194  2.5122
  653MOL0     H88141   1.902  -0.431   0.594 -4.3758  0.4524 -2.3324
  653MOL0     H88142   2.113  -0.296   0.651  0.3950  1.4783  1.5934
  653MOL0     H88143   2.273   0.051   0.884  3.9106 -2.0578  3.8563
  653MOL0     H88144   2.450   0.164   0.978  2.0132 -2.3752 -0.0085
  653MOL0     H88145   2.614   0.300   1.008 -1.3932 -1.3505 -0.9009
  653MOL0     H88146   2.749   0.181   1.015 -0.7703 -0.3029 -1.9629
  653MOL0     H88147   2.810   0.417   1.090  0.8033  0.9566  0.2978
  653MOL0     H88148   2.777   0.470   0.928 -0.1880 -0.4042 -0.1903
  653MOL0     H88149   2.950   0.296   0.859  3.1746 -0.4162  0.7600
  653MOL0     H88150   2.966   0.254   1.029  1.6299 -0.9483 -0.9455
  653MOL0     H88151   3.033   0.471   1.096  2.4588  1.8866 -0.3340
  653MOL0     H88152   3.024   0.537   0.934 -2.7063  0.2296  0.6722
  653MOL0     H88153   3.394   0.298   0.943 -0.4856  0.0294 -1.4038
  653MOL0     H88154   2.636   0.183   0.581  1.8661 -2.3504  1.2643
  653MOL0     H88155   2.455   0.073   0.489  1.5192 -1.3852  0.2951
  654MOL0     O88156   7.469   7.618   1.914 -0.3456  0.1332  1.0105
  654MOL0     C88157   7.568   7.561   1.872 -0.1401 -0.6780  0.0664
  654MOL0     O88158   7.576   7.444   1.806 -0.2087  0.6929 -0.6568
  654MOL0     C88159   7.470   7.368   1.802  0.5032  0.7534  0.2680
  654MOL0     C88160   7.469   7.233   1.833 -0.6671 -0.5767  0.0567
  654MOL0     C88161   7.355   7.159   1.817  0.2777  0.9747  0.0506
  654MOL0     C88162   7.224   7.203   1.781  0.0249 -0.1578 -0.0416
  654MOL0     O88163   7.121   7.112   1.765 -0.5497 -0.7295 -0.0005
  654MOL0     C88164   6.992   7.171   1.776  0.5268 -0.8752  0.1851
  654MOL0     C88165   6.885   7.061   1.765  0.3643  0.1198 -0.3121
  654MOL0     C88166   6.881   6.986   1.627  0.8153  0.0019  0.1146
  654MOL0     C88167   6.843   7.066   1.504 -0.4272 -0.2544 -0.2116
  654MOL0     C88168   6.845   6.988   1.373 -0.2895  0.5105  0.6287
  654MOL0     C88169   6.711   7.012   1.292 -0.7395  0.1701 -0.7723
  654MOL0     C88170   6.612   6.901   1.294  0.0565  0.0882  0.3237
  654MOL0     C88171   6.482   6.926   1.214 -0.3452 -0.0473  0.6120
  654MOL0     N88172   6.364   6.886   1.291  0.1059  0.2039 -0.0462
  654MOL0     C88173   6.330   6.756   1.325 -0.3606 -0.0984  0.1527
  654MOL0     C88174   6.225   6.764   1.412 -0.3131  0.4544  0.6292
  654MOL0     C88175   6.141   6.644   1.453  0.5175 -0.5408  0.6131
  654MOL0     C88176   6.130   6.529   1.357 -0.6943 -0.4180 -0.5898
  654MOL0     C88177   6.034   6.423   1.401  0.1138 -0.0220  0.1577
  654MOL0     C88178   5.889   6.469   1.413 -0.4670  0.1113  0.4759
  654MOL0     O88179   5.834   6.513   1.284 -0.5591 -0.3096  0.3258
  654MOL0     C88180   5.702   6.565   1.291  0.4424  0.2911 -0.1312
  654MOL0     C88181   5.599   6.478   1.333 -0.4409  0.0608 -0.2218
  654MOL0     C88182   5.468   6.525   1.335  0.5441 -0.3968  0.3466
  654MOL0     C88183   5.358   6.425   1.380 -0.1439 -0.8363  0.0468
  654MOL0     C88184   5.434   6.657   1.302 -1.1078  0.1630  0.0813
  654MOL0     C88185   5.296   6.710   1.267  0.2287 -0.2189  0.1614
  654MOL0     O88186   5.187   6.662   1.337 -0.0018  0.1772  0.0734
  654MOL0     C88187   5.064   6.690   1.272  0.0062 -0.1058  0.7280
  654MOL0     C88188   5.011   6.821   1.259 -0.0948  0.1440 -0.0364
  654MOL0     C88189   4.895   6.842   1.193  0.1523 -0.3348 -0.2455
  654MOL0     C88190   4.809   6.736   1.149 -0.6467  1.2020 -0.3312
  654MOL0     O88191   4.680   6.766   1.105 -0.9317  0.1646  0.2149
  654MOL0     C88192   4.589   6.667   1.131 -0.2384  0.5866  0.0330
  654MOL0     C88193   4.457   6.728   1.113 -0.2031  0.2835  0.7793
  654MOL0     C88194   4.412   6.806   1.237  0.6058  0.0653 -0.5161
  654MOL0     C88195   4.287   6.884   1.216  0.1871  0.8003 -0.0702
  654MOL0     C88196   4.164   6.800   1.233  0.3751 -0.4138 -0.0762
  654MOL0     C88197   4.042   6.871   1.180  0.9568 -0.9324  0.1411
  654MOL0     C88198   3.913   6.802   1.231  0.5994 -0.1870  0.3562
  654MOL0     C88199   3.799   6.897   1.253 -0.0001  0.4349  0.4502
  654MOL0    Cl88200   3.657   6.815   1.320  0.0873  0.2496 -0.4396
  654MOL0     C88201   4.856   6.607   1.176 -0.4819  0.1538  0.3609
  654MOL0     C88202   4.984   6.587   1.237 -0.4007 -0.0923 -0.4781
  654MOL0     O88203   5.290   6.780   1.163 -0.3011 -0.1057 -0.0385
  654MOL0     C88204   5.539   6.747   1.269  0.4400  0.8125 -0.2132
  654MOL0     C88205   5.668   6.695   1.252 -0.2851 -0.1678 -0.4479
  654MOL0     N88206   6.206   6.896   1.446  0.1706  0.1785 -0.2904
  654MOL0     N88207   6.290   6.967   1.369  0.0326 -0.1652  0.2313
  654MOL0     C88208   7.227   7.336   1.752  0.6151  0.4154  0.0381
  654MOL0     C88209   7.341   7.419   1.761  0.9875 -0.4263 -0.1384
  654MOL0     C88210   7.687   7.648   1.866  0.2918  0.1635 -0.2843
  654MOL0     C88211   7.684   7.788   1.865 -0.1440  0.3323  0.2437
  654MOL0     C88212   7.796   7.872   1.839 -0.0331  0.2558 -0.5246
  654MOL0     C88213   7.923   7.813   1.829  0.0168 -0.3089  1.0587
  654MOL0     O88214   8.027   7.898   1.831 -0.1619  0.6709  0.3772
  654MOL0     C88215   8.164   7.854   1.851 -0.4876 -0.6082 -0.2935
  654MOL0     C88216   8.217   7.792   1.728 -0.0310  0.8858  0.5102
  654MOL0     C88217   8.377   7.798   1.723 -0.4201  1.0888 -0.8689
  654MOL0     C88218   8.444   7.917   1.657  0.5255  0.0967 -0.2372
  654MOL0     C88219   8.580   7.921   1.675 -0.0968  0.5472  0.0137
  654MOL0     C88220   8.693   7.910   1.710 -0.3256 -0.7908  0.3443
  654MOL0     C88221   7.928   7.668   1.832  0.0075  0.4778  0.7472
  654MOL0     C88222   7.809   7.588   1.847 -0.2883 -0.8043  0.6238
  654MOL0     H88223   7.564   7.187   1.861 -0.0970  0.5587  0.0773
  654MOL0     H88224   7.366   7.057   1.853  0.3135  0.2296 -1.9727
  654MOL0     H88225   6.983   7.238   1.862  0.6586  2.2155 -2.0342
  654MOL0     H88226   6.962   7.235   1.692  2.5344 -0.9253 -0.6373
  654MOL0     H88227   6.908   6.994   1.849 -0.8222  1.0806  0.8163
  654MOL0     H88228   6.786   7.099   1.792 -0.2753 -1.4562 -0.3027
  654MOL0     H88229   6.970   6.921   1.618  1.7260  0.7453  2.7709
  654MOL0     H88230   6.803   6.910   1.633  0.9406 -0.0752  0.8650
  654MOL0     H88231   6.756   7.129   1.524 -1.5346 -2.0459  0.9123
  654MOL0     H88232   6.919   7.143   1.488  0.6727 -2.0274 -5.5720
  654MOL0     H88233   6.933   7.022   1.317 -0.0908  3.4572  2.4726
  654MOL0     H88234   6.851   6.881   1.395  0.1111  0.2785 -0.5466
  654MOL0     H88235   6.673   7.112   1.317 -1.7817 -0.9342  2.5767
  654MOL0     H88236   6.729   7.023   1.185 -1.6373 -2.4542 -1.2584
  654MOL0     H88237   6.658   6.807   1.261 -1.6149 -0.3910 -0.7448
  654MOL0     H88238   6.588   6.898   1.401 -1.0815 -2.4254  0.0582
  654MOL0     H88239   6.478   6.867   1.122 -1.9245  0.7097  0.1457
  654MOL0     H88240   6.477   7.034   1.199 -3.0027  0.1720  2.3505
  654MOL0     H88241   6.369   6.671   1.270  0.1766 -1.0514  1.9195
  654MOL0     H88242   6.180   6.612   1.549  0.3775  0.6022  1.0664
  654MOL0     H88243   6.045   6.690   1.478  1.1750  0.7037  0.9265
  654MOL0     H88244   6.229   6.484   1.345 -0.6403  0.3949 -4.5792
  654MOL0     H88245   6.095   6.571   1.262  0.4997  0.4537 -0.6646
  654MOL0     H88246   6.074   6.388   1.497 -1.4226 -1.1104  0.4283
  654MOL0     H88247   6.039   6.336   1.336 -1.4706  0.8210 -1.1599
  654MOL0     H88248   5.895   6.551   1.485 -0.1150 -1.4385  2.2933
  654MOL0     H88249   5.819   6.396   1.457 -0.5969 -0.0122  0.0682
  654MOL0     H88250   5.624   6.384   1.382  0.5530  1.2062  1.5928
  654MOL0     H88251   5.388   6.321   1.362 -1.4102 -1.2390  0.1970
  654MOL0     H88252   5.333   6.437   1.486 -2.6723  0.5875 -0.6158
  654MOL0     H88253   5.265   6.442   1.325 -0.2700  0.7153  0.6726
  654MOL0     H88254   5.064   6.905   1.303  2.1856 -1.3697  0.2638
  654MOL0     H88255   4.858   6.943   1.174 -1.7616 -0.8019  0.7481
  654MOL0     H88256   4.609   6.591   1.056 -2.0364  1.0227 -0.9540
  654MOL0     H88257   4.594   6.633   1.235  1.8499  0.4695 -0.0677
  654MOL0     H88258   4.473   6.794   1.027  5.4815 -1.2995  0.1730
  654MOL0     H88259   4.393   6.643   1.088  1.4630 -1.0663  0.8808
  654MOL0     H88260   4.484   6.883   1.266  0.3650 -0.0789  0.5065
  654MOL0     H88261   4.395   6.742   1.323  0.8835 -0.1175 -0.5988
  654MOL0     H88262   4.292   6.956   1.298  1.2059 -0.9319  1.4676
  654MOL0     H88263   4.286   6.946   1.126 -0.8560  2.2323  0.8679
  654MOL0     H88264   4.150   6.787   1.341 -4.3040  1.6153 -0.2009
  654MOL0     H88265   4.176   6.699   1.193 -0.4963 -0.5800  0.0521
  654MOL0     H88266   4.034   6.976   1.209 -1.9595 -1.8743  3.3176
  654MOL0     H88267   4.035   6.873   1.071  0.7597  1.3528  0.1541
  654MOL0     H88268   3.934   6.763   1.331  0.8160 -0.8940  0.0429
  654MOL0     H88269   3.876   6.717   1.173  2.0917 -1.4623  1.2271
  654MOL0     H88270   3.773   6.931   1.152  3.5589  3.1771  0.2912
  654MOL0     H88271   3.835   6.979   1.315  0.2508  1.0012 -0.4252
  654MOL0     H88272   4.797   6.517   1.162  2.3225 -1.7249 -0.2901
  654MOL0     H88273   5.010   6.483   1.253 -3.7942 -0.7224  1.9974
  654MOL0     H88274   5.524   6.847   1.230 -0.1340  0.3879 -1.1262
  654MOL0     H88275   5.751   6.756   1.218  0.0958 -1.3866 -1.7955
  654MOL0     H88276   7.138   7.385   1.713 -0.4709 -1.3328  0.2297
  654MOL0     H88277   7.330   7.524   1.734 -3.5653 -0.0970  1.9637
  654MOL0     H88278   7.595   7.846   1.889  0.5097  2.3129 -1.7355
  654MOL0     H88279   7.779   7.979   1.837 -1.4184  0.0524 -1.1985
  654MOL0     H88280   8.228   7.935   1.886 -1.6684 -0.2366  1.0811
  654MOL0     H88281   8.183   7.789   1.937  0.3777  0.9056  0.6986
  654MOL0     H88282   8.185   7.850   1.641  1.0051  0.7252  0.0059
  654MOL0     H88283   8.184   7.689   1.712  2.8901  0.0712 -0.9024
  654MOL0     H88284   8.407   7.718   1.654 -2.1788  0.7087 -1.2322
  654MOL0     H88285   8.421   7.795   1.823 -2.0170 -1.1438 -0.1709
  654MOL0     H88286   8.407   8.011   1.698  1.0946  0.3992 -0.4037
  654MOL0     H88287   8.417   7.916   1.551  2.8175  0.1322 -0.8940
  654MOL0     H88288   8.792   7.912   1.752 -0.9860  2.1529  2.0254
  654MOL0     H88289   8.020   7.611   1.820 -0.4059  0.2651 -2.2798
  654MOL0     H88290   7.819   7.481   1.839 -0.3592 -0.6481 -4.7788
  655MOL0     O88291   0.825   9.107   9.503 -0.4302 -0.8977  0.0104
  655MOL0     C88292   0.869   9.000   9.539 -0.7666  0.5219 -0.0967
  655MOL0     O88293   0.796   8.903   9.598 -0.0224 -0.6190 -0.3434
  655MOL0     C88294   0.657   8.916   9.623 -0.9361 -0.5715 -0.0602
  655MOL0     C88295   0.618   8.829   9.720  0.3968  0.1358 -0.0096
  655MOL0     C88296   0.482   8.827   9.746  0.4531 -0.5199  0.9571
  655MOL0     C88297   0.386   8.890   9.672 -0.7916 -0.6902 -0.1421
  655MOL0     O88298   0.255   8.853   9.686  0.4076  0.5437  0.2278
  655MOL0     C88299   0.145   8.878   9.586 -0.4458 -0.1746 -0.1056
  655MOL0     C88300   0.143   8.776   9.468 -0.2301 -1.0336 -0.5492
  655MOL0     C88301   0.004   8.742   9.426 -0.3196 -0.1284  0.0854
  655MOL0     C88302  -0.061   8.648   9.526  0.2067 -0.8254 -0.1092
  655MOL0     C88303  -0.208   8.648   9.516  0.4094  0.1120 -0.5741
  655MOL0     C88304  -0.273   8.563   9.626 -0.0024 -0.6547 -1.3951
  655MOL0     C88305  -0.426   8.572   9.647  0.0673 -0.4581 -0.5730
  655MOL0     C88306  -0.501   8.524   9.525  0.1123 -0.1829 -0.3002
  655MOL0     N88307  -0.649   8.512   9.543 -1.0821 -0.0400  0.4014
  655MOL0     C88308  -0.735   8.606   9.494 -0.1762  0.3614 -0.2420
  655MOL0     C88309  -0.861   8.543   9.519 -0.1971 -0.1927  0.3100
  655MOL0     C88310  -0.995   8.585   9.467 -0.3278  1.0621 -0.2683
  655MOL0     C88311  -1.082   8.644   9.579 -0.0047 -0.1728 -0.0427
  655MOL0     C88312  -1.234   8.669   9.528  0.2194  0.6301 -0.3623
  655MOL0     C88313  -1.241   8.759   9.408 -0.5336 -0.9487 -0.2742
  655MOL0     O88314  -1.371   8.824   9.382  0.2097 -0.2165  0.3354
  655MOL0     C88315  -1.473   8.747   9.326 -0.9091  0.3457 -0.6789
  655MOL0     C88316  -1.451   8.617   9.253 -0.4483 -0.8216 -0.6179
  655MOL0     C88317  -1.566   8.552   9.205 -0.0547  0.9362  0.8217
  655MOL0     C88318  -1.538   8.419   9.140  0.2177 -0.1913 -0.6339
  655MOL0     C88319  -1.694   8.602   9.225 -1.0363 -0.8295 -0.2954
  655MOL0     C88320  -1.809   8.534   9.173  0.0139  1.0439  0.0253
  655MOL0     O88321  -1.920   8.611   9.161 -0.2275  1.0810  0.0444
  655MOL0     C88322  -2.037   8.549   9.128 -0.0264  0.3766  0.2381
  655MOL0     C88323  -2.146   8.543   9.217  0.0177 -0.0726  1.1453
  655MOL0     C88324  -2.271   8.494   9.179 -0.8695  0.9242  0.0236
  655MOL0     C88325  -2.292   8.453   9.047  0.5614  0.1112 -0.9733
  655MOL0     O88326  -2.417   8.428   8.998  0.2900  0.2025  0.1693
  655MOL0     C88327  -2.523   8.389   9.094 -0.4531 -0.7068  0.5069
  655MOL0     C88328  -2.629   8.301   9.008 -0.4154  0.4912 -0.2791
  655MOL0     C88329  -2.706   8.403   8.919 -0.0819  0.2855  0.5383
  655MOL0     C88330  -2.806   8.331   8.836  0.1259  0.1858 -0.1023
  655MOL0     C88331  -2.879   8.415   8.721  0.9804 -0.2395  0.1241
  655MOL0     C88332  -2.978   8.336   8.634 -0.0308  0.9338 -0.3089
  655MOL0     C88333  -3.087   8.280   8.729  0.3328 -0.4755 -0.2176
  655MOL0     C88334  -3.190   8.200   8.653  0.2548  0.3734 -0.1435
  655MOL0    Cl88335  -3.332   8.167   8.750  0.6848  0.4078 -0.3557
  655MOL0     C88336  -2.190   8.448   8.959 -0.2759 -0.2020  0.5189
  655MOL0     C88337  -2.059   8.503   9.000  0.0500  0.7521 -0.1236
  655MOL0     O88338  -1.810   8.412   9.152 -0.1911 -0.4798 -0.2935
  655MOL0     C88339  -1.709   8.717   9.301 -0.4864 -0.5891 -0.3016
  655MOL0     C88340  -1.600   8.780   9.352  0.2128 -0.2907  0.4172
  655MOL0     N88341  -0.841   8.428   9.580 -1.0906 -0.0407 -0.2773
  655MOL0     N88342  -0.716   8.407   9.599 -0.7424 -0.6170  0.5787
  655MOL0     C88343   0.433   8.964   9.562  0.3813 -0.2031 -0.2033
  655MOL0     C88344   0.567   8.989   9.538  0.2076 -0.0928  0.1324
  655MOL0     C88345   1.010   8.987   9.573 -0.2914 -0.1183  0.7632
  655MOL0     C88346   1.105   9.080   9.524 -0.5841 -0.8402  0.3093
  655MOL0     C88347   1.247   9.058   9.535 -0.4723 -0.3762 -0.5348
  655MOL0     C88348   1.291   8.948   9.611  1.4608 -0.3419 -0.2500
  655MOL0     O88349   1.426   8.913   9.615  0.4442  0.2888 -0.1829
  655MOL0     C88350   1.528   9.013   9.587 -0.0174 -0.1437  0.5186
  655MOL0     C88351   1.664   8.945   9.618  1.2407  0.1344 -0.7583
  655MOL0     C88352   1.695   8.830   9.523 -0.2860 -0.0371 -0.4127
  655MOL0     C88353   1.845   8.786   9.538 -0.0258  0.0737 -0.3809
  655MOL0     C88354   1.888   8.671   9.460  1.9319  0.8911  0.2283
  655MOL0     C88355   1.927   8.569   9.404  0.1504  0.5556 -0.7995
  655MOL0     C88356   1.194   8.861   9.665  0.4071 -0.1526 -0.9489
  655MOL0     C88357   1.059   8.875   9.643 -0.5804 -0.6688 -0.8606
  655MOL0     H88358   0.680   8.756   9.771 -0.6650  0.2007  1.4328
  655MOL0     H88359   0.442   8.761   9.822 -2.0867  1.2256  1.2455
  655MOL0     H88360   0.047   8.882   9.633 -0.3800 -1.0866  0.1311
  655MOL0     H88361   0.165   8.975   9.539 -1.0028 -0.1351 -0.2665
  655MOL0     H88362   0.192   8.823   9.383  2.4414  0.3161  1.6034
  655MOL0     H88363   0.196   8.683   9.493 -0.8132 -1.0020  0.9193
  655MOL0     H88364  -0.057   8.832   9.437 -0.1867 -0.0079 -0.1667
  655MOL0     H88365  -0.003   8.699   9.325  1.0241 -0.0186 -0.0667
  655MOL0     H88366  -0.019   8.547   9.520  1.5564 -0.4649  2.1392
  655MOL0     H88367  -0.027   8.680   9.625  1.8651 -1.0765 -0.5703
  655MOL0     H88368  -0.255   8.747   9.515  0.0079  0.0116  1.8447
  655MOL0     H88369  -0.231   8.613   9.415  0.0448  0.3831 -0.5842
  655MOL0     H88370  -0.254   8.458   9.603  2.9122 -0.2266 -1.3189
  655MOL0     H88371  -0.224   8.597   9.717  1.1707 -0.7729 -1.9641
  655MOL0     H88372  -0.449   8.505   9.730 -4.3609  0.5851 -0.6900
  655MOL0     H88373  -0.458   8.676   9.660  0.3900 -0.7232  3.2579
  655MOL0     H88374  -0.465   8.421   9.510  0.0632 -0.4915  1.4778
  655MOL0     H88375  -0.479   8.579   9.433  0.5534  1.2481  0.6333
  655MOL0     H88376  -0.711   8.689   9.428 -1.2489  0.9459  0.0837
  655MOL0     H88377  -0.987   8.648   9.378 -0.2709  1.8956  0.3224
  655MOL0     H88378  -1.046   8.491   9.443  1.3119 -0.4619  1.8059
  655MOL0     H88379  -1.033   8.739   9.603  0.7354 -0.9844  1.8176
  655MOL0     H88380  -1.084   8.584   9.670  1.2163  0.8993  0.7207
  655MOL0     H88381  -1.271   8.710   9.623  3.9588 -1.5744  2.3366
  655MOL0     H88382  -1.287   8.574   9.516  2.5133 -0.7991  0.2090
  655MOL0     H88383  -1.214   8.704   9.316  1.4932  0.1125 -0.3693
  655MOL0     H88384  -1.161   8.831   9.427  1.1466 -1.7995 -3.3465
  655MOL0     H88385  -1.349   8.581   9.239  0.8014  1.4002  1.8258
  655MOL0     H88386  -1.434   8.397   9.117  0.2997 -1.8911  1.1038
  655MOL0     H88387  -1.570   8.334   9.201 -1.1762 -1.6044 -3.1770
  655MOL0     H88388  -1.590   8.410   9.044  0.9620 -0.2197 -1.0403
  655MOL0     H88389  -2.149   8.589   9.315 -0.2777 -0.1770  1.1864
  655MOL0     H88390  -2.355   8.512   9.246 -2.6989 -2.3206 -1.1332
  655MOL0     H88391  -2.478   8.334   9.178 -4.8281  0.0315  3.7106
  655MOL0     H88392  -2.565   8.478   9.142 -0.2150 -1.0631  1.4145
  655MOL0     H88393  -2.588   8.221   8.945 -3.7406 -3.2657  1.8404
  655MOL0     H88394  -2.692   8.244   9.077 -0.6831  1.8646  0.6700
  655MOL0     H88395  -2.638   8.456   8.853  0.8279  0.8192  1.8663
  655MOL0     H88396  -2.769   8.477   8.969 -2.6081 -0.4417 -1.3064
  655MOL0     H88397  -2.757   8.244   8.792 -0.9726  0.3776 -1.8315
  655MOL0     H88398  -2.889   8.291   8.895 -2.9191 -0.4450 -4.3280
  655MOL0     H88399  -2.805   8.452   8.649 -1.5051  1.8221 -1.5389
  655MOL0     H88400  -2.924   8.502   8.770  0.8559 -1.9038  3.2343
  655MOL0     H88401  -3.023   8.397   8.555 -0.9416  1.3258  0.4964
  655MOL0     H88402  -2.923   8.253   8.589  0.7371  1.5552 -0.5299
  655MOL0     H88403  -3.154   8.353   8.775 -0.1932  1.5077 -3.7475
  655MOL0     H88404  -3.041   8.212   8.802 -0.8151 -0.8493  0.1844
  655MOL0     H88405  -3.153   8.109   8.605 -1.5758 -0.4669 -0.0586
  655MOL0     H88406  -3.231   8.263   8.573  2.6342  2.0781 -0.1347
  655MOL0     H88407  -2.205   8.395   8.865 -1.4065 -2.1099  1.6962
  655MOL0     H88408  -1.972   8.491   8.937 -0.4869 -1.9571 -0.4532
  655MOL0     H88409  -1.812   8.751   9.306  0.1656  1.6161 -0.9844
  655MOL0     H88410  -1.617   8.864   9.419 -0.5257 -0.1802  0.1036
  655MOL0     H88411   0.362   9.006   9.491 -0.9498 -0.3503  0.9920
  655MOL0     H88412   0.600   9.043   9.450  2.3638 -2.2924 -0.5159
  655MOL0     H88413   1.069   9.162   9.463 -1.1458 -0.6278  0.9061
  655MOL0     H88414   1.313   9.126   9.483  0.8400 -0.7309  0.6311
  655MOL0     H88415   1.528   9.047   9.483  2.0290  2.2954  1.2118
  655MOL0     H88416   1.502   9.097   9.652 -0.5500 -0.3657  0.5964
  655MOL0     H88417   1.641   8.902   9.716 -0.3556  0.2284 -1.0575
  655MOL0     H88418   1.747   9.016   9.619  0.0125  1.7759  3.0956
  655MOL0     H88419   1.654   8.865   9.428 -2.0687  0.1113  0.3908
  655MOL0     H88420   1.626   8.754   9.560 -0.3769  0.1589 -0.1772
  655MOL0     H88421   1.857   8.743   9.638 -0.4129 -3.4025 -1.6865
  655MOL0     H88422   1.917   8.867   9.528 -2.0987  2.0901  0.2025
  655MOL0     H88423   1.977   8.491   9.350  3.1765  2.4665 -1.0035
  655MOL0     H88424   1.235   8.780   9.725  1.7098 -0.1501 -1.7962
  655MOL0     H88425   0.987   8.799   9.670 -1.9568  0.6722 -0.6092
  656MOL0     O88426   0.222   1.867   3.887  0.8611 -0.2153  0.0661
  656MOL0     C88427   0.322   1.940   3.903 -0.2447 -0.0663  0.0228
  656MOL0     O88428   0.328   2.076   3.945  0.5817  0.2861 -0.0567
  656MOL0     C88429   0.213   2.159   3.965 -0.6108  0.0830 -0.0129
  656MOL0     C88430   0.081   2.120   3.984  0.0097  0.3956  0.0287
  656MOL0     C88431  -0.023   2.211   4.005 -0.2469  0.5442 -0.7123
  656MOL0     C88432   0.003   2.348   4.015  0.0961 -0.6183 -0.1712
  656MOL0     O88433  -0.091   2.446   4.039 -0.1579 -0.3481 -0.2328
  656MOL0     C88434  -0.106   2.530   3.925 -0.5895  0.4344 -0.3903
  656MOL0     C88435  -0.255   2.531   3.885  0.3876 -0.2164  0.0932
  656MOL0     C88436  -0.343   2.586   3.999  0.4260  0.0599 -0.7761
  656MOL0     C88437  -0.480   2.567   3.940 -0.0296  0.8332 -0.4593
  656MOL0     C88438  -0.587   2.564   4.049  0.1715  0.0518 -0.0658
  656MOL0     C88439  -0.720   2.570   3.972 -0.9784 -0.3330 -0.0837
  656MOL0     C88440  -0.837   2.564   4.069  1.2981 -0.1426  0.5049
  656MOL0     C88441  -0.874   2.706   4.122  0.0078 -0.6250  0.6356
  656MOL0     N88442  -0.981   2.702   4.216 -0.2323 -0.3631 -0.7292
  656MOL0     C88443  -1.112   2.669   4.191 -0.0530 -0.1142 -0.0912
  656MOL0     C88444  -1.172   2.670   4.308  0.1540 -0.2399 -0.4471
  656MOL0     C88445  -1.319   2.652   4.338  0.1559  0.5317  0.2662
  656MOL0     C88446  -1.400   2.738   4.247 -0.0738  0.0375 -0.6234
  656MOL0     C88447  -1.541   2.765   4.304  0.1894 -0.0419  0.1207
  656MOL0     C88448  -1.635   2.647   4.274 -0.3878 -0.2561 -0.1001
  656MOL0     O88449  -1.641   2.606   4.136  0.0141  0.1649  0.4109
  656MOL0     C88450  -1.763   2.562   4.090  0.5469 -0.2191  0.5304
  656MOL0     C88451  -1.788   2.564   3.951  0.7715  0.3489  0.2863
  656MOL0     C88452  -1.905   2.517   3.900  0.1674  0.6676  0.5449
  656MOL0     C88453  -1.919   2.541   3.754 -0.1698 -0.1197  0.1613
  656MOL0     C88454  -2.006   2.465   3.983 -0.0987  0.7398 -0.2746
  656MOL0     C88455  -2.112   2.387   3.931  0.3676 -0.0293  0.4241
  656MOL0     O88456  -2.237   2.406   3.988 -0.3733 -0.6070  0.0814
  656MOL0     C88457  -2.342   2.369   3.907 -0.1680 -0.8995  0.2219
  656MOL0     C88458  -2.452   2.298   3.957  0.7397  0.3501 -0.4134
  656MOL0     C88459  -2.550   2.251   3.880  0.8683  0.4227  0.6515
  656MOL0     C88460  -2.563   2.287   3.741  0.0883  0.2792 -0.3571
  656MOL0     O88461  -2.662   2.245   3.652  0.1287 -0.0550  0.3063
  656MOL0     C88462  -2.777   2.202   3.716 -0.0664  0.1197 -0.0095
  656MOL0     C88463  -2.890   2.188   3.622  0.4763 -0.3687  0.6184
  656MOL0     C88464  -2.923   2.331   3.558  0.1044  0.9591  0.1429
  656MOL0     C88465  -3.029   2.307   3.449  0.1851 -0.9280 -0.6038
  656MOL0     C88466  -3.078   2.436   3.388  0.5935 -0.4856  0.3486
  656MOL0     C88467  -2.987   2.548   3.351 -0.3948  0.7277 -0.2718
  656MOL0     C88468  -2.875   2.496   3.260  0.2059  0.2936  0.8298
  656MOL0     C88469  -2.774   2.608   3.233  0.1155  0.7906  0.2860
  656MOL0    Cl88470  -2.660   2.640   3.382 -0.0378 -0.1715  0.2715
  656MOL0     C88471  -2.457   2.363   3.693 -0.3789 -0.2640 -0.6013
  656MOL0     C88472  -2.354   2.406   3.773  0.6478  0.6048  0.0854
  656MOL0     O88473  -2.086   2.320   3.835 -0.1130  0.9860 -0.0470
  656MOL0     C88474  -1.985   2.469   4.117  0.6714 -0.1785  0.8167
  656MOL0     C88475  -1.867   2.508   4.176 -0.1400  0.4466 -0.1642
  656MOL0     N88476  -1.076   2.697   4.408  0.2550  0.0754  0.2325
  656MOL0     N88477  -0.965   2.701   4.348  0.2011 -0.1653 -0.2336
  656MOL0     C88478   0.137   2.392   4.014  0.0681 -0.3562 -0.6008
  656MOL0     C88479   0.238   2.300   3.990 -0.0190  0.9753  0.2838
  656MOL0     C88480   0.446   1.863   3.896 -0.1445 -0.2369  0.3508
  656MOL0     C88481   0.562   1.911   3.962 -0.2985  0.0033 -0.2648
  656MOL0     C88482   0.678   1.843   3.978 -0.4518 -0.3304  0.2283
  656MOL0     C88483   0.694   1.720   3.910  0.8614 -0.1650 -0.2758
  656MOL0     O88484   0.813   1.653   3.923 -0.2743 -0.0313 -0.5025
  656MOL0     C88485   0.826   1.538   3.844 -1.4683  0.1490 -0.3235
  656MOL0     C88486   0.950   1.457   3.897  0.6058 -0.4923  0.3805
  656MOL0     C88487   0.918   1.341   3.984  1.3123 -0.0061 -0.5283
  656MOL0     C88488   1.050   1.277   4.025 -0.4708 -0.5902  0.0730
  656MOL0     C88489   1.141   1.216   3.922 -0.3538 -0.2914 -0.0807
  656MOL0     C88490   1.224   1.161   3.844  0.2762 -0.4850 -0.4714
  656MOL0     C88491   0.584   1.675   3.827 -0.0184  0.5469  0.9695
  656MOL0     C88492   0.466   1.740   3.833  0.2096  0.0905  0.6575
  656MOL0     H88493   0.046   2.017   3.983  0.8872  0.0873  0.0100
  656MOL0     H88494  -0.125   2.173   4.004 -0.2763  0.6234 -0.7572
  656MOL0     H88495  -0.071   2.629   3.953  2.5586 -0.4650 -0.7398
  656MOL0     H88496  -0.051   2.489   3.839 -0.0557 -1.1746  0.6790
  656MOL0     H88497  -0.272   2.591   3.795 -0.1910 -0.7418 -0.1553
  656MOL0     H88498  -0.285   2.429   3.859  2.5397 -1.0974  0.8367
  656MOL0     H88499  -0.331   2.523   4.087  1.8864  0.8454 -0.3671
  656MOL0     H88500  -0.325   2.691   4.026 -1.1758 -0.5259  3.2555
  656MOL0     H88501  -0.507   2.646   3.869  0.5520  2.5815  1.1516
  656MOL0     H88502  -0.491   2.469   3.894 -0.7684 -0.3404  2.0531
  656MOL0     H88503  -0.570   2.473   4.106  1.9972  0.4569  0.1031
  656MOL0     H88504  -0.568   2.651   4.113 -1.8108 -1.1459  2.2940
  656MOL0     H88505  -0.732   2.662   3.915 -0.3576  0.4777  1.0571
  656MOL0     H88506  -0.736   2.482   3.909 -1.6573  1.0657 -1.9676
  656MOL0     H88507  -0.924   2.529   4.013 -0.3126 -0.7543  3.2024
  656MOL0     H88508  -0.818   2.492   4.149 -2.8433 -1.1885  0.7884
  656MOL0     H88509  -0.894   2.769   4.034  0.4735  0.4616  1.2905
  656MOL0     H88510  -0.787   2.757   4.163 -0.1677  0.5099 -0.3334
  656MOL0     H88511  -1.163   2.632   4.103 -1.9513  1.0312  0.4665
  656MOL0     H88512  -1.344   2.549   4.311 -0.8651  0.2325  2.2069
  656MOL0     H88513  -1.338   2.670   4.444 -2.0235 -1.7288  0.3673
  656MOL0     H88514  -1.402   2.697   4.145 -1.3799  1.8528 -1.3664
  656MOL0     H88515  -1.351   2.836   4.246  0.5109 -0.1596  1.9187
  656MOL0     H88516  -1.587   2.844   4.244 -0.0408 -1.5053 -1.7082
  656MOL0     H88517  -1.531   2.793   4.410  0.9634 -0.4297  0.1566
  656MOL0     H88518  -1.731   2.678   4.316  0.0420  1.3374 -0.2407
  656MOL0     H88519  -1.597   2.565   4.336 -2.1562 -0.4828  0.7303
  656MOL0     H88520  -1.710   2.604   3.887 -1.1951  4.0049 -0.1361
  656MOL0     H88521  -1.935   2.448   3.699 -0.7558 -0.1376  0.3523
  656MOL0     H88522  -2.004   2.608   3.735  0.1708  0.7253  1.4799
  656MOL0     H88523  -1.825   2.584   3.717  0.4966 -2.6516 -1.3298
  656MOL0     H88524  -2.451   2.257   4.058  2.0088 -1.9045 -1.2546
  656MOL0     H88525  -2.620   2.175   3.913  1.2975  0.5065  1.7750
  656MOL0     H88526  -2.753   2.107   3.764 -0.7968 -1.2972 -2.3128
  656MOL0     H88527  -2.811   2.278   3.786 -2.0585  1.5124 -2.3406
  656MOL0     H88528  -2.864   2.109   3.551 -0.2882 -0.7841  0.7893
  656MOL0     H88529  -2.987   2.167   3.668  0.2016 -0.1606  0.1378
  656MOL0     H88530  -2.835   2.379   3.513 -0.5281 -0.9814 -3.5709
  656MOL0     H88531  -2.962   2.380   3.647  3.4114  1.1337  1.6645
  656MOL0     H88532  -2.997   2.246   3.364  1.0676 -0.7347 -0.4253
  656MOL0     H88533  -3.108   2.247   3.496 -1.1316 -0.3313 -2.0078
  656MOL0     H88534  -3.144   2.481   3.462  2.3939 -0.3434  1.9531
  656MOL0     H88535  -3.140   2.410   3.302 -0.7958  0.1102  1.1413
  656MOL0     H88536  -3.046   2.631   3.311 -0.7481  0.5188 -0.1799
  656MOL0     H88537  -2.938   2.590   3.439  2.2145 -2.2091 -0.1333
  656MOL0     H88538  -2.921   2.468   3.165  1.4754  0.9720 -0.0134
  656MOL0     H88539  -2.817   2.412   3.302  1.2282  1.7164  2.4297
  656MOL0     H88540  -2.838   2.690   3.200  1.6358  2.2590  0.8373
  656MOL0     H88541  -2.715   2.566   3.152 -0.9242 -0.1133 -0.0167
  656MOL0     H88542  -2.468   2.396   3.590 -2.2762  0.5305 -0.1837
  656MOL0     H88543  -2.271   2.463   3.732 -0.0677  0.6098 -1.4130
  656MOL0     H88544  -2.064   2.437   4.184 -1.0348  0.8456 -0.6339
  656MOL0     H88545  -1.840   2.499   4.280 -1.1917  1.3049  0.1982
  656MOL0     H88546   0.172   2.494   4.024  1.7489 -0.8346 -1.2100
  656MOL0     H88547   0.340   2.336   3.998 -0.1492  1.4196  0.0184
  656MOL0     H88548   0.556   2.007   4.011  2.1209  1.0601 -1.8541
  656MOL0     H88549   0.761   1.889   4.030  0.9250 -1.9349 -0.4495
  656MOL0     H88550   0.740   1.471   3.852 -0.7044 -0.6561  2.3212
  656MOL0     H88551   0.857   1.570   3.744  0.7928  0.7198  0.4926
  656MOL0     H88552   1.011   1.526   3.955 -0.1717  0.0064  0.6278
  656MOL0     H88553   1.014   1.435   3.811 -2.6261 -1.4232 -1.9883
  656MOL0     H88554   0.855   1.272   3.928 -1.4619 -0.2531  2.6021
  656MOL0     H88555   0.857   1.367   4.071  3.4854  0.6922  0.8705
  656MOL0     H88556   1.024   1.196   4.094  1.9073 -1.8043 -0.3295
  656MOL0     H88557   1.104   1.342   4.095 -4.9534  2.1963  1.3441
  656MOL0     H88558   1.284   1.116   3.767  0.1492  0.8959 -1.4311
  656MOL0     H88559   0.587   1.588   3.762 -0.1393  1.4146 -0.2268
  656MOL0     H88560   0.374   1.694   3.797  0.4607 -0.0254  0.1606
  657MOL0     O88561   9.646   0.570  11.099 -0.4011  0.4246 -0.5492
  657MOL0     C88562   9.645   0.675  11.025 -0.5314  0.8744  0.7139
  657MOL0     O88563   9.535   0.746  10.988 -0.4003 -0.5742  0.2237
  657MOL0     C88564   9.414   0.716  11.031  0.5026  0.3070 -0.2286
  657MOL0     C88565   9.317   0.723  10.936  0.4550  0.5266  0.2697
  657MOL0     C88566   9.182   0.707  10.962  1.1872  0.2285 -0.1935
  657MOL0     C88567   9.134   0.685  11.094 -0.2307  0.9065 -0.0146
  657MOL0     O88568   8.998   0.665  11.107 -0.3729  0.3863  0.2028
  657MOL0     C88569   8.942   0.698  11.235 -0.4029  0.7014  0.0404
  657MOL0     C88570   8.793   0.725  11.217 -0.2374 -0.3757  0.8910
  657MOL0     C88571   8.734   0.788  11.348 -0.3480  0.1952 -0.4668
  657MOL0     C88572   8.580   0.824  11.333 -0.9532  0.3214  0.1338
  657MOL0     C88573   8.516   0.848  11.473 -0.1311  0.6171  0.0158
  657MOL0     C88574   8.368   0.874  11.467 -0.6299  0.4024 -0.7905
  657MOL0     C88575   8.311   0.883  11.608 -0.3538  0.7862  0.1107
  657MOL0     C88576   8.157   0.914  11.601  1.2107  0.3036 -0.2964
  657MOL0     N88577   8.075   0.823  11.515  0.2134  0.3914  0.2088
  657MOL0     C88578   7.982   0.866  11.426 -0.4191 -0.0523  0.2691
  657MOL0     C88579   7.905   0.763  11.390  0.3484 -0.3920  0.9481
  657MOL0     C88580   7.795   0.765  11.287  0.9341  0.8926  0.0906
  657MOL0     C88581   7.654   0.761  11.357  0.7418 -0.2090  0.6478
  657MOL0     C88582   7.609   0.622  11.414  0.1190 -0.1849  0.1565
  657MOL0     C88583   7.469   0.635  11.470  0.8718 -1.1561  0.0237
  657MOL0     O88584   7.426   0.515  11.521  0.2432  0.4549 -0.7579
  657MOL0     C88585   7.293   0.504  11.566 -0.8410 -1.0398  0.0329
  657MOL0     C88586   7.210   0.616  11.581 -0.2940  0.3786 -0.7510
  657MOL0     C88587   7.082   0.602  11.640 -0.3762  0.5078 -0.8705
  657MOL0     C88588   6.999   0.723  11.640  0.4787  0.5591 -0.1430
  657MOL0     C88589   7.043   0.470  11.677 -0.5249 -0.7831  0.2874
  657MOL0     C88590   6.899   0.430  11.715  0.7701 -0.4475  1.1569
  657MOL0     O88591   6.871   0.330  11.796 -0.8207  0.4392  0.4996
  657MOL0     C88592   6.755   0.262  11.807 -0.1971  0.8508 -0.6974
  657MOL0     C88593   6.680   0.266  11.924  0.6446 -0.6635 -0.6735
  657MOL0     C88594   6.568   0.189  11.927 -0.1129 -0.3950 -0.1978
  657MOL0     C88595   6.528   0.105  11.822 -0.6701 -0.6904  0.2901
  657MOL0     O88596   6.412   0.036  11.834  0.4544 -0.2310  0.0579
  657MOL0     C88597   6.333   0.027  11.709 -0.2142  0.7629 -0.8279
  657MOL0     C88598   6.189   0.006  11.761  0.0779  0.0627  0.0004
  657MOL0     C88599   6.100  -0.037  11.641  0.5891  0.5686 -0.4534
  657MOL0     C88600   5.958  -0.079  11.692 -0.6072  0.7068 -1.0158
  657MOL0     C88601   5.860  -0.120  11.590  0.8201 -0.7355  0.4653
  657MOL0     C88602   5.712  -0.129  11.630  0.3794 -0.1317 -0.0405
  657MOL0     C88603   5.685  -0.226  11.744 -0.8259  0.0920  0.0929
  657MOL0     C88604   5.539  -0.215  11.782 -0.4848  0.3171  0.3008
  657MOL0    Cl88605   5.414  -0.255  11.654  0.4039 -0.2308 -0.0293
  657MOL0     C88606   6.608   0.091  11.709  0.2007  0.3246  0.0411
  657MOL0     C88607   6.725   0.168  11.701 -0.4799  0.0330 -0.4022
  657MOL0     O88608   6.802   0.483  11.650 -0.7409  0.2200  0.7342
  657MOL0     C88609   7.130   0.360  11.653  1.1724 -0.0959 -0.2131
  657MOL0     C88610   7.252   0.374  11.594  0.1451 -0.0046 -0.7628
  657MOL0     N88611   7.945   0.656  11.471  0.0439 -0.1545 -0.2669
  657MOL0     N88612   8.040   0.691  11.544  0.3057  0.3225 -0.9747
  657MOL0     C88613   9.232   0.680  11.196  0.6997  0.2449  0.0251
  657MOL0     C88614   9.370   0.694  11.162 -0.0545  0.1281 -0.1728
  657MOL0     C88615   9.780   0.716  10.979  0.7902 -0.2554  0.4408
  657MOL0     C88616   9.792   0.824  10.888 -0.6472  0.4060 -0.2224
  657MOL0     C88617   9.913   0.869  10.849 -0.3983  0.8842  0.3949
  657MOL0     C88618  10.027   0.827  10.920  0.7604  0.5975 -1.0956
  657MOL0     O88619  10.144   0.883  10.885 -0.1124  0.1819 -0.0803
  657MOL0     C88620  10.215   0.933  10.999  0.6672 -0.5888  0.3577
  657MOL0     C88621  10.196   1.086  10.993 -0.1395  0.8257  0.1752
  657MOL0     C88622  10.313   1.161  11.069 -0.2937  0.8197 -0.0440
  657MOL0     C88623  10.315   1.309  11.019  0.0703 -0.4590 -0.5242
  657MOL0     C88624  10.207   1.393  11.077 -0.3866  0.3207  0.0616
  657MOL0     C88625  10.137   1.474  11.127 -0.7871 -0.1192 -0.9122
  657MOL0     C88626  10.013   0.720  11.013 -0.3303 -0.0445  0.5017
  657MOL0     C88627   9.891   0.661  11.040  0.2411  0.4817  0.7577
  657MOL0     H88628   9.338   0.731  10.829 -1.5839 -2.4020 -0.4990
  657MOL0     H88629   9.109   0.717  10.883 -0.7601 -0.9606  1.3339
  657MOL0     H88630   8.956   0.612  11.301  0.1737  0.2545 -0.6479
  657MOL0     H88631   8.995   0.782  11.280  0.1329  1.4324 -1.8670
  657MOL0     H88632   8.797   0.797  11.135  0.2800  0.1275  1.3588
  657MOL0     H88633   8.744   0.630  11.190 -0.7461 -1.7387  5.6861
  657MOL0     H88634   8.748   0.714  11.428 -2.3688 -1.5074 -1.5745
  657MOL0     H88635   8.788   0.880  11.369 -0.7950  0.1966  0.7284
  657MOL0     H88636   8.573   0.914  11.271  0.0381 -0.3574 -1.0060
  657MOL0     H88637   8.531   0.745  11.275 -1.0560  2.0919 -2.3600
  657MOL0     H88638   8.540   0.760  11.534  0.8578  0.7843 -0.1096
  657MOL0     H88639   8.567   0.935  11.515 -0.0048  0.6768 -0.2582
  657MOL0     H88640   8.345   0.962  11.407  2.3749  1.5024 -0.4775
  657MOL0     H88641   8.322   0.791  11.413 -1.0183 -0.0460  0.1994
  657MOL0     H88642   8.337   0.791  11.661 -1.9443  0.8892  1.1538
  657MOL0     H88643   8.375   0.957  11.659  0.9485 -0.8592  0.9783
  657MOL0     H88644   8.152   1.014  11.558  2.3502  0.5566  0.1319
  657MOL0     H88645   8.115   0.913  11.702  1.6904 -3.3072  0.0281
  657MOL0     H88646   7.973   0.972  11.404 -2.0480 -0.7120 -2.8705
  657MOL0     H88647   7.792   0.849  11.217 -0.7801 -0.3907 -1.4858
  657MOL0     H88648   7.803   0.665  11.244  0.1041  1.6072 -1.8179
  657MOL0     H88649   7.578   0.799  11.287 -1.1326 -1.1881  2.0523
  657MOL0     H88650   7.655   0.823  11.446  2.6215 -0.2200  0.6650
  657MOL0     H88651   7.682   0.592  11.490 -0.4102 -0.7765  0.4421
  657MOL0     H88652   7.603   0.557  11.327 -3.0053  2.5377 -1.9259
  657MOL0     H88653   7.407   0.655  11.382  0.5852 -1.6477  0.1144
  657MOL0     H88654   7.465   0.711  11.549 -0.8198 -2.8811  1.7172
  657MOL0     H88655   7.249   0.712  11.549  3.6602 -0.0212  2.0789
  657MOL0     H88656   6.908   0.701  11.583  1.3927  0.7850 -1.7527
  657MOL0     H88657   6.974   0.737  11.746  0.2792 -3.8046  0.5693
  657MOL0     H88658   7.048   0.809  11.593  1.2695  0.2871  0.1791
  657MOL0     H88659   6.697   0.340  12.001 -2.5539 -1.2953  0.7655
  657MOL0     H88660   6.508   0.221  12.011 -1.4292  0.8719 -1.5737
  657MOL0     H88661   6.344   0.120  11.653  0.5858  1.2214  0.0580
  657MOL0     H88662   6.367  -0.057  11.647  2.9233  0.3590  1.1811
  657MOL0     H88663   6.179  -0.074  11.835  0.5969 -0.5382 -0.5608
  657MOL0     H88664   6.144   0.095  11.807 -2.2724 -0.8709 -0.3567
  657MOL0     H88665   6.135  -0.119  11.578 -1.3916  0.0860 -1.0112
  657MOL0     H88666   6.098   0.046  11.571  0.0226  0.2659 -0.8037
  657MOL0     H88667   5.960  -0.156  11.770 -0.3785 -1.6032 -3.1866
  657MOL0     H88668   5.928   0.017  11.734 -0.9047 -0.2116  0.9990
  657MOL0     H88669   5.881  -0.221  11.554  3.3403 -0.2501  0.4038
  657MOL0     H88670   5.871  -0.050  11.507  3.5957  2.6571  3.4182
  657MOL0     H88671   5.680  -0.028  11.661  2.3054  0.3408  0.5368
  657MOL0     H88672   5.652  -0.158  11.544 -0.2269 -1.6016  0.8366
  657MOL0     H88673   5.751  -0.204  11.829 -1.4489  1.8917  0.1618
  657MOL0     H88674   5.713  -0.326  11.708  1.5249  1.7133 -3.1502
  657MOL0     H88675   5.525  -0.109  11.804  2.6464  2.0663 -4.4840
  657MOL0     H88676   5.525  -0.273  11.874  4.7416 -1.1131  0.5186
  657MOL0     H88677   6.586   0.002  11.651  0.2688 -0.1509  0.7330
  657MOL0     H88678   6.805   0.149  11.630 -1.7311  0.9795 -2.1494
  657MOL0     H88679   7.086   0.264  11.675 -2.8470  0.8549 -3.0725
  657MOL0     H88680   7.318   0.288  11.588  0.0106 -0.0132 -3.6520
  657MOL0     H88681   9.200   0.680  11.300 -2.9522  0.9603 -0.9265
  657MOL0     H88682   9.443   0.690  11.243 -0.2851  2.2576  0.1910
  657MOL0     H88683   9.708   0.880  10.847 -1.6892 -0.2060  1.0054
  657MOL0     H88684   9.918   0.956  10.784  0.7484  1.2201  0.9089
  657MOL0     H88685  10.175   0.911  11.098 -1.7203 -0.1369 -0.4489
  657MOL0     H88686  10.321   0.907  10.997  0.9626  0.1536  3.1325
  657MOL0     H88687  10.107   1.124  11.042  1.0093  2.9821  0.6869
  657MOL0     H88688  10.186   1.121  10.890 -2.5063 -0.5661 -0.1586
  657MOL0     H88689  10.406   1.120  11.030 -3.2958 -2.4110 -4.9296
  657MOL0     H88690  10.304   1.153  11.178  2.4227 -0.5021  0.1588
  657MOL0     H88691  10.308   1.320  10.910  1.6103 -0.7153 -0.6755
  657MOL0     H88692  10.411   1.358  11.037 -0.3382  0.9592 -1.8762
  657MOL0     H88693  10.064   1.535  11.178 -1.5479 -1.7359  0.0177
  657MOL0     H88694  10.103   0.687  11.063  0.2003  0.7230  0.0775
  657MOL0     H88695   9.895   0.599  11.128 -0.4493 -1.0619 -0.2649
  658MOL0     O88696   1.438   4.819   5.907 -0.3834  0.2348  0.1863
  658MOL0     C88697   1.491   4.781   6.015 -0.8741 -0.1650  0.1880
  658MOL0     O88698   1.422   4.760   6.133  0.2313 -0.1859 -0.0839
  658MOL0     C88699   1.286   4.776   6.149  0.1009  0.2164 -0.2506
  658MOL0     C88700   1.183   4.800   6.056 -0.2469  0.4256 -0.3314
  658MOL0     C88701   1.046   4.812   6.093  0.5393  0.4037 -0.6420
  658MOL0     C88702   1.010   4.790   6.229  0.1922 -0.2958 -0.1420
  658MOL0     O88703   0.885   4.800   6.286 -0.4912  0.6263  0.6112
  658MOL0     C88704   0.788   4.870   6.214  0.8283 -0.2675 -0.2088
  658MOL0     C88705   0.662   4.876   6.300  0.5745 -0.2975  0.2867
  658MOL0     C88706   0.552   4.963   6.243  0.3428 -0.3498  0.0118
  658MOL0     C88707   0.440   4.967   6.339  0.0183  0.7704 -0.7994
  658MOL0     C88708   0.324   5.043   6.281 -1.0667  0.2130 -1.1094
  658MOL0     C88709   0.213   5.061   6.386 -0.7901 -0.3276 -0.1464
  658MOL0     C88710   0.149   4.922   6.439  0.2481  0.1736 -0.9113
  658MOL0     C88711   0.037   4.949   6.539 -0.8080  0.0008 -0.0150
  658MOL0     N88712  -0.082   4.988   6.469 -0.6478 -0.4708  0.0832
  658MOL0     C88713  -0.153   5.102   6.515 -0.1286 -0.1062 -0.1403
  658MOL0     C88714  -0.274   5.096   6.469 -0.3549 -1.0121  0.1984
  658MOL0     C88715  -0.392   5.183   6.477  0.4850  0.7847  0.7271
  658MOL0     C88716  -0.466   5.171   6.616 -1.1744  0.0567 -1.1907
  658MOL0     C88717  -0.585   5.267   6.637 -0.5013 -0.6191  0.0259
  658MOL0     C88718  -0.718   5.217   6.590  0.7996  0.9401  0.4878
  658MOL0     O88719  -0.751   5.105   6.684 -0.0556  0.0363 -0.2185
  658MOL0     C88720  -0.884   5.066   6.700 -0.6810 -0.2503 -0.4877
  658MOL0     C88721  -1.000   5.153   6.672  0.1377  0.3541  0.3908
  658MOL0     C88722  -1.134   5.100   6.696  0.0206 -0.4722  0.8947
  658MOL0     C88723  -1.253   5.183   6.639 -0.1295  0.7349  0.0961
  658MOL0     C88724  -1.151   4.969   6.749 -0.6097 -0.1948 -0.4903
  658MOL0     C88725  -1.278   4.924   6.803 -0.3563 -0.0358 -0.3793
  658MOL0     O88726  -1.309   4.789   6.810 -0.0187 -0.0379  0.9095
  658MOL0     C88727  -1.415   4.758   6.892  0.4122 -0.3580  0.4649
  658MOL0     C88728  -1.544   4.785   6.838 -0.6336 -0.5833 -0.4824
  658MOL0     C88729  -1.662   4.737   6.904  0.0025 -0.3535  0.1476
  658MOL0     C88730  -1.648   4.656   7.016 -0.0124  0.8155 -0.6507
  658MOL0     O88731  -1.757   4.622   7.084 -0.5986  0.4008 -0.3242
  658MOL0     C88732  -1.849   4.531   7.020 -0.1579 -0.2439 -0.1538
  658MOL0     C88733  -1.976   4.603   7.002  1.5825 -0.3960  0.0845
  658MOL0     C88734  -2.091   4.516   6.948  0.0766  0.0291 -0.3566
  658MOL0     C88735  -2.227   4.596   6.954 -0.2446 -0.1853 -0.5132
  658MOL0     C88736  -2.349   4.524   6.906 -0.7094  0.1132 -0.3415
  658MOL0     C88737  -2.467   4.612   6.934 -0.0007 -0.0337 -0.5234
  658MOL0     C88738  -2.591   4.552   6.886 -0.0783  0.4967  0.4702
  658MOL0     C88739  -2.722   4.618   6.936 -0.1653  0.5403 -1.1025
  658MOL0    Cl88740  -2.732   4.778   6.867 -0.0851  0.1955  0.2764
  658MOL0     C88741  -1.519   4.637   7.074  0.6638  0.0585  0.9090
  658MOL0     C88742  -1.403   4.682   7.006  0.2286  1.0123  0.1292
  658MOL0     O88743  -1.356   5.014   6.829  0.4670 -0.0298 -0.7763
  658MOL0     C88744  -1.033   4.896   6.778 -0.1744 -0.1673 -0.5681
  658MOL0     C88745  -0.904   4.939   6.751 -1.0162 -0.3035 -0.1945
  658MOL0     N88746  -0.284   4.978   6.396  0.7428 -0.3237  0.8456
  658MOL0     N88747  -0.171   4.914   6.397 -0.1422 -0.5725  0.0257
  658MOL0     C88748   1.114   4.768   6.316  0.5232  0.5503  0.4149
  658MOL0     C88749   1.249   4.774   6.280 -1.0218 -0.0644 -0.1272
  658MOL0     C88750   1.636   4.769   6.018  0.3746 -0.2590  0.8242
  658MOL0     C88751   1.695   4.749   6.131 -0.1464 -0.0563  0.5325
  658MOL0     C88752   1.835   4.752   6.153  0.4371  0.4490  0.8486
  658MOL0     C88753   1.910   4.796   6.045 -1.8256  0.3370  0.1915
  658MOL0     O88754   2.051   4.803   6.047 -0.2768  0.2193 -0.2147
  658MOL0     C88755   2.121   4.764   6.165  0.1703  0.9420 -0.1909
  658MOL0     C88756   2.269   4.796   6.143  0.3339  0.3451 -0.9898
  658MOL0     C88757   2.339   4.713   6.039  0.6743  0.5092  0.0944
  658MOL0     C88758   2.470   4.775   5.995  0.2733 -0.1611  0.2698
  658MOL0     C88759   2.563   4.791   6.112 -0.0592 -0.6913  1.2843
  658MOL0     C88760   2.636   4.799   6.204 -0.2176 -0.8135 -0.1832
  658MOL0     C88761   1.847   4.817   5.920  0.0704 -0.4906  0.6635
  658MOL0     C88762   1.709   4.810   5.900 -0.0354 -0.2946 -0.4830
  658MOL0     H88763   1.210   4.800   5.951  1.5736 -0.8578  0.0870
  658MOL0     H88764   0.962   4.832   6.027  0.6151 -0.2908 -0.9622
  658MOL0     H88765   0.825   4.973   6.207  1.0440 -0.4236 -1.6451
  658MOL0     H88766   0.768   4.842   6.110 -1.4904  0.5070 -0.0198
  658MOL0     H88767   0.625   4.777   6.326  2.2698 -0.5908  1.7741
  658MOL0     H88768   0.693   4.929   6.391  1.8132  2.0870 -1.3935
  658MOL0     H88769   0.586   5.061   6.210  0.5453  0.3688  2.1767
  658MOL0     H88770   0.513   4.920   6.150 -1.1385  1.7581 -0.4193
  658MOL0     H88771   0.407   4.864   6.355  1.1425  0.2846 -1.4609
  658MOL0     H88772   0.475   5.003   6.437  4.5402 -2.5920 -0.8349
  658MOL0     H88773   0.350   5.143   6.247  0.9211 -0.7234 -2.6030
  658MOL0     H88774   0.299   4.986   6.191  1.4767 -0.4567 -1.4908
  658MOL0     H88775   0.250   5.120   6.470  0.4427  0.4634 -1.2065
  658MOL0     H88776   0.140   5.117   6.327 -1.2625 -1.0472 -0.2570
  658MOL0     H88777   0.116   4.854   6.360 -0.5389  0.4582 -0.8454
  658MOL0     H88778   0.225   4.871   6.499 -3.1428 -0.9133  2.9325
  658MOL0     H88779   0.078   5.016   6.616  1.5249 -2.4004  1.0190
  658MOL0     H88780   0.017   4.858   6.598  0.5934 -1.0010 -1.0136
  658MOL0     H88781  -0.115   5.183   6.577  3.4319 -2.0900  0.5208
  658MOL0     H88782  -0.363   5.284   6.448  3.5071 -0.1856  0.0722
  658MOL0     H88783  -0.470   5.159   6.404 -1.0350 -0.4179  2.6299
  658MOL0     H88784  -0.394   5.189   6.696 -1.5520 -1.2264 -0.5360
  658MOL0     H88785  -0.496   5.069   6.642  4.7403 -1.1077  3.0023
  658MOL0     H88786  -0.557   5.367   6.602 -0.3863 -0.3506  0.8516
  658MOL0     H88787  -0.583   5.277   6.746  1.8982 -1.2454  0.0836
  658MOL0     H88788  -0.718   5.190   6.484 -3.2907 -0.3277  0.6240
  658MOL0     H88789  -0.778   5.308   6.597  1.0722  0.9840  3.7106
  658MOL0     H88790  -0.995   5.254   6.632  1.1534  0.2560  0.2560
  658MOL0     H88791  -1.320   5.124   6.576  3.2050 -2.4434 -0.8708
  658MOL0     H88792  -1.304   5.240   6.717 -0.6212 -1.8384  1.7679
  658MOL0     H88793  -1.225   5.259   6.565  1.6542  0.9632  0.9396
  658MOL0     H88794  -1.543   4.834   6.741  3.2402 -0.2484 -0.4685
  658MOL0     H88795  -1.761   4.748   6.861 -0.7165  0.5263  1.9101
  658MOL0     H88796  -1.817   4.494   6.923  0.1172 -2.3971  0.7162
  658MOL0     H88797  -1.861   4.441   7.080  0.9624  1.3639  2.6904
  658MOL0     H88798  -2.007   4.646   7.098  0.0601  1.5916 -1.2140
  658MOL0     H88799  -1.964   4.682   6.928 -1.1622 -1.2843 -1.4826
  658MOL0     H88800  -2.092   4.418   6.997 -0.3621  0.3026  0.1927
  658MOL0     H88801  -2.057   4.502   6.845  0.0177  0.5425 -0.4461
  658MOL0     H88802  -2.237   4.619   7.061  0.1077 -2.6436  0.1039
  658MOL0     H88803  -2.213   4.691   6.901 -0.7356 -0.0723 -0.4418
  658MOL0     H88804  -2.364   4.427   6.954 -0.9150 -0.1280 -0.8842
  658MOL0     H88805  -2.328   4.517   6.799 -0.1645  0.2659 -0.2511
  658MOL0     H88806  -2.480   4.637   7.039 -0.8699 -1.2480 -0.3194
  658MOL0     H88807  -2.459   4.712   6.890  0.2095  2.5595  4.6921
  658MOL0     H88808  -2.598   4.448   6.920  0.4857 -0.2651 -1.5929
  658MOL0     H88809  -2.587   4.539   6.777  2.1553  0.4884  0.5124
  658MOL0     H88810  -2.725   4.628   7.045 -1.3106  0.5016 -1.1194
  658MOL0     H88811  -2.807   4.560   6.899 -1.4624  1.8809 -0.3408
  658MOL0     H88812  -1.516   4.589   7.171 -1.6863  1.7953  1.9287
  658MOL0     H88813  -1.306   4.648   7.039  0.0337 -1.8089 -1.8550
  658MOL0     H88814  -1.039   4.793   6.812  0.9507 -0.7145 -1.8813
  658MOL0     H88815  -0.822   4.871   6.775  1.4420  0.9892 -4.0104
  658MOL0     H88816   1.091   4.774   6.422 -2.2377 -0.7473 -0.0200
  658MOL0     H88817   1.327   4.785   6.355  0.3963 -0.2540 -1.5064
  658MOL0     H88818   1.639   4.734   6.222 -0.1888  1.1366  0.7200
  658MOL0     H88819   1.873   4.714   6.247  0.5932  0.2528  0.7052
  658MOL0     H88820   2.077   4.821   6.247 -0.2485 -0.3853  0.5465
  658MOL0     H88821   2.100   4.660   6.192  1.8219  0.7720  0.5519
  658MOL0     H88822   2.319   4.778   6.239  2.1129 -1.5585 -2.1840
  658MOL0     H88823   2.270   4.903   6.123  0.0558  0.6879  0.6957
  658MOL0     H88824   2.269   4.700   5.955  0.5171  1.0293  0.1420
  658MOL0     H88825   2.358   4.611   6.075  0.4579  0.9261  1.4133
  658MOL0     H88826   2.444   4.876   5.961 -1.1091 -0.4541  0.4352
  658MOL0     H88827   2.520   4.724   5.912  0.1819 -2.3841  1.5129
  658MOL0     H88828   2.701   4.799   6.289 -0.5374  1.7764  0.1350
  658MOL0     H88829   1.904   4.855   5.837 -2.7828  1.3219 -0.6037
  658MOL0     H88830   1.670   4.836   5.802 -0.7448  0.4625 -0.0168
  659MOL0     O88831  11.252   9.066  10.166 -0.0433 -0.2206  1.0450
  659MOL0     C88832  11.322   8.996  10.091 -0.2073  0.2894  0.5156
  659MOL0     O88833  11.280   8.939   9.985 -0.1486 -0.3791  0.1498
  659MOL0     C88834  11.147   8.934   9.971 -0.0705 -0.4255 -0.1870
  659MOL0     C88835  11.059   8.887  10.070  0.2213  0.5095  0.0281
  659MOL0     C88836  10.925   8.847  10.047 -0.2680  0.2740 -0.0395
  659MOL0     C88837  10.872   8.864   9.915 -0.0471  0.1970 -0.1023
  659MOL0     O88838  10.745   8.812   9.890 -0.4929 -0.2774  0.7378
  659MOL0     C88839  10.662   8.892   9.801 -0.0400  0.0423 -0.8955
  659MOL0     C88840  10.632   9.040   9.854  0.2233  0.6729 -0.0678
  659MOL0     C88841  10.533   9.044   9.975 -1.4608  0.2051 -0.3006
  659MOL0     C88842  10.515   9.187  10.021  0.4769  0.4186  0.1120
  659MOL0     C88843  10.419   9.186  10.135  0.3059 -0.2969  0.2732
  659MOL0     C88844  10.400   9.326  10.181  0.7908 -1.6721  0.3439
  659MOL0     C88845  10.308   9.335  10.299 -0.0729  0.4307  0.5041
  659MOL0     C88846  10.161   9.294  10.277 -0.0585 -0.8773 -0.5181
  659MOL0     N88847  10.133   9.152  10.306  0.7344 -0.1401 -0.2892
  659MOL0     C88848  10.169   9.083  10.416 -0.2609 -0.3345 -0.2367
  659MOL0     C88849  10.102   8.964  10.395 -0.2795 -0.0396 -0.6017
  659MOL0     C88850  10.086   8.853  10.498 -0.2233 -0.4273 -0.1178
  659MOL0     C88851  10.112   8.903  10.652  0.3401 -0.2130  0.4885
  659MOL0     C88852   9.984   8.973  10.698  0.0060 -0.0336 -0.3839
  659MOL0     C88853   9.974   8.965  10.850  0.2171  0.0422 -0.0677
  659MOL0     O88854   9.927   8.833  10.896  0.4600  0.3104  0.4675
  659MOL0     C88855   9.806   8.783  10.872  0.7551 -0.3697 -0.6077
  659MOL0     C88856   9.708   8.850  10.802  1.1600  0.0908 -0.6703
  659MOL0     C88857   9.581   8.791  10.789 -0.5532  0.1926 -1.1361
  659MOL0     C88858   9.478   8.875  10.714 -0.9492  0.3606 -0.4762
  659MOL0     C88859   9.551   8.661  10.837  0.3223  0.6385  0.2653
  659MOL0     C88860   9.422   8.590  10.816  0.6642  0.1599  0.6057
  659MOL0     O88861   9.315   8.661  10.765  0.6195 -0.1331 -0.3280
  659MOL0     C88862   9.186   8.613  10.758  0.2930  0.2180 -0.3892
  659MOL0     C88863   9.100   8.643  10.651 -0.7342  0.7426  0.3130
  659MOL0     C88864   8.964   8.596  10.655  0.4317  0.3932 -0.5343
  659MOL0     C88865   8.908   8.536  10.773 -0.1606  0.2555  0.6213
  659MOL0     O88866   8.780   8.502  10.787 -0.1697 -0.1514 -0.4120
  659MOL0     C88867   8.747   8.366  10.825 -0.9780 -0.3971 -0.2643
  659MOL0     C88868   8.686   8.359  10.973  0.4982 -0.0090  0.1997
  659MOL0     C88869   8.550   8.435  10.972  0.9490  0.3035  0.0513
  659MOL0     C88870   8.531   8.476  11.120  0.1996 -0.5307  0.2929
  659MOL0     C88871   8.395   8.552  11.141 -0.3399  0.0070  0.1106
  659MOL0     C88872   8.275   8.455  11.122  0.1375 -0.5774  0.1112
  659MOL0     C88873   8.140   8.513  11.149 -0.3612  0.3013 -0.1226
  659MOL0     C88874   8.087   8.618  11.047 -0.5722  0.0735  0.0763
  659MOL0    Cl88875   8.138   8.588  10.874 -0.5314 -0.5884  0.2447
  659MOL0     C88876   9.001   8.528  10.880 -0.6109 -0.0000 -0.1551
  659MOL0     C88877   9.140   8.562  10.874  0.7179  0.6307  0.1438
  659MOL0     O88878   9.413   8.475  10.859  0.3156  0.3846  0.4119
  659MOL0     C88879   9.657   8.589  10.892 -0.1365  0.1880  0.2984
  659MOL0     C88880   9.777   8.650  10.916  0.6412  1.0039 -0.4521
  659MOL0     N88881  10.031   8.961  10.282 -0.1038  0.5570  0.2675
  659MOL0     N88882  10.057   9.074  10.226 -0.0864 -0.1180 -0.5806
  659MOL0     C88883  10.952   8.929   9.821 -0.7407 -0.7485 -0.5773
  659MOL0     C88884  11.086   8.968   9.846  0.0300 -0.4098 -0.1511
  659MOL0     C88885  11.465   8.986  10.132 -0.2366  0.7711  0.3135
  659MOL0     C88886  11.505   9.021  10.265 -0.3937  0.6678  0.2204
  659MOL0     C88887  11.639   9.015  10.300 -0.4409  0.4827  0.2629
  659MOL0     C88888  11.734   8.977  10.202 -0.3953  0.3855  0.6516
  659MOL0     O88889  11.861   8.964  10.235 -0.8358 -0.3836  0.5263
  659MOL0     C88890  11.922   9.080  10.294  0.0437 -0.3406 -0.5844
  659MOL0     C88891  12.066   9.048  10.331 -0.4656  0.5034  0.3557
  659MOL0     C88892  12.141   9.182  10.337  0.0709 -0.0626 -0.2880
  659MOL0     C88893  12.283   9.165  10.389 -0.6249  0.2333  0.0189
  659MOL0     C88894  12.340   9.294  10.423 -0.1193  0.1172  0.8432
  659MOL0     C88895  12.375   9.407  10.442  0.5603 -0.5599 -0.2373
  659MOL0     C88896  11.692   8.934  10.076 -0.0097  0.2075  0.0703
  659MOL0     C88897  11.557   8.931  10.042  0.5029 -0.3268 -0.3960
  659MOL0     H88898  11.097   8.873  10.171  2.5067 -1.6877 -1.0242
  659MOL0     H88899  10.864   8.796  10.121 -1.2698 -0.7048 -1.5076
  659MOL0     H88900  10.702   8.888   9.700  0.2323  1.9778 -0.9023
  659MOL0     H88901  10.566   8.842   9.812 -0.1858  0.4908 -0.0367
  659MOL0     H88902  10.725   9.091   9.879  0.0235  1.0281 -0.0347
  659MOL0     H88903  10.569   9.093   9.782  1.3695 -0.7771 -2.2188
  659MOL0     H88904  10.436   9.007   9.941 -1.4241 -1.0609  0.8931
  659MOL0     H88905  10.571   8.980  10.055  0.4161 -0.4386 -1.6506
  659MOL0     H88906  10.607   9.230  10.061  1.3821  0.3518 -1.8033
  659MOL0     H88907  10.483   9.245   9.934  0.1926 -2.0704 -1.5259
  659MOL0     H88908  10.324   9.143  10.100  1.1135  0.2934 -2.9680
  659MOL0     H88909  10.443   9.117  10.216  1.4256 -0.5400 -0.2439
  659MOL0     H88910  10.499   9.371  10.192  1.1818 -1.3113 -3.4353
  659MOL0     H88911  10.347   9.387  10.107  1.6825 -0.8784  0.3464
  659MOL0     H88912  10.347   9.269  10.377  1.5435 -0.8746 -1.2885
  659MOL0     H88913  10.304   9.433  10.348  0.0118 -0.5230  2.4936
  659MOL0     H88914  10.126   9.312  10.176  0.8733  1.6247 -0.4718
  659MOL0     H88915  10.104   9.364  10.340  0.1628 -0.0017 -1.2678
  659MOL0     H88916  10.225   9.120  10.502  1.4058 -3.1662  0.0076
  659MOL0     H88917   9.996   8.796  10.473 -1.8319  2.1267 -0.4491
  659MOL0     H88918  10.174   8.790  10.482  0.0940  0.1541 -0.7209
  659MOL0     H88919  10.197   8.972  10.660  0.9303 -1.0796  2.4420
  659MOL0     H88920  10.141   8.813  10.708  2.6462  0.5955  0.7272
  659MOL0     H88921   9.896   8.930  10.648 -0.3658  2.6258 -2.2268
  659MOL0     H88922   9.996   9.078  10.670  0.2004 -0.4687 -2.0731
  659MOL0     H88923   9.907   9.039  10.895  1.5221 -0.2504  2.5501
  659MOL0     H88924  10.073   8.984  10.892  0.0872 -1.8520  1.2392
  659MOL0     H88925   9.733   8.949  10.764  0.0333  1.2650  1.4453
  659MOL0     H88926   9.508   8.978  10.691 -0.4684  0.5578  0.9364
  659MOL0     H88927   9.440   8.829  10.623 -0.2142 -3.2543  0.9017
  659MOL0     H88928   9.394   8.905  10.779 -1.4288 -1.5548 -0.1506
  659MOL0     H88929   9.140   8.686  10.559 -3.3289 -2.0514 -2.3781
  659MOL0     H88930   8.897   8.587  10.571 -2.3066 -0.6654  1.6043
  659MOL0     H88931   8.667   8.337  10.757 -0.5535 -0.9452 -0.5434
  659MOL0     H88932   8.832   8.296  10.822 -0.6127  0.0458 -0.3214
  659MOL0     H88933   8.686   8.254  11.002  3.4127  0.0124  0.6297
  659MOL0     H88934   8.752   8.410  11.044 -1.2308  0.2982  1.6386
  659MOL0     H88935   8.475   8.366  10.933  3.1567 -2.8707  1.0269
  659MOL0     H88936   8.541   8.527  10.913 -1.3157 -0.0284 -0.2246
  659MOL0     H88937   8.526   8.384  11.179  1.7560 -0.9099 -0.1136
  659MOL0     H88938   8.614   8.539  11.155  0.5960 -1.8196  1.7907
  659MOL0     H88939   8.381   8.642  11.082  0.5595  0.5162  0.6499
  659MOL0     H88940   8.401   8.586  11.245  2.8552 -0.2839  0.1138
  659MOL0     H88941   8.271   8.406  11.024  0.5477  0.2361 -0.3309
  659MOL0     H88942   8.291   8.371  11.190  0.1896  0.1802  1.0480
  659MOL0     H88943   8.131   8.568  11.243 -1.2724  0.1383 -0.1120
  659MOL0     H88944   8.082   8.420  11.149 -0.6126  0.3530 -3.2758
  659MOL0     H88945   8.130   8.715  11.075  2.2882 -1.1825  0.4120
  659MOL0     H88946   7.982   8.639  11.070 -0.9492  0.0017 -1.4601
  659MOL0     H88947   8.977   8.485  10.977  0.9655  0.4916  0.4958
  659MOL0     H88948   9.200   8.555  10.964 -0.9427  0.2494  1.2602
  659MOL0     H88949   9.650   8.490  10.935  4.5815 -0.2642  0.5248
  659MOL0     H88950   9.852   8.585  10.961  0.2198  0.0021 -1.1570
  659MOL0     H88951  10.924   8.936   9.716 -0.6643  1.9259 -0.4890
  659MOL0     H88952  11.142   9.027   9.774  0.4628  0.4099  0.8201
  659MOL0     H88953  11.432   9.056  10.337 -0.3562  0.3303  0.4240
  659MOL0     H88954  11.671   9.042  10.400 -0.6269  1.0941  0.1584
  659MOL0     H88955  11.915   9.150  10.210 -0.5558 -0.0657 -0.3109
  659MOL0     H88956  11.872   9.126  10.379  1.9255  0.5850  0.0588
  659MOL0     H88957  12.111   8.980  10.257  1.2855 -1.1377  2.7992
  659MOL0     H88958  12.083   8.999  10.427  0.9786 -1.1360 -0.6685
  659MOL0     H88959  12.090   9.243  10.411 -0.0933  1.4431 -1.5740
  659MOL0     H88960  12.151   9.224  10.236  0.1410 -2.1036 -1.1859
  659MOL0     H88961  12.349   9.117  10.316  0.9740  0.5088  1.2097
  659MOL0     H88962  12.286   9.103  10.479 -0.0711 -0.2661 -0.3418
  659MOL0     H88963  12.411   9.506  10.460 -3.3632  1.0314 -0.3512
  659MOL0     H88964  11.769   8.898  10.010  0.1663 -0.7284  0.7654
  659MOL0     H88965  11.528   8.892   9.945  2.1012 -0.6622 -0.7851
  660MOL0     O88966  10.603   5.112   1.764  0.5815  0.0579  0.0500
  660MOL0     C88967  10.647   5.226   1.766  0.0227 -0.8371 -0.1068
  660MOL0     O88968  10.592   5.337   1.716 -0.2703 -0.2014  0.6001
  660MOL0     C88969  10.462   5.350   1.663  0.3499 -0.3789  0.5842
  660MOL0     C88970  10.410   5.487   1.659  1.0447 -0.0083  0.3070
  660MOL0     C88971  10.282   5.521   1.603  0.2579  0.4747 -1.3055
  660MOL0     C88972  10.217   5.419   1.537 -0.7948  0.3520  0.4632
  660MOL0     O88973  10.119   5.464   1.460  0.7003 -0.8658  0.2383
  660MOL0     C88974  10.138   5.474   1.323  0.2930 -0.4057 -0.5165
  660MOL0     C88975  10.009   5.519   1.241 -0.3259 -0.4269  1.0651
  660MOL0     C88976   9.882   5.438   1.266 -0.3835  0.2111  0.4804
  660MOL0     C88977   9.776   5.485   1.165  0.6056  0.2151  0.6513
  660MOL0     C88978   9.631   5.436   1.202 -0.3501  0.5808  0.8382
  660MOL0     C88979   9.571   5.515   1.315 -0.8453 -0.0848  0.7247
  660MOL0     C88980   9.426   5.467   1.354  0.0046  0.0982 -0.6493
  660MOL0     C88981   9.324   5.485   1.237 -0.6796 -0.4411 -0.5148
  660MOL0     N88982   9.184   5.441   1.261 -1.0952 -0.4962 -1.3851
  660MOL0     C88983   9.135   5.426   1.388  0.0985 -0.3922 -0.0413
  660MOL0     C88984   9.005   5.441   1.358 -0.4738 -0.1438  0.1126
  660MOL0     C88985   8.891   5.472   1.443  0.8307 -0.2489  0.7803
  660MOL0     C88986   8.861   5.350   1.531  0.2332 -0.1078 -0.7482
  660MOL0     C88987   8.725   5.365   1.611 -0.1098 -0.5183  0.7701
  660MOL0     C88988   8.695   5.234   1.679  0.1359 -1.0028 -0.0264
  660MOL0     O88989   8.567   5.259   1.733  1.0304 -0.3542 -0.2239
  660MOL0     C88990   8.461   5.175   1.726 -1.0518 -0.2035 -0.1532
  660MOL0     C88991   8.465   5.039   1.683 -0.2847 -0.0032 -0.4643
  660MOL0     C88992   8.351   4.959   1.697 -0.3295  0.0627  0.2752
  660MOL0     C88993   8.375   4.807   1.669  0.1677 -0.3098 -0.4210
  660MOL0     C88994   8.226   5.018   1.722  0.1550  0.2552  1.0915
  660MOL0     C88995   8.110   4.934   1.748  0.0898 -0.5131 -0.1696
  660MOL0     O88996   8.100   4.810   1.680 -0.8446 -0.2928 -0.4206
  660MOL0     C88997   7.974   4.761   1.676 -0.5258 -0.1880 -0.5335
  660MOL0     C88998   7.941   4.655   1.764  0.1366 -0.1172 -0.0476
  660MOL0     C88999   7.814   4.598   1.769 -0.8865  0.2100 -0.6948
  660MOL0     C89000   7.711   4.662   1.695 -0.4367  0.6041 -0.3856
  660MOL0     O89001   7.573   4.639   1.701  0.5352  0.6656  0.1033
  660MOL0     C89002   7.525   4.649   1.838 -0.0653 -0.0269  0.7309
  660MOL0     C89003   7.393   4.727   1.837  0.6369 -0.2540 -0.6933
  660MOL0     C89004   7.345   4.748   1.980  0.2667 -0.3260 -0.4518
  660MOL0     C89005   7.208   4.808   1.991  0.3641  0.1715 -0.2914
  660MOL0     C89006   7.181   4.946   1.936  0.6614 -0.2393  1.1773
  660MOL0     C89007   7.032   4.984   1.945  1.2295 -0.2092  0.3713
  660MOL0     C89008   7.011   5.133   1.980  0.2570  0.0469 -0.8445
  660MOL0     C89009   7.051   5.234   1.874  0.6212  0.0611 -0.2323
  660MOL0    Cl89010   6.940   5.216   1.736  0.2082 -0.3845  0.1416
  660MOL0     C89011   7.742   4.766   1.603 -0.4702 -0.5000  0.6455
  660MOL0     C89012   7.872   4.818   1.598 -0.5451 -0.1308  0.4965
  660MOL0     O89013   8.019   4.995   1.806  0.2876  0.5474  0.0054
  660MOL0     C89014   8.225   5.154   1.745  0.6863  0.1107 -0.2784
  660MOL0     C89015   8.340   5.233   1.749  0.9444 -0.7388  0.2855
  660MOL0     N89016   8.984   5.433   1.218 -0.0783 -0.3213  0.3849
  660MOL0     N89017   9.095   5.440   1.161  0.1065 -0.8593 -0.0453
  660MOL0     C89018  10.251   5.281   1.554  0.2808  0.9339  0.2446
  660MOL0     C89019  10.375   5.254   1.607 -0.1244  0.6709 -0.2541
  660MOL0     C89020  10.773   5.252   1.837  0.1982 -1.3679  1.2926
  660MOL0     C89021  10.828   5.160   1.928 -0.4902 -0.2892 -0.5739
  660MOL0     C89022  10.950   5.186   1.988 -0.1262 -0.7579 -0.6529
  660MOL0     C89023  11.025   5.298   1.955  0.1462  0.5054  0.6018
  660MOL0     O89024  11.156   5.324   1.999  0.1022 -0.3855  0.0128
  660MOL0     C89025  11.200   5.464   2.000 -0.4534  0.0474  0.5818
  660MOL0     C89026  11.331   5.484   2.081  0.5816 -0.2256  0.6033
  660MOL0     C89027  11.389   5.629   2.052  0.2241  0.6266  0.2439
  660MOL0     C89028  11.503   5.657   2.149 -0.6781  0.0321 -0.7193
  660MOL0     C89029  11.550   5.790   2.144  0.6086 -0.1502  0.7174
  660MOL0     C89030  11.603   5.904   2.143  0.1191  0.8174  0.0453
  660MOL0     C89031  10.980   5.382   1.857 -0.0313 -0.3112  1.1422
  660MOL0     C89032  10.864   5.357   1.793  0.0390  0.2896  1.3437
  660MOL0     H89033  10.463   5.579   1.684 -0.5898  1.5686 -1.6915
  660MOL0     H89034  10.244   5.622   1.611 -0.9124 -0.1352  2.4547
  660MOL0     H89035  10.220   5.544   1.301 -0.7763  0.9927 -0.1846
  660MOL0     H89036  10.171   5.381   1.276  3.6944  1.1385 -1.5430
  660MOL0     H89037   9.999   5.623   1.272 -3.4667  0.5167 -2.4735
  660MOL0     H89038  10.028   5.516   1.134  1.9183 -2.0047  1.4442
  660MOL0     H89039   9.902   5.331   1.260  0.5913  0.3350  1.2601
  660MOL0     H89040   9.859   5.462   1.371 -0.6415  2.8513 -0.1191
  660MOL0     H89041   9.777   5.593   1.151  0.4252 -0.0353 -1.6674
  660MOL0     H89042   9.794   5.446   1.064 -0.6669 -0.9794  0.8520
  660MOL0     H89043   9.561   5.431   1.119 -0.7984  2.7567  1.0270
  660MOL0     H89044   9.647   5.333   1.235  1.5946  1.1448  1.8755
  660MOL0     H89045   9.636   5.505   1.403 -0.8547  0.8993  0.8579
  660MOL0     H89046   9.565   5.623   1.296  0.6479  0.1022  1.2160
  660MOL0     H89047   9.429   5.363   1.389  0.0792 -0.2400 -1.6238
  660MOL0     H89048   9.401   5.516   1.448 -2.2988 -1.6127 -0.2797
  660MOL0     H89049   9.361   5.438   1.146 -1.3694  1.6815 -1.9578
  660MOL0     H89050   9.325   5.593   1.224 -0.3145  0.0639  2.7692
  660MOL0     H89051   9.180   5.436   1.486  1.2206  3.2309 -0.7516
  660MOL0     H89052   8.905   5.559   1.508 -0.9526  0.4622  0.3016
  660MOL0     H89053   8.800   5.494   1.386  0.6403  0.5690  1.3681
  660MOL0     H89054   8.932   5.308   1.602 -0.3341 -0.7483 -0.5445
  660MOL0     H89055   8.848   5.262   1.467 -0.4751  0.0031 -0.7647
  660MOL0     H89056   8.642   5.389   1.544 -1.7363 -2.6303  1.9221
  660MOL0     H89057   8.733   5.441   1.689 -0.9652  1.5666 -1.0779
  660MOL0     H89058   8.774   5.221   1.753  0.1286 -0.2169  0.1286
  660MOL0     H89059   8.687   5.156   1.603 -1.1961  0.4411 -1.4542
  660MOL0     H89060   8.555   4.993   1.642 -2.6083 -3.9128 -1.6525
  660MOL0     H89061   8.352   4.775   1.567 -0.9229 -3.1747  0.6189
  660MOL0     H89062   8.478   4.777   1.689  0.1504  1.0897  2.2639
  660MOL0     H89063   8.318   4.747   1.740 -1.3993  2.9433  1.3468
  660MOL0     H89064   8.029   4.622   1.817 -0.4773 -0.0601  1.0359
  660MOL0     H89065   7.782   4.518   1.836  1.3804  0.9878  1.4657
  660MOL0     H89066   7.501   4.548   1.874  1.1604 -0.6516 -0.0959
  660MOL0     H89067   7.593   4.698   1.908  0.8749 -1.4048  0.8359
  660MOL0     H89068   7.394   4.824   1.786  1.6463  0.9304  1.4636
  660MOL0     H89069   7.321   4.661   1.787 -0.1935 -1.5667  2.0529
  660MOL0     H89070   7.411   4.818   2.033  0.2710  0.6533 -1.7130
  660MOL0     H89071   7.358   4.651   2.028  2.5979 -0.0552 -0.4125
  660MOL0     H89072   7.146   4.726   1.956  2.4800 -1.3507 -0.6809
  660MOL0     H89073   7.197   4.816   2.100  1.3688 -1.7336  0.0044
  660MOL0     H89074   7.218   4.953   1.833  0.0650  3.1922  1.0969
  660MOL0     H89075   7.245   5.022   1.980  1.4686  1.6752 -2.8166
  660MOL0     H89076   6.989   4.968   1.846  1.4672 -2.5000  0.5956
  660MOL0     H89077   6.969   4.921   2.009  0.1951  1.6105  1.2606
  660MOL0     H89078   7.080   5.148   2.062 -2.6490  0.4370  1.7218
  660MOL0     H89079   6.911   5.147   2.023  0.1267 -2.0625 -0.3460
  660MOL0     H89080   7.151   5.215   1.836  0.2616  0.8387 -1.6289
  660MOL0     H89081   7.046   5.333   1.923  3.0126 -0.8397  2.0902
  660MOL0     H89082   7.657   4.809   1.550 -2.6266 -1.1354  3.3578
  660MOL0     H89083   7.904   4.901   1.536 -1.2163  0.5421  1.0282
  660MOL0     H89084   8.137   5.210   1.778  2.4213  1.5550  2.2536
  660MOL0     H89085   8.339   5.340   1.767  3.6018 -0.1310 -2.3947
  660MOL0     H89086  10.198   5.203   1.500 -2.0494  2.3105  0.4035
  660MOL0     H89087  10.423   5.156   1.605  1.4816  1.4230 -2.4903
  660MOL0     H89088  10.776   5.069   1.957 -1.1050  0.7080  1.6692
  660MOL0     H89089  10.988   5.120   2.065 -1.6493 -0.9859 -0.0571
  660MOL0     H89090  11.212   5.493   1.895 -0.1000  0.8335  0.8360
  660MOL0     H89091  11.120   5.519   2.049  0.2259  0.5489  1.1481
  660MOL0     H89092  11.402   5.406   2.050  2.3034  2.2918 -2.3402
  660MOL0     H89093  11.303   5.466   2.185  0.9108  2.1464  1.1682
  660MOL0     H89094  11.310   5.702   2.072  1.4079  1.4970  2.0174
  660MOL0     H89095  11.429   5.639   1.951  1.6611 -3.4695  0.1855
  660MOL0     H89096  11.589   5.589   2.146 -1.0513 -0.4445 -0.6939
  660MOL0     H89097  11.459   5.651   2.249 -1.2402  1.2734 -0.8783
  660MOL0     H89098  11.650   6.000   2.154 -1.6599  1.6511  0.8571
  660MOL0     H89099  11.028   5.469   1.814  2.0262 -0.9980  1.9531
  660MOL0     H89100  10.844   5.405   1.698 -0.8820  2.4785  2.5637
  661MOL0     O89101   3.262   4.051   7.891 -0.1972  0.1689 -0.0652
  661MOL0     C89102   3.281   4.171   7.885 -0.0664 -0.6190 -1.0781
  661MOL0     O89103   3.185   4.270   7.860  0.1730 -0.1845 -0.2025
  661MOL0     C89104   3.057   4.245   7.826  0.0939  0.0902 -0.1126
  661MOL0     C89105   2.981   4.359   7.825 -0.5548 -0.3781  0.1559
  661MOL0     C89106   2.846   4.353   7.789  0.0547  0.1880  0.5252
  661MOL0     C89107   2.781   4.233   7.761  0.2239 -0.2666  0.8597
  661MOL0     O89108   2.650   4.234   7.713 -0.2831  0.5034 -0.5146
  661MOL0     C89109   2.566   4.122   7.760 -0.0226 -0.6989  0.1362
  661MOL0     C89110   2.416   4.158   7.751  0.1210  0.4304 -0.1376
  661MOL0     C89111   2.377   4.271   7.852 -0.6016 -0.7648 -0.1595
  661MOL0     C89112   2.287   4.368   7.780 -0.2916 -0.2481  0.2608
  661MOL0     C89113   2.151   4.316   7.741  0.1731  0.2495  0.1240
  661MOL0     C89114   2.054   4.434   7.723 -0.7198  0.7621  0.0806
  661MOL0     C89115   1.912   4.389   7.703  0.1252 -0.2158 -0.5790
  661MOL0     C89116   1.823   4.495   7.638 -0.4850  0.5939 -0.3613
  661MOL0     N89117   1.690   4.459   7.660 -0.2394  0.7708 -0.4238
  661MOL0     C89118   1.604   4.467   7.561  0.4854  0.0262 -0.3210
  661MOL0     C89119   1.476   4.450   7.605 -0.3252 -0.1902 -0.4860
  661MOL0     C89120   1.347   4.468   7.515  0.1053 -0.1535 -0.0282
  661MOL0     C89121   1.230   4.383   7.569 -0.2124 -0.8490  0.0899
  661MOL0     C89122   1.096   4.428   7.503 -0.5873 -0.4467  0.4673
  661MOL0     C89123   0.976   4.351   7.560 -0.5504  0.0377 -0.4157
  661MOL0     O89124   0.895   4.310   7.447  0.0603 -0.0200 -0.0241
  661MOL0     C89125   0.769   4.366   7.441  0.0757  0.3852 -0.9152
  661MOL0     C89126   0.688   4.332   7.334 -0.3386  0.9427  0.6498
  661MOL0     C89127   0.563   4.377   7.297 -0.0885 -0.8410  0.1502
  661MOL0     C89128   0.495   4.302   7.184  0.2634  0.9893 -0.2465
  661MOL0     C89129   0.510   4.481   7.373  0.1546 -0.1389 -0.6317
  661MOL0     C89130   0.390   4.568   7.341  0.3149  0.0368 -0.1845
  661MOL0     O89131   0.372   4.689   7.399  0.3782  0.1153 -0.2224
  661MOL0     C89132   0.264   4.770   7.372 -0.6210 -0.1292  0.0430
  661MOL0     C89133   0.143   4.729   7.419  0.7322  0.3168  0.5255
  661MOL0     C89134   0.038   4.808   7.404 -0.0121 -0.5601 -0.8220
  661MOL0     C89135   0.043   4.942   7.345  0.6505  0.9324  0.2702
  661MOL0     O89136  -0.076   5.011   7.329 -0.2830 -0.1426 -0.1698
  661MOL0     C89137  -0.079   5.156   7.308  0.5873  0.8874  0.8008
  661MOL0     C89138  -0.076   5.249   7.433  0.2356  0.5228  0.2790
  661MOL0     C89139  -0.200   5.214   7.528  0.4171 -0.1461  0.0823
  661MOL0     C89140  -0.302   5.328   7.542 -0.0369  0.2364 -0.0549
  661MOL0     C89141  -0.436   5.281   7.596 -0.2226  0.5266  0.2691
  661MOL0     C89142  -0.530   5.202   7.495  0.1169 -0.2950  0.4871
  661MOL0     C89143  -0.638   5.128   7.568 -0.3120 -1.0457 -0.1477
  661MOL0     C89144  -0.744   5.056   7.485 -0.2683 -0.2865 -0.4143
  661MOL0    Cl89145  -0.873   5.158   7.449 -0.1376 -0.3222  0.0348
  661MOL0     C89146   0.166   4.975   7.289 -0.8824 -0.2002  1.2498
  661MOL0     C89147   0.276   4.894   7.310 -0.6869  1.0202  0.4668
  661MOL0     O89148   0.321   4.525   7.259  0.1838  0.5597 -0.0755
  661MOL0     C89149   0.584   4.519   7.490  1.8080 -0.1111  0.0163
  661MOL0     C89150   0.705   4.462   7.524 -0.1727  0.0219  0.3013
  661MOL0     N89151   1.489   4.434   7.744 -0.7547  0.2245 -0.1430
  661MOL0     N89152   1.622   4.443   7.778 -0.9787  0.8892 -0.1864
  661MOL0     C89153   2.859   4.118   7.765 -1.0125  0.2552 -0.3175
  661MOL0     C89154   2.995   4.126   7.789 -0.0731  0.1813 -0.3563
  661MOL0     C89155   3.420   4.215   7.912  0.3438 -0.8787  0.1482
  661MOL0     C89156   3.458   4.355   7.925  1.0299  0.3651  0.0605
  661MOL0     C89157   3.585   4.386   7.941 -0.0763 -0.3074 -1.2225
  661MOL0     C89158   3.684   4.290   7.948 -1.0098  0.4791  0.2619
  661MOL0     O89159   3.818   4.330   7.974  0.6709 -0.7441  0.6002
  661MOL0     C89160   3.927   4.244   7.954 -0.4032  0.4428  0.1761
  661MOL0     C89161   4.050   4.327   8.001  0.4442 -0.2668  0.1717
  661MOL0     C89162   4.039   4.363   8.151 -0.3247  0.0915  1.1303
  661MOL0     C89163   4.175   4.412   8.209 -0.5630  0.3160  0.3793
  661MOL0     C89164   4.233   4.511   8.111  0.4466  0.8150 -0.1054
  661MOL0     C89165   4.269   4.601   8.037 -0.3357  0.0655  0.2356
  661MOL0     C89166   3.653   4.156   7.932 -0.7886 -0.4735 -0.3554
  661MOL0     C89167   3.523   4.119   7.914  0.5806 -0.4519  0.1316
  661MOL0     H89168   3.026   4.451   7.860 -0.8830 -0.3233  0.4415
  661MOL0     H89169   2.790   4.446   7.793  1.7742  1.3556 -0.8004
  661MOL0     H89170   2.595   4.037   7.699 -0.2444 -0.1017 -0.8194
  661MOL0     H89171   2.585   4.099   7.865  2.6538 -2.3713 -0.6196
  661MOL0     H89172   2.388   4.193   7.652  0.0242  0.2817 -0.1635
  661MOL0     H89173   2.349   4.074   7.776 -0.2304  0.8972  0.5217
  661MOL0     H89174   2.335   4.239   7.947  1.5536 -0.7341  0.8577
  661MOL0     H89175   2.472   4.320   7.876 -0.9018  0.0541 -0.5854
  661MOL0     H89176   2.270   4.448   7.853 -0.9146  0.7802 -0.9677
  661MOL0     H89177   2.337   4.401   7.689  2.6326 -0.0751  1.8101
  661MOL0     H89178   2.156   4.256   7.650  3.4657  1.6511 -0.7740
  661MOL0     H89179   2.110   4.259   7.826 -1.5119  1.4079  0.1355
  661MOL0     H89180   2.072   4.513   7.798  1.2757 -0.9861  1.5523
  661MOL0     H89181   2.094   4.489   7.638  1.3907  0.9623  1.1421
  661MOL0     H89182   1.918   4.296   7.645 -0.0560 -1.2229  0.9555
  661MOL0     H89183   1.873   4.371   7.804  3.1345 -4.9026  0.0816
  661MOL0     H89184   1.838   4.512   7.531  1.3549 -1.9506 -0.6006
  661MOL0     H89185   1.854   4.591   7.680  2.2542 -0.2797 -0.1688
  661MOL0     H89186   1.627   4.485   7.456  2.3894  1.1391  0.2331
  661MOL0     H89187   1.318   4.573   7.510 -0.7352 -0.3945 -0.5513
  661MOL0     H89188   1.359   4.447   7.408 -1.3452  2.7015 -0.8434
  661MOL0     H89189   1.214   4.407   7.674 -0.5861  0.9198 -0.3239
  661MOL0     H89190   1.249   4.277   7.553 -0.4892 -0.7208 -1.2782
  661MOL0     H89191   1.102   4.422   7.394 -0.6282 -2.0997  0.5365
  661MOL0     H89192   1.074   4.535   7.513 -1.0593 -0.5859  0.9965
  661MOL0     H89193   0.925   4.404   7.641 -1.5416 -2.1149  0.4496
  661MOL0     H89194   1.000   4.265   7.623 -1.6282  0.2890  0.3671
  661MOL0     H89195   0.729   4.247   7.280  0.2690  1.3979  0.3863
  661MOL0     H89196   0.562   4.225   7.146 -0.1005  1.1230 -1.1992
  661MOL0     H89197   0.404   4.249   7.214  1.5099 -1.7135 -0.9623
  661MOL0     H89198   0.470   4.372   7.103  0.1145  0.9268 -0.2553
  661MOL0     H89199   0.129   4.635   7.472 -1.2693 -0.3228 -1.0258
  661MOL0     H89200  -0.065   4.790   7.434 -0.8362  1.6717 -2.0364
  661MOL0     H89201  -0.007   5.183   7.229 -0.7961  2.5477  0.0413
  661MOL0     H89202  -0.175   5.178   7.261  1.0630 -1.9489 -1.8589
  661MOL0     H89203   0.018   5.232   7.486 -0.7797 -2.2795  1.3867
  661MOL0     H89204  -0.081   5.352   7.399 -0.3406 -0.5734 -3.3627
  661MOL0     H89205  -0.163   5.180   7.625  0.3539  0.3555  0.2895
  661MOL0     H89206  -0.253   5.130   7.483  1.6424 -0.3995 -0.9272
  661MOL0     H89207  -0.266   5.403   7.613  0.9929  0.0401 -0.3662
  661MOL0     H89208  -0.316   5.373   7.443  3.3360 -0.5751 -1.0130
  661MOL0     H89209  -0.487   5.366   7.642  2.6292  1.1080  2.7346
  661MOL0     H89210  -0.406   5.211   7.675  1.5054  1.5333  0.5642
  661MOL0     H89211  -0.569   5.276   7.425 -2.9979 -0.1563  2.1943
  661MOL0     H89212  -0.465   5.131   7.443  0.9583  0.7893  0.0186
  661MOL0     H89213  -0.692   5.201   7.629 -0.5405 -0.4107 -1.0879
  661MOL0     H89214  -0.587   5.060   7.637  1.7112 -2.9723 -3.2527
  661MOL0     H89215  -0.780   4.982   7.557 -1.3573  0.4986 -0.1331
  661MOL0     H89216  -0.699   5.005   7.399 -0.6054 -1.6948  0.2174
  661MOL0     H89217   0.177   5.061   7.224 -2.7854 -0.7737  0.1006
  661MOL0     H89218   0.370   4.941   7.280  0.7527 -2.7544 -1.5728
  661MOL0     H89219   0.542   4.590   7.560 -1.0618 -3.1225  1.5785
  661MOL0     H89220   0.752   4.504   7.612  1.5286 -1.0791 -0.0224
  661MOL0     H89221   2.817   4.023   7.732 -1.1818 -0.6961  2.3813
  661MOL0     H89222   3.046   4.032   7.769  0.2475  0.0346  1.0462
  661MOL0     H89223   3.381   4.431   7.925 -1.2866 -1.7685 -2.3002
  661MOL0     H89224   3.618   4.488   7.958 -1.7657 -0.1399  1.7724
  661MOL0     H89225   3.911   4.156   8.017 -1.0454  0.7640  0.4621
  661MOL0     H89226   3.958   4.211   7.854  1.6899  2.3219  0.1385
  661MOL0     H89227   4.059   4.421   7.945 -0.2335 -0.4639 -0.2815
  661MOL0     H89228   4.144   4.280   7.972  1.3870  1.0163  1.0519
  661MOL0     H89229   4.000   4.273   8.198 -0.1002 -0.1330  0.8897
  661MOL0     H89230   3.965   4.442   8.166 -2.5520 -1.7046  0.2366
  661MOL0     H89231   4.238   4.323   8.213  0.0905  0.5269 -2.7455
  661MOL0     H89232   4.174   4.453   8.310  0.3403  3.3077 -0.7002
  661MOL0     H89233   4.291   4.672   7.959  1.0354  2.0006  2.2783
  661MOL0     H89234   3.733   4.083   7.922  0.0695  0.4342 -0.2112
  661MOL0     H89235   3.497   4.014   7.908 -0.2562 -0.1582 -3.1301
  662MOL0     O89236   8.536  10.161   9.677 -0.3261  0.1364 -0.0528
  662MOL0     C89237   8.644  10.180   9.615 -1.1305  0.7097 -0.2561
  662MOL0     O89238   8.768  10.162   9.671 -0.0084  0.3044  0.7005
  662MOL0     C89239   8.790  10.143   9.806  0.4144 -0.4035  0.3932
  662MOL0     C89240   8.897  10.063   9.836  0.4360  0.4153 -0.9930
  662MOL0     C89241   8.920  10.035   9.974  0.5978 -0.2878  0.0935
  662MOL0     C89242   8.840  10.095  10.076 -0.5587  0.1824 -0.2934
  662MOL0     O89243   8.853  10.078  10.209  0.5903  0.1126 -0.3984
  662MOL0     C89244   8.931   9.967  10.248  0.0128 -0.5242 -0.4138
  662MOL0     C89245   8.832   9.851  10.267 -0.2205  0.0007 -0.1094
  662MOL0     C89246   8.906   9.724  10.296  0.3043 -0.1772 -0.1531
  662MOL0     C89247   8.973   9.727  10.433 -0.2997 -0.0627 -0.2884
  662MOL0     C89248   9.054   9.608  10.474 -0.1078 -0.7024  0.5426
  662MOL0     C89249   9.164   9.570  10.374  0.5158  0.0810  0.1861
  662MOL0     C89250   9.281   9.671  10.364  0.2339  0.0118  0.0100
  662MOL0     C89251   9.371   9.674  10.234 -0.0608  0.6628  0.0616
  662MOL0     N89252   9.291   9.705  10.115 -0.6614  0.1156  0.7562
  662MOL0     C89253   9.204   9.624  10.049  0.0309 -0.3086  0.1588
  662MOL0     C89254   9.144   9.703   9.947 -0.1662  0.2717 -0.1435
  662MOL0     C89255   9.043   9.675   9.840  0.9275  0.3386  0.3151
  662MOL0     C89256   8.900   9.662   9.906 -0.1822 -0.0315 -0.0152
  662MOL0     C89257   8.808   9.579   9.817 -0.2284  0.1121  0.4314
  662MOL0     C89258   8.661   9.575   9.868 -0.6405 -0.0121  0.7966
  662MOL0     O89259   8.623   9.708   9.881 -0.4986  0.3073  0.0587
  662MOL0     C89260   8.513   9.749   9.951  0.0928  0.3122 -0.4056
  662MOL0     C89261   8.407   9.655   9.963  0.2366 -0.3846 -1.2694
  662MOL0     C89262   8.277   9.704  10.018  0.0334 -0.3979  0.2257
  662MOL0     C89263   8.172   9.602  10.049 -0.6621  0.2912  0.0360
  662MOL0     C89264   8.271   9.841  10.055 -0.2869  0.0737 -0.2948
  662MOL0     C89265   8.144   9.916  10.109  0.6747 -0.2979 -0.2153
  662MOL0     O89266   8.149  10.051  10.139 -0.0951  0.8772  0.5598
  662MOL0     C89267   8.034  10.109  10.174  0.7793  0.2160 -1.2400
  662MOL0     C89268   7.961  10.193  10.082 -0.3300  0.2219  0.7428
  662MOL0     C89269   7.852  10.270  10.131 -0.1841 -0.5103 -0.4007
  662MOL0     C89270   7.824  10.262  10.267  0.1631 -0.4282 -0.6491
  662MOL0     O89271   7.726  10.343  10.329  0.8875 -0.1101  0.3210
  662MOL0     C89272   7.663  10.449  10.258  0.4118  0.0591 -0.3527
  662MOL0     C89273   7.573  10.531  10.346  1.1342 -0.0675 -0.2732
  662MOL0     C89274   7.447  10.459  10.393  0.1525  0.1563  0.5863
  662MOL0     C89275   7.349  10.569  10.457  0.1919 -0.2964  0.1774
  662MOL0     C89276   7.222  10.510  10.507 -0.4020 -0.3254 -0.1160
  662MOL0     C89277   7.118  10.610  10.556  1.1672 -0.3568  1.3867
  662MOL0     C89278   6.980  10.543  10.571 -0.1689 -0.4523  0.0235
  662MOL0     C89279   6.867  10.624  10.614 -0.1147 -2.0041 -0.0034
  662MOL0    Cl89280   6.849  10.758  10.495 -0.1956  0.2767  0.0721
  662MOL0     C89281   7.900  10.190  10.350 -0.2422 -0.2759 -0.2639
  662MOL0     C89282   8.002  10.110  10.313  0.1320 -0.0585  0.0112
  662MOL0     O89283   8.041   9.855  10.108 -0.1418  0.2863 -0.0911
  662MOL0     C89284   8.380   9.929  10.038 -0.2452  0.4451  0.6790
  662MOL0     C89285   8.500   9.881   9.988  0.0952  0.0691 -0.8115
  662MOL0     N89286   9.198   9.827   9.965 -0.6794 -0.1062 -0.1832
  662MOL0     N89287   9.280   9.826  10.068 -0.4521 -0.3241 -0.0027
  662MOL0     C89288   8.742  10.186  10.027  0.1998 -1.0562 -0.1274
  662MOL0     C89289   8.716  10.212   9.904 -0.0056  0.3579  0.4984
  662MOL0     C89290   8.650  10.211   9.469 -0.1656 -0.2149 -0.0878
  662MOL0     C89291   8.773  10.218   9.402  0.5505  0.0185  0.5294
  662MOL0     C89292   8.775  10.266   9.268  0.2468 -0.4190  0.3502
  662MOL0     C89293   8.653  10.286   9.205 -0.0341  0.6776 -0.1465
  662MOL0     O89294   8.649  10.294   9.068  0.1438  0.0056  0.0978
  662MOL0     C89295   8.590  10.195   8.981 -0.4544 -0.0747  1.0204
  662MOL0     C89296   8.607  10.222   8.826  0.1088 -0.2189 -0.0896
  662MOL0     C89297   8.723  10.161   8.750 -0.5026 -0.5380  0.2601
  662MOL0     C89298   8.857  10.226   8.784  0.2882 -0.2724  0.6226
  662MOL0     C89299   8.866  10.367   8.748 -0.2866 -0.2048  0.0434
  662MOL0     C89300   8.880  10.482   8.716  0.8799  0.4097  0.0073
  662MOL0     C89301   8.535  10.271   9.275  0.2504  0.3506  0.5248
  662MOL0     C89302   8.527  10.234   9.412  0.6718  0.2454  0.1221
  662MOL0     H89303   8.954  10.011   9.761  0.2409  0.7745 -1.3991
  662MOL0     H89304   8.992   9.955   9.988 -0.1881 -1.4050 -1.8126
  662MOL0     H89305   9.016   9.942  10.184 -0.2259  1.4175 -1.5856
  662MOL0     H89306   8.968   9.986  10.349  2.7971 -2.0387 -1.0456
  662MOL0     H89307   8.761   9.876  10.347 -1.2110 -1.3313 -0.5351
  662MOL0     H89308   8.777   9.836  10.173  0.6496 -1.7687 -0.3792
  662MOL0     H89309   8.838   9.638  10.294  1.8346 -1.4287  0.0896
  662MOL0     H89310   8.985   9.718  10.222  0.6047 -0.7321  0.2055
  662MOL0     H89311   9.037   9.815  10.424 -1.6658  1.0414  0.2839
  662MOL0     H89312   8.902   9.745  10.514  3.2018 -2.3823  3.6856
  662MOL0     H89313   9.102   9.628  10.570 -1.9439  2.8469  0.8619
  662MOL0     H89314   8.983   9.528  10.497 -0.2130 -0.4074  1.2544
  662MOL0     H89315   9.198   9.467  10.392 -0.3723 -0.0644  1.1619
  662MOL0     H89316   9.119   9.554  10.275  0.9380  0.4092 -0.0602
  662MOL0     H89317   9.231   9.767  10.378  0.1753  0.1879 -1.3263
  662MOL0     H89318   9.349   9.653  10.448  0.0345  2.2213  0.7095
  662MOL0     H89319   9.411   9.573  10.221 -1.4913 -0.1822  1.7455
  662MOL0     H89320   9.455   9.743  10.240  0.5772 -0.0676 -0.3629
  662MOL0     H89321   9.178   9.522  10.076  0.2922 -0.5669 -0.5324
  662MOL0     H89322   9.040   9.758   9.768  1.5189 -0.4903 -0.6831
  662MOL0     H89323   9.065   9.584   9.785 -0.9809 -0.4159  0.6951
  662MOL0     H89324   8.862   9.765   9.910 -1.2385 -0.4546  1.7769
  662MOL0     H89325   8.902   9.616  10.005  1.5162  2.4957  1.2418
  662MOL0     H89326   8.851   9.479   9.828 -0.1409  0.2537  1.4855
  662MOL0     H89327   8.809   9.617   9.715  1.8966 -0.5845  0.1374
  662MOL0     H89328   8.654   9.523   9.964 -0.1261 -0.2590  0.7082
  662MOL0     H89329   8.594   9.533   9.793  1.9673  0.9152 -2.3179
  662MOL0     H89330   8.430   9.554   9.931  2.3935  0.0940 -1.4016
  662MOL0     H89331   8.075   9.640  10.015 -0.0691  1.9998  0.1363
  662MOL0     H89332   8.202   9.511   9.996  2.0822  0.2339  1.5185
  662MOL0     H89333   8.170   9.583  10.156  0.6341 -2.0949 -0.3112
  662MOL0     H89334   7.983  10.185   9.976 -2.1414 -4.1188  0.4969
  662MOL0     H89335   7.805  10.336  10.058 -0.6739 -0.5705 -0.1432
  662MOL0     H89336   7.737  10.526  10.233 -2.3797  2.6751 -1.1578
  662MOL0     H89337   7.616  10.410  10.168  3.4229 -2.1458 -1.1370
  662MOL0     H89338   7.624  10.569  10.435 -3.6750 -1.4248  3.5585
  662MOL0     H89339   7.546  10.613  10.279 -0.8805 -1.4357 -1.2538
  662MOL0     H89340   7.474  10.385  10.469 -2.1865  2.2730  3.7357
  662MOL0     H89341   7.395  10.410  10.310  0.0285  1.6840 -0.2757
  662MOL0     H89342   7.403  10.630  10.530 -1.8639  0.8529  0.8181
  662MOL0     H89343   7.320  10.633  10.374  1.7004  0.1754 -0.0221
  662MOL0     H89344   7.241  10.447  10.594 -0.5923 -0.4304 -0.1495
  662MOL0     H89345   7.180  10.438  10.436 -3.2675  0.1848  0.9395
  662MOL0     H89346   7.145  10.670  10.643  3.3922 -0.6572  0.9536
  662MOL0     H89347   7.116  10.689  10.481  2.4767 -0.5431  1.1354
  662MOL0     H89348   6.974  10.470  10.652  1.0493 -1.4118 -0.7071
  662MOL0     H89349   6.957  10.479  10.485  0.6050  0.3272 -0.7890
  662MOL0     H89350   6.888  10.675  10.709 -3.0532 -1.4679  0.4791
  662MOL0     H89351   6.770  10.573  10.616 -1.1202 -0.1866  1.6703
  662MOL0     H89352   7.873  10.186  10.455  3.2017 -0.7747  0.7198
  662MOL0     H89353   8.065  10.055  10.383  0.7456  1.3223  0.5686
  662MOL0     H89354   8.367  10.033  10.065 -0.0006  1.2449 -1.9773
  662MOL0     H89355   8.587   9.945   9.974  0.3167  0.5177  2.0232
  662MOL0     H89356   8.678  10.238  10.098  2.9520  1.0386  0.9932
  662MOL0     H89357   8.630  10.275   9.884  0.2488  0.5423 -0.0183
  662MOL0     H89358   8.868  10.208   9.454 -1.4963 -1.1139  4.4800
  662MOL0     H89359   8.871  10.265   9.217  0.1384 -1.3430  0.1424
  662MOL0     H89360   8.637  10.102   9.014  0.8879  0.9886  2.2428
  662MOL0     H89361   8.482  10.189   9.000 -1.2480  2.1103 -1.9084
  662MOL0     H89362   8.608  10.328   8.799 -0.8421 -0.4023 -0.8694
  662MOL0     H89363   8.523  10.171   8.779  0.7774  0.4118 -2.0905
  662MOL0     H89364   8.707  10.159   8.642 -0.3966  1.1501  0.1913
  662MOL0     H89365   8.736  10.056   8.780 -0.6405 -0.4290  0.7224
  662MOL0     H89366   8.934  10.174   8.727  0.3272  0.4718 -0.0147
  662MOL0     H89367   8.881  10.213   8.890 -0.4623 -1.4495  0.6671
  662MOL0     H89368   8.920  10.578   8.689 -0.2425  0.5799 -1.1675
  662MOL0     H89369   8.437  10.290   9.231 -0.0077 -3.6629 -1.0086
  662MOL0     H89370   8.436  10.230   9.471  0.7860 -0.0450  0.2788
  663MOL0     O89371   5.514  11.169  10.812  0.1413  0.3846  0.2972
  663MOL0     C89372   5.565  11.059  10.838 -0.7976  0.0358  0.0199
  663MOL0     O89373   5.504  10.941  10.861 -0.6392  0.8159 -0.1467
  663MOL0     C89374   5.371  10.936  10.854  0.1328 -0.3925 -0.6780
  663MOL0     C89375   5.292  10.878  10.954  0.3397  0.8233 -0.7147
  663MOL0     C89376   5.153  10.870  10.936  0.6226  0.9852 -0.3974
  663MOL0     C89377   5.089  10.921  10.825 -0.1280  0.5781  0.3424
  663MOL0     O89378   4.956  10.909  10.804  0.1109  0.2596  0.0550
  663MOL0     C89379   4.862  10.890  10.917 -0.5600  0.3140 -0.2081
  663MOL0     C89380   4.877  11.016  11.007  0.9088  0.1109  0.2568
  663MOL0     C89381   4.831  11.141  10.927 -0.6469  0.0224 -0.2212
  663MOL0     C89382   4.851  11.276  10.999 -0.9574  1.1051  0.0343
  663MOL0     C89383   4.760  11.383  10.931 -0.2803  0.2440  0.1119
  663MOL0     C89384   4.762  11.378  10.782  0.4438  0.8807  0.8449
  663MOL0     C89385   4.690  11.512  10.729 -0.8698  0.3616 -1.4590
  663MOL0     C89386   4.713  11.538  10.588 -0.4123 -0.0331  0.4245
  663MOL0     N89387   4.683  11.423  10.502 -0.0798 -0.1176  0.7346
  663MOL0     C89388   4.745  11.401  10.381  0.0429  0.2759 -0.5988
  663MOL0     C89389   4.653  11.330  10.304  0.3037  0.3820 -0.2370
  663MOL0     C89390   4.683  11.290  10.159  0.9098  0.2816  0.7609
  663MOL0     C89391   4.624  11.387  10.051 -1.1849  0.1168 -0.4570
  663MOL0     C89392   4.473  11.401  10.041 -0.1749 -0.5925  0.2540
  663MOL0     C89393   4.438  11.527   9.968 -0.2014 -0.6372  0.4213
  663MOL0     O89394   4.302  11.541   9.910  0.1912 -1.3080  0.1398
  663MOL0     C89395   4.204  11.582   9.996 -0.4830  0.3112  0.4039
  663MOL0     C89396   4.140  11.705   9.980 -0.0203  0.0334  0.3683
  663MOL0     C89397   4.038  11.747  10.062  0.2863  0.2891  0.0058
  663MOL0     C89398   3.970  11.871  10.020  0.0007 -0.0708  0.6372
  663MOL0     C89399   4.004  11.674  10.175  0.2643  0.0787 -0.2134
  663MOL0     C89400   3.910  11.707  10.278 -0.0431 -0.6402 -1.1621
  663MOL0     O89401   3.883  11.617  10.374  0.0590  0.5967  0.1332
  663MOL0     C89402   3.776  11.625  10.450  0.5128  0.8252  0.0491
  663MOL0     C89403   3.649  11.677  10.411 -0.5312 -0.2629  0.3955
  663MOL0     C89404   3.533  11.660  10.491  0.2236  0.4545  0.3135
  663MOL0     C89405   3.535  11.582  10.604 -0.1053  0.3983 -0.0396
  663MOL0     O89406   3.419  11.541  10.667 -0.1355  0.2207  0.3036
  663MOL0     C89407   3.328  11.471  10.579  1.2065  0.1180  0.2000
  663MOL0     C89408   3.230  11.377  10.660 -1.9126  0.5197 -0.2382
  663MOL0     C89409   3.298  11.240  10.686  0.5792 -0.1001  0.1819
  663MOL0     C89410   3.234  11.175  10.802 -0.5110 -0.2710  0.3598
  663MOL0     C89411   3.094  11.119  10.783 -0.2674 -0.2844  0.4758
  663MOL0     C89412   3.015  11.093  10.913  0.4426 -0.5439  0.2041
  663MOL0     C89413   3.099  11.004  11.012 -1.0916  0.2906 -0.1964
  663MOL0     C89414   3.002  10.932  11.105  0.6122 -0.1633 -0.1852
  663MOL0    Cl89415   2.925  10.796  11.020  0.0980 -0.1673  0.2226
  663MOL0     C89416   3.658  11.516  10.632  0.8393 -0.0061  0.1494
  663MOL0     C89417   3.772  11.536  10.557 -0.1688 -0.5670 -0.2288
  663MOL0     O89418   3.863  11.819  10.278  0.0673 -0.1989 -0.2768
  663MOL0     C89419   4.060  11.545  10.189 -0.3548  0.2924 -0.1509
  663MOL0     C89420   4.157  11.502  10.100 -0.2692 -0.2836  0.4501
  663MOL0     N89421   4.543  11.321  10.383  0.1768  0.3823  0.3988
  663MOL0     N89422   4.554  11.375  10.497  0.0583  0.6711 -0.7260
  663MOL0     C89423   5.165  10.978  10.727 -0.1445 -0.2119 -0.1118
  663MOL0     C89424   5.304  10.977  10.743 -0.0793 -0.2721  1.2452
  663MOL0     C89425   5.707  11.062  10.844 -0.1678  0.0250  0.1565
  663MOL0     C89426   5.775  11.180  10.856 -0.5197  0.5172 -1.4455
  663MOL0     C89427   5.919  11.176  10.860 -0.3724  0.0326  0.9221
  663MOL0     C89428   5.995  11.053  10.858  0.1696 -1.2081 -0.2417
  663MOL0     O89429   6.129  11.052  10.859 -0.2404  0.1856  0.0071
  663MOL0     C89430   6.195  11.179  10.899  0.2883  0.5198  0.5278
  663MOL0     C89431   6.341  11.145  10.888 -0.3742 -0.0886  0.5262
  663MOL0     C89432   6.427  11.253  10.939  0.7716  0.3814  0.0047
  663MOL0     C89433   6.576  11.220  10.968 -0.5768 -1.2342 -0.2171
  663MOL0     C89434   6.643  11.326  11.034 -0.5242  0.0914  0.0027
  663MOL0     C89435   6.709  11.413  11.082  0.0118 -0.2298 -0.1331
  663MOL0     C89436   5.921  10.942  10.840  0.4556  0.8525 -0.2242
  663MOL0     C89437   5.784  10.943  10.829 -0.2367  1.0863  0.0667
  663MOL0     H89438   5.336  10.820  11.035 -0.8620 -1.5047 -1.6157
  663MOL0     H89439   5.097  10.824  11.018 -0.2840  1.7470 -0.5767
  663MOL0     H89440   4.763  10.874  10.874 -0.2088  2.2749 -1.9198
  663MOL0     H89441   4.889  10.796  10.966 -1.9730 -0.7125 -1.3367
  663MOL0     H89442   4.812  10.999  11.094  1.7116  0.3539  0.9168
  663MOL0     H89443   4.976  11.039  11.045  0.1823  0.3439  2.1226
  663MOL0     H89444   4.888  11.152  10.834 -1.6819  1.1699 -0.7500
  663MOL0     H89445   4.726  11.131  10.898 -0.7003 -1.0143  0.2913
  663MOL0     H89446   4.825  11.271  11.106  0.0975 -1.2284  0.2350
  663MOL0     H89447   4.957  11.301  10.993 -0.7577  0.4127  0.4725
  663MOL0     H89448   4.660  11.381  10.975  0.0182  1.0248  0.8664
  663MOL0     H89449   4.810  11.474  10.965  1.4855 -0.3951 -0.6186
  663MOL0     H89450   4.867  11.379  10.752  0.2763  3.5408  0.1219
  663MOL0     H89451   4.709  11.294  10.738  1.6751  0.2888  0.4459
  663MOL0     H89452   4.582  11.510  10.749 -0.8858  3.3078 -0.9361
  663MOL0     H89453   4.714  11.601  10.788 -1.5969 -1.1910  1.3742
  663MOL0     H89454   4.815  11.567  10.561 -0.5384  2.3349  2.1260
  663MOL0     H89455   4.638  11.612  10.558 -2.0251 -1.3311  1.0671
  663MOL0     H89456   4.842  11.428  10.340 -0.2611 -0.5746 -1.9484
  663MOL0     H89457   4.790  11.287  10.139  0.6222  1.1603 -1.1382
  663MOL0     H89458   4.643  11.189  10.146  3.0504 -0.4827 -0.3801
  663MOL0     H89459   4.663  11.348   9.956  0.6097 -0.0572  0.3003
  663MOL0     H89460   4.676  11.482  10.069  0.3232 -0.1543 -2.8626
  663MOL0     H89461   4.420  11.404  10.137 -1.7510  1.1847 -0.6318
  663MOL0     H89462   4.432  11.313   9.991  1.7593  1.2005 -5.1753
  663MOL0     H89463   4.501  11.557   9.884 -1.9498  3.3410  0.2985
  663MOL0     H89464   4.452  11.611  10.037  0.4474  0.6094 -1.1635
  663MOL0     H89465   4.171  11.764   9.894 -0.9877 -1.7143 -1.2752
  663MOL0     H89466   3.947  11.873   9.913  2.1552 -1.5228  0.0841
  663MOL0     H89467   3.874  11.888  10.070 -1.4680  2.7016 -2.6934
  663MOL0     H89468   4.035  11.959  10.023  1.0221 -0.6806 -1.7104
  663MOL0     H89469   3.638  11.724  10.314  3.0943  1.1964  0.5581
  663MOL0     H89470   3.441  11.709  10.460  0.4551  0.4357 -0.4128
  663MOL0     H89471   3.274  11.550  10.526 -0.7185 -1.2512  0.0413
  663MOL0     H89472   3.372  11.406  10.503 -0.7984  0.6079 -1.4610
  663MOL0     H89473   3.195  11.439  10.743 -0.1814 -0.3407  1.1982
  663MOL0     H89474   3.133  11.369  10.609 -0.8479  1.7176 -2.5860
  663MOL0     H89475   3.405  11.251  10.702  0.5057  1.4154 -0.2440
  663MOL0     H89476   3.270  11.180  10.598  1.8424 -1.4146  0.6453
  663MOL0     H89477   3.301  11.092  10.826 -0.7719 -0.9302 -1.0840
  663MOL0     H89478   3.228  11.237  10.892  1.7908  1.2559 -0.4496
  663MOL0     H89479   3.101  11.028  10.723  2.7426 -0.8134  1.4353
  663MOL0     H89480   3.038  11.195  10.727  0.6704  0.1437  0.1010
  663MOL0     H89481   2.997  11.190  10.961 -3.2908 -0.4755 -1.0502
  663MOL0     H89482   2.916  11.051  10.892 -0.8532  1.0674  2.5579
  663MOL0     H89483   3.167  11.066  11.069 -0.7943 -0.8058  0.6801
  663MOL0     H89484   3.159  10.936  10.951 -0.4412  1.7680 -1.2616
  663MOL0     H89485   2.923  10.990  11.153  2.3844  3.5759 -1.4456
  663MOL0     H89486   3.064  10.892  11.185  2.0644  0.3874 -1.0012
  663MOL0     H89487   3.658  11.451  10.719  4.6315  2.1777  2.0265
  663MOL0     H89488   3.870  11.495  10.581  0.0037  0.4750  0.9854
  663MOL0     H89489   4.057  11.471  10.269  1.0685 -2.6407 -2.5815
  663MOL0     H89490   4.202  11.407  10.125  0.8630  0.6326  2.0117
  663MOL0     H89491   5.135  11.020  10.632  1.8996  2.2414  0.2253
  663MOL0     H89492   5.357  11.000  10.651 -0.3666 -1.2102  0.8237
  663MOL0     H89493   5.716  11.270  10.866 -2.1812 -0.5757 -0.9894
  663MOL0     H89494   5.964  11.274  10.866 -0.1429  0.4629 -3.8927
  663MOL0     H89495   6.180  11.259  10.827 -2.9380  0.7257  1.2779
  663MOL0     H89496   6.164  11.206  11.001 -3.2078 -2.6214  0.5277
  663MOL0     H89497   6.370  11.118  10.785 -2.0944 -1.5272  0.3696
  663MOL0     H89498   6.363  11.062  10.956  2.8403  0.9994  1.0040
  663MOL0     H89499   6.387  11.290  11.034  0.5188  1.0509 -0.3540
  663MOL0     H89500   6.432  11.345  10.879  0.3136  0.3086 -0.1526
  663MOL0     H89501   6.623  11.217  10.869  1.9746  1.0341  0.7890
  663MOL0     H89502   6.596  11.130  11.027  2.6854  1.3901  3.2142
  663MOL0     H89503   6.783  11.480  11.120  0.0642 -0.2169 -0.2547
  663MOL0     H89504   5.960  10.843  10.858 -0.3121  0.3084 -1.4448
  663MOL0     H89505   5.732  10.848  10.821  4.8065 -2.1575  1.2429
  664MOL0     O89506   6.333   0.734  10.935 -0.4096  0.0367  1.0413
  664MOL0     C89507   6.329   0.846  10.988 -0.8661 -0.2229 -0.4137
  664MOL0     O89508   6.213   0.906  11.034 -0.7648  0.6948 -0.0409
  664MOL0     C89509   6.086   0.853  11.025  0.4530  0.1473  0.0882
  664MOL0     C89510   6.060   0.717  11.068 -0.3459 -0.1941  0.0018
  664MOL0     C89511   5.928   0.672  11.071  0.1115 -0.0004  0.8963
  664MOL0     C89512   5.821   0.761  11.038 -0.4471 -0.2019  0.5300
  664MOL0     O89513   5.692   0.722  11.041  0.2126  0.6876  0.3535
  664MOL0     C89514   5.675   0.576  11.027 -0.4862  0.5000  0.5125
  664MOL0     C89515   5.524   0.548  11.044 -0.5384  0.0249  0.7462
  664MOL0     C89516   5.453   0.597  11.163  0.1105 -0.3933 -0.1872
  664MOL0     C89517   5.309   0.536  11.171  0.3672  0.6080 -0.1295
  664MOL0     C89518   5.257   0.505  11.317  0.8859 -0.4099 -0.7552
  664MOL0     C89519   5.106   0.468  11.306  0.5722  0.5030 -0.2724
  664MOL0     C89520   5.036   0.460  11.444  1.0114  0.6848 -0.1446
  664MOL0     C89521   4.917   0.361  11.456  0.1252 -0.3555 -0.4562
  664MOL0     N89522   4.816   0.383  11.350 -0.3075  0.4509  0.6621
  664MOL0     C89523   4.710   0.299  11.321  0.0775 -0.0894 -0.7757
  664MOL0     C89524   4.618   0.371  11.258  0.4697 -0.6499  0.7610
  664MOL0     C89525   4.482   0.318  11.208  0.6056 -0.1988  0.2772
  664MOL0     C89526   4.366   0.406  11.267  0.2267  0.1432 -0.3183
  664MOL0     C89527   4.239   0.392  11.184 -0.5055  0.7441 -0.2922
  664MOL0     C89528   4.120   0.474  11.229 -0.3236  0.1448 -0.4929
  664MOL0     O89529   4.070   0.422  11.356  0.8924 -0.0059 -0.3451
  664MOL0     C89530   3.960   0.485  11.403  0.1492  0.0491 -0.4935
  664MOL0     C89531   3.957   0.565  11.517 -0.1520  0.4888 -0.9875
  664MOL0     C89532   3.832   0.601  11.578 -0.6812 -0.0606 -0.6693
  664MOL0     C89533   3.845   0.693  11.700  0.0161  0.1802 -0.2723
  664MOL0     C89534   3.711   0.550  11.527 -0.4577  0.2354  0.1155
  664MOL0     C89535   3.578   0.592  11.587  0.2514 -0.3434 -0.0818
  664MOL0     O89536   3.482   0.499  11.550  0.4745  0.8971  0.3596
  664MOL0     C89537   3.358   0.500  11.613  0.8719 -0.7806 -0.2220
  664MOL0     C89538   3.242   0.513  11.531 -0.6037 -0.0227 -0.6253
  664MOL0     C89539   3.118   0.524  11.591  0.5244 -0.3353  0.6466
  664MOL0     C89540   3.107   0.531  11.731  0.8120  0.5666  0.1284
  664MOL0     O89541   2.981   0.537  11.778 -0.2542 -0.3225 -0.8531
  664MOL0     C89542   2.946   0.519  11.926 -0.1011 -0.4446  1.4779
  664MOL0     C89543   2.810   0.584  11.952 -0.5154  1.3714 -0.1953
  664MOL0     C89544   2.709   0.513  11.883 -0.3252  0.5920 -0.2620
  664MOL0     C89545   2.568   0.531  11.943 -0.6023 -0.1133 -0.2158
  664MOL0     C89546   2.456   0.472  11.857 -0.0522  0.2378  0.2721
  664MOL0     C89547   2.321   0.464  11.927 -0.1362 -0.1984  0.1086
  664MOL0     C89548   2.210   0.425  11.820 -0.3301  0.0860 -0.4637
  664MOL0     C89549   2.069   0.435  11.878  0.5233 -0.5159  0.6193
  664MOL0    Cl89550   2.057   0.323  12.015 -0.1411 -0.2131  0.1588
  664MOL0     C89551   3.216   0.520  11.811 -0.6904 -0.4149 -0.5980
  664MOL0     C89552   3.347   0.508  11.750  0.4300  0.2871 -1.3175
  664MOL0     O89553   3.565   0.704  11.654  0.2583  0.1575  0.0516
  664MOL0     C89554   3.712   0.468  11.414 -0.6887  0.3749  0.0807
  664MOL0     C89555   3.839   0.431  11.354  0.3895 -0.2052 -0.7078
  664MOL0     N89556   4.670   0.502  11.241 -0.1093  0.2340 -0.1619
  664MOL0     N89557   4.783   0.504  11.290 -0.1307 -0.1792  0.0232
  664MOL0     C89558   5.859   0.887  10.990  0.1815 -0.8749  0.8019
  664MOL0     C89559   5.989   0.934  10.990  1.0067  0.2793 -0.2108
  664MOL0     C89560   6.446   0.929  10.982 -0.4850 -0.1335 -0.2294
  664MOL0     C89561   6.574   0.869  10.952  0.0496 -0.5115 -0.6423
  664MOL0     C89562   6.692   0.945  10.972  0.8997  0.2209 -0.1601
  664MOL0     C89563   6.688   1.079  11.015  1.2586 -0.4484 -0.0735
  664MOL0     O89564   6.794   1.164  11.029  0.6606 -0.0874 -0.1824
  664MOL0     C89565   6.923   1.124  11.072  0.3706 -0.4655 -0.1541
  664MOL0     C89566   6.995   1.247  11.127 -0.6468  0.8332 -0.6534
  664MOL0     C89567   6.920   1.314  11.244 -0.2266  0.1267  0.4128
  664MOL0     C89568   6.990   1.440  11.299  1.1246  0.3992  0.0832
  664MOL0     C89569   6.906   1.498  11.400  0.1647 -0.4343  0.3872
  664MOL0     C89570   6.828   1.541  11.485  0.3737 -0.1763  0.6610
  664MOL0     C89571   6.558   1.132  11.040 -0.7532 -0.2479 -0.4783
  664MOL0     C89572   6.442   1.061  11.033 -0.2932 -0.7164  0.8954
  664MOL0     H89573   6.141   0.651  11.096  0.7924  1.2266  0.2067
  664MOL0     H89574   5.919   0.569  11.106 -2.2345  0.2116  1.0326
  664MOL0     H89575   5.723   0.546  10.933  0.4174  0.2265  1.0523
  664MOL0     H89576   5.723   0.519  11.107 -2.7577 -1.6774  0.4569
  664MOL0     H89577   5.477   0.599  10.960 -1.3309  2.5348  2.6217
  664MOL0     H89578   5.517   0.439  11.035  0.8777 -0.0174 -0.3453
  664MOL0     H89579   5.505   0.565  11.254 -1.3634  2.9062  2.0382
  664MOL0     H89580   5.461   0.706  11.164 -0.1253 -0.3593  1.6096
  664MOL0     H89581   5.242   0.596  11.108  0.0296 -0.5882 -0.9554
  664MOL0     H89582   5.326   0.440  11.119  1.7729  0.8644 -0.1906
  664MOL0     H89583   5.325   0.437  11.367 -0.1925  0.0287  1.4440
  664MOL0     H89584   5.253   0.594  11.381 -2.9827 -0.9432 -0.0048
  664MOL0     H89585   5.044   0.536  11.246 -0.3392  0.9795  1.1609
  664MOL0     H89586   5.115   0.370  11.260  2.6945  0.7500 -0.4810
  664MOL0     H89587   5.104   0.418  11.518  1.9468 -0.0909 -1.3975
  664MOL0     H89588   5.007   0.558  11.482  1.1029  0.5130  0.3734
  664MOL0     H89589   4.866   0.371  11.552  1.4597 -0.0863  0.2555
  664MOL0     H89590   4.948   0.257  11.437 -1.2052 -0.8011 -0.2681
  664MOL0     H89591   4.699   0.196  11.353 -2.3138  1.5129  4.6949
  664MOL0     H89592   4.488   0.329  11.099  1.0349  0.1769  0.3345
  664MOL0     H89593   4.462   0.212  11.225 -1.2393 -0.2620 -1.8234
  664MOL0     H89594   4.389   0.513  11.271 -0.4743  0.3522 -1.4290
  664MOL0     H89595   4.359   0.368  11.370  1.9421  0.2116 -0.1475
  664MOL0     H89596   4.217   0.286  11.201 -0.6697  0.6943 -0.8104
  664MOL0     H89597   4.255   0.415  11.078  3.0415  3.1910  0.5792
  664MOL0     H89598   4.043   0.461  11.152 -0.0553 -0.5044 -0.6545
  664MOL0     H89599   4.150   0.579  11.234  0.7124 -0.1896  1.3201
  664MOL0     H89600   4.051   0.595  11.561 -0.5562 -1.7505  1.7275
  664MOL0     H89601   3.945   0.713  11.739 -0.2451  1.4660 -0.2030
  664MOL0     H89602   3.812   0.793  11.668  0.2733  0.3067 -0.1424
  664MOL0     H89603   3.777   0.660  11.780 -2.5064  0.5204 -2.1325
  664MOL0     H89604   3.248   0.513  11.423 -2.0926  0.9502 -0.7275
  664MOL0     H89605   3.021   0.532  11.544  0.0920 -1.1437  1.3773
  664MOL0     H89606   2.939   0.414  11.956 -2.9561 -0.5594  0.7001
  664MOL0     H89607   3.023   0.566  11.989  1.1081  0.2511 -0.4279
  664MOL0     H89608   2.788   0.578  12.059  0.7533  0.3168  0.0193
  664MOL0     H89609   2.816   0.690  11.925  0.2592  0.7713 -2.6119
  664MOL0     H89610   2.733   0.408  11.900  0.7515  1.0878  1.5185
  664MOL0     H89611   2.710   0.541  11.777  2.5990  0.5902 -0.3292
  664MOL0     H89612   2.566   0.489  12.043 -1.5464  2.4679  0.9288
  664MOL0     H89613   2.553   0.638  11.960 -4.0439 -0.4651 -0.3341
  664MOL0     H89614   2.492   0.378  11.815 -2.6672 -0.2948 -0.9739
  664MOL0     H89615   2.449   0.524  11.761  2.2802  0.0264 -0.0778
  664MOL0     H89616   2.313   0.396  12.012 -0.9847 -0.4154 -0.1383
  664MOL0     H89617   2.304   0.563  11.971 -2.3814 -0.7602  0.6360
  664MOL0     H89618   2.223   0.322  11.783  0.5954  0.0772 -0.1482
  664MOL0     H89619   2.219   0.500  11.741 -2.4232 -1.3995 -2.2185
  664MOL0     H89620   1.992   0.419  11.802 -0.7289  3.2418  0.9234
  664MOL0     H89621   2.044   0.538  11.903  0.6970  0.0136 -1.2226
  664MOL0     H89622   3.211   0.532  11.918  1.7105 -0.0892 -0.4555
  664MOL0     H89623   3.434   0.505  11.815 -0.8039  3.4985  0.6785
  664MOL0     H89624   3.621   0.430  11.370 -0.6268  0.5805 -0.2301
  664MOL0     H89625   3.851   0.354  11.279 -2.9878 -0.3051 -1.2852
  664MOL0     H89626   5.781   0.953  10.954 -1.6612 -2.7195  1.2354
  664MOL0     H89627   6.005   1.037  10.962 -0.1333  0.9024  1.2909
  664MOL0     H89628   6.587   0.764  10.928 -2.7791 -0.6172 -2.1558
  664MOL0     H89629   6.794   0.913  10.952  1.1040 -0.2329  1.4691
  664MOL0     H89630   6.916   1.039  11.141  0.3874  0.9689  1.6774
  664MOL0     H89631   6.982   1.087  10.987  1.1626 -0.8217  0.5391
  664MOL0     H89632   7.017   1.322  11.051 -0.1366  2.8084  1.3234
  664MOL0     H89633   7.093   1.218  11.165 -1.5641 -0.8352  0.5987
  664MOL0     H89634   6.904   1.235  11.319  0.2455 -1.5716 -1.2022
  664MOL0     H89635   6.820   1.343  11.213 -0.4488 -1.7319 -0.7912
  664MOL0     H89636   7.006   1.512  11.218 -0.1078 -1.6276 -2.0964
  664MOL0     H89637   7.090   1.417  11.337  1.8217  2.1293 -0.5834
  664MOL0     H89638   6.758   1.586  11.553  0.2565  1.0198 -0.2088
  664MOL0     H89639   6.545   1.235  11.073 -0.3153  0.8552 -3.4614
  664MOL0     H89640   6.352   1.113  11.065  0.1743  0.9435 -0.3666
  665MOL0     O89641   6.736   9.876  10.831  0.4606  0.6736 -1.1629
  665MOL0     C89642   6.772   9.762  10.828  0.1715  0.4708 -0.3924
  665MOL0     O89643   6.695   9.649  10.866 -0.4195 -0.6399  0.4293
  665MOL0     C89644   6.553   9.660  10.885 -0.3448  0.0645 -0.0037
  665MOL0     C89645   6.459   9.561  10.834 -0.1532 -0.8025 -0.5891
  665MOL0     C89646   6.330   9.576  10.867  0.0353 -0.3549 -0.1898
  665MOL0     C89647   6.277   9.673  10.952 -0.7744  0.7613 -0.1736
  665MOL0     O89648   6.148   9.657  10.983  0.6383  0.0695 -0.6196
  665MOL0     C89649   6.119   9.704  11.113 -0.5024  0.5157 -0.3439
  665MOL0     C89650   6.007   9.618  11.190  0.5531 -0.3441 -0.0922
  665MOL0     C89651   5.862   9.667  11.151  0.5522  0.6983 -0.1785
  665MOL0     C89652   5.751   9.586  11.221  1.0034 -0.7830 -0.9987
  665MOL0     C89653   5.620   9.625  11.153  0.8477  0.2788  0.1193
  665MOL0     C89654   5.498   9.587  11.237  0.2534  0.6701  0.4427
  665MOL0     C89655   5.356   9.634  11.174 -0.0923 -0.4145 -0.5345
  665MOL0     C89656   5.262   9.695  11.281  0.6187  0.3486 -0.7134
  665MOL0     N89657   5.121   9.703  11.244 -0.3791 -0.2024 -0.2344
  665MOL0     C89658   5.055   9.781  11.144 -0.5335 -0.0241  0.1244
  665MOL0     C89659   4.923   9.760  11.171  0.5584 -0.3819  0.0012
  665MOL0     C89660   4.804   9.824  11.117  0.3646 -0.2217  0.9049
  665MOL0     C89661   4.846   9.933  11.015  1.2531 -0.4230  0.9065
  665MOL0     C89662   4.723   9.973  10.937 -0.5884 -0.2305  0.4229
  665MOL0     C89663   4.755  10.031  10.795 -0.5873  1.3934 -0.6158
  665MOL0     O89664   4.634  10.027  10.715  0.0643  1.0630  0.2828
  665MOL0     C89665   4.591  10.151  10.678  0.4499 -0.4429  0.3395
  665MOL0     C89666   4.657  10.229  10.586  0.1513 -0.4084  1.0686
  665MOL0     C89667   4.606  10.355  10.550  0.0838  0.2227  0.4304
  665MOL0     C89668   4.685  10.434  10.458 -0.4918  0.4016  0.7241
  665MOL0     C89669   4.471  10.386  10.587  0.6628 -0.0779 -0.3773
  665MOL0     C89670   4.390  10.508  10.539  0.6172 -0.7585  0.7063
  665MOL0     O89671   4.267  10.524  10.610  0.2740  0.2096 -0.3309
  665MOL0     C89672   4.162  10.604  10.575 -0.5578  1.0578 -0.4634
  665MOL0     C89673   4.146  10.662  10.454  0.1624 -0.6093  0.0795
  665MOL0     C89674   4.030  10.743  10.425 -0.7403  0.9509 -0.4854
  665MOL0     C89675   3.927  10.756  10.529 -0.1203  0.3801  0.9310
  665MOL0     O89676   3.804  10.818  10.501 -1.2842 -0.0296 -0.0480
  665MOL0     C89677   3.821  10.950  10.459  0.2337 -0.2508 -0.2650
  665MOL0     C89678   3.692  11.030  10.475  0.7435 -0.3421  0.1039
  665MOL0     C89679   3.702  11.179  10.442  0.4991 -0.1223 -0.7777
  665MOL0     C89680   3.681  11.208  10.297 -0.8323  0.6629  0.4105
  665MOL0     C89681   3.692  11.365  10.258  0.2994 -0.8153 -0.2961
  665MOL0     C89682   3.649  11.383  10.119 -0.1952  0.9414  0.5531
  665MOL0     C89683   3.661  11.526  10.073 -0.4602 -0.4502 -0.8342
  665MOL0     C89684   3.658  11.563   9.925 -0.4397  0.4137  0.5785
  665MOL0    Cl89685   3.789  11.479   9.843 -0.0526  0.0584 -0.4069
  665MOL0     C89686   3.947  10.692  10.650  0.4806  0.2904  0.0512
  665MOL0     C89687   4.067  10.623  10.679 -0.3727 -0.7148 -0.1730
  665MOL0     O89688   4.433  10.578  10.445  0.7736 -0.3400 -0.0284
  665MOL0     C89689   4.412  10.312  10.692  1.0138  1.5497 -0.4912
  665MOL0     C89690   4.475  10.198  10.745  0.0958 -0.1501  1.1439
  665MOL0     N89691   4.910   9.674  11.285 -0.2039  0.7519  0.1694
  665MOL0     N89692   5.027   9.636  11.327  0.6291  0.3241  0.8631
  665MOL0     C89693   6.363   9.772  10.998 -1.0565  0.0670  0.2551
  665MOL0     C89694   6.499   9.759  10.971 -0.4257  0.4031  0.5568
  665MOL0     C89695   6.905   9.733  10.764 -0.0090  0.1131  0.2590
  665MOL0     C89696   6.949   9.608  10.732  0.5401 -0.5404 -0.2603
  665MOL0     C89697   7.073   9.584  10.675  0.1286 -0.1453  0.8127
  665MOL0     C89698   7.164   9.690  10.640  0.2410 -0.9264  0.0732
  665MOL0     O89699   7.295   9.681  10.590  0.1475 -0.3761 -0.3588
  665MOL0     C89700   7.363   9.555  10.567 -0.0778  0.8919  0.9935
  665MOL0     C89701   7.510   9.587  10.514 -0.3851  0.7922  0.1947
  665MOL0     C89702   7.607   9.466  10.514 -0.2825 -0.4881 -0.2675
  665MOL0     C89703   7.753   9.506  10.509  0.4618 -0.7199  0.0051
  665MOL0     C89704   7.787   9.576  10.382  0.0266  0.7537  0.2356
  665MOL0     C89705   7.829   9.609  10.274  0.1620 -0.1055  0.9202
  665MOL0     C89706   7.115   9.817  10.675  0.5166  0.1700  0.8129
  665MOL0     C89707   6.993   9.839  10.746  0.4538  0.1674  0.0916
  665MOL0     H89708   6.499   9.478  10.776 -2.4633 -0.3660 -3.0227
  665MOL0     H89709   6.272   9.491  10.831 -0.3633  0.5900 -1.8868
  665MOL0     H89710   6.204   9.680  11.178 -1.8555 -0.0877  1.2560
  665MOL0     H89711   6.102   9.812  11.103 -2.2120  0.1314 -2.1240
  665MOL0     H89712   6.006   9.510  11.171 -5.0792 -0.6763  0.2703
  665MOL0     H89713   6.025   9.636  11.296 -0.3701  1.1285 -0.1561
  665MOL0     H89714   5.854   9.772  11.183 -0.2491  0.7002 -0.3534
  665MOL0     H89715   5.859   9.676  11.042  3.3792 -1.8859 -0.5860
  665MOL0     H89716   5.765   9.478  11.217  0.4311 -0.8503 -1.4155
  665MOL0     H89717   5.753   9.616  11.326  0.6284  0.0472 -1.2176
  665MOL0     H89718   5.610   9.731  11.128 -2.2595  0.5050  1.8653
  665MOL0     H89719   5.613   9.563  11.062 -0.6446  0.3758  0.1399
  665MOL0     H89720   5.496   9.478  11.252  1.4181 -0.0356 -3.4722
  665MOL0     H89721   5.509   9.633  11.335  0.9503  0.1097  0.6375
  665MOL0     H89722   5.374   9.712  11.100 -1.4052  0.1772 -0.2507
  665MOL0     H89723   5.307   9.546  11.132 -1.0608  0.0012 -0.2884
  665MOL0     H89724   5.307   9.792  11.305 -2.4498  1.6891  0.0612
  665MOL0     H89725   5.276   9.641  11.375  2.4325 -1.9503 -2.1996
  665MOL0     H89726   5.098   9.856  11.078 -1.3037 -0.7539 -1.2411
  665MOL0     H89727   4.743   9.752  11.061  0.7883  1.7582 -2.3474
  665MOL0     H89728   4.741   9.861  11.199 -1.2079  0.1056 -0.4093
  665MOL0     H89729   4.914   9.897  10.937 -0.0796  1.5214 -1.2802
  665MOL0     H89730   4.883  10.029  11.054 -0.6743  1.4154 -1.5058
  665MOL0     H89731   4.680  10.054  10.996 -0.7017 -1.1317  1.6005
  665MOL0     H89732   4.655   9.887  10.931  1.3863 -1.7852 -0.8270
  665MOL0     H89733   4.843   9.984  10.749  1.0486  0.0755  3.4579
  665MOL0     H89734   4.793  10.133  10.811  1.3712  0.3252  2.3576
  665MOL0     H89735   4.753  10.197  10.547  0.9577  2.8727  0.0432
  665MOL0     H89736   4.771  10.374  10.429 -0.0199  1.6391 -0.5749
  665MOL0     H89737   4.641  10.468  10.364  1.4401  0.8102 -0.0819
  665MOL0     H89738   4.716  10.529  10.504  0.9318  0.3465 -0.0699
  665MOL0     H89739   4.214  10.656  10.370  1.2115  1.4016  0.6981
  665MOL0     H89740   4.019  10.795  10.331  1.8358  0.6313 -1.0468
  665MOL0     H89741   3.905  10.993  10.514 -1.0503  2.5235 -0.3100
  665MOL0     H89742   3.855  10.945  10.355  0.7044  0.0819 -0.1333
  665MOL0     H89743   3.616  10.990  10.408 -1.9113  4.4179 -0.1559
  665MOL0     H89744   3.651  11.016  10.575 -2.8871 -0.6044 -1.2773
  665MOL0     H89745   3.796  11.216  10.485  0.5067 -1.7391  0.7605
  665MOL0     H89746   3.629  11.234  10.502  1.6011 -0.8741  1.3832
  665MOL0     H89747   3.755  11.151  10.241 -2.3696  0.6950 -1.7699
  665MOL0     H89748   3.583  11.173  10.263  0.4144  0.1267 -3.0468
  665MOL0     H89749   3.796  11.398  10.263 -0.1508  0.5622  0.6577
  665MOL0     H89750   3.632  11.426  10.325 -1.6609 -2.6233 -0.3022
  665MOL0     H89751   3.709  11.319  10.054 -1.7367  0.2629 -0.2536
  665MOL0     H89752   3.544  11.353  10.105 -1.1303  3.7715  0.8980
  665MOL0     H89753   3.755  11.560  10.117  0.1754 -0.8374 -1.8633
  665MOL0     H89754   3.588  11.580  10.134  0.7298 -1.0271  1.2222
  665MOL0     H89755   3.673  11.671   9.913 -0.9882  0.4117 -0.1585
  665MOL0     H89756   3.564  11.536   9.877 -1.0890 -0.0486  2.0671
  665MOL0     H89757   3.862  10.684  10.717 -1.5779 -1.1029 -2.5416
  665MOL0     H89758   4.087  10.564  10.768  0.1331 -1.5402 -0.8254
  665MOL0     H89759   4.317  10.328  10.742  1.2898 -0.9933  1.0177
  665MOL0     H89760   4.423  10.139  10.820 -2.5313 -0.5081 -0.8240
  665MOL0     H89761   6.334   9.850  11.069 -0.8386 -1.5667  2.2211
  665MOL0     H89762   6.570   9.834  11.005  0.2865  1.3042 -2.6122
  665MOL0     H89763   6.886   9.524  10.759 -1.1395 -0.1583 -2.6150
  665MOL0     H89764   7.095   9.478  10.669 -1.5487 -0.6388  2.4287
  665MOL0     H89765   7.369   9.495  10.659 -0.7118 -0.8161 -0.0363
  665MOL0     H89766   7.305   9.493  10.498  0.4292  2.5520 -1.0156
  665MOL0     H89767   7.557   9.668  10.571 -1.3799  1.2017  0.4450
  665MOL0     H89768   7.488   9.626  10.414 -0.8816  2.7563  1.0293
  665MOL0     H89769   7.585   9.406  10.425 -1.5720 -0.4600  0.0174
  665MOL0     H89770   7.586   9.410  10.606 -0.5902  3.0917  2.0151
  665MOL0     H89771   7.818   9.419  10.524  0.5233 -0.2932  2.6284
  665MOL0     H89772   7.781   9.575  10.588 -0.2139  1.8312 -1.8553
  665MOL0     H89773   7.854   9.653  10.180 -1.2755 -1.6574 -0.2289
  665MOL0     H89774   7.168   9.905  10.640  0.8111 -0.0275  0.7537
  665MOL0     H89775   6.965   9.940  10.773 -3.0297 -0.9400  1.0839
  666MOL0     O89776   8.624   0.287   5.595  0.1686  0.5090  0.1058
  666MOL0     C89777   8.675   0.398   5.570  1.2770  0.5871 -0.0486
  666MOL0     O89778   8.602   0.508   5.533 -0.2635 -0.0665  0.2625
  666MOL0     C89779   8.467   0.500   5.508 -0.8221  0.0433  0.2816
  666MOL0     C89780   8.370   0.444   5.594  0.6305 -0.0160 -0.4133
  666MOL0     C89781   8.238   0.433   5.554 -0.2955  0.0424  0.5278
  666MOL0     C89782   8.190   0.484   5.429  0.1621 -0.2626  0.5060
  666MOL0     O89783   8.055   0.476   5.400  0.1004 -0.6123  0.2598
  666MOL0     C89784   7.959   0.449   5.503  0.3433 -0.7946  0.8486
  666MOL0     C89785   7.825   0.474   5.447  0.5151  0.7069  0.3281
  666MOL0     C89786   7.711   0.421   5.528 -0.8870  0.7512  0.2056
  666MOL0     C89787   7.584   0.472   5.463  0.1882  0.2383  0.2492
  666MOL0     C89788   7.450   0.422   5.529 -0.3613  0.3080 -0.2325
  666MOL0     C89789   7.417   0.272   5.496  0.0418 -0.2250 -0.1075
  666MOL0     C89790   7.279   0.211   5.527  0.4524 -0.8329  0.7086
  666MOL0     C89791   7.255   0.194   5.674 -0.0511  0.7098  0.1235
  666MOL0     N89792   7.139   0.103   5.688 -0.4692 -0.5073 -0.1798
  666MOL0     C89793   7.163  -0.027   5.716  0.7569  0.2611 -1.2926
  666MOL0     C89794   7.040  -0.070   5.723 -0.8082 -0.7457 -0.0377
  666MOL0     C89795   6.986  -0.210   5.731  0.0381 -0.5112  0.1422
  666MOL0     C89796   6.977  -0.245   5.885  0.2599 -0.4057  0.8251
  666MOL0     C89797   6.942  -0.391   5.914  0.7589  0.2772  0.0596
  666MOL0     C89798   6.794  -0.419   5.918 -0.0968 -1.0926  0.8854
  666MOL0     O89799   6.732  -0.348   5.805 -0.2328  0.2606 -0.1731
  666MOL0     C89800   6.617  -0.390   5.743 -0.9363 -0.2688 -0.5739
  666MOL0     C89801   6.519  -0.471   5.801 -0.3833 -0.3037  0.8282
  666MOL0     C89802   6.397  -0.502   5.728 -0.0022  0.5015  0.1947
  666MOL0     C89803   6.320  -0.617   5.796 -0.3914  0.6668  0.4967
  666MOL0     C89804   6.363  -0.432   5.608 -0.6557  0.4924  0.4927
  666MOL0     C89805   6.237  -0.441   5.536 -0.2606  1.4571 -0.2108
  666MOL0     O89806   6.130  -0.492   5.611  0.4088  1.2387 -0.2129
  666MOL0     C89807   6.016  -0.516   5.538  0.9530 -0.0394 -0.7201
  666MOL0     C89808   5.919  -0.423   5.534  0.2905  0.1800  0.2030
  666MOL0     C89809   5.799  -0.457   5.467 -0.2202 -0.0104 -0.0417
  666MOL0     C89810   5.789  -0.577   5.411 -0.3619  0.1223 -0.5598
  666MOL0     O89811   5.681  -0.614   5.332  0.0922  0.1848  0.9872
  666MOL0     C89812   5.564  -0.530   5.334 -0.4626 -0.0081  0.7819
  666MOL0     C89813   5.570  -0.407   5.241  0.2442  0.2271 -0.2731
  666MOL0     C89814   5.439  -0.332   5.239 -0.8778 -0.8181 -0.1142
  666MOL0     C89815   5.393  -0.254   5.365  0.3742 -0.0282  0.1639
  666MOL0     C89816   5.245  -0.210   5.360 -0.4974  0.4517  0.0755
  666MOL0     C89817   5.213  -0.108   5.254 -0.0257  0.3700 -0.0326
  666MOL0     C89818   5.080  -0.042   5.262 -0.3040  0.4458  0.2305
  666MOL0     C89819   4.958  -0.127   5.247  0.7472  0.0935 -0.1262
  666MOL0    Cl89820   4.811  -0.032   5.200 -0.1711  0.0828  0.0091
  666MOL0     C89821   5.892  -0.673   5.413  0.0401 -0.8548  0.4708
  666MOL0     C89822   6.004  -0.640   5.484 -0.6909 -0.4694 -0.3420
  666MOL0     O89823   6.236  -0.417   5.418 -0.2441 -0.2560 -0.0340
  666MOL0     C89824   6.470  -0.348   5.559  0.2673  0.6086  0.0054
  666MOL0     C89825   6.588  -0.333   5.619  0.0219 -0.4419  0.0259
  666MOL0     N89826   6.950   0.031   5.724 -0.8564 -0.4212  0.1505
  666MOL0     N89827   7.011   0.137   5.692 -0.2113 -0.9345  0.3327
  666MOL0     C89828   8.288   0.536   5.349  0.6326  0.1153  0.1068
  666MOL0     C89829   8.420   0.549   5.384  0.2718 -1.2551  0.3637
  666MOL0     C89830   8.815   0.409   5.602 -0.8903 -0.0177 -0.7226
  666MOL0     C89831   8.896   0.305   5.650 -0.9466 -0.6321  0.4484
  666MOL0     C89832   9.035   0.325   5.671 -1.0012  0.2686 -0.1799
  666MOL0     C89833   9.103   0.441   5.643  0.6841  0.3700 -0.0595
  666MOL0     O89834   9.233   0.461   5.680  0.4231  0.5713  0.0952
  666MOL0     C89835   9.303   0.584   5.655 -0.8254  0.2711 -0.1839
  666MOL0     C89836   9.315   0.656   5.801 -0.7805  0.0446  0.2009
  666MOL0     C89837   9.439   0.730   5.811 -0.9052 -0.1786 -0.0283
  666MOL0     C89838   9.452   0.848   5.716 -0.3507 -0.2861  0.2306
  666MOL0     C89839   9.350   0.953   5.737 -0.0103  0.6398 -1.0743
  666MOL0     C89840   9.262   1.041   5.746  1.0177 -0.0803 -0.5519
  666MOL0     C89841   9.015   0.543   5.605  0.2209  0.3996  0.3504
  666MOL0     C89842   8.880   0.530   5.573 -0.9493  0.0296 -0.0923
  666MOL0     H89843   8.411   0.404   5.686 -0.7594  1.5072  0.9357
  666MOL0     H89844   8.159   0.386   5.613 -0.4871  3.0930  2.9564
  666MOL0     H89845   7.970   0.345   5.535  1.9200 -0.2278  2.2745
  666MOL0     H89846   7.967   0.509   5.594 -2.4821 -0.3842  0.9420
  666MOL0     H89847   7.815   0.583   5.441  1.1306  0.7281 -0.5325
  666MOL0     H89848   7.825   0.424   5.349  1.1824 -0.3845  0.8640
  666MOL0     H89849   7.720   0.312   5.519  1.9841  1.0586 -2.6053
  666MOL0     H89850   7.721   0.463   5.628  3.0293  1.1512 -0.2120
  666MOL0     H89851   7.586   0.581   5.464  0.2991  0.3508 -2.8059
  666MOL0     H89852   7.576   0.442   5.358 -4.4786 -0.1752  0.4930
  666MOL0     H89853   7.455   0.437   5.637 -0.4152 -1.2439  0.0022
  666MOL0     H89854   7.363   0.480   5.494 -0.5327  0.2809  0.1429
  666MOL0     H89855   7.432   0.250   5.389  1.3842 -2.5411  0.4799
  666MOL0     H89856   7.493   0.210   5.545  1.3024 -0.4431 -2.1783
  666MOL0     H89857   7.207   0.277   5.480  1.2657 -0.8559 -0.6303
  666MOL0     H89858   7.267   0.113   5.479 -1.1607 -0.2432 -0.1252
  666MOL0     H89859   7.236   0.294   5.713 -0.5973  0.9169 -0.6437
  666MOL0     H89860   7.342   0.146   5.719 -1.3286 -2.4288 -0.5054
  666MOL0     H89861   7.262  -0.070   5.733 -0.3263 -2.2288 -0.9278
  666MOL0     H89862   6.887  -0.208   5.684 -0.0713  1.5643  0.3797
  666MOL0     H89863   7.054  -0.275   5.675  0.8141  1.3747 -1.1694
  666MOL0     H89864   6.902  -0.182   5.934 -0.6650 -1.1865  0.4329
  666MOL0     H89865   7.077  -0.218   5.921  1.3975 -0.6957 -1.9083
  666MOL0     H89866   6.975  -0.423   6.014 -3.1296 -0.9411  1.1378
  666MOL0     H89867   6.975  -0.451   5.829  0.4217  0.6464 -0.3389
  666MOL0     H89868   6.749  -0.389   6.013 -2.9239 -2.1856 -0.0058
  666MOL0     H89869   6.776  -0.527   5.913  0.1117 -1.1889  2.0197
  666MOL0     H89870   6.546  -0.510   5.899  2.0347  0.1323  0.4029
  666MOL0     H89871   6.388  -0.683   5.852 -0.8136 -0.3227 -0.1303
  666MOL0     H89872   6.241  -0.584   5.863 -3.3642 -1.2093 -1.8274
  666MOL0     H89873   6.269  -0.670   5.715 -0.4746 -0.0366  1.0026
  666MOL0     H89874   5.923  -0.320   5.567 -0.5443 -0.6372  3.1689
  666MOL0     H89875   5.721  -0.383   5.453 -0.2787  0.1980  1.2715
  666MOL0     H89876   5.472  -0.580   5.301 -0.9559  1.7427 -0.6476
  666MOL0     H89877   5.549  -0.487   5.433 -0.2052 -1.2211  1.3678
  666MOL0     H89878   5.647  -0.332   5.262  1.5272 -0.3401 -2.6049
  666MOL0     H89879   5.589  -0.449   5.142  0.9708  0.8141 -0.3940
  666MOL0     H89880   5.360  -0.400   5.207 -0.7800 -0.6667 -0.6933
  666MOL0     H89881   5.454  -0.252   5.166  1.8220  0.4509  1.6432
  666MOL0     H89882   5.406  -0.313   5.456  0.2005  0.5178  0.5425
  666MOL0     H89883   5.457  -0.166   5.358  1.8427 -1.1203 -0.8654
  666MOL0     H89884   5.213  -0.177   5.459 -0.0377 -0.3021  0.4830
  666MOL0     H89885   5.181  -0.296   5.339 -0.9993  0.8085  0.1167
  666MOL0     H89886   5.289  -0.030   5.253 -1.6823  2.0344 -1.1620
  666MOL0     H89887   5.209  -0.161   5.158 -1.1501  0.6069 -0.1298
  666MOL0     H89888   5.083   0.031   5.181 -1.3395 -0.8189 -1.0093
  666MOL0     H89889   5.078   0.008   5.360  0.7762  3.2467 -1.0880
  666MOL0     H89890   4.942  -0.181   5.341 -1.0942 -0.2069 -0.5640
  666MOL0     H89891   4.968  -0.203   5.169  0.9500  0.9416 -0.9379
  666MOL0     H89892   5.871  -0.773   5.376 -1.1090 -0.3491 -0.3235
  666MOL0     H89893   6.081  -0.715   5.499  0.0214  0.8287  3.7851
  666MOL0     H89894   6.449  -0.280   5.477 -0.4116  0.4600  0.0522
  666MOL0     H89895   6.659  -0.262   5.578 -0.2029  1.0762  2.1556
  666MOL0     H89896   8.268   0.545   5.243  0.4447  0.5106  0.1733
  666MOL0     H89897   8.484   0.596   5.310 -0.1710  0.5403  1.0759
  666MOL0     H89898   8.845   0.211   5.670 -4.1220  1.2843  2.0930
  666MOL0     H89899   9.097   0.243   5.705  0.1557  1.2160  0.0778
  666MOL0     H89900   9.402   0.549   5.622  1.3007 -1.2509  6.2966
  666MOL0     H89901   9.262   0.648   5.576  1.1096 -0.9198 -2.2923
  666MOL0     H89902   9.322   0.573   5.873  2.1556  1.5648  1.8453
  666MOL0     H89903   9.224   0.713   5.821  1.1011  2.4888  2.5446
  666MOL0     H89904   9.524   0.662   5.801 -0.7689 -0.0351  0.1421
  666MOL0     H89905   9.449   0.777   5.910  1.3265 -0.5732 -0.0137
  666MOL0     H89906   9.451   0.803   5.616  1.0337 -0.9470  0.4900
  666MOL0     H89907   9.552   0.892   5.732  0.9782 -2.8531 -0.5038
  666MOL0     H89908   9.193   1.123   5.745 -1.6578 -2.1647  1.1295
  666MOL0     H89909   9.055   0.643   5.598 -0.2470  0.5179 -0.7489
  666MOL0     H89910   8.831   0.625   5.552 -0.5137 -0.0204 -1.4488
  667MOL0     O89911   9.670  10.740  10.041 -1.0407  0.2984  0.0110
  667MOL0     C89912   9.685  10.832   9.965 -0.9357 -0.1138  0.0331
  667MOL0     O89913   9.597  10.930   9.948  0.4761 -0.1569 -0.4876
  667MOL0     C89914   9.482  10.921  10.028  0.8896  0.5926  0.5646
  667MOL0     C89915   9.478  11.004  10.137 -0.3378  0.4731  0.0628
  667MOL0     C89916   9.365  11.017  10.214  0.8947 -0.4662 -0.1525
  667MOL0     C89917   9.253  10.954  10.181  0.3720  0.4393  0.3554
  667MOL0     O89918   9.131  10.961  10.241 -0.1916  0.6217 -0.2087
  667MOL0     C89919   9.108  11.075  10.330 -0.5400  0.2427 -0.0049
  667MOL0     C89920   8.972  11.062  10.391 -0.4884  0.0342  0.2481
  667MOL0     C89921   8.866  11.089  10.285  0.5500 -0.2038  0.8359
  667MOL0     C89922   8.737  11.026  10.340 -0.5255  0.5911 -0.4004
  667MOL0     C89923   8.617  11.102  10.278 -0.6035 -0.4375 -0.1168
  667MOL0     C89924   8.485  11.055  10.329 -0.7381 -0.8603  0.2273
  667MOL0     C89925   8.359  11.091  10.246 -0.6897  0.4188  0.3437
  667MOL0     C89926   8.348  10.994  10.121  0.2636  0.3409  0.2439
  667MOL0     N89927   8.285  10.871  10.182 -0.0324 -0.0099 -0.0002
  667MOL0     C89928   8.148  10.852  10.203  0.6296  0.8284  0.0800
  667MOL0     C89929   8.131  10.720  10.223  0.0094 -0.6480 -0.0695
  667MOL0     C89930   8.003  10.650  10.241  0.1505  0.1825  0.0388
  667MOL0     C89931   7.996  10.566  10.371 -1.1712 -0.0850 -0.9099
  667MOL0     C89932   7.966  10.652  10.495 -0.0656 -0.4960  0.5840
  667MOL0     C89933   7.973  10.573  10.625 -0.5202 -1.0536  0.2124
  667MOL0     O89934   7.873  10.471  10.646  0.8305  0.3568 -0.4644
  667MOL0     C89935   7.766  10.488  10.728  0.8911  0.5139 -0.0106
  667MOL0     C89936   7.729  10.613  10.758  0.2424  0.3559  0.9270
  667MOL0     C89937   7.610  10.635  10.818 -0.2509  0.5156 -0.4041
  667MOL0     C89938   7.568  10.789  10.840  0.6717  0.6269  0.2489
  667MOL0     C89939   7.525  10.524  10.850  0.1354  0.4783  0.2517
  667MOL0     C89940   7.389  10.545  10.909 -0.4539  0.1198  0.8006
  667MOL0     O89941   7.305  10.433  10.902  0.3182  0.3840  0.4051
  667MOL0     C89942   7.169  10.441  10.922  0.4143  0.0813 -0.4276
  667MOL0     C89943   7.092  10.548  10.970  0.1081 -0.3171 -0.3486
  667MOL0     C89944   6.957  10.526  10.978  0.1123  0.8630 -0.2144
  667MOL0     C89945   6.882  10.402  10.958  0.0101  0.0930 -0.2566
  667MOL0     O89946   6.752  10.395  10.999  0.2157 -0.0368 -0.2589
  667MOL0     C89947   6.661  10.299  10.944  0.3806 -1.0391  0.2793
  667MOL0     C89948   6.513  10.324  10.973 -0.7158 -0.8819 -0.8427
  667MOL0     C89949   6.420  10.237  10.897  0.2430 -0.4689 -0.0312
  667MOL0     C89950   6.269  10.252  10.918  0.0696 -0.7786  0.3622
  667MOL0     C89951   6.192  10.126  10.878 -0.1134 -0.9734  0.5885
  667MOL0     C89952   6.052  10.165  10.886  0.5808  0.2909  0.6316
  667MOL0     C89953   5.967  10.033  10.878 -0.3475  1.3847  0.1163
  667MOL0     C89954   5.822  10.051  10.853  0.5776  0.8614 -0.5529
  667MOL0    Cl89955   5.756  10.156  10.978  0.0199 -0.0624 -0.0761
  667MOL0     C89956   6.963  10.301  10.895 -0.6298 -0.2401 -0.2603
  667MOL0     C89957   7.103  10.327  10.883  0.7875 -0.3799  0.5472
  667MOL0     O89958   7.366  10.647  10.970 -0.9705  0.8519  0.1762
  667MOL0     C89959   7.571  10.395  10.824  0.0146 -0.3468  0.2764
  667MOL0     C89960   7.688  10.377  10.755 -0.4113  0.0303  0.0758
  667MOL0     N89961   8.250  10.667  10.210  0.2178 -0.2074 -0.3160
  667MOL0     N89962   8.347  10.752  10.198 -0.4762 -0.5709 -0.3030
  667MOL0     C89963   9.257  10.856  10.075 -0.6582  0.2762 -0.6397
  667MOL0     C89964   9.370  10.842   9.994 -0.5307 -1.1160  0.4373
  667MOL0     C89965   9.820  10.840   9.889  0.1864  0.1343 -0.9874
  667MOL0     C89966   9.842  10.950   9.805 -0.2182  0.2424 -0.3891
  667MOL0     C89967   9.969  10.973   9.747  0.2226 -0.2081 -0.8856
  667MOL0     C89968  10.073  10.881   9.768 -0.9087  0.0829 -0.0598
  667MOL0     O89969  10.196  10.896   9.697  0.5694  0.0136 -0.8689
  667MOL0     C89970  10.206  10.962   9.572  0.6000 -0.0801  0.3054
  667MOL0     C89971  10.348  10.971   9.521 -0.1546 -0.3141 -0.0225
  667MOL0     C89972  10.438  11.048   9.622  0.0619  0.0841 -0.5518
  667MOL0     C89973  10.559  11.114   9.554 -0.4953  0.6197  0.0439
  667MOL0     C89974  10.662  11.022   9.499 -0.4666  0.2209 -0.4384
  667MOL0     C89975  10.750  10.964   9.446 -0.6358 -0.0932  0.3929
  667MOL0     C89976  10.057  10.771   9.860  0.3328  0.2456 -0.2865
  667MOL0     C89977   9.929  10.759   9.922  0.0630 -0.8871  0.0945
  667MOL0     H89978   9.566  11.066  10.154 -2.1582  2.7908  1.6987
  667MOL0     H89979   9.368  11.071  10.309 -1.7422 -1.7953  0.8092
  667MOL0     H89980   9.177  11.059  10.413 -0.5827 -2.0161 -0.3366
  667MOL0     H89981   9.129  11.171  10.283  1.8406 -2.0897 -4.4182
  667MOL0     H89982   8.966  10.961  10.431  1.0448  0.8481  2.7721
  667MOL0     H89983   8.975  11.143  10.465 -0.2492  1.9534 -1.7428
  667MOL0     H89984   8.842  11.193  10.263 -1.4446 -1.0057 -1.2001
  667MOL0     H89985   8.896  11.043  10.190  4.0883 -1.6290  2.4503
  667MOL0     H89986   8.726  10.921  10.312 -0.9247  0.2596  0.9457
  667MOL0     H89987   8.737  11.042  10.448 -3.0669  1.5004 -0.4670
  667MOL0     H89988   8.630  11.209  10.297 -3.7179  0.1570 -0.8284
  667MOL0     H89989   8.620  11.079  10.171  0.3410  0.0453 -0.2067
  667MOL0     H89990   8.495  10.948  10.347 -3.6818 -0.8661  2.6129
  667MOL0     H89991   8.473  11.100  10.428  2.8959  2.8321 -0.7347
  667MOL0     H89992   8.269  11.097  10.307 -0.1324  2.3544  1.0458
  667MOL0     H89993   8.373  11.190  10.202 -1.5115 -0.5075 -2.1510
  667MOL0     H89994   8.447  10.989  10.075 -0.0108  0.9851 -0.4551
  667MOL0     H89995   8.283  11.033  10.042  1.3692 -0.6513 -1.1967
  667MOL0     H89996   8.068  10.925  10.190  0.2009  0.7697  2.0212
  667MOL0     H89997   7.926  10.728  10.238  1.4173  1.5346  1.1244
  667MOL0     H89998   7.989  10.586  10.153 -1.5742  0.7890 -0.1721
  667MOL0     H89999   8.093  10.520  10.390 -1.6842  0.0862  2.9257
  667MOL0     H90000   7.925  10.482  10.364  0.1925 -1.9248  3.4873
  667MOL0     H90001   7.871  10.706  10.484 -1.0180 -2.2114  0.0756
  667MOL0     H90002   8.037  10.734  10.488  2.3413 -2.6108 -4.1546
  667MOL0     H90003   7.974  10.645  10.708  1.1083  0.8343 -1.3300
  667MOL0     H90004   8.069  10.521  10.634  0.2983 -0.0647 -1.9432
  667MOL0     H90005   7.780  10.705  10.732  1.2962 -0.1715  1.0634
  667MOL0     H90006   7.466  10.797  10.801 -0.2508 -2.9882  1.4787
  667MOL0     H90007   7.576  10.807  10.947  2.1274 -0.4971  0.3644
  667MOL0     H90008   7.630  10.860  10.784 -0.4980  2.0600  0.7211
  667MOL0     H90009   7.128  10.648  10.992  0.3607 -0.0912 -1.6711
  667MOL0     H90010   6.891  10.607  11.008 -2.8181 -0.2121 -3.1238
  667MOL0     H90011   6.680  10.288  10.836  1.7448  0.0876  0.3801
  667MOL0     H90012   6.683  10.200  10.985  0.6424 -0.0242  2.7428
  667MOL0     H90013   6.492  10.307  11.079 -1.4729  2.0348 -0.4218
  667MOL0     H90014   6.491  10.425  10.937  2.6720  0.4442  0.4150
  667MOL0     H90015   6.447  10.135  10.926 -1.8447 -1.1790 -0.4559
  667MOL0     H90016   6.441  10.245  10.790  0.0643  1.3894  0.0277
  667MOL0     H90017   6.240  10.277  11.020 -0.5901  0.3589 -0.0856
  667MOL0     H90018   6.237  10.329  10.848  1.8993 -0.0188  0.3033
  667MOL0     H90019   6.215  10.050  10.953  1.4728 -1.0694  0.0536
  667MOL0     H90020   6.236  10.080  10.789  0.7936 -2.5634  1.8016
  667MOL0     H90021   6.030  10.224  10.975  0.7028  1.0812  0.1476
  667MOL0     H90022   6.018  10.229  10.804 -0.3394 -1.7076 -0.6362
  667MOL0     H90023   5.974   9.985  10.976  0.8233 -0.6866 -0.8978
  667MOL0     H90024   6.008   9.976  10.794 -1.2498  2.2257 -0.9189
  667MOL0     H90025   5.771   9.955  10.862  0.9303  0.8677  2.8945
  667MOL0     H90026   5.807  10.104  10.759  2.6938  3.2524  0.3501
  667MOL0     H90027   6.922  10.202  10.873  1.0317 -0.8942 -0.5268
  667MOL0     H90028   7.164  10.256  10.828 -1.3571 -1.3971 -0.6104
  667MOL0     H90029   7.506  10.311  10.848  2.3067 -1.4081  3.6099
  667MOL0     H90030   7.733  10.284  10.721 -1.9980 -0.6046 -0.3533
  667MOL0     H90031   9.158  10.816  10.054 -0.0698 -1.2122 -0.7065
  667MOL0     H90032   9.359  10.779   9.906 -0.0313  3.4863 -3.3559
  667MOL0     H90033   9.758  11.018   9.791 -0.9967 -0.5507  0.3320
  667MOL0     H90034   9.982  11.062   9.687  1.2193 -0.8043 -1.5798
  667MOL0     H90035  10.149  10.911   9.494  1.3671 -0.0727 -0.2716
  667MOL0     H90036  10.169  11.064   9.581  0.7310 -0.1252  1.4826
  667MOL0     H90037  10.334  11.038   9.436 -3.6765  1.2542  1.6119
  667MOL0     H90038  10.394  10.879   9.483 -1.9151 -1.7445  1.1546
  667MOL0     H90039  10.463  10.986   9.708 -0.6265  1.9765  1.0814
  667MOL0     H90040  10.378  11.125   9.672  0.2101 -0.4762  0.5089
  667MOL0     H90041  10.605  11.180   9.628  2.7758  0.8436 -2.0345
  667MOL0     H90042  10.522  11.182   9.476 -0.8001  0.0684 -0.2985
  667MOL0     H90043  10.815  10.902   9.388 -1.7179  1.3301 -2.5553
  667MOL0     H90044  10.139  10.704   9.882  0.8925  0.5383 -1.4345
  667MOL0     H90045   9.912  10.686  10.000 -2.3072 -1.5416 -0.9298
  668MOL0     O90046   1.733   7.801   0.361 -0.1519 -0.0307 -0.3362
  668MOL0     C90047   1.758   7.684   0.330  0.0015 -0.1070 -0.0603
  668MOL0     O90048   1.661   7.574   0.332 -0.3510 -0.4605 -0.0882
  668MOL0     C90049   1.530   7.582   0.367 -0.0206 -0.5243 -0.9184
  668MOL0     C90050   1.458   7.699   0.369  0.0615  0.0096  0.6466
  668MOL0     C90051   1.323   7.696   0.418  0.0336  0.5828  1.0994
  668MOL0     C90052   1.266   7.575   0.469  0.0992 -0.4202  0.5221
  668MOL0     O90053   1.154   7.593   0.544 -0.0641 -0.8231 -0.0876
  668MOL0     C90054   1.025   7.524   0.516 -0.0316 -0.6381  0.4422
  668MOL0     C90055   0.996   7.538   0.365  0.6789 -0.3566  0.3090
  668MOL0     C90056   0.852   7.483   0.348  0.5865 -0.0874  0.4207
  668MOL0     C90057   0.736   7.567   0.377  0.2068  0.5206  0.3513
  668MOL0     C90058   0.600   7.485   0.382  0.0225  0.1909 -0.2864
  668MOL0     C90059   0.485   7.590   0.397  0.6422  0.3137 -0.3031
  668MOL0     C90060   0.340   7.546   0.402 -0.3932  0.2559 -0.2549
  668MOL0     C90061   0.286   7.469   0.278  0.0122 -0.5403  0.0497
  668MOL0     N90062   0.137   7.443   0.300 -0.0197  0.4112 -1.2828
  668MOL0     C90063   0.035   7.534   0.313  0.4349 -0.8099 -0.0624
  668MOL0     C90064  -0.074   7.464   0.336 -0.1349  0.5230  0.0099
  668MOL0     C90065  -0.209   7.525   0.353 -0.6671  0.2609  0.2297
  668MOL0     C90066  -0.310   7.423   0.417  0.1148  0.3480  0.0427
  668MOL0     C90067  -0.457   7.479   0.409 -0.3277  0.0253  0.1990
  668MOL0     C90068  -0.551   7.374   0.449  0.7768 -0.4208  0.5158
  668MOL0     O90069  -0.679   7.439   0.472  0.5370 -0.9359 -0.4788
  668MOL0     C90070  -0.781   7.373   0.545 -1.3666  0.2142  0.6545
  668MOL0     C90071  -0.900   7.443   0.564 -0.4446  0.6640  0.1277
  668MOL0     C90072  -1.018   7.386   0.620 -0.1279  0.8043 -0.9296
  668MOL0     C90073  -1.143   7.464   0.632  0.4103  0.2435 -0.2975
  668MOL0     C90074  -1.012   7.253   0.658 -1.5378  0.1243 -0.8868
  668MOL0     C90075  -1.123   7.193   0.725  0.6492  0.0112 -0.3100
  668MOL0     O90076  -1.164   7.248   0.838  0.3132  0.0240 -0.1484
  668MOL0     C90077  -1.259   7.191   0.914 -0.3236 -0.3028 -0.0626
  668MOL0     C90078  -1.267   7.228   1.053 -0.2434 -0.7633 -1.1432
  668MOL0     C90079  -1.358   7.173   1.140  0.4098 -0.1960 -0.5243
  668MOL0     C90080  -1.452   7.084   1.096 -1.2307 -0.5265 -0.0300
  668MOL0     O90081  -1.527   7.019   1.186 -0.2045 -0.5752 -0.2345
  668MOL0     C90082  -1.459   6.956   1.292  0.4142  0.5489  0.2675
  668MOL0     C90083  -1.544   6.837   1.341 -0.2278 -0.4054 -0.2234
  668MOL0     C90084  -1.687   6.880   1.381  0.0935 -0.0732  0.2131
  668MOL0     C90085  -1.763   6.756   1.416  0.7853 -0.4985  0.2599
  668MOL0     C90086  -1.903   6.800   1.482 -0.8925  0.0500  0.6084
  668MOL0     C90087  -2.001   6.693   1.502 -0.4050 -0.0957 -0.1307
  668MOL0     C90088  -2.133   6.751   1.549  1.3450 -0.1913  0.4632
  668MOL0     C90089  -2.208   6.817   1.429 -0.3898  0.5457 -0.1132
  668MOL0    Cl90090  -2.370   6.884   1.478  0.1316 -0.1679 -0.2729
  668MOL0     C90091  -1.459   7.060   0.954  0.0717 -0.3063 -0.3592
  668MOL0     C90092  -1.365   7.114   0.865  0.0360 -0.8110  0.1416
  668MOL0     O90093  -1.129   7.072   0.708  0.4581  0.1397 -0.0029
  668MOL0     C90094  -0.888   7.178   0.647 -0.7837 -0.3254  0.4165
  668MOL0     C90095  -0.778   7.238   0.578  0.5588  0.4152  0.2896
  668MOL0     N90096  -0.037   7.330   0.344 -0.0867 -0.0857  0.4070
  668MOL0     N90097   0.087   7.322   0.331  0.5103 -0.1521  0.8374
  668MOL0     C90098   1.335   7.458   0.457 -0.5241 -0.3021 -0.8984
  668MOL0     C90099   1.469   7.462   0.410 -0.3468  0.2170 -0.1026
  668MOL0     C90100   1.889   7.654   0.269  0.1789  0.0342  1.0817
  668MOL0     C90101   1.986   7.750   0.265 -0.8095 -0.8652 -0.4786
  668MOL0     C90102   2.108   7.732   0.194  1.5332 -0.4831  0.4663
  668MOL0     C90103   2.125   7.613   0.122  0.7177 -0.3087  0.8533
  668MOL0     O90104   2.228   7.596   0.042 -0.3856  0.4776  0.2611
  668MOL0     C90105   2.340   7.678   0.058 -1.0862  0.0338 -0.1307
  668MOL0     C90106   2.464   7.620  -0.012 -0.3342 -0.1912 -0.1981
  668MOL0     C90107   2.580   7.681   0.053  0.0750 -0.0161 -0.5010
  668MOL0     C90108   2.716   7.629   0.020 -0.1902 -0.9980  0.6623
  668MOL0     C90109   2.737   7.576  -0.112 -0.2577  0.0939  0.0801
  668MOL0     C90110   2.768   7.525  -0.218 -0.3759 -0.4637 -0.9218
  668MOL0     C90111   2.026   7.514   0.120  0.9950 -0.1510 -0.7073
  668MOL0     C90112   1.909   7.531   0.197 -0.8346 -0.2060  0.1588
  668MOL0     H90113   1.496   7.792   0.327 -0.4500  0.3712  0.9676
  668MOL0     H90114   1.279   7.793   0.435 -0.4784  0.2371  1.8089
  668MOL0     H90115   1.035   7.417   0.537 -2.2013 -1.4473 -2.0813
  668MOL0     H90116   0.951   7.568   0.584  2.3308  2.6094  1.1357
  668MOL0     H90117   1.010   7.638   0.324 -3.7329  0.8828  1.2938
  668MOL0     H90118   1.061   7.471   0.308 -1.9606 -0.5471 -2.7570
  668MOL0     H90119   0.834   7.454   0.244  0.2385 -1.0589  0.7350
  668MOL0     H90120   0.842   7.393   0.409 -2.7619 -0.1897 -0.0879
  668MOL0     H90121   0.739   7.610   0.478 -6.6647 -0.3059  1.4327
  668MOL0     H90122   0.735   7.651   0.307 -2.1332  1.1263  1.0139
  668MOL0     H90123   0.583   7.428   0.290 -0.0581 -0.3960  0.0927
  668MOL0     H90124   0.607   7.413   0.464 -2.9583 -0.4279 -0.4395
  668MOL0     H90125   0.514   7.652   0.482 -0.0986 -0.3673  0.4554
  668MOL0     H90126   0.479   7.659   0.312  1.5301  1.5655  0.6027
  668MOL0     H90127   0.310   7.493   0.493 -0.0495  1.4217  0.5633
  668MOL0     H90128   0.274   7.629   0.429  0.4661  0.4554  1.4216
  668MOL0     H90129   0.346   7.378   0.272 -0.7843 -1.2260  1.8336
  668MOL0     H90130   0.283   7.528   0.185 -2.1849 -1.7016 -0.7013
  668MOL0     H90131   0.045   7.640   0.292 -3.9350 -0.1437  0.2835
  668MOL0     H90132  -0.187   7.611   0.417  2.6388 -0.6839  0.5609
  668MOL0     H90133  -0.246   7.558   0.256 -0.1074  1.2744  0.3515
  668MOL0     H90134  -0.278   7.404   0.520 -3.5006  3.9049  2.0880
  668MOL0     H90135  -0.297   7.328   0.365 -0.5687  0.0009  0.4908
  668MOL0     H90136  -0.483   7.509   0.307  1.3150  0.5957 -0.0835
  668MOL0     H90137  -0.470   7.566   0.473 -1.1251  1.8672 -2.3070
  668MOL0     H90138  -0.524   7.328   0.544 -2.1932 -1.5386  0.8980
  668MOL0     H90139  -0.561   7.299   0.369 -3.8448  0.7572 -0.2580
  668MOL0     H90140  -0.894   7.544   0.525  0.0972  0.2238 -0.9680
  668MOL0     H90141  -1.165   7.497   0.734 -1.2506 -1.5261 -0.0312
  668MOL0     H90142  -1.141   7.559   0.578  2.9171  0.2890 -0.2354
  668MOL0     H90143  -1.212   7.394   0.584  0.8386  0.0237 -0.5985
  668MOL0     H90144  -1.191   7.296   1.091  0.0203 -1.1933 -0.8910
  668MOL0     H90145  -1.356   7.201   1.245  1.6723 -1.0676 -0.2973
  668MOL0     H90146  -1.364   6.921   1.248 -0.4100 -1.8410  0.2006
  668MOL0     H90147  -1.448   7.034   1.367  0.9669  2.5018 -1.7359
  668MOL0     H90148  -1.548   6.767   1.256  3.4153  0.9181 -1.6761
  668MOL0     H90149  -1.494   6.791   1.427 -0.7737  1.0925  0.9432
  668MOL0     H90150  -1.735   6.926   1.294  1.3607 -0.7023 -0.8613
  668MOL0     H90151  -1.684   6.956   1.460 -3.0938  0.9815 -0.5388
  668MOL0     H90152  -1.779   6.698   1.325 -0.2926  0.9340 -0.5000
  668MOL0     H90153  -1.710   6.693   1.488  2.3412  1.7488  1.1978
  668MOL0     H90154  -1.948   6.886   1.432  2.7101  0.4908 -2.2959
  668MOL0     H90155  -1.884   6.825   1.587 -1.3008  0.5343  0.5739
  668MOL0     H90156  -2.027   6.638   1.411  2.2388  1.2157 -1.7859
  668MOL0     H90157  -1.966   6.613   1.567 -0.7844 -0.8556 -0.8381
  668MOL0     H90158  -2.115   6.829   1.623 -2.1128 -1.5639  3.0089
  668MOL0     H90159  -2.201   6.677   1.591  1.5322  0.7287  2.4753
  668MOL0     H90160  -2.212   6.737   1.354 -0.9592 -2.0386  2.5170
  668MOL0     H90161  -2.158   6.906   1.390 -0.9709  0.8379 -0.1991
  668MOL0     H90162  -1.535   6.998   0.908  0.8230  0.4080 -2.6842
  668MOL0     H90163  -1.390   7.106   0.760 -2.3031  2.3720  0.2814
  668MOL0     H90164  -0.889   7.073   0.676 -2.2952 -0.9851 -1.7790
  668MOL0     H90165  -0.691   7.176   0.556 -0.7941 -0.9004 -1.7046
  668MOL0     H90166   1.295   7.364   0.492  1.6605 -0.9076  0.1771
  668MOL0     H90167   1.523   7.369   0.415 -0.1296  0.3565  0.2477
  668MOL0     H90168   1.967   7.844   0.316  0.5720 -0.3641 -0.8556
  668MOL0     H90169   2.180   7.812   0.207  0.0218  0.6836  2.0599
  668MOL0     H90170   2.323   7.780   0.023  0.0580  0.0904 -0.5757
  668MOL0     H90171   2.358   7.693   0.165 -1.6853 -2.2241  0.3338
  668MOL0     H90172   2.468   7.651  -0.117  0.4711  2.1486  0.4621
  668MOL0     H90173   2.461   7.511  -0.010 -2.5553 -0.1878  0.6217
  668MOL0     H90174   2.571   7.675   0.162  1.2905  0.2718 -0.3728
  668MOL0     H90175   2.569   7.781   0.010  1.0845 -0.8120 -2.7358
  668MOL0     H90176   2.722   7.551   0.096 -2.9362  0.6875  2.8134
  668MOL0     H90177   2.787   7.708   0.048 -0.9967 -0.4932  1.3283
  668MOL0     H90178   2.796   7.483  -0.312 -1.2302  0.2611 -1.5154
  668MOL0     H90179   2.040   7.422   0.064 -0.3421 -0.0960 -1.1602
  668MOL0     H90180   1.830   7.458   0.212 -3.2577  2.3556  0.5173
  669MOL0     O90181   8.555   2.200   7.010 -0.3345  0.4382 -1.1300
  669MOL0     C90182   8.636   2.200   6.919 -0.1290 -0.4239 -0.2084
  669MOL0     O90183   8.594   2.222   6.794  0.0306 -0.6036  0.2303
  669MOL0     C90184   8.459   2.215   6.765 -0.5706 -0.3143 -0.8715
  669MOL0     C90185   8.406   2.101   6.707  0.5355  0.7804 -0.2109
  669MOL0     C90186   8.267   2.097   6.674  0.3170 -0.1231  0.7949
  669MOL0     C90187   8.179   2.210   6.701 -0.1885 -0.2158 -0.3854
  669MOL0     O90188   8.048   2.213   6.688 -0.8829  0.5489  0.1025
  669MOL0     C90189   7.998   2.094   6.623  0.1695 -0.0771  0.9536
  669MOL0     C90190   7.848   2.130   6.595  0.4331  0.1437 -0.1234
  669MOL0     C90191   7.771   2.128   6.724 -0.1410 -0.4828 -0.1467
  669MOL0     C90192   7.627   2.130   6.696 -1.1889  0.4840  0.7927
  669MOL0     C90193   7.539   2.100   6.811 -0.0598 -0.0812  0.2913
  669MOL0     C90194   7.398   2.155   6.788  0.1199 -0.0923 -0.2638
  669MOL0     C90195   7.305   2.124   6.905  0.0663  0.1274  0.7327
  669MOL0     C90196   7.163   2.159   6.864  0.2682  0.2615  0.0258
  669MOL0     N90197   7.065   2.078   6.931  0.9492  0.3498  0.3786
  669MOL0     C90198   6.999   1.974   6.871 -0.4469  0.0517 -0.5005
  669MOL0     C90199   6.902   1.944   6.955  1.3522 -0.1181  0.3086
  669MOL0     C90200   6.798   1.838   6.939  0.1737  0.0272  0.5500
  669MOL0     C90201   6.791   1.752   7.066  0.0743 -0.3560 -0.1200
  669MOL0     C90202   6.688   1.643   7.056  0.4848 -0.5232  0.1364
  669MOL0     C90203   6.536   1.679   7.051  0.7898 -0.3058 -0.5797
  669MOL0     O90204   6.504   1.727   6.920 -0.3799 -0.2083 -0.2463
  669MOL0     C90205   6.380   1.785   6.926  0.1216  0.5606  0.4356
  669MOL0     C90206   6.366   1.924   6.925  0.3223 -0.6742  0.1732
  669MOL0     C90207   6.242   1.994   6.942 -0.0885 -0.1773  0.6323
  669MOL0     C90208   6.244   2.142   6.927 -0.3810  0.0530 -0.0546
  669MOL0     C90209   6.125   1.911   6.932 -0.2708 -0.0064  0.0025
  669MOL0     C90210   5.984   1.966   6.932 -0.1245 -0.6929 -0.5322
  669MOL0     O90211   5.893   1.878   6.883  0.0019  0.2513  0.6189
  669MOL0     C90212   5.758   1.907   6.888 -0.1390  0.3628 -0.0687
  669MOL0     C90213   5.688   1.885   6.769  0.5345  0.1340 -0.5336
  669MOL0     C90214   5.546   1.898   6.761 -0.9954  0.0730  0.3597
  669MOL0     C90215   5.478   1.937   6.877 -0.4422 -1.5640  0.2762
  669MOL0     O90216   5.343   1.951   6.891  0.0424 -0.0345 -0.0954
  669MOL0     C90217   5.269   1.937   6.771 -0.9794  0.0812 -0.4208
  669MOL0     C90218   5.134   1.984   6.788  0.0717  0.0014 -0.4559
  669MOL0     C90219   5.051   1.912   6.893 -0.3063  0.0316 -0.0958
  669MOL0     C90220   4.913   1.973   6.920  0.6427 -1.2882  0.1967
  669MOL0     C90221   4.826   1.908   7.032 -0.2835 -0.5685  0.7154
  669MOL0     C90222   4.694   1.979   7.061  0.2595  0.6281 -0.3840
  669MOL0     C90223   4.612   1.907   7.169  0.2473  0.0582 -0.6580
  669MOL0     C90224   4.481   1.978   7.211 -0.0987  0.3252 -0.0776
  669MOL0    Cl90225   4.516   2.128   7.311  0.1407  0.4199 -0.3685
  669MOL0     C90226   5.551   1.962   6.994 -0.0180  0.0874  0.1279
  669MOL0     C90227   5.688   1.948   7.000 -0.4463  0.4872  0.2571
  669MOL0     O90228   5.962   2.072   6.987 -0.2751 -0.7032 -0.0389
  669MOL0     C90229   6.137   1.774   6.934  0.0181 -0.4756 -0.6001
  669MOL0     C90230   6.263   1.711   6.931  0.1045 -0.3240  0.5050
  669MOL0     N90231   6.911   2.032   7.060 -0.4719 -0.6960 -0.6933
  669MOL0     N90232   7.014   2.108   7.045  1.1602  0.2559  0.4176
  669MOL0     C90233   8.240   2.325   6.760  0.1883  1.0260 -0.6491
  669MOL0     C90234   8.373   2.324   6.791 -0.1582 -0.6480  0.4393
  669MOL0     C90235   8.782   2.169   6.933  0.2194  0.8267 -0.1352
  669MOL0     C90236   8.847   2.143   7.056  0.5033  0.8268 -0.0871
  669MOL0     C90237   8.986   2.129   7.067  1.8944 -0.3609 -0.0399
  669MOL0     C90238   9.063   2.154   6.952 -0.0611 -0.4346  0.2712
  669MOL0     O90239   9.201   2.159   6.957 -0.3258  0.4881  0.5848
  669MOL0     C90240   9.257   2.284   6.986  0.9197  0.1353  0.1897
  669MOL0     C90241   9.397   2.260   7.047  1.2904  0.3331 -0.3765
  669MOL0     C90242   9.385   2.181   7.186 -0.8854  0.2592  0.4843
  669MOL0     C90243   9.516   2.174   7.268  0.2515  0.4539 -0.5905
  669MOL0     C90244   9.527   2.289   7.358 -0.4705 -0.4783 -0.2871
  669MOL0     C90245   9.544   2.388   7.429 -0.2637 -0.4990  0.1237
  669MOL0     C90246   9.003   2.186   6.833 -0.4363  0.4368  0.0062
  669MOL0     C90247   8.868   2.186   6.820 -0.0690  0.2740 -0.1180
  669MOL0     H90248   8.476   2.020   6.689  1.0592  0.1658  3.6991
  669MOL0     H90249   8.234   2.004   6.630 -0.0116  1.1839 -1.9346
  669MOL0     H90250   8.056   2.085   6.531  2.9787 -0.5253  2.6589
  669MOL0     H90251   8.009   2.004   6.684 -0.3755 -1.9002 -1.4802
  669MOL0     H90252   7.838   2.225   6.541 -3.3683 -1.7719 -3.3135
  669MOL0     H90253   7.805   2.052   6.531 -0.2891  0.0862  0.4087
  669MOL0     H90254   7.798   2.033   6.772 -0.8282 -0.7778 -0.3234
  669MOL0     H90255   7.800   2.214   6.786 -0.0387  1.5664 -2.8451
  669MOL0     H90256   7.606   2.226   6.648  0.7516 -0.5125 -2.4330
  669MOL0     H90257   7.615   2.057   6.616  5.2173  0.8515 -1.0490
  669MOL0     H90258   7.537   1.990   6.816  0.3896 -0.5023 -4.5339
  669MOL0     H90259   7.581   2.135   6.906  1.5102 -1.1956  0.0544
  669MOL0     H90260   7.407   2.263   6.778  0.6442  0.0025  1.0325
  669MOL0     H90261   7.350   2.119   6.697 -3.4345 -0.7575  1.6841
  669MOL0     H90262   7.313   2.018   6.930 -2.1031 -0.1510  0.5004
  669MOL0     H90263   7.332   2.186   6.991  1.0567  0.0279  0.4988
  669MOL0     H90264   7.144   2.153   6.756 -2.0745 -1.6569  0.4436
  669MOL0     H90265   7.140   2.264   6.885  0.1304  0.4404 -0.9568
  669MOL0     H90266   7.010   1.924   6.775 -0.6000 -1.4159  0.2271
  669MOL0     H90267   6.699   1.875   6.911 -0.0043  1.4239  2.8291
  669MOL0     H90268   6.824   1.769   6.858  1.5685  0.3134  0.7194
  669MOL0     H90269   6.763   1.814   7.153 -1.2459 -4.1133  2.3656
  669MOL0     H90270   6.895   1.724   7.085  0.0235 -0.5293 -0.0958
  669MOL0     H90271   6.702   1.586   7.148 -1.4967 -1.0208  0.1707
  669MOL0     H90272   6.710   1.573   6.975  0.2937 -0.3847 -0.0371
  669MOL0     H90273   6.503   1.748   7.130  0.8500  1.0154 -1.6642
  669MOL0     H90274   6.492   1.582   7.074  2.8806 -0.9723  0.9069
  669MOL0     H90275   6.458   1.980   6.916 -0.2400  0.0005 -2.0835
  669MOL0     H90276   6.351   2.164   6.920  0.3375 -3.3575 -1.9651
  669MOL0     H90277   6.191   2.169   6.835 -0.2718 -2.9003 -1.0775
  669MOL0     H90278   6.215   2.198   7.016 -2.2477  0.1012 -0.6502
  669MOL0     H90279   5.742   1.863   6.678 -0.7141  2.1723 -1.8658
  669MOL0     H90280   5.488   1.872   6.672 -0.5898 -0.4446  0.2422
  669MOL0     H90281   5.311   1.999   6.691 -1.4741  0.3194 -0.5009
  669MOL0     H90282   5.274   1.833   6.740  2.1884  0.1641 -0.5191
  669MOL0     H90283   5.144   2.092   6.804  3.7770 -0.4277  1.1927
  669MOL0     H90284   5.077   1.954   6.700  0.5957 -2.4243 -0.0493
  669MOL0     H90285   5.103   1.917   6.989 -0.1342 -0.1356 -0.1781
  669MOL0     H90286   5.045   1.805   6.868 -2.4801 -0.3709  1.7924
  669MOL0     H90287   4.923   2.081   6.936 -0.8365 -0.9950 -0.6508
  669MOL0     H90288   4.854   1.964   6.828 -1.7187  1.2008  1.2971
  669MOL0     H90289   4.890   1.911   7.121  2.1579 -0.5159 -0.9351
  669MOL0     H90290   4.805   1.807   6.995 -1.1503  0.1190 -0.7348
  669MOL0     H90291   4.707   2.084   7.088 -1.4756  0.3128  2.0829
  669MOL0     H90292   4.642   1.980   6.965  3.8073  3.7120 -2.5223
  669MOL0     H90293   4.673   1.892   7.259 -1.5718 -0.8405  0.4923
  669MOL0     H90294   4.603   1.806   7.129  4.4584 -0.5699 -0.4060
  669MOL0     H90295   4.415   1.903   7.256 -1.9667  2.1169  0.2825
  669MOL0     H90296   4.427   2.013   7.123  0.0437 -1.5325 -0.9569
  669MOL0     H90297   5.491   2.001   7.075  1.2867  1.9619  0.2527
  669MOL0     H90298   5.748   1.966   7.089  1.3022  0.5410 -0.8840
  669MOL0     H90299   6.046   1.715   6.937  0.6831 -1.5015  0.1353
  669MOL0     H90300   6.268   1.605   6.951  2.7139 -0.7072 -1.5615
  669MOL0     H90301   8.173   2.406   6.788 -0.1564  0.8395 -0.9284
  669MOL0     H90302   8.413   2.416   6.833 -0.1203 -1.3551  2.0170
  669MOL0     H90303   8.786   2.118   7.142  1.6232 -0.4169  0.3918
  669MOL0     H90304   9.034   2.106   7.162  2.1101  1.2546  0.2847
  669MOL0     H90305   9.273   2.345   6.897  2.1613  2.2007  1.7330
  669MOL0     H90306   9.199   2.340   7.059  1.0738  2.4640 -1.3894
  669MOL0     H90307   9.441   2.356   7.074 -0.4208  0.8874  0.6513
  669MOL0     H90308   9.462   2.218   6.970  2.7794  2.4160 -0.3255
  669MOL0     H90309   9.369   2.075   7.167 -0.4803  0.4776 -1.2581
  669MOL0     H90310   9.308   2.242   7.234 -1.4455  1.1354 -1.4199
  669MOL0     H90311   9.603   2.171   7.201 -0.6401 -1.6603 -1.7793
  669MOL0     H90312   9.519   2.086   7.333 -1.8993  0.3409 -0.5850
  669MOL0     H90313   9.575   2.469   7.492 -0.2263 -1.2979  1.1561
  669MOL0     H90314   9.053   2.207   6.739 -1.4377 -1.6091 -1.0609
  669MOL0     H90315   8.824   2.204   6.722 -0.0626 -2.1356 -0.6155
  670MOL0     O90316   2.407   5.716   7.944 -0.1912  0.4838 -0.8138
  670MOL0     C90317   2.446   5.604   7.964  0.0129  0.4845  0.4831
  670MOL0     O90318   2.372   5.501   8.002  0.0438  0.3692  0.3651
  670MOL0     C90319   2.257   5.495   8.072  0.0219 -0.6594  0.2901
  670MOL0     C90320   2.192   5.380   8.061  0.3808  0.4844 -0.2014
  670MOL0     C90321   2.080   5.355   8.136  0.5095 -0.2697  0.4440
  670MOL0     C90322   2.018   5.452   8.210 -0.1939  0.0998 -0.1565
  670MOL0     O90323   1.889   5.411   8.254 -0.5016 -0.4818  0.1790
  670MOL0     C90324   1.828   5.495   8.359  0.0526  0.3573 -0.9102
  670MOL0     C90325   1.678   5.441   8.374  0.5722  0.5592  1.1506
  670MOL0     C90326   1.608   5.496   8.505 -0.4864 -0.4544  0.1616
  670MOL0     C90327   1.461   5.462   8.518 -0.7541  0.7550  0.1406
  670MOL0     C90328   1.416   5.318   8.521  0.3055  0.5222 -0.0019
  670MOL0     C90329   1.265   5.308   8.525  0.8312 -0.1911  0.2882
  670MOL0     C90330   1.227   5.161   8.527 -0.6243  0.2563 -0.1623
  670MOL0     C90331   1.082   5.130   8.508 -0.4575  0.1892  0.3476
  670MOL0     N90332   0.999   5.173   8.622 -0.5145 -0.5648 -0.0738
  670MOL0     C90333   1.047   5.169   8.754  1.1705 -0.6043 -0.6315
  670MOL0     C90334   0.980   5.268   8.820  0.8494 -0.1418  0.3015
  670MOL0     C90335   0.992   5.334   8.964  0.2541  0.0857 -0.5747
  670MOL0     C90336   1.113   5.418   8.990 -0.8096 -0.1260 -0.1012
  670MOL0     C90337   1.122   5.484   9.129 -0.1209 -0.1124 -0.3253
  670MOL0     C90338   1.228   5.594   9.117  0.2439  0.0954  0.2037
  670MOL0     O90339   1.358   5.521   9.101 -0.0563  0.2654  0.3784
  670MOL0     C90340   1.469   5.587   9.146  0.2519 -0.3948 -0.6766
  670MOL0     C90341   1.535   5.522   9.251  0.4953 -0.4147 -0.1934
  670MOL0     C90342   1.646   5.578   9.317  0.1033 -0.5782  0.1646
  670MOL0     C90343   1.684   5.512   9.444 -1.0641 -0.2846 -1.1018
  670MOL0     C90344   1.706   5.705   9.271  0.1263 -0.5142  0.0433
  670MOL0     C90345   1.821   5.767   9.334  0.7539 -0.1798  0.1078
  670MOL0     O90346   1.890   5.700   9.428  0.3395  0.5756 -0.6213
  670MOL0     C90347   2.001   5.766   9.473  0.6478 -0.5286  0.0875
  670MOL0     C90348   2.117   5.690   9.470 -0.5991  0.2704  0.4411
  670MOL0     C90349   2.240   5.742   9.491  0.2572  0.3984 -0.0788
  670MOL0     C90350   2.258   5.873   9.538 -0.5181  0.0183  0.0457
  670MOL0     O90351   2.392   5.908   9.566  0.0430 -0.6614 -0.9402
  670MOL0     C90352   2.407   6.007   9.671  0.3683  0.5549  0.4369
  670MOL0     C90353   2.550   6.031   9.694 -0.8907  1.0214 -0.0496
  670MOL0     C90354   2.551   6.134   9.806 -0.1103 -0.3640  0.1544
  670MOL0     C90355   2.704   6.146   9.850 -0.5978  0.0521  0.8423
  670MOL0     C90356   2.717   6.238   9.972  0.4539 -0.7771 -0.0501
  670MOL0     C90357   2.863   6.264  10.020  0.9839 -0.2937  0.7832
  670MOL0     C90358   2.884   6.333  10.155 -0.1159  0.0024 -0.6134
  670MOL0     C90359   3.025   6.346  10.210  0.2236  0.4839  0.1769
  670MOL0    Cl90360   3.089   6.180  10.229 -0.6197  0.0524 -0.1502
  670MOL0     C90361   2.141   5.945   9.559  0.5818 -0.9479  0.8395
  670MOL0     C90362   2.010   5.894   9.529 -0.3499  0.3491  0.0308
  670MOL0     O90363   1.841   5.877   9.298  0.0407  0.5705  0.2668
  670MOL0     C90364   1.641   5.760   9.164  0.6410 -0.2112 -0.2585
  670MOL0     C90365   1.528   5.703   9.097 -0.6315  0.7866 -0.2344
  670MOL0     N90366   0.889   5.316   8.728 -0.3021  0.5743  0.2480
  670MOL0     N90367   0.900   5.260   8.611 -0.1341 -0.3968 -0.8735
  670MOL0     C90368   2.081   5.584   8.228 -0.2123  0.5042  0.6087
  670MOL0     C90369   2.205   5.593   8.156  0.0823 -0.0784 -0.3893
  670MOL0     C90370   2.593   5.582   7.944  0.9036  0.3531  0.4251
  670MOL0     C90371   2.640   5.452   7.933 -0.4091  0.2729 -0.1568
  670MOL0     C90372   2.775   5.423   7.906  0.2873 -0.5671 -0.4113
  670MOL0     C90373   2.871   5.531   7.900 -0.4470  0.2302 -0.0871
  670MOL0     O90374   3.009   5.526   7.891  0.3191  0.1256 -0.0455
  670MOL0     C90375   3.072   5.392   7.888 -0.6551 -0.7469 -0.0664
  670MOL0     C90376   3.187   5.385   8.000 -0.7132  0.9234  0.1555
  670MOL0     C90377   3.312   5.461   7.967 -0.2294 -0.0808  0.7894
  670MOL0     C90378   3.402   5.452   8.092 -0.0263  0.1077 -0.8976
  670MOL0     C90379   3.530   5.508   8.060  0.9958  0.2854 -0.6871
  670MOL0     C90380   3.638   5.561   8.026  0.6713  0.4919  1.2057
  670MOL0     C90381   2.828   5.662   7.918  0.8478 -0.2418  0.5053
  670MOL0     C90382   2.683   5.686   7.940  0.4279 -0.3248  0.3332
  670MOL0     H90383   2.231   5.299   8.001 -1.9120 -3.0421  2.6320
  670MOL0     H90384   2.026   5.261   8.130 -1.9202  1.0947 -0.6706
  670MOL0     H90385   1.874   5.483   8.458 -0.3264 -0.1473 -0.7898
  670MOL0     H90386   1.817   5.600   8.332 -0.3239 -0.1471 -2.8455
  670MOL0     H90387   1.624   5.478   8.286 -0.2630 -0.3469  1.2665
  670MOL0     H90388   1.675   5.332   8.377 -3.5133  0.5306  2.2401
  670MOL0     H90389   1.663   5.466   8.594  1.4320  0.1586 -0.7539
  670MOL0     H90390   1.613   5.606   8.503  0.6480 -0.4963 -0.6156
  670MOL0     H90391   1.436   5.509   8.614 -0.9946  1.3007 -0.1830
  670MOL0     H90392   1.403   5.515   8.441  0.9540  3.8163  0.7797
  670MOL0     H90393   1.454   5.280   8.426  0.0745 -0.1914  0.1853
  670MOL0     H90394   1.457   5.260   8.604 -0.7769 -1.7320 -0.9544
  670MOL0     H90395   1.218   5.350   8.614  3.4979  0.7365  1.3715
  670MOL0     H90396   1.218   5.348   8.435 -0.0275  1.9269  1.5919
  670MOL0     H90397   1.291   5.114   8.451 -1.4134 -1.7939  0.3611
  670MOL0     H90398   1.265   5.124   8.623 -0.4532  0.2424 -0.2349
  670MOL0     H90399   1.071   5.021   8.507  0.3871 -0.0995  4.4346
  670MOL0     H90400   1.039   5.176   8.419  0.4125  0.1366 -0.1070
  670MOL0     H90401   1.134   5.112   8.785  1.4114  1.3568  2.7113
  670MOL0     H90402   0.896   5.376   8.998 -0.1929 -0.4863 -1.0930
  670MOL0     H90403   0.991   5.252   9.037 -0.1220  1.7256  1.3620
  670MOL0     H90404   1.108   5.491   8.909 -0.4519  0.3632  0.3096
  670MOL0     H90405   1.199   5.350   8.993 -1.1203 -0.4999  1.0937
  670MOL0     H90406   1.167   5.410   9.196 -1.9141  1.7105  3.1660
  670MOL0     H90407   1.028   5.515   9.175  0.9207  1.7798  0.6934
  670MOL0     H90408   1.230   5.649   9.211  2.5425  2.1743 -0.9254
  670MOL0     H90409   1.213   5.670   9.039 -0.8335  0.1889  0.4811
  670MOL0     H90410   1.503   5.424   9.287  2.0287  0.0354  2.7909
  670MOL0     H90411   1.692   5.584   9.526  3.5540 -0.3230 -1.2030
  670MOL0     H90412   1.619   5.429   9.472 -1.2884  0.3162  0.1870
  670MOL0     H90413   1.785   5.470   9.431 -0.5001  0.9610 -0.9264
  670MOL0     H90414   2.109   5.584   9.447 -2.1092 -0.5163  3.9302
  670MOL0     H90415   2.329   5.681   9.482 -1.4559 -1.9181 -2.6478
  670MOL0     H90416   2.369   6.102   9.632  4.1777  1.5670 -1.2898
  670MOL0     H90417   2.364   5.975   9.766  2.1120  0.7152  1.3196
  670MOL0     H90418   2.614   5.950   9.727  1.8736  2.5187 -1.3840
  670MOL0     H90419   2.605   6.053   9.601  1.2435 -2.7280  0.1410
  670MOL0     H90420   2.483   6.106   9.886 -1.5219  1.4750 -0.3174
  670MOL0     H90421   2.513   6.234   9.781  1.2628  0.4153  1.0850
  670MOL0     H90422   2.750   6.050   9.876  2.6413  1.5046  1.0804
  670MOL0     H90423   2.767   6.184   9.768 -2.4463 -1.7522 -1.5517
  670MOL0     H90424   2.661   6.188  10.052  2.3143  0.8147  2.4043
  670MOL0     H90425   2.665   6.332   9.952 -0.1562 -0.2616  3.2524
  670MOL0     H90426   2.918   6.170  10.016 -1.0551 -1.5222 -2.2210
  670MOL0     H90427   2.901   6.328   9.940 -1.6150  1.5631  0.9032
  670MOL0     H90428   2.825   6.284  10.233 -0.2128 -1.8965 -1.7976
  670MOL0     H90429   2.859   6.439  10.149 -2.6224 -0.4812  0.1830
  670MOL0     H90430   3.016   6.406  10.301 -1.0552 -1.1295  1.1468
  670MOL0     H90431   3.095   6.392  10.138 -0.2629  1.4505  0.3050
  670MOL0     H90432   2.148   6.049   9.590 -0.0588 -0.3918 -0.7777
  670MOL0     H90433   1.925   5.960   9.537 -1.5884 -0.8956 -1.9582
  670MOL0     H90434   1.676   5.859   9.135  0.5131  0.2323  1.0447
  670MOL0     H90435   1.474   5.755   9.018  0.2926  0.6813 -0.9526
  670MOL0     H90436   2.061   5.665   8.296 -0.9525  0.5157  0.3804
  670MOL0     H90437   2.268   5.678   8.179 -1.5545  1.2971 -0.7474
  670MOL0     H90438   2.584   5.359   7.934  2.0656 -1.3110 -0.6848
  670MOL0     H90439   2.804   5.319   7.899  1.0626 -0.6049  2.3021
  670MOL0     H90440   3.003   5.309   7.904 -0.4548 -0.5615  2.0555
  670MOL0     H90441   3.111   5.384   7.786  1.1917  2.7395  0.2039
  670MOL0     H90442   3.224   5.283   8.014 -2.2074 -0.2770 -3.2863
  670MOL0     H90443   3.143   5.418   8.094 -2.7807 -2.3109  0.4945
  670MOL0     H90444   3.296   5.562   7.927  2.6676 -0.6763 -2.4287
  670MOL0     H90445   3.350   5.395   7.888 -1.9513  0.3782 -0.4944
  670MOL0     H90446   3.421   5.355   8.139  0.8580  1.1277  0.9726
  670MOL0     H90447   3.354   5.514   8.169  1.6946  0.2365  0.1178
  670MOL0     H90448   3.737   5.592   8.000  1.9664  0.2161  5.1634
  670MOL0     H90449   2.898   5.743   7.901 -0.7018  0.9203 -0.6145
  670MOL0     H90450   2.640   5.785   7.931 -0.1756 -0.7637 -2.4283
  671MOL0     O90451   5.324   5.898   6.117 -0.5062 -0.8528  0.6720
  671MOL0     C90452   5.337   6.001   6.053  1.6352  0.5541  0.5918
  671MOL0     O90453   5.234   6.092   6.022  0.3420 -0.0537  0.0408
  671MOL0     C90454   5.097   6.068   6.050 -0.5395 -0.6927  0.5492
  671MOL0     C90455   5.010   6.160   5.991 -0.1465  0.0521 -0.5405
  671MOL0     C90456   4.877   6.147   5.999 -0.7174  0.5599  0.3693
  671MOL0     C90457   4.822   6.047   6.090 -0.7119 -0.8916 -0.1412
  671MOL0     O90458   4.683   6.042   6.101  0.0404 -0.1155  0.0834
  671MOL0     C90459   4.624   5.952   6.194 -0.0203 -0.2732 -0.2187
  671MOL0     C90460   4.469   5.975   6.200 -0.3551  0.1485 -0.2017
  671MOL0     C90461   4.420   5.982   6.052  0.1877  0.6777  0.0545
  671MOL0     C90462   4.282   6.020   6.043 -0.0798  0.4621  0.0453
  671MOL0     C90463   4.231   6.055   5.897 -0.6935  0.8596 -0.6490
  671MOL0     C90464   4.084   6.085   5.900 -0.7942 -0.9401  0.8039
  671MOL0     C90465   4.046   6.098   5.747 -0.0143 -0.0185 -0.3518
  671MOL0     C90466   3.906   6.167   5.735  0.0779  0.2008  0.9676
  671MOL0     N90467   3.804   6.106   5.820  0.2710 -0.5305 -0.8753
  671MOL0     C90468   3.728   6.169   5.919  0.1816  0.4988  0.2499
  671MOL0     C90469   3.634   6.078   5.963 -0.6816  0.0541  0.0192
  671MOL0     C90470   3.515   6.104   6.049  0.6681 -0.1263 -0.1827
  671MOL0     C90471   3.441   6.242   6.015  0.0369  0.3780  0.7375
  671MOL0     C90472   3.355   6.288   6.140  0.4865  0.3533 -0.2388
  671MOL0     C90473   3.287   6.417   6.107 -0.6002 -0.4306 -0.2810
  671MOL0     O90474   3.187   6.380   6.012 -0.6960  0.1599 -0.8125
  671MOL0     C90475   3.060   6.406   6.066 -0.2228  0.1235  0.8207
  671MOL0     C90476   3.016   6.535   6.074 -0.2166  0.2180  0.4989
  671MOL0     C90477   2.878   6.565   6.108 -0.5056  0.9212 -0.1469
  671MOL0     C90478   2.839   6.709   6.109 -0.0506  0.9291  0.5811
  671MOL0     C90479   2.790   6.456   6.133 -0.7907  0.4440  0.0918
  671MOL0     C90480   2.650   6.470   6.173  0.4069 -0.7652  0.2775
  671MOL0     O90481   2.607   6.590   6.214 -0.8496  0.0796  0.0271
  671MOL0     C90482   2.479   6.630   6.218 -0.3306 -0.0101 -0.0365
  671MOL0     C90483   2.459   6.766   6.231  0.3344  0.9744 -0.5050
  671MOL0     C90484   2.330   6.821   6.248  0.4163  0.0640  0.5663
  671MOL0     C90485   2.214   6.742   6.237 -0.9821 -0.5069  0.2444
  671MOL0     O90486   2.096   6.813   6.248  0.6804 -0.8721 -0.1611
  671MOL0     C90487   1.970   6.762   6.285  1.3200 -0.4036  0.4788
  671MOL0     C90488   1.869   6.747   6.167 -0.4336  0.1718 -0.8639
  671MOL0     C90489   1.755   6.654   6.188  0.0022 -0.3674  0.2099
  671MOL0     C90490   1.674   6.648   6.065 -0.3819  0.1030 -0.7896
  671MOL0     C90491   1.536   6.576   6.067 -0.3596 -0.0049  0.3520
  671MOL0     C90492   1.472   6.598   5.932 -0.2443 -0.5802  0.2674
  671MOL0     C90493   1.346   6.510   5.922 -0.1229  0.7773  0.0795
  671MOL0     C90494   1.228   6.569   5.831 -0.0617 -0.2469 -0.2423
  671MOL0    Cl90495   1.260   6.525   5.660  0.3026 -0.1861 -0.1556
  671MOL0     C90496   2.229   6.607   6.227 -0.9913  0.8163  0.3403
  671MOL0     C90497   2.362   6.548   6.219  0.9176  0.2286 -1.3300
  671MOL0     O90498   2.575   6.368   6.153 -0.9744 -0.4506 -1.1777
  671MOL0     C90499   2.843   6.323   6.134  0.6127  0.3952  0.1836
  671MOL0     C90500   2.969   6.297   6.094 -0.7110 -0.8162  0.2646
  671MOL0     N90501   3.659   5.966   5.893  0.4271 -0.3049 -0.6263
  671MOL0     N90502   3.746   5.975   5.801  0.3755 -0.3462 -0.3678
  671MOL0     C90503   4.909   5.970   6.172 -0.6538 -0.2552  0.7819
  671MOL0     C90504   5.044   5.981   6.140  0.0627 -0.1770 -0.6943
  671MOL0     C90505   5.475   6.013   5.987  0.1089  1.3824 -0.3099
  671MOL0     C90506   5.566   5.902   5.992 -0.3568  0.1169  0.2800
  671MOL0     C90507   5.687   5.910   5.929  0.1641  0.0669 -0.7151
  671MOL0     C90508   5.723   6.019   5.851  0.8877 -0.3995  0.1327
  671MOL0     O90509   5.837   6.045   5.784  0.0568  0.1652 -0.4530
  671MOL0     C90510   5.874   5.939   5.700 -0.6837  0.2198  0.2064
  671MOL0     C90511   6.032   5.933   5.683  0.0264  0.6916  0.2204
  671MOL0     C90512   6.073   6.072   5.625  0.0277  0.4234 -0.3137
  671MOL0     C90513   6.215   6.066   5.582 -0.5710 -0.4266  0.6566
  671MOL0     C90514   6.261   6.212   5.560  0.5330  0.7120  0.7725
  671MOL0     C90515   6.264   6.333   5.547  0.2091  0.4492 -0.7526
  671MOL0     C90516   5.643   6.128   5.853  0.4162  0.3298  0.2312
  671MOL0     C90517   5.520   6.120   5.920  0.4615 -0.1829 -0.3516
  671MOL0     H90518   5.055   6.224   5.916 -0.8807  2.1858  0.7664
  671MOL0     H90519   4.819   6.218   5.942 -0.6143  0.2696 -0.1021
  671MOL0     H90520   4.652   5.850   6.167 -2.4272 -0.6471 -1.6449
  671MOL0     H90521   4.660   5.976   6.294 -0.6355  3.6437 -0.7489
  671MOL0     H90522   4.412   5.899   6.253 -1.9187  3.0549  2.6472
  671MOL0     H90523   4.459   6.067   6.258  1.7983 -0.7168  1.6645
  671MOL0     H90524   4.464   6.069   6.001 -0.1750  0.9391  0.1834
  671MOL0     H90525   4.440   5.887   6.003  0.9031  1.2483 -0.7918
  671MOL0     H90526   4.215   5.944   6.084 -0.4362 -0.6980 -2.5225
  671MOL0     H90527   4.272   6.114   6.099 -2.9143  1.1333 -1.3888
  671MOL0     H90528   4.295   6.134   5.857  0.7174 -0.4106 -1.0175
  671MOL0     H90529   4.262   5.968   5.839 -0.0960  1.3827 -1.1284
  671MOL0     H90530   4.036   6.004   5.956 -0.8465 -1.2253  0.3443
  671MOL0     H90531   4.063   6.179   5.953 -1.4206 -0.9618  0.6020
  671MOL0     H90532   4.121   6.162   5.700  2.9742 -0.9888  2.6945
  671MOL0     H90533   4.037   5.998   5.703  1.7520 -0.6995  0.7381
  671MOL0     H90534   3.879   6.150   5.630 -1.7291  1.4128  1.1934
  671MOL0     H90535   3.907   6.275   5.752 -1.2849  0.6013 -1.1979
  671MOL0     H90536   3.733   6.270   5.958 -2.0718  1.1931 -1.0464
  671MOL0     H90537   3.444   6.024   6.030  0.0708  0.8323 -2.1660
  671MOL0     H90538   3.535   6.105   6.157  0.3381  2.6443 -0.0769
  671MOL0     H90539   3.394   6.223   5.918  1.7199 -3.1862  0.4597
  671MOL0     H90540   3.519   6.318   6.009  0.5886 -0.0618  2.0313
  671MOL0     H90541   3.428   6.298   6.220  0.5939  1.4548 -0.4554
  671MOL0     H90542   3.278   6.217   6.171 -0.3830  1.2579 -0.2420
  671MOL0     H90543   3.358   6.482   6.055  1.1160 -2.9960 -1.3967
  671MOL0     H90544   3.248   6.477   6.189 -0.7200 -0.0019 -0.6483
  671MOL0     H90545   3.088   6.613   6.053 -0.6129  0.5044  0.1982
  671MOL0     H90546   2.788   6.734   6.016 -0.6135  0.3145  0.7099
  671MOL0     H90547   2.788   6.741   6.200  1.4101 -0.0355  1.8100
  671MOL0     H90548   2.932   6.766   6.102  0.1793  0.3899 -1.5435
  671MOL0     H90549   2.550   6.825   6.239  0.9972 -0.1187  0.4124
  671MOL0     H90550   2.316   6.928   6.258 -2.3284 -0.3773  2.7139
  671MOL0     H90551   1.979   6.669   6.343  1.6812 -0.1806  0.7859
  671MOL0     H90552   1.915   6.831   6.349 -2.5487 -1.5076 -1.3426
  671MOL0     H90553   1.825   6.844   6.141  0.9593  0.7922 -0.9932
  671MOL0     H90554   1.934   6.724   6.082  0.6160  0.6981 -0.2195
  671MOL0     H90555   1.700   6.698   6.272  0.3348  2.8483 -1.1137
  671MOL0     H90556   1.790   6.555   6.218 -0.0612  0.1071  1.9625
  671MOL0     H90557   1.656   6.752   6.037  1.4668  1.0296  1.1938
  671MOL0     H90558   1.739   6.598   5.993 -1.5214 -1.7497 -0.6277
  671MOL0     H90559   1.471   6.611   6.147 -1.5583 -2.8985  0.7705
  671MOL0     H90560   1.549   6.468   6.083 -1.9622 -0.1066  1.0867
  671MOL0     H90561   1.450   6.704   5.920  0.9510 -0.3628 -0.1380
  671MOL0     H90562   1.538   6.570   5.850 -3.1875 -2.1359 -1.7786
  671MOL0     H90563   1.301   6.494   6.020 -1.6993  2.2280 -0.3418
  671MOL0     H90564   1.377   6.416   5.876 -0.7964  0.4243  0.3365
  671MOL0     H90565   1.220   6.677   5.851 -1.3898 -0.0087 -1.8644
  671MOL0     H90566   1.139   6.523   5.876 -0.9462  4.1927  3.4425
  671MOL0     H90567   2.142   6.541   6.224  0.3864 -1.0448 -0.4870
  671MOL0     H90568   2.370   6.441   6.206 -0.3337 -0.0467 -0.0246
  671MOL0     H90569   2.781   6.237   6.159  2.2468 -0.6919  0.6035
  671MOL0     H90570   2.989   6.190   6.084  1.8424 -0.3650 -0.0072
  671MOL0     H90571   4.872   5.891   6.236 -0.4990 -1.3857 -0.4648
  671MOL0     H90572   5.121   5.929   6.197  2.6152  1.9733 -1.9155
  671MOL0     H90573   5.539   5.810   6.042 -1.6942 -0.6710 -1.7623
  671MOL0     H90574   5.760   5.832   5.951 -0.8028 -0.6536  0.0718
  671MOL0     H90575   5.830   5.848   5.741 -4.4022  2.0386  0.6853
  671MOL0     H90576   5.836   5.952   5.598  0.1363  0.1605 -0.1090
  671MOL0     H90577   6.051   5.851   5.613 -1.8006 -1.0038  1.5947
  671MOL0     H90578   6.085   5.914   5.776  3.4101  2.2317 -1.2135
  671MOL0     H90579   6.045   6.144   5.702 -1.4388  2.9112 -2.9775
  671MOL0     H90580   6.007   6.097   5.541 -0.5823  1.7541  0.5425
  671MOL0     H90581   6.239   6.012   5.490  0.0212  0.2054  0.4344
  671MOL0     H90582   6.280   6.032   5.662  0.1606 -1.8665 -0.4969
  671MOL0     H90583   6.309   6.429   5.534  4.9318 -1.5541 -1.3949
  671MOL0     H90584   5.655   6.220   5.797  0.3568 -0.0272 -0.3809
  671MOL0     H90585   5.439   6.188   5.895 -1.8889 -3.6678 -3.3310
  672MOL0     O90586   1.003   6.740   9.004  0.5516 -0.2889 -0.0670
  672MOL0     C90587   1.061   6.843   9.010  0.7363  0.4982  0.3660
  672MOL0     O90588   1.013   6.963   8.969 -0.0543  0.2121 -0.6909
  672MOL0     C90589   0.891   6.961   8.913 -0.4056 -0.6852  0.1941
  672MOL0     C90590   0.886   7.011   8.786  0.2825 -0.1076  0.6381
  672MOL0     C90591   0.757   7.003   8.723 -0.2854 -0.3057  0.8092
  672MOL0     C90592   0.637   6.965   8.783  0.4815 -0.2446  0.0852
  672MOL0     O90593   0.508   6.983   8.733  0.6918  0.5906  0.4893
  672MOL0     C90594   0.376   6.955   8.788  0.0718 -0.2806 -0.3026
  672MOL0     C90595   0.278   6.929   8.668 -0.6425  0.3722 -0.1081
  672MOL0     C90596   0.135   6.937   8.723 -0.0193 -1.2285  0.0462
  672MOL0     C90597   0.032   6.913   8.616  0.3552 -0.3282 -0.6351
  672MOL0     C90598  -0.109   6.942   8.672 -0.3561  0.7295  0.0359
  672MOL0     C90599  -0.213   6.915   8.565 -0.0504 -0.3448  1.2220
  672MOL0     C90600  -0.357   6.960   8.596 -0.0408 -0.2501  0.1601
  672MOL0     C90601  -0.424   6.882   8.714 -0.1255 -0.9807  0.5688
  672MOL0     N90602  -0.575   6.895   8.705  0.3052 -0.4474 -0.8109
  672MOL0     C90603  -0.661   6.851   8.613  0.4187 -0.2448  0.1843
  672MOL0     C90604  -0.782   6.873   8.661  0.3124 -0.4707 -0.6614
  672MOL0     C90605  -0.910   6.833   8.587  0.1900  0.1921  0.3498
  672MOL0     C90606  -0.945   6.681   8.597  0.3848 -1.0142  0.1844
  672MOL0     C90607  -0.986   6.648   8.739  0.2559  0.0697  0.2428
  672MOL0     C90608  -1.137   6.670   8.759 -0.1562  0.9854 -0.5820
  672MOL0     O90609  -1.201   6.569   8.688  0.0303  0.3694 -0.0294
  672MOL0     C90610  -1.332   6.596   8.669  0.1210 -0.1259  0.1854
  672MOL0     C90611  -1.390   6.695   8.595  0.1582 -0.1838  0.2142
  672MOL0     C90612  -1.524   6.699   8.558  0.3147  1.0344  0.2013
  672MOL0     C90613  -1.573   6.813   8.477 -0.5876 -0.3927  0.1121
  672MOL0     C90614  -1.607   6.590   8.594  0.6229 -0.2896 -0.2312
  672MOL0     C90615  -1.743   6.579   8.539  0.0776  0.1690 -0.1602
  672MOL0     O90616  -1.789   6.452   8.519  0.0762  0.8909  0.0962
  672MOL0     C90617  -1.926   6.439   8.503  0.3921  0.6006 -0.7783
  672MOL0     C90618  -1.999   6.351   8.584  0.0516 -0.2519  0.9768
  672MOL0     C90619  -2.124   6.302   8.539  0.3578  0.3789 -0.8582
  672MOL0     C90620  -2.177   6.342   8.418 -0.5930 -0.2501  0.9485
  672MOL0     O90621  -2.291   6.298   8.368  0.6675 -0.0634 -0.2488
  672MOL0     C90622  -2.379   6.218   8.447  0.3756 -0.3049 -0.0126
  672MOL0     C90623  -2.476   6.155   8.351 -0.5154 -0.6401 -0.2966
  672MOL0     C90624  -2.610   6.134   8.420 -1.0370  0.5431 -0.2220
  672MOL0     C90625  -2.603   6.016   8.515 -0.5629 -0.1149 -0.0108
  672MOL0     C90626  -2.718   6.010   8.622  0.0807  0.0085  0.1067
  672MOL0     C90627  -2.676   6.091   8.746 -0.3610 -0.4049 -0.3655
  672MOL0     C90628  -2.785   6.078   8.853 -0.8901  0.0406 -0.4063
  672MOL0     C90629  -2.922   6.124   8.808 -0.6806 -1.0308  0.3389
  672MOL0    Cl90630  -3.020   6.122   8.951 -0.2427 -0.0701 -0.2291
  672MOL0     C90631  -2.108   6.433   8.336  0.1005 -0.1773 -0.0136
  672MOL0     C90632  -1.978   6.473   8.376 -0.5473 -0.8120 -0.0214
  672MOL0     O90633  -1.812   6.680   8.538  0.9297  0.0118 -0.5945
  672MOL0     C90634  -1.546   6.483   8.670 -0.1620 -0.1203  0.1124
  672MOL0     C90635  -1.413   6.490   8.700 -0.2121 -0.2443 -0.2548
  672MOL0     N90636  -0.783   6.919   8.788  0.5055 -0.0355 -1.1844
  672MOL0     N90637  -0.661   6.947   8.803 -0.0339  0.9784 -0.0606
  672MOL0     C90638   0.647   6.922   8.924  0.4213  0.7468 -0.3240
  672MOL0     C90639   0.775   6.931   8.982  0.5310  0.5698 -0.0651
  672MOL0     C90640   1.200   6.838   9.069 -0.5228  0.7551 -0.3422
  672MOL0     C90641   1.268   6.949   9.121  0.1338  0.3066  0.0085
  672MOL0     C90642   1.395   6.945   9.179 -0.0155 -0.3914 -0.1347
  672MOL0     C90643   1.459   6.822   9.193 -0.6373  0.3125  0.2763
  672MOL0     O90644   1.588   6.797   9.243  0.1469 -0.1608 -0.0081
  672MOL0     C90645   1.688   6.904   9.251  1.4674 -0.0625 -0.6259
  672MOL0     C90646   1.812   6.863   9.336  0.0617  0.1716 -0.5380
  672MOL0     C90647   1.782   6.837   9.487  1.6408  0.0689 -0.0360
  672MOL0     C90648   1.906   6.770   9.540  0.3438  0.3107 -1.0500
  672MOL0     C90649   1.879   6.720   9.676  0.1718 -0.3179  0.1962
  672MOL0     C90650   1.861   6.660   9.779  0.7417  0.3731  0.1438
  672MOL0     C90651   1.388   6.708   9.152 -0.9581  0.8046  0.2100
  672MOL0     C90652   1.270   6.714   9.086 -0.0428  0.3791  0.0078
  672MOL0     H90653   0.971   7.057   8.737 -0.4834 -0.2675 -0.9090
  672MOL0     H90654   0.770   7.047   8.624 -0.8885 -1.2588  0.2937
  672MOL0     H90655   0.377   6.862   8.847 -1.0762 -1.9366 -2.7125
  672MOL0     H90656   0.346   7.036   8.856 -0.6143  0.6887 -1.7134
  672MOL0     H90657   0.299   7.000   8.587 -0.5184 -1.2047 -1.5367
  672MOL0     H90658   0.290   6.827   8.629 -1.1917  0.3102 -0.1132
  672MOL0     H90659   0.108   6.868   8.803  0.8641 -0.0321  1.4317
  672MOL0     H90660   0.122   7.040   8.757 -1.0989 -0.7669 -1.6130
  672MOL0     H90661   0.044   6.981   8.531 -0.8288  2.0480  0.9759
  672MOL0     H90662   0.051   6.813   8.577  0.9170 -0.3409 -0.3420
  672MOL0     H90663  -0.138   6.888   8.763  1.1629 -1.4059 -0.6965
  672MOL0     H90664  -0.105   7.050   8.692  1.7993  0.8739 -0.8974
  672MOL0     H90665  -0.179   6.955   8.469 -1.4819  2.3839  1.7645
  672MOL0     H90666  -0.218   6.807   8.548  1.2118  0.1253 -3.2525
  672MOL0     H90667  -0.363   7.066   8.622 -0.5788 -0.6708  1.8715
  672MOL0     H90668  -0.421   6.947   8.508 -0.1860 -3.1651  0.6167
  672MOL0     H90669  -0.387   6.918   8.810  3.9023 -0.4417 -0.9760
  672MOL0     H90670  -0.399   6.775   8.709 -0.5390 -1.0442 -0.2993
  672MOL0     H90671  -0.645   6.821   8.510 -3.6949  1.7403 -1.2613
  672MOL0     H90672  -1.001   6.878   8.627  0.0347 -0.4423  0.7160
  672MOL0     H90673  -0.902   6.868   8.484  2.1343  0.8475  0.6872
  672MOL0     H90674  -0.861   6.624   8.557  1.6358 -0.0810  1.3695
  672MOL0     H90675  -1.029   6.677   8.527  1.1690  1.7614 -1.0498
  672MOL0     H90676  -0.921   6.697   8.812  1.6508  0.1274 -1.0206
  672MOL0     H90677  -0.984   6.541   8.762 -4.1242  0.0051  1.2826
  672MOL0     H90678  -1.160   6.770   8.722 -1.8833  0.2544 -1.6202
  672MOL0     H90679  -1.162   6.652   8.864 -0.8239  0.6584 -0.7906
  672MOL0     H90680  -1.324   6.777   8.568  0.7707 -0.8224 -0.2969
  672MOL0     H90681  -1.640   6.874   8.540  1.2854 -0.5596  2.4076
  672MOL0     H90682  -1.487   6.880   8.470 -0.8796 -0.0532 -0.2627
  672MOL0     H90683  -1.610   6.789   8.377  1.2194 -0.6915 -0.5142
  672MOL0     H90684  -1.956   6.318   8.678  2.0942  5.0343  2.2924
  672MOL0     H90685  -2.174   6.228   8.601  1.7589 -1.1302 -1.4584
  672MOL0     H90686  -2.323   6.143   8.504  2.6409  0.6030 -0.9211
  672MOL0     H90687  -2.433   6.276   8.524  3.4537  0.2305  1.9440
  672MOL0     H90688  -2.486   6.217   8.262 -1.7347 -0.5155 -0.0843
  672MOL0     H90689  -2.439   6.063   8.305  1.2656  0.8729 -2.1226
  672MOL0     H90690  -2.689   6.116   8.346 -0.9885 -0.1949 -0.0989
  672MOL0     H90691  -2.640   6.221   8.480  3.7138  1.3941  1.3134
  672MOL0     H90692  -2.613   5.925   8.455 -1.6497  0.7699 -1.2152
  672MOL0     H90693  -2.507   6.015   8.568 -2.4337 -0.4409  3.6332
  672MOL0     H90694  -2.743   5.911   8.662 -0.2791  0.7263  1.7070
  672MOL0     H90695  -2.808   6.047   8.574  0.7917 -1.2778 -2.4014
  672MOL0     H90696  -2.576   6.064   8.781 -0.1222 -0.3234 -0.9733
  672MOL0     H90697  -2.659   6.194   8.712  2.0482 -0.1654  1.3030
  672MOL0     H90698  -2.749   6.127   8.944 -0.2641  1.3362 -1.3231
  672MOL0     H90699  -2.780   5.972   8.879 -0.3759  0.6724  2.5101
  672MOL0     H90700  -2.964   6.057   8.733 -1.9770 -1.2122  1.1999
  672MOL0     H90701  -2.914   6.226   8.770  0.9624 -1.4743 -0.6016
  672MOL0     H90702  -2.153   6.456   8.240  1.8829 -0.7327 -1.0289
  672MOL0     H90703  -1.916   6.544   8.321 -2.6549 -0.0420 -1.5594
  672MOL0     H90704  -1.605   6.395   8.696 -1.0092 -0.0536 -1.4366
  672MOL0     H90705  -1.368   6.400   8.743 -3.0591 -1.3540  0.6239
  672MOL0     H90706   0.565   6.894   8.989 -1.8535  0.6110 -3.0744
  672MOL0     H90707   0.791   6.902   9.085  1.1134  2.7494  0.5087
  672MOL0     H90708   1.216   7.044   9.109  0.9435  0.6692 -0.8233
  672MOL0     H90709   1.461   7.021   9.221  0.6272 -0.5530 -0.8264
  672MOL0     H90710   1.711   6.936   9.149  0.0997  0.4860 -0.7869
  672MOL0     H90711   1.654   6.990   9.310  2.4604 -0.0045 -0.1080
  672MOL0     H90712   1.883   6.945   9.326  0.9171 -0.7025 -2.0918
  672MOL0     H90713   1.860   6.777   9.287 -2.1982 -1.5749  0.1234
  672MOL0     H90714   1.696   6.770   9.500  1.6376  0.4053  2.1487
  672MOL0     H90715   1.757   6.935   9.528  0.6236 -0.2519  0.1559
  672MOL0     H90716   1.987   6.843   9.534 -0.5826  1.7224  1.6529
  672MOL0     H90717   1.938   6.694   9.468  0.8232 -1.6074  1.0289
  672MOL0     H90718   1.851   6.613   9.874  3.3787  0.9284  0.7653
  672MOL0     H90719   1.439   6.612   9.153 -3.0622 -0.3597  0.9349
  672MOL0     H90720   1.231   6.624   9.041 -0.5571  1.8006 -2.6382
  673MOL0     O90721   1.831   9.837  11.020  0.3854 -0.6295 -0.1258
  673MOL0     C90722   1.867   9.844  11.135 -0.2956  0.3905  0.5210
  673MOL0     O90723   1.782   9.890  11.229 -1.2358  0.3251  0.2944
  673MOL0     C90724   1.656   9.940  11.190  0.2119  0.2490  0.2223
  673MOL0     C90725   1.541   9.857  11.228  0.5666  1.1910  0.6097
  673MOL0     C90726   1.413   9.895  11.195  0.1132  0.0452  0.1752
  673MOL0     C90727   1.394  10.006  11.111 -0.1724 -0.1539  0.3594
  673MOL0     O90728   1.269  10.030  11.061 -0.0011  0.4450  0.7210
  673MOL0     C90729   1.272  10.010  10.916 -0.2125  0.4886 -0.5571
  673MOL0     C90730   1.156  10.095  10.857  0.3862  0.5476 -0.7389
  673MOL0     C90731   1.193  10.240  10.851  0.7821  0.1060  0.2973
  673MOL0     C90732   1.095  10.316  10.757 -0.0939  1.0210  1.0456
  673MOL0     C90733   0.968  10.333  10.828 -0.0523 -0.3962  0.0110
  673MOL0     C90734   0.876  10.438  10.751 -0.5949 -0.4245 -0.6370
  673MOL0     C90735   0.733  10.437  10.819  0.2793 -0.2322  0.4955
  673MOL0     C90736   0.637  10.324  10.780 -0.2584 -1.2702 -0.3624
  673MOL0     N90737   0.577  10.334  10.649  0.0722  0.3129  0.6463
  673MOL0     C90738   0.443  10.349  10.629  0.7338  1.1529  0.3585
  673MOL0     C90739   0.426  10.346  10.487 -0.0454  0.5864 -0.9551
  673MOL0     C90740   0.294  10.356  10.409 -0.0913 -0.1356 -0.6216
  673MOL0     C90741   0.207  10.462  10.484  0.6641 -0.7205  0.9886
  673MOL0     C90742   0.111  10.538  10.396  0.8576  0.1116  0.0780
  673MOL0     C90743   0.005  10.449  10.336  0.9772 -0.1555 -0.8720
  673MOL0     O90744  -0.080  10.398  10.433  0.1421  0.1026 -0.6926
  673MOL0     C90745  -0.175  10.302  10.414  0.0416 -0.0642 -0.5825
  673MOL0     C90746  -0.181  10.229  10.292  0.4475 -0.6030 -0.1250
  673MOL0     C90747  -0.281  10.132  10.275 -0.3923 -0.1837 -0.0848
  673MOL0     C90748  -0.283  10.048  10.152 -0.9774 -0.1289  0.4546
  673MOL0     C90749  -0.378  10.116  10.376 -0.3749 -0.2907 -0.1405
  673MOL0     C90750  -0.488  10.022  10.364  0.1288 -0.4695  0.5546
  673MOL0     O90751  -0.567  10.032  10.252  0.2214  0.2797  0.6519
  673MOL0     C90752  -0.675   9.947  10.241  0.1702  0.3112  0.1184
  673MOL0     C90753  -0.662   9.807  10.232  0.3388 -0.3952 -0.4295
  673MOL0     C90754  -0.767   9.728  10.203 -0.0865  0.2273 -0.2886
  673MOL0     C90755  -0.899   9.768  10.185  0.3618  0.7988  0.5562
  673MOL0     O90756  -0.998   9.672  10.152 -0.1995 -0.1409 -1.1706
  673MOL0     C90757  -1.135   9.717  10.140  0.2834 -0.1824 -0.5454
  673MOL0     C90758  -1.252   9.612  10.140  0.1498 -0.7301 -0.0520
  673MOL0     C90759  -1.377   9.671  10.085  0.3226  0.0885 -0.5215
  673MOL0     C90760  -1.466   9.553  10.060  0.4173 -0.2409 -0.0325
  673MOL0     C90761  -1.596   9.597   9.993  0.0314 -0.1029 -0.5532
  673MOL0     C90762  -1.595   9.641   9.850  1.1882  0.6091  0.1238
  673MOL0     C90763  -1.732   9.695   9.803  0.9343  0.2386 -0.4013
  673MOL0     C90764  -1.841   9.587   9.787  0.0887 -1.1990 -0.3294
  673MOL0    Cl90765  -1.974   9.648   9.678  0.2060 -0.2391  0.0611
  673MOL0     C90766  -0.915   9.908  10.203 -0.0884 -1.1063 -0.8461
  673MOL0     C90767  -0.805  10.002  10.229 -0.0484  0.1895  0.3304
  673MOL0     O90768  -0.507   9.949  10.454  0.3236 -0.0445 -0.4324
  673MOL0     C90769  -0.363  10.186  10.495  0.3115 -0.2558  0.4696
  673MOL0     C90770  -0.269  10.290  10.508 -0.0193  0.3162 -0.8994
  673MOL0     N90771   0.552  10.323  10.435 -0.3068  0.0694 -0.0022
  673MOL0     N90772   0.637  10.308  10.531 -0.7409 -0.5481  0.2682
  673MOL0     C90773   1.503  10.093  11.076  0.2074  0.6013  0.2506
  673MOL0     C90774   1.634  10.066  11.117  0.0682  0.3052  0.2336
  673MOL0     C90775   2.001   9.797  11.182 -0.1772  0.6100  0.0987
  673MOL0     C90776   2.087   9.734  11.091  0.0872  1.0951 -0.0384
  673MOL0     C90777   2.215   9.685  11.131  0.3762  0.4028  0.5458
  673MOL0     C90778   2.258   9.701  11.258  0.0269  0.2519  1.3039
  673MOL0     O90779   2.385   9.664  11.297 -0.7026 -0.1766  0.4253
  673MOL0     C90780   2.477   9.576  11.225  0.1767 -0.3584 -0.7191
  673MOL0     C90781   2.599   9.565  11.317  0.2792  0.5113 -0.0692
  673MOL0     C90782   2.676   9.689  11.346  0.2451 -1.0617 -0.1502
  673MOL0     C90783   2.801   9.670  11.420 -0.2281  0.4823 -0.4305
  673MOL0     C90784   2.857   9.797  11.459  0.0707 -0.4018 -0.4338
  673MOL0     C90785   2.896   9.912  11.482  0.4412  0.1627 -0.3859
  673MOL0     C90786   2.177   9.764  11.350  0.5398  0.1681  0.3227
  673MOL0     C90787   2.047   9.813  11.314  0.3348 -0.2730 -0.8464
  673MOL0     H90788   1.546   9.761  11.279 -0.6625 -0.0283 -1.4136
  673MOL0     H90789   1.326   9.831  11.210  1.8494 -2.9686 -1.5301
  673MOL0     H90790   1.364  10.024  10.858  1.1926  0.1686  1.5210
  673MOL0     H90791   1.242   9.908  10.890 -0.1780  0.6839 -1.4198
  673MOL0     H90792   1.134  10.061  10.755 -1.4369  0.8020 -0.4545
  673MOL0     H90793   1.071  10.074  10.922  3.3719 -3.1223  2.5102
  673MOL0     H90794   1.181  10.287  10.949  0.7538  0.1589  0.2696
  673MOL0     H90795   1.298  10.266  10.836  1.1825 -1.3076  0.4503
  673MOL0     H90796   1.143  10.410  10.731  2.4830 -0.1392  1.2251
  673MOL0     H90797   1.070  10.261  10.666 -0.9330  2.7459  0.2096
  673MOL0     H90798   0.910  10.240  10.834  1.9515 -1.8194 -1.4214
  673MOL0     H90799   0.985  10.380  10.925 -0.3637  0.1239 -0.1832
  673MOL0     H90800   0.928  10.532  10.771 -2.2000  0.4953 -0.6239
  673MOL0     H90801   0.871  10.418  10.644  2.5031 -1.7358 -0.6602
  673MOL0     H90802   0.748  10.431  10.927  1.8746 -2.0517  0.2205
  673MOL0     H90803   0.676  10.527  10.792 -3.9054 -2.2884  1.6613
  673MOL0     H90804   0.561  10.311  10.858  0.6650  0.0082  0.7961
  673MOL0     H90805   0.698  10.233  10.791  0.2902 -1.1884 -2.3173
  673MOL0     H90806   0.360  10.368  10.696 -3.0130  1.3850 -3.8468
  673MOL0     H90807   0.316  10.391  10.308  3.3746  1.7019  0.6247
  673MOL0     H90808   0.248  10.257  10.404 -0.1726 -0.2493  1.3795
  673MOL0     H90809   0.269  10.540  10.528 -0.5705  1.5857 -1.1122
  673MOL0     H90810   0.164  10.417  10.575 -1.5275 -0.2148  0.2771
  673MOL0     H90811   0.164  10.591  10.317 -0.5609 -1.9544 -2.3961
  673MOL0     H90812   0.060  10.621  10.447 -0.0163 -0.1934 -0.2750
  673MOL0     H90813   0.055  10.364  10.288 -1.9615 -0.0708 -4.5536
  673MOL0     H90814  -0.041  10.505  10.254  1.0409  0.2922 -0.6065
  673MOL0     H90815  -0.105  10.248  10.216  3.5322  0.3303  2.9381
  673MOL0     H90816  -0.328  10.112  10.075  0.9537  2.1818  1.1302
  673MOL0     H90817  -0.187  10.008  10.117 -0.2891 -2.6862  4.6284
  673MOL0     H90818  -0.359   9.970  10.160 -0.6995 -0.2135  3.1808
  673MOL0     H90819  -0.562   9.769  10.252 -0.2927 -1.3712  1.1245
  673MOL0     H90820  -0.754   9.621  10.212 -4.0048 -0.2595  1.3970
  673MOL0     H90821  -1.167   9.776  10.227  3.5242  0.4713  0.3269
  673MOL0     H90822  -1.148   9.776  10.049 -0.3333 -2.1854 -1.8049
  673MOL0     H90823  -1.213   9.524  10.087  0.0158 -1.1575  0.5601
  673MOL0     H90824  -1.276   9.587  10.243 -0.0552  1.9369  0.6316
  673MOL0     H90825  -1.360   9.721   9.989 -0.3088 -1.2725 -1.3743
  673MOL0     H90826  -1.428   9.744  10.149 -1.5734  0.2565 -2.1329
  673MOL0     H90827  -1.411   9.482   9.997  0.7268  0.3377 -0.4288
  673MOL0     H90828  -1.498   9.503  10.151  0.6225  1.7772  1.2101
  673MOL0     H90829  -1.639   9.675  10.057  1.0676  0.8952 -1.0507
  673MOL0     H90830  -1.661   9.510  10.003  2.2818 -1.9388 -0.9472
  673MOL0     H90831  -1.518   9.717   9.830 -1.5307  3.5955  0.1641
  673MOL0     H90832  -1.580   9.551   9.790 -2.8278  0.7211 -1.3225
  673MOL0     H90833  -1.720   9.739   9.704  0.0623 -2.4398 -1.7900
  673MOL0     H90834  -1.775   9.775   9.863 -0.2780 -1.6062  1.3120
  673MOL0     H90835  -1.898   9.548   9.873  0.1560 -1.6226 -0.4741
  673MOL0     H90836  -1.792   9.496   9.752  3.1875 -0.0057  0.5881
  673MOL0     H90837  -1.015   9.948  10.190 -0.0372 -1.1676 -1.4124
  673MOL0     H90838  -0.839  10.104  10.245  0.6210  0.3456  0.7862
  673MOL0     H90839  -0.431  10.160  10.576 -2.6885 -0.6184 -1.9860
  673MOL0     H90840  -0.278  10.344  10.602  0.5345 -0.5320 -0.3426
  673MOL0     H90841   1.479  10.172  11.007 -2.0191 -2.2857 -2.5774
  673MOL0     H90842   1.719  10.126  11.086  1.2074 -0.3694  1.8522
  673MOL0     H90843   2.046   9.719  10.992 -0.0673 -2.4918  0.4484
  673MOL0     H90844   2.279   9.631  11.063 -2.7192  0.3623 -2.5949
  673MOL0     H90845   2.420   9.486  11.199 -3.6901  1.8941 -0.9429
  673MOL0     H90846   2.510   9.621  11.131  0.1517  3.3265  0.8941
  673MOL0     H90847   2.660   9.495  11.259 -3.4368 -4.0894  0.9641
  673MOL0     H90848   2.571   9.512  11.408 -2.5003  2.0657  0.1003
  673MOL0     H90849   2.615   9.764  11.398  3.3043  0.2503  1.8241
  673MOL0     H90850   2.698   9.743  11.254 -0.6840 -1.7747 -0.8010
  673MOL0     H90851   2.874   9.606  11.368 -1.3915 -0.8756 -0.4656
  673MOL0     H90852   2.776   9.610  11.508  0.5759  0.5265 -0.1647
  673MOL0     H90853   2.928  10.012  11.502 -1.3559  0.9183 -1.0133
  673MOL0     H90854   2.217   9.778  11.450  0.1792 -2.1087  0.8256
  673MOL0     H90855   1.993   9.865  11.393  2.4740  0.3362  0.2934
  674MOL0     O90856   1.666   6.234   0.733 -0.1466 -0.3715 -0.1531
  674MOL0     C90857   1.740   6.310   0.669  0.0656  0.4292 -0.2644
  674MOL0     O90858   1.695   6.387   0.563  0.1603  0.3741 -0.1327
  674MOL0     C90859   1.566   6.416   0.557  0.5033 -0.2634 -0.2739
  674MOL0     C90860   1.503   6.494   0.651  0.1126  0.0879 -0.1638
  674MOL0     C90861   1.365   6.512   0.634  0.4738 -0.6322 -0.9822
  674MOL0     C90862   1.291   6.466   0.529  0.1108 -0.8017 -0.6457
  674MOL0     O90863   1.154   6.485   0.534 -0.2235  0.6619  0.5903
  674MOL0     C90864   1.071   6.415   0.439 -0.0486 -0.4665  0.0339
  674MOL0     C90865   0.923   6.447   0.463 -0.0678 -0.4199  0.3053
  674MOL0     C90866   0.833   6.420   0.342 -0.4776  0.8373  0.4479
  674MOL0     C90867   0.831   6.281   0.289 -0.0555  0.8696 -0.3635
  674MOL0     C90868   0.770   6.273   0.152  0.1085  0.2928 -0.4066
  674MOL0     C90869   0.790   6.132   0.089 -0.5171  0.1494 -0.2636
  674MOL0     C90870   0.652   6.077   0.029  0.6869 -0.8604  0.3421
  674MOL0     C90871   0.662   5.947  -0.042 -0.5989  0.0803 -0.3320
  674MOL0     N90872   0.523   5.906  -0.083  0.0726  0.2337  0.6408
  674MOL0     C90873   0.440   5.983  -0.157  0.7932  0.0287  0.2430
  674MOL0     C90874   0.319   5.925  -0.158 -0.3834 -0.0506  0.3356
  674MOL0     C90875   0.193   5.974  -0.232  0.2259  0.7430 -0.0846
  674MOL0     C90876   0.059   5.940  -0.155  0.6448 -0.5759  0.5717
  674MOL0     C90877   0.044   5.970  -0.006 -0.0671  0.0786  0.8572
  674MOL0     C90878  -0.091   5.929   0.056 -0.6456 -0.6652 -0.0645
  674MOL0     O90879  -0.182   6.038   0.028 -0.1019  0.4304 -0.2600
  674MOL0     C90880  -0.306   6.012  -0.012  0.7435  0.3675 -0.3314
  674MOL0     C90881  -0.377   5.894   0.004  0.6806 -0.4223  0.1914
  674MOL0     C90882  -0.518   5.875  -0.019 -0.0308 -0.7297  0.5959
  674MOL0     C90883  -0.589   5.749   0.029  0.4860  0.2818  0.2022
  674MOL0     C90884  -0.596   5.991  -0.061  0.1066 -0.8635  0.3862
  674MOL0     C90885  -0.744   5.998  -0.060 -0.2322 -0.5179 -0.5563
  674MOL0     O90886  -0.795   6.121  -0.080 -0.1598  0.0282 -0.5586
  674MOL0     C90887  -0.931   6.140  -0.059  0.8863  0.1465  0.6507
  674MOL0     C90888  -1.009   6.193  -0.164  0.5122  0.5842  0.6490
  674MOL0     C90889  -1.147   6.185  -0.162 -0.4327  0.4881 -0.7556
  674MOL0     C90890  -1.209   6.153  -0.050  0.9830  0.1688 -0.3624
  674MOL0     O90891  -1.344   6.154  -0.026 -0.0473 -0.5671  0.6268
  674MOL0     C90892  -1.427   6.215  -0.124  0.1590 -0.7771 -0.1440
  674MOL0     C90893  -1.576   6.206  -0.096 -0.0156 -0.3844 -0.1039
  674MOL0     C90894  -1.652   6.276  -0.206  0.5379 -0.3006 -0.0922
  674MOL0     C90895  -1.801   6.275  -0.163  0.0507 -0.4838  0.2753
  674MOL0     C90896  -1.824   6.398  -0.078 -0.1004 -0.6059 -0.3388
  674MOL0     C90897  -1.969   6.434  -0.069  0.3770 -0.6581 -0.0533
  674MOL0     C90898  -2.003   6.565  -0.003 -0.3963  0.2436  0.2525
  674MOL0     C90899  -2.152   6.589   0.005  0.0457 -0.3488  0.1766
  674MOL0    Cl90900  -2.172   6.762   0.051  0.2068  0.1162  0.0621
  674MOL0     C90901  -1.136   6.098   0.056 -0.2808 -0.9754  0.9271
  674MOL0     C90902  -0.998   6.094   0.054 -0.1700  0.5340  0.3136
  674MOL0     O90903  -0.807   5.898  -0.036  0.1263 -0.1064 -0.3465
  674MOL0     C90904  -0.525   6.106  -0.079  0.6860 -0.1765  0.4959
  674MOL0     C90905  -0.387   6.119  -0.056  0.1275  0.1837 -0.8009
  674MOL0     N90906   0.323   5.815  -0.067  0.4471 -0.0998  0.7136
  674MOL0     N90907   0.447   5.801  -0.037  0.6816 -0.0832 -0.5508
  674MOL0     C90908   1.367   6.407   0.425  0.2928 -0.0711  0.1151
  674MOL0     C90909   1.497   6.370   0.441 -0.7163  0.2600 -0.5331
  674MOL0     C90910   1.890   6.315   0.693  0.3016 -0.6390  0.5727
  674MOL0     C90911   1.949   6.250   0.798 -0.4443  0.4280 -0.0872
  674MOL0     C90912   2.089   6.247   0.820  0.3076  0.6399  0.3220
  674MOL0     C90913   2.176   6.333   0.746 -0.4535 -1.2751 -1.4596
  674MOL0     O90914   2.308   6.338   0.784  0.6621 -0.0684  0.1623
  674MOL0     C90915   2.392   6.425   0.703 -0.1891  0.0963  0.0317
  674MOL0     C90916   2.424   6.369   0.566 -0.3420  0.6069 -0.1770
  674MOL0     C90917   2.557   6.298   0.553  0.3538 -0.1028  0.5120
  674MOL0     C90918   2.588   6.201   0.671  0.4975  0.8278  0.2301
  674MOL0     C90919   2.675   6.088   0.641 -0.2291  0.0237 -0.2024
  674MOL0     C90920   2.750   5.997   0.607  0.3043 -0.4240  0.4609
  674MOL0     C90921   2.115   6.409   0.647 -0.7978  0.0515 -0.1408
  674MOL0     C90922   1.981   6.394   0.620  0.2480  0.1714  0.0411
  674MOL0     H90923   1.558   6.531   0.737 -2.8481  0.1980  1.8484
  674MOL0     H90924   1.318   6.575   0.709  0.8910  0.1102 -1.3350
  674MOL0     H90925   1.100   6.447   0.339 -0.8427  2.8884  0.7712
  674MOL0     H90926   1.089   6.307   0.447  1.2803 -0.3786 -1.2245
  674MOL0     H90927   0.889   6.394   0.552 -1.3516 -0.3769 -0.1428
  674MOL0     H90928   0.911   6.553   0.485  2.4444 -0.2724  1.2305
  674MOL0     H90929   0.731   6.456   0.363 -0.3293  0.7280  1.3782
  674MOL0     H90930   0.875   6.482   0.262 -0.6150 -0.3406 -0.5712
  674MOL0     H90931   0.928   6.231   0.295 -1.3258 -1.6368  0.8147
  674MOL0     H90932   0.765   6.220   0.351 -1.9933  1.1397 -2.0810
  674MOL0     H90933   0.665   6.300   0.145  0.1655  0.0302 -3.7988
  674MOL0     H90934   0.823   6.335   0.080  0.1436 -0.8303 -1.3796
  674MOL0     H90935   0.854   6.142   0.001  0.1737 -0.3207  0.1748
  674MOL0     H90936   0.835   6.063   0.161  1.2187  0.1067 -1.3461
  674MOL0     H90937   0.579   6.058   0.109 -1.8768  1.9926 -1.0975
  674MOL0     H90938   0.611   6.149  -0.042  0.3421 -2.3191 -0.9810
  674MOL0     H90939   0.699   5.863   0.017 -0.6899 -2.0308 -3.0739
  674MOL0     H90940   0.718   5.966  -0.134 -0.5178 -0.2047 -0.3401
  674MOL0     H90941   0.468   6.071  -0.214  0.2144 -1.8658 -3.2894
  674MOL0     H90942   0.198   6.083  -0.228 -0.0958  0.7901 -0.8007
  674MOL0     H90943   0.185   5.945  -0.337  1.0768  0.1820 -0.0070
  674MOL0     H90944   0.059   5.832  -0.171 -1.0440 -0.3109 -1.8763
  674MOL0     H90945  -0.025   5.982  -0.211 -0.2234  1.1910  2.9928
  674MOL0     H90946   0.063   6.077   0.009 -0.6424 -0.0626  2.9243
  674MOL0     H90947   0.126   5.919   0.047  0.6288  0.5306  0.2308
  674MOL0     H90948  -0.085   5.917   0.164  0.5594 -3.7181 -0.3819
  674MOL0     H90949  -0.132   5.835   0.019 -0.4634 -0.2981 -1.2586
  674MOL0     H90950  -0.335   5.799   0.036 -0.0913 -0.2099  1.9245
  674MOL0     H90951  -0.662   5.767   0.108  0.9790  3.0377  0.1628
  674MOL0     H90952  -0.618   5.704  -0.066  2.6357  1.5689 -1.1617
  674MOL0     H90953  -0.511   5.685   0.069  1.0459  0.6696 -0.2423
  674MOL0     H90954  -0.952   6.238  -0.245  0.0769 -0.1535 -0.0752
  674MOL0     H90955  -1.193   6.239  -0.244 -2.4587  1.3846  0.8813
  674MOL0     H90956  -1.399   6.321  -0.116  1.6746 -1.2242  0.8642
  674MOL0     H90957  -1.413   6.179  -0.226 -3.7803 -1.3792 -0.6209
  674MOL0     H90958  -1.602   6.100  -0.107 -1.2484 -0.0718 -0.2682
  674MOL0     H90959  -1.585   6.248   0.004  3.2382 -0.5939  0.3933
  674MOL0     H90960  -1.649   6.220  -0.300 -2.6937  0.5610 -0.8170
  674MOL0     H90961  -1.621   6.376  -0.235 -1.4278  0.2436 -0.4388
  674MOL0     H90962  -1.868   6.281  -0.250  1.0421 -0.8413 -0.5409
  674MOL0     H90963  -1.812   6.181  -0.108  0.0973  0.1608  1.4059
  674MOL0     H90964  -1.774   6.489  -0.113  0.3199  0.4205  2.6070
  674MOL0     H90965  -1.781   6.383   0.022 -1.7710  0.5620  0.6089
  674MOL0     H90966  -2.005   6.446  -0.171  2.9377  1.3314 -0.8434
  674MOL0     H90967  -2.028   6.355  -0.021 -1.4863  2.1496  2.6740
  674MOL0     H90968  -1.962   6.647  -0.063 -1.4716 -1.3560 -2.8796
  674MOL0     H90969  -1.963   6.568   0.099 -2.4796  0.1791  1.1128
  674MOL0     H90970  -2.191   6.520   0.081 -0.2283 -2.7084 -1.9749
  674MOL0     H90971  -2.191   6.574  -0.096  0.9684 -0.1699 -0.2174
  674MOL0     H90972  -1.193   6.061   0.141 -3.9883  1.0954 -0.4200
  674MOL0     H90973  -0.934   6.063   0.136  1.9839 -0.2117 -1.5535
  674MOL0     H90974  -0.572   6.197  -0.115 -2.5560  0.3264  5.1516
  674MOL0     H90975  -0.351   6.220  -0.069 -0.4535  0.4345 -0.4931
  674MOL0     H90976   1.321   6.367   0.335 -0.5855  2.0538 -0.4394
  674MOL0     H90977   1.550   6.302   0.375  0.7889  0.6859  0.1779
  674MOL0     H90978   1.892   6.178   0.857 -0.1301  0.3893  0.1717
  674MOL0     H90979   2.138   6.182   0.890  0.1026 -2.8120 -2.4475
  674MOL0     H90980   2.359   6.529   0.694 -0.1734  0.0148 -1.0793
  674MOL0     H90981   2.488   6.425   0.755 -0.3021  0.4292  0.2415
  674MOL0     H90982   2.433   6.451   0.494 -2.3763  1.7757  0.8026
  674MOL0     H90983   2.348   6.298   0.534 -2.1449  1.7086  1.4769
  674MOL0     H90984   2.636   6.371   0.535 -1.7789  1.3327 -5.0698
  674MOL0     H90985   2.537   6.240   0.463  0.5486  0.8667 -0.1645
  674MOL0     H90986   2.497   6.161   0.716 -2.0964  2.8469 -2.7794
  674MOL0     H90987   2.632   6.256   0.754  0.0892  1.2822  0.1514
  674MOL0     H90988   2.820   5.917   0.589 -0.7970 -1.5203  0.9412
  674MOL0     H90989   2.173   6.482   0.592  2.6112 -0.1518  2.8294
  674MOL0     H90990   1.944   6.447   0.533 -0.7991  1.0943  0.9963
  675MOL0     O90991   3.159   3.020   6.760 -0.0551  0.0988  0.3892
  675MOL0     C90992   3.165   3.116   6.832 -0.5222 -0.3808 -0.5815
  675MOL0     O90993   3.054   3.193   6.876 -0.1550 -0.2579 -0.5750
  675MOL0     C90994   2.929   3.174   6.823  0.0590 -0.8549 -0.0403
  675MOL0     C90995   2.862   3.054   6.839 -0.0169  0.3076 -0.4766
  675MOL0     C90996   2.745   3.023   6.776  0.4355  0.0952  0.1336
  675MOL0     C90997   2.678   3.117   6.693  0.5763  0.1041  0.3614
  675MOL0     O90998   2.566   3.089   6.631  0.8362 -0.1813 -0.1943
  675MOL0     C90999   2.512   3.179   6.529 -1.2980  0.3121 -1.0310
  675MOL0     C91000   2.372   3.149   6.488 -0.7975  0.7795 -0.8772
  675MOL0     C91001   2.355   3.025   6.397  0.0643  0.0191  0.3333
  675MOL0     C91002   2.201   3.012   6.366 -0.2009 -0.4078  0.0448
  675MOL0     C91003   2.184   2.900   6.252  0.2794  0.0972 -0.0625
  675MOL0     C91004   2.043   2.902   6.191  0.3317 -0.3955  0.0393
  675MOL0     C91005   2.031   2.804   6.071  0.6393  0.2744 -0.2731
  675MOL0     C91006   2.091   2.847   5.945  0.2293 -0.4950 -0.5419
  675MOL0     N91007   2.079   2.759   5.832  0.1258  0.9438 -0.5397
  675MOL0     C91008   1.985   2.758   5.728 -0.0588  0.4211 -0.1414
  675MOL0     C91009   2.016   2.646   5.664 -0.0316 -0.2177  0.1576
  675MOL0     C91010   1.946   2.611   5.540 -0.9488 -1.0991  0.4869
  675MOL0     C91011   1.813   2.551   5.574 -0.1600 -0.0039  0.4398
  675MOL0     C91012   1.760   2.478   5.450  0.1297  0.5981 -0.8083
  675MOL0     C91013   1.611   2.441   5.470  0.8194 -0.1463 -0.3726
  675MOL0     O91014   1.569   2.360   5.357 -0.4070 -0.1148  0.1506
  675MOL0     C91015   1.440   2.351   5.325  0.3178  0.9700  0.8247
  675MOL0     C91016   1.406   2.345   5.183  0.3921 -0.2048 -0.4825
  675MOL0     C91017   1.274   2.351   5.137 -0.5679 -0.5465  0.1103
  675MOL0     C91018   1.255   2.350   4.984  0.6496 -0.1776  0.2625
  675MOL0     C91019   1.165   2.376   5.226 -0.0691 -0.0424  1.0388
  675MOL0     C91020   1.017   2.383   5.186 -0.4060  0.9640 -0.0159
  675MOL0     O91021   0.923   2.385   5.287  0.0829 -0.8227 -0.8029
  675MOL0     C91022   0.803   2.456   5.274 -0.6577 -0.3133  0.7338
  675MOL0     C91023   0.675   2.405   5.311 -0.2469 -0.3814 -0.6170
  675MOL0     C91024   0.560   2.490   5.304  0.1773  0.7328  0.3233
  675MOL0     C91025   0.572   2.626   5.265  0.4932 -0.0016  0.3023
  675MOL0     O91026   0.471   2.714   5.283 -0.7512 -0.3894 -0.4792
  675MOL0     C91027   0.336   2.670   5.303 -0.1422 -0.0293  1.1138
  675MOL0     C91028   0.318   2.646   5.450 -0.3381 -0.9245  0.3001
  675MOL0     C91029   0.177   2.686   5.514 -0.3815  0.3009 -0.4629
  675MOL0     C91030   0.057   2.638   5.428 -0.5488 -0.1195 -0.5654
  675MOL0     C91031  -0.072   2.709   5.475 -0.5452 -0.5615 -0.2572
  675MOL0     C91032  -0.104   2.660   5.617 -0.0797 -0.0297  0.4008
  675MOL0     C91033  -0.235   2.703   5.680 -0.1366 -0.7224  0.8075
  675MOL0     C91034  -0.232   2.634   5.819 -0.5721  0.1766 -0.3603
  675MOL0    Cl91035  -0.382   2.684   5.904  0.3420 -0.3857 -0.0020
  675MOL0     C91036   0.697   2.670   5.224  0.2084  0.7498  0.0107
  675MOL0     C91037   0.812   2.592   5.228 -0.0872  0.1031 -0.4772
  675MOL0     O91038   0.988   2.367   5.064 -0.4549  0.4368 -0.3656
  675MOL0     C91039   1.203   2.397   5.360 -0.0913 -0.2318  0.2372
  675MOL0     C91040   1.328   2.367   5.413 -0.3017 -0.3791 -0.4548
  675MOL0     N91041   2.119   2.581   5.718 -0.1352  0.2108  0.1794
  675MOL0     N91042   2.167   2.654   5.808  1.1106  0.8165  0.4143
  675MOL0     C91043   2.747   3.241   6.684  1.0983 -0.3672 -0.5342
  675MOL0     C91044   2.872   3.272   6.743 -0.0972  0.4236 -0.8614
  675MOL0     C91045   3.296   3.135   6.894 -0.0862  0.0042  0.5172
  675MOL0     C91046   3.331   3.269   6.930  0.3503  0.1030 -0.1297
  675MOL0     C91047   3.459   3.293   6.980  1.4719 -0.3443 -0.0053
  675MOL0     C91048   3.562   3.188   6.985  0.6266 -0.1000  0.4873
  675MOL0     O91049   3.677   3.217   7.046 -0.3811 -0.0247  0.5997
  675MOL0     C91050   3.751   3.330   6.987  0.1841  0.7960  0.3501
  675MOL0     C91051   3.772   3.327   6.832  0.0694  0.3609 -0.1272
  675MOL0     C91052   3.786   3.466   6.781 -0.5865 -1.3377  0.1059
  675MOL0     C91053   3.810   3.495   6.630  0.3150  0.5454 -0.5414
  675MOL0     C91054   3.796   3.638   6.601 -0.5110 -0.0096 -0.2578
  675MOL0     C91055   3.789   3.759   6.578  0.6758  0.2754 -0.4137
  675MOL0     C91056   3.523   3.059   6.950 -0.3944 -0.0208 -0.0774
  675MOL0     C91057   3.394   3.031   6.909  0.2872  0.3941  0.2330
  675MOL0     H91058   2.907   2.984   6.908  0.0548  0.2652 -0.5657
  675MOL0     H91059   2.704   2.924   6.788  1.2925 -0.2030  0.7261
  675MOL0     H91060   2.527   3.285   6.555 -1.4015  1.1481 -4.0135
  675MOL0     H91061   2.574   3.172   6.439 -0.5294  2.5447 -0.7474
  675MOL0     H91062   2.309   3.145   6.577 -1.0419 -0.7409 -1.0770
  675MOL0     H91063   2.339   3.233   6.427  3.3577  3.0856 -0.2863
  675MOL0     H91064   2.411   3.038   6.304  2.1138 -2.6389  1.0805
  675MOL0     H91065   2.395   2.942   6.455  2.7254  0.3660 -0.8559
  675MOL0     H91066   2.136   2.979   6.448 -0.5285  0.4053  0.1264
  675MOL0     H91067   2.172   3.113   6.337 -1.9864 -1.3799 -1.8357
  675MOL0     H91068   2.252   2.917   6.168 -0.9286 -0.0632 -1.1073
  675MOL0     H91069   2.197   2.804   6.302  1.7459  1.7556  3.0019
  675MOL0     H91070   1.960   2.870   6.255 -1.0105 -0.2508 -1.5721
  675MOL0     H91071   2.028   3.007   6.165  0.3752 -0.4264 -0.1126
  675MOL0     H91072   2.073   2.711   6.109 -1.0160 -0.1513  0.5703
  675MOL0     H91073   1.924   2.800   6.050  0.6661 -0.8623 -0.2439
  675MOL0     H91074   2.200   2.859   5.946  0.4609 -1.8724 -2.5266
  675MOL0     H91075   2.054   2.948   5.928  0.0372 -0.6789 -1.2627
  675MOL0     H91076   1.921   2.837   5.691  1.3539  0.8403 -1.7584
  675MOL0     H91077   1.927   2.696   5.474  1.2198 -1.3022 -0.4729
  675MOL0     H91078   2.005   2.538   5.484  1.1537 -0.3669  1.6331
  675MOL0     H91079   1.735   2.616   5.616  0.1453 -0.5513  1.9258
  675MOL0     H91080   1.831   2.474   5.650  2.0137 -1.1803 -1.1414
  675MOL0     H91081   1.813   2.383   5.442  0.2547  0.4013  1.7220
  675MOL0     H91082   1.774   2.535   5.357  2.5813 -1.2099 -1.6606
  675MOL0     H91083   1.541   2.525   5.477 -0.4681 -1.0837 -1.4759
  675MOL0     H91084   1.608   2.373   5.555  1.0181 -2.9541 -2.4800
  675MOL0     H91085   1.489   2.332   5.114  0.4151 -1.0749 -0.3069
  675MOL0     H91086   1.212   2.447   4.957 -0.4900 -0.8183 -0.2800
  675MOL0     H91087   1.346   2.354   4.923  0.5398 -0.0430  0.1092
  675MOL0     H91088   1.185   2.269   4.964 -0.7213  1.0242  0.0347
  675MOL0     H91089   0.674   2.298   5.329 -1.2129 -0.1672  0.8300
  675MOL0     H91090   0.461   2.448   5.322  0.2141  0.7776  0.6369
  675MOL0     H91091   0.284   2.761   5.270  0.0436  0.2831  1.6824
  675MOL0     H91092   0.294   2.598   5.232 -3.3423  2.4954  0.1452
  675MOL0     H91093   0.350   2.542   5.462 -0.2568 -1.1982 -1.8753
  675MOL0     H91094   0.382   2.700   5.521 -1.1811 -2.5081  2.3871
  675MOL0     H91095   0.184   2.792   5.539 -0.0866 -0.1145  1.3428
  675MOL0     H91096   0.186   2.642   5.614  2.3263 -0.8737 -1.1275
  675MOL0     H91097   0.066   2.670   5.323 -1.2004 -1.7816 -1.1562
  675MOL0     H91098   0.044   2.530   5.428  0.7394 -0.2943 -0.8418
  675MOL0     H91099  -0.158   2.692   5.409  0.3717 -1.6543 -1.2041
  675MOL0     H91100  -0.050   2.816   5.475 -0.4752 -0.5744  0.3025
  675MOL0     H91101  -0.081   2.553   5.625 -0.3234 -0.0187  1.2996
  675MOL0     H91102  -0.032   2.704   5.687 -1.2025  0.9222  0.9704
  675MOL0     H91103  -0.328   2.671   5.631 -0.7372  1.0555  0.7310
  675MOL0     H91104  -0.250   2.811   5.689 -1.6430 -0.7097 -1.2464
  675MOL0     H91105  -0.143   2.659   5.878 -0.0963  0.6862 -1.2718
  675MOL0     H91106  -0.240   2.526   5.801 -3.8476  0.2137  0.2970
  675MOL0     H91107   0.703   2.773   5.190 -1.4240  0.5344 -1.0824
  675MOL0     H91108   0.905   2.630   5.188  1.9188 -2.6784  1.2045
  675MOL0     H91109   1.133   2.413   5.441 -2.6640 -0.8590 -1.7089
  675MOL0     H91110   1.342   2.388   5.519 -1.8098  1.3431 -0.5550
  675MOL0     H91111   2.706   3.329   6.636 -0.7297 -0.7123  0.2979
  675MOL0     H91112   2.930   3.362   6.728 -2.2572  1.8616 -1.1027
  675MOL0     H91113   3.255   3.346   6.931  0.4192  0.1708  0.1775
  675MOL0     H91114   3.489   3.392   7.011  1.3660 -0.2340 -0.2548
  675MOL0     H91115   3.705   3.426   7.012  1.4597  2.0302 -1.7763
  675MOL0     H91116   3.845   3.347   7.041  1.1648  1.8759 -1.5935
  675MOL0     H91117   3.686   3.288   6.777  1.8556 -0.7287 -2.2923
  675MOL0     H91118   3.854   3.261   6.804  1.1473  2.0307 -1.0626
  675MOL0     H91119   3.859   3.516   6.844 -1.1409 -1.1262  0.5927
  675MOL0     H91120   3.693   3.514   6.815 -0.6225 -0.1096 -1.5932
  675MOL0     H91121   3.748   3.428   6.570 -3.1233  2.4714  0.5962
  675MOL0     H91122   3.917   3.480   6.612  0.6117  2.3756 -0.5522
  675MOL0     H91123   3.773   3.862   6.556 -0.9793  0.0238 -0.5513
  675MOL0     H91124   3.596   2.980   6.959 -0.9525 -0.7545 -1.6057
  675MOL0     H91125   3.371   2.929   6.879  1.8228  0.0426  0.1520
  676MOL0     O91126   5.616   3.837   4.254  0.2553  0.4670 -0.0968
  676MOL0     C91127   5.682   3.936   4.247  0.2093  0.0778  0.6342
  676MOL0     O91128   5.641   4.063   4.278  0.1786  0.3185  0.2249
  676MOL0     C91129   5.509   4.092   4.318 -0.2506  0.8912  0.3483
  676MOL0     C91130   5.489   4.233   4.329  0.2368 -0.0210 -1.3745
  676MOL0     C91131   5.371   4.294   4.367 -0.8161 -0.0441  1.1962
  676MOL0     C91132   5.259   4.214   4.378  0.3131 -0.3083 -0.4425
  676MOL0     O91133   5.136   4.275   4.402 -0.0808  0.9407 -0.3415
  676MOL0     C91134   5.018   4.202   4.358  0.5613 -0.5054  0.1367
  676MOL0     C91135   4.888   4.273   4.399 -0.2105  0.2286  0.1639
  676MOL0     C91136   4.757   4.190   4.370  0.5143 -1.0668 -0.5009
  676MOL0     C91137   4.721   4.203   4.220  0.4955 -0.5609 -0.1200
  676MOL0     C91138   4.650   4.334   4.187 -0.3495 -0.9635  0.3871
  676MOL0     C91139   4.510   4.352   4.256 -0.4375 -0.1156 -0.1585
  676MOL0     C91140   4.440   4.472   4.184 -0.4773  0.2510 -0.4298
  676MOL0     C91141   4.377   4.438   4.047  0.6070  0.3572  0.2043
  676MOL0     N91142   4.265   4.530   4.026  0.4870 -0.2908 -0.4524
  676MOL0     C91143   4.133   4.510   4.073 -0.2299 -0.2199 -0.2650
  676MOL0     C91144   4.056   4.591   3.994  0.2596 -0.1399 -1.0307
  676MOL0     C91145   3.904   4.587   3.988  0.0467  0.3688  0.0536
  676MOL0     C91146   3.831   4.670   4.090  0.3816  0.3248  0.1507
  676MOL0     C91147   3.681   4.668   4.061 -0.1233  0.1204  0.2222
  676MOL0     C91148   3.597   4.682   4.185  0.2469  1.1760  1.0847
  676MOL0     O91149   3.455   4.658   4.143 -0.0583 -0.3303 -0.7778
  676MOL0     C91150   3.376   4.764   4.107 -0.3507 -0.0399 -0.1809
  676MOL0     C91151   3.241   4.738   4.106 -0.1098  0.1653  0.5751
  676MOL0     C91152   3.143   4.835   4.060 -0.6786  0.2184  0.0655
  676MOL0     C91153   2.990   4.803   4.054 -0.7952  0.0340  0.5530
  676MOL0     C91154   3.192   4.967   4.023  0.5354  0.2956  0.3034
  676MOL0     C91155   3.102   5.084   4.005 -0.7332  1.1260  0.2769
  676MOL0     O91156   3.143   5.183   3.917 -0.5008 -0.7975 -0.1111
  676MOL0     C91157   3.073   5.295   3.894  0.0118 -0.1252  0.5794
  676MOL0     C91158   3.136   5.409   3.883 -0.4520  0.0564  0.5779
  676MOL0     C91159   3.076   5.531   3.856  0.3183  0.3837 -0.0649
  676MOL0     C91160   2.934   5.543   3.848 -0.1270 -0.3291 -0.5634
  676MOL0     O91161   2.860   5.653   3.810  0.2709 -0.2208 -0.8001
  676MOL0     C91162   2.927   5.780   3.799  0.5668 -0.4304 -0.0174
  676MOL0     C91163   2.819   5.878   3.768  0.5853 -0.1698 -0.2905
  676MOL0     C91164   2.807   5.877   3.610  0.8384 -0.3237  0.0873
  676MOL0     C91165   2.732   5.999   3.565  0.5267 -0.9493 -0.6324
  676MOL0     C91166   2.715   5.999   3.406  0.5826 -0.0963  0.8030
  676MOL0     C91167   2.643   6.132   3.378 -0.6173 -0.0358 -0.9171
  676MOL0     C91168   2.627   6.147   3.222  0.3647 -0.1347 -0.4088
  676MOL0     C91169   2.584   6.286   3.181  0.1648 -0.1011  0.1603
  676MOL0    Cl91170   2.423   6.335   3.264  0.5931 -0.3459 -0.2025
  676MOL0     C91171   2.863   5.424   3.862  0.1395 -0.0852  0.3974
  676MOL0     C91172   2.931   5.302   3.889 -0.6595  0.5123 -0.3708
  676MOL0     O91173   3.000   5.086   4.069 -0.3875  0.2088  0.0274
  676MOL0     C91174   3.328   4.990   4.031 -0.4027 -0.4389  1.2168
  676MOL0     C91175   3.415   4.891   4.067  0.3384  0.2626 -0.7172
  676MOL0     N91176   4.135   4.657   3.901 -0.6619 -0.0951  0.0231
  676MOL0     N91177   4.262   4.624   3.918 -0.0765  0.4239  0.7462
  676MOL0     C91178   5.278   4.072   4.370 -0.0958 -0.5432  0.7886
  676MOL0     C91179   5.403   4.014   4.341 -1.2307 -0.0077 -0.3100
  676MOL0     C91180   5.821   3.922   4.191  0.6954 -1.0467 -0.5597
  676MOL0     C91181   5.900   4.033   4.165 -0.3324  0.2902 -0.5275
  676MOL0     C91182   6.018   4.022   4.091 -0.4429 -0.0821  0.8347
  676MOL0     C91183   6.053   3.900   4.039 -0.8799  0.6115 -1.1842
  676MOL0     O91184   6.169   3.888   3.963  0.0906  0.2453  0.0209
  676MOL0     C91185   6.231   3.763   3.943 -0.3388 -0.1783 -0.3518
  676MOL0     C91186   6.357   3.774   3.864  0.3634 -0.3180 -0.4760
  676MOL0     C91187   6.450   3.648   3.884  0.2008  0.1257 -0.2129
  676MOL0     C91188   6.598   3.686   3.894 -0.1903 -0.6008  1.3301
  676MOL0     C91189   6.690   3.574   3.910 -0.4664  0.6751  0.6286
  676MOL0     C91190   6.767   3.485   3.930  0.3296  0.2070 -0.3010
  676MOL0     C91191   5.971   3.785   4.061 -0.5720 -1.1551  0.4659
  676MOL0     C91192   5.855   3.797   4.134  0.4377  0.2213  0.4670
  676MOL0     H91193   5.578   4.294   4.319 -1.0554  1.9853 -1.4815
  676MOL0     H91194   5.354   4.397   4.399  2.7070  0.7182  0.9943
  676MOL0     H91195   5.022   4.190   4.249  2.2184 -0.3343  0.1608
  676MOL0     H91196   5.013   4.103   4.403 -2.1420 -0.2068  0.7170
  676MOL0     H91197   4.885   4.293   4.506 -0.0218 -1.1051  0.4418
  676MOL0     H91198   4.886   4.368   4.345 -0.3968  0.1169 -0.0281
  676MOL0     H91199   4.776   4.083   4.383  0.1572 -1.1133 -0.3681
  676MOL0     H91200   4.671   4.225   4.427 -0.5176  0.0284 -2.6158
  676MOL0     H91201   4.808   4.193   4.155  0.0160  0.5038 -0.9532
  676MOL0     H91202   4.647   4.126   4.195 -0.1299  0.3522 -1.2063
  676MOL0     H91203   4.716   4.420   4.198  0.0691 -1.0968 -0.9033
  676MOL0     H91204   4.640   4.328   4.078 -3.4298 -0.8743  0.5618
  676MOL0     H91205   4.447   4.265   4.234 -1.8144  1.6767 -4.1718
  676MOL0     H91206   4.520   4.364   4.365  1.0359 -2.0227 -0.0290
  676MOL0     H91207   4.362   4.520   4.245  0.6265  0.2560  1.0329
  676MOL0     H91208   4.514   4.551   4.173  3.1402 -2.1674  3.5631
  676MOL0     H91209   4.334   4.338   4.033 -3.3934  1.8462  0.3565
  676MOL0     H91210   4.449   4.446   3.965  1.9558 -2.3196  1.0305
  676MOL0     H91211   4.112   4.446   4.158  1.2413 -0.0764  0.2279
  676MOL0     H91212   3.864   4.622   3.892  1.0282 -1.6054 -1.1455
  676MOL0     H91213   3.868   4.486   4.013 -0.3118  1.0925  2.7137
  676MOL0     H91214   3.867   4.773   4.085  0.7504  0.1439 -1.4113
  676MOL0     H91215   3.860   4.632   4.189 -1.5815  1.1179  1.0924
  676MOL0     H91216   3.656   4.572   4.015  1.9424  0.7696 -2.4655
  676MOL0     H91217   3.652   4.740   3.984 -1.0323  0.0980  0.5261
  676MOL0     H91218   3.604   4.778   4.236  0.3617 -0.5629  4.6520
  676MOL0     H91219   3.634   4.608   4.257  1.6087  1.0814  0.3211
  676MOL0     H91220   3.217   4.637   4.137  2.0034  0.3702  3.3089
  676MOL0     H91221   2.950   4.836   3.958 -0.6509  0.3350  0.5951
  676MOL0     H91222   2.983   4.694   4.051 -1.8586  0.0990  0.4887
  676MOL0     H91223   2.922   4.843   4.130 -1.1723  2.2743 -0.8866
  676MOL0     H91224   3.243   5.401   3.871 -0.3122  1.3877  0.8110
  676MOL0     H91225   3.137   5.616   3.827 -1.0665  0.6259 -2.6509
  676MOL0     H91226   2.966   5.810   3.897  0.9663  0.5374 -0.4620
  676MOL0     H91227   3.009   5.784   3.727  0.4159  1.0714 -0.1301
  676MOL0     H91228   2.725   5.841   3.809 -0.1989 -2.1142 -3.4278
  676MOL0     H91229   2.851   5.978   3.798 -0.1541  0.5649 -1.8586
  676MOL0     H91230   2.744   5.793   3.580 -0.4409 -0.0165  1.7852
  676MOL0     H91231   2.900   5.865   3.554  1.3058  2.4306  0.1537
  676MOL0     H91232   2.637   6.003   3.619  2.1187 -0.6043  2.3681
  676MOL0     H91233   2.787   6.087   3.598 -1.1464 -0.5451  1.2030
  676MOL0     H91234   2.653   5.917   3.370 -3.0343  3.3729 -1.7402
  676MOL0     H91235   2.815   5.988   3.363  0.1250 -1.0402 -0.0708
  676MOL0     H91236   2.547   6.122   3.429  1.1446 -1.4661  2.4418
  676MOL0     H91237   2.699   6.213   3.425  0.1711  0.6504 -2.9024
  676MOL0     H91238   2.564   6.068   3.180 -0.9887  0.3168  0.7038
  676MOL0     H91239   2.729   6.141   3.181  0.0107 -1.1170 -1.1844
  676MOL0     H91240   2.559   6.279   3.075  2.0389  0.9617 -0.3928
  676MOL0     H91241   2.659   6.361   3.209  1.3738 -1.2445  0.1334
  676MOL0     H91242   2.756   5.443   3.867  0.5434  2.3700  1.3406
  676MOL0     H91243   2.871   5.216   3.915  1.4386 -1.3491 -1.3153
  676MOL0     H91244   3.357   5.091   4.002 -4.3269  0.6889  0.7283
  676MOL0     H91245   3.520   4.920   4.066  1.2055 -2.6152 -0.4734
  676MOL0     H91246   5.190   4.010   4.384 -0.3098 -0.1822  1.0513
  676MOL0     H91247   5.411   3.906   4.338  1.9852  0.1141 -0.1834
  676MOL0     H91248   5.871   4.127   4.211  2.1934  0.8718  0.0287
  676MOL0     H91249   6.079   4.100   4.046 -0.6458 -0.8803 -0.8754
  676MOL0     H91250   6.260   3.730   4.043 -0.3193  0.9846  0.0309
  676MOL0     H91251   6.180   3.676   3.900 -0.0054 -0.8535  0.5952
  676MOL0     H91252   6.405   3.867   3.899 -0.6271 -0.2073  0.6596
  676MOL0     H91253   6.326   3.792   3.761 -3.9211  0.7302  0.8013
  676MOL0     H91254   6.444   3.584   3.796 -0.2275  0.9993 -0.8373
  676MOL0     H91255   6.413   3.594   3.972 -1.5009 -1.9021 -2.0827
  676MOL0     H91256   6.610   3.758   3.976  1.6555  1.3878 -0.5507
  676MOL0     H91257   6.630   3.747   3.809 -1.1880  0.4613  1.6835
  676MOL0     H91258   6.836   3.407   3.955  2.1706  1.6326 -0.7103
  676MOL0     H91259   5.999   3.689   4.020  0.4897 -0.6433 -0.0325
  676MOL0     H91260   5.796   3.708   4.155  0.2326  1.0011  3.7486
  677MOL0     O91261   1.284   0.431   0.125  0.0550 -0.2818 -0.4532
  677MOL0     C91262   1.309   0.515   0.043 -0.1659  0.2643  0.6135
  677MOL0     O91263   1.223   0.596  -0.013  0.1841 -0.4261  0.6149
  677MOL0     C91264   1.088   0.603   0.017  0.5807 -0.1550  0.5159
  677MOL0     C91265   1.034   0.732   0.009  0.6957 -1.1026 -0.7371
  677MOL0     C91266   0.896   0.736   0.026  0.2669 -0.6671  0.2275
  677MOL0     C91267   0.813   0.625   0.043  0.7172 -0.2807 -0.2787
  677MOL0     O91268   0.685   0.651   0.046  0.6769 -0.1127  0.1665
  677MOL0     C91269   0.603   0.562   0.129 -0.0917  0.1064  0.2007
  677MOL0     C91270   0.472   0.634   0.158  0.4489 -0.4581  0.1753
  677MOL0     C91271   0.397   0.549   0.253  0.2587  0.0843 -0.8601
  677MOL0     C91272   0.254   0.608   0.279  0.8352  0.8045 -0.0098
  677MOL0     C91273   0.168   0.535   0.378  0.3727 -0.5395 -0.4142
  677MOL0     C91274   0.020   0.552   0.346  0.7408  0.4598  0.3301
  677MOL0     C91275  -0.075   0.480   0.441 -0.2606  0.5519 -0.2636
  677MOL0     C91276  -0.223   0.512   0.393  0.3716 -0.3698  0.5333
  677MOL0     N91277  -0.327   0.430   0.466  0.0388  0.1493 -0.5193
  677MOL0     C91278  -0.316   0.295   0.484 -0.7329 -0.3904 -0.0922
  677MOL0     C91279  -0.426   0.257   0.547 -0.0277  0.0291 -0.1213
  677MOL0     C91280  -0.441   0.115   0.602 -0.1784 -0.3891  0.7558
  677MOL0     C91281  -0.568   0.040   0.560 -0.4003  0.6315 -0.4689
  677MOL0     C91282  -0.686   0.081   0.650 -0.4609 -0.7846  0.1943
  677MOL0     C91283  -0.816   0.010   0.620  0.0718  0.1291 -0.3398
  677MOL0     O91284  -0.929   0.078   0.687 -0.1516 -0.0875  0.5048
  677MOL0     C91285  -1.045   0.004   0.696 -0.5933 -1.2458  0.4405
  677MOL0     C91286  -1.102  -0.072   0.596 -0.9247 -0.0974  0.3010
  677MOL0     C91287  -1.221  -0.143   0.619  0.2603 -0.0264  0.1940
  677MOL0     C91288  -1.263  -0.244   0.518 -0.1214 -0.3665  0.7497
  677MOL0     C91289  -1.295  -0.131   0.738 -0.8460  0.4453 -1.2814
  677MOL0     C91290  -1.419  -0.207   0.773  0.0401  0.3090  0.2920
  677MOL0     O91291  -1.439  -0.239   0.908  0.0896  0.0822 -0.1194
  677MOL0     C91292  -1.558  -0.298   0.941 -0.0398 -1.0717  0.5390
  677MOL0     C91293  -1.564  -0.433   0.970 -0.0769 -0.6178  0.0043
  677MOL0     C91294  -1.691  -0.489   0.990  0.0011  0.5271 -0.1423
  677MOL0     C91295  -1.809  -0.415   0.985  0.0932 -0.3530  0.3957
  677MOL0     O91296  -1.921  -0.482   1.012 -0.1524  0.3684 -0.0221
  677MOL0     C91297  -2.042  -0.423   0.958 -0.0659  0.2627  0.3015
  677MOL0     C91298  -2.164  -0.518   0.958 -0.0121 -0.3504  0.0269
  677MOL0     C91299  -2.242  -0.515   1.096 -0.3624 -0.2523 -0.1910
  677MOL0     C91300  -2.387  -0.568   1.083  0.5866  0.9315 -0.3870
  677MOL0     C91301  -2.465  -0.587   1.211 -0.2543  0.9021  0.8688
  677MOL0     C91302  -2.603  -0.659   1.189 -0.1572 -0.5520 -0.4874
  677MOL0     C91303  -2.686  -0.656   1.323 -0.1577 -0.3673 -0.1130
  677MOL0     C91304  -2.826  -0.728   1.312 -0.1682 -0.6235 -0.9020
  677MOL0    Cl91305  -2.815  -0.893   1.254 -0.3998  0.0544  0.4381
  677MOL0     C91306  -1.795  -0.279   0.953 -0.4927  0.0525 -0.6278
  677MOL0     C91307  -1.675  -0.219   0.936  0.2060 -0.1374 -0.8069
  677MOL0     O91308  -1.509  -0.222   0.691 -0.3728 -0.1381 -0.1359
  677MOL0     C91309  -1.247  -0.032   0.825 -0.1342 -0.4751  0.1982
  677MOL0     C91310  -1.122   0.033   0.798 -0.3290 -0.6641 -0.2553
  677MOL0     N91311  -0.508   0.373   0.563  0.0523 -0.3735 -0.6324
  677MOL0     N91312  -0.451   0.477   0.507  0.3770  0.2966  0.0076
  677MOL0     C91313   0.871   0.494   0.043  0.0210  0.3716  0.0235
  677MOL0     C91314   1.009   0.491   0.031 -0.5162  0.5391 -0.4227
  677MOL0     C91315   1.444   0.531  -0.015  0.0831 -0.2452 -0.1187
  677MOL0     C91316   1.539   0.427  -0.005  0.8302 -0.0508 -0.0183
  677MOL0     C91317   1.666   0.432  -0.075  0.4205 -0.3490 -0.6024
  677MOL0     C91318   1.696   0.531  -0.165 -0.6656 -0.6642  0.4411
  677MOL0     O91319   1.827   0.529  -0.222  0.5736  0.3487 -0.8079
  677MOL0     C91320   1.888   0.647  -0.267 -0.3810 -0.6978  0.4923
  677MOL0     C91321   1.941   0.732  -0.143 -0.3656 -0.5928 -0.5651
  677MOL0     C91322   2.029   0.659  -0.042 -0.1092 -0.3611 -0.6660
  677MOL0     C91323   2.175   0.640  -0.093  0.3302  0.3003  1.1906
  677MOL0     C91324   2.185   0.525  -0.188 -0.5686  0.6288 -0.7888
  677MOL0     C91325   2.207   0.436  -0.268 -0.1558 -0.2788 -0.4881
  677MOL0     C91326   1.596   0.629  -0.184  0.6256 -0.5165 -0.2182
  677MOL0     C91327   1.476   0.626  -0.104  0.2224 -0.4872  0.2700
  677MOL0     H91328   1.101   0.814  -0.015  2.7154 -3.1763 -2.5906
  677MOL0     H91329   0.855   0.835   0.042  0.9910 -0.3082 -0.1263
  677MOL0     H91330   0.586   0.468   0.076  3.6996  0.1328 -1.3712
  677MOL0     H91331   0.651   0.543   0.225 -0.8614 -2.5357  0.1254
  677MOL0     H91332   0.502   0.731   0.199 -1.4145  0.4885 -0.5813
  677MOL0     H91333   0.425   0.656   0.062 -0.7896  4.2601  1.5769
  677MOL0     H91334   0.396   0.452   0.201  2.9716  0.9440 -2.7212
  677MOL0     H91335   0.451   0.527   0.345 -1.2010 -1.2364 -0.2636
  677MOL0     H91336   0.257   0.716   0.292 -0.2988  0.7447  0.9389
  677MOL0     H91337   0.211   0.586   0.181  2.4691 -0.8225 -0.4198
  677MOL0     H91338   0.208   0.434   0.390 -0.5639 -1.1510 -2.0659
  677MOL0     H91339   0.180   0.582   0.476 -0.1491  0.8322 -0.9817
  677MOL0     H91340  -0.006   0.658   0.337  1.4025  0.4990 -1.5081
  677MOL0     H91341   0.012   0.517   0.243 -1.7622 -1.1617  0.9887
  677MOL0     H91342  -0.055   0.373   0.433 -0.7041  0.2324  2.3031
  677MOL0     H91343  -0.058   0.517   0.542 -1.2394  1.0827 -0.2823
  677MOL0     H91344  -0.215   0.488   0.287  5.4752 -4.5492  1.4037
  677MOL0     H91345  -0.242   0.618   0.410 -0.1735 -0.7365  2.4998
  677MOL0     H91346  -0.232   0.229   0.466  0.4640  1.1795 -0.4440
  677MOL0     H91347  -0.356   0.057   0.563 -0.2929  2.2518 -4.2297
  677MOL0     H91348  -0.432   0.116   0.711 -0.9685  1.3193  0.8305
  677MOL0     H91349  -0.546  -0.063   0.588 -0.5958  0.7084 -0.0284
  677MOL0     H91350  -0.590   0.056   0.454  2.0706 -1.0656 -1.3133
  677MOL0     H91351  -0.697   0.189   0.637  0.4906 -0.5936  0.8652
  677MOL0     H91352  -0.648   0.064   0.751  0.4151  3.1721  0.7193
  677MOL0     H91353  -0.811  -0.093   0.657 -2.9667  0.0535  0.1163
  677MOL0     H91354  -0.838   0.004   0.513 -1.1890 -2.1314 -0.0294
  677MOL0     H91355  -1.039  -0.077   0.508  0.3810 -0.6976  1.2313
  677MOL0     H91356  -1.181  -0.262   0.448 -0.2653  1.1237  0.1803
  677MOL0     H91357  -1.297  -0.336   0.567 -2.7101 -0.1821 -0.5067
  677MOL0     H91358  -1.344  -0.206   0.454  0.2958 -1.0865 -0.2414
  677MOL0     H91359  -1.477  -0.497   0.972 -0.7098 -1.5820 -1.5580
  677MOL0     H91360  -1.697  -0.596   1.009 -0.4459  0.4123 -0.8975
  677MOL0     H91361  -2.063  -0.332   1.014 -1.2844  0.6054 -0.6788
  677MOL0     H91362  -2.029  -0.395   0.853 -2.4430  0.0240 -0.1088
  677MOL0     H91363  -2.235  -0.481   0.883 -0.6190 -1.1641  0.1834
  677MOL0     H91364  -2.133  -0.620   0.935 -2.3409 -0.9232 -0.8491
  677MOL0     H91365  -2.245  -0.412   1.132  0.1573  0.9000 -3.1815
  677MOL0     H91366  -2.181  -0.571   1.167 -0.7439  0.4341  0.7012
  677MOL0     H91367  -2.449  -0.512   1.013 -1.6054 -1.6313 -0.6449
  677MOL0     H91368  -2.389  -0.666   1.035 -0.7378  1.3069 -1.1390
  677MOL0     H91369  -2.485  -0.499   1.273 -2.8020  1.3357 -0.4446
  677MOL0     H91370  -2.401  -0.653   1.270  2.6119  2.4512 -0.3248
  677MOL0     H91371  -2.664  -0.604   1.116 -2.3139  1.4753  2.5829
  677MOL0     H91372  -2.594  -0.763   1.156 -1.0825 -0.7853 -0.0391
  677MOL0     H91373  -2.700  -0.554   1.358  1.1578 -0.3241  0.3120
  677MOL0     H91374  -2.630  -0.713   1.398 -2.7090 -1.6507  0.9652
  677MOL0     H91375  -2.888  -0.678   1.237  1.4114  1.7641 -0.7493
  677MOL0     H91376  -2.870  -0.732   1.412 -0.6113 -1.0810 -1.1102
  677MOL0     H91377  -1.882  -0.215   0.963 -0.3030  0.4338 -1.3697
  677MOL0     H91378  -1.675  -0.113   0.916  2.0193 -0.1121 -0.8308
  677MOL0     H91379  -1.308  -0.003   0.911  0.3626  0.6630  0.1826
  677MOL0     H91380  -1.091   0.114   0.863  0.0889 -1.0512  0.0353
  677MOL0     H91381   0.809   0.406   0.050 -1.2012  1.0946 -1.1641
  677MOL0     H91382   1.055   0.392   0.033  1.8799  1.4833 -3.1707
  677MOL0     H91383   1.503   0.334   0.038 -1.4796  0.6240 -0.3435
  677MOL0     H91384   1.743   0.355  -0.071  2.0090  1.2067 -0.1278
  677MOL0     H91385   1.969   0.625  -0.337 -0.8799  1.2185 -0.7936
  677MOL0     H91386   1.815   0.708  -0.321  0.0531  0.6113  1.3137
  677MOL0     H91387   1.859   0.770  -0.081 -1.9048 -3.2488 -0.8439
  677MOL0     H91388   1.994   0.818  -0.185 -1.5682 -0.7099 -2.4349
  677MOL0     H91389   1.978   0.564  -0.026 -1.3310  0.0124 -2.0614
  677MOL0     H91390   2.033   0.714   0.052  1.9826 -1.5965  0.0061
  677MOL0     H91391   2.237   0.604  -0.010  1.0003 -1.4482  0.0094
  677MOL0     H91392   2.219   0.728  -0.140  0.4384 -0.6351 -0.5469
  677MOL0     H91393   2.204   0.358  -0.341 -1.1268 -0.4327 -0.3000
  677MOL0     H91394   1.600   0.714  -0.250 -0.9062  0.0933  0.4288
  677MOL0     H91395   1.413   0.715  -0.112 -1.9955 -2.1661 -3.5420
  678MOL0     O91396   2.638   3.891   9.148 -0.2756  0.4489  0.4208
  678MOL0     C91397   2.656   3.784   9.090 -0.3805  0.3899 -0.7252
  678MOL0     O91398   2.569   3.714   9.014 -0.3077  0.4163  0.5812
  678MOL0     C91399   2.441   3.766   8.983  0.4291  0.3324 -0.0912
  678MOL0     C91400   2.349   3.818   9.077  0.6021  0.7600 -0.3858
  678MOL0     C91401   2.215   3.856   9.044  0.3664  0.2518  0.7245
  678MOL0     C91402   2.170   3.837   8.909 -0.2453 -0.2330 -1.1781
  678MOL0     O91403   2.045   3.864   8.865 -0.2019  0.0774  0.1123
  678MOL0     C91404   1.947   3.918   8.955  0.7661  0.0582  0.7472
  678MOL0     C91405   1.821   3.941   8.876 -0.0261  1.6697 -0.1790
  678MOL0     C91406   1.714   3.997   8.968 -0.4427 -0.1947  0.3011
  678MOL0     C91407   1.573   3.972   8.914  0.3917 -0.3333  0.2943
  678MOL0     C91408   1.463   4.037   9.007  0.7349  0.0272  0.1939
  678MOL0     C91409   1.346   4.089   8.924 -0.3399 -0.3349  0.4033
  678MOL0     C91410   1.276   3.971   8.856 -0.0391  0.3259 -0.1875
  678MOL0     C91411   1.179   4.011   8.747  1.0755 -0.3535 -0.2560
  678MOL0     N91412   1.065   4.082   8.808  0.0199  0.6040  0.0950
  678MOL0     C91413   1.033   4.217   8.814 -0.2718  0.3175  0.5736
  678MOL0     C91414   0.908   4.217   8.854 -0.1380 -0.7806  0.0814
  678MOL0     C91415   0.823   4.347   8.870  0.5927 -0.2406  0.0340
  678MOL0     C91416   0.744   4.379   8.742  1.0245 -0.7099  0.9518
  678MOL0     C91417   0.649   4.503   8.740  0.9523  0.5996 -0.1800
  678MOL0     C91418   0.525   4.472   8.828 -0.0274  0.7744 -1.1384
  678MOL0     O91419   0.430   4.577   8.805 -0.0053 -0.4799 -0.3136
  678MOL0     C91420   0.304   4.563   8.862 -0.0685 -0.1924 -0.2658
  678MOL0     C91421   0.253   4.448   8.911  0.3920 -0.3975  1.0221
  678MOL0     C91422   0.114   4.443   8.946  0.1463  0.3131 -0.1415
  678MOL0     C91423   0.069   4.311   8.992  0.1995  0.1344 -1.0672
  678MOL0     C91424   0.033   4.557   8.920  0.4756 -0.9224 -0.5973
  678MOL0     C91425  -0.116   4.546   8.903 -0.4152 -0.0693  0.2958
  678MOL0     O91426  -0.182   4.668   8.887  0.2325  0.2228  0.2918
  678MOL0     C91427  -0.316   4.659   8.873 -0.3746  0.3882  0.3451
  678MOL0     C91428  -0.404   4.702   8.966 -0.2768  0.2436 -0.1364
  678MOL0     C91429  -0.543   4.698   8.944  0.5054 -0.4920 -0.3138
  678MOL0     C91430  -0.595   4.659   8.816 -0.5769  0.3420  0.4035
  678MOL0     O91431  -0.725   4.667   8.796 -0.0692 -1.0938 -0.1100
  678MOL0     C91432  -0.786   4.605   8.679  0.1116 -0.0582 -0.0947
  678MOL0     C91433  -0.938   4.609   8.694 -0.0204 -0.3462  0.9221
  678MOL0     C91434  -0.985   4.563   8.833  1.2089 -0.2157 -0.6083
  678MOL0     C91435  -1.137   4.583   8.854 -0.1403 -0.6161  0.6735
  678MOL0     C91436  -1.228   4.508   8.765 -0.3845  0.1126 -0.5472
  678MOL0     C91437  -1.378   4.555   8.784  0.0153 -0.1135  0.0536
  678MOL0     C91438  -1.465   4.445   8.721 -0.3660 -0.0844  0.2586
  678MOL0     C91439  -1.619   4.476   8.748 -0.7610 -0.4768 -0.3254
  678MOL0    Cl91440  -1.652   4.624   8.636  0.0758  0.1020 -0.0978
  678MOL0     C91441  -0.502   4.616   8.715  0.1177 -0.7437  0.0701
  678MOL0     C91442  -0.364   4.606   8.749 -0.8385  0.0830 -0.2625
  678MOL0     O91443  -0.173   4.441   8.892 -0.3099 -0.5315 -0.0934
  678MOL0     C91444   0.097   4.676   8.887 -0.9922 -0.3124  1.0208
  678MOL0     C91445   0.231   4.681   8.865  0.0961  0.8123  0.9599
  678MOL0     N91446   0.867   4.091   8.893  0.1223  0.3037 -0.4570
  678MOL0     N91447   0.959   4.005   8.863 -0.0527 -0.4721  0.0652
  678MOL0     C91448   2.259   3.790   8.814 -1.1094  0.3907  0.0575
  678MOL0     C91449   2.395   3.758   8.851  0.8163  0.3303  0.6395
  678MOL0     C91450   2.791   3.731   9.083 -0.0890  1.3992 -0.3575
  678MOL0     C91451   2.897   3.817   9.121  0.5513  0.0505  0.3699
  678MOL0     C91452   3.032   3.782   9.099 -0.1730 -0.2518 -0.7490
  678MOL0     C91453   3.064   3.647   9.061  0.3228 -0.0636 -0.2627
  678MOL0     O91454   3.188   3.598   9.029  0.1820  0.6688  0.0051
  678MOL0     C91455   3.303   3.688   9.028 -0.1095  0.0905  0.2771
  678MOL0     C91456   3.422   3.592   9.025 -0.0818  0.5939 -0.1842
  678MOL0     C91457   3.461   3.556   8.877  0.2266  0.0922 -0.4914
  678MOL0     C91458   3.365   3.429   8.845  0.1212  0.0654 -0.2340
  678MOL0     C91459   3.438   3.309   8.887 -0.5984  0.6632  0.4366
  678MOL0     C91460   3.495   3.210   8.927 -0.4990 -0.0650  0.2158
  678MOL0     C91461   2.964   3.566   9.028  0.6931 -0.6833 -0.4279
  678MOL0     C91462   2.825   3.603   9.033  0.3408 -0.2933 -0.8181
  678MOL0     H91463   2.380   3.820   9.181  0.0136  1.9184 -0.2171
  678MOL0     H91464   2.150   3.898   9.119  0.4821 -0.6627  1.3441
  678MOL0     H91465   1.922   3.840   9.027  3.3831 -1.2247  0.3933
  678MOL0     H91466   1.979   4.008   9.007  0.9110  0.3691  0.1288
  678MOL0     H91467   1.837   4.012   8.794 -0.9838  2.7037  0.5027
  678MOL0     H91468   1.789   3.848   8.827 -0.8235  1.5412  0.5661
  678MOL0     H91469   1.723   3.959   9.070 -1.9567  0.6163  0.7813
  678MOL0     H91470   1.736   4.102   8.989 -1.7618  0.3012 -0.6544
  678MOL0     H91471   1.555   4.015   8.815 -1.8682 -2.3163 -0.2414
  678MOL0     H91472   1.556   3.864   8.904 -1.0502 -0.2311  1.3673
  678MOL0     H91473   1.431   3.963   9.080  0.6851 -1.0995 -0.9339
  678MOL0     H91474   1.511   4.123   9.055 -0.0793  1.6068 -1.6594
  678MOL0     H91475   1.275   4.150   8.980 -0.7237  0.6658 -1.1025
  678MOL0     H91476   1.378   4.152   8.841 -0.4586 -2.2558 -1.1653
  678MOL0     H91477   1.348   3.906   8.806 -0.1561  0.4496 -0.5184
  678MOL0     H91478   1.216   3.925   8.936 -3.9502  3.2319 -1.1624
  678MOL0     H91479   1.139   3.925   8.694  1.5958 -0.2483 -0.8349
  678MOL0     H91480   1.215   4.074   8.664 -3.2200 -0.8507 -2.8097
  678MOL0     H91481   1.086   4.302   8.772  1.1776 -0.6360  0.4086
  678MOL0     H91482   0.755   4.326   8.954  0.0865 -2.5689 -0.8655
  678MOL0     H91483   0.879   4.437   8.894 -1.4224  0.6777  1.5904
  678MOL0     H91484   0.686   4.288   8.723 -0.3374  0.1484  0.8698
  678MOL0     H91485   0.808   4.384   8.653  2.6668 -1.4001  2.0519
  678MOL0     H91486   0.617   4.519   8.637 -1.2550 -3.3707 -0.2975
  678MOL0     H91487   0.695   4.593   8.782 -1.8361  1.6711  0.8559
  678MOL0     H91488   0.546   4.435   8.929  0.5095  2.6184 -0.5491
  678MOL0     H91489   0.480   4.383   8.781  3.2800 -1.3154 -0.6662
  678MOL0     H91490   0.307   4.355   8.898 -1.2750 -1.0996 -1.8737
  678MOL0     H91491  -0.029   4.321   9.039 -0.1828 -0.9360 -1.6034
  678MOL0     H91492   0.069   4.229   8.920 -0.4098 -1.2724  0.4705
  678MOL0     H91493   0.141   4.282   9.069  0.3397  0.0824 -1.2200
  678MOL0     H91494  -0.364   4.726   9.064 -2.1750  1.2780  0.4566
  678MOL0     H91495  -0.606   4.734   9.025 -0.8763 -0.6713 -1.2823
  678MOL0     H91496  -0.752   4.660   8.590 -2.2013 -0.4873 -1.2991
  678MOL0     H91497  -0.760   4.500   8.667 -0.1198 -0.3365  1.5666
  678MOL0     H91498  -0.969   4.714   8.683  3.6229  0.6484 -1.7203
  678MOL0     H91499  -0.984   4.550   8.614 -1.3304  1.8325 -0.0262
  678MOL0     H91500  -0.939   4.620   8.915 -0.8870 -0.8812  1.1065
  678MOL0     H91501  -0.952   4.459   8.841  1.1377 -0.1844  0.1741
  678MOL0     H91502  -1.149   4.542   8.955  3.5873 -4.8950 -0.2951
  678MOL0     H91503  -1.158   4.691   8.850  3.3201  0.1564 -2.1945
  678MOL0     H91504  -1.203   4.403   8.786 -0.6218  0.2038  0.2431
  678MOL0     H91505  -1.205   4.524   8.660 -3.6991 -1.0158 -1.5803
  678MOL0     H91506  -1.393   4.574   8.890  0.4117 -0.0162  0.0955
  678MOL0     H91507  -1.391   4.651   8.732  1.5895  1.0612  1.7077
  678MOL0     H91508  -1.445   4.350   8.770  1.7077  0.7571  1.1785
  678MOL0     H91509  -1.453   4.435   8.613  0.5285  1.8804  0.1252
  678MOL0     H91510  -1.656   4.484   8.850  1.1688 -1.4931  0.5267
  678MOL0     H91511  -1.675   4.393   8.705  1.1194 -1.1498 -1.6265
  678MOL0     H91512  -0.532   4.575   8.620  2.6081 -1.6202 -0.4157
  678MOL0     H91513  -0.294   4.554   8.684 -1.2313 -0.1646 -0.4894
  678MOL0     H91514   0.039   4.767   8.879  1.2947  1.4389  2.8290
  678MOL0     H91515   0.278   4.773   8.831  1.4091  0.5385  1.9087
  678MOL0     H91516   2.223   3.770   8.714 -0.6575 -2.1807  0.3383
  678MOL0     H91517   2.459   3.714   8.775  1.4427  1.4439  0.4978
  678MOL0     H91518   2.885   3.908   9.179  1.6009  0.3562  0.1286
  678MOL0     H91519   3.111   3.847   9.134 -1.1949 -0.5088  2.3580
  678MOL0     H91520   3.282   3.743   8.936 -4.7446 -2.5429 -0.5288
  678MOL0     H91521   3.302   3.755   9.114 -1.8930 -2.2757  2.2235
  678MOL0     H91522   3.409   3.505   9.090 -0.6267  1.4707  0.8988
  678MOL0     H91523   3.500   3.651   9.073 -0.0926 -0.8571  1.7377
  678MOL0     H91524   3.567   3.532   8.883  0.7366  2.0232 -1.2168
  678MOL0     H91525   3.444   3.637   8.806  0.1127 -0.4991 -1.1568
  678MOL0     H91526   3.350   3.411   8.738  0.2752  2.4816 -0.7249
  678MOL0     H91527   3.260   3.428   8.875 -0.3984  0.4249 -1.9261
  678MOL0     H91528   3.553   3.129   8.967  1.8400  1.3377 -0.1066
  678MOL0     H91529   2.980   3.471   8.978 -2.8117 -1.3835 -0.5446
  678MOL0     H91530   2.743   3.535   9.011 -0.0663 -0.6862  1.6241
  679MOL0     O91531   3.481   7.791  11.210  0.5860  1.0746  0.1894
  679MOL0     C91532   3.560   7.723  11.278 -0.5947 -0.2964 -0.0304
  679MOL0     O91533   3.523   7.644  11.382  1.1908 -0.2638  0.0250
  679MOL0     C91534   3.389   7.634  11.439 -1.0531 -0.1238 -0.3499
  679MOL0     C91535   3.387   7.588  11.574  0.1254 -0.0429  0.3236
  679MOL0     C91536   3.263   7.589  11.641  0.0316  0.0743  0.2164
  679MOL0     C91537   3.145   7.629  11.570  0.0181  1.3268 -0.3894
  679MOL0     O91538   3.021   7.639  11.628  0.0573  0.2334 -0.5545
  679MOL0     C91539   3.010   7.562  11.751 -0.0600  0.4011  0.3024
  679MOL0     C91540   2.874   7.595  11.816 -0.7934  0.0562 -0.2468
  679MOL0     C91541   2.753   7.600  11.729  0.6748 -0.0850 -0.6574
  679MOL0     C91542   2.622   7.585  11.810 -0.6789 -0.4834 -0.3334
  679MOL0     C91543   2.509   7.527  11.726 -1.0366 -0.2182 -0.7659
  679MOL0     C91544   2.380   7.509  11.804 -0.7107  0.1240  0.2809
  679MOL0     C91545   2.280   7.440  11.713  0.1366 -0.7306  0.4006
  679MOL0     C91546   2.132   7.466  11.764 -0.2885 -0.9114 -0.7783
  679MOL0     N91547   2.094   7.365  11.865  0.4897  1.0026  0.3785
  679MOL0     C91548   1.963   7.349  11.905  0.3336 -0.6163  0.2158
  679MOL0     C91549   1.973   7.257  11.996  0.5748  0.7421 -0.4209
  679MOL0     C91550   1.870   7.182  12.070  0.6883  0.5992  0.2698
  679MOL0     C91551   1.763   7.268  12.138  0.3983  0.4498  0.8319
  679MOL0     C91552   1.697   7.181  12.241  0.0484 -0.5197 -0.5554
  679MOL0     C91553   1.576   7.240  12.294  0.7106 -0.4363  0.0357
  679MOL0     O91554   1.485   7.291  12.189 -0.2071  0.5735  0.5286
  679MOL0     C91555   1.348   7.271  12.198 -0.3679  0.5604  0.9414
  679MOL0     C91556   1.273   7.283  12.305  0.8120  1.1612 -0.2805
  679MOL0     C91557   1.135   7.293  12.307  1.0306 -0.5504  0.2347
  679MOL0     C91558   1.066   7.344  12.437  0.9409 -0.3053  0.3176
  679MOL0     C91559   1.066   7.275  12.183  0.6452  0.8754  0.6809
  679MOL0     C91560   0.923   7.264  12.176 -0.1869  0.3892  0.7043
  679MOL0     O91561   0.848   7.235  12.282  0.1584  0.1238 -0.7241
  679MOL0     C91562   0.713   7.249  12.286 -0.0943 -0.7245 -0.0064
  679MOL0     C91563   0.623   7.175  12.198 -0.5113  0.0141  0.4620
  679MOL0     C91564   0.486   7.175  12.216  0.0576 -1.0426  0.5621
  679MOL0     C91565   0.429   7.259  12.314 -0.0527 -0.4999  0.0331
  679MOL0     O91566   0.293   7.251  12.328  0.6783  0.1297 -0.1541
  679MOL0     C91567   0.226   7.371  12.297  1.0600 -0.8274 -0.0139
  679MOL0     C91568   0.090   7.385  12.369 -0.5234 -0.4828  0.2271
  679MOL0     C91569  -0.006   7.266  12.353  0.6501 -0.2920 -0.7967
  679MOL0     C91570  -0.136   7.294  12.434  1.2033 -0.1258 -0.7961
  679MOL0     C91571  -0.238   7.207  12.369 -0.1724  0.5272 -0.6113
  679MOL0     C91572  -0.353   7.163  12.462  0.1654  0.1217  0.9042
  679MOL0     C91573  -0.453   7.280  12.475  0.0611  0.8550  0.2086
  679MOL0     C91574  -0.594   7.237  12.421  0.2267 -0.3630  0.0290
  679MOL0    Cl91575  -0.582   7.176  12.251  0.3614  0.0243 -0.0521
  679MOL0     C91576   0.513   7.338  12.395  0.2872  1.4662 -0.3574
  679MOL0     C91577   0.653   7.331  12.380 -0.5194  1.1692  0.1260
  679MOL0     O91578   0.882   7.316  12.073 -0.7666  0.0920  0.0009
  679MOL0     C91579   1.148   7.256  12.066 -0.0714  0.0472 -0.0215
  679MOL0     C91580   1.284   7.258  12.077 -0.2017 -0.5270  1.0548
  679MOL0     N91581   2.103   7.228  12.032  0.4693 -0.7967 -0.1202
  679MOL0     N91582   2.174   7.300  11.954  0.1246  0.2496  0.6701
  679MOL0     C91583   3.153   7.665  11.436  0.3234  0.5424 -0.4002
  679MOL0     C91584   3.272   7.657  11.373 -0.9834  0.7294  0.6625
  679MOL0     C91585   3.697   7.710  11.236 -0.1064  0.3435  0.4374
  679MOL0     C91586   3.755   7.800  11.142  0.0576  0.1756 -1.1481
  679MOL0     C91587   3.884   7.786  11.095  0.1083 -1.1694 -0.5678
  679MOL0     C91588   3.967   7.683  11.149 -0.1450 -0.4496  0.0533
  679MOL0     O91589   4.097   7.657  11.113  0.1842  0.5737 -0.6762
  679MOL0     C91590   4.148   7.759  11.025 -0.4278 -0.1396  0.8264
  679MOL0     C91591   4.299   7.732  11.006  0.2413  0.1842 -1.0168
  679MOL0     C91592   4.376   7.745  11.140  0.4271  0.0105  0.1190
  679MOL0     C91593   4.531   7.734  11.121  0.2874 -0.5494  0.7771
  679MOL0     C91594   4.600   7.732  11.251  0.9302 -0.0841  0.4297
  679MOL0     C91595   4.667   7.721  11.353 -0.4380 -0.6695  0.5530
  679MOL0     C91596   3.915   7.595  11.244 -0.1039  0.4320  0.4688
  679MOL0     C91597   3.784   7.610  11.284  0.1923  0.0571 -0.0979
  679MOL0     H91598   3.480   7.550  11.616 -0.1520  1.0946  2.0635
  679MOL0     H91599   3.263   7.567  11.747 -0.0374  1.8457  0.6139
  679MOL0     H91600   3.027   7.454  11.743  2.7288  0.8317 -0.8454
  679MOL0     H91601   3.091   7.588  11.819 -0.7511  3.5715  0.0587
  679MOL0     H91602   2.863   7.524  11.899  0.4031 -2.0592 -1.8122
  679MOL0     H91603   2.880   7.690  11.870 -0.9676 -0.2226  0.2777
  679MOL0     H91604   2.759   7.693  11.672  3.7113  0.1569 -0.1336
  679MOL0     H91605   2.769   7.526  11.651  1.3565  1.3142 -1.9067
  679MOL0     H91606   2.636   7.513  11.891 -2.7564  0.4644  0.9312
  679MOL0     H91607   2.590   7.679  11.855 -1.8262 -0.0031 -2.0417
  679MOL0     H91608   2.500   7.590  11.637  3.4221 -1.8506 -2.6693
  679MOL0     H91609   2.541   7.429  11.689  3.0113  0.8072 -0.4387
  679MOL0     H91610   2.406   7.445  11.889  0.9932  0.5161  0.0870
  679MOL0     H91611   2.331   7.603  11.831 -1.9821  0.2402 -2.2264
  679MOL0     H91612   2.284   7.477  11.610 -1.0944  0.7838  0.8631
  679MOL0     H91613   2.312   7.337  11.695  3.6900 -0.1944  2.6492
  679MOL0     H91614   2.078   7.448  11.670  2.0018 -0.4113 -2.2749
  679MOL0     H91615   2.118   7.569  11.796  2.0158 -0.4840 -1.0106
  679MOL0     H91616   1.876   7.398  11.863  1.4657 -0.9723 -2.7949
  679MOL0     H91617   1.822   7.112  12.001 -2.1684  2.9211 -0.2565
  679MOL0     H91618   1.929   7.125  12.143  0.6050  0.0044 -0.1227
  679MOL0     H91619   1.688   7.294  12.063 -0.4044 -0.0365  1.4461
  679MOL0     H91620   1.800   7.364  12.177  1.4382  1.5292 -2.4333
  679MOL0     H91621   1.759   7.172  12.331 -0.7109 -1.5656 -0.1157
  679MOL0     H91622   1.678   7.080  12.205 -0.2557 -0.6425 -0.0676
  679MOL0     H91623   1.598   7.332  12.349 -0.8943 -0.5536  0.9241
  679MOL0     H91624   1.530   7.172  12.366 -0.2055 -0.0417 -0.1664
  679MOL0     H91625   1.318   7.308  12.400  1.5443  2.0703 -0.8490
  679MOL0     H91626   0.989   7.420  12.419  1.4414  0.3188  0.7902
  679MOL0     H91627   1.007   7.267  12.488 -1.3373  0.4715 -0.9809
  679MOL0     H91628   1.145   7.374  12.507  1.8187 -0.9367 -0.3901
  679MOL0     H91629   0.666   7.114  12.120 -0.8909  0.7897 -0.3697
  679MOL0     H91630   0.425   7.116  12.148 -2.1066  0.7967  0.7769
  679MOL0     H91631   0.278   7.467  12.306 -1.5717  1.1387 -3.4059
  679MOL0     H91632   0.195   7.364  12.193  0.9451  1.4274 -0.1691
  679MOL0     H91633   0.108   7.399  12.476  2.6268 -1.9496  0.0134
  679MOL0     H91634   0.033   7.473  12.339 -0.4313  0.3964  2.4504
  679MOL0     H91635   0.045   7.177  12.392  0.4633 -0.3571 -0.7005
  679MOL0     H91636  -0.026   7.256  12.246  0.9953 -2.6467 -0.6940
  679MOL0     H91637  -0.125   7.284  12.542 -1.8148 -0.6288 -0.4550
  679MOL0     H91638  -0.163   7.400  12.425  0.0908 -0.3532 -0.1721
  679MOL0     H91639  -0.193   7.110  12.344 -2.9220 -0.2081 -3.2592
  679MOL0     H91640  -0.275   7.249  12.275  0.6757  0.7708 -0.8419
  679MOL0     H91641  -0.411   7.083  12.413 -1.4992  1.2526  0.9403
  679MOL0     H91642  -0.316   7.125  12.558 -0.7404 -2.3515  0.3609
  679MOL0     H91643  -0.426   7.375  12.427 -1.8830  0.8881 -0.9177
  679MOL0     H91644  -0.477   7.304  12.579 -0.4535 -1.6811  0.7278
  679MOL0     H91645  -0.671   7.314  12.430  0.1693 -0.6168  2.2482
  679MOL0     H91646  -0.636   7.156  12.481 -3.6071  0.5428 -1.1118
  679MOL0     H91647   0.465   7.407  12.464 -1.1761  0.2005 -0.0462
  679MOL0     H91648   0.715   7.394  12.442  0.1423  1.3174 -0.6727
  679MOL0     H91649   1.103   7.241  11.968  0.3706  0.1089 -0.2332
  679MOL0     H91650   1.353   7.256  11.993  0.3618  0.4436  1.4751
  679MOL0     H91651   3.062   7.694  11.384  0.7248  0.3247 -1.2476
  679MOL0     H91652   3.269   7.677  11.266 -0.4513  1.6945  0.8128
  679MOL0     H91653   3.693   7.882  11.107  2.1208  1.8858 -1.0249
  679MOL0     H91654   3.920   7.863  11.028 -0.8884 -1.0952 -1.0402
  679MOL0     H91655   4.110   7.758  10.922  0.3203 -1.5082  0.5441
  679MOL0     H91656   4.141   7.858  11.070  0.8199  0.8921 -1.0644
  679MOL0     H91657   4.341   7.802  10.934 -1.8205  0.0281 -2.4779
  679MOL0     H91658   4.313   7.629  10.970  0.9719  0.7405 -2.3705
  679MOL0     H91659   4.339   7.676  11.216  0.2171 -0.5244 -0.4603
  679MOL0     H91660   4.350   7.845  11.177  0.4754 -0.0983  0.4468
  679MOL0     H91661   4.566   7.817  11.060 -1.4525  0.5467  1.1973
  679MOL0     H91662   4.559   7.640  11.072 -0.8629 -0.2707 -0.4797
  679MOL0     H91663   4.721   7.717  11.446  0.9551 -0.7302 -0.2304
  679MOL0     H91664   3.974   7.515  11.285  1.3359  1.9847  1.5515
  679MOL0     H91665   3.747   7.537  11.355  1.7770 -1.1335 -0.4368
  680MOL0     O91666   3.168   0.449  10.182 -0.0781 -0.0751  0.0144
  680MOL0     C91667   3.180   0.554  10.118  0.2667  0.7920 -0.2459
  680MOL0     O91668   3.073   0.650  10.103 -0.5827 -0.0705 -0.5062
  680MOL0     C91669   2.949   0.628  10.165  0.6925 -0.2056 -0.1322
  680MOL0     C91670   2.923   0.666  10.293  0.1688 -0.0676  0.1541
  680MOL0     C91671   2.796   0.656  10.348  0.1491 -0.3658  0.1468
  680MOL0     C91672   2.687   0.600  10.289  0.4491 -0.7265  0.5163
  680MOL0     O91673   2.561   0.601  10.345 -0.3226  0.2136 -0.6544
  680MOL0     C91674   2.562   0.525  10.472  0.6060 -0.4327 -0.2245
  680MOL0     C91675   2.424   0.535  10.520  0.1706  0.2459 -0.5150
  680MOL0     C91676   2.382   0.673  10.534  0.0212  0.7673 -0.2024
  680MOL0     C91677   2.238   0.688  10.563  0.2812 -0.6696 -0.3072
  680MOL0     C91678   2.178   0.813  10.503 -0.0014  0.0427  0.0772
  680MOL0     C91679   2.151   0.804  10.353 -0.4484  0.5664 -0.4353
  680MOL0     C91680   2.077   0.930  10.305 -0.0600  0.6548 -0.5695
  680MOL0     C91681   2.003   0.924  10.179 -0.3915  0.1756  0.0410
  680MOL0     N91682   1.907   0.811  10.175  1.2668 -0.3934 -0.9932
  680MOL0     C91683   1.769   0.832  10.191  0.3305 -0.4346 -0.2981
  680MOL0     C91684   1.720   0.714  10.165  0.0147 -0.5940  0.4037
  680MOL0     C91685   1.574   0.687  10.142  0.4791 -0.6383 -0.4621
  680MOL0     C91686   1.513   0.589  10.251 -0.0704  0.0731 -0.2294
  680MOL0     C91687   1.372   0.553  10.214 -0.2655  0.3372  0.3213
  680MOL0     C91688   1.317   0.446  10.306 -0.1853  0.6080 -0.7866
  680MOL0     O91689   1.200   0.494  10.380 -0.0144 -0.1154 -0.4509
  680MOL0     C91690   1.081   0.490  10.323 -0.8890  0.9499 -0.2243
  680MOL0     C91691   0.975   0.477  10.414  0.1910 -0.3888  0.3375
  680MOL0     C91692   0.842   0.473  10.373  0.3388 -0.4586  0.5363
  680MOL0     C91693   0.734   0.472  10.484 -0.3685  0.1827  0.8044
  680MOL0     C91694   0.812   0.485  10.235 -1.3100  0.0402  0.9230
  680MOL0     C91695   0.681   0.478  10.178  0.1547 -0.7534  0.0520
  680MOL0     O91696   0.653   0.565  10.078 -0.1563  0.0214 -0.0084
  680MOL0     C91697   0.523   0.608  10.061 -0.1436  0.5071  0.5808
  680MOL0     C91698   0.508   0.750  10.073 -0.9049  0.4701  0.6161
  680MOL0     C91699   0.375   0.805  10.033 -0.2639  0.5563  0.3167
  680MOL0     C91700   0.273   0.717   9.982 -0.3518  0.3090  0.2848
  680MOL0     O91701   0.154   0.764   9.941 -0.0730 -0.0544  0.3056
  680MOL0     C91702   0.094   0.860  10.026 -0.2211 -0.3978 -0.3963
  680MOL0     C91703  -0.059   0.874  10.007 -0.3271  0.2720  0.2230
  680MOL0     C91704  -0.126   0.740   9.978  0.4097 -0.7849 -0.0280
  680MOL0     C91705  -0.274   0.729   9.999  0.2876 -0.3988  0.3743
  680MOL0     C91706  -0.354   0.799   9.884 -0.3827  0.2489  0.0891
  680MOL0     C91707  -0.506   0.785   9.898  1.0604  0.2321 -0.6552
  680MOL0     C91708  -0.553   0.642   9.889  1.4658  0.3055 -0.2701
  680MOL0     C91709  -0.702   0.628   9.885  0.2237 -0.5739 -0.1293
  680MOL0    Cl91710  -0.789   0.706  10.019  0.1632 -0.5276 -0.1122
  680MOL0     C91711   0.300   0.588   9.961 -0.3375 -0.2373  0.2173
  680MOL0     C91712   0.418   0.526  10.007  1.0802 -0.5426  0.2753
  680MOL0     O91713   0.601   0.404  10.231 -0.3156 -0.5721 -0.2695
  680MOL0     C91714   0.923   0.495  10.143 -0.3358 -0.4229  0.5970
  680MOL0     C91715   1.057   0.502  10.186  0.0527 -0.2737  0.1566
  680MOL0     N91716   1.823   0.622  10.139  0.3716 -0.3097 -0.1125
  680MOL0     N91717   1.936   0.685  10.151  0.4175  0.2908  0.2580
  680MOL0     C91718   2.703   0.556  10.153 -0.1451 -0.3554 -0.0359
  680MOL0     C91719   2.834   0.577  10.091 -0.2674 -0.1647  0.1620
  680MOL0     C91720   3.307   0.584  10.054  0.3270 -0.4459 -0.7497
  680MOL0     C91721   3.421   0.525  10.100  0.5975  0.0689 -0.2775
  680MOL0     C91722   3.541   0.570  10.050  0.4906 -0.4907 -0.0537
  680MOL0     C91723   3.549   0.672   9.946  0.2943 -0.0332 -0.6482
  680MOL0     O91724   3.671   0.706   9.894 -0.4161 -0.5056  0.2379
  680MOL0     C91725   3.704   0.802   9.788 -0.0636 -0.0700 -1.4812
  680MOL0     C91726   3.855   0.855   9.800 -0.5679 -0.2575 -0.4609
  680MOL0     C91727   3.866   0.961   9.910 -0.6519 -0.3136 -0.4380
  680MOL0     C91728   4.009   1.021   9.933 -0.1775  0.3391  0.1232
  680MOL0     C91729   4.042   1.122   9.820  0.2899  0.4115 -0.4580
  680MOL0     C91730   4.069   1.197   9.727  0.4055  0.0767  0.2132
  680MOL0     C91731   3.433   0.731   9.908 -0.2859 -0.8122 -0.5212
  680MOL0     C91732   3.310   0.690   9.957  0.2624  1.0428  0.9737
  680MOL0     H91733   3.009   0.708  10.343  1.2970 -1.3266 -0.6479
  680MOL0     H91734   2.786   0.689  10.451 -0.9034 -2.8928  0.9228
  680MOL0     H91735   2.586   0.420  10.458  3.4151  0.2714 -1.3955
  680MOL0     H91736   2.638   0.563  10.540  0.7321 -1.2170  0.0787
  680MOL0     H91737   2.353   0.496  10.447 -0.4396  0.4582 -0.0416
  680MOL0     H91738   2.425   0.482  10.616  0.5940 -0.4037 -0.8689
  680MOL0     H91739   2.427   0.700  10.630  1.1296  5.1434 -1.6885
  680MOL0     H91740   2.420   0.749  10.465 -1.3939  2.3593  0.6947
  680MOL0     H91741   2.178   0.613  10.512 -0.1606  0.5637 -1.7015
  680MOL0     H91742   2.218   0.671  10.669 -1.5521  0.7488 -0.3780
  680MOL0     H91743   2.078   0.815  10.547 -0.3560 -4.9642  0.1074
  680MOL0     H91744   2.241   0.900  10.522 -1.7049  1.3186  0.1343
  680MOL0     H91745   2.246   0.783  10.303 -0.3598  0.1625 -0.1027
  680MOL0     H91746   2.088   0.716  10.339  1.0902 -0.3562 -1.9043
  680MOL0     H91747   2.005   0.959  10.382  0.0925  0.0804 -0.2098
  680MOL0     H91748   2.144   1.016  10.294 -0.1840  1.0257  1.3525
  680MOL0     H91749   2.074   0.909  10.097  0.5311 -2.9767  1.2633
  680MOL0     H91750   1.952   1.019  10.162 -3.3323 -1.4426 -0.7518
  680MOL0     H91751   1.718   0.925  10.212  1.7355  0.3426 -0.2205
  680MOL0     H91752   1.518   0.781  10.144 -1.7592 -1.8295 -2.2662
  680MOL0     H91753   1.557   0.633  10.048 -0.3351 -0.2654 -0.5341
  680MOL0     H91754   1.508   0.636  10.349 -2.3847 -0.7201  0.1108
  680MOL0     H91755   1.578   0.501  10.256  1.2294  0.9877 -0.6954
  680MOL0     H91756   1.368   0.507  10.114 -0.7143 -1.1933  1.0096
  680MOL0     H91757   1.310   0.644  10.212  0.0287  0.5418 -1.3874
  680MOL0     H91758   1.389   0.408  10.379 -0.5047  0.4073 -0.5743
  680MOL0     H91759   1.285   0.363  10.242 -2.5324 -0.5522  1.6832
  680MOL0     H91760   1.007   0.477  10.518 -0.5738 -2.8883  0.6489
  680MOL0     H91761   0.652   0.540  10.461 -0.3192  0.2982  0.9723
  680MOL0     H91762   0.702   0.369  10.500  0.5572  0.1725  2.8677
  680MOL0     H91763   0.786   0.498  10.577  1.1908 -3.4014  1.0986
  680MOL0     H91764   0.589   0.816  10.103 -0.2695  0.4629 -0.9648
  680MOL0     H91765   0.355   0.911  10.034  0.6988  0.7508 -0.0578
  680MOL0     H91766   0.100   0.831  10.131 -0.2571  0.4293 -0.1554
  680MOL0     H91767   0.136   0.957   9.996 -1.2453 -0.0237 -0.6556
  680MOL0     H91768  -0.094   0.903  10.107  0.0808 -0.3596  0.5545
  680MOL0     H91769  -0.085   0.947   9.929 -0.9415 -1.5280 -1.3220
  680MOL0     H91770  -0.072   0.663  10.033  0.5686  2.2984  4.7352
  680MOL0     H91771  -0.106   0.718   9.873  1.2949  1.9621 -0.5367
  680MOL0     H91772  -0.299   0.624  10.014  1.3758 -0.5685  1.1127
  680MOL0     H91773  -0.297   0.783  10.092 -1.1339 -0.8201  0.2874
  680MOL0     H91774  -0.319   0.758   9.789 -1.3925  0.4747 -0.3954
  680MOL0     H91775  -0.330   0.906   9.891 -2.7707  0.7798  1.0797
  680MOL0     H91776  -0.533   0.825   9.997  2.2460  0.7442 -0.5225
  680MOL0     H91777  -0.556   0.851   9.827 -0.2598  0.2828  0.2755
  680MOL0     H91778  -0.516   0.592   9.979 -0.7089  1.3743  1.3267
  680MOL0     H91779  -0.508   0.595   9.801  2.9117 -0.3266  0.7734
  680MOL0     H91780  -0.722   0.521   9.885 -0.8230 -0.3940 -0.5234
  680MOL0     H91781  -0.750   0.675   9.798 -0.5013  0.4020  0.7733
  680MOL0     H91782   0.218   0.535   9.915  0.0389 -0.7905  0.1664
  680MOL0     H91783   0.426   0.417  10.004 -2.8299 -0.9718 -0.5822
  680MOL0     H91784   0.903   0.494  10.037  0.6957  1.3903  0.3541
  680MOL0     H91785   1.137   0.493  10.114  1.2698  3.6553  0.7742
  680MOL0     H91786   2.616   0.523  10.097 -0.5867  0.5623  0.0870
  680MOL0     H91787   2.868   0.540   9.995  1.3851  1.6364 -0.0067
  680MOL0     H91788   3.422   0.440  10.168  2.2497  1.8340  2.0524
  680MOL0     H91789   3.630   0.529  10.096  0.7969  0.9859  0.7494
  680MOL0     H91790   3.688   0.759   9.689  0.8833  0.0033 -1.6744
  680MOL0     H91791   3.627   0.879   9.792 -0.6282 -0.6810  1.0997
  680MOL0     H91792   3.882   0.900   9.705 -0.0875 -0.1251 -0.2637
  680MOL0     H91793   3.928   0.774   9.804 -0.9400 -0.6183 -0.9961
  680MOL0     H91794   3.840   0.906  10.001 -0.8849  1.4181  0.5976
  680MOL0     H91795   3.797   1.042   9.884 -1.1469 -1.5378 -3.3005
  680MOL0     H91796   4.081   0.939   9.932 -2.7727 -2.1201  0.1485
  680MOL0     H91797   4.015   1.077  10.026 -1.2824 -1.1741  1.1511
  680MOL0     H91798   4.115   1.262   9.655 -1.5262  0.6048 -0.6128
  680MOL0     H91799   3.432   0.796   9.821  0.5104 -1.5487 -1.1101
  680MOL0     H91800   3.222   0.740   9.920 -0.6789  1.0954  3.1628
  681MOL0     O91801   1.571   2.115   4.674 -0.1099  0.9909  0.6734
  681MOL0     C91802   1.521   2.005   4.676  0.1869  0.4484  0.4874
  681MOL0     O91803   1.575   1.898   4.733 -0.2941 -0.6325  0.0373
  681MOL0     C91804   1.708   1.899   4.766 -0.5053 -0.0944  0.5089
  681MOL0     C91805   1.755   1.992   4.860 -0.7375 -0.3827 -0.0099
  681MOL0     C91806   1.896   1.986   4.902  0.2599  0.6557  0.5558
  681MOL0     C91807   1.983   1.881   4.861  0.2516 -0.8657 -0.3402
  681MOL0     O91808   2.111   1.873   4.905 -0.0877 -0.3895 -0.5417
  681MOL0     C91809   2.196   1.982   4.860  0.2812 -0.2428  0.1716
  681MOL0     C91810   2.325   1.977   4.937 -0.0159 -0.2637 -0.0996
  681MOL0     C91811   2.411   1.856   4.884  0.3234 -1.3027 -0.5208
  681MOL0     C91812   2.510   1.906   4.779 -0.2585  0.2473  0.4958
  681MOL0     C91813   2.602   1.790   4.732 -0.8854 -0.3095  0.2974
  681MOL0     C91814   2.715   1.728   4.824 -0.8816 -0.1774  0.8553
  681MOL0     C91815   2.768   1.589   4.776 -0.3443  0.1428 -1.1157
  681MOL0     C91816   2.859   1.601   4.660 -0.3704 -0.0891 -0.4108
  681MOL0     N91817   2.988   1.661   4.697 -0.0608  0.4015 -0.0039
  681MOL0     C91818   3.089   1.597   4.767 -0.2128 -0.1213 -0.3058
  681MOL0     C91819   3.196   1.676   4.746  0.7599 -0.0707  0.2959
  681MOL0     C91820   3.340   1.666   4.796 -0.5577  0.4110  0.0987
  681MOL0     C91821   3.377   1.521   4.848  0.1986  0.3174 -0.1606
  681MOL0     C91822   3.364   1.417   4.731 -0.8658  0.4501  0.1794
  681MOL0     C91823   3.371   1.271   4.784  0.5286  0.3199 -0.5254
  681MOL0     O91824   3.251   1.263   4.865  0.1924 -0.2857 -0.4692
  681MOL0     C91825   3.130   1.259   4.808 -0.7454  0.2462  0.2576
  681MOL0     C91826   3.105   1.229   4.671  0.0326  0.1962  0.0484
  681MOL0     C91827   2.981   1.212   4.629  0.3820 -0.1196  0.5941
  681MOL0     C91828   2.968   1.194   4.478 -0.0116 -0.1187 -0.2474
  681MOL0     C91829   2.871   1.216   4.713  0.5380  0.2388 -0.7954
  681MOL0     C91830   2.730   1.205   4.674 -0.0895  0.1220  0.3331
  681MOL0     O91831   2.701   1.158   4.553  0.2689 -0.2241 -0.1282
  681MOL0     C91832   2.569   1.152   4.519 -0.2712  0.4481  0.5975
  681MOL0     C91833   2.475   1.059   4.565  0.3302  0.2148 -0.6747
  681MOL0     C91834   2.344   1.054   4.518 -0.1916  1.0748 -0.2766
  681MOL0     C91835   2.311   1.140   4.413 -0.0202  0.1034 -0.2238
  681MOL0     O91836   2.191   1.141   4.345  0.3111 -0.7443  0.2071
  681MOL0     C91837   2.087   1.053   4.383 -0.2001  0.0791 -0.1122
  681MOL0     C91838   2.009   1.113   4.495 -0.1937  0.0182 -0.0501
  681MOL0     C91839   1.930   1.244   4.456  0.3680  0.2561 -0.3174
  681MOL0     C91840   1.845   1.287   4.575  1.1132 -0.9080 -0.5372
  681MOL0     C91841   1.770   1.425   4.555  0.5547 -1.2744  0.0339
  681MOL0     C91842   1.650   1.412   4.458 -0.4981  0.4408  0.1128
  681MOL0     C91843   1.571   1.536   4.479  0.2343 -0.4119 -0.1549
  681MOL0     C91844   1.448   1.545   4.372  0.0357  0.0473  0.3186
  681MOL0    Cl91845   1.357   1.693   4.397  0.3768  0.0174 -0.3830
  681MOL0     C91846   2.401   1.230   4.362  1.0235  0.4882  0.0493
  681MOL0     C91847   2.526   1.238   4.420  0.6772 -0.6461  0.1612
  681MOL0     O91848   2.645   1.225   4.761  0.2034 -0.0718  0.8078
  681MOL0     C91849   2.888   1.251   4.850 -0.2096 -0.0039  0.5292
  681MOL0     C91850   3.022   1.254   4.895  0.2968  0.2864  0.2442
  681MOL0     N91851   3.154   1.780   4.670  0.6060 -0.1828  0.1080
  681MOL0     N91852   3.032   1.774   4.650 -0.5401  0.4253  0.4365
  681MOL0     C91853   1.927   1.790   4.779 -0.8859 -0.0734  0.4540
  681MOL0     C91854   1.789   1.793   4.735 -0.9058  0.3038  0.1895
  681MOL0     C91855   1.378   2.016   4.655 -0.6271  0.5116  0.3389
  681MOL0     C91856   1.317   2.130   4.593 -0.1837  0.1003  0.2337
  681MOL0     C91857   1.179   2.137   4.560  0.0910  0.2589 -0.6768
  681MOL0     C91858   1.098   2.023   4.580  0.3599 -0.5304 -0.2528
  681MOL0     O91859   0.965   2.043   4.573  0.2681  0.1450  0.3414
  681MOL0     C91860   0.879   1.938   4.530  0.9337 -0.7471 -0.4816
  681MOL0     C91861   0.897   1.884   4.388 -0.2820 -0.1513 -1.1047
  681MOL0     C91862   1.023   1.798   4.371  1.1927  0.0674 -0.3172
  681MOL0     C91863   1.020   1.694   4.258  0.3845  0.1583 -0.1292
  681MOL0     C91864   0.934   1.578   4.289 -0.2807 -0.1660 -0.3955
  681MOL0     C91865   0.862   1.487   4.329  0.7000  0.1389  0.1174
  681MOL0     C91866   1.159   1.908   4.633  0.2621  0.1372  0.3342
  681MOL0     C91867   1.292   1.908   4.680  0.0144  0.1414 -0.4720
  681MOL0     H91868   1.695   2.071   4.905  1.2344 -0.0961  2.3461
  681MOL0     H91869   1.944   2.052   4.973 -1.4094  2.0151  0.4608
  681MOL0     H91870   2.206   1.981   4.752  0.5811 -0.3977  0.2018
  681MOL0     H91871   2.143   2.075   4.885 -1.9666 -0.8406 -1.9649
  681MOL0     H91872   2.395   2.061   4.941 -0.4197  0.1408 -1.1178
  681MOL0     H91873   2.300   1.950   5.040 -1.4112  0.9215 -0.1000
  681MOL0     H91874   2.476   1.820   4.965  1.2912 -1.3230 -1.2875
  681MOL0     H91875   2.346   1.777   4.845 -1.8389  0.0672  0.1122
  681MOL0     H91876   2.449   1.941   4.696 -1.1216  1.5734  1.6479
  681MOL0     H91877   2.585   1.980   4.808  2.3797 -2.4415  1.0830
  681MOL0     H91878   2.536   1.706   4.706 -1.7926  0.5397 -0.2172
  681MOL0     H91879   2.648   1.831   4.642 -1.6054 -0.1836 -0.0206
  681MOL0     H91880   2.795   1.802   4.839 -1.0251 -0.4218  3.2798
  681MOL0     H91881   2.677   1.713   4.926 -0.4657  1.6252  1.3172
  681MOL0     H91882   2.830   1.553   4.858  1.4085  3.3749 -0.8265
  681MOL0     H91883   2.685   1.522   4.752 -0.8709 -0.8677  2.8056
  681MOL0     H91884   2.805   1.668   4.593 -0.5465  1.3919  1.1755
  681MOL0     H91885   2.867   1.507   4.603 -0.8762 -0.7933  0.6387
  681MOL0     H91886   3.084   1.505   4.825  2.3783 -0.7859 -1.0007
  681MOL0     H91887   3.410   1.691   4.716 -0.4838 -0.3929 -0.0963
  681MOL0     H91888   3.362   1.741   4.873 -1.3444 -0.3924  1.1440
  681MOL0     H91889   3.317   1.499   4.937 -1.1888  0.5897 -0.9805
  681MOL0     H91890   3.479   1.512   4.885 -0.0272 -0.8031  0.2285
  681MOL0     H91891   3.445   1.429   4.659 -1.8848 -3.0098 -1.7048
  681MOL0     H91892   3.280   1.424   4.662 -0.7004 -3.1581 -0.5840
  681MOL0     H91893   3.464   1.254   4.838  0.0725 -2.1323 -0.4105
  681MOL0     H91894   3.369   1.189   4.711 -0.2578  1.5844 -2.0091
  681MOL0     H91895   3.174   1.216   4.588 -4.1479 -0.3685 -3.7274
  681MOL0     H91896   2.922   1.096   4.465  0.0592 -0.6514  2.8431
  681MOL0     H91897   2.899   1.272   4.444 -1.0816 -0.3454  1.2971
  681MOL0     H91898   3.066   1.198   4.431  0.1278  3.7165  0.0830
  681MOL0     H91899   2.512   0.995   4.644  1.2025  0.9960 -0.4356
  681MOL0     H91900   2.285   0.980   4.570  0.3266  1.1090  0.3671
  681MOL0     H91901   2.017   1.037   4.301 -2.5712  0.4467  1.7419
  681MOL0     H91902   2.123   0.952   4.403  0.0043  0.1245 -0.2484
  681MOL0     H91903   1.934   1.036   4.515 -1.6832  1.5750  0.6276
  681MOL0     H91904   2.068   1.103   4.586  0.8166  0.8065 -0.6038
  681MOL0     H91905   1.868   1.224   4.368  1.1215  1.3470 -1.1394
  681MOL0     H91906   1.999   1.323   4.424  0.0120  0.0829 -1.5559
  681MOL0     H91907   1.784   1.197   4.579  1.1900 -1.0675 -2.2301
  681MOL0     H91908   1.899   1.301   4.669 -0.0574  2.5544 -0.2052
  681MOL0     H91909   1.827   1.512   4.523 -1.7680  0.1619 -0.4694
  681MOL0     H91910   1.731   1.448   4.654 -0.7184 -0.8953 -0.5342
  681MOL0     H91911   1.695   1.408   4.358  1.1138  0.4474  0.8016
  681MOL0     H91912   1.595   1.320   4.483  1.7358 -1.2512 -0.8344
  681MOL0     H91913   1.640   1.621   4.477  0.3959 -0.4669  1.7367
  681MOL0     H91914   1.535   1.527   4.582 -0.0560  3.0053  0.1571
  681MOL0     H91915   1.382   1.458   4.366 -2.0072  1.5539 -0.0167
  681MOL0     H91916   1.497   1.544   4.274 -0.9433  0.7333 -0.2065
  681MOL0     H91917   2.378   1.306   4.288  0.9915  1.9342  1.4970
  681MOL0     H91918   2.589   1.311   4.370  0.0464  0.6511  1.2082
  681MOL0     H91919   2.808   1.272   4.919  0.7356 -1.1202  2.0300
  681MOL0     H91920   3.043   1.276   4.999  2.2995  1.0063 -0.2810
  681MOL0     H91921   2.002   1.717   4.749 -0.2926  0.1222  1.4452
  681MOL0     H91922   1.750   1.716   4.670  0.4058 -1.2716  1.1883
  681MOL0     H91923   1.381   2.214   4.567  0.1699 -0.5271 -0.9800
  681MOL0     H91924   1.138   2.232   4.528  0.4696  1.6591  2.5994
  681MOL0     H91925   0.885   1.852   4.598  1.7632  0.7097  1.3972
  681MOL0     H91926   0.780   1.985   4.530  1.9698  1.5340 -1.2642
  681MOL0     H91927   0.900   1.967   4.316  2.1921  0.0405 -0.8459
  681MOL0     H91928   0.806   1.827   4.364  0.7298 -2.1621 -0.3593
  681MOL0     H91929   1.040   1.742   4.464  1.1352 -2.4757 -1.7458
  681MOL0     H91930   1.107   1.859   4.336  0.2241  0.1568 -2.6206
  681MOL0     H91931   1.122   1.674   4.221 -0.1607 -2.3516 -0.4534
  681MOL0     H91932   0.962   1.734   4.174  0.6429  2.5898  0.7690
  681MOL0     H91933   0.793   1.413   4.363 -0.5966  0.6790 -1.2453
  681MOL0     H91934   1.094   1.824   4.657 -0.9839  0.3171 -2.1172
  681MOL0     H91935   1.341   1.819   4.720 -2.5957 -2.2294 -2.1199
  682MOL0     O91936   2.134   8.339   0.591  0.4775  0.2020 -0.5443
  682MOL0     C91937   2.190   8.446   0.616  0.3710  0.0030  0.5265
  682MOL0     O91938   2.138   8.569   0.585 -0.1388  0.0051  0.0373
  682MOL0     C91939   2.019   8.571   0.503  0.5322  0.0407 -0.0556
  682MOL0     C91940   1.926   8.673   0.528 -0.5418 -0.0559 -0.2590
  682MOL0     C91941   1.823   8.692   0.437  0.0726  0.2712  0.3688
  682MOL0     C91942   1.801   8.600   0.341  0.5369 -1.3624 -0.7880
  682MOL0     O91943   1.692   8.607   0.255 -0.2358 -0.0926 -0.3057
  682MOL0     C91944   1.566   8.583   0.324 -0.5121 -0.1288  0.4260
  682MOL0     C91945   1.485   8.709   0.306 -0.0787  0.5919  0.6865
  682MOL0     C91946   1.424   8.699   0.171 -0.0764 -0.4962  0.0508
  682MOL0     C91947   1.320   8.817   0.155 -0.1577  0.5013  0.5992
  682MOL0     C91948   1.214   8.788   0.058 -0.1900 -0.1620 -0.2728
  682MOL0     C91949   1.099   8.888   0.064 -0.0267 -0.3305  0.0180
  682MOL0     C91950   0.983   8.828  -0.026 -0.6965  0.2886 -0.3267
  682MOL0     C91951   0.862   8.923  -0.057 -0.5052 -0.2887  1.0589
  682MOL0     N91952   0.789   8.951   0.068  0.5845 -0.4533  0.0026
  682MOL0     C91953   0.777   8.875   0.185  0.0879 -0.4932  0.1016
  682MOL0     C91954   0.715   8.960   0.273  0.2050 -0.4374  0.3218
  682MOL0     C91955   0.684   8.905   0.414 -0.7342  0.4405  1.1605
  682MOL0     C91956   0.556   8.970   0.473 -0.2059  0.1174  1.1121
  682MOL0     C91957   0.431   8.923   0.394  0.9855 -0.5280 -0.3583
  682MOL0     C91958   0.296   8.985   0.423 -0.5790  1.1707 -0.5604
  682MOL0     O91959   0.250   8.928   0.544  0.1281 -0.4154 -0.7224
  682MOL0     C91960   0.119   8.938   0.581  0.2827 -0.3476 -0.2900
  682MOL0     C91961   0.086   8.908   0.722 -0.1831  0.4850 -0.0018
  682MOL0     C91962  -0.049   8.913   0.777 -0.3564 -0.5458  0.1013
  682MOL0     C91963  -0.071   8.880   0.923 -0.2464  1.1677 -0.1759
  682MOL0     C91964  -0.153   8.946   0.690 -0.2048 -0.1595  0.0308
  682MOL0     C91965  -0.292   8.955   0.743  0.7089 -0.4032 -0.6326
  682MOL0     O91966  -0.387   8.994   0.654 -0.9020 -0.0590  0.3890
  682MOL0     C91967  -0.513   9.019   0.696 -0.2081  0.4650 -0.0532
  682MOL0     C91968  -0.522   9.137   0.764  0.3396 -0.3840 -1.1450
  682MOL0     C91969  -0.643   9.187   0.816  0.5293 -0.2843  0.0612
  682MOL0     C91970  -0.756   9.113   0.784 -0.2911 -0.0451 -0.0880
  682MOL0     O91971  -0.872   9.163   0.833 -0.2143  0.1562  0.1783
  682MOL0     C91972  -0.996   9.100   0.800  0.0222  0.5165  0.1721
  682MOL0     C91973  -1.122   9.179   0.825  0.7456  0.0363  0.9058
  682MOL0     C91974  -1.250   9.129   0.744  0.4337  0.1015 -0.1412
  682MOL0     C91975  -1.375   9.222   0.768 -0.0127 -0.1833  0.2610
  682MOL0     C91976  -1.492   9.150   0.703 -0.2476 -0.6266  0.3715
  682MOL0     C91977  -1.618   9.234   0.708  0.9835  0.0635  0.1805
  682MOL0     C91978  -1.723   9.155   0.634  0.5731 -0.6328  0.2048
  682MOL0     C91979  -1.832   9.259   0.599 -0.5568 -0.0281  1.0244
  682MOL0    Cl91980  -1.962   9.164   0.517 -0.2334 -0.0565  0.2456
  682MOL0     C91981  -0.746   8.995   0.709  1.2225  0.2508  0.9107
  682MOL0     C91982  -0.625   8.940   0.668 -0.6302 -0.1430 -0.3359
  682MOL0     O91983  -0.326   8.905   0.850  0.0086  0.4942  0.1036
  682MOL0     C91984  -0.123   8.965   0.552 -1.0135 -0.5196 -0.4015
  682MOL0     C91985   0.004   8.960   0.503 -0.7034  0.0920  0.3952
  682MOL0     N91986   0.666   9.067   0.200 -0.4899  0.3375  0.0325
  682MOL0     N91987   0.713   9.066   0.083  0.6295  0.0920 -0.3373
  682MOL0     C91988   1.887   8.496   0.320  0.0082 -0.3131  0.4881
  682MOL0     C91989   1.998   8.485   0.393  0.0670  0.0801  0.2795
  682MOL0     C91990   2.318   8.448   0.697  0.4580 -0.2052 -0.0842
  682MOL0     C91991   2.351   8.350   0.788  0.1060 -0.1378 -0.4007
  682MOL0     C91992   2.475   8.354   0.865 -0.3101  0.7888  0.0845
  682MOL0     C91993   2.560   8.460   0.844  0.2448  0.5868 -0.0491
  682MOL0     O91994   2.681   8.445   0.910 -0.5871 -0.3689  0.3973
  682MOL0     C91995   2.788   8.537   0.892  0.0669  0.3911  0.4116
  682MOL0     C91996   2.925   8.468   0.921  0.0753 -1.2007 -0.2532
  682MOL0     C91997   2.939   8.423   1.062  0.5567 -0.3745 -0.0424
  682MOL0     C91998   3.062   8.332   1.085 -0.2233 -0.5462 -0.3801
  682MOL0     C91999   3.034   8.194   1.038  0.4226  0.4045 -0.3990
  682MOL0     C92000   2.998   8.085   0.988  0.0624 -1.1815 -0.1998
  682MOL0     C92001   2.525   8.567   0.754 -0.0866  0.3733  0.7676
  682MOL0     C92002   2.403   8.563   0.688  0.3884  0.3445  0.6551
  682MOL0     H92003   1.930   8.744   0.610  0.2948 -1.8886  1.3649
  682MOL0     H92004   1.750   8.769   0.460  1.6647  2.1776 -0.6834
  682MOL0     H92005   1.512   8.495   0.288  2.0482 -1.9350  0.7052
  682MOL0     H92006   1.586   8.564   0.430 -1.9582 -2.5623  0.3473
  682MOL0     H92007   1.397   8.704   0.372 -0.1514  1.1509  0.6405
  682MOL0     H92008   1.541   8.801   0.326 -0.9641  0.9030  1.8611
  682MOL0     H92009   1.499   8.694   0.091 -1.1190  1.3260 -1.1005
  682MOL0     H92010   1.372   8.603   0.163  0.0882 -0.5101 -0.9795
  682MOL0     H92011   1.278   8.835   0.254  0.1105  0.8704  0.6481
  682MOL0     H92012   1.379   8.903   0.122  1.9298 -1.4887 -1.2314
  682MOL0     H92013   1.269   8.787  -0.037  0.5456 -2.1361  0.1387
  682MOL0     H92014   1.179   8.685   0.070  1.0618 -0.4744  0.9301
  682MOL0     H92015   1.060   8.904   0.165 -1.1869 -0.7467 -0.3415
  682MOL0     H92016   1.139   8.980   0.021  0.4391 -0.4395  0.2152
  682MOL0     H92017   1.033   8.808  -0.121  0.1117 -4.3131  0.7881
  682MOL0     H92018   0.946   8.731   0.011  0.2593 -0.2711 -0.7934
  682MOL0     H92019   0.803   8.864  -0.127 -0.2959 -2.7597  2.8171
  682MOL0     H92020   0.898   9.014  -0.106 -0.9076  0.0928  1.4558
  682MOL0     H92021   0.824   8.778   0.199  0.8298 -0.0448  0.7018
  682MOL0     H92022   0.665   8.799   0.391 -2.0957  1.1579 -1.3979
  682MOL0     H92023   0.768   8.916   0.483  1.2181  0.7624 -1.1385
  682MOL0     H92024   0.566   9.078   0.481 -1.7488  0.2312  1.8703
  682MOL0     H92025   0.543   8.933   0.576 -2.6214 -1.8471  0.2344
  682MOL0     H92026   0.422   8.815   0.402  0.2055 -0.3216  2.9288
  682MOL0     H92027   0.442   8.953   0.289  1.0052 -0.7681 -0.4238
  682MOL0     H92028   0.232   8.984   0.334 -2.7558  1.0598  0.9365
  682MOL0     H92029   0.301   9.093   0.443 -4.3912  1.0330  2.0425
  682MOL0     H92030   0.172   8.893   0.786 -0.6010  0.7581  0.6341
  682MOL0     H92031  -0.117   8.781   0.926 -0.7323  1.3435 -1.3071
  682MOL0     H92032   0.032   8.870   0.958 -0.9491 -1.0533  1.4644
  682MOL0     H92033  -0.125   8.959   0.977 -1.4477  0.5757 -0.4781
  682MOL0     H92034  -0.435   9.201   0.771  1.0490 -1.4543  0.4686
  682MOL0     H92035  -0.637   9.273   0.881  1.0010 -0.6602  0.5263
  682MOL0     H92036  -0.996   9.069   0.696  2.1153  0.2608  0.1982
  682MOL0     H92037  -1.001   9.012   0.865  1.0932  1.5869  1.7828
  682MOL0     H92038  -1.144   9.168   0.932  0.7440 -2.4263  0.7046
  682MOL0     H92039  -1.102   9.284   0.802 -1.1263  0.2431 -0.0372
  682MOL0     H92040  -1.270   9.026   0.777  1.8343 -0.0176  0.3848
  682MOL0     H92041  -1.219   9.123   0.639  0.5825  0.8529 -0.1438
  682MOL0     H92042  -1.410   9.230   0.871  1.0607 -0.3535  0.6503
  682MOL0     H92043  -1.357   9.321   0.724 -1.9667  0.7043  1.3306
  682MOL0     H92044  -1.516   9.058   0.756  1.1507 -0.0247  2.1678
  682MOL0     H92045  -1.455   9.130   0.602  0.5479 -1.6913  0.8530
  682MOL0     H92046  -1.656   9.248   0.810  1.9794  4.9105  0.1669
  682MOL0     H92047  -1.598   9.332   0.664 -1.0902 -0.2765 -1.6830
  682MOL0     H92048  -1.765   9.079   0.701 -0.8956  0.1434  0.2200
  682MOL0     H92049  -1.681   9.110   0.544  0.8382 -0.9352  0.4807
  682MOL0     H92050  -1.792   9.342   0.540 -0.0918 -0.4826  0.6917
  682MOL0     H92051  -1.879   9.305   0.686 -0.4664 -0.4829  1.3170
  682MOL0     H92052  -0.834   8.942   0.673  2.0625  0.0016 -0.8551
  682MOL0     H92053  -0.621   8.844   0.618  1.0245 -1.5074  2.2191
  682MOL0     H92054  -0.203   8.989   0.483  0.0503  0.6401 -1.2865
  682MOL0     H92055   0.020   8.981   0.397 -0.5468  2.2423  0.8135
  682MOL0     H92056   1.865   8.415   0.251  0.4663 -0.5398  0.6118
  682MOL0     H92057   2.068   8.405   0.372  0.1776  0.1358  0.4379
  682MOL0     H92058   2.288   8.263   0.804  2.0728 -1.8337 -1.4251
  682MOL0     H92059   2.492   8.271   0.932 -2.5604 -0.4304 -0.7680
  682MOL0     H92060   2.789   8.585   0.794 -0.4518 -0.8091 -0.2034
  682MOL0     H92061   2.774   8.613   0.969 -1.7562 -0.8960  1.4062
  682MOL0     H92062   3.001   8.546   0.911 -1.2321 -0.0454 -1.6011
  682MOL0     H92063   2.946   8.393   0.845  1.3888 -1.4789  0.3488
  682MOL0     H92064   2.851   8.370   1.099 -0.3977  2.3530  1.9186
  682MOL0     H92065   2.930   8.507   1.132  1.7206  0.2800 -0.6540
  682MOL0     H92066   3.076   8.340   1.194  1.5020  1.6509 -0.6922
  682MOL0     H92067   3.152   8.369   1.035 -0.8301 -2.2367 -2.9192
  682MOL0     H92068   2.959   7.989   0.958 -1.4740 -1.0978  1.3661
  682MOL0     H92069   2.586   8.655   0.740 -1.4903  0.9440 -2.7465
  682MOL0     H92070   2.390   8.645   0.618  1.4976 -1.4642 -1.8236
  683MOL0     O92071   5.416   0.612   0.577 -1.0581 -0.1672 -0.2843
  683MOL0     C92072   5.339   0.690   0.516 -0.2249  0.3264  0.0692
  683MOL0     O92073   5.370   0.798   0.435 -0.7129  0.7907  0.4106
  683MOL0     C92074   5.504   0.805   0.399 -0.0081  0.2007 -0.8347
  683MOL0     C92075   5.556   0.714   0.306 -0.2818 -0.5493  0.7503
  683MOL0     C92076   5.694   0.717   0.282 -1.0916 -0.1388  0.5741
  683MOL0     C92077   5.778   0.824   0.339  0.2666 -0.0454 -0.2658
  683MOL0     O92078   5.916   0.819   0.333  0.4049 -0.1229  0.8015
  683MOL0     C92079   5.979   0.736   0.224  0.7179 -0.8077 -1.3898
  683MOL0     C92080   5.964   0.820   0.094  0.2054  1.1179 -0.0945
  683MOL0     C92081   6.021   0.964   0.083 -0.5659  0.5719  0.3357
  683MOL0     C92082   6.166   0.980   0.114  0.6418  0.6214  0.4019
  683MOL0     C92083   6.213   1.126   0.120  0.0799  0.4750  1.0251
  683MOL0     C92084   6.364   1.134   0.110  1.0010  0.2357  0.0267
  683MOL0     C92085   6.407   1.276   0.126  0.3504 -0.2395  1.2808
  683MOL0     C92086   6.555   1.303   0.086  0.1849 -0.4703 -0.1366
  683MOL0     N92087   6.635   1.195   0.139 -0.3942  1.6287 -0.2657
  683MOL0     C92088   6.645   1.174   0.271 -0.4660  0.7272 -0.0420
  683MOL0     C92089   6.716   1.059   0.290  0.3820 -0.1348 -0.6540
  683MOL0     C92090   6.756   0.991   0.418  0.7265  0.7551  0.0462
  683MOL0     C92091   6.635   0.901   0.467  0.1657 -0.2620 -0.0179
  683MOL0     C92092   6.588   0.799   0.366  0.7012  0.2484 -0.3346
  683MOL0     C92093   6.510   0.683   0.431  0.1226 -0.0528 -0.1652
  683MOL0     O92094   6.390   0.721   0.501 -0.0167 -0.1910  0.3437
  683MOL0     C92095   6.308   0.634   0.565  0.7602 -0.1452 -0.1586
  683MOL0     C92096   6.178   0.669   0.587  0.1743  0.1518 -0.4491
  683MOL0     C92097   6.076   0.582   0.621 -0.3942 -0.4573  0.0041
  683MOL0     C92098   5.928   0.635   0.631  0.7034  0.0601  0.5530
  683MOL0     C92099   6.102   0.443   0.645 -0.2655  0.3601  0.5678
  683MOL0     C92100   6.005   0.342   0.699 -0.2698  0.1297  0.7987
  683MOL0     O92101   5.874   0.358   0.671 -0.4225  0.7184 -0.0758
  683MOL0     C92102   5.765   0.280   0.705 -0.0837  0.5943  0.0763
  683MOL0     C92103   5.638   0.339   0.688 -0.3984  0.5196 -0.4735
  683MOL0     C92104   5.525   0.258   0.703  0.7535  0.0874  0.0877
  683MOL0     C92105   5.536   0.121   0.729 -0.7480  0.2773 -0.5342
  683MOL0     O92106   5.423   0.047   0.709 -0.1078  0.2944 -0.7920
  683MOL0     C92107   5.407  -0.050   0.804  0.3025  0.1326 -0.6277
  683MOL0     C92108   5.265  -0.093   0.786  0.1054  0.4217 -0.0836
  683MOL0     C92109   5.165   0.016   0.803  0.3080  0.4811 -0.1225
  683MOL0     C92110   5.027  -0.051   0.788  0.8216  0.5000 -0.2473
  683MOL0     C92111   4.917   0.054   0.830 -0.2048  0.6606 -0.7708
  683MOL0     C92112   4.779   0.010   0.825 -0.4357  1.1198 -0.4495
  683MOL0     C92113   4.701   0.057   0.709 -0.6941  0.0608  1.2020
  683MOL0     C92114   4.553   0.042   0.729  0.0128 -0.5228 -0.3381
  683MOL0    Cl92115   4.519  -0.119   0.785 -0.0943 -0.0441  0.0492
  683MOL0     C92116   5.662   0.069   0.756  0.3613 -0.6624  0.1527
  683MOL0     C92117   5.773   0.145   0.750 -0.0266 -0.7072  0.6268
  683MOL0     O92118   6.056   0.255   0.771 -0.6187 -0.2572  0.1076
  683MOL0     C92119   6.240   0.408   0.642  0.0463 -0.1038  0.0784
  683MOL0     C92120   6.342   0.499   0.601  0.5912 -0.4299 -0.3964
  683MOL0     N92121   6.744   1.007   0.163 -0.1097 -0.3268 -0.7057
  683MOL0     N92122   6.686   1.087   0.076 -0.8239  0.3321  0.5283
  683MOL0     C92123   5.723   0.915   0.426 -0.3315  0.3668  0.5987
  683MOL0     C92124   5.583   0.907   0.455 -0.2014 -0.3478 -0.9688
  683MOL0     C92125   5.192   0.665   0.524 -0.3704 -0.3126  0.2080
  683MOL0     C92126   5.138   0.544   0.573 -0.3031 -0.5003  0.8430
  683MOL0     C92127   4.999   0.527   0.582  0.1304  0.1270  0.0821
  683MOL0     C92128   4.910   0.626   0.543  0.2355 -0.1488  0.0750
  683MOL0     O92129   4.778   0.598   0.556  0.0499  0.1794 -0.2084
  683MOL0     C92130   4.695   0.620   0.439  0.1024  0.4306 -1.1770
  683MOL0     C92131   4.590   0.511   0.428  0.3449 -0.4997 -0.5001
  683MOL0     C92132   4.495   0.555   0.307 -0.9607  0.9354  0.7500
  683MOL0     C92133   4.377   0.637   0.352  0.7253  0.2257 -0.5723
  683MOL0     C92134   4.290   0.563   0.447 -0.5701 -0.1341  0.5740
  683MOL0     C92135   4.206   0.515   0.510  0.2424  0.5041 -0.6904
  683MOL0     C92136   4.959   0.753   0.504  0.0618  0.0517 -0.1439
  683MOL0     C92137   5.099   0.767   0.480  0.7524 -1.1031  0.5228
  683MOL0     H92138   5.496   0.647   0.245  1.3569 -0.0326 -1.5894
  683MOL0     H92139   5.740   0.645   0.215 -0.6613  1.2490 -0.6718
  683MOL0     H92140   6.086   0.727   0.245  0.9567 -1.7525 -2.8404
  683MOL0     H92141   5.944   0.633   0.213 -2.8460 -0.1347  1.5965
  683MOL0     H92142   6.011   0.747   0.027  0.8011  0.2825  1.1867
  683MOL0     H92143   5.861   0.838   0.063  0.0032 -2.3921 -2.0373
  683MOL0     H92144   6.007   0.997  -0.021 -0.2213 -1.2468 -0.3290
  683MOL0     H92145   5.956   1.024   0.146 -1.0134  0.9418 -0.4588
  683MOL0     H92146   6.182   0.931   0.211 -0.3599  0.7623  0.6467
  683MOL0     H92147   6.222   0.926   0.037  1.4278  1.2048  0.5524
  683MOL0     H92148   6.168   1.174   0.032 -0.3865  0.3218  1.1801
  683MOL0     H92149   6.183   1.169   0.215 -1.2227  1.4578  0.2092
  683MOL0     H92150   6.409   1.061   0.179  0.3384 -0.3563 -0.1603
  683MOL0     H92151   6.395   1.096   0.012  0.5148  0.0265 -0.0494
  683MOL0     H92152   6.348   1.341   0.061  3.1580 -0.7132 -2.0632
  683MOL0     H92153   6.396   1.320   0.225 -0.1142 -0.4204  1.3091
  683MOL0     H92154   6.599   1.392   0.131  2.7471 -0.0475 -3.1414
  683MOL0     H92155   6.557   1.316  -0.023  0.2185 -1.0490 -0.2068
  683MOL0     H92156   6.595   1.232   0.348 -2.3883  2.2925 -2.3280
  683MOL0     H92157   6.853   0.942   0.401  0.9378  0.9155  0.7825
  683MOL0     H92158   6.773   1.070   0.491 -0.6922  2.4252 -1.3321
  683MOL0     H92159   6.563   0.980   0.489  1.4709  0.8565  0.4622
  683MOL0     H92160   6.668   0.857   0.561  1.4738  0.0471 -0.3046
  683MOL0     H92161   6.670   0.752   0.312  1.4134 -0.5133  1.3340
  683MOL0     H92162   6.532   0.853   0.290  0.7186  0.7138 -0.0211
  683MOL0     H92163   6.575   0.618   0.490  0.4059 -1.3632 -1.8174
  683MOL0     H92164   6.470   0.619   0.351 -0.5980 -0.9698  0.8928
  683MOL0     H92165   6.142   0.770   0.571  0.5879  0.3292 -0.2958
  683MOL0     H92166   5.873   0.583   0.552  0.6777  1.3530 -0.3269
  683MOL0     H92167   5.886   0.628   0.732  0.0098  0.0019  0.2655
  683MOL0     H92168   5.918   0.740   0.602  3.2550  0.3708  0.5910
  683MOL0     H92169   5.621   0.443   0.662 -0.0929  0.5984 -0.3618
  683MOL0     H92170   5.432   0.309   0.685 -0.4667 -2.0390 -0.0141
  683MOL0     H92171   5.480  -0.132   0.800 -0.3909 -0.8243  2.7315
  683MOL0     H92172   5.410  -0.009   0.905  0.5036  0.2679 -0.6895
  683MOL0     H92173   5.259  -0.135   0.685  1.1905 -0.5035  0.2127
  683MOL0     H92174   5.252  -0.175   0.857  0.4149  0.0086 -0.5035
  683MOL0     H92175   5.174   0.099   0.732 -0.3013  2.4638  1.9821
  683MOL0     H92176   5.176   0.057   0.904 -1.0092 -3.5304  1.8734
  683MOL0     H92177   5.013  -0.082   0.684 -1.5593 -0.7327  0.3481
  683MOL0     H92178   5.015  -0.144   0.845 -0.8908  0.7656 -0.1129
  683MOL0     H92179   4.925   0.140   0.763  1.0733  1.5076  0.4057
  683MOL0     H92180   4.933   0.091   0.931  0.3383  1.5521 -1.1690
  683MOL0     H92181   4.783  -0.099   0.819  1.3224  1.1622 -0.4371
  683MOL0     H92182   4.727   0.046   0.915 -0.1642  3.9996 -1.3417
  683MOL0     H92183   4.723   0.008   0.614  1.5402  2.5286  0.3404
  683MOL0     H92184   4.726   0.159   0.680  2.7057 -0.3546  2.2176
  683MOL0     H92185   4.497   0.067   0.638 -1.3561  1.2744  0.9130
  683MOL0     H92186   4.521   0.112   0.806  0.5566 -0.7944  0.1409
  683MOL0     H92187   5.671  -0.037   0.778  0.9244 -1.0808 -1.8911
  683MOL0     H92188   5.866   0.090   0.751  0.8600  0.6405 -1.0958
  683MOL0     H92189   6.278   0.317   0.687 -1.2963 -0.6672  0.1162
  683MOL0     H92190   6.446   0.469   0.610  0.4441 -0.7557  0.2946
  683MOL0     H92191   5.791   0.986   0.472  0.3519 -0.8982  1.5912
  683MOL0     H92192   5.539   0.984   0.517 -3.0053 -2.3806 -0.2302
  683MOL0     H92193   5.210   0.470   0.607  1.6335  0.7748 -0.3223
  683MOL0     H92194   4.955   0.434   0.616 -2.2334  0.2905 -2.1847
  683MOL0     H92195   4.645   0.716   0.455  0.1547  0.5577 -1.7432
  683MOL0     H92196   4.747   0.615   0.343 -2.2574 -1.4140 -2.4712
  683MOL0     H92197   4.536   0.513   0.523 -0.0321  1.0778 -0.7196
  683MOL0     H92198   4.632   0.412   0.408 -3.0610 -2.8539  2.6166
  683MOL0     H92199   4.462   0.461   0.262 -1.9635  1.6221  0.0151
  683MOL0     H92200   4.545   0.610   0.226  0.3075 -1.2262 -0.0564
  683MOL0     H92201   4.324   0.649   0.257  0.7346 -1.0670 -0.7621
  683MOL0     H92202   4.420   0.726   0.397  0.5498  0.6618 -1.2593
  683MOL0     H92203   4.123   0.466   0.556 -0.2302  1.1571 -0.8408
  683MOL0     H92204   4.897   0.841   0.492  0.0991 -0.0341 -1.0245
  683MOL0     H92205   5.133   0.868   0.457 -1.2376 -0.6078 -0.4605
  684MOL0     O92206   7.181   3.835   6.196 -0.4676  0.6316  0.3222
  684MOL0     C92207   7.283   3.771   6.206 -0.8309 -1.5273  0.5185
  684MOL0     O92208   7.296   3.640   6.242  0.1618 -0.1912 -0.5107
  684MOL0     C92209   7.181   3.560   6.264 -0.5318  0.0184  0.1834
  684MOL0     C92210   7.200   3.466   6.375  0.3834 -0.7391 -0.5543
  684MOL0     C92211   7.087   3.395   6.429 -0.6457 -0.8218 -0.0057
  684MOL0     C92212   6.961   3.400   6.367 -0.5907  0.3160 -0.1832
  684MOL0     O92213   6.857   3.324   6.418  0.4029  0.7781  0.4781
  684MOL0     C92214   6.724   3.377   6.404  0.0383  1.0379 -0.8603
  684MOL0     C92215   6.640   3.264   6.334  0.5020 -0.0012  0.5124
  684MOL0     C92216   6.496   3.277   6.348 -0.1324  0.1266 -0.0852
  684MOL0     C92217   6.452   3.222   6.482  1.0441  0.3800  0.1453
  684MOL0     C92218   6.303   3.244   6.523 -0.2898 -0.1270 -0.2588
  684MOL0     C92219   6.290   3.180   6.658  0.3868  0.2553 -0.3153
  684MOL0     C92220   6.152   3.202   6.722  1.0101 -0.2317 -0.2238
  684MOL0     C92221   6.057   3.093   6.675 -0.4246  0.1106 -0.0818
  684MOL0     N92222   6.093   2.956   6.709  0.4585 -0.1723  0.1390
  684MOL0     C92223   6.100   2.906   6.839 -0.2665 -0.3835  0.0562
  684MOL0     C92224   6.155   2.778   6.814  0.4874 -1.2398 -0.5842
  684MOL0     C92225   6.204   2.699   6.925 -0.5618 -0.2139 -0.0072
  684MOL0     C92226   6.098   2.624   7.012 -0.3276  0.7786 -0.7978
  684MOL0     C92227   6.017   2.520   6.926 -0.9020  0.4959 -0.8502
  684MOL0     C92228   5.917   2.442   7.012 -0.3170 -0.0664 -0.4932
  684MOL0     O92229   5.828   2.542   7.075  0.2144  0.5364  0.6442
  684MOL0     C92230   5.727   2.493   7.157 -0.5517 -0.5729  1.0497
  684MOL0     C92231   5.698   2.362   7.187  0.1474 -0.1664  0.2668
  684MOL0     C92232   5.593   2.323   7.281 -1.0553  0.1835 -0.0639
  684MOL0     C92233   5.574   2.175   7.304  0.3959  0.8166  0.0668
  684MOL0     C92234   5.509   2.421   7.344 -0.1905  0.3935  0.0751
  684MOL0     C92235   5.412   2.395   7.453 -0.2411 -0.3980 -0.0098
  684MOL0     O92236   5.313   2.496   7.472 -0.0977 -0.0063 -0.2083
  684MOL0     C92237   5.215   2.483   7.568  0.9210  0.3107  0.4535
  684MOL0     C92238   5.220   2.541   7.691 -0.3940 -0.6674  0.1833
  684MOL0     C92239   5.129   2.510   7.785  1.0428  0.5008 -0.0211
  684MOL0     C92240   5.017   2.426   7.760  0.4412  0.4367 -0.0114
  684MOL0     O92241   4.930   2.390   7.859 -0.7147 -0.3794  0.0124
  684MOL0     C92242   4.837   2.286   7.818  0.2945  0.1625  0.1675
  684MOL0     C92243   4.740   2.249   7.931 -0.0266 -0.0137  0.4984
  684MOL0     C92244   4.633   2.353   7.958 -0.1482  0.3306  0.1998
  684MOL0     C92245   4.560   2.331   8.090 -0.1976 -0.4912  0.6951
  684MOL0     C92246   4.431   2.239   8.077 -0.2061  0.2895 -0.1443
  684MOL0     C92247   4.314   2.309   8.010 -1.7515  0.3077  0.1121
  684MOL0     C92248   4.258   2.426   8.093 -0.3212  0.4179 -0.6607
  684MOL0     C92249   4.125   2.468   8.031  0.7818 -1.0408 -0.0879
  684MOL0    Cl92250   3.988   2.381   8.109 -0.4742  0.0241  0.4661
  684MOL0     C92251   5.006   2.378   7.633  0.0786  0.1959  0.5028
  684MOL0     C92252   5.106   2.395   7.539 -0.5526 -0.0506  0.5225
  684MOL0     O92253   5.429   2.300   7.524 -0.1919  0.7247  0.3305
  684MOL0     C92254   5.541   2.554   7.315 -0.3285  0.1635 -0.0173
  684MOL0     C92255   5.643   2.584   7.217  0.1658  0.1490 -0.7316
  684MOL0     N92256   6.162   2.760   6.683  0.1857  0.3173 -0.0916
  684MOL0     N92257   6.123   2.866   6.624 -0.1648  1.1925 -0.5328
  684MOL0     C92258   6.949   3.480   6.254 -0.6363 -0.3391  1.0458
  684MOL0     C92259   7.052   3.562   6.204  0.2937 -0.1332  0.4641
  684MOL0     C92260   7.413   3.849   6.193  0.6747  0.2986  0.2252
  684MOL0     C92261   7.522   3.796   6.263 -0.5587  0.9320  0.5333
  684MOL0     C92262   7.640   3.868   6.278  0.3163  0.4582 -0.8106
  684MOL0     C92263   7.652   3.984   6.206  0.0333  0.5327 -0.2149
  684MOL0     O92264   7.768   4.055   6.211 -0.8408  0.0238 -1.1402
  684MOL0     C92265   7.865   4.014   6.117 -0.0644  0.7046  0.3163
  684MOL0     C92266   8.000   4.088   6.127  0.2566  0.3847  0.5025
  684MOL0     C92267   8.063   4.085   6.260 -0.3563  0.6374 -0.3830
  684MOL0     C92268   8.109   3.941   6.285  0.9496 -0.9143 -0.0424
  684MOL0     C92269   8.161   3.928   6.424 -0.0453 -0.1851 -1.3762
  684MOL0     C92270   8.190   3.903   6.541 -0.2681 -0.1367  0.1915
  684MOL0     C92271   7.551   4.033   6.119 -0.2998 -0.5658  0.3929
  684MOL0     C92272   7.428   3.970   6.115  0.2966  0.6002 -0.4952
  684MOL0     H92273   7.297   3.448   6.421  1.0404 -1.1227 -2.0041
  684MOL0     H92274   7.103   3.333   6.516  1.5218 -0.5795 -0.1814
  684MOL0     H92275   6.680   3.383   6.504  1.8502  0.3392  0.0314
  684MOL0     H92276   6.716   3.474   6.354  0.5462  0.0214 -3.0509
  684MOL0     H92277   6.672   3.273   6.229 -2.3424  0.5209 -0.4213
  684MOL0     H92278   6.670   3.163   6.361  1.7370 -0.3553 -1.9219
  684MOL0     H92279   6.467   3.382   6.339 -1.7708 -0.1061  1.7996
  684MOL0     H92280   6.455   3.221   6.263  0.5297 -1.4720  0.5994
  684MOL0     H92281   6.482   3.117   6.491 -0.1471  0.2284  3.3359
  684MOL0     H92282   6.518   3.269   6.556 -1.4601  2.0217  1.4484
  684MOL0     H92283   6.280   3.351   6.523  2.8401  0.7463 -2.9492
  684MOL0     H92284   6.257   3.196   6.436  1.4657 -0.8108 -0.8665
  684MOL0     H92285   6.306   3.073   6.643 -2.2819 -0.1059 -1.1931
  684MOL0     H92286   6.365   3.225   6.723  0.5180  1.8213 -1.4914
  684MOL0     H92287   6.155   3.207   6.831 -2.7585  2.5312 -0.0394
  684MOL0     H92288   6.111   3.301   6.700  1.0997  0.1067  1.0431
  684MOL0     H92289   6.049   3.105   6.567  1.6958  0.1039 -0.2756
  684MOL0     H92290   5.963   3.113   6.729  1.6275  1.0279  3.4713
  684MOL0     H92291   6.081   2.961   6.931 -3.0281 -1.7038  0.3617
  684MOL0     H92292   6.283   2.629   6.895  0.1876  1.0958 -1.2245
  684MOL0     H92293   6.241   2.772   6.998  0.0389  0.8924 -1.3692
  684MOL0     H92294   6.033   2.695   7.064 -0.2611  2.0133 -2.3105
  684MOL0     H92295   6.144   2.570   7.095 -5.6191 -0.8385  1.5036
  684MOL0     H92296   6.092   2.447   6.892  1.2421  1.6230  1.1688
  684MOL0     H92297   5.959   2.570   6.849 -2.6938  1.4992  1.0370
  684MOL0     H92298   5.955   2.381   7.095 -2.7815 -0.2480  0.6056
  684MOL0     H92299   5.872   2.365   6.949  2.1975 -1.5720 -0.6050
  684MOL0     H92300   5.749   2.286   7.128 -0.8750 -0.4930 -0.2227
  684MOL0     H92301   5.634   2.137   7.387  1.2905 -0.4277 -1.1039
  684MOL0     H92302   5.469   2.150   7.323  0.8224  0.1554  1.7913
  684MOL0     H92303   5.613   2.120   7.218 -0.6822  0.6715 -0.3549
  684MOL0     H92304   5.311   2.597   7.706  1.0284 -2.4523 -1.2620
  684MOL0     H92305   5.136   2.542   7.889 -0.0466  1.0156 -0.0949
  684MOL0     H92306   4.775   2.299   7.728  0.7907  1.6288  0.0121
  684MOL0     H92307   4.889   2.193   7.796 -0.3122 -0.2030  0.2433
  684MOL0     H92308   4.687   2.157   7.903  0.7019 -0.7957  1.5761
  684MOL0     H92309   4.791   2.221   8.023  0.1005 -0.6672  0.2395
  684MOL0     H92310   4.565   2.360   7.873 -0.2470 -0.7882  0.1694
  684MOL0     H92311   4.687   2.448   7.971  3.9542 -1.5954 -0.8877
  684MOL0     H92312   4.628   2.279   8.159  0.3081  1.3412  1.6306
  684MOL0     H92313   4.547   2.428   8.138  2.4536 -0.0653  0.7245
  684MOL0     H92314   4.414   2.193   8.174 -2.0230 -1.0224 -1.0148
  684MOL0     H92315   4.454   2.158   8.007 -0.5772  0.3521 -0.3415
  684MOL0     H92316   4.353   2.362   7.922 -0.7225 -0.7717 -0.1086
  684MOL0     H92317   4.235   2.240   7.979 -0.2973 -1.5526  0.3634
  684MOL0     H92318   4.333   2.506   8.099 -0.0013  0.1225 -0.6590
  684MOL0     H92319   4.235   2.390   8.193  0.0146  1.3501 -0.2309
  684MOL0     H92320   4.119   2.448   7.923  2.4907 -0.0439 -0.3881
  684MOL0     H92321   4.107   2.574   8.052  0.2951 -1.3879  1.3757
  684MOL0     H92322   4.923   2.321   7.592  1.7911 -1.3751 -1.0018
  684MOL0     H92323   5.101   2.367   7.434  2.1449 -0.6624  0.4825
  684MOL0     H92324   5.476   2.630   7.358 -0.9044 -0.6410  0.5682
  684MOL0     H92325   5.656   2.691   7.206 -1.6924  0.2665 -2.4762
  684MOL0     H92326   6.849   3.488   6.214  0.2968 -0.7232 -1.5714
  684MOL0     H92327   7.015   3.620   6.120 -2.2396 -2.8036 -0.4155
  684MOL0     H92328   7.518   3.698   6.310 -0.5630  0.6895  0.0303
  684MOL0     H92329   7.721   3.830   6.339 -1.9359 -1.8655  0.9451
  684MOL0     H92330   7.875   3.906   6.127 -1.3033  0.4061 -1.2678
  684MOL0     H92331   7.817   4.047   6.025 -0.6392 -0.0422  0.3411
  684MOL0     H92332   7.975   4.192   6.105 -2.5850 -0.0193  1.3435
  684MOL0     H92333   8.063   4.051   6.046 -0.2827 -0.4610  0.4495
  684MOL0     H92334   7.991   4.128   6.330  1.2506 -0.1481  1.8828
  684MOL0     H92335   8.165   4.124   6.260  1.0839 -2.7760 -1.1282
  684MOL0     H92336   8.185   3.918   6.210  0.0891 -2.7938 -0.4095
  684MOL0     H92337   8.026   3.870   6.276 -2.5874  2.1965  3.9416
  684MOL0     H92338   8.210   3.872   6.642 -0.8669 -1.2526 -0.0197
  684MOL0     H92339   7.564   4.116   6.051  1.6922 -0.4204  0.8987
  684MOL0     H92340   7.353   4.014   6.050  2.0507 -0.0708 -3.1780
  685MOL0     O92341   7.515  10.807   2.092  0.1265 -0.9062 -0.3814
  685MOL0     C92342   7.568  10.703   2.116  0.9599  0.8927 -0.1710
  685MOL0     O92343   7.502  10.603   2.185 -0.1193  0.2706 -0.6452
  685MOL0     C92344   7.370  10.621   2.216  0.5074  0.4419  0.0196
  685MOL0     C92345   7.272  10.626   2.115  0.3197 -0.3169  0.2197
  685MOL0     C92346   7.142  10.659   2.157  0.0185 -0.4835  0.4365
  685MOL0     C92347   7.104  10.676   2.288  1.0233  1.1690  0.3258
  685MOL0     O92348   6.971  10.712   2.323 -0.9293 -0.2123 -0.3079
  685MOL0     C92349   6.857  10.668   2.245 -0.1157 -0.0359 -0.5983
  685MOL0     C92350   6.734  10.692   2.335  0.0244  0.4452 -0.1382
  685MOL0     C92351   6.605  10.646   2.274  0.5421  0.2822 -0.4500
  685MOL0     C92352   6.486  10.665   2.367  0.3794  0.4711  0.3654
  685MOL0     C92353   6.358  10.597   2.312 -0.1139 -0.2041 -0.0955
  685MOL0     C92354   6.242  10.639   2.403  0.1218 -0.1495 -0.2981
  685MOL0     C92355   6.104  10.579   2.362  0.4631 -0.0957 -0.5580
  685MOL0     C92356   5.992  10.663   2.431 -0.2700 -0.2860  0.2290
  685MOL0     N92357   5.863  10.589   2.445  0.4487 -1.4898 -0.3645
  685MOL0     C92358   5.819  10.531   2.560 -0.5146 -0.0239 -0.2012
  685MOL0     C92359   5.691  10.494   2.532  0.8534 -0.3401  0.1472
  685MOL0     C92360   5.598  10.429   2.630  0.8435  0.4024  0.5262
  685MOL0     C92361   5.450  10.416   2.595  0.4631  0.4814  0.1973
  685MOL0     C92362   5.381  10.542   2.625  1.1159  0.7352  0.0416
  685MOL0     C92363   5.236  10.545   2.578  0.5152  0.2626 -0.1329
  685MOL0     O92364   5.180  10.423   2.630 -0.6095 -0.3905 -0.4787
  685MOL0     C92365   5.040  10.398   2.625 -1.1841 -0.3198  0.8677
  685MOL0     C92366   4.983  10.308   2.712 -0.5550 -0.3162 -0.1603
  685MOL0     C92367   4.847  10.280   2.714 -0.1301  0.3004  0.2021
  685MOL0     C92368   4.802  10.175   2.817  0.0761 -0.2929  0.4075
  685MOL0     C92369   4.760  10.336   2.616 -0.3606 -0.2406  0.2010
  685MOL0     C92370   4.609  10.319   2.598  0.7367  0.3730 -0.9545
  685MOL0     O92371   4.545  10.202   2.612 -0.5579  0.4153  0.0775
  685MOL0     C92372   4.412  10.202   2.631  0.2327  0.0709  0.8104
  685MOL0     C92373   4.333  10.158   2.524  0.0794  0.0544 -0.0876
  685MOL0     C92374   4.186  10.146   2.538  0.7966 -0.0116 -0.7580
  685MOL0     C92375   4.132  10.164   2.666 -0.7056  0.3071  0.0937
  685MOL0     O92376   4.002  10.137   2.668 -0.3108 -0.7032  0.1259
  685MOL0     C92377   3.916  10.252   2.687  0.1074 -0.9703  0.1528
  685MOL0     C92378   3.777  10.210   2.659 -0.5571 -0.1867  0.0174
  685MOL0     C92379   3.694  10.333   2.644  0.6502 -0.2133 -0.3219
  685MOL0     C92380   3.544  10.290   2.645  0.1030 -0.1931 -0.2554
  685MOL0     C92381   3.450  10.408   2.613 -0.6064  0.5358 -0.1390
  685MOL0     C92382   3.316  10.384   2.674 -0.0411  0.6251 -0.4420
  685MOL0     C92383   3.228  10.504   2.663 -0.5204  0.0815 -0.0524
  685MOL0     C92384   3.093  10.466   2.719 -0.2918  0.4878  0.4082
  685MOL0    Cl92385   2.991  10.607   2.738 -0.3429  0.1741  0.8031
  685MOL0     C92386   4.210  10.209   2.773 -0.2022 -0.3067 -0.5447
  685MOL0     C92387   4.353  10.231   2.751  0.4784  0.6368  0.1148
  685MOL0     O92388   4.547  10.422   2.566  0.0529  0.0124 -0.3371
  685MOL0     C92389   4.823  10.425   2.524  0.9417  0.0361  0.7643
  685MOL0     C92390   4.959  10.459   2.534  0.6371 -1.3347 -0.1818
  685MOL0     N92391   5.662  10.518   2.395  0.3091  0.2742 -0.5719
  685MOL0     N92392   5.770  10.576   2.351  0.1263  0.2179  0.5795
  685MOL0     C92393   7.208  10.686   2.390 -0.9442 -0.4242  0.6033
  685MOL0     C92394   7.336  10.644   2.350 -0.0363 -0.6688  0.3165
  685MOL0     C92395   7.695  10.676   2.044  0.0700 -0.1191  0.0035
  685MOL0     C92396   7.770  10.548   2.055  0.1800  0.2791 -0.3910
  685MOL0     C92397   7.901  10.531   2.014  0.6022  0.5099 -0.5441
  685MOL0     C92398   7.960  10.635   1.946 -0.8066  0.3462  0.5763
  685MOL0     O92399   8.089  10.638   1.903  0.7104  0.3650 -0.2786
  685MOL0     C92400   8.178  10.547   1.962  0.0718 -0.2529  1.2720
  685MOL0     C92401   8.315  10.564   1.901  0.0325  0.0976  0.4482
  685MOL0     C92402   8.424  10.654   1.966  0.1672 -0.1103 -0.7074
  685MOL0     C92403   8.389  10.808   1.954 -0.3199 -0.4823 -0.9391
  685MOL0     C92404   8.506  10.885   1.988 -0.4128 -0.0817  0.6233
  685MOL0     C92405   8.605  10.948   2.029  0.3605  0.4540  0.0525
  685MOL0     C92406   7.891  10.752   1.917  0.2178  0.3584 -0.3058
  685MOL0     C92407   7.760  10.779   1.974  0.4074  0.7957  0.6101
  685MOL0     H92408   7.298  10.598   2.013 -1.1866 -0.4528 -0.1474
  685MOL0     H92409   7.072  10.665   2.075 -0.8907 -1.7647  1.0951
  685MOL0     H92410   6.863  10.730   2.156 -0.1230  3.6136  1.7342
  685MOL0     H92411   6.869  10.560   2.229  0.2617 -0.0857 -0.0362
  685MOL0     H92412   6.754  10.645   2.432 -0.2659  0.3646 -0.1159
  685MOL0     H92413   6.724  10.799   2.358  2.2882  0.8787 -0.8986
  685MOL0     H92414   6.579  10.700   2.182  0.2279  1.0238  0.0648
  685MOL0     H92415   6.619  10.541   2.247 -1.1150  0.2085 -1.0890
  685MOL0     H92416   6.513  10.611   2.458 -1.9684 -1.6172 -0.0725
  685MOL0     H92417   6.481  10.770   2.397 -2.4912  0.8938 -1.1915
  685MOL0     H92418   6.334  10.625   2.209 -0.3611 -2.1897 -0.6210
  685MOL0     H92419   6.374  10.489   2.314  2.6540  0.1285  2.7075
  685MOL0     H92420   6.257  10.609   2.507  2.0834  3.7109  0.7221
  685MOL0     H92421   6.224  10.747   2.406 -2.8048 -0.4235 -2.9040
  685MOL0     H92422   6.087  10.595   2.255  0.0302  2.0755 -0.2036
  685MOL0     H92423   6.102  10.475   2.395  1.5428  1.2040  4.4687
  685MOL0     H92424   5.968  10.756   2.379  0.4509  1.1146  2.2845
  685MOL0     H92425   6.020  10.701   2.530 -0.4453  5.4458 -1.5462
  685MOL0     H92426   5.874  10.518   2.653 -2.4560 -1.3097  0.8487
  685MOL0     H92427   5.638  10.330   2.656 -2.5777 -0.9368  1.3840
  685MOL0     H92428   5.595  10.481   2.726  0.2518  0.0283  0.7185
  685MOL0     H92429   5.406  10.341   2.662  0.2699  1.7647  1.5699
  685MOL0     H92430   5.433  10.390   2.490 -1.5772  1.3259  0.2680
  685MOL0     H92431   5.434  10.627   2.581 -0.0866  0.3344 -2.3508
  685MOL0     H92432   5.375  10.548   2.734  0.5400 -1.3758  0.1633
  685MOL0     H92433   5.236  10.562   2.470 -1.1636  1.2200 -0.0226
  685MOL0     H92434   5.190  10.629   2.631  0.3774  0.3932 -0.4569
  685MOL0     H92435   5.052  10.248   2.772 -0.2773 -2.1029 -2.1200
  685MOL0     H92436   4.883  10.104   2.839  0.4400 -0.8675 -2.4260
  685MOL0     H92437   4.781  10.239   2.904  0.6270  1.2557 -0.5572
  685MOL0     H92438   4.718  10.116   2.780  0.2729 -0.7306  0.6477
  685MOL0     H92439   4.387  10.144   2.430 -0.7286  0.7238 -0.6704
  685MOL0     H92440   4.117  10.121   2.458  0.2250 -0.5976 -0.0971
  685MOL0     H92441   3.923  10.289   2.790  2.0821 -1.0695  0.0822
  685MOL0     H92442   3.949  10.330   2.618  0.9122 -0.1843  1.3914
  685MOL0     H92443   3.768  10.154   2.565  2.5130  0.2138 -0.6108
  685MOL0     H92444   3.749  10.138   2.737 -2.0756 -0.1871 -0.4899
  685MOL0     H92445   3.716  10.378   2.547 -1.8262  1.8913 -0.0412
  685MOL0     H92446   3.711  10.411   2.719 -2.0891  2.6438 -2.4057
  685MOL0     H92447   3.527  10.210   2.572 -1.1758 -0.3396  0.1787
  685MOL0     H92448   3.519  10.242   2.740 -0.2400  0.4825  0.0022
  685MOL0     H92449   3.439  10.425   2.506 -3.4632 -0.2301 -0.0506
  685MOL0     H92450   3.495  10.498   2.656  1.3379 -0.0337 -0.8622
  685MOL0     H92451   3.269  10.294   2.634  1.0194 -0.4595  0.6774
  685MOL0     H92452   3.328  10.354   2.779 -1.5275 -2.4840 -1.0469
  685MOL0     H92453   3.222  10.535   2.559 -2.0774  0.2455  0.0668
  685MOL0     H92454   3.277  10.583   2.722 -0.3685 -1.0258  1.3680
  685MOL0     H92455   3.106  10.423   2.819 -1.5421  2.2015  1.3580
  685MOL0     H92456   3.045  10.392   2.654  1.4759  0.3755 -0.8372
  685MOL0     H92457   4.179  10.218   2.876 -1.6628  1.8864 -1.1182
  685MOL0     H92458   4.408  10.270   2.836 -1.6258  1.6449  1.0704
  685MOL0     H92459   4.770  10.471   2.441  1.9136 -3.3932 -2.0272
  685MOL0     H92460   4.995  10.537   2.466 -1.4872  0.7084  0.8816
  685MOL0     H92461   7.197  10.709   2.495  0.8177  2.2380  0.2855
  685MOL0     H92462   7.416  10.635   2.423 -1.0887  1.1430  1.8136
  685MOL0     H92463   7.730  10.469   2.118 -0.7544  2.0495  1.3170
  685MOL0     H92464   7.947  10.436   2.041 -1.8879 -0.7399 -0.3303
  685MOL0     H92465   8.187  10.558   2.070 -0.0721 -0.3679  1.2962
  685MOL0     H92466   8.131  10.449   1.949 -1.1492 -0.0336  3.5137
  685MOL0     H92467   8.296  10.595   1.798 -1.0981  0.9078  0.8749
  685MOL0     H92468   8.365  10.466   1.901 -0.7402 -0.3129 -0.8986
  685MOL0     H92469   8.526  10.636   1.931 -0.2284 -0.8275 -1.5446
  685MOL0     H92470   8.415  10.638   2.073 -1.5343  0.3251 -0.7478
  685MOL0     H92471   8.315  10.846   2.025  1.4339  2.9527 -0.7161
  685MOL0     H92472   8.352  10.840   1.856 -0.4446  1.8929 -0.1777
  685MOL0     H92473   8.675  11.020   2.066  1.7066  0.0644 -1.6269
  685MOL0     H92474   7.944  10.830   1.863  1.7444  0.3202  1.0771
  685MOL0     H92475   7.710  10.875   1.962  0.2164  0.4725 -1.8011
  686MOL0     O92476   8.404   9.828   5.922  0.3278  0.1692  0.2760
  686MOL0     C92477   8.409   9.951   5.927  0.6590 -0.4162  0.5690
  686MOL0     O92478   8.311  10.044   5.889  0.3007  1.2626 -0.1505
  686MOL0     C92479   8.198   9.978   5.841 -0.8190 -0.2886  0.1325
  686MOL0     C92480   8.194   9.918   5.707 -0.5914  0.4516  1.0249
  686MOL0     C92481   8.071   9.870   5.660 -0.5541 -0.5371  0.6930
  686MOL0     C92482   7.956   9.884   5.739 -0.4781  0.8332  0.1317
  686MOL0     O92483   7.838   9.828   5.687 -0.0111  0.1617 -0.8666
  686MOL0     C92484   7.706   9.841   5.739  0.6250  0.6210  0.2143
  686MOL0     C92485   7.619   9.770   5.633 -0.3342 -0.1898 -0.1358
  686MOL0     C92486   7.473   9.751   5.669 -0.1693 -1.3757 -0.8412
  686MOL0     C92487   7.386   9.733   5.552  0.6431 -0.1354 -0.4737
  686MOL0     C92488   7.235   9.724   5.583 -0.3691 -0.9503  0.2132
  686MOL0     C92489   7.151   9.709   5.450 -0.2272 -0.1941  0.5211
  686MOL0     C92490   7.003   9.689   5.476 -0.1888 -0.3544  0.1667
  686MOL0     C92491   6.926   9.631   5.347 -0.1597  0.0461 -0.1963
  686MOL0     N92492   6.777   9.632   5.374 -0.2521  0.4460 -0.4408
  686MOL0     C92493   6.716   9.594   5.494  0.0861 -0.0560 -0.4765
  686MOL0     C92494   6.581   9.604   5.486 -0.1458  0.2644 -0.9670
  686MOL0     C92495   6.488   9.563   5.596 -0.0516 -0.6570 -0.1840
  686MOL0     C92496   6.386   9.451   5.551  0.0963 -0.3071  0.2064
  686MOL0     C92497   6.302   9.407   5.672 -0.2211 -0.0765 -0.0061
  686MOL0     C92498   6.177   9.327   5.645  0.3180  0.1508  0.5074
  686MOL0     O92499   6.097   9.419   5.565 -0.1332  0.4046  0.1296
  686MOL0     C92500   5.964   9.424   5.590 -0.2846 -0.7906 -0.0520
  686MOL0     C92501   5.886   9.311   5.578  0.2459  0.3673  0.0643
  686MOL0     C92502   5.750   9.317   5.612 -0.2214  0.4779 -0.1302
  686MOL0     C92503   5.670   9.198   5.562  0.2462  0.8833 -0.4604
  686MOL0     C92504   5.701   9.428   5.686  0.0750  0.5868 -0.0940
  686MOL0     C92505   5.560   9.441   5.741  0.2301  0.0622  0.3668
  686MOL0     O92506   5.518   9.565   5.800  0.0937 -0.4810  0.4746
  686MOL0     C92507   5.388   9.565   5.845 -0.0045  0.4995 -0.3209
  686MOL0     C92508   5.307   9.668   5.804  0.5405  0.4004 -0.4793
  686MOL0     C92509   5.172   9.666   5.851 -0.1749 -0.3751  0.7018
  686MOL0     C92510   5.140   9.581   5.951  1.0131 -0.1007 -0.3974
  686MOL0     O92511   5.020   9.598   6.023  0.1858  0.1112 -0.7292
  686MOL0     C92512   4.902   9.595   5.942 -0.8413 -0.1774  0.2301
  686MOL0     C92513   4.757   9.595   6.007 -0.2029  0.3030 -1.0366
  686MOL0     C92514   4.718   9.453   6.048  0.0568  0.1701  0.1605
  686MOL0     C92515   4.575   9.438   6.106  0.7155  0.5267  0.6206
  686MOL0     C92516   4.528   9.307   6.173 -0.1741 -0.5742 -0.1600
  686MOL0     C92517   4.386   9.293   6.206 -0.7074 -0.1081  0.2450
  686MOL0     C92518   4.281   9.316   6.096 -0.6391  0.0816 -0.0755
  686MOL0     C92519   4.148   9.238   6.104 -0.1175  0.1740 -0.1588
  686MOL0    Cl92520   4.090   9.242   6.274  0.0612 -0.0693 -0.6291
  686MOL0     C92521   5.224   9.486   5.997  0.0357  0.7226 -0.1434
  686MOL0     C92522   5.349   9.479   5.942 -0.1507 -0.1820  0.8576
  686MOL0     O92523   5.490   9.339   5.729  0.7070 -0.0393 -0.3819
  686MOL0     C92524   5.789   9.534   5.710 -0.8527 -1.0946  0.1865
  686MOL0     C92525   5.916   9.530   5.660 -0.8070 -0.2455  0.0246
  686MOL0     N92526   6.560   9.636   5.354  0.1560 -0.1007  0.2876
  686MOL0     N92527   6.672   9.645   5.286 -0.2419  0.1809 -0.6173
  686MOL0     C92528   7.958   9.933   5.867  0.7815  0.2377  0.0056
  686MOL0     C92529   8.081   9.978   5.918  0.1481 -0.5634 -0.2852
  686MOL0     C92530   8.535  10.002   5.986 -0.1707 -0.6963  0.2627
  686MOL0     C92531   8.644   9.918   6.007 -0.1363  0.4442  0.6551
  686MOL0     C92532   8.771   9.972   6.045  0.3152 -0.1364  0.0637
  686MOL0     C92533   8.780  10.102   6.089 -0.4169 -0.0485  0.3329
  686MOL0     O92534   8.898  10.152   6.146  0.4425 -0.1629  0.2529
  686MOL0     C92535   9.024  10.081   6.152  0.1956  0.4573 -0.0046
  686MOL0     C92536   9.132  10.177   6.195 -0.6030  0.1687 -0.0270
  686MOL0     C92537   9.260  10.108   6.142 -0.3526  0.8811  0.0384
  686MOL0     C92538   9.403  10.177   6.172  0.1376 -0.1205  0.0799
  686MOL0     C92539   9.511  10.139   6.085  0.0128  0.8272  0.3574
  686MOL0     C92540   9.615  10.140   6.022  0.5793 -0.0252  0.6365
  686MOL0     C92541   8.669  10.191   6.083 -0.5121  0.1663 -0.0366
  686MOL0     C92542   8.549  10.137   6.032 -0.7125 -0.6169  0.3638
  686MOL0     H92543   8.287   9.913   5.653  1.8320 -0.9135  4.9204
  686MOL0     H92544   8.061   9.834   5.558 -3.4758  2.6687 -0.3632
  686MOL0     H92545   7.692   9.805   5.841 -0.5798  1.3065  0.3150
  686MOL0     H92546   7.675   9.947   5.740  2.6125  1.2385  1.0272
  686MOL0     H92547   7.630   9.839   5.549  1.1531  2.0625  1.8131
  686MOL0     H92548   7.658   9.671   5.605 -0.3915 -0.4007  0.5149
  686MOL0     H92549   7.459   9.667   5.738 -0.5091 -1.1602 -0.6384
  686MOL0     H92550   7.445   9.844   5.721 -2.4475 -2.7945  0.6682
  686MOL0     H92551   7.404   9.810   5.476 -0.7468  1.2716  0.5427
  686MOL0     H92552   7.417   9.641   5.503 -1.0665  1.0849 -4.2211
  686MOL0     H92553   7.222   9.630   5.639 -0.0782 -0.0033  1.9578
  686MOL0     H92554   7.204   9.814   5.636  1.8772  0.1105 -0.2012
  686MOL0     H92555   7.174   9.800   5.394 -1.6571  0.7455  1.3956
  686MOL0     H92556   7.189   9.626   5.390  2.4205  2.6008 -2.0395
  686MOL0     H92557   7.000   9.609   5.550 -0.5994 -0.2282  0.2902
  686MOL0     H92558   6.958   9.782   5.509  0.3223  0.7534 -2.0779
  686MOL0     H92559   6.969   9.532   5.326 -0.3790 -0.7890  2.7910
  686MOL0     H92560   6.942   9.687   5.255 -1.2710 -0.5949 -0.7952
  686MOL0     H92561   6.765   9.553   5.582 -0.0434 -1.2258 -0.9314
  686MOL0     H92562   6.547   9.515   5.674  0.6770 -0.1770 -0.4353
  686MOL0     H92563   6.441   9.652   5.639  0.0175 -1.7814  2.3898
  686MOL0     H92564   6.429   9.366   5.498 -0.0719  0.6689 -1.5587
  686MOL0     H92565   6.314   9.497   5.483 -1.5273 -0.5218  1.7082
  686MOL0     H92566   6.266   9.498   5.720 -2.3379  0.3876 -2.2569
  686MOL0     H92567   6.370   9.362   5.745  0.8662 -0.4385 -1.1928
  686MOL0     H92568   6.141   9.301   5.745 -2.3064  1.3867 -0.0350
  686MOL0     H92569   6.199   9.240   5.583 -2.0048 -0.6671  0.7301
  686MOL0     H92570   5.931   9.223   5.533 -1.1883 -0.7624  0.7324
  686MOL0     H92571   5.614   9.157   5.647 -2.1897  2.2358 -1.3236
  686MOL0     H92572   5.590   9.210   5.489 -2.5050 -1.8480  1.8129
  686MOL0     H92573   5.732   9.115   5.525 -0.2846 -0.3532  1.2589
  686MOL0     H92574   5.344   9.746   5.738 -0.6350  3.0658  1.7903
  686MOL0     H92575   5.115   9.755   5.824  1.5767  1.4971  2.7115
  686MOL0     H92576   4.909   9.677   5.870  1.0007  0.5238  1.1416
  686MOL0     H92577   4.920   9.505   5.883  1.2078  0.5747 -0.3980
  686MOL0     H92578   4.746   9.672   6.084  1.5744  0.2741 -0.7211
  686MOL0     H92579   4.676   9.623   5.938 -2.6510  1.3934  2.0054
  686MOL0     H92580   4.793   9.426   6.123 -0.1368 -0.5739  0.1003
  686MOL0     H92581   4.739   9.387   5.963  0.9685 -2.7270  2.4674
  686MOL0     H92582   4.556   9.520   6.176  0.4642  1.3593 -0.3909
  686MOL0     H92583   4.512   9.460   6.020 -3.2041 -2.0545  2.5173
  686MOL0     H92584   4.584   9.299   6.267  0.2943  2.8656 -0.0430
  686MOL0     H92585   4.554   9.224   6.107 -2.1098 -0.0952 -1.6002
  686MOL0     H92586   4.371   9.193   6.247 -0.8059 -0.5947 -0.9413
  686MOL0     H92587   4.370   9.361   6.290  1.1503  0.3175  0.2994
  686MOL0     H92588   4.315   9.288   5.996 -2.2477 -0.5247 -0.4777
  686MOL0     H92589   4.250   9.421   6.093 -0.0857  0.2198 -1.5386
  686MOL0     H92590   4.161   9.137   6.063  0.1095  0.8558 -1.8340
  686MOL0     H92591   4.080   9.287   6.034  0.1391  0.6172 -0.1016
  686MOL0     H92592   5.192   9.420   6.078  0.2149  1.2753  0.3893
  686MOL0     H92593   5.421   9.406   5.977  2.1020  1.8241  0.6535
  686MOL0     H92594   5.758   9.621   5.767  0.1972 -0.4401 -0.2175
  686MOL0     H92595   5.978   9.617   5.676 -2.2289  1.1020 -1.4119
  686MOL0     H92596   7.873   9.931   5.934  2.0559 -0.0066  1.6888
  686MOL0     H92597   8.081  10.016   6.019  1.1601 -0.0017 -0.4807
  686MOL0     H92598   8.644   9.811   5.989 -1.3025  0.4936  0.2741
  686MOL0     H92599   8.854   9.908   6.072 -0.7749 -0.5333  2.7756
  686MOL0     H92600   9.016  10.004   6.229  1.4682 -0.7295 -1.0364
  686MOL0     H92601   9.036  10.038   6.053  0.0325 -0.4881  0.3718
  686MOL0     H92602   9.136  10.183   6.304  2.4639 -0.4511 -0.0030
  686MOL0     H92603   9.123  10.274   6.146 -4.4835 -0.0199  0.0022
  686MOL0     H92604   9.242  10.098   6.035  1.1380 -1.2949 -0.0722
  686MOL0     H92605   9.261  10.007   6.183  1.4179  2.2743  3.9411
  686MOL0     H92606   9.421  10.154   6.277 -1.3091 -2.5410 -0.1256
  686MOL0     H92607   9.386  10.285   6.169  0.5364  0.0140  1.7434
  686MOL0     H92608   9.711  10.151   5.975  1.2788 -1.2550  1.7016
  686MOL0     H92609   8.676  10.297   6.106 -0.2389  0.1348  0.0330
  686MOL0     H92610   8.471  10.212   6.028  0.3173  0.4898  0.3602
  687MOL0     O92611   7.745   4.257   4.146 -0.5587  0.1139  0.0583
  687MOL0     C92612   7.803   4.330   4.068 -0.0180  0.5291  0.3306
  687MOL0     O92613   7.742   4.438   4.002 -0.5125 -0.1693 -0.5303
  687MOL0     C92614   7.616   4.481   4.026 -0.2905  0.0490 -0.2989
  687MOL0     C92615   7.552   4.538   3.919 -0.1277 -0.0339 -0.3700
  687MOL0     C92616   7.430   4.611   3.940  0.4368  0.9223  0.0835
  687MOL0     C92617   7.371   4.626   4.065  0.0670 -0.0814  1.1983
  687MOL0     O92618   7.243   4.686   4.093  0.7054 -0.0126  0.9103
  687MOL0     C92619   7.138   4.687   3.997 -0.2789 -0.5543  0.1975
  687MOL0     C92620   7.024   4.774   4.049  0.6355 -0.5022  0.7404
  687MOL0     C92621   6.879   4.719   4.023  0.0264 -0.7378  0.6481
  687MOL0     C92622   6.776   4.828   4.045 -0.0102 -0.2403 -0.2494
  687MOL0     C92623   6.635   4.787   4.013  0.6160 -0.6104 -0.2707
  687MOL0     C92624   6.551   4.926   4.016 -0.6387 -0.3424 -0.1176
  687MOL0     C92625   6.400   4.899   3.981 -0.3638  0.2694  0.3137
  687MOL0     C92626   6.326   5.024   3.989 -0.6533  0.3448  0.4608
  687MOL0     N92627   6.195   5.009   3.922  0.4339  0.1692 -0.1806
  687MOL0     C92628   6.088   4.944   3.983  0.4033  0.4085 -1.0991
  687MOL0     C92629   5.996   4.938   3.886 -0.0203  0.5883 -0.2510
  687MOL0     C92630   5.859   4.877   3.899  0.0423  0.1527 -0.8352
  687MOL0     C92631   5.833   4.769   3.794 -0.0882  0.5557  0.6243
  687MOL0     C92632   5.703   4.683   3.834 -0.7402  0.6790  0.3482
  687MOL0     C92633   5.566   4.751   3.818  0.1127  0.2200 -0.7960
  687MOL0     O92634   5.567   4.865   3.909 -0.2097 -0.6556 -0.1495
  687MOL0     C92635   5.452   4.934   3.930  0.3461  0.5005 -0.6623
  687MOL0     C92636   5.340   4.912   3.858  0.2814  0.6331  0.4441
  687MOL0     C92637   5.218   4.964   3.897  0.1423 -0.0614  0.4339
  687MOL0     C92638   5.088   4.920   3.822 -0.6030 -0.3533  1.0420
  687MOL0     C92639   5.220   5.066   3.992 -0.5622  0.6565  0.1227
  687MOL0     C92640   5.092   5.141   4.009  0.3445 -0.3447  1.3213
  687MOL0     O92641   5.010   5.095   4.100  0.1432  0.6718 -0.0702
  687MOL0     C92642   4.888   5.159   4.129 -0.0384 -0.1318 -0.5806
  687MOL0     C92643   4.849   5.141   4.264  0.2482  0.8485 -0.6907
  687MOL0     C92644   4.739   5.213   4.315 -0.9469 -0.4505  0.3559
  687MOL0     C92645   4.662   5.290   4.222 -0.4832  0.2398  0.1103
  687MOL0     O92646   4.555   5.358   4.271 -0.6660  0.0603 -0.4728
  687MOL0     C92647   4.483   5.454   4.200  0.0915 -0.6837  0.5362
  687MOL0     C92648   4.557   5.582   4.160 -0.0152 -0.6985  0.1497
  687MOL0     C92649   4.609   5.670   4.281 -0.0656  0.0159  0.2123
  687MOL0     C92650   4.497   5.722   4.371  0.0464  0.0162 -0.6336
  687MOL0     C92651   4.553   5.759   4.505 -0.1215 -0.0097  0.3732
  687MOL0     C92652   4.451   5.852   4.586  0.1188  0.2049  0.0238
  687MOL0     C92653   4.322   5.774   4.618 -0.2823  0.5777  0.5350
  687MOL0     C92654   4.199   5.855   4.561 -0.0326  0.4780 -0.5002
  687MOL0    Cl92655   4.071   5.733   4.535  0.0792 -0.3702  0.4477
  687MOL0     C92656   4.699   5.282   4.090 -0.4298 -0.7101 -0.4751
  687MOL0     C92657   4.807   5.222   4.043 -1.2676  0.7417  0.2133
  687MOL0     O92658   5.079   5.246   3.940 -0.3335 -0.4348 -0.2497
  687MOL0     C92659   5.337   5.098   4.063 -0.1708  0.4685  0.3522
  687MOL0     C92660   5.453   5.030   4.030  0.8773  0.4441  0.1167
  687MOL0     N92661   6.034   5.015   3.775  0.3457  0.0075  0.2500
  687MOL0     N92662   6.158   5.050   3.799  0.0015  0.4635 -0.1264
  687MOL0     C92663   7.441   4.568   4.175  0.3379  0.0791 -0.3164
  687MOL0     C92664   7.563   4.500   4.154  1.4143  0.2620  0.2748
  687MOL0     C92665   7.946   4.303   4.047  0.3929  0.6208 -0.4306
  687MOL0     C92666   8.016   4.197   4.114 -0.0662 -0.4878 -0.2202
  687MOL0     C92667   8.150   4.198   4.087 -0.2018  0.4859  0.2606
  687MOL0     C92668   8.221   4.300   4.036  0.1709 -0.6518  0.3823
  687MOL0     O92669   8.360   4.292   4.028 -0.0682  0.5154  0.1053
  687MOL0     C92670   8.441   4.389   3.954 -0.2270 -0.6501  1.5285
  687MOL0     C92671   8.594   4.379   3.955 -0.4130 -0.0848 -0.4765
  687MOL0     C92672   8.645   4.261   3.869 -0.8511  0.1019 -0.3220
  687MOL0     C92673   8.797   4.261   3.864  0.5620 -0.5089  0.0841
  687MOL0     C92674   8.836   4.142   3.788  0.4688 -0.3978  0.2201
  687MOL0     C92675   8.869   4.029   3.744  0.1387 -0.3412  0.1902
  687MOL0     C92676   8.150   4.407   3.975 -0.4108  0.0308  0.3497
  687MOL0     C92677   8.012   4.401   3.977 -0.0998 -0.9220  0.8462
  687MOL0     H92678   7.589   4.521   3.818  3.3363  3.2748  0.0938
  687MOL0     H92679   7.371   4.637   3.853 -0.0416 -1.5315 -0.3965
  687MOL0     H92680   7.170   4.732   3.902  1.2243 -0.6164  0.6604
  687MOL0     H92681   7.104   4.585   3.977  0.7646 -0.8467 -0.1492
  687MOL0     H92682   7.025   4.781   4.158  0.8263 -1.1462  0.7819
  687MOL0     H92683   7.038   4.875   4.009  3.0671 -0.9459  0.3010
  687MOL0     H92684   6.867   4.688   3.919  2.6414 -0.5076  0.2082
  687MOL0     H92685   6.854   4.645   4.100 -0.4314  1.4215  2.6881
  687MOL0     H92686   6.787   4.859   4.150  0.7707  0.9630 -0.6680
  687MOL0     H92687   6.798   4.904   3.970  0.7622 -0.9670 -0.7760
  687MOL0     H92688   6.625   4.734   3.918 -0.6328  1.3971 -1.3343
  687MOL0     H92689   6.590   4.732   4.096  0.5967 -0.7195 -0.3535
  687MOL0     H92690   6.558   4.964   4.118  1.2704  0.4562 -0.5220
  687MOL0     H92691   6.589   5.000   3.945 -0.5007 -0.1119  0.2004
  687MOL0     H92692   6.406   4.851   3.883 -0.5135  1.4962 -0.3154
  687MOL0     H92693   6.355   4.829   4.053  2.4775 -3.6036 -1.3277
  687MOL0     H92694   6.389   5.103   3.948  1.4656 -1.5675 -0.1524
  687MOL0     H92695   6.308   5.044   4.095 -0.8834  2.5276  0.0509
  687MOL0     H92696   6.083   4.902   4.083 -2.3116  2.6794 -0.1481
  687MOL0     H92697   5.842   4.838   4.000  1.4684  1.5471 -0.0168
  687MOL0     H92698   5.795   4.963   3.882  2.1124  1.9309 -0.1264
  687MOL0     H92699   5.924   4.709   3.796 -0.5946 -0.2219  0.9784
  687MOL0     H92700   5.815   4.810   3.694  0.5149  1.3534  0.8313
  687MOL0     H92701   5.721   4.639   3.933 -0.4104 -2.2623 -0.9151
  687MOL0     H92702   5.699   4.602   3.761 -0.9893 -0.1712  1.2743
  687MOL0     H92703   5.493   4.682   3.862  1.4010  0.9013  2.7487
  687MOL0     H92704   5.543   4.777   3.714  0.7043  0.4304 -0.8806
  687MOL0     H92705   5.339   4.834   3.782 -2.8615  0.0112  0.9807
  687MOL0     H92706   5.011   4.915   3.899  0.4958  1.2384  2.3179
  687MOL0     H92707   5.047   4.994   3.752 -0.7570 -1.1834  0.2477
  687MOL0     H92708   5.101   4.826   3.768  0.6111  0.6865 -0.5732
  687MOL0     H92709   4.915   5.089   4.333  0.9504  0.5595 -1.5689
  687MOL0     H92710   4.710   5.215   4.420  0.7087  3.5506  0.9237
  687MOL0     H92711   4.445   5.404   4.110  0.6982  0.3553 -0.3365
  687MOL0     H92712   4.386   5.473   4.246 -0.3525 -2.3312  0.3525
  687MOL0     H92713   4.636   5.560   4.088 -1.1651 -2.0140 -0.7653
  687MOL0     H92714   4.492   5.645   4.100  3.0205  2.0664 -0.4930
  687MOL0     H92715   4.668   5.754   4.242  0.0664  0.4191  1.2469
  687MOL0     H92716   4.686   5.614   4.336 -0.0554 -1.7812 -1.5227
  687MOL0     H92717   4.446   5.811   4.332  1.3708  0.7075 -0.8369
  687MOL0     H92718   4.421   5.644   4.384  0.6475 -0.2808  1.5554
  687MOL0     H92719   4.647   5.814   4.496 -0.3194  0.5165  1.3664
  687MOL0     H92720   4.570   5.660   4.549 -4.6312 -1.8010 -1.2533
  687MOL0     H92721   4.495   5.885   4.681  0.7389 -0.2717 -0.0891
  687MOL0     H92722   4.434   5.941   4.525  0.0758  0.7030  0.7550
  687MOL0     H92723   4.299   5.772   4.725  2.7110  1.7003  1.3033
  687MOL0     H92724   4.340   5.675   4.576  1.4333  0.6202  1.1185
  687MOL0     H92725   4.226   5.902   4.466  0.8804 -1.4181 -1.2405
  687MOL0     H92726   4.172   5.937   4.628  1.1942 -0.8053  1.6726
  687MOL0     H92727   4.635   5.335   4.022 -1.9511 -0.5976  0.9829
  687MOL0     H92728   4.835   5.221   3.938 -2.0650  0.2466 -0.0080
  687MOL0     H92729   5.329   5.180   4.134  1.7937 -0.0654  1.2593
  687MOL0     H92730   5.550   5.052   4.071  0.4893  1.5000  0.5128
  687MOL0     H92731   7.408   4.588   4.276  1.4606  0.0374  0.0693
  687MOL0     H92732   7.614   4.458   4.241  0.1274 -0.2980  0.7925
  687MOL0     H92733   7.979   4.121   4.181  1.9633 -2.0775 -0.7899
  687MOL0     H92734   8.213   4.124   4.136  2.2296  2.4760  0.3993
  687MOL0     H92735   8.410   4.382   3.849  0.1784  3.5841  0.9689
  687MOL0     H92736   8.404   4.488   3.981 -1.9934 -1.2710  1.4938
  687MOL0     H92737   8.636   4.390   4.056  0.1546 -1.2737 -0.5709
  687MOL0     H92738   8.621   4.467   3.896 -3.2923  0.9410 -0.4078
  687MOL0     H92739   8.609   4.262   3.766 -0.8401 -0.0940 -0.3273
  687MOL0     H92740   8.614   4.168   3.917  1.0155 -0.5007 -0.1909
  687MOL0     H92741   8.836   4.252   3.965 -1.4417  0.8036  1.0350
  687MOL0     H92742   8.831   4.351   3.812  1.4942  0.1798  1.8058
  687MOL0     H92743   8.901   3.934   3.707 -2.1125 -1.4861  0.9922
  687MOL0     H92744   8.199   4.484   3.917  0.7008 -0.7026  0.2958
  687MOL0     H92745   7.957   4.480   3.926 -1.0700  1.1362  4.6703
  688MOL0     O92746   5.147   7.228   3.724 -0.0294 -0.0309 -0.3821
  688MOL0     C92747   5.228   7.219   3.810 -0.5655 -0.6730 -0.6961
  688MOL0     O92748   5.219   7.271   3.936  0.3573  0.2184 -0.1299
  688MOL0     C92749   5.118   7.353   3.979  0.0544 -0.7386  0.9861
  688MOL0     C92750   4.994   7.382   3.914  0.2064  0.0442 -0.0767
  688MOL0     C92751   4.899   7.469   3.975  0.0698  0.4972 -0.5308
  688MOL0     C92752   4.923   7.528   4.099  0.4238  0.3270 -0.2984
  688MOL0     O92753   4.829   7.607   4.165 -0.3607 -0.7483 -0.0023
  688MOL0     C92754   4.788   7.540   4.288  0.7394 -0.3086  0.3713
  688MOL0     C92755   4.677   7.626   4.352  0.1567 -0.1796  0.5789
  688MOL0     C92756   4.555   7.637   4.263 -0.4946  0.8165  0.0722
  688MOL0     C92757   4.457   7.742   4.316  0.0111 -0.5610 -0.3866
  688MOL0     C92758   4.332   7.744   4.244  0.4825  0.4090  0.3195
  688MOL0     C92759   4.320   7.859   4.143 -0.8617 -0.3590 -0.5855
  688MOL0     C92760   4.374   7.818   4.006 -0.4160  0.2677  0.8709
  688MOL0     C92761   4.276   7.797   3.890  0.0762  0.1919 -0.2537
  688MOL0     N92762   4.263   7.932   3.829  0.7330 -0.0851  1.4937
  688MOL0     C92763   4.302   7.959   3.702  0.0641  0.1074 -0.0444
  688MOL0     C92764   4.247   8.087   3.673  1.4186 -0.0298 -0.4443
  688MOL0     C92765   4.249   8.166   3.546 -0.0436  0.0920  0.0721
  688MOL0     C92766   4.374   8.121   3.465 -0.1374 -0.3660 -0.0594
  688MOL0     C92767   4.375   8.182   3.325 -0.1670  0.5033 -0.1977
  688MOL0     C92768   4.315   8.077   3.220 -0.0523  0.2301 -0.1682
  688MOL0     O92769   4.185   8.034   3.267  0.0204 -0.3828  0.4017
  688MOL0     C92770   4.103   7.964   3.176 -1.0938 -0.5655  0.1908
  688MOL0     C92771   4.120   7.935   3.039 -0.0369  0.2362  0.2893
  688MOL0     C92772   4.020   7.863   2.968  0.7684  0.0555 -0.4074
  688MOL0     C92773   4.044   7.829   2.827 -0.3919 -0.4968  0.6537
  688MOL0     C92774   3.898   7.829   3.035  0.1775 -0.6843  0.1234
  688MOL0     C92775   3.783   7.764   2.970 -0.0915  0.5121 -0.6509
  688MOL0     O92776   3.664   7.796   3.020 -0.5000  0.9648  0.7248
  688MOL0     C92777   3.552   7.763   2.943  0.1036 -0.0837 -0.0590
  688MOL0     C92778   3.451   7.685   3.000  0.7065  0.8437 -0.1108
  688MOL0     C92779   3.333   7.652   2.929  0.6733 -0.0291 -0.4822
  688MOL0     C92780   3.307   7.707   2.811 -0.1421 -0.0499  0.6911
  688MOL0     O92781   3.182   7.710   2.757 -0.1791 -0.1521 -0.1424
  688MOL0     C92782   3.164   7.740   2.617  0.7833  0.1201  0.1071
  688MOL0     C92783   3.029   7.705   2.576  1.2614 -0.1693  0.6518
  688MOL0     C92784   2.917   7.776   2.661  0.3113 -0.0137  0.1302
  688MOL0     C92785   2.785   7.758   2.583  0.1222 -0.0858 -0.0391
  688MOL0     C92786   2.676   7.733   2.678  1.0786 -1.2061  1.0882
  688MOL0     C92787   2.533   7.722   2.618  0.4748 -0.0209 -0.2171
  688MOL0     C92788   2.427   7.717   2.730 -0.2260  0.2586  0.8631
  688MOL0     C92789   2.400   7.855   2.788  0.2889  0.7225 -0.4776
  688MOL0    Cl92790   2.281   7.934   2.679 -0.6604 -0.2761 -0.1293
  688MOL0     C92791   3.407   7.781   2.746  0.7013 -0.2187  0.0306
  688MOL0     C92792   3.524   7.814   2.815  0.3513  0.7256  0.5286
  688MOL0     O92793   3.800   7.680   2.879 -0.5007  0.0697 -0.0168
  688MOL0     C92794   3.875   7.871   3.172 -0.9272  0.0366 -0.0746
  688MOL0     C92795   3.982   7.933   3.239  0.4051 -0.0337 -0.1441
  688MOL0     N92796   4.191   8.129   3.792  0.0084  0.4913  0.0295
  688MOL0     N92797   4.203   8.042   3.883 -0.7777 -0.0813 -0.7575
  688MOL0     C92798   5.047   7.505   4.158  1.0928  0.3330 -0.3445
  688MOL0     C92799   5.137   7.420   4.099 -0.1033 -0.1488 -0.4895
  688MOL0     C92800   5.347   7.128   3.793  0.9147 -0.2365 -0.0378
  688MOL0     C92801   5.376   7.035   3.888 -0.5537  0.8045  0.0267
  688MOL0     C92802   5.482   6.946   3.867 -0.2383  0.6701 -0.3513
  688MOL0     C92803   5.550   6.939   3.743  0.4551 -0.8797  0.1332
  688MOL0     O92804   5.649   6.857   3.710  0.1883  0.6349  0.2218
  688MOL0     C92805   5.698   6.753   3.801  0.4587  0.9553 -0.0974
  688MOL0     C92806   5.791   6.815   3.904  0.5699 -0.0620 -1.0060
  688MOL0     C92807   5.912   6.861   3.836 -0.3077 -0.2867  0.0962
  688MOL0     C92808   6.031   6.853   3.930 -0.6203 -0.0918 -0.2730
  688MOL0     C92809   6.130   6.750   3.901  0.5115 -0.0132 -0.1244
  688MOL0     C92810   6.204   6.651   3.874 -0.1762  0.3023 -0.0764
  688MOL0     C92811   5.507   7.036   3.643  0.6823 -0.5318 -0.9213
  688MOL0     C92812   5.410   7.127   3.669  0.4615 -0.1067 -0.5378
  688MOL0     H92813   4.970   7.330   3.822  2.0825  2.5322 -2.1604
  688MOL0     H92814   4.801   7.488   3.932  0.1026 -1.9999 -1.8411
  688MOL0     H92815   4.730   7.454   4.253  0.2316 -0.4118  1.4151
  688MOL0     H92816   4.861   7.503   4.360 -0.7951 -2.8634  0.7523
  688MOL0     H92817   4.644   7.587   4.448 -3.1619  1.7749  0.3897
  688MOL0     H92818   4.709   7.730   4.366  0.7985 -0.0677 -1.3904
  688MOL0     H92819   4.596   7.650   4.162  1.4836  2.8896  1.0558
  688MOL0     H92820   4.494   7.546   4.267  0.7338 -0.0236  0.5168
  688MOL0     H92821   4.439   7.709   4.418 -1.4125 -0.8290 -0.7083
  688MOL0     H92822   4.512   7.837   4.307  1.1797 -1.1095  0.7453
  688MOL0     H92823   4.305   7.646   4.204 -3.1260  1.1399  0.6483
  688MOL0     H92824   4.254   7.762   4.319  0.6683 -0.6566  0.7796
  688MOL0     H92825   4.221   7.906   4.147 -0.5034  0.6781  5.7143
  688MOL0     H92826   4.375   7.946   4.181 -1.7791 -0.1575  0.2969
  688MOL0     H92827   4.444   7.894   3.968 -2.6547  1.8881 -0.2482
  688MOL0     H92828   4.436   7.728   4.009 -0.6544  0.1200  1.5596
  688MOL0     H92829   4.182   7.760   3.932 -0.7658  0.9142 -1.4438
  688MOL0     H92830   4.310   7.727   3.813 -0.0995  1.4233 -1.4935
  688MOL0     H92831   4.367   7.898   3.640  1.3987  1.1917  0.2363
  688MOL0     H92832   4.167   8.164   3.474  1.7673 -1.5060 -2.1048
  688MOL0     H92833   4.261   8.273   3.565  0.1997  0.1466 -0.3818
  688MOL0     H92834   4.370   8.011   3.464  0.2188 -0.4014 -1.8712
  688MOL0     H92835   4.464   8.148   3.520  0.6689  1.4718 -2.1274
  688MOL0     H92836   4.480   8.189   3.295  1.2591 -4.3976  2.4160
  688MOL0     H92837   4.318   8.275   3.319 -2.0309 -0.5074  0.8043
  688MOL0     H92838   4.379   7.989   3.224  2.2252  1.7891  3.8889
  688MOL0     H92839   4.312   8.130   3.125 -0.1960  0.4509 -0.0429
  688MOL0     H92840   4.212   7.958   2.986 -0.5930  0.8529 -0.4339
  688MOL0     H92841   4.147   7.849   2.797 -0.7528 -0.4873 -0.6696
  688MOL0     H92842   4.033   7.723   2.804 -0.9207 -0.6182  1.4184
  688MOL0     H92843   3.984   7.895   2.763 -0.0170  0.4268  1.2414
  688MOL0     H92844   3.464   7.639   3.097  0.1307 -0.2905 -0.5590
  688MOL0     H92845   3.263   7.580   2.970  2.4945 -2.8239 -1.9895
  688MOL0     H92846   3.175   7.846   2.591  1.8149 -0.3247 -1.3962
  688MOL0     H92847   3.228   7.676   2.556 -1.3114 -2.2518  0.2472
  688MOL0     H92848   3.019   7.729   2.470 -2.0017  0.0625  0.9063
  688MOL0     H92849   3.013   7.597   2.587  1.3127 -0.2228  0.2079
  688MOL0     H92850   2.938   7.882   2.679 -1.8527  0.9641 -2.4294
  688MOL0     H92851   2.902   7.715   2.750 -3.5471 -0.4967 -0.7070
  688MOL0     H92852   2.756   7.846   2.524 -4.1397  0.0132  1.8808
  688MOL0     H92853   2.784   7.669   2.520 -1.3132  1.0199 -1.6952
  688MOL0     H92854   2.673   7.812   2.754 -2.7367 -0.5757  0.4893
  688MOL0     H92855   2.698   7.645   2.740 -0.0673 -1.5503  1.0280
  688MOL0     H92856   2.516   7.808   2.552 -2.4120  0.5120  1.1009
  688MOL0     H92857   2.532   7.632   2.556 -1.4078 -1.2122  1.4567
  688MOL0     H92858   2.456   7.641   2.803  0.6294 -1.2064 -0.9291
  688MOL0     H92859   2.331   7.684   2.690 -0.5894  3.0914 -0.8456
  688MOL0     H92860   2.496   7.906   2.805  0.7751 -0.6230  1.1726
  688MOL0     H92861   2.354   7.836   2.885  1.9900 -2.4362 -0.1204
  688MOL0     H92862   3.387   7.830   2.651 -1.3569  1.5543  1.2901
  688MOL0     H92863   3.595   7.885   2.772  2.4233  0.3265  3.0537
  688MOL0     H92864   3.796   7.838   3.238  2.7513 -2.5011  3.5823
  688MOL0     H92865   3.968   7.957   3.344  0.3486  2.0929 -0.5929
  688MOL0     H92866   5.056   7.541   4.260 -0.9967  1.1358 -0.3861
  688MOL0     H92867   5.234   7.417   4.149 -1.6121  2.8731  3.0413
  688MOL0     H92868   5.311   7.015   3.972 -1.4864 -3.5713 -1.4639
  688MOL0     H92869   5.500   6.869   3.941  0.5763  1.2837  0.1163
  688MOL0     H92870   5.613   6.706   3.852 -2.0488  4.5895 -0.5408
  688MOL0     H92871   5.748   6.680   3.738 -1.0039  1.0472 -1.4284
  688MOL0     H92872   5.825   6.746   3.981  2.3586 -0.2455 -1.9101
  688MOL0     H92873   5.734   6.892   3.956 -3.0712 -1.0075 -3.1980
  688MOL0     H92874   5.901   6.966   3.808  1.3072 -0.0017  0.4469
  688MOL0     H92875   5.935   6.797   3.750  1.5258 -0.2806  0.5441
  688MOL0     H92876   6.005   6.853   4.036 -1.3146 -0.5805 -0.4377
  688MOL0     H92877   6.095   6.941   3.920  3.1272 -2.1208  3.0391
  688MOL0     H92878   6.252   6.558   3.851 -1.4564 -0.8682  1.7433
  688MOL0     H92879   5.565   7.056   3.553  0.3249 -1.0149 -1.2636
  688MOL0     H92880   5.380   7.189   3.585  0.4586 -0.8503 -1.1012
  689MOL0     O92881   7.075   9.552   9.395  0.3746 -0.3166  0.3045
  689MOL0     C92882   7.043   9.647   9.464 -0.4450  0.0674  0.4031
  689MOL0     O92883   6.916   9.676   9.519 -0.1614 -0.3442 -0.2376
  689MOL0     C92884   6.796   9.603   9.496  0.4072  0.0098  0.0475
  689MOL0     C92885   6.690   9.668   9.554  0.4881 -0.1947 -0.0996
  689MOL0     C92886   6.554   9.626   9.523  0.2600  0.0313 -0.2047
  689MOL0     C92887   6.528   9.508   9.459 -0.0594 -0.6715 -0.0274
  689MOL0     O92888   6.394   9.468   9.446 -0.3249  0.1394  0.0628
  689MOL0     C92889   6.357   9.371   9.345 -0.2139 -0.1645 -0.4911
  689MOL0     C92890   6.203   9.374   9.347 -0.1467 -0.1453 -0.5674
  689MOL0     C92891   6.155   9.411   9.214  0.3689  0.0073 -0.0275
  689MOL0     C92892   5.995   9.433   9.209  0.5496  0.2599 -0.5134
  689MOL0     C92893   5.930   9.304   9.243  0.0385  0.8504  0.2923
  689MOL0     C92894   5.789   9.286   9.187 -0.0340 -0.0208 -0.1904
  689MOL0     C92895   5.680   9.386   9.226  0.3535  0.4196 -0.3651
  689MOL0     C92896   5.677   9.512   9.139  0.6396  0.1564 -0.1386
  689MOL0     N92897   5.571   9.597   9.200  0.0675 -0.6448 -0.1998
  689MOL0     C92898   5.522   9.714   9.143 -0.3192 -0.4207 -0.5429
  689MOL0     C92899   5.485   9.797   9.250  0.7015 -0.0838  0.5080
  689MOL0     C92900   5.424   9.930   9.244 -0.0555  0.1772  0.9077
  689MOL0     C92901   5.286   9.923   9.185 -0.5631 -0.8968  0.2655
  689MOL0     C92902   5.192   9.826   9.268 -0.6846 -0.8140  0.7142
  689MOL0     C92903   5.044   9.831   9.220  0.1111 -0.7955 -0.2480
  689MOL0     O92904   5.038   9.792   9.084 -0.4767 -0.6479 -0.4823
  689MOL0     C92905   4.916   9.826   9.020  0.1027 -0.6457 -0.0842
  689MOL0     C92906   4.792   9.839   9.085 -0.1879  0.1345 -0.0071
  689MOL0     C92907   4.676   9.895   9.030 -0.4537 -0.0623 -0.3554
  689MOL0     C92908   4.550   9.895   9.119 -0.3561 -0.5118 -0.4221
  689MOL0     C92909   4.681   9.950   8.899 -0.4291  0.3276 -0.6445
  689MOL0     C92910   4.566  10.015   8.829 -0.3097  0.7448  0.3514
  689MOL0     O92911   4.478  10.091   8.902 -0.1397  0.3417 -0.4221
  689MOL0     C92912   4.355  10.138   8.853 -0.0909  0.0975 -0.0263
  689MOL0     C92913   4.300  10.124   8.720  0.1184  0.1103 -0.2033
  689MOL0     C92914   4.169  10.161   8.681  0.2142 -0.3956 -0.5217
  689MOL0     C92915   4.081  10.222   8.776  0.6832  0.8063 -0.4607
  689MOL0     O92916   3.955  10.261   8.740 -0.1371 -0.0167  0.5690
  689MOL0     C92917   3.900  10.239   8.605  0.2540  0.0420 -1.1922
  689MOL0     C92918   3.782  10.324   8.590  0.4478 -1.0603 -0.0383
  689MOL0     C92919   3.666  10.290   8.682 -0.2642 -0.0641  0.9147
  689MOL0     C92920   3.549  10.386   8.663 -1.0485 -0.0142 -0.3337
  689MOL0     C92921   3.457  10.395   8.782  1.0703  0.1789 -0.9394
  689MOL0     C92922   3.372  10.265   8.804  1.0206  0.2379  0.2060
  689MOL0     C92923   3.271  10.293   8.917 -0.0054 -0.4954  0.6617
  689MOL0     C92924   3.315  10.333   9.061  0.1921 -0.0613 -0.0940
  689MOL0    Cl92925   3.184  10.398   9.152  0.2700 -0.1077  0.0897
  689MOL0     C92926   4.125  10.236   8.911 -0.4263 -0.1380  0.4365
  689MOL0     C92927   4.257  10.190   8.949  0.1140 -0.0423  0.5013
  689MOL0     O92928   4.558   9.981   8.713 -0.0724  0.3005  0.4045
  689MOL0     C92929   4.806   9.938   8.829 -0.6309  0.4831  1.1044
  689MOL0     C92930   4.911   9.861   8.889  0.8108 -0.3753  0.5521
  689MOL0     N92931   5.506   9.735   9.366 -1.1397 -0.1203  0.6952
  689MOL0     N92932   5.555   9.617   9.335  0.4680 -0.2703  0.2282
  689MOL0     C92933   6.637   9.441   9.401  0.2780  0.5238  0.4907
  689MOL0     C92934   6.767   9.491   9.423 -0.0270  0.6125 -0.3896
  689MOL0     C92935   7.148   9.753   9.482  0.5973 -0.3696  0.0254
  689MOL0     C92936   7.287   9.725   9.483 -0.0502  0.2332  1.4427
  689MOL0     C92937   7.373   9.829   9.524  0.0335 -0.4190  0.8434
  689MOL0     C92938   7.324   9.959   9.553  0.1333 -0.4674 -0.7602
  689MOL0     O92939   7.423  10.051   9.587 -0.0323 -0.0088  0.1994
  689MOL0     C92940   7.419  10.166   9.499 -0.2053 -0.5251  0.6219
  689MOL0     C92941   7.521  10.158   9.376  0.1226 -0.9785 -0.1341
  689MOL0     C92942   7.671  10.176   9.431  0.2264  0.6577 -0.1739
  689MOL0     C92943   7.780  10.138   9.327 -0.0460 -0.0110  0.6419
  689MOL0     C92944   7.891  10.083   9.392  0.7682 -0.0857 -0.4596
  689MOL0     C92945   7.980  10.036   9.459  0.0164 -0.7050 -0.0045
  689MOL0     C92946   7.189   9.980   9.556  0.5726 -0.1287  0.4078
  689MOL0     C92947   7.097   9.881   9.519 -0.5272 -0.1620 -1.2173
  689MOL0     H92948   6.703   9.741   9.634  1.4661 -0.8216  0.3350
  689MOL0     H92949   6.465   9.667   9.571 -0.9477 -2.2968 -0.2854
  689MOL0     H92950   6.405   9.416   9.258  1.7994  1.7138  1.4773
  689MOL0     H92951   6.393   9.269   9.361 -0.4887 -0.3824 -1.2006
  689MOL0     H92952   6.160   9.280   9.383  0.9090 -0.3826  0.1207
  689MOL0     H92953   6.174   9.453   9.417  2.6679  0.6145 -0.1348
  689MOL0     H92954   6.207   9.502   9.181 -0.5092 -0.0275 -1.6534
  689MOL0     H92955   6.183   9.332   9.144 -0.0382  1.9037 -2.5047
  689MOL0     H92956   5.955   9.515   9.270 -2.2343  0.5628 -2.5506
  689MOL0     H92957   5.969   9.441   9.103  1.4137 -2.2633 -0.9901
  689MOL0     H92958   5.992   9.220   9.209  0.6587  2.2905 -2.3975
  689MOL0     H92959   5.921   9.302   9.352  0.8047  0.0794  0.3568
  689MOL0     H92960   5.800   9.296   9.078  5.5711 -1.9317 -0.1452
  689MOL0     H92961   5.745   9.189   9.212 -0.5295 -0.0690 -1.2019
  689MOL0     H92962   5.583   9.336   9.229  0.6645 -0.2837  3.5673
  689MOL0     H92963   5.692   9.412   9.332 -0.2748 -2.3108  0.4619
  689MOL0     H92964   5.655   9.487   9.035 -1.3586 -1.7273  0.6609
  689MOL0     H92965   5.765   9.576   9.149  1.3784 -1.1651  4.1193
  689MOL0     H92966   5.526   9.746   9.039  1.4551 -1.0622 -0.7022
  689MOL0     H92967   5.419   9.980   9.341 -2.1032  1.9813 -0.0240
  689MOL0     H92968   5.494   9.994   9.190  0.5787  1.2412  2.8813
  689MOL0     H92969   5.278   9.902   9.078  3.4603  3.1153 -1.1756
  689MOL0     H92970   5.250  10.026   9.198  0.2615 -0.8285  2.2539
  689MOL0     H92971   5.191   9.850   9.375  0.4036  1.1329  0.3478
  689MOL0     H92972   5.224   9.723   9.251 -1.2924 -0.8426 -0.3415
  689MOL0     H92973   5.005   9.932   9.239  1.1612 -0.5177  0.5581
  689MOL0     H92974   4.985   9.764   9.284 -1.8959  2.5510  1.7122
  689MOL0     H92975   4.785   9.810   9.189  1.0260 -2.5887 -0.5919
  689MOL0     H92976   4.535   9.804   9.178  1.3175 -0.6829 -0.2299
  689MOL0     H92977   4.543   9.981   9.186 -0.6488  0.0731 -1.1915
  689MOL0     H92978   4.466   9.900   9.048  0.5201 -1.6831 -1.5864
  689MOL0     H92979   4.366  10.078   8.647 -0.1880 -1.9188  0.7276
  689MOL0     H92980   4.145  10.154   8.576  0.6273  0.8032 -0.7172
  689MOL0     H92981   3.976  10.261   8.529  0.4678  0.7844 -0.7725
  689MOL0     H92982   3.872  10.134   8.597  0.1531  0.2301 -5.0599
  689MOL0     H92983   3.819  10.424   8.614 -0.7490 -0.9726  1.6023
  689MOL0     H92984   3.742  10.324   8.488 -3.3854  2.1726  1.1893
  689MOL0     H92985   3.707  10.286   8.783  2.2163  1.8397  0.1025
  689MOL0     H92986   3.630  10.189   8.664 -0.6459 -0.4572  3.5073
  689MOL0     H92987   3.593  10.485   8.646 -3.0127  1.0255  0.3130
  689MOL0     H92988   3.502  10.350   8.570  2.0262 -5.0160 -0.3208
  689MOL0     H92989   3.392  10.479   8.757 -0.1017 -0.8979 -1.6376
  689MOL0     H92990   3.511  10.420   8.874 -1.3627 -0.6940  0.8373
  689MOL0     H92991   3.327  10.233   8.710  1.1069  1.2825 -0.1985
  689MOL0     H92992   3.440  10.184   8.833  0.1248 -0.5877  0.0780
  689MOL0     H92993   3.207  10.205   8.924  1.0357 -1.5301 -1.8557
  689MOL0     H92994   3.206  10.373   8.882 -1.1854 -1.6227  0.2200
  689MOL0     H92995   3.395  10.408   9.056 -2.4098  3.0831  1.9676
  689MOL0     H92996   3.359  10.253   9.122 -0.4649 -0.2281  0.1703
  689MOL0     H92997   4.067  10.294   8.983 -0.2881  1.0374 -0.3609
  689MOL0     H92998   4.286  10.206   9.052  0.5940 -2.4428  0.8019
  689MOL0     H92999   4.801   9.968   8.725 -1.3237 -1.5177  0.5148
  689MOL0     H93000   4.996   9.840   8.826  0.3225  3.3450 -1.6329
  689MOL0     H93001   6.607   9.354   9.344 -1.2758  1.8728 -0.8581
  689MOL0     H93002   6.846   9.433   9.375 -0.9212  0.4687 -1.7424
  689MOL0     H93003   7.329   9.630   9.454 -0.0602  1.0486 -1.5406
  689MOL0     H93004   7.481   9.817   9.534  0.6282  0.1755 -3.1884
  689MOL0     H93005   7.320  10.179   9.453  0.8437 -1.1781 -2.0020
  689MOL0     H93006   7.440  10.259   9.552 -1.0346 -1.4245  2.6922
  689MOL0     H93007   7.514  10.241   9.305  3.0191  0.4866  1.1530
  689MOL0     H93008   7.512  10.059   9.329 -2.1557 -1.0577  0.3236
  689MOL0     H93009   7.685  10.118   9.522  0.2900  0.6266 -0.2036
  689MOL0     H93010   7.675  10.282   9.460 -2.2449  0.7559  0.0725
  689MOL0     H93011   7.816  10.227   9.274  2.1042 -1.3471 -0.3027
  689MOL0     H93012   7.748  10.070   9.247  1.8000  1.3859 -1.4050
  689MOL0     H93013   8.063   9.991   9.509 -0.5601  0.5361  2.2338
  689MOL0     H93014   7.147  10.077   9.583 -2.5171 -1.0697 -0.6636
  689MOL0     H93015   6.991   9.902   9.522 -0.2373  1.3657  1.6892
  690MOL0     O93016   6.613   0.247   2.012 -0.7115 -0.2621  0.6805
  690MOL0     C93017   6.633   0.293   2.122  0.4023  0.2709  0.1718
  690MOL0     O93018   6.534   0.350   2.207 -0.4593  1.0362 -0.1482
  690MOL0     C93019   6.406   0.370   2.162  0.5591  0.8003 -0.6788
  690MOL0     C93020   6.338   0.474   2.225  0.0742  0.3814 -0.1935
  690MOL0     C93021   6.201   0.492   2.190  0.0288  0.8696 -0.6221
  690MOL0     C93022   6.139   0.414   2.089 -0.0945 -0.1729  0.1439
  690MOL0     O93023   6.007   0.433   2.049  0.0967 -0.4109  0.1937
  690MOL0     C93024   5.914   0.528   2.114 -0.0254  0.3433 -0.0698
  690MOL0     C93025   5.786   0.508   2.041 -0.6448  0.0299 -0.4730
  690MOL0     C93026   5.689   0.614   2.080 -0.1240 -0.9296  0.2995
  690MOL0     C93027   5.552   0.622   1.994  0.1272 -0.2296  0.1095
  690MOL0     C93028   5.478   0.493   2.015 -0.2012  0.2360 -0.0520
  690MOL0     C93029   5.354   0.507   1.939 -0.0180 -1.0357 -0.5289
  690MOL0     C93030   5.267   0.387   1.935  0.5240  0.0082 -0.7891
  690MOL0     C93031   5.120   0.431   1.895 -0.5098 -0.0169 -0.6658
  690MOL0     N93032   5.038   0.318   1.853 -0.3139  0.5704  0.6759
  690MOL0     C93033   5.048   0.233   1.744  0.1359  0.1694  0.9367
  690MOL0     C93034   4.935   0.151   1.737  0.1741 -1.1099 -0.0994
  690MOL0     C93035   4.888   0.038   1.647  0.2803  0.1478  0.3936
  690MOL0     C93036   4.798  -0.063   1.732 -1.1651  0.0224  0.5294
  690MOL0     C93037   4.729  -0.177   1.654 -0.0585 -0.6565  0.3255
  690MOL0     C93038   4.589  -0.136   1.598  1.0237  0.6869 -0.5581
  690MOL0     O93039   4.527  -0.257   1.546 -0.0368 -1.2150  0.0617
  690MOL0     C93040   4.390  -0.248   1.520  0.1570  0.4984  0.1348
  690MOL0     C93041   4.311  -0.369   1.526  0.4696  0.3697  0.6240
  690MOL0     C93042   4.173  -0.368   1.497  0.1745  0.3401 -0.1464
  690MOL0     C93043   4.100  -0.508   1.494  0.3329 -0.7503 -0.1360
  690MOL0     C93044   4.108  -0.245   1.485  1.5084 -1.2357 -0.1619
  690MOL0     C93045   3.954  -0.225   1.480 -0.7115 -0.5402  0.2463
  690MOL0     O93046   3.874  -0.333   1.470  0.6957  0.5869 -0.2516
  690MOL0     C93047   3.735  -0.342   1.484  0.2752  0.2847  0.1816
  690MOL0     C93048   3.649  -0.242   1.539  0.1406 -0.7821  0.4776
  690MOL0     C93049   3.509  -0.254   1.537 -0.3336 -0.3334 -0.4985
  690MOL0     C93050   3.452  -0.374   1.515 -0.1596 -0.4787 -0.4013
  690MOL0     O93051   3.312  -0.397   1.513 -0.0842 -0.4779 -0.1542
  690MOL0     C93052   3.219  -0.291   1.541 -0.1862  0.1501 -1.0524
  690MOL0     C93053   3.082  -0.342   1.478  0.3195 -0.2230  0.7429
  690MOL0     C93054   2.969  -0.236   1.498  0.1911  0.9166 -0.6256
  690MOL0     C93055   2.828  -0.299   1.498 -0.7649 -0.1408  0.5737
  690MOL0     C93056   2.719  -0.199   1.528  0.2485 -0.1924 -0.5761
  690MOL0     C93057   2.581  -0.254   1.494  0.0867  0.1193 -0.1139
  690MOL0     C93058   2.472  -0.174   1.568  0.6111 -0.1442 -0.1255
  690MOL0     C93059   2.330  -0.201   1.522  0.6470  0.1699  0.5382
  690MOL0    Cl93060   2.279  -0.360   1.566  0.1686 -0.0401  0.0165
  690MOL0     C93061   3.538  -0.484   1.491 -0.4016 -0.0912  0.4747
  690MOL0     C93062   3.675  -0.465   1.474 -0.0492 -0.0454  0.4951
  690MOL0     O93063   3.915  -0.107   1.475  0.2740  0.2222 -0.1760
  690MOL0     C93064   4.184  -0.126   1.491  0.0837 -0.0431  0.6124
  690MOL0     C93065   4.319  -0.126   1.502 -0.6236 -0.5790  0.7401
  690MOL0     N93066   4.861   0.197   1.843  0.2613 -0.2948 -0.4708
  690MOL0     N93067   4.922   0.284   1.905  0.1097 -0.3536  0.1476
  690MOL0     C93068   6.204   0.308   2.031  0.7782 -0.6062  0.5349
  690MOL0     C93069   6.338   0.294   2.062  0.1866  0.2206 -0.6088
  690MOL0     C93070   6.771   0.299   2.159  0.3495  0.0743 -0.6034
  690MOL0     C93071   6.873   0.250   2.076 -0.8180  0.1506  0.0180
  690MOL0     C93072   7.008   0.240   2.123 -0.1818  0.3237  0.2759
  690MOL0     C93073   7.034   0.280   2.249 -0.7070  0.2694  0.0519
  690MOL0     O93074   7.169   0.265   2.278 -0.6962 -0.0874 -0.4235
  690MOL0     C93075   7.229   0.322   2.398  0.2912 -0.4248 -0.5661
  690MOL0     C93076   7.379   0.280   2.401  0.4522  0.0703 -0.0018
  690MOL0     C93077   7.452   0.313   2.529 -0.4529  0.0925  0.5862
  690MOL0     C93078   7.597   0.250   2.523  0.5199 -0.1245 -0.9064
  690MOL0     C93079   7.643   0.230   2.655  0.4828  0.3046 -0.0191
  690MOL0     C93080   7.684   0.198   2.769  0.2774  0.7834  0.2537
  690MOL0     C93081   6.937   0.331   2.331 -0.6537  0.5147 -0.6875
  690MOL0     C93082   6.801   0.331   2.295 -1.3106  0.2928 -0.6041
  690MOL0     H93083   6.368   0.534   2.311 -1.7013 -0.4144  1.0461
  690MOL0     H93084   6.139   0.566   2.240  0.0821 -0.2843  1.2577
  690MOL0     H93085   5.900   0.517   2.222 -0.6115 -1.0159 -0.2654
  690MOL0     H93086   5.948   0.631   2.103  1.6572  0.1194  2.2236
  690MOL0     H93087   5.807   0.525   1.935  0.1069  1.0537 -0.1733
  690MOL0     H93088   5.760   0.404   2.059  0.7924 -0.0492  1.5530
  690MOL0     H93089   5.658   0.599   2.184 -2.6375  1.2189 -0.0258
  690MOL0     H93090   5.742   0.709   2.085  0.0983 -1.0318 -0.1035
  690MOL0     H93091   5.491   0.702   2.038  1.2542 -0.0130  1.3608
  690MOL0     H93092   5.590   0.647   1.895  2.0562  0.3669  0.9355
  690MOL0     H93093   5.543   0.414   1.976  0.0306 -1.0226  2.6905
  690MOL0     H93094   5.456   0.467   2.119  1.1727  3.4182  1.1405
  690MOL0     H93095   5.297   0.589   1.983  1.0092 -0.9619  0.7520
  690MOL0     H93096   5.372   0.551   1.841 -3.4115  1.2701 -0.2897
  690MOL0     H93097   5.313   0.308   1.876  1.6998 -0.4523  0.6895
  690MOL0     H93098   5.239   0.341   2.030 -1.5607 -1.9035 -2.2184
  690MOL0     H93099   5.141   0.496   1.809 -0.8963  1.3575  0.2498
  690MOL0     H93100   5.082   0.498   1.972 -0.3757 -2.8497  2.0656
  690MOL0     H93101   5.136   0.228   1.679  1.1979  2.3289  2.1025
  690MOL0     H93102   4.826   0.077   1.566 -0.2896  0.2697  0.8834
  690MOL0     H93103   4.972  -0.019   1.605 -1.0459  0.5483 -3.0721
  690MOL0     H93104   4.720  -0.008   1.784  0.0638 -0.5586  3.1710
  690MOL0     H93105   4.862  -0.113   1.806  0.9623  1.5949 -0.1202
  690MOL0     H93106   4.712  -0.265   1.716 -0.5600 -0.3765  0.5935
  690MOL0     H93107   4.793  -0.203   1.570 -0.6285  0.4617 -0.4771
  690MOL0     H93108   4.586  -0.058   1.521 -3.5670  0.7138 -0.5905
  690MOL0     H93109   4.543  -0.106   1.692  6.0327 -1.7399  3.1456
  690MOL0     H93110   4.367  -0.452   1.568 -0.7804 -0.3729  0.8679
  690MOL0     H93111   4.049  -0.529   1.589 -1.6427  0.7526 -0.7934
  690MOL0     H93112   4.030  -0.504   1.410 -1.2736  2.8718  1.1552
  690MOL0     H93113   4.181  -0.581   1.490 -0.5682 -1.8412  0.6818
  690MOL0     H93114   3.698  -0.154   1.578 -0.7340 -0.6171  1.2350
  690MOL0     H93115   3.446  -0.169   1.564  1.4124  1.2084 -1.0858
  690MOL0     H93116   3.210  -0.283   1.650  1.7204  1.1505 -0.9272
  690MOL0     H93117   3.246  -0.193   1.501  1.1340  0.3553  0.2506
  690MOL0     H93118   3.092  -0.380   1.375  1.1898 -3.2881  1.8410
  690MOL0     H93119   3.053  -0.435   1.528 -0.9710  0.1205  0.6809
  690MOL0     H93120   2.969  -0.152   1.428 -0.2325  3.1527  1.8619
  690MOL0     H93121   2.988  -0.190   1.596 -1.6063  1.8440 -0.6688
  690MOL0     H93122   2.818  -0.347   1.400 -0.4803  1.2972 -0.1883
  690MOL0     H93123   2.832  -0.378   1.573  1.6363 -0.7864 -0.1379
  690MOL0     H93124   2.740  -0.116   1.460  1.3288 -1.8017 -2.2897
  690MOL0     H93125   2.726  -0.161   1.631  0.5700 -0.3855 -0.5268
  690MOL0     H93126   2.561  -0.261   1.386 -2.2784 -1.3783  0.3451
  690MOL0     H93127   2.577  -0.358   1.530  2.8887 -0.5573 -1.4553
  690MOL0     H93128   2.482  -0.066   1.561 -2.9711  0.2578 -0.8501
  690MOL0     H93129   2.475  -0.205   1.673 -1.4323 -1.9503 -0.5268
  690MOL0     H93130   2.329  -0.181   1.414  0.2823  0.2519  0.5556
  690MOL0     H93131   2.255  -0.130   1.557 -0.6107  0.1097 -1.8122
  690MOL0     H93132   3.494  -0.582   1.476 -1.1687  0.2974  0.1741
  690MOL0     H93133   3.739  -0.549   1.449  0.2864  0.5169 -0.5588
  690MOL0     H93134   4.135  -0.029   1.491  0.8696  0.3596  0.3472
  690MOL0     H93135   4.379  -0.035   1.500 -1.0295 -0.3148 -0.8914
  690MOL0     H93136   6.165   0.242   1.954  2.4202 -0.5318 -0.4087
  690MOL0     H93137   6.385   0.199   2.038 -2.7291 -3.0496  4.6480
  690MOL0     H93138   6.844   0.226   1.974 -1.0348 -1.7832  0.4989
  690MOL0     H93139   7.070   0.192   2.048 -4.5489  1.1000 -4.3706
  690MOL0     H93140   7.214   0.430   2.406  0.9330 -0.4443  1.3164
  690MOL0     H93141   7.176   0.281   2.485  1.0114 -2.2276 -0.9377
  690MOL0     H93142   7.438   0.314   2.315  0.7286 -0.1125  0.1103
  690MOL0     H93143   7.385   0.171   2.403  0.8953  0.0987  0.5365
  690MOL0     H93144   7.384   0.282   2.609 -2.6955  0.6272 -1.0153
  690MOL0     H93145   7.473   0.420   2.541  1.4501 -0.3382  1.5148
  690MOL0     H93146   7.671   0.317   2.477 -0.0459  2.3589  1.5043
  690MOL0     H93147   7.613   0.155   2.471  4.2724 -1.2023  1.8314
  690MOL0     H93148   7.717   0.173   2.867 -1.1994  1.1956  0.8832
  690MOL0     H93149   6.968   0.356   2.432  1.3869 -2.8323 -0.3171
  690MOL0     H93150   6.726   0.367   2.365 -0.6263  0.1260  0.2312
  691MOL0     O93151   0.484   3.868   7.296 -0.3401 -0.3327 -0.2805
  691MOL0     C93152   0.499   3.854   7.177 -0.3363  0.9642  0.6940
  691MOL0     O93153   0.413   3.905   7.087  0.7192  0.0847  1.1923
  691MOL0     C93154   0.304   3.983   7.116 -0.6370  0.5046  0.0382
  691MOL0     C93155   0.281   4.099   7.044 -0.0135  0.0949  0.1281
  691MOL0     C93156   0.170   4.194   7.072  0.4187  0.5777 -1.0041
  691MOL0     C93157   0.082   4.163   7.181  0.2004 -0.2160 -0.0904
  691MOL0     O93158  -0.022   4.235   7.227  0.2452  0.0393  0.0331
  691MOL0     C93159  -0.017   4.378   7.212  0.4648 -0.5537 -0.1263
  691MOL0     C93160  -0.111   4.434   7.321 -0.0413 -0.0260 -0.0578
  691MOL0     C93161  -0.254   4.392   7.303 -0.0958 -0.2577  0.5471
  691MOL0     C93162  -0.355   4.492   7.244 -0.6504  0.2448 -0.7248
  691MOL0     C93163  -0.381   4.464   7.102  0.5189  0.2114  0.2086
  691MOL0     C93164  -0.508   4.534   7.046 -0.0182  1.4207 -0.5688
  691MOL0     C93165  -0.505   4.541   6.896 -0.8978 -0.0782  0.2286
  691MOL0     C93166  -0.617   4.638   6.841  0.2731  0.1598 -0.5732
  691MOL0     N93167  -0.747   4.582   6.871  0.4730  0.5380 -0.5036
  691MOL0     C93168  -0.802   4.459   6.831 -0.4942  0.4783 -0.0233
  691MOL0     C93169  -0.920   4.447   6.893  0.4932  0.9599  0.6635
  691MOL0     C93170  -1.012   4.334   6.881 -0.5444 -0.2247  0.3041
  691MOL0     C93171  -1.094   4.348   6.750  0.1244 -0.2275 -0.0309
  691MOL0     C93172  -1.191   4.473   6.758 -0.2470 -0.2725  0.1353
  691MOL0     C93173  -1.299   4.475   6.654  0.7014 -0.0068 -0.6855
  691MOL0     O93174  -1.375   4.351   6.667 -0.4678 -0.0005  0.0858
  691MOL0     C93175  -1.507   4.370   6.629 -0.7191  0.1424 -0.2008
  691MOL0     C93176  -1.542   4.350   6.493 -0.5714 -0.2614 -0.1228
  691MOL0     C93177  -1.662   4.378   6.440 -0.2343 -0.2558 -0.3554
  691MOL0     C93178  -1.685   4.349   6.297 -0.1354  0.3339  0.3227
  691MOL0     C93179  -1.764   4.435   6.525 -0.7876  0.0077  1.4549
  691MOL0     C93180  -1.903   4.470   6.482 -0.2210  0.1207 -0.1607
  691MOL0     O93181  -1.988   4.505   6.580  0.4354  0.2247 -0.2579
  691MOL0     C93182  -2.121   4.524   6.556  0.2336  0.4571 -0.0997
  691MOL0     C93183  -2.178   4.656   6.545  0.3038 -0.1232  0.5250
  691MOL0     C93184  -2.319   4.661   6.515 -0.3312  0.1905 -0.0399
  691MOL0     C93185  -2.409   4.548   6.508 -1.0489 -0.1825  0.6102
  691MOL0     O93186  -2.538   4.560   6.477  1.0179  0.2552  0.2451
  691MOL0     C93187  -2.600   4.691   6.515 -0.2739  0.4153 -0.5388
  691MOL0     C93188  -2.747   4.690   6.548 -0.0011  0.4547 -0.0858
  691MOL0     C93189  -2.838   4.635   6.439 -0.8658 -0.0712  0.6106
  691MOL0     C93190  -2.975   4.671   6.454  0.3063  0.3198 -0.6200
  691MOL0     C93191  -3.061   4.609   6.339 -0.2978 -0.9901 -0.5385
  691MOL0     C93192  -3.207   4.600   6.392  0.2519  0.5548 -0.2640
  691MOL0     C93193  -3.307   4.536   6.298 -0.4683 -0.1758 -0.0098
  691MOL0     C93194  -3.345   4.638   6.188  0.7887  0.1496  0.5907
  691MOL0    Cl93195  -3.433   4.791   6.239 -0.0442  0.0659  0.1992
  691MOL0     C93196  -2.342   4.422   6.524 -0.0111  0.1502 -0.2838
  691MOL0     C93197  -2.207   4.411   6.552 -0.8531 -0.2408  0.3964
  691MOL0     O93198  -1.933   4.458   6.364  0.1019  0.3310 -0.5519
  691MOL0     C93199  -1.728   4.455   6.656  0.0336  0.2421 -0.7379
  691MOL0     C93200  -1.603   4.422   6.715  0.1299  0.7064 -0.0709
  691MOL0     N93201  -0.940   4.558   6.969 -0.0094 -0.3680  0.5814
  691MOL0     N93202  -0.837   4.631   6.958 -0.3619  0.0077 -0.2899
  691MOL0     C93203   0.111   4.049   7.253  0.4251 -0.1753 -0.3603
  691MOL0     C93204   0.222   3.959   7.222 -0.0186  0.2694 -0.1980
  691MOL0     C93205   0.611   3.754   7.127  0.2133 -0.2021 -0.7430
  691MOL0     C93206   0.645   3.750   6.992  0.5788  0.3494 -0.3713
  691MOL0     C93207   0.754   3.665   6.961  0.0175 -0.2294  0.1326
  691MOL0     C93208   0.832   3.600   7.050  1.1913  0.8416  0.9713
  691MOL0     O93209   0.949   3.532   7.008 -0.2250 -0.0845  0.7388
  691MOL0     C93210   1.030   3.559   6.886  0.2252 -0.0599  0.7014
  691MOL0     C93211   1.134   3.455   6.888  0.5734 -0.1579 -0.1429
  691MOL0     C93212   1.244   3.481   6.793 -0.1351 -0.4372 -0.2318
  691MOL0     C93213   1.211   3.538   6.652 -0.2469 -0.0273  0.8015
  691MOL0     C93214   1.325   3.526   6.569  0.4687 -0.3681  0.5876
  691MOL0     C93215   1.422   3.516   6.510 -0.0854  0.0836 -0.1386
  691MOL0     C93216   0.801   3.606   7.175  1.1187  0.2545 -0.0695
  691MOL0     C93217   0.681   3.680   7.220 -0.4102  0.2892 -0.4471
  691MOL0     H93218   0.328   4.103   6.947  2.3154  1.3308  1.2207
  691MOL0     H93219   0.150   4.280   7.010 -1.8999  0.6921 -0.1970
  691MOL0     H93220   0.084   4.416   7.229 -0.3849  1.0810  1.6318
  691MOL0     H93221  -0.044   4.408   7.110 -1.1688  1.6992  0.8805
  691MOL0     H93222  -0.091   4.383   7.416 -2.4827  1.0218  1.0966
  691MOL0     H93223  -0.111   4.543   7.328 -1.2998  0.0666 -1.3097
  691MOL0     H93224  -0.252   4.295   7.252  1.2304  0.8530 -1.6639
  691MOL0     H93225  -0.291   4.368   7.404 -2.5720  2.0091  0.2702
  691MOL0     H93226  -0.449   4.481   7.300 -0.6440 -1.0097 -0.9283
  691MOL0     H93227  -0.324   4.596   7.254  1.8060 -0.6212  4.0871
  691MOL0     H93228  -0.298   4.486   7.033 -3.3294  1.1366 -4.7212
  691MOL0     H93229  -0.396   4.356   7.092  1.2600 -0.0096  1.3391
  691MOL0     H93230  -0.604   4.494   7.081  1.1456  1.1578  2.6415
  691MOL0     H93231  -0.497   4.637   7.080 -0.0236  0.6173  2.1182
  691MOL0     H93232  -0.406   4.586   6.888 -0.8500  0.3103  2.3196
  691MOL0     H93233  -0.507   4.446   6.843 -1.7177  0.3870 -0.5969
  691MOL0     H93234  -0.604   4.652   6.733  2.2191 -1.8810 -0.6913
  691MOL0     H93235  -0.604   4.738   6.883 -0.9406 -0.3394  1.0883
  691MOL0     H93236  -0.761   4.401   6.749  0.1125  1.8746 -0.7322
  691MOL0     H93237  -0.955   4.241   6.876 -2.7712 -1.5607 -1.9922
  691MOL0     H93238  -1.081   4.336   6.966  0.7957  2.2385  1.4600
  691MOL0     H93239  -1.152   4.255   6.749  2.2821 -1.6542 -2.0981
  691MOL0     H93240  -1.035   4.366   6.660  0.0611 -0.5732 -0.1420
  691MOL0     H93241  -1.128   4.560   6.739  0.7074 -0.6095  1.5720
  691MOL0     H93242  -1.247   4.491   6.850 -0.1967 -0.2108  0.1534
  691MOL0     H93243  -1.264   4.478   6.550 -0.5545  1.2063 -1.1130
  691MOL0     H93244  -1.357   4.567   6.667 -0.3374 -0.8476  1.0400
  691MOL0     H93245  -1.460   4.319   6.429 -0.3762 -1.0177  0.4740
  691MOL0     H93246  -1.750   4.261   6.293 -0.3211  0.4493  0.7334
  691MOL0     H93247  -1.730   4.427   6.235 -0.3423 -1.0805 -1.3780
  691MOL0     H93248  -1.598   4.315   6.239 -1.0223 -0.1742 -0.7527
  691MOL0     H93249  -2.112   4.742   6.547  1.6421 -0.9182 -2.7723
  691MOL0     H93250  -2.352   4.764   6.500  1.7132  0.9120  0.0346
  691MOL0     H93251  -2.544   4.737   6.597  1.3948 -1.6322 -0.4391
  691MOL0     H93252  -2.600   4.760   6.430 -5.2671  0.7178 -0.5459
  691MOL0     H93253  -2.765   4.628   6.637  0.3873 -1.5361 -1.3195
  691MOL0     H93254  -2.775   4.794   6.567 -0.2149  0.6142 -1.2229
  691MOL0     H93255  -2.836   4.527   6.419  2.0152  0.3707 -2.4082
  691MOL0     H93256  -2.805   4.673   6.342  1.2199  0.9154  1.6386
  691MOL0     H93257  -3.017   4.626   6.545 -0.3203  0.0022 -1.0575
  691MOL0     H93258  -2.984   4.780   6.458 -0.8619  0.2740  3.9383
  691MOL0     H93259  -3.013   4.513   6.320  2.3048  0.6061 -2.5633
  691MOL0     H93260  -3.050   4.674   6.252 -1.5754  1.0305  0.7005
  691MOL0     H93261  -3.207   4.530   6.476 -3.3172  1.1420  0.3742
  691MOL0     H93262  -3.253   4.696   6.415 -1.5945  0.5965 -3.5594
  691MOL0     H93263  -3.399   4.506   6.350 -0.4352 -0.9358 -0.3719
  691MOL0     H93264  -3.261   4.449   6.251  1.1423  1.1116 -0.9327
  691MOL0     H93265  -3.396   4.575   6.114  1.6392  1.1848 -0.9365
  691MOL0     H93266  -3.255   4.677   6.140 -0.5943 -0.5311 -2.8844
  691MOL0     H93267  -2.387   4.325   6.507 -1.0019  0.5329  0.0892
  691MOL0     H93268  -2.162   4.314   6.567 -2.7233 -1.1467  0.3637
  691MOL0     H93269  -1.793   4.506   6.727  0.1639 -2.5117  1.5486
  691MOL0     H93270  -1.574   4.436   6.819 -0.6105 -1.1433  0.4271
  691MOL0     H93271   0.058   4.026   7.345  2.3863 -2.9997  0.1986
  691MOL0     H93272   0.245   3.868   7.277 -2.2794 -0.5069 -0.4560
  691MOL0     H93273   0.590   3.808   6.919  0.1029  0.3224 -0.0370
  691MOL0     H93274   0.796   3.664   6.861 -0.4106  0.7478 -0.0664
  691MOL0     H93275   0.967   3.540   6.799 -0.0191 -1.6184  1.1725
  691MOL0     H93276   1.068   3.661   6.878 -0.7471  0.1317 -2.9152
  691MOL0     H93277   1.095   3.360   6.849  1.9032 -0.2351 -1.4025
  691MOL0     H93278   1.176   3.436   6.987  0.7136  1.8221  0.1996
  691MOL0     H93279   1.314   3.397   6.788 -2.3891 -2.4298 -0.5332
  691MOL0     H93280   1.295   3.566   6.838 -1.0583  0.3026 -0.5496
  691MOL0     H93281   1.192   3.646   6.655 -1.5423 -0.2639  2.3412
  691MOL0     H93282   1.128   3.479   6.613 -1.2046  2.1054 -0.5843
  691MOL0     H93283   1.511   3.499   6.451 -0.0879 -2.3213  0.4602
  691MOL0     H93284   0.851   3.533   7.238  0.7537  1.8398  2.1871
  691MOL0     H93285   0.642   3.698   7.320  0.6506  1.8297 -0.2865
  692MOL0     O93286   1.942   6.002   2.899 -0.1024 -0.4434 -0.4884
  692MOL0     C93287   2.025   5.971   2.815  0.1453  0.3475 -0.2852
  692MOL0     O93288   1.998   5.947   2.689  0.7597  0.0087 -0.9252
  692MOL0     C93289   1.866   5.955   2.644 -0.4607  0.0026 -0.2599
  692MOL0     C93290   1.819   5.846   2.569 -0.5125 -0.1286 -0.6964
  692MOL0     C93291   1.691   5.848   2.519 -0.6100 -0.0486  0.3305
  692MOL0     C93292   1.607   5.967   2.530 -0.2402 -0.4471  0.1181
  692MOL0     O93293   1.483   5.978   2.472  0.4327  0.7465  0.4227
  692MOL0     C93294   1.406   5.855   2.492  0.7790  0.1349  0.0087
  692MOL0     C93295   1.251   5.883   2.480 -0.2987  0.5287 -0.4690
  692MOL0     C93296   1.225   5.955   2.348  0.6297 -0.1031  0.0234
  692MOL0     C93297   1.070   5.973   2.327  0.6812 -0.3234  0.1585
  692MOL0     C93298   1.033   6.066   2.210 -0.0554 -0.3596 -0.9366
  692MOL0     C93299   0.880   6.079   2.190  0.1051 -0.2878 -0.3380
  692MOL0     C93300   0.826   6.200   2.118 -0.9540 -0.0009  0.2502
  692MOL0     C93301   0.686   6.176   2.058 -0.0093  0.1533  0.3016
  692MOL0     N93302   0.688   6.084   1.942 -1.2515 -0.3654  0.3120
  692MOL0     C93303   0.663   5.948   1.941  0.1126 -0.5182 -0.0333
  692MOL0     C93304   0.649   5.921   1.805  0.7192  0.9598  0.4238
  692MOL0     C93305   0.618   5.784   1.751  0.1222  0.3501  0.1452
  692MOL0     C93306   0.537   5.703   1.862 -0.5864  0.4293  0.0467
  692MOL0     C93307   0.469   5.568   1.848 -0.2525 -0.7058  0.3579
  692MOL0     C93308   0.352   5.582   1.747  0.1867  0.4984 -0.0287
  692MOL0     O93309   0.272   5.463   1.733  0.0410  0.6249  0.2779
  692MOL0     C93310   0.148   5.479   1.679  0.1060 -0.4373  0.4841
  692MOL0     C93311   0.104   5.592   1.605  0.2856  0.3395  0.5734
  692MOL0     C93312  -0.021   5.601   1.542  1.0019  1.0463 -0.1274
  692MOL0     C93313  -0.048   5.716   1.454 -0.7146  0.5458 -1.1227
  692MOL0     C93314  -0.101   5.483   1.540 -0.1161  0.0159  0.0921
  692MOL0     C93315  -0.231   5.479   1.479  0.7086 -0.5748 -0.3430
  692MOL0     O93316  -0.300   5.591   1.470  0.1765  0.2980  0.2193
  692MOL0     C93317  -0.417   5.585   1.394  0.0794  0.4334 -0.3243
  692MOL0     C93318  -0.415   5.614   1.252 -0.0969  0.9345 -0.7367
  692MOL0     C93319  -0.526   5.601   1.176  0.4469  0.6700 -0.6526
  692MOL0     C93320  -0.647   5.556   1.229  0.6119  0.0238  0.4353
  692MOL0     O93321  -0.762   5.547   1.147 -0.4542 -0.2041 -0.2334
  692MOL0     C93322  -0.754   5.460   1.034 -0.3047  0.6210  0.2816
  692MOL0     C93323  -0.882   5.398   0.982  0.1065  0.3383  0.2660
  692MOL0     C93324  -0.846   5.311   0.854  0.0633  0.4729  0.0055
  692MOL0     C93325  -0.982   5.266   0.791  0.7459 -0.3984  0.0487
  692MOL0     C93326  -0.966   5.219   0.651  0.1761  0.1521 -0.1507
  692MOL0     C93327  -1.107   5.193   0.597 -0.2941  0.0022 -0.1841
  692MOL0     C93328  -1.098   5.104   0.470 -0.0415 -0.2277 -0.1422
  692MOL0     C93329  -1.090   4.955   0.508  0.2257  0.7932 -0.8182
  692MOL0    Cl93330  -1.036   4.860   0.366 -0.2968  0.1978 -0.1947
  692MOL0     C93331  -0.648   5.531   1.363 -0.0726 -1.3496  0.2537
  692MOL0     C93332  -0.538   5.542   1.449 -0.5251  0.3300 -0.0266
  692MOL0     O93333  -0.278   5.369   1.450  0.1775 -0.0184  0.0152
  692MOL0     C93334  -0.050   5.369   1.612  0.2886  0.2930 -1.0820
  692MOL0     C93335   0.074   5.367   1.674 -0.5794  0.0309 -0.1035
  692MOL0     N93336   0.670   6.033   1.735 -0.1546  0.2675 -0.7012
  692MOL0     N93337   0.707   6.125   1.814  0.4165  0.0895 -0.2512
  692MOL0     C93338   1.659   6.078   2.592 -0.1784 -0.2481 -0.3435
  692MOL0     C93339   1.786   6.072   2.653  0.2707  0.9738  0.7141
  692MOL0     C93340   2.169   5.956   2.864 -0.0190 -0.5650  0.0779
  692MOL0     C93341   2.263   5.901   2.769  0.3663 -0.2127 -0.1802
  692MOL0     C93342   2.388   5.886   2.808  0.3312  0.0182  0.1853
  692MOL0     C93343   2.434   5.918   2.939 -0.0340 -0.3738  0.3776
  692MOL0     O93344   2.562   5.886   2.976  0.2822 -0.3620 -0.0222
  692MOL0     C93345   2.660   5.852   2.875  0.0814 -0.1986 -0.4412
  692MOL0     C93346   2.804   5.853   2.938  0.4045 -0.0592  0.2371
  692MOL0     C93347   2.806   5.780   3.071  0.8250 -0.5404 -0.6805
  692MOL0     C93348   2.948   5.767   3.139  0.1444 -0.1284 -0.0615
  692MOL0     C93349   3.009   5.893   3.179 -0.2715  0.0158 -0.7126
  692MOL0     C93350   3.079   5.995   3.202 -0.4294  0.9192 -0.0946
  692MOL0     C93351   2.345   5.981   3.032  0.1653  0.2884  0.1256
  692MOL0     C93352   2.207   6.004   2.989 -0.6129  0.5513 -0.5511
  692MOL0     H93353   1.880   5.756   2.569  2.0877  1.4898  1.7678
  692MOL0     H93354   1.657   5.758   2.468  0.6193  1.1530 -2.8609
  692MOL0     H93355   1.433   5.776   2.422  0.4718 -0.6977  0.8083
  692MOL0     H93356   1.431   5.821   2.593  1.1760  1.1191  0.2461
  692MOL0     H93357   1.200   5.787   2.493  2.3115 -1.1995 -2.1714
  692MOL0     H93358   1.215   5.951   2.558  1.1376  2.0852 -1.0968
  692MOL0     H93359   1.279   6.048   2.333 -0.7366  0.6729 -0.2472
  692MOL0     H93360   1.242   5.887   2.264  0.3232 -0.1878  0.0293
  692MOL0     H93361   1.020   5.877   2.313 -1.3943  0.8521 -0.8385
  692MOL0     H93362   1.025   6.024   2.412  0.2445  1.9558 -1.3728
  692MOL0     H93363   1.083   6.157   2.245  1.0769 -0.9779 -0.9032
  692MOL0     H93364   1.072   6.023   2.117 -0.7823 -1.6421 -0.6711
  692MOL0     H93365   0.850   5.985   2.144  0.1489 -0.3311 -0.2782
  692MOL0     H93366   0.833   6.082   2.289  0.9248 -2.5677  0.1616
  692MOL0     H93367   0.822   6.274   2.198  0.5468 -0.3426  0.6654
  692MOL0     H93368   0.887   6.231   2.032 -2.9479  0.8670 -0.9250
  692MOL0     H93369   0.638   6.269   2.024  1.5123  0.7401 -0.3311
  692MOL0     H93370   0.619   6.136   2.134  2.9391 -1.4429  2.2503
  692MOL0     H93371   0.681   5.885   2.027  5.7799 -0.2362 -0.6013
  692MOL0     H93372   0.554   5.785   1.663 -0.2752  1.5663  0.4258
  692MOL0     H93373   0.712   5.753   1.703 -0.4922  1.3799 -1.8428
  692MOL0     H93374   0.455   5.769   1.893  0.9168  1.1926  2.7098
  692MOL0     H93375   0.606   5.689   1.945 -0.4353 -1.4477 -0.3378
  692MOL0     H93376   0.415   5.540   1.939  0.0246 -0.3883  0.6222
  692MOL0     H93377   0.540   5.491   1.815 -1.8154 -0.6035 -3.9109
  692MOL0     H93378   0.397   5.622   1.656  1.1248 -1.6493 -0.5797
  692MOL0     H93379   0.282   5.654   1.790  1.9415  1.9218  0.5671
  692MOL0     H93380   0.156   5.688   1.605 -2.6414  2.0541  1.4492
  692MOL0     H93381  -0.117   5.785   1.506 -2.7257 -2.4543  0.4996
  692MOL0     H93382   0.039   5.777   1.428 -0.4176  1.3493  1.4232
  692MOL0     H93383  -0.092   5.677   1.362  0.0942 -0.3630 -1.1388
  692MOL0     H93384  -0.331   5.639   1.188 -0.1289  1.4028 -0.5989
  692MOL0     H93385  -0.511   5.621   1.070  0.4305  2.2615 -0.3820
  692MOL0     H93386  -0.704   5.515   0.955 -1.4678  1.1434 -0.1086
  692MOL0     H93387  -0.684   5.376   1.046 -2.2136 -1.3859 -1.7898
  692MOL0     H93388  -0.938   5.332   1.049 -0.8047  0.3066 -0.5027
  692MOL0     H93389  -0.944   5.484   0.956  2.0905  1.3475 -1.4014
  692MOL0     H93390  -0.789   5.222   0.885 -0.1277  0.3192 -0.0835
  692MOL0     H93391  -0.787   5.371   0.784 -0.8494 -0.2700 -1.4681
  692MOL0     H93392  -1.027   5.188   0.853 -3.4981  0.5054 -1.5309
  692MOL0     H93393  -1.048   5.353   0.793 -0.0776 -0.7777 -3.6627
  692MOL0     H93394  -0.908   5.127   0.645  0.8808  0.6207 -0.5590
  692MOL0     H93395  -0.922   5.301   0.593  1.3782 -1.1368 -1.1022
  692MOL0     H93396  -1.167   5.145   0.675  0.8657  2.7961  2.6971
  692MOL0     H93397  -1.152   5.288   0.567  0.1812  0.4548  0.5007
  692MOL0     H93398  -1.005   5.126   0.418 -0.6852  1.0799 -0.7899
  692MOL0     H93399  -1.177   5.119   0.395  1.3676 -2.4533 -2.2055
  692MOL0     H93400  -1.177   4.911   0.557  2.2536 -1.2814  1.1775
  692MOL0     H93401  -1.012   4.954   0.584 -1.3799  0.5572  0.9020
  692MOL0     H93402  -0.742   5.515   1.415 -0.1863  0.6791  0.7330
  692MOL0     H93403  -0.558   5.523   1.554  2.2094  0.2945  0.5802
  692MOL0     H93404  -0.109   5.279   1.601  0.0011  0.2937  0.2661
  692MOL0     H93405   0.107   5.271   1.713 -1.1946 -0.4775 -0.7938
  692MOL0     H93406   1.597   6.166   2.607 -1.3993 -1.3037  1.2557
  692MOL0     H93407   1.819   6.152   2.719  0.0054  3.0065 -1.4893
  692MOL0     H93408   2.223   5.863   2.676 -2.4410  0.6631  0.5696
  692MOL0     H93409   2.456   5.834   2.741  0.8186 -1.3300  1.6694
  692MOL0     H93410   2.645   5.750   2.838  0.3640 -1.3470  2.3411
  692MOL0     H93411   2.666   5.915   2.785  0.3311 -0.3824 -0.5576
  692MOL0     H93412   2.835   5.956   2.958 -0.5498  0.3786 -0.4571
  692MOL0     H93413   2.875   5.801   2.873 -1.4496  1.0741 -2.9119
  692MOL0     H93414   2.762   5.680   3.064 -1.3730  0.2238  1.1563
  692MOL0     H93415   2.742   5.834   3.141  1.2401 -0.5997 -0.2527
  692MOL0     H93416   3.016   5.717   3.070  0.0565  0.9322 -0.9579
  692MOL0     H93417   2.939   5.704   3.228  1.6344 -0.5603 -0.1926
  692MOL0     H93418   3.143   6.077   3.228 -1.3732  1.8382 -0.6000
  692MOL0     H93419   2.385   6.022   3.125 -0.4143 -0.4575  0.7240
  692MOL0     H93420   2.143   6.058   3.059  0.9958  1.5576  0.1888
  693MOL0     O93421   2.807  10.648   1.563 -0.2017  1.0255 -0.2565
  693MOL0     C93422   2.843  10.583   1.464 -0.3484 -0.2112 -0.0051
  693MOL0     O93423   2.760  10.538   1.367 -0.8776 -0.6695  0.0235
  693MOL0     C93424   2.626  10.569   1.367 -0.1681  0.6052  0.2304
  693MOL0     C93425   2.535  10.476   1.404 -0.3641  0.2280  0.3910
  693MOL0     C93426   2.398  10.507   1.400 -0.0393  0.4097  0.3618
  693MOL0     C93427   2.352  10.617   1.337  0.0743  0.2172  0.5296
  693MOL0     O93428   2.219  10.626   1.319 -0.1203  0.0461 -0.1842
  693MOL0     C93429   2.159  10.757   1.289  0.2652  1.1348 -0.4342
  693MOL0     C93430   2.009  10.751   1.287  0.5294  0.2385  0.8222
  693MOL0     C93431   1.948  10.726   1.419 -0.1132  0.6255  0.0897
  693MOL0     C93432   1.799  10.733   1.410  2.0063 -1.2427 -0.1234
  693MOL0     C93433   1.727  10.714   1.544 -0.0252  0.2349 -1.2612
  693MOL0     C93434   1.587  10.766   1.542 -0.8038 -0.0466  0.5413
  693MOL0     C93435   1.510  10.785   1.685 -0.2696  0.1911  0.9529
  693MOL0     C93436   1.372  10.868   1.685 -0.1709 -0.3435  0.4173
  693MOL0     N93437   1.301  10.864   1.816 -0.0532  0.1449  0.0588
  693MOL0     C93438   1.362  10.882   1.938  0.2670 -0.3070  0.1804
  693MOL0     C93439   1.263  10.849   2.030 -0.7763  0.2142  0.2050
  693MOL0     C93440   1.288  10.839   2.179 -0.1805  0.9384  0.2887
  693MOL0     C93441   1.246  10.971   2.247  0.1166  0.0616 -0.3583
  693MOL0     C93442   1.093  10.986   2.293  0.2102  0.8390  0.7952
  693MOL0     C93443   0.990  10.942   2.191  0.2079 -0.6424  0.4070
  693MOL0     O93444   0.860  10.984   2.209 -0.5138 -0.6809 -0.6402
  693MOL0     C93445   0.762  10.946   2.121 -0.0299  0.5557 -1.2828
  693MOL0     C93446   0.793  10.908   1.990 -0.1318 -0.2221  0.1739
  693MOL0     C93447   0.696  10.893   1.889  0.2237  0.0132  0.3190
  693MOL0     C93448   0.744  10.852   1.751  0.0823 -0.4542 -0.0921
  693MOL0     C93449   0.564  10.906   1.926  0.0541  0.6342  0.1286
  693MOL0     C93450   0.438  10.877   1.851 -0.0624  0.0240  0.1217
  693MOL0     O93451   0.322  10.863   1.918 -0.3737 -0.3793 -0.2131
  693MOL0     C93452   0.201  10.835   1.856  0.2354 -0.3344  0.0041
  693MOL0     C93453   0.167  10.806   1.720  0.5658  0.0691 -0.2343
  693MOL0     C93454   0.042  10.760   1.685  0.2593 -0.1898 -0.3756
  693MOL0     C93455  -0.062  10.737   1.780  0.5015  0.2004  0.5859
  693MOL0     O93456  -0.193  10.703   1.753 -0.3570  0.4523  0.3552
  693MOL0     C93457  -0.241  10.655   1.621  0.1537 -0.5065 -0.8716
  693MOL0     C93458  -0.387  10.609   1.631 -0.4869  0.0359  0.6799
  693MOL0     C93459  -0.493  10.714   1.611  0.6894 -0.8438  0.4391
  693MOL0     C93460  -0.634  10.666   1.640 -0.9068  0.2951 -1.0889
  693MOL0     C93461  -0.732  10.784   1.652  0.5479  0.1588 -0.4707
  693MOL0     C93462  -0.732  10.871   1.525  0.8037 -0.3071  0.0716
  693MOL0     C93463  -0.862  10.959   1.503  0.3546 -0.0312  0.2122
  693MOL0     C93464  -0.847  11.034   1.373 -0.2066  0.8850 -0.1740
  693MOL0    Cl93465  -0.713  11.152   1.375 -0.3271  0.4708 -0.4997
  693MOL0     C93466  -0.020  10.772   1.910  0.3966 -0.0883  0.1984
  693MOL0     C93467   0.101  10.826   1.951  0.0500 -0.8856  0.5352
  693MOL0     O93468   0.439  10.869   1.727 -0.1392 -0.0597  0.4608
  693MOL0     C93469   0.534  10.951   2.064  0.0413  0.1811  0.1388
  693MOL0     C93470   0.630  10.964   2.164  0.3325  0.3451 -0.0068
  693MOL0     N93471   1.156  10.798   1.961 -0.6566 -0.0166 -0.2378
  693MOL0     N93472   1.178  10.810   1.832 -0.0856 -0.5896  0.0983
  693MOL0     C93473   2.447  10.715   1.299 -0.1694 -0.0049 -0.4020
  693MOL0     C93474   2.585  10.691   1.325  0.0612  0.9219  0.6883
  693MOL0     C93475   2.986  10.532   1.465  0.6717  1.3611 -0.1447
  693MOL0     C93476   3.078  10.580   1.556  0.1401  0.4123  0.4611
  693MOL0     C93477   3.214  10.544   1.545 -0.2213 -0.0446 -0.1309
  693MOL0     C93478   3.265  10.465   1.450 -0.4303 -0.4964  0.4095
  693MOL0     O93479   3.402  10.451   1.443 -0.6256 -0.5798  0.7553
  693MOL0     C93480   3.462  10.364   1.350 -0.4321  0.1895  0.0549
  693MOL0     C93481   3.613  10.381   1.367  0.1288  0.5895 -0.0267
  693MOL0     C93482   3.682  10.314   1.248 -0.0608  1.1260 -0.2856
  693MOL0     C93483   3.836  10.317   1.271  0.5733  0.4486  1.0282
  693MOL0     C93484   3.908  10.247   1.166  0.8132  0.3102 -0.9888
  693MOL0     C93485   3.984  10.199   1.082 -0.4009 -0.2739  0.1273
  693MOL0     C93486   3.176  10.418   1.352  0.6496 -0.6556  0.2435
  693MOL0     C93487   3.037  10.456   1.362  0.2163 -0.1789 -0.2304
  693MOL0     H93488   2.574  10.384   1.446  1.3189 -0.1147 -1.7696
  693MOL0     H93489   2.321  10.439   1.432  0.4770 -0.0344  0.6853
  693MOL0     H93490   2.186  10.821   1.373  0.3803 -0.5834  0.8858
  693MOL0     H93491   2.188  10.810   1.197 -0.7804  0.7857 -0.9878
  693MOL0     H93492   1.971  10.845   1.247 -0.1448 -0.0660  0.7362
  693MOL0     H93493   1.977  10.667   1.224  0.1914  0.2041  1.0370
  693MOL0     H93494   1.978  10.628   1.457  1.1994  0.0221 -2.3424
  693MOL0     H93495   1.982  10.800   1.493 -0.8506  0.1283  0.9494
  693MOL0     H93496   1.771  10.828   1.364  1.8214 -0.2290  1.9938
  693MOL0     H93497   1.772  10.661   1.332  2.6244 -0.7812 -0.7919
  693MOL0     H93498   1.738  10.611   1.579  0.0836  1.9371  4.8492
  693MOL0     H93499   1.783  10.769   1.620 -1.6861 -0.9717  0.9430
  693MOL0     H93500   1.595  10.866   1.499 -2.0226 -0.9813 -2.0046
  693MOL0     H93501   1.525  10.706   1.475  1.3344 -1.9630  0.1863
  693MOL0     H93502   1.476  10.685   1.713 -0.2826  0.5052  2.1432
  693MOL0     H93503   1.589  10.824   1.750  1.1795  1.9895 -1.7242
  693MOL0     H93504   1.300  10.825   1.615  0.6838 -0.8956 -0.1412
  693MOL0     H93505   1.396  10.971   1.657  0.7408 -0.8017 -0.5682
  693MOL0     H93506   1.464  10.899   1.971  1.2204 -0.5370 -2.4501
  693MOL0     H93507   1.226  10.756   2.215  2.2339 -1.5052 -0.8169
  693MOL0     H93508   1.394  10.812   2.189  0.1132  1.9930  0.1505
  693MOL0     H93509   1.276  11.057   2.185 -1.5788  0.8482 -0.1333
  693MOL0     H93510   1.317  10.968   2.330 -0.1897  3.3709  0.1612
  693MOL0     H93511   1.074  11.088   2.328  1.0087  0.8144  1.3371
  693MOL0     H93512   1.090  10.930   2.387  0.3046  2.3265  1.7143
  693MOL0     H93513   0.996  10.833   2.186 -1.2723 -0.8074  1.5666
  693MOL0     H93514   1.030  10.985   2.098 -0.6129  0.4854  0.5539
  693MOL0     H93515   0.895  10.905   1.952 -0.7444  2.6480 -2.0873
  693MOL0     H93516   0.679  10.907   1.681  0.0434 -1.2475 -0.7007
  693MOL0     H93517   0.850  10.871   1.732  0.0210 -1.4416 -1.6342
  693MOL0     H93518   0.727  10.746   1.729  2.4794 -0.7244 -0.8842
  693MOL0     H93519   0.242  10.798   1.641  1.3044 -1.4215  0.5891
  693MOL0     H93520   0.029  10.741   1.579  0.4197  0.5033 -0.5211
  693MOL0     H93521  -0.242  10.737   1.549 -2.1056 -0.3915 -0.7812
  693MOL0     H93522  -0.173  10.574   1.593  3.1164  0.5366  2.5365
  693MOL0     H93523  -0.389  10.534   1.552  1.3188 -0.9400  1.4978
  693MOL0     H93524  -0.396  10.554   1.726  3.4314 -0.9282  0.6721
  693MOL0     H93525  -0.506  10.741   1.505 -1.7730  0.4078  0.9737
  693MOL0     H93526  -0.461  10.802   1.668 -3.0970 -1.4987  4.0792
  693MOL0     H93527  -0.669  10.588   1.572  0.0762  0.1833 -1.4842
  693MOL0     H93528  -0.631  10.634   1.744  1.2422  3.9367  0.1719
  693MOL0     H93529  -0.710  10.858   1.729 -1.1395  2.4556 -2.0466
  693MOL0     H93530  -0.835  10.747   1.658  1.0082 -1.7252 -2.6382
  693MOL0     H93531  -0.652  10.944   1.543  1.6487  0.1122 -4.1858
  693MOL0     H93532  -0.714  10.804   1.440 -0.7927 -0.9056  0.1877
  693MOL0     H93533  -0.864  11.028   1.588 -0.1452 -1.4302  1.3825
  693MOL0     H93534  -0.955  10.901   1.501  0.0027  0.5138 -1.7758
  693MOL0     H93535  -0.939  11.090   1.356 -0.1915  0.6811 -0.9919
  693MOL0     H93536  -0.828  10.981   1.279  1.0143  1.9904 -0.5832
  693MOL0     H93537  -0.103  10.764   1.979 -0.8756 -0.0130 -1.2835
  693MOL0     H93538   0.112  10.836   2.059  1.2485 -1.5946  0.5012
  693MOL0     H93539   0.430  10.973   2.085 -1.1255 -1.0857 -3.5424
  693MOL0     H93540   0.616  11.002   2.265  1.9330 -0.6304  0.6112
  693MOL0     H93541   2.421  10.807   1.247 -2.6365  1.7979  3.5380
  693MOL0     H93542   2.651  10.775   1.307 -0.2275  1.3704  1.6407
  693MOL0     H93543   3.043  10.633   1.643  1.1751  0.5885  0.7878
  693MOL0     H93544   3.284  10.593   1.612  1.9636 -0.1467 -2.2351
  693MOL0     H93545   3.430  10.261   1.370 -1.1699  0.3436 -0.2979
  693MOL0     H93546   3.431  10.396   1.251  0.4263  2.3394  0.4266
  693MOL0     H93547   3.642  10.334   1.461  1.5648  2.5473  0.5724
  693MOL0     H93548   3.649  10.484   1.376  1.8053  0.0385 -0.1010
  693MOL0     H93549   3.658  10.355   1.149  1.6413 -0.5357 -1.4700
  693MOL0     H93550   3.656  10.209   1.229 -0.0604  1.0314  0.2293
  693MOL0     H93551   3.853  10.273   1.370 -2.1261  1.2173  1.9034
  693MOL0     H93552   3.877  10.419   1.274 -1.1387  1.2963 -1.4822
  693MOL0     H93553   4.043  10.169   0.998  1.9637 -4.1204  2.8441
  693MOL0     H93554   3.214  10.382   1.256  0.5808 -0.2216  0.0509
  693MOL0     H93555   2.970  10.437   1.279 -0.6959  2.1024 -0.0997
  694MOL0     O93556   8.772  10.113   0.767 -0.2537 -0.4708 -0.0607
  694MOL0     C93557   8.799  10.233   0.749 -0.0826  1.0407 -0.4978
  694MOL0     O93558   8.715  10.342   0.777 -0.1544 -0.4457  0.3829
  694MOL0     C93559   8.578  10.315   0.790  0.5798  0.2603 -0.1357
  694MOL0     C93560   8.481  10.315   0.684 -0.4720  0.3800  0.2349
  694MOL0     C93561   8.346  10.275   0.711 -0.4227  0.1495  0.7399
  694MOL0     C93562   8.301  10.234   0.843  0.2803 -0.1478 -0.2327
  694MOL0     O93563   8.167  10.190   0.861 -0.0160  0.1221  1.2235
  694MOL0     C93564   8.112  10.178   0.991 -0.2157 -0.3775  0.6013
  694MOL0     C93565   7.960  10.165   0.957 -0.2387  0.0937 -0.2998
  694MOL0     C93566   7.895  10.115   1.083  0.5430  0.2592 -0.3714
  694MOL0     C93567   7.751  10.068   1.047  1.0046  0.6266  0.4963
  694MOL0     C93568   7.679  10.002   1.170 -0.1426 -0.4524 -0.7244
  694MOL0     C93569   7.539   9.934   1.133 -0.2557  0.5122 -0.0297
  694MOL0     C93570   7.469   9.879   1.256 -0.5274  0.5272 -0.6299
  694MOL0     C93571   7.320   9.912   1.258 -0.0857  0.2260  0.2429
  694MOL0     N93572   7.235   9.825   1.175 -0.3657 -0.2887 -0.7246
  694MOL0     C93573   7.265   9.749   1.065  0.2088 -0.7072  0.1414
  694MOL0     C93574   7.152   9.681   1.038  0.2926 -0.2939  0.0968
  694MOL0     C93575   7.145   9.569   0.934 -0.1452 -0.2233  0.2914
  694MOL0     C93576   7.013   9.568   0.856  0.3177 -0.0958 -0.7941
  694MOL0     C93577   7.007   9.425   0.789  0.1851 -0.3294 -0.1223
  694MOL0     C93578   6.874   9.393   0.720 -0.0552  0.1313  0.7444
  694MOL0     O93579   6.775   9.345   0.814  0.1479  0.7401 -0.3568
  694MOL0     C93580   6.653   9.305   0.779  0.1316  0.2773  0.0688
  694MOL0     C93581   6.578   9.236   0.870  0.2249 -0.9492 -0.9272
  694MOL0     C93582   6.443   9.197   0.844  1.0270 -0.7991  0.0079
  694MOL0     C93583   6.372   9.143   0.969  0.7927  0.6297 -0.2030
  694MOL0     C93584   6.389   9.223   0.718 -0.0468 -0.1348  0.1474
  694MOL0     C93585   6.249   9.200   0.677  0.2357 -0.3917 -0.3406
  694MOL0     O93586   6.159   9.183   0.780  0.5016 -0.2296 -0.5824
  694MOL0     C93587   6.038   9.128   0.753  0.6106  0.0657  0.6238
  694MOL0     C93588   5.961   9.173   0.644 -0.3696  0.0130 -0.5495
  694MOL0     C93589   5.840   9.119   0.616 -0.1723  0.6909  0.6334
  694MOL0     C93590   5.780   9.031   0.707 -0.2442 -0.3147 -0.0556
  694MOL0     O93591   5.648   8.984   0.695 -0.6436  0.0184  0.2065
  694MOL0     C93592   5.576   8.964   0.569  0.2016  0.2096  1.4302
  694MOL0     C93593   5.644   8.859   0.484 -0.4167  0.1922 -0.3375
  694MOL0     C93594   5.668   8.719   0.555  0.1777 -0.1496 -0.1515
  694MOL0     C93595   5.534   8.642   0.570  0.1047 -0.5626 -0.3560
  694MOL0     C93596   5.563   8.496   0.619  0.2944 -0.2842 -0.0072
  694MOL0     C93597   5.442   8.428   0.684 -0.4444  0.7290 -0.0589
  694MOL0     C93598   5.484   8.306   0.767 -0.9461  0.2870  1.0513
  694MOL0     C93599   5.364   8.234   0.822  0.2411 -0.3827 -0.3320
  694MOL0    Cl93600   5.420   8.062   0.868  0.2384  0.1366 -0.3132
  694MOL0     C93601   5.852   8.987   0.818 -0.9069 -0.2488  0.2946
  694MOL0     C93602   5.979   9.045   0.841 -0.3390  0.6114  0.7569
  694MOL0     O93603   6.222   9.215   0.557  0.7444 -0.1547 -0.1564
  694MOL0     C93604   6.475   9.284   0.626 -0.1646  0.8927  0.0483
  694MOL0     C93605   6.604   9.318   0.651 -0.0467 -0.6202 -0.4199
  694MOL0     N93606   7.050   9.712   1.126  0.1933  0.0406  0.0807
  694MOL0     N93607   7.098   9.802   1.201  0.2587 -0.3815 -0.9120
  694MOL0     C93608   8.391  10.240   0.945 -0.9722  0.4497  0.7211
  694MOL0     C93609   8.527  10.266   0.918  0.0881 -0.4303  0.0379
  694MOL0     C93610   8.929  10.277   0.689  1.6313  0.4582  0.3830
  694MOL0     C93611   8.982  10.401   0.723 -0.0537 -0.3060 -0.7319
  694MOL0     C93612   9.100  10.440   0.666  0.0699 -0.9015  0.1577
  694MOL0     C93613   9.180  10.354   0.580  0.4356  0.1358 -0.0480
  694MOL0     O93614   9.298  10.372   0.520  0.3099  0.4320 -0.0060
  694MOL0     C93615   9.358  10.499   0.539 -0.8424 -0.4097 -1.0138
  694MOL0     C93616   9.465  10.529   0.431  0.4067  0.4539 -0.3819
  694MOL0     C93617   9.415  10.524   0.289 -1.2384 -1.0366  0.6422
  694MOL0     C93618   9.530  10.539   0.183 -0.8853 -0.3353 -0.1240
  694MOL0     C93619   9.630  10.426   0.194 -0.1974  0.1588 -0.0625
  694MOL0     C93620   9.716  10.344   0.187  0.6726 -0.4921 -0.3620
  694MOL0     C93621   9.131  10.228   0.556  0.3746  1.0176  0.0062
  694MOL0     C93622   9.010  10.189   0.613  0.2823  0.0200 -0.2792
  694MOL0     H93623   8.516  10.333   0.583  1.1098 -1.3794  0.4152
  694MOL0     H93624   8.273  10.265   0.631 -0.4122  0.1465  0.7304
  694MOL0     H93625   8.148  10.090   1.045  0.9002 -0.6908 -0.5845
  694MOL0     H93626   8.129  10.272   1.045 -2.0015  0.8378 -0.8009
  694MOL0     H93627   7.919  10.259   0.922 -2.3602 -0.5236  0.3597
  694MOL0     H93628   7.946  10.102   0.869 -0.0828  1.7247 -1.5330
  694MOL0     H93629   7.947  10.029   1.125  0.2407  0.5405  0.6062
  694MOL0     H93630   7.888  10.197   1.155  1.4836 -0.6421  0.7872
  694MOL0     H93631   7.699  10.157   1.011 -0.9853 -0.2067  1.1854
  694MOL0     H93632   7.753   9.997   0.964  2.0776  0.1647  0.9011
  694MOL0     H93633   7.737   9.925   1.220 -1.5857 -0.9603  0.2427
  694MOL0     H93634   7.658  10.081   1.242  0.3070 -1.3511  0.4238
  694MOL0     H93635   7.474  10.006   1.083 -0.9877 -0.9555 -1.2715
  694MOL0     H93636   7.553   9.856   1.058 -0.8235  0.0402  0.3463
  694MOL0     H93637   7.486   9.771   1.257 -2.3693  0.1800 -1.5733
  694MOL0     H93638   7.513   9.923   1.346  1.6617 -0.1370 -1.3082
  694MOL0     H93639   7.300  10.016   1.234 -1.9324 -0.2026 -0.2134
  694MOL0     H93640   7.274   9.896   1.356 -0.7745  0.1331 -0.0877
  694MOL0     H93641   7.363   9.731   1.022 -0.7007 -1.6032 -1.6398
  694MOL0     H93642   7.227   9.582   0.863  2.0449 -0.4074  2.6107
  694MOL0     H93643   7.164   9.472   0.982  1.8640 -0.7161 -1.3468
  694MOL0     H93644   7.006   9.645   0.779  1.3005  0.5245 -0.2815
  694MOL0     H93645   6.937   9.585   0.933  0.7784  0.5513 -0.4798
  694MOL0     H93646   7.008   9.352   0.871  0.4016  0.1975  0.3455
  694MOL0     H93647   7.092   9.412   0.722 -0.1602 -1.9050 -0.3078
  694MOL0     H93648   6.893   9.318   0.642 -2.5567  0.0601  0.0955
  694MOL0     H93649   6.852   9.479   0.656  2.7367 -0.0210 -0.5544
  694MOL0     H93650   6.632   9.225   0.964 -2.2534  2.6622  1.1765
  694MOL0     H93651   6.292   9.215   0.992  1.3639  0.6955  1.7517
  694MOL0     H93652   6.313   9.054   0.942  0.0608  1.5021 -1.5830
  694MOL0     H93653   6.436   9.133   1.057  0.4542 -1.1792 -0.1236
  694MOL0     H93654   5.997   9.259   0.589 -1.5984  1.0432  0.2121
  694MOL0     H93655   5.790   9.175   0.537  0.2849  1.1673  0.6727
  694MOL0     H93656   5.476   8.929   0.595 -0.6962  1.1916 -0.5352
  694MOL0     H93657   5.570   9.059   0.515 -2.6428  0.2982  1.7671
  694MOL0     H93658   5.598   8.843   0.387  1.1395  0.5443 -1.1721
  694MOL0     H93659   5.742   8.906   0.465 -0.8150  0.3101 -2.3166
  694MOL0     H93660   5.697   8.729   0.660 -1.7226  0.7414  0.3214
  694MOL0     H93661   5.741   8.660   0.498 -1.0835 -0.7628 -1.1875
  694MOL0     H93662   5.473   8.696   0.643  0.8131  0.7188 -0.6825
  694MOL0     H93663   5.495   8.634   0.468  0.3996 -0.0939 -0.5049
  694MOL0     H93664   5.635   8.497   0.702  0.3442 -1.6183 -0.0163
  694MOL0     H93665   5.616   8.432   0.548  2.6072 -0.1997  1.5270
  694MOL0     H93666   5.397   8.501   0.752  1.1463  0.5286  1.2651
  694MOL0     H93667   5.375   8.413   0.599 -2.5283  2.2432  1.2092
  694MOL0     H93668   5.540   8.348   0.851 -3.0463 -0.9951  3.2005
  694MOL0     H93669   5.551   8.240   0.712 -1.3905 -1.1667  2.1926
  694MOL0     H93670   5.286   8.226   0.745 -0.7351 -0.5286  0.6533
  694MOL0     H93671   5.331   8.297   0.905  0.8349  0.8024 -0.9759
  694MOL0     H93672   5.816   8.931   0.904 -0.2710  1.2695  1.6069
  694MOL0     H93673   6.035   9.013   0.929 -2.3504 -0.3623  1.7423
  694MOL0     H93674   6.437   9.313   0.528 -2.3800  0.6569  0.7938
  694MOL0     H93675   6.684   9.358   0.589  1.1306  0.1309  1.4863
  694MOL0     H93676   8.358  10.232   1.048 -2.2338  2.4813  0.5345
  694MOL0     H93677   8.604  10.265   0.994  1.2288  0.9479 -1.0130
  694MOL0     H93678   8.930  10.470   0.787 -1.5757 -1.3819 -0.7527
  694MOL0     H93679   9.115  10.547   0.675 -0.7687 -0.7902  0.3250
  694MOL0     H93680   9.285  10.581   0.535 -0.1975  0.1494 -1.6158
  694MOL0     H93681   9.401  10.503   0.640 -1.3778 -0.8486 -0.7643
  694MOL0     H93682   9.535  10.446   0.427 -0.2787 -0.2763 -5.8295
  694MOL0     H93683   9.520  10.622   0.448 -0.8086  0.8683  1.5617
  694MOL0     H93684   9.342  10.604   0.278 -1.0421 -1.1577 -2.0323
  694MOL0     H93685   9.383  10.420   0.278  0.9329 -1.8209  1.1374
  694MOL0     H93686   9.583  10.634   0.193  3.0611 -2.3107 -0.4023
  694MOL0     H93687   9.478  10.533   0.088 -0.4878 -0.6132 -0.3286
  694MOL0     H93688   9.792  10.270   0.174  1.0579 -0.0954 -0.4257
  694MOL0     H93689   9.192  10.163   0.494  2.0047  2.6232 -0.1536
  694MOL0     H93690   8.985  10.083   0.607  1.1427 -0.2076 -0.0191
  695MOL0     O93691   5.797   6.223   1.929  0.1380  0.4257  0.3237
  695MOL0     C93692   5.797   6.327   1.863 -0.3288 -0.1238  0.8303
  695MOL0     O93693   5.729   6.353   1.750  0.5376 -0.1653 -0.3165
  695MOL0     C93694   5.617   6.273   1.729  0.7735  0.2007  0.0825
  695MOL0     C93695   5.497   6.312   1.789  0.7358  1.0452  0.1339
  695MOL0     C93696   5.380   6.239   1.759 -0.6565  0.2765  0.5586
  695MOL0     C93697   5.379   6.137   1.668 -0.3460  0.0165  0.3324
  695MOL0     O93698   5.265   6.073   1.637 -0.4731  0.1078 -0.0973
  695MOL0     C93699   5.222   6.097   1.501  0.0520  0.1073 -0.5439
  695MOL0     C93700   5.064   6.076   1.484 -0.0893 -0.8152 -0.4129
  695MOL0     C93701   5.021   5.928   1.508  0.5335 -0.4009  0.1190
  695MOL0     C93702   4.870   5.921   1.460 -0.8166 -0.1008  0.0214
  695MOL0     C93703   4.826   5.775   1.429  0.4705 -0.4601 -0.2427
  695MOL0     C93704   4.839   5.688   1.551 -0.3862  0.4637  0.2663
  695MOL0     C93705   4.731   5.698   1.659  0.1157 -0.4561 -1.1656
  695MOL0     C93706   4.586   5.661   1.616  0.3187  0.4245  0.2423
  695MOL0     N93707   4.573   5.519   1.586 -0.1670 -1.2395  0.2187
  695MOL0     C93708   4.490   5.477   1.490  0.0429  0.0161  0.2774
  695MOL0     C93709   4.491   5.342   1.506  0.6721 -0.7467 -0.8415
  695MOL0     C93710   4.381   5.252   1.442  0.1406 -0.2293  0.8382
  695MOL0     C93711   4.242   5.281   1.491  1.0545  0.3334 -0.8392
  695MOL0     C93712   4.153   5.166   1.425 -0.7561 -0.1753 -0.1326
  695MOL0     C93713   4.004   5.190   1.424 -0.0542  0.1582 -0.1895
  695MOL0     O93714   3.943   5.063   1.419  0.5089 -0.2554 -0.6278
  695MOL0     C93715   3.806   5.054   1.416 -0.6793  0.9983  0.0714
  695MOL0     C93716   3.713   5.160   1.424  0.2673  0.4910  0.7967
  695MOL0     C93717   3.578   5.135   1.427  0.0904 -0.1641 -0.4265
  695MOL0     C93718   3.484   5.253   1.398 -0.7150 -0.5012  0.0175
  695MOL0     C93719   3.526   5.001   1.435  0.5387  0.3164  0.6686
  695MOL0     C93720   3.390   4.980   1.432  1.3860  0.6713  0.8001
  695MOL0     O93721   3.339   4.963   1.305 -0.3979  0.2182  0.1090
  695MOL0     C93722   3.201   4.974   1.300 -0.6694  0.5149  0.6868
  695MOL0     C93723   3.140   5.092   1.346  0.0175 -0.0277  0.3346
  695MOL0     C93724   3.004   5.099   1.349  0.6322 -0.4511  0.1392
  695MOL0     C93725   2.929   5.006   1.279  0.5639 -0.3574 -0.4603
  695MOL0     O93726   2.793   5.024   1.280 -0.1150 -0.1965  0.4091
  695MOL0     C93727   2.735   5.124   1.196 -0.3489  0.3869 -0.2590
  695MOL0     C93728   2.591   5.145   1.240 -0.5063 -0.0082  0.2275
  695MOL0     C93729   2.509   5.020   1.201 -0.4765 -0.2028  0.7575
  695MOL0     C93730   2.369   5.054   1.153 -0.5874  0.8853 -0.0774
  695MOL0     C93731   2.273   5.104   1.270 -0.1589  0.1841 -0.1767
  695MOL0     C93732   2.132   5.128   1.214 -0.2107  0.5003  0.3429
  695MOL0     C93733   2.055   4.997   1.196 -0.0149  0.3466  0.3377
  695MOL0     C93734   1.911   5.035   1.155  0.3814  0.1855  0.7312
  695MOL0    Cl93735   1.819   5.111   1.285 -0.0009 -0.1333 -0.0253
  695MOL0     C93736   2.990   4.899   1.215 -0.6933  0.0606  0.0504
  695MOL0     C93737   3.128   4.876   1.231  0.7856  0.3549 -0.0474
  695MOL0     O93738   3.328   4.970   1.538 -0.1215 -0.4220 -0.5020
  695MOL0     C93739   3.622   4.901   1.423  0.2505  0.2091  0.6011
  695MOL0     C93740   3.759   4.925   1.406 -0.6809  0.6426 -0.0997
  695MOL0     N93741   4.573   5.308   1.612  0.1211 -0.4759  0.1943
  695MOL0     N93742   4.618   5.419   1.659  0.1391 -0.7790  0.4154
  695MOL0     C93743   5.498   6.104   1.601 -0.4867 -0.6545  0.1491
  695MOL0     C93744   5.624   6.165   1.639 -0.5072 -0.3307 -0.2394
  695MOL0     C93745   5.879   6.437   1.913  0.4609  0.4415 -0.9951
  695MOL0     C93746   5.916   6.541   1.825 -0.5383 -0.6933  0.0282
  695MOL0     C93747   5.985   6.657   1.874 -0.3255  0.3061 -0.0048
  695MOL0     C93748   6.015   6.670   2.008 -0.1989 -0.2220 -0.8881
  695MOL0     O93749   6.082   6.770   2.074  0.2567  0.0981  0.4280
  695MOL0     C93750   6.194   6.826   2.008 -0.6552 -0.4475 -0.5628
  695MOL0     C93751   6.149   6.958   1.946  0.0367 -0.6916 -0.0558
  695MOL0     C93752   6.260   7.043   1.881  0.0911 -0.4297  1.1796
  695MOL0     C93753   6.355   6.978   1.778 -0.2424 -0.4111  0.4229
  695MOL0     C93754   6.421   7.086   1.705  0.0881  0.6233 -0.3071
  695MOL0     C93755   6.493   7.175   1.658  0.2406  1.0506 -0.5891
  695MOL0     C93756   5.977   6.564   2.092  0.3210  0.4397  0.0895
  695MOL0     C93757   5.909   6.451   2.049 -0.3903  0.1839 -0.0807
  695MOL0     H93758   5.500   6.399   1.853  1.5302  0.7544  0.4979
  695MOL0     H93759   5.292   6.265   1.817 -0.9208  0.0356  0.2701
  695MOL0     H93760   5.245   6.199   1.471  0.5493  0.4977  1.0824
  695MOL0     H93761   5.270   6.028   1.431 -1.9540  1.4225 -3.3970
  695MOL0     H93762   5.021   6.146   1.556  0.9397 -0.7694  0.1852
  695MOL0     H93763   5.043   6.107   1.381  0.3892 -1.0784 -0.5939
  695MOL0     H93764   5.077   5.854   1.449 -0.2887 -0.3145 -0.8027
  695MOL0     H93765   5.036   5.900   1.613  0.1640 -2.5658 -0.3391
  695MOL0     H93766   4.799   5.968   1.529 -1.5733 -0.0399 -0.7877
  695MOL0     H93767   4.865   5.971   1.362 -0.7356  1.7390  0.9050
  695MOL0     H93768   4.725   5.774   1.386  0.5979 -2.6057 -0.6043
  695MOL0     H93769   4.897   5.733   1.357 -0.2209 -0.8531 -0.7141
  695MOL0     H93770   4.836   5.585   1.515  3.6201  0.5167 -0.7108
  695MOL0     H93771   4.938   5.706   1.595 -0.5368  0.3803  0.6407
  695MOL0     H93772   4.754   5.644   1.751 -0.7744  1.4202  0.2143
  695MOL0     H93773   4.744   5.802   1.688  0.1035 -1.2672  2.1894
  695MOL0     H93774   4.575   5.721   1.525  2.6632  0.3230 -0.1674
  695MOL0     H93775   4.518   5.691   1.696 -1.8672 -1.3761 -0.8452
  695MOL0     H93776   4.433   5.537   1.419 -4.0619 -2.2923  1.2416
  695MOL0     H93777   4.388   5.253   1.332  1.3573 -0.6211  0.9013
  695MOL0     H93778   4.409   5.150   1.470 -0.0100 -0.1675  1.2053
  695MOL0     H93779   4.217   5.384   1.467  0.4279  0.4853  0.4157
  695MOL0     H93780   4.237   5.278   1.600 -0.6319  0.8431 -0.8755
  695MOL0     H93781   4.161   5.076   1.486 -1.6712 -0.2320 -0.0883
  695MOL0     H93782   4.194   5.135   1.328 -2.4557 -1.2474 -0.5604
  695MOL0     H93783   3.966   5.253   1.343 -0.4684 -0.4415 -0.4676
  695MOL0     H93784   3.987   5.240   1.520  1.3682 -1.0073  0.7186
  695MOL0     H93785   3.758   5.259   1.422  0.5966  0.3397  0.5085
  695MOL0     H93786   3.455   5.264   1.293  0.6137  2.5482 -0.1359
  695MOL0     H93787   3.400   5.249   1.468 -0.6564  0.7979  0.1788
  695MOL0     H93788   3.541   5.346   1.401  0.5938 -1.2243 -1.2549
  695MOL0     H93789   3.211   5.163   1.385  0.0874 -0.8275  1.7135
  695MOL0     H93790   2.963   5.189   1.393 -1.3497 -1.4923  0.5648
  695MOL0     H93791   2.799   5.211   1.211 -0.1052  0.0736  0.5326
  695MOL0     H93792   2.744   5.104   1.089  0.9754  1.5698 -0.4009
  695MOL0     H93793   2.592   5.159   1.348 -0.0630  0.5716  0.1536
  695MOL0     H93794   2.556   5.236   1.191  0.0014  0.2030  0.2543
  695MOL0     H93795   2.499   4.947   1.282 -1.5950 -1.6642 -0.6379
  695MOL0     H93796   2.557   4.976   1.114 -2.3063 -0.4572 -0.1808
  695MOL0     H93797   2.367   5.126   1.071 -2.4237  0.2777 -0.5924
  695MOL0     H93798   2.328   4.960   1.116 -2.1266  1.4719  0.0924
  695MOL0     H93799   2.324   5.195   1.303 -0.2465  0.6141 -1.2014
  695MOL0     H93800   2.279   5.037   1.356  0.9185  1.6611  0.9596
  695MOL0     H93801   2.072   5.187   1.284 -1.3032 -0.5847  0.3527
  695MOL0     H93802   2.144   5.184   1.120  1.1749  1.4281  1.0413
  695MOL0     H93803   2.037   4.933   1.282 -3.3942  0.0957 -0.4082
  695MOL0     H93804   2.094   4.951   1.104  1.5260  1.0551  0.6152
  695MOL0     H93805   1.868   4.940   1.122 -3.5471  1.3932  1.8805
  695MOL0     H93806   1.908   5.109   1.075 -0.1420  1.8578  2.2128
  695MOL0     H93807   2.922   4.824   1.175  0.8649 -1.9473  0.9732
  695MOL0     H93808   3.174   4.786   1.192 -2.1049  0.0727 -3.2972
  695MOL0     H93809   3.591   4.797   1.421  1.2580 -0.2219  3.4497
  695MOL0     H93810   3.829   4.842   1.405 -0.5874  0.6860  1.0295
  695MOL0     H93811   5.506   6.029   1.523  0.5282 -1.6314  1.1574
  695MOL0     H93812   5.713   6.138   1.584 -0.1198 -0.2992  0.3741
  695MOL0     H93813   5.893   6.525   1.720 -0.5242  0.2570 -0.1312
  695MOL0     H93814   6.030   6.729   1.808 -0.2121  0.7227  0.5186
  695MOL0     H93815   6.274   6.846   2.079  0.0866 -0.2913 -1.4247
  695MOL0     H93816   6.239   6.754   1.940  0.3204 -1.3529  0.9816
  695MOL0     H93817   6.112   7.017   2.030  2.5575 -1.3363  1.6117
  695MOL0     H93818   6.068   6.942   1.873  1.8957  0.2189 -2.4609
  695MOL0     H93819   6.318   7.106   1.949 -0.8585  2.3668 -0.4536
  695MOL0     H93820   6.211   7.125   1.827  1.7767 -0.5654 -0.7055
  695MOL0     H93821   6.311   6.919   1.697 -0.7050 -0.3382  0.6181
  695MOL0     H93822   6.436   6.922   1.826  0.0229 -0.7811 -0.4292
  695MOL0     H93823   6.564   7.243   1.616  0.0927  0.7872 -1.2755
  695MOL0     H93824   6.007   6.562   2.197  0.1294 -2.2902  0.1812
  695MOL0     H93825   5.882   6.366   2.110 -0.8832  1.1699  1.1296
  696MOL0     O93826   3.334   0.641   5.585  0.1844 -0.1836 -0.2960
  696MOL0     C93827   3.274   0.746   5.561 -0.1047  0.5103 -0.4193
  696MOL0     O93828   3.146   0.755   5.506 -0.0133  0.3619 -0.7538
  696MOL0     C93829   3.099   0.644   5.444  0.2393 -0.5088  0.2435
  696MOL0     C93830   3.007   0.557   5.505  0.1263  0.2419 -0.1446
  696MOL0     C93831   2.949   0.453   5.435 -0.1285  0.0074  0.0793
  696MOL0     C93832   3.000   0.416   5.313 -0.0943 -0.3284  0.0663
  696MOL0     O93833   2.937   0.320   5.234 -1.0865 -0.5910 -0.0970
  696MOL0     C93834   2.821   0.380   5.169  0.1519 -0.1811  0.0936
  696MOL0     C93835   2.698   0.299   5.216 -0.6204 -0.3226 -0.6311
  696MOL0     C93836   2.570   0.385   5.193  0.5297  0.0674  0.3060
  696MOL0     C93837   2.451   0.300   5.228 -0.4110  0.6899  0.9152
  696MOL0     C93838   2.320   0.352   5.149  0.1643 -1.4586  0.0753
  696MOL0     C93839   2.196   0.276   5.207  0.5729  0.4961 -0.7020
  696MOL0     C93840   2.080   0.298   5.113 -0.4547  0.2175 -0.1350
  696MOL0     C93841   1.940   0.262   5.164  0.4160 -0.5103 -0.7136
  696MOL0     N93842   1.829   0.302   5.072 -0.4365 -0.5932 -0.2916
  696MOL0     C93843   1.781   0.430   5.045 -0.2541  0.1678 -0.2285
  696MOL0     C93844   1.697   0.416   4.939  0.4450  0.2495 -0.1988
  696MOL0     C93845   1.623   0.524   4.868  0.3847  1.4317  0.4742
  696MOL0     C93846   1.473   0.513   4.892  0.6008  0.4507 -0.2716
  696MOL0     C93847   1.394   0.626   4.816  0.1576  0.3750 -0.3371
  696MOL0     C93848   1.248   0.620   4.839  0.4948  0.4047 -0.0952
  696MOL0     O93849   1.185   0.742   4.795  0.3702  0.1910  0.7106
  696MOL0     C93850   1.046   0.740   4.824  0.0510 -0.0721  0.0623
  696MOL0     C93851   0.956   0.718   4.725  0.6387  0.1898 -0.4942
  696MOL0     C93852   0.822   0.697   4.741 -0.5348  0.3114  0.3061
  696MOL0     C93853   0.742   0.660   4.613  0.3517  0.2124  0.5931
  696MOL0     C93854   0.775   0.696   4.875 -0.0283 -0.5315 -0.5681
  696MOL0     C93855   0.631   0.677   4.911 -0.9453 -0.0726  0.3003
  696MOL0     O93856   0.548   0.615   4.822 -0.1739  0.3591 -0.9762
  696MOL0     C93857   0.412   0.615   4.821 -0.5515 -0.2508  0.2588
  696MOL0     C93858   0.332   0.719   4.876 -0.1104  0.4295 -0.1509
  696MOL0     C93859   0.192   0.728   4.859 -0.1214  0.0846  0.4587
  696MOL0     C93860   0.133   0.638   4.772 -0.0698  0.5166  0.0828
  696MOL0     O93861  -0.005   0.639   4.743 -0.1711 -0.0469  0.8010
  696MOL0     C93862  -0.065   0.766   4.750  0.5723  0.3344  0.1605
  696MOL0     C93863  -0.189   0.758   4.656 -0.3413 -0.2212 -0.5314
  696MOL0     C93864  -0.302   0.852   4.697  0.1011 -0.5154  0.0815
  696MOL0     C93865  -0.431   0.821   4.606 -0.1104  0.4951  0.1476
  696MOL0     C93866  -0.554   0.904   4.656 -0.1545 -0.0771  0.5563
  696MOL0     C93867  -0.679   0.871   4.570 -0.1030  0.0034 -0.4648
  696MOL0     C93868  -0.800   0.945   4.630  0.2258  0.0013  0.1410
  696MOL0     C93869  -0.854   0.890   4.764  0.4496 -0.3904  0.3367
  696MOL0    Cl93870  -1.009   0.974   4.787 -0.5528 -0.2312  0.1030
  696MOL0     C93871   0.207   0.527   4.724 -0.2176 -0.7650 -0.5839
  696MOL0     C93872   0.345   0.516   4.747  0.8013 -0.3237  0.5667
  696MOL0     O93873   0.594   0.722   5.020 -0.1399 -0.4301 -0.0962
  696MOL0     C93874   0.874   0.722   4.981  0.5436  0.1781 -0.3956
  696MOL0     C93875   1.005   0.735   4.952 -0.0203  0.1023 -0.5246
  696MOL0     N93876   1.706   0.284   4.896  0.7982  0.4475 -0.2241
  696MOL0     N93877   1.774   0.215   4.981  0.6571  0.1840 -0.7274
  696MOL0     C93878   3.091   0.496   5.259 -0.5931 -0.7818  0.8586
  696MOL0     C93879   3.141   0.618   5.314 -0.1345  0.2401 -0.6003
  696MOL0     C93880   3.347   0.865   5.602 -0.9580  0.6439 -0.6586
  696MOL0     C93881   3.472   0.849   5.671  0.7293 -0.8706 -0.0153
  696MOL0     C93882   3.544   0.959   5.715 -0.4906 -0.5076  0.7017
  696MOL0     C93883   3.496   1.087   5.688  0.0165  1.1449  0.0486
  696MOL0     O93884   3.569   1.191   5.724 -0.4862  0.5058 -0.3400
  696MOL0     C93885   3.636   1.255   5.614 -0.1242  0.0026 -0.5974
  696MOL0     C93886   3.775   1.189   5.589  0.3272  0.0197  0.3488
  696MOL0     C93887   3.859   1.195   5.718 -0.8795 -0.3200  0.8459
  696MOL0     C93888   3.984   1.111   5.705  0.1619 -0.2403 -0.0876
  696MOL0     C93889   4.092   1.140   5.804 -0.4491 -0.3239 -0.1329
  696MOL0     C93890   4.180   1.180   5.882  0.5795  0.0835  0.0565
  696MOL0     C93891   3.372   1.108   5.633  0.3692 -0.0739 -0.0264
  696MOL0     C93892   3.296   0.994   5.597 -0.0201 -0.1372  0.5171
  696MOL0     H93893   2.989   0.571   5.611 -0.1728 -2.2628  0.1873
  696MOL0     H93894   2.860   0.408   5.479  0.4413  0.1854  1.4961
  696MOL0     H93895   2.809   0.483   5.205 -0.3071 -0.1438 -0.1699
  696MOL0     H93896   2.826   0.375   5.060 -0.3055  1.3964 -0.0204
  696MOL0     H93897   2.713   0.210   5.155  3.5174 -0.3083  0.0948
  696MOL0     H93898   2.701   0.268   5.321  1.4023 -2.2576 -1.1917
  696MOL0     H93899   2.575   0.472   5.259  1.9918  0.1378  0.1473
  696MOL0     H93900   2.568   0.423   5.091  0.4345  0.8684  0.5997
  696MOL0     H93901   2.473   0.195   5.207  1.0360  0.8847  1.3461
  696MOL0     H93902   2.430   0.310   5.335 -2.2636 -0.5944  0.7276
  696MOL0     H93903   2.314   0.462   5.151 -1.1719 -1.5212  2.0651
  696MOL0     H93904   2.338   0.336   5.042 -0.4008  3.3253 -0.9979
  696MOL0     H93905   2.219   0.170   5.218 -0.1541  0.2566 -1.4265
  696MOL0     H93906   2.175   0.305   5.311 -2.1614 -3.2876 -0.0077
  696MOL0     H93907   2.075   0.403   5.083  1.7514  0.2957 -0.4087
  696MOL0     H93908   2.101   0.242   5.022 -1.9497  0.0192 -0.3778
  696MOL0     H93909   1.924   0.308   5.261  0.7657 -0.9916 -0.4203
  696MOL0     H93910   1.923   0.157   5.192 -0.1075  0.2232  1.9529
  696MOL0     H93911   1.808   0.519   5.100  1.0078  0.5363 -1.3766
  696MOL0     H93912   1.664   0.618   4.906  0.6530  1.1896  0.7971
  696MOL0     H93913   1.640   0.527   4.760  3.0453 -0.6564  0.7422
  696MOL0     H93914   1.454   0.516   4.999 -0.1368  0.7896 -0.4118
  696MOL0     H93915   1.442   0.413   4.859  1.5382  0.4527 -1.2370
  696MOL0     H93916   1.410   0.619   4.708  1.3608 -2.2828 -0.0778
  696MOL0     H93917   1.426   0.722   4.857  1.0003  0.4337 -1.1036
  696MOL0     H93918   1.230   0.588   4.942 -1.7020  0.1802 -0.4914
  696MOL0     H93919   1.206   0.533   4.787 -3.9068  0.8122  2.2970
  696MOL0     H93920   1.007   0.721   4.630  1.2684  0.4591 -0.1562
  696MOL0     H93921   0.775   0.696   4.515 -1.5810  0.6600  0.0696
  696MOL0     H93922   0.749   0.551   4.615 -2.8688 -0.1222  3.3391
  696MOL0     H93923   0.634   0.675   4.609  0.3429 -0.0749 -1.4862
  696MOL0     H93924   0.387   0.795   4.929  2.1748 -0.5638 -0.9857
  696MOL0     H93925   0.140   0.810   4.906  3.3243  1.5117  2.1058
  696MOL0     H93926  -0.100   0.783   4.852 -1.1081 -0.0645 -0.3185
  696MOL0     H93927   0.001   0.849   4.726  0.8650  0.5552  1.6821
  696MOL0     H93928  -0.159   0.771   4.552  1.3115 -3.6438 -0.6248
  696MOL0     H93929  -0.229   0.657   4.650  1.6252 -0.9775 -2.2578
  696MOL0     H93930  -0.276   0.958   4.687  1.2418 -0.8707 -1.1247
  696MOL0     H93931  -0.332   0.840   4.801  0.7721 -0.5861  0.2735
  696MOL0     H93932  -0.401   0.844   4.503 -0.9758  3.2672  0.4390
  696MOL0     H93933  -0.465   0.717   4.605  2.0160 -0.2571 -1.0767
  696MOL0     H93934  -0.525   1.008   4.642 -1.0292  0.0243 -0.7167
  696MOL0     H93935  -0.576   0.884   4.761 -2.5403 -0.9962 -0.0405
  696MOL0     H93936  -0.665   0.903   4.466 -1.6527 -1.4583 -1.1819
  696MOL0     H93937  -0.706   0.765   4.578  0.2320  0.0603  2.8929
  696MOL0     H93938  -0.883   0.940   4.559 -0.5257  0.9288  0.9338
  696MOL0     H93939  -0.777   1.050   4.647  1.2748 -0.0736 -0.6604
  696MOL0     H93940  -0.782   0.917   4.842  0.7100  2.6887 -0.8189
  696MOL0     H93941  -0.873   0.784   4.749  1.1063 -0.1847 -2.6964
  696MOL0     H93942   0.162   0.450   4.662  1.1369 -2.2866  0.2287
  696MOL0     H93943   0.382   0.416   4.726  0.7392  0.1819 -2.3674
  696MOL0     H93944   0.842   0.728   5.085  0.2337  0.4770 -0.5039
  696MOL0     H93945   1.079   0.763   5.027 -0.4532  1.5497 -0.6090
  696MOL0     H93946   3.119   0.470   5.157 -2.4561  0.3472  0.0019
  696MOL0     H93947   3.213   0.678   5.258  1.9374 -2.1809 -0.7281
  696MOL0     H93948   3.514   0.751   5.691  0.5984 -0.7894  0.6834
  696MOL0     H93949   3.642   0.951   5.760  0.0266 -0.0988 -0.3195
  696MOL0     H93950   3.568   1.251   5.529 -1.7832 -0.9353  0.7140
  696MOL0     H93951   3.647   1.360   5.642 -1.4955  0.0910 -0.3297
  696MOL0     H93952   3.830   1.242   5.511  1.0305 -0.2136  0.6780
  696MOL0     H93953   3.759   1.085   5.558  0.0255  0.7488 -2.1886
  696MOL0     H93954   3.800   1.159   5.803 -1.0162 -0.0605  0.8612
  696MOL0     H93955   3.883   1.298   5.746  0.3054 -1.2175  3.5453
  696MOL0     H93956   4.023   1.118   5.603  1.4512 -1.1863  0.3194
  696MOL0     H93957   3.954   1.008   5.728 -3.9874  1.1594  1.8824
  696MOL0     H93958   4.255   1.216   5.950 -0.8649  0.3797  1.5518
  696MOL0     H93959   3.327   1.206   5.619  0.1117 -0.4049 -1.7992
  696MOL0     H93960   3.202   1.020   5.548 -0.7885  0.2351  2.1440
  697MOL0     O93961   1.125   9.954   7.929  0.5792 -0.1910  0.3246
  697MOL0     C93962   1.148  10.053   7.997  0.5419 -0.6865  0.2718
  697MOL0     O93963   1.062  10.102   8.086 -0.7344 -0.4049 -0.4096
  697MOL0     C93964   0.933  10.053   8.088  0.1391 -1.2861 -0.1113
  697MOL0     C93965   0.840  10.091   7.990 -0.3525 -0.0628  0.8430
  697MOL0     C93966   0.703  10.048   7.994  0.3039 -0.3169  0.1910
  697MOL0     C93967   0.667   9.964   8.097 -0.1382 -0.1669  0.2116
  697MOL0     O93968   0.546   9.902   8.119  0.5557  0.1342 -0.9161
  697MOL0     C93969   0.431   9.975   8.080 -0.4228 -0.1945  0.7315
  697MOL0     C93970   0.312   9.897   8.109  0.7735 -0.1570 -0.3299
  697MOL0     C93971   0.177   9.960   8.061 -0.8471 -0.0420 -0.8070
  697MOL0     C93972   0.069   9.882   8.123 -0.1717 -0.7999  0.3987
  697MOL0     C93973  -0.075   9.921   8.073 -0.0809  0.1800  0.8105
  697MOL0     C93974  -0.160   9.797   8.087  0.6783 -0.4619 -0.3808
  697MOL0     C93975  -0.305   9.844   8.075 -0.4776 -0.8443  0.0730
  697MOL0     C93976  -0.385   9.719   8.068  0.6307 -0.1533 -0.2050
  697MOL0     N93977  -0.536   9.733   8.073  0.9764 -0.2140  0.0615
  697MOL0     C93978  -0.612   9.822   7.996 -0.2689 -0.3132 -0.5012
  697MOL0     C93979  -0.742   9.781   8.009 -0.4915  0.4244 -0.4990
  697MOL0     C93980  -0.858   9.838   7.925 -0.6870  0.7961  0.0272
  697MOL0     C93981  -0.938   9.941   8.014 -0.4807  0.3342 -0.2360
  697MOL0     C93982  -1.043  10.023   7.941  0.1139 -0.2798  0.1797
  697MOL0     C93983  -1.151   9.930   7.893  0.3025  0.4442  0.0806
  697MOL0     O93984  -1.227   9.877   8.003  0.6498  0.3413  0.4767
  697MOL0     C93985  -1.304   9.970   8.077  0.2723  0.4191  0.5731
  697MOL0     C93986  -1.343   9.952   8.211  0.6489  0.0583 -0.1427
  697MOL0     C93987  -1.416  10.042   8.284  0.4390  0.9605 -0.0364
  697MOL0     C93988  -1.445   9.998   8.420 -0.4041  0.0830  0.3242
  697MOL0     C93989  -1.451  10.170   8.230  0.6842  0.0472  0.8453
  697MOL0     C93990  -1.519  10.276   8.307  1.0137  0.0739 -0.2631
  697MOL0     O93991  -1.515  10.272   8.444 -0.1738 -0.2433  1.0681
  697MOL0     C93992  -1.625  10.306   8.519 -0.0674  0.0784  0.3029
  697MOL0     C93993  -1.763  10.289   8.480  0.1222 -0.5940 -0.2701
  697MOL0     C93994  -1.875  10.328   8.558 -0.4643 -0.5246  0.0619
  697MOL0     C93995  -1.851  10.364   8.691  0.5583  0.1575 -0.3076
  697MOL0     O93996  -1.960  10.394   8.773 -0.1559  0.2675 -0.2876
  697MOL0     C93997  -1.957  10.342   8.909 -0.5520  1.1083 -0.3916
  697MOL0     C93998  -2.094  10.371   8.987 -0.4034  0.1854 -0.1806
  697MOL0     C93999  -2.115  10.522   8.985 -0.3853  0.0725 -0.9574
  697MOL0     C94000  -2.241  10.554   9.063  0.1751  0.3961 -0.1696
  697MOL0     C94001  -2.269  10.705   9.054  0.4550  0.5180  0.0183
  697MOL0     C94002  -2.411  10.746   9.107 -0.0724 -0.5728 -0.0863
  697MOL0     C94003  -2.439  10.902   9.108 -0.3923 -0.1537  0.5998
  697MOL0     C94004  -2.588  10.936   9.081  0.5256 -0.5656  0.0008
  697MOL0    Cl94005  -2.658  11.077   9.163  0.1644  0.1496  0.5714
  697MOL0     C94006  -1.718  10.371   8.737 -0.1820  0.6560  0.3237
  697MOL0     C94007  -1.602  10.348   8.652  0.1312 -0.0450  0.2045
  697MOL0     O94008  -1.578  10.360   8.243  0.5616 -0.6880 -0.4244
  697MOL0     C94009  -1.409  10.197   8.098 -1.0164  0.1214  0.4841
  697MOL0     C94010  -1.343  10.092   8.019  0.9537 -0.2185 -0.5615
  697MOL0     N94011  -0.738   9.667   8.091 -0.8351 -0.4677  0.8682
  697MOL0     N94012  -0.627   9.647   8.139  0.0395  0.8552 -0.1339
  697MOL0     C94013   0.763   9.927   8.186 -0.5134  0.2541  0.1113
  697MOL0     C94014   0.893   9.974   8.197 -0.4919 -0.3430 -0.7735
  697MOL0     C94015   1.279  10.121   7.983 -0.8256  0.6112 -0.7467
  697MOL0     C94016   1.343  10.122   7.858  0.0551 -0.5585  0.0252
  697MOL0     C94017   1.476  10.168   7.851  0.0665 -0.5553 -0.5392
  697MOL0     C94018   1.546  10.205   7.963  0.3295  0.4290 -0.0353
  697MOL0     O94019   1.676  10.256   7.957  0.1315  0.4196  0.3131
  697MOL0     C94020   1.708  10.367   7.869 -0.2035 -0.6836 -0.8978
  697MOL0     C94021   1.605  10.485   7.873  0.4755  0.4997 -1.1145
  697MOL0     C94022   1.592  10.568   8.007 -0.2862  0.0558 -0.2883
  697MOL0     C94023   1.717  10.656   8.047  0.2487  0.1313 -0.0954
  697MOL0     C94024   1.774  10.739   7.949 -0.2051  0.4522  0.0708
  697MOL0     C94025   1.822  10.806   7.860  0.0912  0.1393 -0.5069
  697MOL0     C94026   1.483  10.184   8.087 -0.0935 -0.3484  0.3399
  697MOL0     C94027   1.349  10.151   8.107 -0.2631  0.1769 -0.0635
  697MOL0     H94028   0.876  10.156   7.911  1.3664 -0.7385  1.0510
  697MOL0     H94029   0.638  10.088   7.917 -2.7864  0.5217  3.0194
  697MOL0     H94030   0.443  10.071   8.132 -1.4838 -0.0054  0.6641
  697MOL0     H94031   0.423  10.005   7.975 -2.3077  0.8029  1.1010
  697MOL0     H94032   0.330   9.799   8.064 -2.2025 -1.0642  0.1751
  697MOL0     H94033   0.305   9.890   8.218 -0.8122 -0.9306 -0.4478
  697MOL0     H94034   0.161  10.059   8.104  0.2622 -0.4082  0.5493
  697MOL0     H94035   0.164   9.948   7.953 -0.7591 -0.0774 -0.8146
  697MOL0     H94036   0.080   9.778   8.091 -0.4394 -0.7262  0.0586
  697MOL0     H94037   0.066   9.884   8.232 -4.4164  0.9903  0.4628
  697MOL0     H94038  -0.114  10.004   8.132 -1.2715 -0.1847  0.5578
  697MOL0     H94039  -0.086   9.949   7.968  0.2250  2.1840  1.2679
  697MOL0     H94040  -0.145   9.731   8.001 -1.4556  0.8752 -1.8763
  697MOL0     H94041  -0.135   9.755   8.185 -1.4967  1.6046  1.1807
  697MOL0     H94042  -0.340   9.902   8.161 -0.6720 -0.4222 -0.2902
  697MOL0     H94043  -0.323   9.909   7.990  1.0896 -1.9035 -1.1160
  697MOL0     H94044  -0.340   9.646   8.135  1.6841  0.3305 -0.3601
  697MOL0     H94045  -0.370   9.676   7.969 -0.6310  0.9672 -0.9156
  697MOL0     H94046  -0.579   9.900   7.928  0.6884 -0.2078  0.0754
  697MOL0     H94047  -0.815   9.893   7.841 -1.9269  1.6487 -0.0806
  697MOL0     H94048  -0.925   9.762   7.884 -2.0470  1.7525  0.4176
  697MOL0     H94049  -0.878  10.011   8.073 -0.7144  1.7389 -1.6096
  697MOL0     H94050  -0.987   9.878   8.090 -1.5449  1.2192 -0.1625
  697MOL0     H94051  -0.985  10.068   7.859  2.5369 -1.2749  1.2529
  697MOL0     H94052  -1.085  10.099   8.007 -1.4878  0.6308 -1.7851
  697MOL0     H94053  -1.111   9.840   7.845  2.9203  1.3983  0.2869
  697MOL0     H94054  -1.207   9.984   7.816  0.9687 -2.7038 -2.9013
  697MOL0     H94055  -1.320   9.856   8.257 -2.0856 -0.9270 -0.6175
  697MOL0     H94056  -1.545  10.036   8.443 -1.2853 -0.8332 -1.7434
  697MOL0     H94057  -1.425   9.893   8.442  4.5587  0.8160  0.2811
  697MOL0     H94058  -1.381  10.055   8.488 -4.0319  2.9889  1.6869
  697MOL0     H94059  -1.786  10.253   8.380  3.3652 -2.2144 -0.5886
  697MOL0     H94060  -1.979  10.336   8.526  0.3734 -0.2018 -2.7996
  697MOL0     H94061  -1.938  10.235   8.898  0.8954  1.2996  0.0749
  697MOL0     H94062  -1.873  10.384   8.964 -0.9114 -0.3675  1.3724
  697MOL0     H94063  -2.171  10.322   8.927  0.0139  1.7739 -2.1084
  697MOL0     H94064  -2.086  10.332   9.089  1.0745 -0.4094 -0.4977
  697MOL0     H94065  -2.120  10.553   8.880  0.1472  1.0138 -0.7102
  697MOL0     H94066  -2.037  10.580   9.035 -1.9361  2.7631 -1.4387
  697MOL0     H94067  -2.330  10.502   9.026  0.9250 -0.7193 -0.4536
  697MOL0     H94068  -2.227  10.522   9.166 -2.1007 -1.3188 -0.3253
  697MOL0     H94069  -2.271  10.724   8.946 -0.8311  3.2203  0.4325
  697MOL0     H94070  -2.188  10.758   9.105 -1.0372  1.0277  1.9529
  697MOL0     H94071  -2.495  10.690   9.063  1.1894 -3.1457  0.6122
  697MOL0     H94072  -2.403  10.694   9.203 -0.3924 -1.2955 -0.4384
  697MOL0     H94073  -2.375  10.952   9.034 -1.5949 -1.7053 -1.5922
  697MOL0     H94074  -2.419  10.938   9.210 -1.1213 -1.6838  1.3021
  697MOL0     H94075  -2.646  10.849   9.112 -1.6670  1.7573  2.9806
  697MOL0     H94076  -2.595  10.956   8.974  1.7651  1.9061  0.3016
  697MOL0     H94077  -1.696  10.395   8.840 -0.8305 -1.6128  1.0448
  697MOL0     H94078  -1.506  10.333   8.699  0.6966 -2.4451 -1.5469
  697MOL0     H94079  -1.445  10.282   8.041  0.2501  0.1129 -0.3672
  697MOL0     H94080  -1.337  10.112   7.913 -1.2235  2.6205 -0.2861
  697MOL0     H94081   0.726   9.871   8.271 -0.9327  0.0876 -0.1771
  697MOL0     H94082   0.968   9.951   8.271 -2.8553 -0.2705  1.8060
  697MOL0     H94083   1.287  10.105   7.766 -1.4126  0.0600  0.7748
  697MOL0     H94084   1.525  10.174   7.754  2.4080  3.3142  0.6521
  697MOL0     H94085   1.808  10.403   7.896 -0.2997 -1.0435 -0.0279
  697MOL0     H94086   1.716  10.335   7.765 -2.4943 -1.3090 -0.9428
  697MOL0     H94087   1.508  10.439   7.855  0.0086  0.9922  0.0564
  697MOL0     H94088   1.631  10.558   7.796  0.2304  0.7858 -0.9302
  697MOL0     H94089   1.566  10.502   8.089 -0.2478  0.4589  0.0512
  697MOL0     H94090   1.508  10.638   7.999 -2.6494 -1.6780  5.1604
  697MOL0     H94091   1.791  10.590   8.093 -2.5879 -1.5855  2.4262
  697MOL0     H94092   1.690  10.728   8.126 -2.1948 -1.0151  0.2230
  697MOL0     H94093   1.859  10.852   7.771 -0.1716  2.3502  0.4426
  697MOL0     H94094   1.546  10.203   8.173  1.0252  1.2775 -0.7762
  697MOL0     H94095   1.305  10.135   8.205 -0.8382 -0.3762 -0.4036
  698MOL0     O94096   3.631   9.767   4.949  0.4409  0.7607  0.3236
  698MOL0     C94097   3.624   9.643   4.957  0.3179  0.2434 -0.1117
  698MOL0     O94098   3.509   9.576   5.003 -0.8244 -0.5496 -0.1024
  698MOL0     C94099   3.395   9.642   5.021  0.5494 -0.3181 -0.5989
  698MOL0     C94100   3.374   9.708   5.141  0.1075 -0.5938  0.1623
  698MOL0     C94101   3.262   9.797   5.155 -0.5945  0.6917  0.2643
  698MOL0     C94102   3.174   9.802   5.047  0.5501 -0.0114 -0.3329
  698MOL0     O94103   3.070   9.889   5.034  0.3768  0.0622 -0.0390
  698MOL0     C94104   2.991   9.908   5.149  0.7929  0.4069  0.1515
  698MOL0     C94105   2.887   9.800   5.168 -0.3206  0.7068  0.2547
  698MOL0     C94106   2.838   9.731   5.043 -0.8172  0.1469 -0.2384
  698MOL0     C94107   2.691   9.692   5.064 -0.6033 -0.4407 -0.0176
  698MOL0     C94108   2.633   9.633   4.928 -0.4606  0.0901  0.3249
  698MOL0     C94109   2.489   9.591   4.930 -0.5549 -0.4487 -0.4304
  698MOL0     C94110   2.380   9.699   4.955 -1.5874 -0.1531  0.0635
  698MOL0     C94111   2.241   9.644   4.924  0.0028 -0.1351  1.1989
  698MOL0     N94112   2.185   9.554   5.022  0.1522  0.5787 -0.4440
  698MOL0     C94113   2.114   9.592   5.136 -0.3839 -1.1820  0.6279
  698MOL0     C94114   2.060   9.482   5.183  0.8072  0.5630  0.2491
  698MOL0     C94115   1.959   9.468   5.289 -0.1091  0.0680 -0.6357
  698MOL0     C94116   1.994   9.376   5.399 -0.5181  0.5593 -0.5323
  698MOL0     C94117   1.865   9.361   5.489  0.6603 -0.8109 -0.4697
  698MOL0     C94118   1.787   9.494   5.506 -0.4772 -0.9746 -0.3670
  698MOL0     O94119   1.696   9.507   5.620 -0.4223  0.2500  0.4761
  698MOL0     C94120   1.572   9.453   5.618 -0.2344 -0.3339  0.4181
  698MOL0     C94121   1.500   9.427   5.511 -0.2126  0.8056  0.2762
  698MOL0     C94122   1.369   9.366   5.506 -0.5366  0.3576  0.0572
  698MOL0     C94123   1.308   9.333   5.373  0.2527  0.2071  0.2906
  698MOL0     C94124   1.311   9.347   5.631  0.1405  0.3655  0.3389
  698MOL0     C94125   1.171   9.296   5.660  0.6121 -0.5142 -0.2523
  698MOL0     O94126   1.119   9.314   5.788 -0.7677  0.6779  0.0486
  698MOL0     C94127   1.016   9.231   5.825 -0.0548  1.4155 -0.4114
  698MOL0     C94128   1.046   9.130   5.914  0.2047 -1.0998  0.0747
  698MOL0     C94129   0.958   9.037   5.955  0.4830  0.5830  0.0681
  698MOL0     C94130   0.831   9.027   5.891  0.0101 -0.3202 -0.0574
  698MOL0     O94131   0.747   8.914   5.890  0.9970  0.3500  0.3556
  698MOL0     C94132   0.778   8.789   5.965 -0.6820  0.6892 -0.0824
  698MOL0     C94133   0.662   8.697   5.966  0.1689  0.2207 -0.1620
  698MOL0     C94134   0.706   8.544   5.962 -0.6088  0.0617  0.1573
  698MOL0     C94135   0.593   8.449   5.990  0.1061  0.4485  0.3565
  698MOL0     C94136   0.611   8.308   5.935  0.2704 -0.3335  0.5474
  698MOL0     C94137   0.481   8.223   5.960  0.2659 -0.5801 -0.5989
  698MOL0     C94138   0.489   8.090   5.888  0.5028  0.2586  0.0108
  698MOL0     C94139   0.451   8.091   5.743  0.6229 -0.6176  0.5543
  698MOL0    Cl94140   0.283   8.150   5.729 -0.4092  0.0054  0.4811
  698MOL0     C94141   0.797   9.128   5.801 -0.2880  0.5295 -0.3348
  698MOL0     C94142   0.890   9.229   5.774  0.5617 -0.2351  0.4819
  698MOL0     O94143   1.106   9.255   5.561 -0.0334  0.2402 -0.2287
  698MOL0     C94144   1.381   9.383   5.750  0.2686 -0.1739  0.1271
  698MOL0     C94145   1.510   9.432   5.738  0.1439 -0.3207  0.7282
  698MOL0     N94146   2.126   9.379   5.116  0.1559  0.2552  0.0504
  698MOL0     N94147   2.203   9.426   5.022  0.0502  0.3684 -0.5775
  698MOL0     C94148   3.197   9.737   4.927 -0.0684  0.1889  0.3705
  698MOL0     C94149   3.306   9.654   4.921  0.0891  0.0295 -0.2318
  698MOL0     C94150   3.745   9.563   4.925 -0.0585  0.4358 -0.8193
  698MOL0     C94151   3.880   9.614   4.908  0.2569 -0.4057 -0.0968
  698MOL0     C94152   3.989   9.534   4.889 -0.1746 -0.9814  0.1463
  698MOL0     C94153   3.975   9.392   4.875  0.3886  0.2170 -1.0269
  698MOL0     O94154   4.078   9.299   4.863  0.0577  0.1269  0.2364
  698MOL0     C94155   4.211   9.350   4.855  0.2839 -0.1377 -0.1932
  698MOL0     C94156   4.303   9.226   4.877  0.2132  0.5271  0.0074
  698MOL0     C94157   4.455   9.270   4.892 -0.1824 -0.3768  0.4782
  698MOL0     C94158   4.538   9.161   4.953 -0.1582 -0.5635 -0.4780
  698MOL0     C94159   4.683   9.182   4.953 -0.8462 -0.3808 -0.7709
  698MOL0     C94160   4.798   9.193   5.001 -0.2331 -0.9636 -0.3131
  698MOL0     C94161   3.842   9.343   4.878  0.6655 -0.3021 -0.0786
  698MOL0     C94162   3.733   9.425   4.905  0.1271 -0.4959  0.2061
  698MOL0     H94163   3.446   9.698   5.222  0.7560 -0.0082 -0.3328
  698MOL0     H94164   3.243   9.851   5.247  0.1679 -0.7246  1.3025
  698MOL0     H94165   3.041   9.922   5.246  0.0945  0.4574  0.5127
  698MOL0     H94166   2.938  10.000   5.127  1.1338  0.5103 -0.2432
  698MOL0     H94167   2.940   9.722   5.223  2.4931 -0.8451 -4.1958
  698MOL0     H94168   2.805   9.849   5.224 -1.0903  2.1052 -1.9672
  698MOL0     H94169   2.838   9.803   4.960 -1.6651  1.6181  0.9655
  698MOL0     H94170   2.900   9.647   5.014 -0.3205  0.8629 -1.2870
  698MOL0     H94171   2.685   9.624   5.149 -1.1232  1.2896  1.3873
  698MOL0     H94172   2.628   9.779   5.087 -1.7085 -1.6718  1.9368
  698MOL0     H94173   2.642   9.718   4.860  1.2841  1.1101  1.7434
  698MOL0     H94174   2.700   9.552   4.896 -0.6167  0.3981 -0.8307
  698MOL0     H94175   2.469   9.542   4.834  0.5297  1.6902 -1.8439
  698MOL0     H94176   2.472   9.515   5.007  0.4930 -1.4045 -1.1111
  698MOL0     H94177   2.385   9.739   5.057  2.0098  1.2448 -0.5198
  698MOL0     H94178   2.403   9.792   4.902  0.5057  0.4044  1.8335
  698MOL0     H94179   2.258   9.585   4.833  2.6762  0.3340  1.3174
  698MOL0     H94180   2.174   9.727   4.900 -0.2780 -0.6626  0.0771
  698MOL0     H94181   2.097   9.695   5.166  1.6894 -0.0416 -1.7074
  698MOL0     H94182   1.944   9.567   5.333 -1.5077 -1.0822  1.6647
  698MOL0     H94183   1.861   9.442   5.246 -0.3754  0.4104 -0.2483
  698MOL0     H94184   2.079   9.406   5.461  0.2418 -1.3945 -0.5423
  698MOL0     H94185   2.018   9.276   5.361  2.9949 -0.4248  3.4970
  698MOL0     H94186   1.895   9.331   5.590 -0.3114  1.1316  0.4592
  698MOL0     H94187   1.808   9.275   5.452  0.4739 -1.6493  1.6070
  698MOL0     H94188   1.740   9.537   5.417  0.9367 -0.0721 -0.7068
  698MOL0     H94189   1.862   9.568   5.535 -1.0927 -0.1814 -0.7807
  698MOL0     H94190   1.539   9.435   5.410 -1.3870 -1.4644 -0.4425
  698MOL0     H94191   1.281   9.227   5.378 -0.7225  0.4113 -0.3759
  698MOL0     H94192   1.216   9.391   5.364 -0.3486 -0.5469  1.2923
  698MOL0     H94193   1.375   9.353   5.290 -0.6912  1.2367 -0.2398
  698MOL0     H94194   1.137   9.147   5.970  0.5801 -1.5265 -0.3951
  698MOL0     H94195   0.991   8.967   6.031 -0.4858  0.0186 -0.0094
  698MOL0     H94196   0.865   8.747   5.914 -1.8906  0.5604 -2.1626
  698MOL0     H94197   0.798   8.822   6.068 -1.5867  1.5351 -0.1657
  698MOL0     H94198   0.600   8.714   6.055 -1.4879 -1.5341 -0.9272
  698MOL0     H94199   0.595   8.719   5.883  0.1285 -0.1027 -0.2160
  698MOL0     H94200   0.789   8.521   6.029 -1.2480 -0.4511  0.7809
  698MOL0     H94201   0.743   8.529   5.860 -2.0096  1.6710 -0.6648
  698MOL0     H94202   0.570   8.449   6.097 -0.2034  1.9708  0.3130
  698MOL0     H94203   0.508   8.483   5.931 -0.6588 -3.3891 -1.0300
  698MOL0     H94204   0.698   8.265   5.986  0.6655 -1.4287 -0.9959
  698MOL0     H94205   0.635   8.319   5.829  0.0956 -1.4869  0.3749
  698MOL0     H94206   0.478   8.211   6.069  1.3853  1.5139 -0.2968
  698MOL0     H94207   0.392   8.275   5.922  0.7975  0.0764 -0.9630
  698MOL0     H94208   0.425   8.025   5.949 -1.0825  1.4550 -0.2847
  698MOL0     H94209   0.589   8.049   5.896  0.5823  0.6070  0.9622
  698MOL0     H94210   0.465   7.989   5.705  2.3392  0.5498 -2.3476
  698MOL0     H94211   0.519   8.160   5.690  0.3815 -0.6284  0.2232
  698MOL0     H94212   0.701   9.143   5.753 -0.3042  3.8784  0.4872
  698MOL0     H94213   0.861   9.307   5.704 -2.8105 -1.7474 -0.0033
  698MOL0     H94214   1.342   9.356   5.848  0.2908 -1.1353 -0.1238
  698MOL0     H94215   1.581   9.454   5.817  1.1635 -1.3983  0.1278
  698MOL0     H94216   3.130   9.741   4.842  0.1208  0.2142  0.2232
  698MOL0     H94217   3.330   9.619   4.822  1.0140 -1.3913  0.4522
  698MOL0     H94218   3.897   9.721   4.904 -0.7451 -0.2586 -0.7449
  698MOL0     H94219   4.092   9.568   4.891  0.0712 -1.7123  1.6262
  698MOL0     H94220   4.227   9.401   4.759 -1.3450  1.1203  0.1365
  698MOL0     H94221   4.229   9.428   4.930  1.7000  1.9868 -2.5501
  698MOL0     H94222   4.300   9.161   4.789  1.5610  0.7563 -0.2238
  698MOL0     H94223   4.267   9.164   4.960  2.8016 -2.1288 -0.7097
  698MOL0     H94224   4.454   9.358   4.957 -1.1072 -0.9230  1.2342
  698MOL0     H94225   4.502   9.305   4.800  2.2428 -0.0391  1.7484
  698MOL0     H94226   4.518   9.064   4.905  0.2501 -0.5031 -0.7666
  698MOL0     H94227   4.497   9.147   5.054  0.2847 -0.5846 -0.2995
  698MOL0     H94228   4.900   9.207   5.029 -1.0176  1.0140  1.8585
  698MOL0     H94229   3.824   9.239   4.856  0.8596 -0.0671 -1.4358
  698MOL0     H94230   3.636   9.377   4.907 -0.0227 -0.2247  2.7987
  699MOL0     O94231   7.997   4.267   7.578 -0.7611  0.2455  0.0438
  699MOL0     C94232   8.003   4.171   7.658  0.6582 -1.1116 -0.2549
  699MOL0     O94233   7.950   4.046   7.639  0.1979  0.7085 -0.6728
  699MOL0     C94234   7.864   4.033   7.541 -0.1136 -0.7156  0.7934
  699MOL0     C94235   7.916   3.984   7.417  0.8198 -0.1201 -0.6657
  699MOL0     C94236   7.827   3.974   7.310  0.8083  0.2761  0.0464
  699MOL0     C94237   7.690   4.005   7.322 -0.4190 -0.3168 -1.0790
  699MOL0     O94238   7.595   3.988   7.221  0.0906  0.4315 -0.5967
  699MOL0     C94239   7.643   3.967   7.092 -0.1653  0.0918  0.6280
  699MOL0     C94240   7.532   4.017   6.996  0.0712  0.8096 -0.2962
  699MOL0     C94241   7.404   3.934   7.014  0.5387  0.3201 -0.1878
  699MOL0     C94242   7.300   4.011   6.932 -0.1651  0.4388 -0.1798
  699MOL0     C94243   7.167   3.968   6.982 -0.1713 -0.0239  0.1658
  699MOL0     C94244   7.056   4.034   6.895 -0.0644  0.0633  0.1483
  699MOL0     C94245   6.918   4.001   6.947 -0.2755 -0.8044 -0.4182
  699MOL0     C94246   6.887   3.856   6.956  0.7108 -0.2424 -0.1209
  699MOL0     N94247   6.742   3.836   6.975  0.5131  0.3355  0.4475
  699MOL0     C94248   6.670   3.862   7.085 -0.0313 -0.6738 -0.4401
  699MOL0     C94249   6.551   3.819   7.055  0.3723  0.2149 -0.8907
  699MOL0     C94250   6.427   3.825   7.147 -0.0833 -0.3061 -0.8328
  699MOL0     C94251   6.405   3.962   7.215  0.2599  0.1078 -0.8995
  699MOL0     C94252   6.360   3.947   7.363 -0.3858  0.4696  0.0185
  699MOL0     C94253   6.210   3.908   7.377  0.4183 -0.3078  0.6028
  699MOL0     O94254   6.165   3.937   7.517 -0.1326  0.2567 -0.2924
  699MOL0     C94255   6.026   3.909   7.549  1.3018  0.6793 -0.0782
  699MOL0     C94256   5.982   3.872   7.673  0.4417  0.1001 -0.1293
  699MOL0     C94257   5.848   3.851   7.721  1.0633  0.7007 -0.7569
  699MOL0     C94258   5.835   3.815   7.867  0.0813 -0.9593  0.2696
  699MOL0     C94259   5.739   3.863   7.622  0.9467  0.1551 -0.6456
  699MOL0     C94260   5.589   3.838   7.640 -1.0065 -0.1544 -1.1280
  699MOL0     O94261   5.516   3.869   7.529 -0.1220  0.1204 -0.1911
  699MOL0     C94262   5.377   3.869   7.538  0.6142  0.4862  0.7341
  699MOL0     C94263   5.315   3.751   7.555 -0.3413 -0.7942  0.1824
  699MOL0     C94264   5.177   3.744   7.579 -0.2312  0.5344  0.0354
  699MOL0     C94265   5.105   3.865   7.575  0.4202 -0.1743  0.2699
  699MOL0     O94266   4.974   3.873   7.616  0.1518  0.4205 -0.0044
  699MOL0     C94267   4.891   3.761   7.591  0.0431  0.4846  0.0198
  699MOL0     C94268   4.752   3.813   7.613 -0.1741  0.5803  0.8080
  699MOL0     C94269   4.712   3.917   7.514  0.2060 -0.2823 -0.1219
  699MOL0     C94270   4.567   3.892   7.474  0.0690 -0.3983  0.3509
  699MOL0     C94271   4.523   4.012   7.389  0.0575 -0.8093  0.7199
  699MOL0     C94272   4.381   4.021   7.336 -0.5431 -0.4624 -0.1629
  699MOL0     C94273   4.278   4.075   7.454 -0.8087 -0.0703  0.8393
  699MOL0     C94274   4.213   3.958   7.526  0.2441 -0.1290 -0.0031
  699MOL0    Cl94275   4.101   3.873   7.433  0.0258  0.1171  0.0550
  699MOL0     C94276   5.173   3.982   7.557 -0.3300  0.0896  0.1385
  699MOL0     C94277   5.307   3.986   7.540 -0.2024 -0.6591  0.1781
  699MOL0     O94278   5.532   3.806   7.746 -0.0724  0.4431 -0.2025
  699MOL0     C94279   5.783   3.909   7.493 -0.1988  0.4380 -0.7309
  699MOL0     C94280   5.920   3.939   7.458  0.0990 -0.0410 -0.6034
  699MOL0     N94281   6.555   3.771   6.932  1.5934  0.5112  0.2807
  699MOL0     N94282   6.662   3.780   6.882 -0.3652 -0.1274  0.1427
  699MOL0     C94283   7.646   4.052   7.447  0.3554  0.0940 -0.1534
  699MOL0     C94284   7.732   4.060   7.552  0.6475  0.1373  0.2935
  699MOL0     C94285   8.085   4.173   7.773  0.5725 -0.5518 -0.8935
  699MOL0     C94286   8.192   4.261   7.773 -0.3334  0.5245  0.7976
  699MOL0     C94287   8.263   4.274   7.890  0.1254 -0.3102 -0.1692
  699MOL0     C94288   8.238   4.195   8.009  0.8127 -0.1706  0.4027
  699MOL0     O94289   8.305   4.191   8.130 -0.1041  0.0445 -0.6860
  699MOL0     C94290   8.427   4.265   8.155  0.8429 -0.4866 -0.1888
  699MOL0     C94291   8.543   4.171   8.174  0.0956  0.9174 -0.3174
  699MOL0     C94292   8.575   4.063   8.073 -0.3893 -0.0779  0.4265
  699MOL0     C94293   8.701   3.973   8.098  0.1819  0.2099 -0.0326
  699MOL0     C94294   8.686   3.855   8.013 -0.2110 -0.7905  0.2994
  699MOL0     C94295   8.666   3.752   7.956 -1.3618 -0.1261  0.6952
  699MOL0     C94296   8.134   4.102   8.003 -0.1432 -0.0935  0.2932
  699MOL0     C94297   8.053   4.100   7.889  0.5118  0.3514  0.4288
  699MOL0     H94298   8.020   3.959   7.402 -0.4842 -4.8383 -5.0057
  699MOL0     H94299   7.866   3.931   7.218 -0.4109 -0.4825 -0.1297
  699MOL0     H94300   7.726   4.031   7.062  0.2459 -0.0366  1.4437
  699MOL0     H94301   7.678   3.866   7.065 -1.9538 -0.3272 -0.2645
  699MOL0     H94302   7.510   4.121   7.018 -2.2859  0.7929 -2.1674
  699MOL0     H94303   7.556   3.998   6.891 -1.1141 -1.3665 -0.2407
  699MOL0     H94304   7.429   3.840   6.963 -2.3760  0.5253 -2.2970
  699MOL0     H94305   7.365   3.914   7.114 -0.9252  0.0766 -0.7805
  699MOL0     H94306   7.307   4.118   6.954 -0.0817  0.6352 -1.1168
  699MOL0     H94307   7.317   3.980   6.828  2.3731 -2.9740  1.0805
  699MOL0     H94308   7.153   3.860   6.969 -0.5154  0.2839 -3.0936
  699MOL0     H94309   7.146   4.005   7.082  0.8797  3.4118 -0.7418
  699MOL0     H94310   7.058   4.143   6.888  0.6376 -0.0577 -3.1632
  699MOL0     H94311   7.060   3.990   6.795  1.4455 -0.2492  0.3216
  699MOL0     H94312   6.899   4.049   7.044 -1.7239 -0.3451 -0.8949
  699MOL0     H94313   6.853   4.049   6.874 -0.0850 -1.7723 -1.2366
  699MOL0     H94314   6.941   3.820   7.043  0.4636  2.7298  1.3820
  699MOL0     H94315   6.911   3.796   6.867  1.0318 -0.2461 -0.0312
  699MOL0     H94316   6.707   3.915   7.172  0.9514 -2.4196  0.2579
  699MOL0     H94317   6.335   3.802   7.092 -0.5405 -0.4949 -0.0043
  699MOL0     H94318   6.426   3.745   7.222 -2.5302 -0.3503 -0.8268
  699MOL0     H94319   6.331   4.018   7.158  2.6534  0.7258 -3.6178
  699MOL0     H94320   6.500   4.015   7.211 -0.0092  0.6071 -0.8042
  699MOL0     H94321   6.376   4.047   7.402 -0.3548  0.3707  0.2606
  699MOL0     H94322   6.416   3.864   7.408 -0.7306 -0.4836 -1.2391
  699MOL0     H94323   6.201   3.801   7.355  1.0983 -0.0245 -1.2464
  699MOL0     H94324   6.147   3.963   7.306  2.1354  0.4158 -0.4356
  699MOL0     H94325   6.067   3.860   7.739 -0.9373  1.0353  1.9354
  699MOL0     H94326   5.796   3.897   7.928  0.9587 -0.2196 -0.1486
  699MOL0     H94327   5.761   3.735   7.860  1.3821 -2.0615 -3.3447
  699MOL0     H94328   5.926   3.776   7.913  0.9753 -0.3820 -0.9579
  699MOL0     H94329   5.371   3.659   7.551 -0.0890 -0.6921  1.2374
  699MOL0     H94330   5.134   3.646   7.598 -0.9867  0.6104 -1.1689
  699MOL0     H94331   4.889   3.706   7.496 -3.1031 -3.4354  2.0516
  699MOL0     H94332   4.904   3.681   7.664 -1.6357  0.1912  0.0389
  699MOL0     H94333   4.698   3.722   7.586 -2.5528  2.3528 -0.7681
  699MOL0     H94334   4.726   3.847   7.713 -1.8863  3.1811 -0.4176
  699MOL0     H94335   4.772   3.910   7.423  1.1410 -0.9626  0.5313
  699MOL0     H94336   4.723   4.012   7.568  2.2866  1.0133 -2.6299
  699MOL0     H94337   4.555   3.802   7.413 -2.1184 -0.3611  0.6357
  699MOL0     H94338   4.499   3.886   7.560  0.6519  0.5512  0.8948
  699MOL0     H94339   4.582   4.021   7.298 -3.2104 -0.3490 -1.4988
  699MOL0     H94340   4.540   4.106   7.444  0.7473 -0.5585  0.0817
  699MOL0     H94341   4.372   4.084   7.247 -1.2066 -1.0533 -0.5194
  699MOL0     H94342   4.351   3.925   7.295  2.0089 -0.8508 -1.2920
  699MOL0     H94343   4.209   4.147   7.408  0.6127  0.2762 -0.8391
  699MOL0     H94344   4.344   4.128   7.523  1.6386  0.0307 -1.4024
  699MOL0     H94345   4.163   3.986   7.619 -1.9343  1.4717 -1.5406
  699MOL0     H94346   4.296   3.891   7.552  0.6765 -0.3467 -1.7902
  699MOL0     H94347   5.112   4.071   7.545  0.1455  0.1823 -2.0323
  699MOL0     H94348   5.368   4.076   7.536 -2.3918  0.9061  0.6574
  699MOL0     H94349   5.708   3.939   7.421 -2.4729  2.9306  2.3759
  699MOL0     H94350   5.953   3.969   7.360  2.2350 -0.0929  0.0504
  699MOL0     H94351   7.539   4.069   7.457  0.5837  0.6808  1.4935
  699MOL0     H94352   7.689   4.099   7.644  0.4982 -1.9239  1.1445
  699MOL0     H94353   8.202   4.326   7.686 -2.7495 -0.5854 -0.4310
  699MOL0     H94354   8.356   4.328   7.885  0.7713 -1.1999  1.3368
  699MOL0     H94355   8.440   4.335   8.072 -0.9918  2.3319  1.7690
  699MOL0     H94356   8.415   4.323   8.246  1.2291  1.4812 -1.3349
  699MOL0     H94357   8.536   4.123   8.272 -3.5274  0.5742 -0.5872
  699MOL0     H94358   8.620   4.248   8.165 -0.3256  1.7741  2.4883
  699MOL0     H94359   8.589   4.114   7.977 -0.1940 -1.5107 -0.3326
  699MOL0     H94360   8.490   3.996   8.056  0.7191 -1.6493  0.8704
  699MOL0     H94361   8.718   3.942   8.201  0.1319 -1.0262 -0.3854
  699MOL0     H94362   8.790   4.033   8.078 -0.8454  2.1592  0.9703
  699MOL0     H94363   8.669   3.654   7.914 -0.8629 -1.2085  3.1032
  699MOL0     H94364   8.110   4.041   8.090 -1.7497  0.2292  0.1193
  699MOL0     H94365   7.977   4.022   7.884  1.6157 -0.7158 -3.1479
  700MOL0     O94366   9.920   7.275  10.856 -1.3672  0.2693 -0.5011
  700MOL0     C94367   9.897   7.173  10.796  0.3267  0.3271 -0.6526
  700MOL0     O94368   9.987   7.069  10.783  0.9389 -0.0321  0.3093
  700MOL0     C94369  10.122   7.076  10.794  0.0262 -0.0501  0.0704
  700MOL0     C94370  10.196   7.190  10.766 -0.3123  0.1253  0.4255
  700MOL0     C94371  10.328   7.194  10.795 -0.4793 -0.4343  0.6320
  700MOL0     C94372  10.395   7.081  10.844 -0.0629  0.3577  0.8536
  700MOL0     O94373  10.528   7.091  10.858 -0.1897  0.5206  1.2079
  700MOL0     C94374  10.614   6.977  10.847 -0.5657  0.5082 -0.0015
  700MOL0     C94375  10.759   7.029  10.861 -0.3952  0.3277  0.3679
  700MOL0     C94376  10.795   7.049  11.012  0.7652  0.4227 -1.2846
  700MOL0     C94377  10.931   7.114  11.040 -0.3424  0.5672 -0.3158
  700MOL0     C94378  11.055   7.022  10.995  0.3996 -0.0473 -0.6742
  700MOL0     C94379  11.169   7.112  10.956 -0.5057  0.2102  0.2675
  700MOL0     C94380  11.276   7.024  10.888  0.6489 -0.4371  0.1344
  700MOL0     C94381  11.355   6.926  10.976  0.0261 -0.2489  0.5853
  700MOL0     N94382  11.488   6.878  10.930 -0.6042 -0.6702  0.0527
  700MOL0     C94383  11.535   6.871  10.804  0.3097  1.1855 -0.0703
  700MOL0     C94384  11.654   6.807  10.826  0.4137 -0.8626  0.0536
  700MOL0     C94385  11.742   6.752  10.712  0.1438  0.0806  0.3069
  700MOL0     C94386  11.864   6.837  10.680  0.6454  0.4362 -0.7852
  700MOL0     C94387  11.962   6.830  10.797 -0.2693  0.8887 -0.5746
  700MOL0     C94388  12.089   6.899  10.766 -0.0828 -0.9668 -0.3586
  700MOL0     O94389  12.184   6.879  10.872  0.2561 -0.0719  0.4297
  700MOL0     C94390  12.321   6.878  10.851  0.2456 -0.4504  0.4610
  700MOL0     C94391  12.410   6.843  10.952 -0.1806 -0.3046  0.5777
  700MOL0     C94392  12.551   6.838  10.934  0.5780  0.3130 -0.2143
  700MOL0     C94393  12.632   6.800  11.062  0.0879 -0.0029  0.6875
  700MOL0     C94394  12.612   6.874  10.807  1.1128 -1.2218  0.1038
  700MOL0     C94395  12.758   6.866  10.784 -0.4331  0.6725 -0.0906
  700MOL0     O94396  12.809   6.907  10.666 -0.1656  0.2401 -0.3807
  700MOL0     C94397  12.939   6.885  10.643 -0.6052  0.3323 -1.3686
  700MOL0     C94398  13.001   6.766  10.604 -0.2139 -0.8107 -0.6816
  700MOL0     C94399  13.130   6.752  10.565  0.5786 -0.1707 -0.0820
  700MOL0     C94400  13.217   6.864  10.569 -0.5263  0.0978 -0.2583
  700MOL0     O94401  13.347   6.873  10.532 -0.3963  0.2716  0.6224
  700MOL0     C94402  13.418   6.749  10.550  0.9977  0.0486 -0.7767
  700MOL0     C94403  13.572   6.778  10.532  0.3639 -0.2291 -0.5748
  700MOL0     C94404  13.655   6.641  10.541  0.4053 -0.0129 -0.1646
  700MOL0     C94405  13.803   6.680  10.505  0.8799 -0.1204 -0.1823
  700MOL0     C94406  13.890   6.559  10.531 -0.7959 -0.0486  0.1862
  700MOL0     C94407  13.858   6.425  10.463  0.3641 -0.2795  0.0342
  700MOL0     C94408  13.973   6.326  10.503 -0.2155 -0.8161 -0.6174
  700MOL0     C94409  13.949   6.185  10.452  1.2382  0.1084 -0.6163
  700MOL0    Cl94410  14.112   6.113  10.473 -0.2074 -0.2098  0.0011
  700MOL0     C94411  13.161   6.983  10.613  0.3438  0.2167 -0.4011
  700MOL0     C94412  13.023   6.999  10.637 -0.4000 -0.2348  0.4125
  700MOL0     O94413  12.820   6.797  10.867 -0.1811 -0.0906  0.6180
  700MOL0     C94414  12.514   6.917  10.709 -0.6906 -0.3864  0.8145
  700MOL0     C94415  12.377   6.910  10.724  0.5674 -0.1577 -0.0049
  700MOL0     N94416  11.680   6.778  10.961  0.1498  0.2533  0.6561
  700MOL0     N94417  11.580   6.832  11.023 -0.2870 -0.5845 -0.2203
  700MOL0     C94418  10.327   6.966  10.869  0.2765  0.3340  0.1133
  700MOL0     C94419  10.190   6.966  10.848 -0.7144  1.0215 -0.6221
  700MOL0     C94420   9.761   7.163  10.757 -0.4469  0.2527  1.1413
  700MOL0     C94421   9.701   7.037  10.739 -0.5607 -0.0329 -0.2268
  700MOL0     C94422   9.559   7.023  10.719 -0.2473  0.6105  0.2070
  700MOL0     C94423   9.475   7.131  10.723 -0.0915  0.6204  0.1340
  700MOL0     O94424   9.340   7.126  10.712  0.6551 -0.5242  0.1262
  700MOL0     C94425   9.278   6.996  10.693 -0.2465  1.0979  0.4062
  700MOL0     C94426   9.129   6.998  10.675 -0.9844  0.4245  0.1019
  700MOL0     C94427   9.087   7.096  10.565 -0.4625  1.0648  0.6223
  700MOL0     C94428   8.940   7.113  10.539  1.0608  0.2034 -0.2048
  700MOL0     C94429   8.876   7.153  10.667  0.3799  0.1293  0.7326
  700MOL0     C94430   8.822   7.175  10.772  0.0060  0.0163  0.5132
  700MOL0     C94431   9.529   7.260  10.738 -0.5171  0.0105  0.0330
  700MOL0     C94432   9.669   7.269  10.756  0.0900  0.3542 -0.1692
  700MOL0     H94433  10.143   7.283  10.746  2.3046  1.4148 -1.0293
  700MOL0     H94434  10.395   7.276  10.771  2.9008 -2.7321  1.4662
  700MOL0     H94435  10.602   6.904  10.927  1.2551  0.5756  0.3913
  700MOL0     H94436  10.593   6.927  10.752  1.8271  2.5368 -1.7517
  700MOL0     H94437  10.825   6.950  10.823 -2.2798  0.0981 -2.8178
  700MOL0     H94438  10.778   7.127  10.816  2.4821  0.0683  0.8434
  700MOL0     H94439  10.725   7.120  11.058  1.8781  0.8973 -0.2533
  700MOL0     H94440  10.780   6.947  11.048 -1.4498  0.8264 -0.9337
  700MOL0     H94441  10.944   7.210  10.989 -2.2580 -0.7710 -3.6304
  700MOL0     H94442  10.950   7.136  11.146 -1.6415  1.0811 -0.1790
  700MOL0     H94443  11.083   6.972  11.088 -0.1254  3.6970  1.7318
  700MOL0     H94444  11.027   6.952  10.916 -1.1633  2.2283 -2.2594
  700MOL0     H94445  11.149   7.189  10.882  0.4658  0.3977  0.1787
  700MOL0     H94446  11.208   7.150  11.051 -1.6859  1.4248  0.2846
  700MOL0     H94447  11.236   6.966  10.805 -0.2595 -0.9373  0.9011
  700MOL0     H94448  11.350   7.098  10.855 -0.3678  1.0508  1.0905
  700MOL0     H94449  11.290   6.839  10.991 -0.8718 -0.4256 -3.3756
  700MOL0     H94450  11.369   6.972  11.074 -1.6818  2.5779 -0.3804
  700MOL0     H94451  11.480   6.898  10.715 -2.5694 -2.0771  0.5313
  700MOL0     H94452  11.788   6.655  10.730  0.7293  0.0507 -1.1720
  700MOL0     H94453  11.686   6.752  10.617  0.5020  0.7813  0.0860
  700MOL0     H94454  11.835   6.940  10.658 -0.0012  0.3744 -0.2404
  700MOL0     H94455  11.912   6.798  10.590 -1.2850  0.1161 -1.7248
  700MOL0     H94456  11.998   6.728  10.816 -0.2330  0.9946 -0.0616
  700MOL0     H94457  11.920   6.872  10.889 -1.2504  0.6109 -0.8744
  700MOL0     H94458  12.079   7.008  10.764  1.1257 -0.8489 -0.2113
  700MOL0     H94459  12.124   6.867  10.668 -0.8958 -0.1221 -0.9407
  700MOL0     H94460  12.378   6.815  11.052  3.0107  2.1769  2.5202
  700MOL0     H94461  12.563   6.796  11.146 -0.3747 -0.2942  0.3009
  700MOL0     H94462  12.673   6.700  11.045 -1.0477 -0.3545 -0.1248
  700MOL0     H94463  12.711   6.872  11.086 -0.2359  0.5794  0.0521
  700MOL0     H94464  12.937   6.679  10.590  0.5958 -1.8127  1.4107
  700MOL0     H94465  13.173   6.654  10.544  2.8127  0.9349 -1.0767
  700MOL0     H94466  13.401   6.715  10.653  0.9911  0.2337 -0.7167
  700MOL0     H94467  13.395   6.668  10.480  0.3791  0.0056 -0.5342
  700MOL0     H94468  13.582   6.826  10.435  0.2556  0.1472 -0.4005
  700MOL0     H94469  13.604   6.838  10.618  4.4195  0.4176 -2.3174
  700MOL0     H94470  13.610   6.569  10.472 -3.0315  1.2531  0.5378
  700MOL0     H94471  13.642   6.598  10.641 -0.3018 -0.2810 -0.3647
  700MOL0     H94472  13.808   6.707  10.399  1.2650 -1.2941 -0.4772
  700MOL0     H94473  13.846   6.761  10.564 -2.5106  1.7690 -0.0323
  700MOL0     H94474  13.892   6.531  10.636 -1.7465  1.1799  0.5542
  700MOL0     H94475  13.995   6.586  10.519 -0.3581 -1.0210  1.6182
  700MOL0     H94476  13.757   6.390  10.486 -0.1190  0.4127 -0.9773
  700MOL0     H94477  13.852   6.437  10.355  2.1592  2.9186  0.1743
  700MOL0     H94478  13.979   6.328  10.612 -2.7595 -2.5301 -0.3445
  700MOL0     H94479  14.060   6.373  10.456 -1.5997  1.2020 -1.3005
  700MOL0     H94480  13.920   6.180  10.346  1.2680  1.8185 -0.7269
  700MOL0     H94481  13.873   6.134  10.512  1.5303 -0.4262 -0.6948
  700MOL0     H94482  13.224   7.072  10.616  0.2530  0.3554 -1.7723
  700MOL0     H94483  12.986   7.098  10.662  1.4450  0.8884 -1.0180
  700MOL0     H94484  12.554   6.943  10.611 -0.8565  1.2098  1.1450
  700MOL0     H94485  12.308   6.937  10.644  2.0937 -2.0039 -2.0662
  700MOL0     H94486  10.376   6.878  10.910 -2.6322 -1.4730 -0.0319
  700MOL0     H94487  10.146   6.874  10.884  4.3074 -0.7001  2.0001
  700MOL0     H94488   9.761   6.947  10.739  0.8625  0.8381  2.0470
  700MOL0     H94489   9.520   6.922  10.706  0.9469  0.2410 -0.6561
  700MOL0     H94490   9.328   6.951  10.606 -1.2628 -0.1012  0.4324
  700MOL0     H94491   9.302   6.933  10.779 -1.2042 -1.5946 -1.1939
  700MOL0     H94492   9.085   7.012  10.775 -0.9743  0.3871  0.1122
  700MOL0     H94493   9.097   6.899  10.642 -3.7014  1.6313 -1.1900
  700MOL0     H94494   9.118   7.057  10.467 -2.9137 -3.9980  1.5470
  700MOL0     H94495   9.131   7.195  10.580  1.6428  0.7625 -2.6259
  700MOL0     H94496   8.888   7.028  10.493  1.4948  0.2333 -0.7607
  700MOL0     H94497   8.922   7.197  10.471 -3.6783  1.3990  2.0818
  700MOL0     H94498   8.768   7.202  10.861  0.3322  1.4986  0.3014
  700MOL0     H94499   9.470   7.350  10.724 -1.0910  0.0557  2.3682
  700MOL0     H94500   9.715   7.366  10.777  0.9212 -0.0521 -0.0790
  701MOL0     O94501  11.278   7.088   9.038 -0.2458 -0.0615  0.2231
  701MOL0     C94502  11.373   7.011   9.065  1.3960  0.2539  0.9702
  701MOL0     O94503  11.361   6.875   9.047 -0.1666 -0.4358 -0.6457
  701MOL0     C94504  11.238   6.815   9.036  0.4508 -0.3756 -0.6153
  701MOL0     C94505  11.230   6.702   8.957  0.4302 -0.2482  0.3181
  701MOL0     C94506  11.111   6.634   8.947 -0.2680  0.6322  0.5352
  701MOL0     C94507  10.997   6.659   9.025  0.7220 -0.7254 -0.5110
  701MOL0     O94508  10.894   6.569   9.021 -0.1217  0.5493 -0.0856
  701MOL0     C94509  10.763   6.628   9.009  0.5426  0.3853 -0.2543
  701MOL0     C94510  10.677   6.596   9.133  1.0246 -0.0096 -0.4743
  701MOL0     C94511  10.529   6.591   9.102  0.2281 -0.3506  0.7475
  701MOL0     C94512  10.450   6.625   9.235 -0.1972 -0.3713  0.3306
  701MOL0     C94513  10.300   6.598   9.212  0.0635 -0.8574 -0.2604
  701MOL0     C94514  10.244   6.447   9.229 -0.5446 -0.3775 -0.4471
  701MOL0     C94515  10.089   6.451   9.215 -0.0079  1.5124  0.3659
  701MOL0     C94516  10.032   6.456   9.066 -0.3491  0.4219  0.6745
  701MOL0     N94517   9.896   6.391   9.041  0.6108  0.2215 -0.2279
  701MOL0     C94518   9.784   6.475   9.056 -0.8754  0.3796 -0.4226
  701MOL0     C94519   9.681   6.396   9.012  0.5497  0.5736 -0.4186
  701MOL0     C94520   9.531   6.424   9.027 -0.1163 -0.7308  0.3564
  701MOL0     C94521   9.480   6.510   8.906  0.1511  0.6571  0.5595
  701MOL0     C94522   9.349   6.577   8.937 -0.0204  0.3971 -0.1221
  701MOL0     C94523   9.297   6.658   8.819 -0.2680  0.1677  0.1467
  701MOL0     O94524   9.186   6.734   8.865 -0.0118  0.6196 -0.1274
  701MOL0     C94525   9.063   6.679   8.882  0.4888 -0.4644  0.1969
  701MOL0     C94526   9.032   6.547   8.837  0.4216 -0.5674 -0.5507
  701MOL0     C94527   8.901   6.500   8.852  0.1048 -0.3637  0.0214
  701MOL0     C94528   8.878   6.354   8.805  0.0251 -0.1815 -0.6399
  701MOL0     C94529   8.801   6.589   8.907 -0.1140 -0.3759 -0.3986
  701MOL0     C94530   8.664   6.552   8.917  0.1100 -0.2731 -0.0650
  701MOL0     O94531   8.590   6.622   9.009  0.4839  0.4122  0.0035
  701MOL0     C94532   8.456   6.620   8.997  1.1654 -0.1023 -0.1312
  701MOL0     C94533   8.385   6.744   8.976  0.1649  0.5149 -0.5387
  701MOL0     C94534   8.242   6.748   8.969  0.3383  0.1018  0.0792
  701MOL0     C94535   8.160   6.630   8.961 -0.0423 -0.3747  0.4092
  701MOL0     O94536   8.018   6.633   8.971  0.1535 -0.3957 -0.5374
  701MOL0     C94537   7.957   6.763   8.990  0.1582  0.1451 -0.3644
  701MOL0     C94538   7.806   6.749   8.976  0.2263  0.0853 -0.0245
  701MOL0     C94539   7.766   6.705   8.837  0.6484 -0.0400  0.1386
  701MOL0     C94540   7.611   6.677   8.820  0.3477  0.3315  0.2725
  701MOL0     C94541   7.598   6.582   8.703  0.0487  0.7666 -1.0621
  701MOL0     C94542   7.449   6.572   8.669 -0.8406  0.4041  0.5101
  701MOL0     C94543   7.436   6.490   8.535 -0.5951 -0.7783  0.5759
  701MOL0     C94544   7.297   6.430   8.527  0.5152  0.4565 -0.3890
  701MOL0    Cl94545   7.171   6.553   8.534  0.0154 -0.0405 -0.0826
  701MOL0     C94546   8.236   6.507   8.975  0.2154 -0.0316 -1.1038
  701MOL0     C94547   8.376   6.508   8.988 -0.4379  0.7694  0.3500
  701MOL0     O94548   8.624   6.497   8.814 -0.1824 -0.3963  0.0751
  701MOL0     C94549   8.845   6.714   8.966  0.5485  0.3748  0.2996
  701MOL0     C94550   8.973   6.757   8.950  0.0374  0.5774 -0.4511
  701MOL0     N94551   9.726   6.269   8.990  0.8663 -0.3932 -0.0820
  701MOL0     N94552   9.857   6.265   8.994 -0.0698 -0.8892 -0.3032
  701MOL0     C94553  10.998   6.777   9.106 -0.9218 -0.1738 -0.4229
  701MOL0     C94554  11.121   6.851   9.115 -0.2579 -0.2110  0.0355
  701MOL0     C94555  11.502   7.065   9.108 -0.2508 -0.2343  0.0146
  701MOL0     C94556  11.525   7.202   9.109 -0.7602  0.1636 -0.0799
  701MOL0     C94557  11.643   7.255   9.158  0.2317 -0.1984  0.0734
  701MOL0     C94558  11.748   7.168   9.198 -0.7185 -0.4134  0.9409
  701MOL0     O94559  11.860   7.243   9.232 -0.8045  0.4021  0.0428
  701MOL0     C94560  11.985   7.176   9.267  0.3844 -0.0329  0.3881
  701MOL0     C94561  12.103   7.279   9.287  0.7036 -0.0537 -0.1476
  701MOL0     C94562  12.236   7.210   9.336  0.1984  0.4356  0.1555
  701MOL0     C94563  12.361   7.285   9.278  0.9776  0.2416 -0.4450
  701MOL0     C94564  12.490   7.246   9.343 -0.5079  0.3972  0.7165
  701MOL0     C94565  12.595   7.211   9.387  0.7166  0.3601 -0.0820
  701MOL0     C94566  11.734   7.032   9.177  0.0232 -0.0065  0.2488
  701MOL0     C94567  11.609   6.977   9.147  0.5049  0.0068  0.2463
  701MOL0     H94568  11.318   6.679   8.898  0.4053 -1.5623  0.7752
  701MOL0     H94569  11.097   6.550   8.880 -1.5608  2.8391 -2.1973
  701MOL0     H94570  10.763   6.735   8.987 -0.4522  0.1613 -1.4222
  701MOL0     H94571  10.718   6.582   8.920  0.5628  1.8074 -1.0200
  701MOL0     H94572  10.705   6.499   9.174 -0.3685  1.2374  3.9595
  701MOL0     H94573  10.694   6.668   9.213  3.3449 -1.3677  0.3367
  701MOL0     H94574  10.504   6.671   9.032  0.1479 -0.5272  0.5731
  701MOL0     H94575  10.506   6.491   9.063  1.1096 -0.2786 -0.0091
  701MOL0     H94576  10.490   6.570   9.321 -0.1237 -0.0784  0.4889
  701MOL0     H94577  10.477   6.727   9.266  2.4215 -0.4549 -1.3577
  701MOL0     H94578  10.243   6.669   9.272  0.4575  0.5360 -1.4837
  701MOL0     H94579  10.276   6.630   9.110  1.4846 -3.2777 -1.4471
  701MOL0     H94580  10.278   6.383   9.147 -3.1941 -1.4800 -0.7557
  701MOL0     H94581  10.286   6.399   9.317  2.3495  0.0774 -1.4544
  701MOL0     H94582  10.051   6.354   9.249  1.5593 -0.1618 -2.2723
  701MOL0     H94583  10.052   6.533   9.277  0.7943  2.6842 -0.6592
  701MOL0     H94584  10.110   6.398   9.016  0.5151 -0.0474  2.4875
  701MOL0     H94585  10.030   6.553   9.016  0.3113  0.3854  0.5667
  701MOL0     H94586   9.784   6.582   9.072 -0.0875  0.6043 -1.8299
  701MOL0     H94587   9.483   6.326   9.038  0.2908 -0.9866 -0.1607
  701MOL0     H94588   9.510   6.470   9.124  1.3060  0.4726  0.1301
  701MOL0     H94589   9.467   6.446   8.817 -1.3990  3.8113 -1.6525
  701MOL0     H94590   9.556   6.586   8.883 -1.1913  1.3989 -1.6812
  701MOL0     H94591   9.372   6.642   9.022  0.8057 -0.5669  0.4121
  701MOL0     H94592   9.275   6.502   8.964 -1.2399  0.8882 -1.9020
  701MOL0     H94593   9.272   6.585   8.740  3.3475 -0.9904 -0.0891
  701MOL0     H94594   9.369   6.726   8.772 -1.3525  0.2250 -1.5390
  701MOL0     H94595   9.109   6.486   8.790  2.5788  1.5592  0.0359
  701MOL0     H94596   8.816   6.360   8.715  0.7738  2.9213 -1.0715
  701MOL0     H94597   8.971   6.295   8.802 -0.8946 -1.9024  1.8987
  701MOL0     H94598   8.809   6.302   8.872  0.7733 -0.7503 -0.2993
  701MOL0     H94599   8.438   6.839   8.977 -0.1344  0.6815  0.6385
  701MOL0     H94600   8.205   6.850   8.963 -2.0155 -0.6872  0.1675
  701MOL0     H94601   7.989   6.826   9.074  0.5492  0.4564 -0.7368
  701MOL0     H94602   8.004   6.809   8.902  1.3133 -0.3397 -0.0281
  701MOL0     H94603   7.767   6.687   9.057 -1.1815  0.7494 -0.1695
  701MOL0     H94604   7.770   6.851   8.992  0.3354  0.3011 -1.0557
  701MOL0     H94605   7.826   6.618   8.807  1.7501  0.6316  0.3352
  701MOL0     H94606   7.789   6.779   8.760  1.1099 -0.2793  0.0433
  701MOL0     H94607   7.565   6.627   8.905  0.5973 -0.9201 -0.3076
  701MOL0     H94608   7.569   6.778   8.811  1.2899  0.6232 -1.3528
  701MOL0     H94609   7.634   6.484   8.736 -2.1631  0.4357  0.6498
  701MOL0     H94610   7.662   6.612   8.620  0.4640 -0.2404 -1.1220
  701MOL0     H94611   7.386   6.531   8.749  0.9737  0.2976  1.9582
  701MOL0     H94612   7.409   6.672   8.652  2.1631  1.6095 -0.2323
  701MOL0     H94613   7.511   6.413   8.517 -1.1668 -0.6301 -3.3918
  701MOL0     H94614   7.448   6.558   8.450  3.3867 -1.6968  0.2004
  701MOL0     H94615   7.267   6.358   8.604 -1.2052 -1.5794 -2.8278
  701MOL0     H94616   7.287   6.369   8.438  3.0800  0.1652 -0.5625
  701MOL0     H94617   8.180   6.414   8.978 -1.4375  0.9454 -0.0860
  701MOL0     H94618   8.423   6.411   9.000 -0.8408 -0.2125 -4.1858
  701MOL0     H94619   8.776   6.780   9.019  1.5471  1.0621  0.7667
  701MOL0     H94620   9.007   6.849   8.994 -1.3785 -0.0341  2.1030
  701MOL0     H94621  10.923   6.814   9.174  0.6894  0.7249  0.9470
  701MOL0     H94622  11.124   6.948   9.163 -0.5471  0.7185 -1.7355
  701MOL0     H94623  11.448   7.272   9.079 -1.2210 -1.6215 -3.6642
  701MOL0     H94624  11.650   7.363   9.158 -3.8946  0.2297  1.2547
  701MOL0     H94625  11.968   7.119   9.359  1.6737  0.1644  0.7700
  701MOL0     H94626  12.012   7.105   9.189  1.7294  1.8564 -0.9604
  701MOL0     H94627  12.082   7.351   9.366  0.2112 -0.9622  0.5657
  701MOL0     H94628  12.110   7.336   9.193 -0.6053 -0.6114 -0.6017
  701MOL0     H94629  12.231   7.106   9.305  3.3451  0.6135 -1.3504
  701MOL0     H94630  12.236   7.219   9.445 -0.4107 -1.0059  0.2959
  701MOL0     H94631  12.351   7.390   9.304  1.2811 -0.1493  1.3543
  701MOL0     H94632  12.363   7.273   9.169  5.0678 -2.3756 -0.3341
  701MOL0     H94633  12.687   7.177   9.431  0.4995  0.7306  0.6731
  701MOL0     H94634  11.818   6.970   9.207  0.2503  0.0152 -0.3341
  701MOL0     H94635  11.606   6.871   9.124  3.9268 -0.0256 -0.4472
  702MOL0     O94636   3.159   6.693  10.209  0.5466  0.5722  1.5429
  702MOL0     C94637   3.234   6.767  10.266  0.7129 -0.2243  0.4106
  702MOL0     O94638   3.200   6.874  10.335  0.3562  0.1306 -0.1334
  702MOL0     C94639   3.071   6.920  10.356 -0.2404  0.8356  0.7285
  702MOL0     C94640   2.954   6.848  10.389  0.4533  0.0522  0.4567
  702MOL0     C94641   2.836   6.915  10.420 -0.6407 -0.4155 -0.4544
  702MOL0     C94642   2.839   7.056  10.416  0.8533  0.0622  0.0825
  702MOL0     O94643   2.739   7.146  10.450  0.6489 -0.1655  0.0107
  702MOL0     C94644   2.602   7.109  10.450  0.3188 -0.6363 -0.1139
  702MOL0     C94645   2.510   7.223  10.455 -0.2823 -0.8672  0.5020
  702MOL0     C94646   2.362   7.179  10.479  0.6707  0.3000  0.3215
  702MOL0     C94647   2.274   7.303  10.499  0.0842  0.0379 -0.1348
  702MOL0     C94648   2.132   7.260  10.527 -0.3679 -0.1899 -0.5586
  702MOL0     C94649   2.028   7.377  10.531  1.0017  0.1843 -0.2247
  702MOL0     C94650   1.881   7.324  10.555 -0.2214 -0.5279 -0.6324
  702MOL0     C94651   1.779   7.432  10.515  0.4415 -0.3734 -0.6156
  702MOL0     N94652   1.641   7.384  10.527 -0.8222 -0.0732 -0.3193
  702MOL0     C94653   1.565   7.371  10.639 -1.2996 -0.2683 -0.1777
  702MOL0     C94654   1.458   7.304  10.601  0.1151  1.0940 -0.6252
  702MOL0     C94655   1.342   7.259  10.679 -1.0229  0.5219 -0.1241
  702MOL0     C94656   1.231   7.359  10.690  0.0896 -0.2807 -0.5349
  702MOL0     C94657   1.115   7.301  10.767  0.4252 -0.1807  0.3223
  702MOL0     C94658   0.986   7.379  10.742 -0.2498 -0.2913 -0.2474
  702MOL0     O94659   0.887   7.327  10.827 -0.1591  0.1276  0.8659
  702MOL0     C94660   0.751   7.332  10.785 -0.4122  0.4628  0.4267
  702MOL0     C94661   0.674   7.243  10.853 -0.5215  0.2614 -0.2003
  702MOL0     C94662   0.541   7.232  10.834  0.3743  0.4391 -0.5526
  702MOL0     C94663   0.459   7.132  10.922  0.8037 -0.4369 -0.2678
  702MOL0     C94664   0.475   7.316  10.746 -0.1895  0.5709  1.5437
  702MOL0     C94665   0.329   7.327  10.730  0.2432  0.0342 -0.6543
  702MOL0     O94666   0.274   7.444  10.687  0.7103 -0.3631 -0.7783
  702MOL0     C94667   0.139   7.487  10.685 -0.3420  0.4165 -0.2766
  702MOL0     C94668   0.098   7.581  10.595  0.1296 -0.4169  0.7379
  702MOL0     C94669  -0.036   7.630  10.587  0.1338 -0.1775  0.8733
  702MOL0     C94670  -0.132   7.571  10.674 -0.5223 -0.0478 -0.3114
  702MOL0     O94671  -0.262   7.616  10.689  0.0303 -0.1259  0.5290
  702MOL0     C94672  -0.297   7.753  10.649  0.4108 -0.5605 -0.1762
  702MOL0     C94673  -0.445   7.760  10.692  0.3270  0.7913  0.0914
  702MOL0     C94674  -0.551   7.719  10.592 -0.4945 -0.3920 -0.3179
  702MOL0     C94675  -0.693   7.712  10.665  0.7635 -0.3618  0.0790
  702MOL0     C94676  -0.802   7.651  10.572  0.4493  0.1601  0.3026
  702MOL0     C94677  -0.928   7.634  10.659  0.1766 -0.0402  0.3856
  702MOL0     C94678  -1.034   7.620  10.555  0.5703  0.4211  0.5736
  702MOL0     C94679  -1.159   7.571  10.616  0.4450  0.5538 -0.0298
  702MOL0    Cl94680  -1.233   7.696  10.726  0.3722 -0.4867  0.1260
  702MOL0     C94681  -0.096   7.460  10.759 -1.2957 -0.2864  0.9527
  702MOL0     C94682   0.040   7.428  10.764  0.5606  0.7033  0.5649
  702MOL0     O94683   0.262   7.228  10.764 -0.2094 -0.7159 -0.7672
  702MOL0     C94684   0.559   7.405  10.674  0.5395 -0.2771 -0.0174
  702MOL0     C94685   0.695   7.407  10.691  0.5977  0.3257  0.2297
  702MOL0     N94686   1.474   7.278  10.469  0.0577  0.4544  0.5671
  702MOL0     N94687   1.586   7.320  10.424  0.8279  0.4572  0.0634
  702MOL0     C94688   2.952   7.122  10.381 -0.7217 -0.3584 -0.2716
  702MOL0     C94689   3.069   7.060  10.341  0.0189  0.5100  0.2230
  702MOL0     C94690   3.375   6.753  10.253  1.1234  0.8081 -0.6998
  702MOL0     C94691   3.468   6.852  10.292 -0.0265  0.5090  0.2842
  702MOL0     C94692   3.601   6.844  10.262 -0.1174 -0.3050  0.1063
  702MOL0     C94693   3.656   6.737  10.192 -0.1491 -0.0840 -0.1996
  702MOL0     O94694   3.783   6.745  10.151 -0.4213  0.3414  0.1920
  702MOL0     C94695   3.838   6.651  10.052 -0.1245  0.2078 -0.9349
  702MOL0     C94696   3.986   6.631  10.086  0.6849  0.1075  0.2199
  702MOL0     C94697   4.069   6.754  10.059 -0.0328 -0.3359  0.0354
  702MOL0     C94698   4.216   6.717  10.054  0.0234 -0.2452 -0.0935
  702MOL0     C94699   4.298   6.831  10.008  0.5099  0.8088  0.0567
  702MOL0     C94700   4.342   6.936   9.976 -0.0705 -0.4462  0.7679
  702MOL0     C94701   3.560   6.641  10.144  0.1008  0.3665 -0.5647
  702MOL0     C94702   3.429   6.643  10.183  0.4546 -0.4258  0.2563
  702MOL0     H94703   2.954   6.739  10.389  1.0539 -0.0045 -1.7947
  702MOL0     H94704   2.748   6.861  10.454  1.0008 -3.2166 -0.2908
  702MOL0     H94705   2.582   7.058  10.355  1.9170  1.0226 -1.4006
  702MOL0     H94706   2.586   7.047  10.539  2.1157  0.1280  0.7879
  702MOL0     H94707   2.546   7.300  10.523  1.0927 -0.3918 -0.7198
  702MOL0     H94708   2.523   7.258  10.352  1.4755 -1.8986  0.3270
  702MOL0     H94709   2.324   7.115  10.399  0.3681  1.5568 -0.5802
  702MOL0     H94710   2.363   7.125  10.574  3.5845  0.4570  0.4758
  702MOL0     H94711   2.304   7.354  10.591 -0.0140  0.0079 -0.0852
  702MOL0     H94712   2.274   7.375  10.417 -1.6351 -2.5701 -2.6021
  702MOL0     H94713   2.107   7.175  10.464  1.0311  0.9061 -2.7357
  702MOL0     H94714   2.139   7.224  10.630 -0.1873  0.0943 -0.4691
  702MOL0     H94715   2.061   7.439  10.615  0.5210 -1.9715  1.6444
  702MOL0     H94716   2.029   7.438  10.440  0.7578  0.1360 -0.2613
  702MOL0     H94717   1.867   7.229  10.504  0.1754 -1.8941  1.6513
  702MOL0     H94718   1.869   7.300  10.661  2.1180 -1.4202 -0.5184
  702MOL0     H94719   1.800   7.472  10.416 -1.4239  1.4663 -0.3484
  702MOL0     H94720   1.803   7.516  10.582  1.8477 -0.4194 -1.0351
  702MOL0     H94721   1.584   7.402  10.742 -3.6104 -1.4231  0.6736
  702MOL0     H94722   1.307   7.170  10.626  1.8920 -1.3371  0.8130
  702MOL0     H94723   1.373   7.218  10.776 -0.8020 -0.5152 -0.6206
  702MOL0     H94724   1.204   7.395  10.590 -1.3391  2.0259  0.6101
  702MOL0     H94725   1.261   7.446  10.748 -1.3883 -0.2036  0.1632
  702MOL0     H94726   1.150   7.285  10.869  1.4330 -3.3389 -0.4001
  702MOL0     H94727   1.095   7.201  10.728  1.7774  1.0120 -3.9707
  702MOL0     H94728   0.955   7.363  10.639  0.1868 -2.2924 -0.1116
  702MOL0     H94729   0.992   7.486  10.764 -2.7643 -0.2571  0.5580
  702MOL0     H94730   0.723   7.196  10.937  2.6204 -0.9726 -2.5240
  702MOL0     H94731   0.410   7.059  10.857 -2.2324 -0.8638  2.2618
  702MOL0     H94732   0.518   7.074  10.994 -1.2318 -1.1267  0.9369
  702MOL0     H94733   0.381   7.187  10.977 -1.0561 -0.4835 -2.6796
  702MOL0     H94734   0.171   7.624  10.527  0.2184 -2.1666 -0.3231
  702MOL0     H94735  -0.053   7.703  10.508 -1.0905 -0.8313  0.5051
  702MOL0     H94736  -0.234   7.824  10.704  2.8740 -1.9873 -1.0108
  702MOL0     H94737  -0.284   7.762  10.541  0.7874  1.5758 -0.0027
  702MOL0     H94738  -0.469   7.690  10.772  1.9140 -1.3613 -1.2170
  702MOL0     H94739  -0.465   7.866  10.714  0.7009  1.1764 -1.3428
  702MOL0     H94740  -0.523   7.615  10.573  3.0665  0.4949 -0.6333
  702MOL0     H94741  -0.549   7.770  10.495 -1.7561 -1.5597 -1.0032
  702MOL0     H94742  -0.694   7.644  10.751 -2.4418  0.2291  0.6164
  702MOL0     H94743  -0.728   7.808  10.704  1.6259 -0.6044  1.5639
  702MOL0     H94744  -0.773   7.552  10.535 -0.5803 -1.0630  2.5798
  702MOL0     H94745  -0.803   7.718  10.486 -0.2192 -0.0720  0.1254
  702MOL0     H94746  -0.919   7.551  10.729  0.5050  0.6555  1.1739
  702MOL0     H94747  -0.947   7.720  10.723  0.8522  0.2546  0.2032
  702MOL0     H94748  -1.016   7.545  10.478 -0.6896  3.4536 -2.9783
  702MOL0     H94749  -1.052   7.710  10.494 -0.6245  0.5664  1.1031
  702MOL0     H94750  -1.142   7.475  10.667  1.2932  0.3138 -0.7448
  702MOL0     H94751  -1.225   7.538  10.536  1.1455 -2.5260  0.5234
  702MOL0     H94752  -0.167   7.408  10.822 -0.8970 -0.7583  1.0217
  702MOL0     H94753   0.059   7.341  10.825 -0.7202 -0.4992 -0.6924
  702MOL0     H94754   0.508   7.468  10.601 -1.5640 -2.3827 -0.4776
  702MOL0     H94755   0.756   7.473  10.630  1.1875 -0.1786  0.2572
  702MOL0     H94756   2.947   7.230  10.369  1.9481 -0.2735 -1.3976
  702MOL0     H94757   3.156   7.119  10.316  0.6339 -0.1381  0.8007
  702MOL0     H94758   3.431   6.945  10.334  0.3098  0.3241  1.0210
  702MOL0     H94759   3.668   6.918  10.304 -0.1785  0.6864 -1.4859
  702MOL0     H94760   3.788   6.554  10.060 -1.4230  0.8762 -0.5768
  702MOL0     H94761   3.819   6.690   9.951 -0.2194 -1.0442 -1.4230
  702MOL0     H94762   4.023   6.539  10.039  0.5508 -0.6760  1.6050
  702MOL0     H94763   3.991   6.617  10.194 -1.6485 -0.0968  0.3403
  702MOL0     H94764   4.052   6.822  10.143  2.3361 -0.4739  0.7144
  702MOL0     H94765   4.032   6.799   9.967 -1.9437  0.0301  0.9243
  702MOL0     H94766   4.230   6.638   9.979  2.8711 -0.1998  0.2699
  702MOL0     H94767   4.249   6.677  10.150  1.4983 -1.5665 -1.0830
  702MOL0     H94768   4.388   7.024   9.937 -1.2803 -0.5396 -1.0089
  702MOL0     H94769   3.585   6.551  10.089 -1.1095 -1.2679  1.4210
  702MOL0     H94770   3.364   6.568  10.139  0.9722 -0.1133 -1.0926
  703MOL0     O94771   2.948   7.713   3.864 -0.6375 -1.2679  0.0652
  703MOL0     C94772   3.009   7.612   3.880  0.3957  0.6759 -0.1860
  703MOL0     O94773   2.957   7.493   3.907  0.7088  0.1643  0.3655
  703MOL0     C94774   2.815   7.472   3.912 -0.2247  0.4227  0.5964
  703MOL0     C94775   2.757   7.364   3.839  0.2593 -0.0078  0.0223
  703MOL0     C94776   2.617   7.360   3.832 -0.5704  0.8407 -0.1508
  703MOL0     C94777   2.530   7.451   3.901  0.2773 -0.2161  0.5259
  703MOL0     O94778   2.393   7.458   3.883  0.1851 -0.9064  0.1890
  703MOL0     C94779   2.321   7.338   3.860  0.2192  0.3828 -0.5847
  703MOL0     C94780   2.176   7.349   3.900 -0.5525 -0.0556 -0.0880
  703MOL0     C94781   2.119   7.455   3.799  0.4620  0.4336  0.0457
  703MOL0     C94782   1.965   7.482   3.822  0.5022  0.7465  0.0092
  703MOL0     C94783   1.876   7.353   3.800 -0.3338  0.3403 -0.7723
  703MOL0     C94784   1.731   7.388   3.776  0.7653 -0.5641  0.9546
  703MOL0     C94785   1.671   7.490   3.879  0.2092  0.3201  0.0386
  703MOL0     C94786   1.682   7.434   4.023 -0.4147  1.1462  0.0201
  703MOL0     N94787   1.613   7.304   4.035  0.2950  0.1143  0.3175
  703MOL0     C94788   1.657   7.175   4.044 -0.1736  0.3690  0.8662
  703MOL0     C94789   1.543   7.105   4.073  0.4295 -0.6175  0.1547
  703MOL0     C94790   1.527   6.956   4.086  0.1633  0.8403  0.1430
  703MOL0     C94791   1.630   6.897   4.190 -0.0492  0.4894 -0.0513
  703MOL0     C94792   1.773   6.875   4.137 -0.3487  0.8670  0.2414
  703MOL0     C94793   1.878   6.819   4.232  0.1895 -0.1065  0.3191
  703MOL0     O94794   1.864   6.871   4.361  0.0783 -0.6308  0.5621
  703MOL0     C94795   1.962   6.832   4.458  0.3326  0.5476 -0.4315
  703MOL0     C94796   1.953   6.903   4.577  0.6894 -0.0664  0.1670
  703MOL0     C94797   2.038   6.871   4.686  0.7412 -0.0642  0.4402
  703MOL0     C94798   2.031   6.957   4.805 -0.1960  0.6715  0.0505
  703MOL0     C94799   2.136   6.777   4.680 -0.2240 -0.4877  0.6360
  703MOL0     C94800   2.227   6.737   4.790 -0.8483 -0.2530  0.0042
  703MOL0     O94801   2.359   6.728   4.747 -0.6478  1.0152 -0.5831
  703MOL0     C94802   2.463   6.669   4.815  0.2098 -0.3923 -0.6168
  703MOL0     C94803   2.453   6.580   4.923  0.3739 -0.2088 -0.5881
  703MOL0     C94804   2.562   6.505   4.968 -0.8998 -0.4967 -0.4479
  703MOL0     C94805   2.688   6.512   4.909  0.1672  0.7839  0.0308
  703MOL0     O94806   2.808   6.450   4.943  0.0774  0.4407  0.3572
  703MOL0     C94807   2.838   6.458   5.084 -0.1516  0.2400  0.2245
  703MOL0     C94808   2.964   6.376   5.124 -0.1183  0.3006 -0.6199
  703MOL0     C94809   3.087   6.457   5.084  0.4206  0.1235  0.0690
  703MOL0     C94810   3.212   6.369   5.114 -1.0929 -0.0666  0.3766
  703MOL0     C94811   3.331   6.436   5.041  1.0469  0.3976  0.3994
  703MOL0     C94812   3.465   6.367   5.052  0.0317 -0.4663  0.0121
  703MOL0     C94813   3.574   6.451   4.980 -0.1393  0.2273 -0.1993
  703MOL0     C94814   3.570   6.445   4.828  0.7584 -0.5884 -0.1451
  703MOL0    Cl94815   3.619   6.285   4.773 -0.2876  0.0776 -0.3049
  703MOL0     C94816   2.697   6.602   4.802 -0.0548  0.6403  0.1959
  703MOL0     C94817   2.591   6.677   4.757  0.0217  0.7795  0.2421
  703MOL0     O94818   2.183   6.710   4.901  0.6559  0.4210  0.0341
  703MOL0     C94819   2.143   6.700   4.562 -0.0599 -0.2635  0.0919
  703MOL0     C94820   2.054   6.728   4.458 -0.6544 -0.7262 -0.5149
  703MOL0     N94821   1.440   7.194   4.090 -0.0696  0.3418  0.3262
  703MOL0     N94822   1.480   7.311   4.060  0.9154  0.0476  0.5059
  703MOL0     C94823   2.589   7.551   3.964  0.0170 -0.2841  0.2599
  703MOL0     C94824   2.729   7.561   3.980 -0.9723 -0.4592 -1.0174
  703MOL0     C94825   3.159   7.615   3.909 -0.0132  0.4061  0.6664
  703MOL0     C94826   3.212   7.541   4.014 -0.1390 -1.0247 -0.5692
  703MOL0     C94827   3.348   7.543   4.041  0.3810  1.1986 -0.0463
  703MOL0     C94828   3.437   7.613   3.964 -1.4477  0.5472 -0.1517
  703MOL0     O94829   3.571   7.593   3.983  0.0554 -0.3839 -0.4511
  703MOL0     C94830   3.619   7.469   4.053 -0.1972  0.4918 -0.6834
  703MOL0     C94831   3.770   7.488   4.058 -0.1809  0.5584  1.0274
  703MOL0     C94832   3.798   7.603   4.149 -0.2938  0.0344 -0.6816
  703MOL0     C94833   3.948   7.621   4.170  0.4864 -0.8280 -0.0691
  703MOL0     C94834   3.997   7.509   4.250 -0.3688 -1.0357 -0.0537
  703MOL0     C94835   4.043   7.421   4.317 -0.4178  0.2297  0.1302
  703MOL0     C94836   3.386   7.701   3.869  0.3867 -0.1444 -0.4826
  703MOL0     C94837   3.245   7.695   3.840  0.0577  0.0298  0.1380
  703MOL0     H94838   2.822   7.302   3.777  0.6922  1.2395 -0.7981
  703MOL0     H94839   2.569   7.279   3.777 -1.9097 -0.1315  2.3053
  703MOL0     H94840   2.317   7.310   3.754  0.5183  0.2215 -0.5566
  703MOL0     H94841   2.359   7.256   3.921 -1.4003  1.7235  2.4555
  703MOL0     H94842   2.115   7.258   3.899  0.2666 -0.6633 -2.6890
  703MOL0     H94843   2.182   7.385   4.003  1.6399  0.2145 -0.2618
  703MOL0     H94844   2.177   7.547   3.788 -0.0025  0.8376  0.8461
  703MOL0     H94845   2.121   7.402   3.704  0.8331  0.0687  0.2557
  703MOL0     H94846   1.952   7.525   3.922 -1.9401  1.0044 -0.3600
  703MOL0     H94847   1.932   7.561   3.754 -0.4758 -1.1947 -1.8954
  703MOL0     H94848   1.919   7.295   3.717  0.3916 -1.4425  0.7977
  703MOL0     H94849   1.885   7.290   3.888 -0.6014 -2.9543 -2.9328
  703MOL0     H94850   1.730   7.430   3.675  0.4990 -1.0836  0.7387
  703MOL0     H94851   1.671   7.297   3.776 -2.6196  1.4823  1.1307
  703MOL0     H94852   1.712   7.591   3.869  2.5039 -0.5640 -0.1135
  703MOL0     H94853   1.564   7.504   3.861 -0.0682  0.2063  1.4842
  703MOL0     H94854   1.645   7.507   4.096 -1.6251 -1.2729  2.0223
  703MOL0     H94855   1.783   7.430   4.063 -1.0920 -0.3098  1.7617
  703MOL0     H94856   1.758   7.140   4.031 -0.5073 -0.3890  0.2214
  703MOL0     H94857   1.428   6.940   4.129  0.7702  1.0503  1.6811
  703MOL0     H94858   1.520   6.909   3.988 -0.8515 -0.6783  0.9011
  703MOL0     H94859   1.590   6.799   4.220  1.9034 -0.7071 -1.1516
  703MOL0     H94860   1.639   6.965   4.275 -3.8057 -0.3721  1.2209
  703MOL0     H94861   1.810   6.968   4.093 -1.3663  0.0209 -2.5882
  703MOL0     H94862   1.776   6.809   4.050 -1.2487  1.4848 -0.2790
  703MOL0     H94863   1.978   6.847   4.199  0.6589  1.1334  2.5762
  703MOL0     H94864   1.862   6.712   4.218 -2.8717 -0.0093  2.0643
  703MOL0     H94865   1.870   6.974   4.578  0.3756 -0.4318  1.3336
  703MOL0     H94866   1.967   7.046   4.801 -5.6709 -2.5836  2.7401
  703MOL0     H94867   1.998   6.902   4.894 -0.9524 -1.6529 -1.5678
  703MOL0     H94868   2.133   6.996   4.817 -0.2382  1.2922 -1.4013
  703MOL0     H94869   2.359   6.557   4.973 -0.6402 -0.7781 -2.6556
  703MOL0     H94870   2.544   6.446   5.057 -0.1252  3.1020  2.3428
  703MOL0     H94871   2.858   6.558   5.123 -0.3357  0.4485 -0.1983
  703MOL0     H94872   2.755   6.418   5.143  2.5583 -1.6256  3.0284
  703MOL0     H94873   2.976   6.381   5.233  0.7947  1.7572 -0.7574
  703MOL0     H94874   2.963   6.272   5.090  1.2004 -0.2763  0.9728
  703MOL0     H94875   3.079   6.554   5.134  1.3400  0.2245  0.0435
  703MOL0     H94876   3.079   6.480   4.977 -0.1949  1.0407  0.2954
  703MOL0     H94877   3.232   6.369   5.221  2.0059 -0.2268 -0.1259
  703MOL0     H94878   3.199   6.264   5.087 -1.5988  0.4847 -1.7386
  703MOL0     H94879   3.346   6.540   5.074  1.6226  0.4756 -0.0734
  703MOL0     H94880   3.308   6.443   4.935 -0.0694 -4.0079  0.1482
  703MOL0     H94881   3.491   6.355   5.157  1.8605  0.8107 -0.2569
  703MOL0     H94882   3.460   6.268   5.005 -1.9769 -0.4306  0.0550
  703MOL0     H94883   3.664   6.394   5.004 -0.2158 -1.3528 -3.1585
  703MOL0     H94884   3.569   6.550   5.026  0.6803 -0.6703  1.9378
  703MOL0     H94885   3.639   6.522   4.791  0.4363  0.6739  1.7317
  703MOL0     H94886   3.473   6.475   4.787  1.3368  1.7013  0.0233
  703MOL0     H94887   2.789   6.606   4.745 -0.5434  2.1416 -0.5512
  703MOL0     H94888   2.589   6.734   4.665  0.1291 -2.0205 -1.5973
  703MOL0     H94889   2.219   6.626   4.545  0.4646  0.4519 -0.8211
  703MOL0     H94890   2.050   6.659   4.374 -1.2913 -0.8284 -0.4055
  703MOL0     H94891   2.526   7.629   4.005 -0.4912  0.5868 -2.0089
  703MOL0     H94892   2.769   7.645   4.036  1.8363 -1.6677 -1.0815
  703MOL0     H94893   3.144   7.485   4.077  2.0303 -0.5085  2.4386
  703MOL0     H94894   3.378   7.469   4.115 -1.8167 -0.6680 -0.9049
  703MOL0     H94895   3.583   7.462   4.156 -0.1595 -0.3349 -0.7230
  703MOL0     H94896   3.583   7.383   3.997  0.7696 -0.5960  0.3208
  703MOL0     H94897   3.803   7.511   3.956  0.7338  1.4632  1.5093
  703MOL0     H94898   3.839   7.407   4.081  1.5057  1.3701 -0.9434
  703MOL0     H94899   3.749   7.584   4.245  0.7282 -2.5281 -0.5911
  703MOL0     H94900   3.750   7.687   4.100 -2.2696 -1.2466 -1.0426
  703MOL0     H94901   3.959   7.710   4.232  1.9762 -1.1651  0.1826
  703MOL0     H94902   4.001   7.639   4.076  0.2120 -2.0882 -0.4857
  703MOL0     H94903   4.092   7.342   4.371  0.7639  0.6235 -0.3246
  703MOL0     H94904   3.449   7.769   3.814 -0.4994 -1.1293 -2.8438
  703MOL0     H94905   3.204   7.761   3.763 -0.6289  0.1977  0.6382
  704MOL0     O94906   1.148  10.010   5.595 -0.0649 -0.2914  0.7600
  704MOL0     C94907   1.203   9.949   5.688  0.4812  0.8324 -0.3023
  704MOL0     O94908   1.145   9.849   5.768 -0.5267 -0.0182 -0.0590
  704MOL0     C94909   1.009   9.829   5.743 -0.1029  0.8874 -0.5396
  704MOL0     C94910   0.899   9.917   5.750 -0.5255 -0.2690 -0.5876
  704MOL0     C94911   0.767   9.877   5.732  0.4640 -0.4566  0.1543
  704MOL0     C94912   0.738   9.741   5.690 -0.1277 -0.1020  0.4223
  704MOL0     O94913   0.613   9.684   5.674 -0.1591 -0.8929  0.3695
  704MOL0     C94914   0.497   9.773   5.696 -0.2738 -0.9421 -0.0857
  704MOL0     C94915   0.375   9.687   5.667  1.3437 -0.2537 -0.4186
  704MOL0     C94916   0.246   9.772   5.638  0.1083 -0.1362 -0.0278
  704MOL0     C94917   0.180   9.809   5.777  0.7069  0.5478 -0.0262
  704MOL0     C94918   0.030   9.829   5.746 -1.0596  0.2448  0.0567
  704MOL0     C94919  -0.053   9.865   5.873 -0.8163  0.1196 -0.6459
  704MOL0     C94920  -0.203   9.839   5.847 -0.0207 -0.1800 -0.7086
  704MOL0     C94921  -0.286   9.899   5.960  0.0414  0.0849 -0.7822
  704MOL0     N94922  -0.431   9.864   5.945 -0.3086 -0.0981  0.3364
  704MOL0     C94923  -0.510   9.774   6.013  0.2727  1.0835 -0.3736
  704MOL0     C94924  -0.637   9.803   5.979  0.1254  0.1856 -0.2035
  704MOL0     C94925  -0.755   9.740   6.036 -0.1950  0.8021  0.0658
  704MOL0     C94926  -0.829   9.661   5.927 -0.1604 -0.3336 -0.2335
  704MOL0     C94927  -0.927   9.557   5.982  0.6678 -0.3988  0.1509
  704MOL0     C94928  -1.042   9.622   6.065 -0.0311 -0.8687 -0.3296
  704MOL0     O94929  -1.144   9.705   6.000 -0.1120  0.3091  0.3878
  704MOL0     C94930  -1.219   9.635   5.910  0.4734 -0.1396  1.5436
  704MOL0     C94931  -1.323   9.547   5.938  0.8423 -0.8135  0.7494
  704MOL0     C94932  -1.392   9.456   5.853 -0.1378  0.3176  0.6069
  704MOL0     C94933  -1.496   9.360   5.903  0.1117 -0.1591  0.1566
  704MOL0     C94934  -1.344   9.453   5.724  0.3711 -0.0790 -0.2258
  704MOL0     C94935  -1.407   9.366   5.620 -0.4067  0.4247 -0.0325
  704MOL0     O94936  -1.462   9.436   5.517 -0.5147  0.0654 -0.3722
  704MOL0     C94937  -1.533   9.352   5.431 -0.5978 -0.0843  0.3326
  704MOL0     C94938  -1.479   9.308   5.304  0.0269 -0.0329 -0.8067
  704MOL0     C94939  -1.562   9.235   5.221  0.3507 -0.0765 -0.4381
  704MOL0     C94940  -1.701   9.214   5.248 -0.3444  0.4466  0.5863
  704MOL0     O94941  -1.785   9.161   5.154 -0.3748 -0.2244  0.1971
  704MOL0     C94942  -1.763   9.184   5.008  0.3644 -0.1550  0.3747
  704MOL0     C94943  -1.808   9.327   4.984  0.1776 -0.1300  0.2722
  704MOL0     C94944  -1.772   9.379   4.849 -0.6389  0.5942  0.4800
  704MOL0     C94945  -1.859   9.492   4.802 -0.7668  0.6782  0.0418
  704MOL0     C94946  -1.774   9.567   4.699  1.1727  0.5182  1.3019
  704MOL0     C94947  -1.852   9.662   4.602 -0.6179 -0.1571  0.4350
  704MOL0     C94948  -1.923   9.770   4.672  0.2985  0.2280  0.1785
  704MOL0     C94949  -1.960   9.879   4.572 -0.1997 -0.4048 -0.3929
  704MOL0    Cl94950  -2.042  10.017   4.650  0.4456 -0.3597 -0.2244
  704MOL0     C94951  -1.750   9.263   5.368  0.3379 -0.5015 -0.1605
  704MOL0     C94952  -1.666   9.334   5.451 -0.5653  0.8047 -0.2754
  704MOL0     O94953  -1.411   9.245   5.632 -0.3824 -0.1754 -0.4967
  704MOL0     C94954  -1.237   9.539   5.686 -0.3816  1.1836  0.2220
  704MOL0     C94955  -1.175   9.626   5.774 -0.5005 -0.3126 -0.5085
  704MOL0     N94956  -0.637   9.906   5.890  0.0353  0.5603  0.4001
  704MOL0     N94957  -0.509   9.952   5.872 -0.0908  0.2219  0.2679
  704MOL0     C94958   0.846   9.661   5.669 -0.3631  0.4118 -0.4619
  704MOL0     C94959   0.983   9.697   5.707 -0.1236 -0.1696  0.4767
  704MOL0     C94960   1.351   9.965   5.695 -0.0859 -0.1711 -0.8835
  704MOL0     C94961   1.433   9.851   5.721 -0.2473 -0.6392 -0.1326
  704MOL0     C94962   1.568   9.867   5.738  1.0318 -0.9156 -1.1865
  704MOL0     C94963   1.628   9.995   5.727  0.5841 -0.1317 -0.8746
  704MOL0     O94964   1.760  10.027   5.734 -0.0773 -0.2631  0.2179
  704MOL0     C94965   1.862   9.923   5.753  1.4359  0.3324 -0.9927
  704MOL0     C94966   1.992   9.978   5.685  0.5129  0.6964 -1.3011
  704MOL0     C94967   2.056  10.094   5.772  0.5315  0.6212 -0.0238
  704MOL0     C94968   2.191  10.127   5.721  0.5980  0.7280 -0.4822
  704MOL0     C94969   2.285  10.010   5.718  0.3228  0.5393 -0.3577
  704MOL0     C94970   2.372   9.930   5.699 -0.5630  0.2294 -0.0134
  704MOL0     C94971   1.542  10.104   5.692  0.0547 -0.2167  0.4206
  704MOL0     C94972   1.407  10.093   5.677 -0.0573 -0.3077  0.0469
  704MOL0     H94973   0.914  10.021   5.779 -0.0154 -0.1923 -1.0910
  704MOL0     H94974   0.691   9.950   5.758  3.6266  2.6513  1.4330
  704MOL0     H94975   0.493   9.825   5.792 -2.0954  2.1257 -1.6900
  704MOL0     H94976   0.498   9.855   5.625 -1.4167  1.6253  2.6646
  704MOL0     H94977   0.399   9.638   5.572 -2.3405  2.2152 -2.9177
  704MOL0     H94978   0.356   9.604   5.736 -1.7330 -1.1569 -2.1694
  704MOL0     H94979   0.259   9.859   5.574 -0.8395 -0.5194 -0.7706
  704MOL0     H94980   0.177   9.708   5.582 -0.7030 -2.1665  3.0398
  704MOL0     H94981   0.192   9.734   5.856 -3.2395 -1.5515 -1.1450
  704MOL0     H94982   0.217   9.902   5.821 -0.0919  0.1628  1.5093
  704MOL0     H94983   0.023   9.914   5.677 -0.7259  0.8074  0.6974
  704MOL0     H94984  -0.012   9.736   5.707  1.4829 -1.4230  1.0420
  704MOL0     H94985  -0.028   9.807   5.963 -1.1268  0.1749 -0.5224
  704MOL0     H94986  -0.035   9.970   5.899  2.8577 -0.4346 -0.3334
  704MOL0     H94987  -0.247   9.884   5.758 -2.8171 -0.4608  0.4264
  704MOL0     H94988  -0.221   9.732   5.837 -1.7015  0.0249 -0.3025
  704MOL0     H94989  -0.276  10.006   5.977  0.0061  0.4188 -2.6531
  704MOL0     H94990  -0.251   9.854   6.054 -2.0039  0.8027  0.3882
  704MOL0     H94991  -0.475   9.695   6.079 -3.0998 -0.9718 -0.8325
  704MOL0     H94992  -0.721   9.681   6.122  0.9293  2.1574  0.5817
  704MOL0     H94993  -0.813   9.825   6.072  0.7543  1.3337  0.3590
  704MOL0     H94994  -0.757   9.599   5.872  0.7265 -0.5774  1.1576
  704MOL0     H94995  -0.882   9.733   5.863 -4.5276 -0.9579  2.3117
  704MOL0     H94996  -0.874   9.489   6.049 -1.5284 -2.6566 -0.2381
  704MOL0     H94997  -0.975   9.494   5.907 -2.9094  2.9911 -0.7600
  704MOL0     H94998  -1.003   9.685   6.145 -0.9475  0.3371 -0.7945
  704MOL0     H94999  -1.096   9.536   6.107  3.1982 -3.5040 -1.1319
  704MOL0     H95000  -1.366   9.549   6.038 -1.4322  1.8662 -0.1246
  704MOL0     H95001  -1.545   9.403   5.991  1.1530 -0.5667  0.9589
  704MOL0     H95002  -1.573   9.345   5.826  3.1494 -0.6618 -3.0463
  704MOL0     H95003  -1.433   9.271   5.913  2.6603  1.5242  0.0132
  704MOL0     H95004  -1.375   9.325   5.277  0.5694 -0.3918  0.9029
  704MOL0     H95005  -1.512   9.201   5.131  1.2396  3.3841 -1.3831
  704MOL0     H95006  -1.659   9.161   4.982  0.3101 -1.4009  1.1818
  704MOL0     H95007  -1.830   9.119   4.952 -1.5465  0.2677  2.0417
  704MOL0     H95008  -1.917   9.332   4.987  0.2549  1.2887  1.5185
  704MOL0     H95009  -1.773   9.388   5.067  2.2602 -2.7881  1.5434
  704MOL0     H95010  -1.783   9.301   4.772 -0.1600  1.2274 -0.2479
  704MOL0     H95011  -1.671   9.421   4.851  0.1351 -1.1985  0.9467
  704MOL0     H95012  -1.948   9.453   4.753 -1.5764  3.5339 -0.9592
  704MOL0     H95013  -1.891   9.557   4.884 -1.1023  1.0964 -0.4235
  704MOL0     H95014  -1.725   9.490   4.639 -2.3295 -1.4073  0.6710
  704MOL0     H95015  -1.697   9.620   4.756  2.3445 -0.5468  0.7675
  704MOL0     H95016  -1.774   9.682   4.528  0.0835 -1.3647  0.8102
  704MOL0     H95017  -1.931   9.602   4.555 -2.8209  2.8303  0.0406
  704MOL0     H95018  -1.861   9.812   4.752  2.2101 -2.4720  0.2646
  704MOL0     H95019  -2.010   9.723   4.719 -1.2156  0.6728 -2.0545
  704MOL0     H95020  -2.033   9.834   4.503  2.3304 -3.9193 -1.0426
  704MOL0     H95021  -1.879   9.918   4.510 -0.7342  0.7242 -0.4186
  704MOL0     H95022  -1.855   9.261   5.395  0.3404 -1.9852 -0.2151
  704MOL0     H95023  -1.708   9.380   5.540  0.1235  0.6500  0.1354
  704MOL0     H95024  -1.202   9.562   5.585  0.8249 -1.3314 -0.0063
  704MOL0     H95025  -1.084   9.677   5.743 -1.0324  1.8429  1.2242
  704MOL0     H95026   0.834   9.558   5.636  0.3182  0.7100 -1.7334
  704MOL0     H95027   1.051   9.613   5.697 -0.8951 -1.0740  2.3591
  704MOL0     H95028   1.391   9.751   5.724  0.4549 -0.9850 -1.2879
  704MOL0     H95029   1.617   9.772   5.755  0.1910 -1.1882 -0.1606
  704MOL0     H95030   1.875   9.912   5.861  2.3086 -1.9685 -1.2791
  704MOL0     H95031   1.825   9.828   5.714 -1.8498 -0.1242  2.6159
  704MOL0     H95032   1.961  10.014   5.586  1.9979  2.1342 -1.2816
  704MOL0     H95033   2.058   9.891   5.678 -0.3185 -0.2023  1.0874
  704MOL0     H95034   2.060  10.067   5.878 -2.2766  0.3244  0.1013
  704MOL0     H95035   1.982  10.175   5.760 -2.4008 -1.8556  0.0244
  704MOL0     H95036   2.230  10.202   5.790  0.0583  0.0188  0.6319
  704MOL0     H95037   2.186  10.161   5.617 -0.2662  0.4211 -0.5463
  704MOL0     H95038   2.442   9.850   5.688  1.6366  2.0568 -0.0388
  704MOL0     H95039   1.588  10.200   5.671 -0.5054 -0.3508 -1.7690
  704MOL0     H95040   1.347  10.179   5.651 -1.2448 -1.5059 -1.3585
  705MOL0     O95041   7.174   0.098   1.807  0.1609  0.8403 -0.1940
  705MOL0     C95042   7.201  -0.028   1.801 -0.1379 -0.8534 -0.3777
  705MOL0     O95043   7.114  -0.128   1.765 -0.5645  0.0668 -0.1340
  705MOL0     C95044   6.975  -0.108   1.756  0.0791  0.9206  0.4248
  705MOL0     C95045   6.919   0.002   1.698  0.0850  0.7577  0.1397
  705MOL0     C95046   6.776   0.016   1.690 -0.9108  0.9851 -1.1978
  705MOL0     C95047   6.696  -0.079   1.758 -0.2486 -0.0931  0.5320
  705MOL0     O95048   6.561  -0.051   1.752 -0.1660  1.0694 -0.4145
  705MOL0     C95049   6.480  -0.169   1.731  0.0472 -0.3816 -0.8207
  705MOL0     C95050   6.337  -0.114   1.731 -0.2787 -0.0152  0.6850
  705MOL0     C95051   6.236  -0.228   1.713 -0.6605  0.5697  0.1972
  705MOL0     C95052   6.104  -0.162   1.705  1.5835  0.3330 -0.0959
  705MOL0     C95053   5.988  -0.245   1.663  0.9023  0.2644 -0.1247
  705MOL0     C95054   5.856  -0.173   1.625  0.7695 -0.8756  0.3955
  705MOL0     C95055   5.863  -0.130   1.477 -0.3410  0.8453 -0.9162
  705MOL0     C95056   5.856  -0.249   1.370  0.6070 -0.7607  0.1705
  705MOL0     N95057   5.766  -0.361   1.401 -0.4896 -0.6455  0.4492
  705MOL0     C95058   5.799  -0.476   1.470 -0.0768  1.2753 -0.4135
  705MOL0     C95059   5.688  -0.549   1.469 -0.5256  0.4088 -0.5111
  705MOL0     C95060   5.668  -0.676   1.544  0.3869 -0.2055 -0.1711
  705MOL0     C95061   5.553  -0.676   1.642  0.3601 -0.4986  0.5970
  705MOL0     C95062   5.441  -0.760   1.580 -0.5609 -0.6969 -0.5844
  705MOL0     C95063   5.313  -0.763   1.676 -0.7336  1.3910 -0.3663
  705MOL0     O95064   5.351  -0.839   1.798  0.3513  0.0400  0.6425
  705MOL0     C95065   5.245  -0.857   1.885 -0.5536  0.1613 -1.1831
  705MOL0     C95066   5.292  -0.915   2.003  0.0018  0.3257  0.2648
  705MOL0     C95067   5.193  -0.939   2.105 -1.2121 -0.4253  0.5710
  705MOL0     C95068   5.260  -0.996   2.227  0.3148 -0.2970  0.1225
  705MOL0     C95069   5.058  -0.906   2.088 -0.4427 -0.1265  0.9790
  705MOL0     C95070   4.947  -0.965   2.171  0.9956 -0.2045  0.3530
  705MOL0     O95071   4.971  -1.068   2.250 -0.0754 -0.4324  0.1428
  705MOL0     C95072   4.870  -1.151   2.288 -0.0819 -0.2733 -0.5772
  705MOL0     C95073   4.888  -1.213   2.415 -0.4658 -0.1165 -0.0412
  705MOL0     C95074   4.788  -1.306   2.457  0.3902 -0.5573 -0.3764
  705MOL0     C95075   4.689  -1.348   2.372  0.1525  0.0324 -1.0809
  705MOL0     O95076   4.590  -1.432   2.419  0.2917  0.1273  0.3184
  705MOL0     C95077   4.607  -1.569   2.397  0.3903 -0.1836 -0.3257
  705MOL0     C95078   4.540  -1.615   2.267  0.6989  0.5426  0.4092
  705MOL0     C95079   4.387  -1.579   2.258  0.2646  0.0484 -0.5119
  705MOL0     C95080   4.317  -1.584   2.386 -0.4614  0.4019  0.3105
  705MOL0     C95081   4.167  -1.559   2.387 -1.0012  1.3551 -0.2170
  705MOL0     C95082   4.077  -1.645   2.287 -0.3478  0.0316 -0.2291
  705MOL0     C95083   3.930  -1.632   2.318 -0.1711 -0.0425  0.4520
  705MOL0     C95084   3.866  -1.754   2.386  0.0887  0.3540  0.0784
  705MOL0    Cl95085   3.763  -1.852   2.269  0.1859 -0.4304 -0.2722
  705MOL0     C95086   4.687  -1.304   2.249 -1.0271 -0.6831 -0.1742
  705MOL0     C95087   4.777  -1.202   2.206  0.5521 -0.2261 -0.8072
  705MOL0     O95088   4.834  -0.920   2.153 -0.1716 -0.5219 -0.0561
  705MOL0     C95089   5.021  -0.849   1.965 -0.2463 -0.6388 -0.2541
  705MOL0     C95090   5.115  -0.831   1.860  0.3999 -0.2005 -0.4352
  705MOL0     N95091   5.595  -0.481   1.397 -0.5751 -0.4592  0.0932
  705MOL0     N95092   5.637  -0.368   1.359  0.0738  0.1806  0.4974
  705MOL0     C95093   6.756  -0.190   1.812  0.8683 -0.3695  0.2161
  705MOL0     C95094   6.895  -0.210   1.811  0.0281 -0.5796  0.4996
  705MOL0     C95095   7.343  -0.062   1.834 -0.0386  0.5385 -0.2287
  705MOL0     C95096   7.438   0.030   1.885 -0.2561  0.0686 -0.4265
  705MOL0     C95097   7.569  -0.002   1.921  0.6070  0.2130 -0.0377
  705MOL0     C95098   7.622  -0.129   1.888 -0.3442 -0.6961 -1.1565
  705MOL0     O95099   7.751  -0.173   1.897  0.2761 -0.1281  0.2651
  705MOL0     C95100   7.855  -0.074   1.887 -0.8793  0.1276  0.1288
  705MOL0     C95101   7.931  -0.057   2.025 -0.1913 -0.6667 -1.1764
  705MOL0     C95102   7.971  -0.190   2.078  0.1355  0.9161 -0.4412
  705MOL0     C95103   8.080  -0.172   2.176 -0.0926  0.8840 -0.2068
  705MOL0     C95104   8.207  -0.152   2.106 -0.7011  0.0478  0.0942
  705MOL0     C95105   8.309  -0.142   2.035  0.0019 -0.3437  0.0094
  705MOL0     C95106   7.527  -0.221   1.831  0.5755 -0.3857 -0.6848
  705MOL0     C95107   7.391  -0.194   1.809  0.2564 -1.3099 -0.3177
  705MOL0     H95108   6.987   0.073   1.653  1.1322  1.0919  2.1276
  705MOL0     H95109   6.721   0.098   1.645 -1.2107  0.3430 -2.0112
  705MOL0     H95110   6.507  -0.231   1.645  1.1664 -0.8031 -0.1713
  705MOL0     H95111   6.491  -0.230   1.820 -1.8702  0.5509  0.1231
  705MOL0     H95112   6.320  -0.068   1.829  0.4333 -0.6026  1.1020
  705MOL0     H95113   6.338  -0.041   1.650  1.4668  0.5227  1.1426
  705MOL0     H95114   6.271  -0.283   1.625  3.5521  3.6561 -0.3414
  705MOL0     H95115   6.231  -0.292   1.802 -0.6613 -1.1398 -0.9866
  705MOL0     H95116   6.084  -0.111   1.800 -0.6193 -0.9890  0.2135
  705MOL0     H95117   6.110  -0.077   1.636 -1.0338 -0.3350 -1.2779
  705MOL0     H95118   6.021  -0.303   1.575 -0.9269  2.3826 -2.3401
  705MOL0     H95119   5.959  -0.315   1.742  1.0920 -0.3077 -0.5467
  705MOL0     H95120   5.769  -0.239   1.633 -1.4543  1.9238  0.9743
  705MOL0     H95121   5.842  -0.083   1.687  0.0031 -0.6212 -0.1351
  705MOL0     H95122   5.778  -0.066   1.451 -1.2481  0.8406  1.7460
  705MOL0     H95123   5.955  -0.074   1.457  1.2094 -1.4478 -0.5611
  705MOL0     H95124   5.959  -0.280   1.350  0.6763  0.0109 -0.7325
  705MOL0     H95125   5.807  -0.210   1.280 -1.8583 -0.9658  1.3269
  705MOL0     H95126   5.896  -0.498   1.515 -0.2692  1.0525 -0.1013
  705MOL0     H95127   5.665  -0.761   1.475  0.2159 -2.2496  2.2226
  705MOL0     H95128   5.755  -0.684   1.610  2.0043 -0.7061 -2.2471
  705MOL0     H95129   5.513  -0.576   1.663  0.1794 -0.6901  1.1795
  705MOL0     H95130   5.582  -0.731   1.732  3.7349  1.1133  0.6376
  705MOL0     H95131   5.474  -0.862   1.559  1.0461 -0.1882 -0.6283
  705MOL0     H95132   5.413  -0.709   1.488  2.0289  1.4158 -0.3416
  705MOL0     H95133   5.228  -0.810   1.626 -1.2564  0.2679  1.4627
  705MOL0     H95134   5.282  -0.659   1.689 -2.4590  1.1277 -1.9300
  705MOL0     H95135   5.398  -0.932   2.013 -0.1097 -1.9696 -1.5202
  705MOL0     H95136   5.260  -1.105   2.228  0.6077 -0.3400  3.1073
  705MOL0     H95137   5.360  -0.956   2.242 -0.8050  2.9989 -0.3537
  705MOL0     H95138   5.214  -0.968   2.322  5.2215  0.9291  2.4141
  705MOL0     H95139   4.979  -1.181   2.465  0.3389 -1.6911 -0.4261
  705MOL0     H95140   4.789  -1.335   2.562  0.7299 -0.4034 -0.3361
  705MOL0     H95141   4.714  -1.590   2.391  0.2064 -1.4527  0.5600
  705MOL0     H95142   4.565  -1.620   2.484 -2.7592  2.2570 -0.2181
  705MOL0     H95143   4.593  -1.581   2.178 -0.1544  0.3576 -0.1731
  705MOL0     H95144   4.545  -1.724   2.262 -1.1087  0.4975 -2.0347
  705MOL0     H95145   4.332  -1.640   2.186 -1.6571  1.3834 -0.2586
  705MOL0     H95146   4.390  -1.475   2.224  3.0223  0.9328  2.0511
  705MOL0     H95147   4.335  -1.680   2.437 -0.3022 -1.1765 -2.5035
  705MOL0     H95148   4.355  -1.508   2.454 -3.0446  1.4258  0.7005
  705MOL0     H95149   4.144  -1.455   2.363 -0.3611  2.0094  1.7527
  705MOL0     H95150   4.131  -1.582   2.488 -3.5753 -0.1404 -1.3894
  705MOL0     H95151   4.080  -1.601   2.187 -2.5865 -0.6961 -0.6742
  705MOL0     H95152   4.104  -1.751   2.286 -0.2340  0.0561  0.1963
  705MOL0     H95153   3.881  -1.611   2.223 -2.1528  4.2063  2.1764
  705MOL0     H95154   3.929  -1.547   2.388  1.8602  0.5516 -0.1681
  705MOL0     H95155   3.803  -1.711   2.464  1.6764 -0.1604  1.6957
  705MOL0     H95156   3.940  -1.812   2.441 -1.7446 -0.9154  1.3304
  705MOL0     H95157   4.608  -1.334   2.181 -2.3216 -0.1496  1.0156
  705MOL0     H95158   4.767  -1.162   2.105 -1.8982 -2.4508 -1.5871
  705MOL0     H95159   4.915  -0.845   1.942 -1.0061 -3.1883  2.2589
  705MOL0     H95160   5.073  -0.783   1.772 -2.5856 -2.3116 -0.3214
  705MOL0     H95161   6.693  -0.267   1.855  0.9232 -0.8933 -0.6114
  705MOL0     H95162   6.939  -0.297   1.859 -0.7492 -0.0791  2.2060
  705MOL0     H95163   7.410   0.127   1.923 -0.3718  1.0254 -2.7996
  705MOL0     H95164   7.629   0.070   1.975  0.7429 -1.4689  2.1859
  705MOL0     H95165   7.927  -0.105   1.811 -0.1076  0.8590  0.5533
  705MOL0     H95166   7.820   0.025   1.858  0.1585  0.1251 -1.2112
  705MOL0     H95167   7.862   0.000   2.088  0.9983  2.0319 -2.1474
  705MOL0     H95168   8.013   0.014   2.008  0.0588  0.0807  2.3165
  705MOL0     H95169   8.002  -0.257   1.998  2.9153  0.7565  0.6480
  705MOL0     H95170   7.892  -0.233   2.140 -1.5896 -1.4034 -3.9206
  705MOL0     H95171   8.085  -0.253   2.249  1.7268 -0.6590 -1.9416
  705MOL0     H95172   8.059  -0.085   2.239 -0.0831  0.4639  0.3769
  705MOL0     H95173   8.394  -0.126   1.972  1.0320 -2.8249  0.6634
  705MOL0     H95174   7.549  -0.327   1.816  0.3088 -0.5325 -0.0419
  705MOL0     H95175   7.323  -0.263   1.759  1.3112 -3.8128  1.4810
  706MOL0     O95176   0.119   8.298   1.593  0.2400  0.5185  0.2000
  706MOL0     C95177   0.121   8.315   1.714 -0.8841 -0.1317 -0.6215
  706MOL0     O95178   0.030   8.375   1.792  0.1418  0.6077 -0.0874
  706MOL0     C95179  -0.078   8.450   1.756 -0.9180  0.3284  0.5003
  706MOL0     C95180  -0.175   8.453   1.849 -0.5325 -0.0174 -0.2057
  706MOL0     C95181  -0.290   8.530   1.825 -0.1138  0.5542 -0.1045
  706MOL0     C95182  -0.303   8.601   1.697  0.4991  0.0506  0.1795
  706MOL0     O95183  -0.416   8.671   1.692  0.3642 -0.0471 -0.2218
  706MOL0     C95184  -0.429   8.749   1.583  0.4084 -1.3501  0.2229
  706MOL0     C95185  -0.547   8.847   1.617  0.2281 -0.3086  0.3114
  706MOL0     C95186  -0.690   8.777   1.621 -0.6921  0.3474  0.2144
  706MOL0     C95187  -0.804   8.874   1.652 -0.3040 -0.6886  0.6497
  706MOL0     C95188  -0.935   8.826   1.593  0.0593  0.1317  0.7211
  706MOL0     C95189  -1.043   8.922   1.647  0.7365  0.9068 -0.4997
  706MOL0     C95190  -1.179   8.886   1.583  0.4630  0.0536  0.4133
  706MOL0     C95191  -1.285   8.926   1.687  0.1743  0.6811  0.7693
  706MOL0     N95192  -1.427   8.901   1.661  0.3923  0.0559 -0.5192
  706MOL0     C95193  -1.482   8.924   1.538 -0.4310 -0.5890  0.0485
  706MOL0     C95194  -1.614   8.917   1.561  0.7535  0.0162 -0.9141
  706MOL0     C95195  -1.730   8.927   1.456 -0.8167 -0.6474  0.5988
  706MOL0     C95196  -1.727   8.809   1.357 -0.4334 -0.1749  0.1628
  706MOL0     C95197  -1.734   8.665   1.411  0.4102  0.2738 -0.1570
  706MOL0     C95198  -1.853   8.647   1.503 -0.2748 -0.1755 -0.8986
  706MOL0     O95199  -1.861   8.518   1.553 -0.3340  0.7368  0.0247
  706MOL0     C95200  -1.973   8.490   1.631 -0.8714 -0.4032  0.7564
  706MOL0     C95201  -2.032   8.363   1.616  0.3919 -0.8156  0.0971
  706MOL0     C95202  -2.152   8.329   1.681  0.4682 -0.5926  0.1164
  706MOL0     C95203  -2.201   8.191   1.641 -0.0117  0.0485 -0.4548
  706MOL0     C95204  -2.222   8.428   1.763  0.0104 -0.2934 -0.5804
  706MOL0     C95205  -2.357   8.402   1.816  0.1818 -0.4136  0.1643
  706MOL0     O95206  -2.389   8.281   1.863 -0.3516  0.1859  0.0655
  706MOL0     C95207  -2.514   8.251   1.915 -0.0599 -0.5318  0.4184
  706MOL0     C95208  -2.543   8.287   2.046 -0.4424 -0.8403  0.3824
  706MOL0     C95209  -2.677   8.277   2.089  1.0786 -0.2911 -0.5546
  706MOL0     C95210  -2.782   8.234   2.006  0.2397  0.0875 -0.1942
  706MOL0     O95211  -2.912   8.208   2.046 -0.0149  1.4826 -0.4545
  706MOL0     C95212  -3.013   8.243   1.951  0.3145 -0.0390  0.2897
  706MOL0     C95213  -3.139   8.234   2.037 -0.0421 -0.2505 -0.3419
  706MOL0     C95214  -3.127   8.331   2.158 -0.2981  0.3473 -0.0206
  706MOL0     C95215  -3.260   8.334   2.236  1.0884 -0.3960 -0.2710
  706MOL0     C95216  -3.259   8.434   2.344  0.1040 -0.6036 -0.7710
  706MOL0     C95217  -3.387   8.446   2.426  0.0854  0.2478  0.0290
  706MOL0     C95218  -3.416   8.321   2.508 -0.8223 -0.3920  0.5533
  706MOL0     C95219  -3.525   8.363   2.611 -0.1202  0.7077  0.4506
  706MOL0    Cl95220  -3.691   8.384   2.532 -0.0352 -0.1386 -0.4657
  706MOL0     C95221  -2.743   8.205   1.872 -1.0014  0.0740  0.1988
  706MOL0     C95222  -2.617   8.215   1.827 -0.2134 -0.5955  0.2885
  706MOL0     O95223  -2.435   8.496   1.812 -0.5441 -0.4392 -0.4308
  706MOL0     C95224  -2.147   8.544   1.789 -0.1409 -0.2393 -0.3981
  706MOL0     C95225  -2.032   8.573   1.721  0.1121  0.4541  0.4707
  706MOL0     N95226  -1.632   8.897   1.700 -0.0210 -0.8827  0.8318
  706MOL0     N95227  -1.522   8.885   1.764 -0.1149 -0.7669  0.9772
  706MOL0     C95228  -0.204   8.590   1.598 -0.4574  0.4305 -0.9635
  706MOL0     C95229  -0.089   8.520   1.633  0.3859  0.2663 -0.0962
  706MOL0     C95230   0.245   8.263   1.775  0.1426 -0.2727 -0.2433
  706MOL0     C95231   0.254   8.247   1.913  0.2711  0.2864 -0.2282
  706MOL0     C95232   0.366   8.197   1.976  0.2319  0.2817  0.2756
  706MOL0     C95233   0.482   8.157   1.901 -0.6367  0.9369  0.1634
  706MOL0     O95234   0.589   8.112   1.973  0.2112 -0.0512  0.2746
  706MOL0     C95235   0.708   8.071   1.908 -0.5098 -0.1017 -0.1876
  706MOL0     C95236   0.797   8.187   1.875  0.1291 -0.3775 -0.2088
  706MOL0     C95237   0.904   8.147   1.788 -0.2601 -0.1859 -0.3031
  706MOL0     C95238   1.018   8.075   1.862 -0.3348 -0.0494  0.2817
  706MOL0     C95239   1.106   8.169   1.936  0.2376 -0.1533 -0.5356
  706MOL0     C95240   1.193   8.237   1.985  0.7087 -0.4540  0.4751
  706MOL0     C95241   0.476   8.190   1.767  0.0161 -0.2876 -0.3195
  706MOL0     C95242   0.357   8.234   1.704 -0.6372  0.5193 -0.0886
  706MOL0     H95243  -0.155   8.398   1.941 -1.2675  1.1780  0.7112
  706MOL0     H95244  -0.368   8.543   1.900  0.1186  1.2566  0.0208
  706MOL0     H95245  -0.342   8.806   1.551  0.2831  0.2739  2.5838
  706MOL0     H95246  -0.459   8.693   1.493  2.5466 -1.7327 -0.2893
  706MOL0     H95247  -0.524   8.897   1.711  3.4843 -0.7449 -0.1288
  706MOL0     H95248  -0.547   8.917   1.533 -1.8472 -2.3682 -1.5505
  706MOL0     H95249  -0.696   8.727   1.524  0.5035  0.3881  0.1097
  706MOL0     H95250  -0.689   8.708   1.706 -2.6286  0.9387  0.7743
  706MOL0     H95251  -0.817   8.899   1.757  0.3078  1.4407  0.2638
  706MOL0     H95252  -0.789   8.972   1.606  2.4040  0.2493  3.2212
  706MOL0     H95253  -0.932   8.836   1.484  0.7016 -2.0189  0.5030
  706MOL0     H95254  -0.950   8.722   1.622  0.0240 -0.3456 -0.9006
  706MOL0     H95255  -1.041   8.906   1.755  0.7878  1.4128 -0.4239
  706MOL0     H95256  -1.021   9.026   1.619 -0.3353  1.0899 -0.7338
  706MOL0     H95257  -1.190   8.946   1.492  2.5936 -1.1449 -0.7398
  706MOL0     H95258  -1.192   8.780   1.557 -2.9637 -0.0195  1.8931
  706MOL0     H95259  -1.270   9.029   1.720 -0.1577  0.9364  0.1330
  706MOL0     H95260  -1.263   8.872   1.780  0.5016 -2.2774 -0.8871
  706MOL0     H95261  -1.441   8.938   1.439  0.6215  0.1612  0.5628
  706MOL0     H95262  -1.821   8.925   1.517 -2.2963  1.1641 -1.3495
  706MOL0     H95263  -1.735   9.024   1.405 -1.1341 -0.7488  0.4286
  706MOL0     H95264  -1.636   8.817   1.296  1.9952 -2.1659  3.2405
  706MOL0     H95265  -1.812   8.827   1.291 -1.3631 -1.6419  0.9146
  706MOL0     H95266  -1.643   8.634   1.464 -0.1108 -2.0686 -0.5202
  706MOL0     H95267  -1.735   8.590   1.332  2.2664  0.7197 -0.6612
  706MOL0     H95268  -1.946   8.670   1.451 -0.2049  2.8532  0.0878
  706MOL0     H95269  -1.852   8.722   1.583 -1.0941 -0.1693 -0.8830
  706MOL0     H95270  -1.993   8.300   1.538 -0.1735  1.0811 -1.8144
  706MOL0     H95271  -2.306   8.186   1.610 -0.5158 -1.0102  1.2906
  706MOL0     H95272  -2.139   8.153   1.560 -3.1450  0.8072 -3.4699
  706MOL0     H95273  -2.187   8.126   1.727 -0.0697 -0.0916 -0.5512
  706MOL0     H95274  -2.477   8.346   2.109  0.1163  1.0415 -1.8378
  706MOL0     H95275  -2.711   8.305   2.188 -0.6280  0.4393 -1.3158
  706MOL0     H95276  -3.000   8.350   1.935  2.2036  0.2217  2.8887
  706MOL0     H95277  -3.022   8.166   1.873  1.1566  0.2427 -0.0894
  706MOL0     H95278  -3.232   8.259   1.987 -1.2647  0.6486  2.2115
  706MOL0     H95279  -3.148   8.138   2.089 -0.3449 -0.5571 -0.9538
  706MOL0     H95280  -3.088   8.429   2.130  0.2140  0.6052  1.4895
  706MOL0     H95281  -3.055   8.300   2.234  0.1320  0.7304 -0.2742
  706MOL0     H95282  -3.346   8.368   2.178 -0.5431 -1.4327  1.4654
  706MOL0     H95283  -3.277   8.235   2.278  2.4665 -0.8392 -0.6986
  706MOL0     H95284  -3.246   8.533   2.298  2.9562 -0.3970  0.2845
  706MOL0     H95285  -3.168   8.426   2.404  0.7577 -0.1925 -1.6838
  706MOL0     H95286  -3.385   8.531   2.495 -1.1759 -1.4146  2.2602
  706MOL0     H95287  -3.473   8.468   2.361 -0.5492  0.3800  0.8903
  706MOL0     H95288  -3.327   8.282   2.559 -2.1224  0.4502  3.6773
  706MOL0     H95289  -3.461   8.246   2.442 -1.9247  1.2506 -0.6162
  706MOL0     H95290  -3.497   8.456   2.661  1.5133  0.5064 -0.0294
  706MOL0     H95291  -3.523   8.281   2.684  2.1978 -0.8825 -1.2506
  706MOL0     H95292  -2.825   8.188   1.803 -0.9136  2.9237 -0.7568
  706MOL0     H95293  -2.582   8.190   1.728 -0.6021 -2.2481  0.5395
  706MOL0     H95294  -2.183   8.621   1.856 -2.2949 -1.1066 -0.4952
  706MOL0     H95295  -1.988   8.668   1.748 -0.0412  0.6034  0.2064
  706MOL0     H95296  -0.211   8.645   1.504  0.4902  0.0639 -1.2677
  706MOL0     H95297  -0.002   8.515   1.569  0.6590 -0.7981  0.3349
  706MOL0     H95298   0.177   8.269   1.986  0.5232 -3.0714  1.2096
  706MOL0     H95299   0.362   8.180   2.083 -2.4960  0.1847  0.2243
  706MOL0     H95300   0.766   8.007   1.976  1.9989  2.5843  0.3845
  706MOL0     H95301   0.693   8.008   1.820  1.1448  2.3262 -2.3643
  706MOL0     H95302   0.833   8.227   1.971 -1.1219  0.3140 -0.0095
  706MOL0     H95303   0.736   8.270   1.840  2.0513  1.4014  0.4243
  706MOL0     H95304   0.946   8.233   1.735 -0.1225 -1.1618 -1.8361
  706MOL0     H95305   0.858   8.081   1.713  0.1255  0.4366 -1.1012
  706MOL0     H95306   1.074   8.009   1.796 -2.4024  0.1565 -1.8082
  706MOL0     H95307   0.970   8.006   1.933 -0.9586 -1.6893 -1.6540
  706MOL0     H95308   1.258   8.297   2.045 -2.1236 -0.1464  3.5874
  706MOL0     H95309   0.563   8.183   1.704  0.7222  0.9039  0.4878
  706MOL0     H95310   0.358   8.256   1.598  0.8343 -1.4858 -0.5306
  707MOL0     O95311  11.079   6.740   5.237  0.0631  0.7909 -0.4052
  707MOL0     C95312  11.166   6.775   5.155  0.4209  0.5784  0.8981
  707MOL0     O95313  11.164   6.889   5.089  0.1316 -0.7413  0.1681
  707MOL0     C95314  11.049   6.947   5.054  0.5220 -0.1636  0.4750
  707MOL0     C95315  10.994   7.062   5.106 -0.3416  0.5500  0.0616
  707MOL0     C95316  10.873   7.117   5.059 -0.5310  0.2610  0.6873
  707MOL0     C95317  10.794   7.047   4.962 -1.1543 -0.1570  0.4934
  707MOL0     O95318  10.675   7.103   4.929 -0.1973 -0.2064 -0.7798
  707MOL0     C95319  10.569   7.034   4.863  0.7970  0.0381  1.2722
  707MOL0     C95320  10.449   7.130   4.863 -0.7211  0.0380  0.5892
  707MOL0     C95321  10.322   7.055   4.852  0.3292 -0.8330 -0.3286
  707MOL0     C95322  10.197   7.147   4.866 -0.0061  0.9532 -0.1936
  707MOL0     C95323  10.067   7.069   4.848  0.0457  0.3389 -0.7009
  707MOL0     C95324   9.946   7.149   4.894 -0.1141 -0.0511 -0.1909
  707MOL0     C95325   9.820   7.058   4.907  0.1376 -0.4010 -0.0677
  707MOL0     C95326   9.710   7.143   4.960 -0.2141  0.2552 -0.1118
  707MOL0     N95327   9.582   7.074   4.958 -0.2502 -0.2939  0.2282
  707MOL0     C95328   9.480   7.115   4.877  0.4136  0.1453 -0.6095
  707MOL0     C95329   9.379   7.025   4.891  0.1953 -0.5284  0.0202
  707MOL0     C95330   9.246   7.028   4.824 -0.2919 -0.0087  0.1871
  707MOL0     C95331   9.128   7.112   4.888 -0.1022  0.3297  0.8895
  707MOL0     C95332   9.106   7.235   4.795 -0.2742  0.7227 -0.1370
  707MOL0     C95333   8.973   7.291   4.836  0.2231 -0.4549 -0.7952
  707MOL0     O95334   8.880   7.288   4.727 -0.5920 -0.2298 -0.0919
  707MOL0     C95335   8.757   7.342   4.730  0.8678  0.2390 -0.6436
  707MOL0     C95336   8.680   7.345   4.612 -0.5877  0.1795  0.3587
  707MOL0     C95337   8.547   7.380   4.611 -0.6495 -0.3455  0.3489
  707MOL0     C95338   8.464   7.367   4.487  0.1203  0.1545  0.5286
  707MOL0     C95339   8.498   7.423   4.734  0.8066  0.5189 -0.1060
  707MOL0     C95340   8.351   7.447   4.740 -0.1653  1.3236  0.6109
  707MOL0     O95341   8.319   7.561   4.811 -0.1574 -0.9785  0.1052
  707MOL0     C95342   8.184   7.599   4.835 -0.5125 -0.6649  0.3479
  707MOL0     C95343   8.103   7.492   4.892  0.0853 -0.4834  0.6086
  707MOL0     C95344   7.972   7.535   4.923  0.5099  0.0776  0.6959
  707MOL0     C95345   7.934   7.670   4.900  0.4929  0.3942  0.1986
  707MOL0     O95346   7.803   7.696   4.921 -0.1935  0.7201 -0.2218
  707MOL0     C95347   7.725   7.783   4.833 -1.1238  0.1057  0.3660
  707MOL0     C95348   7.586   7.718   4.802  1.3640  0.1620  0.1116
  707MOL0     C95349   7.486   7.750   4.910  0.2572  0.5179 -0.0630
  707MOL0     C95350   7.349   7.680   4.895 -0.1799  0.3159 -0.0774
  707MOL0     C95351   7.231   7.720   4.979 -0.4242 -0.3950 -0.5988
  707MOL0     C95352   7.103   7.632   4.959  1.2623  0.4213 -0.0461
  707MOL0     C95353   7.012   7.631   5.085 -0.1957  0.7295  0.6196
  707MOL0     C95354   6.896   7.539   5.056  0.8649  1.2857  0.2577
  707MOL0    Cl95355   6.770   7.550   5.179 -0.2203  0.3929 -0.0886
  707MOL0     C95356   8.016   7.762   4.844  0.2178 -0.3507  0.1357
  707MOL0     C95357   8.143   7.725   4.819 -0.4926 -0.3521 -0.1549
  707MOL0     O95358   8.280   7.355   4.709  0.6234  0.3400 -0.1414
  707MOL0     C95359   8.573   7.443   4.855 -1.2053 -0.1920  0.0516
  707MOL0     C95360   8.707   7.407   4.855 -0.2712  0.6564  0.1700
  707MOL0     N95361   9.409   6.935   4.992 -0.5878  0.1904 -0.7736
  707MOL0     N95362   9.537   6.955   5.022 -0.1401 -0.1793  0.3581
  707MOL0     C95363  10.848   6.932   4.907 -1.1791  1.0470 -0.2486
  707MOL0     C95364  10.978   6.892   4.947 -0.0873 -0.0369  0.5126
  707MOL0     C95365  11.284   6.684   5.136  1.0120 -0.0018  0.5343
  707MOL0     C95366  11.380   6.692   5.026 -0.9323  0.0297  1.4386
  707MOL0     C95367  11.484   6.597   5.017 -0.4661  0.0221  0.7080
  707MOL0     C95368  11.503   6.501   5.115  0.3332 -0.0527 -0.2459
  707MOL0     O95369  11.611   6.420   5.105  0.0718  0.5364 -0.3448
  707MOL0     C95370  11.680   6.384   5.225 -0.8481 -0.8420  0.3410
  707MOL0     C95371  11.824   6.349   5.191 -0.1609  0.0932  1.0262
  707MOL0     C95372  11.882   6.459   5.096  0.0237 -0.7121 -0.5321
  707MOL0     C95373  12.033   6.434   5.058 -0.4595 -0.2937 -0.8147
  707MOL0     C95374  12.122   6.433   5.176  0.2144 -0.2111 -1.9183
  707MOL0     C95375  12.190   6.405   5.273 -0.4305 -0.1638 -0.4282
  707MOL0     C95376  11.419   6.499   5.234 -0.5582  0.0797  0.7125
  707MOL0     C95377  11.307   6.579   5.232  0.3722 -0.7030 -0.5193
  707MOL0     H95378  11.060   7.113   5.175  0.7716  0.5505 -0.9626
  707MOL0     H95379  10.826   7.209   5.094  2.4510  2.0277  0.3794
  707MOL0     H95380  10.597   7.009   4.761 -3.3736 -0.7195  0.1295
  707MOL0     H95381  10.541   6.942   4.914 -1.6402 -1.0132 -1.6433
  707MOL0     H95382  10.442   7.179   4.960  0.8135 -0.4309  0.9772
  707MOL0     H95383  10.468   7.198   4.779  0.8098  0.4690  1.2449
  707MOL0     H95384  10.305   7.012   4.753 -2.3796 -0.3839 -0.1567
  707MOL0     H95385  10.333   6.979   4.929  1.6162 -1.8456 -1.4640
  707MOL0     H95386  10.206   7.193   4.965  1.6632 -0.5291  0.3961
  707MOL0     H95387  10.196   7.220   4.785  0.3469  0.7593 -0.3733
  707MOL0     H95388  10.043   7.030   4.748 -1.0555 -0.7214 -0.0555
  707MOL0     H95389  10.077   6.980   4.912 -0.7438 -0.0950 -1.1562
  707MOL0     H95390   9.953   7.207   4.986 -2.6839  0.6062 -0.3527
  707MOL0     H95391   9.914   7.223   4.821  1.9002  0.8538 -0.2458
  707MOL0     H95392   9.803   7.012   4.809  2.2060 -0.5870 -0.3861
  707MOL0     H95393   9.840   6.975   4.976  1.0994 -0.4629 -0.4016
  707MOL0     H95394   9.703   7.236   4.903 -1.3934 -0.0251 -0.4536
  707MOL0     H95395   9.731   7.167   5.065  1.2715  3.3043 -0.9908
  707MOL0     H95396   9.492   7.193   4.803 -2.3710  0.4996 -0.7978
  707MOL0     H95397   9.269   7.067   4.725  0.1122  1.4054  0.8103
  707MOL0     H95398   9.218   6.923   4.809 -0.8320  0.0482  0.7615
  707MOL0     H95399   9.152   7.136   4.992  0.2746  2.4228  0.3770
  707MOL0     H95400   9.041   7.047   4.882 -1.5483  2.1822  0.8819
  707MOL0     H95401   9.096   7.199   4.692 -4.1090  0.5650  0.1596
  707MOL0     H95402   9.193   7.302   4.798 -0.6861  1.2497  0.1589
  707MOL0     H95403   8.989   7.397   4.860 -2.0189 -0.5555  1.5945
  707MOL0     H95404   8.931   7.243   4.925  2.2884 -0.4324  0.2711
  707MOL0     H95405   8.720   7.308   4.518 -0.4276 -1.0325  0.8807
  707MOL0     H95406   8.412   7.459   4.460  0.7430 -0.0295 -1.4591
  707MOL0     H95407   8.527   7.331   4.405  1.7450 -1.1907  2.2676
  707MOL0     H95408   8.393   7.285   4.499 -1.2866  1.1422 -0.7210
  707MOL0     H95409   8.137   7.389   4.898 -4.2568 -2.3219 -1.9781
  707MOL0     H95410   7.896   7.469   4.963  2.2022 -0.7322  2.7989
  707MOL0     H95411   7.711   7.886   4.865  1.8265  0.8595 -0.4816
  707MOL0     H95412   7.774   7.793   4.736 -0.1073  0.0226  0.8618
  707MOL0     H95413   7.556   7.753   4.703 -0.5617 -1.7219 -0.0280
  707MOL0     H95414   7.589   7.609   4.798 -0.4744  0.0146  1.5541
  707MOL0     H95415   7.461   7.855   4.896 -0.2429  0.2647 -1.1380
  707MOL0     H95416   7.518   7.713   5.008  0.4789 -1.3637 -0.7935
  707MOL0     H95417   7.318   7.693   4.791  3.0401 -2.1292 -1.5292
  707MOL0     H95418   7.362   7.573   4.917 -0.0656  0.2135 -0.6218
  707MOL0     H95419   7.196   7.824   4.977 -0.2627 -0.2830  1.0749
  707MOL0     H95420   7.267   7.713   5.082  1.5056  3.0914 -0.8815
  707MOL0     H95421   7.052   7.661   4.867 -1.9110  1.9410  2.0277
  707MOL0     H95422   7.132   7.529   4.938 -0.6802  0.2880 -2.4199
  707MOL0     H95423   6.977   7.734   5.095 -2.7356 -0.1339  1.2056
  707MOL0     H95424   7.070   7.602   5.174  1.0552  3.9823  1.0370
  707MOL0     H95425   6.941   7.439   5.060  0.2684  1.0443  1.4088
  707MOL0     H95426   6.842   7.551   4.962 -1.5792  3.8566  1.8133
  707MOL0     H95427   7.981   7.862   4.822  0.1393 -0.0634  1.4762
  707MOL0     H95428   8.214   7.798   4.782 -1.5858  1.0888  0.4825
  707MOL0     H95429   8.536   7.481   4.950  1.8180 -0.7045  1.5352
  707MOL0     H95430   8.769   7.421   4.943 -0.8103 -2.3823  1.1508
  707MOL0     H95431  10.799   6.873   4.830  1.5067 -1.3941 -0.2279
  707MOL0     H95432  11.022   6.809   4.893 -2.4593 -3.4233  3.3010
  707MOL0     H95433  11.375   6.774   4.954  0.2019 -1.3167 -0.2545
  707MOL0     H95434  11.565   6.601   4.944 -0.3108  0.6140  0.9068
  707MOL0     H95435  11.694   6.463   5.299  2.9297 -2.0924  1.1997
  707MOL0     H95436  11.630   6.304   5.282  0.9382 -1.9909  0.3852
  707MOL0     H95437  11.820   6.253   5.140 -1.3473  2.2466 -3.3975
  707MOL0     H95438  11.886   6.346   5.282  0.1531 -0.6263  0.7955
  707MOL0     H95439  11.874   6.556   5.145  2.7724 -1.5462  1.8989
  707MOL0     H95440  11.830   6.456   5.000 -0.8695  2.2690 -0.2103
  707MOL0     H95441  12.057   6.515   4.987  1.1282 -1.7181 -1.9940
  707MOL0     H95442  12.050   6.346   4.995  0.6678  0.3568 -1.4590
  707MOL0     H95443  12.258   6.376   5.350  0.9744  0.0831 -1.5311
  707MOL0     H95444  11.429   6.429   5.316  0.6251  1.6901  2.0115
  707MOL0     H95445  11.246   6.576   5.322  2.0526 -1.4008  0.6470
  708MOL0     O95446   0.174   1.484   9.168  0.7868 -0.1057 -0.6143
  708MOL0     C95447   0.270   1.407   9.192 -0.3841  0.3207  0.1323
  708MOL0     O95448   0.268   1.271   9.208  0.3762  0.2977 -0.2201
  708MOL0     C95449   0.148   1.213   9.178  0.0089  0.4624  0.4934
  708MOL0     C95450   0.105   1.199   9.042 -0.1400  0.3029  0.6073
  708MOL0     C95451  -0.019   1.152   9.008  0.5151 -0.2536  0.3635
  708MOL0     C95452  -0.109   1.119   9.108 -0.2531  0.5134 -0.2058
  708MOL0     O95453  -0.235   1.096   9.068  0.4940  0.2410  0.0223
  708MOL0     C95454  -0.255   0.953   9.051  0.4171 -0.2791 -0.1615
  708MOL0     C95455  -0.392   0.942   8.991  0.0490  0.6904 -0.4590
  708MOL0     C95456  -0.424   0.802   8.953 -0.9606 -0.6334 -0.6564
  708MOL0     C95457  -0.567   0.801   8.893 -0.2041  1.2414 -0.3528
  708MOL0     C95458  -0.607   0.662   8.851  0.2411 -0.2940 -0.1848
  708MOL0     C95459  -0.756   0.652   8.808  0.1318 -0.1452  1.0616
  708MOL0     C95460  -0.772   0.713   8.663  0.4877 -0.4851  0.0620
  708MOL0     C95461  -0.868   0.625   8.575 -0.1571  0.1609  0.5373
  708MOL0     N95462  -1.008   0.648   8.612  0.5365  0.1956  0.6381
  708MOL0     C95463  -1.105   0.691   8.527  0.2463  0.7847  0.1777
  708MOL0     C95464  -1.220   0.625   8.568 -0.1834  1.2569  0.0320
  708MOL0     C95465  -1.357   0.628   8.505  0.4166 -0.4370  0.1833
  708MOL0     C95466  -1.437   0.745   8.570 -0.1860  0.1744  0.1069
  708MOL0     C95467  -1.508   0.713   8.697  0.9020 -0.1079  0.2376
  708MOL0     C95468  -1.649   0.778   8.699  0.2152 -0.0032  0.1550
  708MOL0     O95469  -1.736   0.707   8.613  0.0999  0.1408  0.5506
  708MOL0     C95470  -1.866   0.751   8.599 -0.5607  0.1854 -0.9244
  708MOL0     C95471  -1.974   0.684   8.654 -0.3725 -0.8833  0.0728
  708MOL0     C95472  -2.103   0.710   8.622 -0.4678 -0.1065 -0.5507
  708MOL0     C95473  -2.201   0.617   8.696  1.3270 -0.7187 -0.0215
  708MOL0     C95474  -2.134   0.819   8.537  0.1715  0.0610  0.4079
  708MOL0     C95475  -2.272   0.851   8.488  0.0149 -0.2078  1.0566
  708MOL0     O95476  -2.292   0.982   8.445  0.1609  0.1755 -0.7181
  708MOL0     C95477  -2.411   1.018   8.383  1.3580  0.2189 -0.2453
  708MOL0     C95478  -2.540   0.976   8.424 -0.6359  0.4493  0.7225
  708MOL0     C95479  -2.656   1.009   8.366  0.5384 -0.4321 -0.3854
  708MOL0     C95480  -2.671   1.093   8.253  0.2038 -0.2299 -0.6205
  708MOL0     O95481  -2.790   1.115   8.187  0.1307  1.0778 -0.3339
  708MOL0     C95482  -2.923   1.089   8.249 -0.3771  0.2613  0.9677
  708MOL0     C95483  -3.044   1.156   8.181  0.2203  0.2289  0.3662
  708MOL0     C95484  -3.167   1.135   8.261  0.0852  0.3345 -0.5516
  708MOL0     C95485  -3.286   1.215   8.230  0.2932 -1.0552 -0.1772
  708MOL0     C95486  -3.406   1.198   8.332 -0.7395  0.1888 -0.1302
  708MOL0     C95487  -3.536   1.194   8.262  1.6261 -0.1151  0.5417
  708MOL0     C95488  -3.645   1.170   8.362  0.5655 -0.0612  0.2202
  708MOL0     C95489  -3.790   1.167   8.301 -0.2719 -0.4111  0.1034
  708MOL0    Cl95490  -3.783   1.163   8.124 -0.3676 -0.3390 -0.0820
  708MOL0     C95491  -2.540   1.132   8.202  0.2179  0.8144  0.0860
  708MOL0     C95492  -2.414   1.092   8.268 -0.5580  0.0213  0.1572
  708MOL0     O95493  -2.351   0.759   8.468 -0.0348 -0.6564  0.2022
  708MOL0     C95494  -2.024   0.895   8.492 -0.8401  0.5145  0.2069
  708MOL0     C95495  -1.896   0.855   8.508 -0.3054 -0.5548 -0.8428
  708MOL0     N95496  -1.197   0.574   8.696 -0.2421  0.2835  0.2233
  708MOL0     N95497  -1.072   0.598   8.719  0.5340 -0.3197  1.1727
  708MOL0     C95498  -0.059   1.128   9.247  0.0602 -0.6201  0.4009
  708MOL0     C95499   0.066   1.178   9.284 -0.1206  0.0996 -0.2261
  708MOL0     C95500   0.393   1.479   9.230  0.1252  0.1151 -0.3404
  708MOL0     C95501   0.414   1.615   9.196  0.4931  0.1561 -0.2508
  708MOL0     C95502   0.530   1.682   9.240 -0.2679  0.0459 -0.3174
  708MOL0     C95503   0.633   1.617   9.312 -0.5530 -0.2389 -0.8852
  708MOL0     O95504   0.748   1.682   9.352 -0.2070  0.5933  0.5805
  708MOL0     C95505   0.734   1.815   9.400 -0.1171 -0.3672  0.4841
  708MOL0     C95506   0.791   1.903   9.288  0.1753 -0.2736  0.2674
  708MOL0     C95507   0.939   1.898   9.294 -1.1748 -0.2980 -0.0923
  708MOL0     C95508   0.995   1.993   9.197  0.1469  0.1723 -0.4560
  708MOL0     C95509   0.924   2.016   9.073  0.4770 -0.1870 -0.2053
  708MOL0     C95510   0.857   2.040   8.971 -1.0600 -1.3524 -0.2738
  708MOL0     C95511   0.614   1.486   9.336 -0.1182  0.4500 -0.8200
  708MOL0     C95512   0.496   1.423   9.300 -0.4921  0.1225 -1.2023
  708MOL0     H95513   0.176   1.230   8.967  2.3238 -1.5018  2.0448
  708MOL0     H95514  -0.044   1.145   8.903 -1.8209 -1.2351  0.9289
  708MOL0     H95515  -0.182   0.907   8.984 -1.4874 -2.3538 -0.9254
  708MOL0     H95516  -0.251   0.898   9.146 -0.2508  0.6473  0.4253
  708MOL0     H95517  -0.463   0.985   9.063  1.9404  0.0559  1.9420
  708MOL0     H95518  -0.396   1.018   8.912  1.9036  1.1089 -0.2048
  708MOL0     H95519  -0.344   0.780   8.880  0.3821  0.2731  0.4820
  708MOL0     H95520  -0.412   0.728   9.032  0.0900 -2.2296 -2.2467
  708MOL0     H95521  -0.637   0.832   8.971 -0.6896 -2.1065  0.6840
  708MOL0     H95522  -0.572   0.877   8.814 -0.6344  1.3618 -0.2160
  708MOL0     H95523  -0.539   0.629   8.772 -0.7883 -2.5515 -0.2320
  708MOL0     H95524  -0.574   0.591   8.927  0.9418 -1.0603 -1.1594
  708MOL0     H95525  -0.789   0.549   8.792  1.7196 -0.1208 -4.6757
  708MOL0     H95526  -0.823   0.704   8.877 -1.1377  0.7635 -0.7436
  708MOL0     H95527  -0.816   0.813   8.670 -1.7637 -1.4757  1.1368
  708MOL0     H95528  -0.679   0.716   8.606  0.5271 -3.6731 -0.1753
  708MOL0     H95529  -0.850   0.519   8.596 -1.5044 -0.0259  0.9010
  708MOL0     H95530  -0.852   0.648   8.470  1.6715  3.4260  1.3823
  708MOL0     H95531  -1.079   0.747   8.438 -0.0620 -0.2914 -0.6132
  708MOL0     H95532  -1.350   0.656   8.400  0.3198 -0.3504  0.1995
  708MOL0     H95533  -1.410   0.532   8.499  1.4431 -0.9741 -0.7483
  708MOL0     H95534  -1.504   0.772   8.487  1.2693  2.0550 -0.5329
  708MOL0     H95535  -1.366   0.825   8.594  0.7890 -0.7457  0.3831
  708MOL0     H95536  -1.448   0.743   8.782  1.7745 -3.1448  0.8286
  708MOL0     H95537  -1.524   0.605   8.699 -1.1496  0.1517  1.2728
  708MOL0     H95538  -1.650   0.884   8.672 -2.2966 -0.0362 -0.1793
  708MOL0     H95539  -1.674   0.780   8.806 -0.2567 -0.1667  0.0539
  708MOL0     H95540  -1.931   0.610   8.720  1.2348 -0.5906 -0.5728
  708MOL0     H95541  -2.176   0.593   8.799  0.8719  0.0321  0.2662
  708MOL0     H95542  -2.304   0.654   8.701  0.6849 -2.1987 -1.4256
  708MOL0     H95543  -2.198   0.520   8.646  2.7092 -0.3752 -0.6591
  708MOL0     H95544  -2.539   0.916   8.514  0.0099 -0.5831  0.0467
  708MOL0     H95545  -2.740   0.966   8.419 -0.1369  1.2047 -0.0815
  708MOL0     H95546  -2.942   0.982   8.262 -4.7241  0.2839 -2.6253
  708MOL0     H95547  -2.912   1.135   8.348 -0.8593 -0.9771  1.6265
  708MOL0     H95548  -3.031   1.262   8.161 -0.5710  0.2391 -0.1357
  708MOL0     H95549  -3.063   1.111   8.083 -1.1690  0.9726  0.2671
  708MOL0     H95550  -3.136   1.163   8.362  1.3135 -0.7734 -0.6034
  708MOL0     H95551  -3.181   1.026   8.264  1.5375  0.1501  0.4689
  708MOL0     H95552  -3.264   1.322   8.224 -0.2438 -0.8157  1.5804
  708MOL0     H95553  -3.319   1.200   8.127 -0.3544  0.1568 -0.1579
  708MOL0     H95554  -3.392   1.280   8.403  1.2013 -0.1927 -0.0090
  708MOL0     H95555  -3.386   1.106   8.387  0.7227  0.8078  0.4227
  708MOL0     H95556  -3.546   1.290   8.211  0.8910  0.2179  1.2865
  708MOL0     H95557  -3.533   1.108   8.194  0.6422 -0.2519  0.6616
  708MOL0     H95558  -3.647   1.254   8.433  0.5280  0.2013 -0.0872
  708MOL0     H95559  -3.618   1.075   8.408  2.3063  0.1307 -0.3083
  708MOL0     H95560  -3.843   1.252   8.345 -0.7884 -1.3901  1.4760
  708MOL0     H95561  -3.828   1.074   8.345 -1.2428  0.6455  1.6287
  708MOL0     H95562  -2.535   1.168   8.099  0.5078 -1.0736 -0.6055
  708MOL0     H95563  -2.317   1.111   8.224 -0.0004 -2.4405  0.1564
  708MOL0     H95564  -2.037   0.984   8.432  0.5017  1.5842  1.4347
  708MOL0     H95565  -1.816   0.912   8.462  1.7035 -1.1293  1.7513
  708MOL0     H95566  -0.125   1.101   9.329  0.3186  1.8319  1.5127
  708MOL0     H95567   0.114   1.175   9.380  1.4192  1.2881 -0.9130
  708MOL0     H95568   0.351   1.674   9.131  1.1355  2.3979  1.0355
  708MOL0     H95569   0.536   1.784   9.204 -2.5129 -0.5015 -2.5511
  708MOL0     H95570   0.633   1.856   9.413 -0.0303 -0.6486  2.3527
  708MOL0     H95571   0.788   1.822   9.495 -1.9977 -1.1109  1.6744
  708MOL0     H95572   0.758   2.007   9.298 -0.1186 -0.4291  1.0551
  708MOL0     H95573   0.749   1.856   9.199 -0.7145  2.4980 -0.8900
  708MOL0     H95574   0.975   1.799   9.266 -0.8764  0.1512 -1.3607
  708MOL0     H95575   0.979   1.929   9.391  0.5514 -0.0683 -0.8541
  708MOL0     H95576   1.096   1.955   9.176  0.6011 -0.1863  2.1191
  708MOL0     H95577   1.013   2.089   9.247 -1.0024 -1.0607  2.5246
  708MOL0     H95578   0.797   2.060   8.884  1.2436  0.0419 -1.6451
  708MOL0     H95579   0.699   1.437   9.381  0.3598  0.6019 -1.5477
  708MOL0     H95580   0.493   1.316   9.319  3.0404  0.1843  0.5533
  709MOL0     O95581   2.834   5.181   7.602  0.4260 -0.2225  0.2998
  709MOL0     C95582   2.872   5.193   7.482 -0.3902  0.6083 -0.9453
  709MOL0     O95583   2.808   5.265   7.396  0.1338  0.2650  0.0260
  709MOL0     C95584   2.684   5.326   7.425  0.1158  0.1112  1.0171
  709MOL0     C95585   2.666   5.407   7.536  0.2675  0.2089 -0.6066
  709MOL0     C95586   2.536   5.460   7.561  0.1461 -1.0293  0.2851
  709MOL0     C95587   2.432   5.446   7.469 -0.0255  0.6720  0.6041
  709MOL0     O95588   2.323   5.518   7.488  0.0288  0.3877  0.2394
  709MOL0     C95589   2.232   5.488   7.600 -0.6508 -0.0392  0.1218
  709MOL0     C95590   2.096   5.560   7.572 -0.0686 -0.0033 -0.8859
  709MOL0     C95591   2.111   5.708   7.601 -0.1005 -0.2210  0.2136
  709MOL0     C95592   1.979   5.782   7.595  0.7053 -0.4983 -0.3408
  709MOL0     C95593   2.000   5.930   7.629  0.4582  0.5234  0.5767
  709MOL0     C95594   1.872   6.018   7.600 -0.4033  0.8748 -0.1304
  709MOL0     C95595   1.829   6.040   7.453 -0.0401 -0.0240 -0.1427
  709MOL0     C95596   1.708   6.131   7.429 -0.0717 -0.4867 -0.2456
  709MOL0     N95597   1.574   6.069   7.425 -0.1009  0.4767  0.0253
  709MOL0     C95598   1.535   5.955   7.362  0.9032 -0.2601  0.1227
  709MOL0     C95599   1.398   5.962   7.355 -0.1967 -0.1565 -0.1426
  709MOL0     C95600   1.307   5.843   7.316  0.1776  0.2058 -0.2588
  709MOL0     C95601   1.163   5.872   7.274 -0.1837  0.3228  0.1984
  709MOL0     C95602   1.087   5.744   7.230 -0.1228 -0.5330  0.3975
  709MOL0     C95603   0.969   5.790   7.136 -0.1983  0.0693 -0.3084
  709MOL0     O95604   0.901   5.668   7.100  0.4998 -0.2905 -0.4289
  709MOL0     C95605   0.785   5.680   7.028  0.2895 -1.3893 -0.7591
  709MOL0     C95606   0.742   5.569   6.964 -0.2301 -0.9799  0.3334
  709MOL0     C95607   0.641   5.565   6.868 -0.7468  0.3206  0.2265
  709MOL0     C95608   0.617   5.435   6.797 -0.3287 -0.2137 -0.3540
  709MOL0     C95609   0.561   5.680   6.839 -0.6846 -0.3914  0.4509
  709MOL0     C95610   0.443   5.691   6.751  0.2060  0.1044  0.8180
  709MOL0     O95611   0.414   5.818   6.697  1.2705 -0.0447 -0.6721
  709MOL0     C95612   0.298   5.843   6.628  0.3840 -0.3698 -0.4017
  709MOL0     C95613   0.209   5.943   6.676 -0.5164 -0.9205  0.1457
  709MOL0     C95614   0.101   5.974   6.600 -0.6241  0.5909  0.4996
  709MOL0     C95615   0.072   5.911   6.480 -0.5035  0.1255  0.5675
  709MOL0     O95616  -0.044   5.938   6.414 -0.3915 -0.8939  0.0522
  709MOL0     C95617  -0.049   5.897   6.274 -0.5207 -1.1591  0.0720
  709MOL0     C95618  -0.179   5.940   6.207 -0.2356 -0.0096 -0.4740
  709MOL0     C95619  -0.300   5.932   6.287  0.2911  0.0985  0.2227
  709MOL0     C95620  -0.421   5.975   6.208  0.6283 -0.0927  1.1165
  709MOL0     C95621  -0.553   5.981   6.285  0.2095 -0.2397 -0.7753
  709MOL0     C95622  -0.676   5.966   6.197 -0.1189 -0.2677 -0.0690
  709MOL0     C95623  -0.699   6.090   6.110 -0.8742 -0.6078  0.3338
  709MOL0     C95624  -0.848   6.092   6.068  0.9069 -0.2091  0.4391
  709MOL0    Cl95625  -0.955   6.163   6.184  0.1780 -0.1855 -0.1273
  709MOL0     C95626   0.173   5.821   6.430 -0.0798 -0.4562  0.2930
  709MOL0     C95627   0.278   5.791   6.500 -0.6685 -0.4645  1.4579
  709MOL0     O95628   0.371   5.588   6.737 -0.0681  0.2142 -0.1950
  709MOL0     C95629   0.602   5.791   6.911 -1.0825 -0.1617 -0.2503
  709MOL0     C95630   0.700   5.788   7.008 -1.0467  0.2037 -0.3157
  709MOL0     N95631   1.355   6.080   7.404  0.1618 -0.0889 -0.6145
  709MOL0     N95632   1.462   6.138   7.437  0.1196 -0.4830 -0.3510
  709MOL0     C95633   2.451   5.366   7.356 -0.3491  0.4085  0.4683
  709MOL0     C95634   2.578   5.303   7.345 -0.2091 -0.3461  0.0728
  709MOL0     C95635   2.998   5.123   7.446 -0.3895 -0.4072 -0.1196
  709MOL0     C95636   3.102   5.097   7.540 -0.3952 -0.0341 -0.5898
  709MOL0     C95637   3.225   5.053   7.500 -0.1579  0.2955 -0.0133
  709MOL0     C95638   3.254   5.027   7.364 -0.1500 -0.0235 -0.3637
  709MOL0     O95639   3.379   4.990   7.320  0.0794 -0.3147  0.0421
  709MOL0     C95640   3.481   4.937   7.405  0.9765 -0.2801 -0.5052
  709MOL0     C95641   3.575   5.051   7.448  0.6892  0.1227 -0.3541
  709MOL0     C95642   3.638   5.135   7.333  0.0408  0.7369 -0.3504
  709MOL0     C95643   3.734   5.054   7.239 -0.2861 -0.0238 -0.1992
  709MOL0     C95644   3.834   4.994   7.328 -0.0718 -0.1835 -0.1471
  709MOL0     C95645   3.921   4.949   7.400  0.2509  0.2550 -0.2864
  709MOL0     C95646   3.147   5.047   7.268 -0.0063 -0.8717 -0.2101
  709MOL0     C95647   3.023   5.106   7.309  0.2717  0.2134  0.3762
  709MOL0     H95648   2.751   5.436   7.598 -2.8585  4.7704  2.2155
  709MOL0     H95649   2.511   5.539   7.631  0.0470 -0.0746 -0.7952
  709MOL0     H95650   2.210   5.382   7.616  2.1302 -0.6920  0.0417
  709MOL0     H95651   2.272   5.522   7.696  1.2639  0.0259 -0.6683
  709MOL0     H95652   2.060   5.533   7.472  0.4802  0.2354 -1.1536
  709MOL0     H95653   2.032   5.525   7.653  0.1256  2.4956  0.4499
  709MOL0     H95654   2.136   5.719   7.707  0.2169 -1.6584  0.3177
  709MOL0     H95655   2.184   5.759   7.538  1.6603 -1.3600  1.2348
  709MOL0     H95656   1.948   5.777   7.490 -1.8684  0.6888  0.2791
  709MOL0     H95657   1.893   5.740   7.649 -1.1719  0.9827 -2.0373
  709MOL0     H95658   2.031   5.942   7.733 -0.5033  2.6827  0.6776
  709MOL0     H95659   2.078   5.956   7.557 -0.5508 -2.5061 -1.8028
  709MOL0     H95660   1.783   5.993   7.659  0.2646  0.4531  0.7360
  709MOL0     H95661   1.885   6.115   7.649 -0.5886  0.7922  0.0888
  709MOL0     H95662   1.915   6.088   7.405  0.7771 -0.5294  0.7923
  709MOL0     H95663   1.823   5.943   7.403  1.5820 -1.1996  1.7932
  709MOL0     H95664   1.719   6.172   7.328  1.0267 -1.7411 -0.6546
  709MOL0     H95665   1.705   6.230   7.476  1.2552 -0.3149 -0.4899
  709MOL0     H95666   1.589   5.876   7.311  0.1691 -0.5850 -0.1730
  709MOL0     H95667   1.338   5.787   7.227 -2.1576 -1.7568  0.0474
  709MOL0     H95668   1.300   5.786   7.409  1.2113 -1.2279 -1.0244
  709MOL0     H95669   1.162   5.945   7.193  0.9330 -0.3990 -0.4932
  709MOL0     H95670   1.103   5.916   7.355 -1.5964 -1.7384  0.3478
  709MOL0     H95671   1.051   5.701   7.323  0.4054 -1.5638  0.1377
  709MOL0     H95672   1.162   5.681   7.182  0.8808  2.2747 -2.0801
  709MOL0     H95673   0.995   5.827   7.037 -1.7654  0.8881 -0.4385
  709MOL0     H95674   0.908   5.862   7.190  1.4650  0.1537  1.6179
  709MOL0     H95675   0.792   5.477   6.994  2.4667  0.1143 -0.5105
  709MOL0     H95676   0.687   5.359   6.831 -0.3116  0.1335  0.4025
  709MOL0     H95677   0.517   5.400   6.826 -0.5790 -2.0062 -3.0682
  709MOL0     H95678   0.619   5.460   6.690  1.7830 -1.1477 -0.5757
  709MOL0     H95679   0.227   6.005   6.764 -3.0114  0.9899 -0.5716
  709MOL0     H95680   0.044   6.052   6.651 -0.8028  1.9072 -1.5938
  709MOL0     H95681   0.039   5.938   6.223 -0.5436 -0.4751  0.5607
  709MOL0     H95682  -0.033   5.789   6.269 -1.5656 -1.3617  0.6630
  709MOL0     H95683  -0.157   6.041   6.171  0.7003  1.0078  2.6387
  709MOL0     H95684  -0.187   5.881   6.115  0.7803  0.3935 -0.8398
  709MOL0     H95685  -0.286   5.992   6.377 -1.9398  0.1536  0.5926
  709MOL0     H95686  -0.306   5.830   6.327  0.7942 -0.2781 -0.6363
  709MOL0     H95687  -0.404   6.075   6.167 -2.0234  0.3262  0.8848
  709MOL0     H95688  -0.433   5.908   6.122 -0.1555  1.8613 -0.3740
  709MOL0     H95689  -0.569   6.066   6.351 -3.5141 -1.2986 -0.0389
  709MOL0     H95690  -0.551   5.892   6.349 -2.0802  1.3067  1.6394
  709MOL0     H95691  -0.667   5.878   6.133 -0.5130 -1.0310  0.8961
  709MOL0     H95692  -0.768   5.941   6.250 -0.3480 -1.2849 -0.9182
  709MOL0     H95693  -0.640   6.073   6.019 -1.1256 -0.5065  0.1521
  709MOL0     H95694  -0.661   6.181   6.156 -0.3049 -0.3837 -0.5489
  709MOL0     H95695  -0.878   5.991   6.040  0.1983 -0.5158  2.1692
  709MOL0     H95696  -0.856   6.159   5.982  0.9149  0.4015  0.9041
  709MOL0     H95697   0.159   5.779   6.331 -0.0220  2.0485 -0.8493
  709MOL0     H95698   0.355   5.729   6.456 -1.6402 -1.1130  0.6378
  709MOL0     H95699   0.541   5.881   6.906  2.0351  2.1288  0.1836
  709MOL0     H95700   0.721   5.866   7.081  0.3431 -1.1026  0.7758
  709MOL0     H95701   2.376   5.356   7.279  0.6434 -0.4401 -0.4185
  709MOL0     H95702   2.595   5.245   7.255 -1.7465 -0.2692 -0.3003
  709MOL0     H95703   3.095   5.129   7.644  0.8699 -0.6209 -0.3008
  709MOL0     H95704   3.307   5.041   7.569  0.4466  0.1919 -0.7434
  709MOL0     H95705   3.436   4.890   7.493 -1.8057  2.7253 -0.1393
  709MOL0     H95706   3.537   4.861   7.349 -1.3062 -1.4610 -1.3146
  709MOL0     H95707   3.654   5.007   7.510  2.6513  0.0279 -2.7855
  709MOL0     H95708   3.514   5.113   7.515 -0.6501 -0.3106 -1.1335
  709MOL0     H95709   3.690   5.218   7.383  1.1143 -0.4621  0.6118
  709MOL0     H95710   3.569   5.180   7.261 -0.9731 -0.3161 -0.0599
  709MOL0     H95711   3.782   5.118   7.164 -2.7043 -0.8252 -2.5785
  709MOL0     H95712   3.685   4.968   7.193 -0.1472 -0.5429  0.6093
  709MOL0     H95713   3.981   4.914   7.482 -1.7338  2.2360  2.1708
  709MOL0     H95714   3.175   5.018   7.167 -0.7761  1.7080 -1.2423
  709MOL0     H95715   2.944   5.124   7.238  0.1376  1.1371  0.7484
  710MOL0     O95716  10.795   1.765   2.657 -0.0950  0.1481  0.5312
  710MOL0     C95717  10.793   1.660   2.593 -0.0588 -0.0851  0.0967
  710MOL0     O95718  10.683   1.595   2.544 -0.2894  0.3275  0.4434
  710MOL0     C95719  10.559   1.657   2.551  0.1144 -0.2818  0.2733
  710MOL0     C95720  10.539   1.765   2.467 -0.3598  0.2867 -0.3201
  710MOL0     C95721  10.420   1.843   2.477 -0.1423  0.0486  0.4190
  710MOL0     C95722  10.327   1.819   2.578  0.7814 -0.0452 -0.5018
  710MOL0     O95723  10.220   1.896   2.592  0.0858  0.0872 -0.3836
  710MOL0     C95724  10.234   1.983   2.711 -0.1027  0.4277 -0.3610
  710MOL0     C95725  10.101   2.032   2.746  1.0397  0.6183 -0.0458
  710MOL0     C95726  10.007   1.910   2.777  0.1781  0.0660 -0.2812
  710MOL0     C95727   9.871   1.955   2.817 -0.1194 -0.0642 -0.5004
  710MOL0     C95728   9.788   1.846   2.877  0.8209 -0.3031  0.5222
  710MOL0     C95729   9.755   1.729   2.776 -0.4573 -0.4821  0.1006
  710MOL0     C95730   9.656   1.627   2.838  0.2788 -0.4265 -0.1050
  710MOL0     C95731   9.654   1.502   2.768  0.1421  0.2765  0.1929
  710MOL0     N95732   9.553   1.398   2.810 -0.1319 -0.7888  0.0786
  710MOL0     C95733   9.563   1.321   2.921  0.2619 -0.5954  0.1517
  710MOL0     C95734   9.443   1.261   2.934 -0.2655  0.4072 -0.1028
  710MOL0     C95735   9.403   1.153   3.033  0.2916 -0.1508 -0.4038
  710MOL0     C95736   9.364   1.018   2.968  0.1988  0.1777 -0.7285
  710MOL0     C95737   9.348   0.908   3.076  0.5822 -0.4709 -0.0786
  710MOL0     C95738   9.346   0.770   3.002 -0.1076  0.5609  0.1678
  710MOL0     O95739   9.266   0.767   2.891  0.2673  0.2214  0.2181
  710MOL0     C95740   9.142   0.725   2.895  0.8916 -0.3661  0.3890
  710MOL0     C95741   9.037   0.772   2.970  0.1108 -0.2854 -0.2749
  710MOL0     C95742   8.905   0.719   2.963 -1.2720 -0.8314  0.2559
  710MOL0     C95743   8.795   0.796   3.029  0.0203  0.7496 -0.6883
  710MOL0     C95744   8.872   0.619   2.867  0.1432 -0.1280 -0.2125
  710MOL0     C95745   8.743   0.567   2.839  0.7271  0.8667  0.1330
  710MOL0     O95746   8.743   0.457   2.752  0.6246  0.1484 -0.0702
  710MOL0     C95747   8.639   0.374   2.746  0.3979  1.0099  0.4243
  710MOL0     C95748   8.513   0.397   2.694 -0.4495  0.1536  0.3506
  710MOL0     C95749   8.414   0.300   2.710  0.8307  0.2783  0.5552
  710MOL0     C95750   8.437   0.175   2.765  0.8780 -0.0068  0.7466
  710MOL0     O95751   8.340   0.078   2.759  0.4722 -0.3799 -0.4961
  710MOL0     C95752   8.256   0.071   2.874  0.0355 -0.9765 -0.4678
  710MOL0     C95753   8.133  -0.019   2.839 -1.1018 -0.0718 -0.8110
  710MOL0     C95754   8.053   0.029   2.716 -0.5078  0.3399  0.2473
  710MOL0     C95755   7.986  -0.099   2.666 -0.1757  0.1858  1.3462
  710MOL0     C95756   7.872  -0.068   2.568  0.1591 -0.3969  0.0824
  710MOL0     C95757   7.826  -0.198   2.509  1.0492 -0.3849  1.5436
  710MOL0     C95758   7.735  -0.160   2.383  0.1604 -0.9345  0.6083
  710MOL0     C95759   7.667  -0.280   2.310 -0.2683 -0.5066 -0.2955
  710MOL0    Cl95760   7.577  -0.382   2.423  0.4949 -0.1490  0.1449
  710MOL0     C95761   8.563   0.158   2.827  0.4813 -0.4301 -0.1066
  710MOL0     C95762   8.656   0.256   2.819  0.5348 -0.1860 -0.0317
  710MOL0     O95763   8.643   0.604   2.904 -0.3288  0.0540  0.0640
  710MOL0     C95764   8.983   0.573   2.790 -0.2458 -0.3909  0.4103
  710MOL0     C95765   9.115   0.619   2.803  0.2305  0.9516 -0.5495
  710MOL0     N95766   9.378   1.287   2.820 -0.4140  0.2578  0.0117
  710MOL0     N95767   9.430   1.375   2.755  0.5200 -0.0744  0.1939
  710MOL0     C95768  10.335   1.696   2.649  0.6576 -0.6038 -0.6892
  710MOL0     C95769  10.449   1.615   2.633 -0.1106 -0.7381 -0.0359
  710MOL0     C95770  10.922   1.593   2.553  0.1963  0.4932 -0.0963
  710MOL0     C95771  11.039   1.650   2.592 -0.0830 -0.0357 -0.3815
  710MOL0     C95772  11.161   1.600   2.535  0.1043 -0.7367  0.1783
  710MOL0     C95773  11.166   1.491   2.446 -0.0622 -0.7250  0.1122
  710MOL0     O95774  11.289   1.444   2.403 -0.2553  0.5006  0.4900
  710MOL0     C95775  11.293   1.340   2.310 -0.3530  0.1968 -0.2774
  710MOL0     C95776  11.427   1.323   2.247 -0.5754 -0.6279  1.0666
  710MOL0     C95777  11.474   1.455   2.172  0.5257  0.2744  0.2558
  710MOL0     C95778  11.622   1.448   2.137  0.3812  0.0178 -0.5835
  710MOL0     C95779  11.657   1.587   2.109  0.2766  1.0369  0.1651
  710MOL0     C95780  11.689   1.700   2.092  0.0875  0.1502  0.2151
  710MOL0     C95781  11.042   1.430   2.411 -0.5314 -0.2349  0.7187
  710MOL0     C95782  10.924   1.480   2.460 -0.0699 -0.8855 -0.1460
  710MOL0     H95783  10.621   1.792   2.402 -1.0780  5.4303  0.4608
  710MOL0     H95784  10.408   1.934   2.420  1.4524  0.2813  0.3955
  710MOL0     H95785  10.279   1.924   2.792  1.9943 -0.5869 -2.1761
  710MOL0     H95786  10.286   2.075   2.684 -1.8461  2.0559  1.4707
  710MOL0     H95787  10.111   2.095   2.835 -0.2241 -2.1406  2.2138
  710MOL0     H95788  10.062   2.094   2.665 -0.6349  0.7616  0.8198
  710MOL0     H95789  10.011   1.839   2.693  0.4323 -0.2506 -0.0021
  710MOL0     H95790  10.036   1.871   2.875 -0.2592 -0.8878 -0.5123
  710MOL0     H95791   9.874   2.026   2.900 -0.0849 -1.1876  0.4851
  710MOL0     H95792   9.826   2.010   2.734  0.2259  2.0765  0.6537
  710MOL0     H95793   9.833   1.814   2.972  2.4258  3.8142  1.3593
  710MOL0     H95794   9.691   1.890   2.902 -0.2899 -3.2306  1.8736
  710MOL0     H95795   9.723   1.765   2.677 -0.5097 -2.1804 -0.5347
  710MOL0     H95796   9.852   1.682   2.754  0.0224 -0.2608  1.6287
  710MOL0     H95797   9.692   1.605   2.940  1.7718  0.0834 -0.4934
  710MOL0     H95798   9.554   1.666   2.838  0.2290 -0.4129 -2.8478
  710MOL0     H95799   9.750   1.451   2.780 -0.3131 -0.3302  1.4002
  710MOL0     H95800   9.636   1.525   2.662 -0.7461  0.1797  0.3120
  710MOL0     H95801   9.642   1.310   2.995 -0.6141 -1.3761  1.0012
  710MOL0     H95802   9.483   1.130   3.105 -0.4705  0.7563  0.7769
  710MOL0     H95803   9.320   1.198   3.089 -0.5079  1.5446 -2.8070
  710MOL0     H95804   9.452   0.995   2.908  0.4252  0.6464 -0.5829
  710MOL0     H95805   9.266   1.044   2.928 -1.6091 -2.0941  1.8768
  710MOL0     H95806   9.249   0.921   3.121 -0.3755 -0.1039 -2.1680
  710MOL0     H95807   9.417   0.905   3.161  1.9433 -3.0274 -1.1838
  710MOL0     H95808   9.313   0.684   3.061 -1.6439  2.0288  1.5560
  710MOL0     H95809   9.445   0.743   2.963 -0.8707 -1.6018 -0.3842
  710MOL0     H95810   9.060   0.857   3.033 -1.8724 -0.2761  0.5150
  710MOL0     H95811   8.741   0.854   2.953 -0.7438 -0.7645 -1.3343
  710MOL0     H95812   8.726   0.736   3.089  1.3812 -0.1103  0.0647
  710MOL0     H95813   8.844   0.864   3.099  0.9355 -2.5172  2.0796
  710MOL0     H95814   8.500   0.493   2.645  0.2370  0.8798  1.5262
  710MOL0     H95815   8.318   0.319   2.664 -0.3196 -0.0503  2.7041
  710MOL0     H95816   8.312   0.028   2.957 -0.3390 -1.6691 -0.5673
  710MOL0     H95817   8.224   0.172   2.902  3.8488 -0.6114  3.7251
  710MOL0     H95818   8.175  -0.120   2.831 -3.2456 -0.8377 -4.6503
  710MOL0     H95819   8.065  -0.028   2.924 -2.6411 -0.5703 -2.0376
  710MOL0     H95820   8.119   0.067   2.637  0.0496 -3.1446 -1.1443
  710MOL0     H95821   7.985   0.110   2.745  0.1215  1.7999 -2.0606
  710MOL0     H95822   8.066  -0.158   2.621 -0.6162  1.3358 -1.0959
  710MOL0     H95823   7.947  -0.160   2.748 -2.6792  0.1589  0.2313
  710MOL0     H95824   7.914  -0.001   2.491  1.4090  1.8107  2.5234
  710MOL0     H95825   7.795  -0.019   2.628  1.1726  0.3780  0.7867
  710MOL0     H95826   7.908  -0.244   2.452  0.2384  1.6581 -1.4945
  710MOL0     H95827   7.769  -0.260   2.579 -0.0104 -2.6182 -1.1041
  710MOL0     H95828   7.791  -0.104   2.308  1.4628 -1.4127  1.1854
  710MOL0     H95829   7.653  -0.100   2.423  0.9858  1.0758 -0.5614
  710MOL0     H95830   7.750  -0.338   2.270  0.2840 -1.0064  1.4589
  710MOL0     H95831   7.606  -0.244   2.227  2.4837 -0.2527 -2.3527
  710MOL0     H95832   8.585   0.064   2.877 -0.0791 -1.5030 -1.7820
  710MOL0     H95833   8.755   0.240   2.860  1.1571  0.0172 -1.4195
  710MOL0     H95834   8.964   0.488   2.726 -0.6011 -0.0768  0.0942
  710MOL0     H95835   9.206   0.588   2.754  0.7411  1.7488 -0.1284
  710MOL0     H95836  10.270   1.672   2.733  0.9750  0.8543  0.0032
  710MOL0     H95837  10.451   1.524   2.693 -0.2659 -1.1785 -0.6898
  710MOL0     H95838  11.031   1.737   2.656  1.4666 -1.1450  1.4535
  710MOL0     H95839  11.252   1.654   2.559  0.0657 -0.3255 -0.5945
  710MOL0     H95840  11.252   1.252   2.362 -0.9643  2.2391  3.0098
  710MOL0     H95841  11.229   1.368   2.226  1.4231 -2.8921 -2.8859
  710MOL0     H95842  11.421   1.236   2.181 -1.0845  0.3242 -0.1856
  710MOL0     H95843  11.495   1.305   2.330 -0.6668 -3.1692  0.6718
  710MOL0     H95844  11.462   1.542   2.238 -0.0018  1.0307 -0.8076
  710MOL0     H95845  11.409   1.472   2.085 -1.8318 -3.4584  1.0764
  710MOL0     H95846  11.646   1.382   2.053  1.0770 -2.2987  1.3344
  710MOL0     H95847  11.682   1.414   2.222  2.3380  0.8051 -1.5924
  710MOL0     H95848  11.715   1.798   2.060  0.3972  0.0774  0.2333
  710MOL0     H95849  11.036   1.343   2.345 -0.4928 -0.0421  0.4596
  710MOL0     H95850  10.835   1.425   2.430 -0.2966 -3.2746  4.0193
  711MOL0     O95851   1.774   0.322   4.366 -0.2414  0.2861  0.6230
  711MOL0     C95852   1.825   0.254   4.453 -0.2196 -0.3156  0.0947
  711MOL0     O95853   1.772   0.138   4.506 -0.0828 -0.2879 -0.3696
  711MOL0     C95854   1.650   0.100   4.470 -0.1427  0.1143  0.4864
  711MOL0     C95855   1.624   0.061   4.345 -0.1227 -0.4303  0.3289
  711MOL0     C95856   1.499   0.026   4.298  0.9236  0.7711  0.6856
  711MOL0     C95857   1.392   0.039   4.385  0.4924  0.0026  0.6812
  711MOL0     O95858   1.256   0.013   4.365  0.1412 -0.2325 -0.1587
  711MOL0     C95859   1.207  -0.004   4.228 -0.7344 -0.3065  0.8566
  711MOL0     C95860   1.069  -0.065   4.224  0.0689  0.3055  0.3099
  711MOL0     C95861   0.949   0.029   4.239  0.0632 -0.0952 -0.3212
  711MOL0     C95862   0.819  -0.061   4.223 -0.8283 -0.0669  0.1206
  711MOL0     C95863   0.698   0.027   4.250 -0.1680  0.2650 -0.3029
  711MOL0     C95864   0.575  -0.023   4.189 -0.1766  0.0783  0.1379
  711MOL0     C95865   0.452   0.059   4.240 -0.8186  0.6963 -0.0680
  711MOL0     C95866   0.327   0.007   4.162 -0.6877 -0.5584  0.1560
  711MOL0     N95867   0.315  -0.143   4.171 -0.2444  0.2992 -0.5678
  711MOL0     C95868   0.292  -0.234   4.068 -0.5433 -0.1892 -0.2001
  711MOL0     C95869   0.295  -0.361   4.127  0.4596 -0.6353 -0.3309
  711MOL0     C95870   0.298  -0.495   4.062  0.1689 -0.6857 -0.3314
  711MOL0     C95871   0.420  -0.510   3.976 -0.1989 -0.0673  0.6515
  711MOL0     C95872   0.451  -0.662   3.936  0.2412  0.1787 -0.2922
  711MOL0     C95873   0.357  -0.719   3.836 -0.4303  0.0869  0.9502
  711MOL0     O95874   0.354  -0.861   3.840  0.2120  0.0045  0.3687
  711MOL0     C95875   0.437  -0.943   3.766 -1.1805  0.5811 -0.2742
  711MOL0     C95876   0.554  -0.889   3.696  0.2912 -0.2979 -0.3491
  711MOL0     C95877   0.650  -0.967   3.634  0.6595  0.2399 -0.6617
  711MOL0     C95878   0.786  -0.909   3.595 -0.4184  0.0429  0.3908
  711MOL0     C95879   0.634  -1.104   3.638  0.4594 -0.0900 -0.1521
  711MOL0     C95880   0.724  -1.203   3.564 -0.0950 -0.4446  0.0923
  711MOL0     O95881   0.857  -1.186   3.596  0.7691  0.5114  0.4441
  711MOL0     C95882   0.942  -1.265   3.524 -0.2644  0.2144  0.2369
  711MOL0     C95883   1.027  -1.354   3.598 -0.4846  0.1779  1.0963
  711MOL0     C95884   1.113  -1.448   3.534 -0.5886 -0.1837 -0.7730
  711MOL0     C95885   1.114  -1.464   3.393 -0.1583 -0.5542 -0.9010
  711MOL0     O95886   1.204  -1.550   3.354 -0.2504 -0.4074  0.5585
  711MOL0     C95887   1.214  -1.567   3.212  0.0940 -0.2218 -0.1080
  711MOL0     C95888   1.319  -1.674   3.179  0.8812 -0.8848  0.0196
  711MOL0     C95889   1.294  -1.807   3.254 -0.2050 -0.4666 -0.1872
  711MOL0     C95890   1.168  -1.878   3.214  0.7198 -0.2446 -0.0462
  711MOL0     C95891   1.166  -2.022   3.283 -0.0726  0.4894  0.3340
  711MOL0     C95892   1.022  -2.083   3.265  0.2201 -0.6847  0.2481
  711MOL0     C95893   1.007  -2.216   3.347 -0.4474  0.1568 -0.1449
  711MOL0     C95894   0.900  -2.311   3.295  0.4373 -0.3626  0.6677
  711MOL0    Cl95895   0.961  -2.367   3.133  0.4963 -0.3716  0.1612
  711MOL0     C95896   1.035  -1.369   3.321 -0.2913 -0.1604  0.0394
  711MOL0     C95897   0.953  -1.271   3.385 -0.2120 -0.1111  0.0697
  711MOL0     O95898   0.680  -1.281   3.483  0.2695  0.3161  0.0645
  711MOL0     C95899   0.512  -1.163   3.695 -0.3177  0.5109  0.5794
  711MOL0     C95900   0.420  -1.084   3.766 -0.9897 -0.2723 -0.3307
  711MOL0     N95901   0.311  -0.338   4.259 -0.7699 -0.1138 -0.1520
  711MOL0     N95902   0.332  -0.215   4.286  0.1055  0.1408  0.4465
  711MOL0     C95903   1.418   0.080   4.522  0.6709 -0.2493  0.7555
  711MOL0     C95904   1.545   0.110   4.557 -0.4907  0.2517  0.8108
  711MOL0     C95905   1.954   0.301   4.499 -0.5803 -0.2625  0.6519
  711MOL0     C95906   2.023   0.235   4.604 -0.5352  0.9111  0.5850
  711MOL0     C95907   2.128   0.293   4.677  0.3747 -0.3292  0.2249
  711MOL0     C95908   2.169   0.424   4.641 -0.0718  0.7766  0.1443
  711MOL0     O95909   2.256   0.498   4.712  0.8011 -0.9154  0.5313
  711MOL0     C95910   2.365   0.448   4.783 -0.8326 -0.0936 -0.2892
  711MOL0     C95911   2.492   0.526   4.728  0.2897  0.8834  0.3919
  711MOL0     C95912   2.612   0.522   4.817  0.7401  0.1609  0.2640
  711MOL0     C95913   2.730   0.600   4.763  0.3757  0.1561  0.5078
  711MOL0     C95914   2.843   0.622   4.856 -0.0916  0.6267  0.0342
  711MOL0     C95915   2.950   0.629   4.918  0.0308  0.3668 -0.6635
  711MOL0     C95916   2.115   0.481   4.530  0.9376  0.1478 -0.1079
  711MOL0     C95917   2.012   0.423   4.458  0.5990  0.1594  0.4542
  711MOL0     H95918   1.706   0.066   4.274  0.2896  2.2269  0.8802
  711MOL0     H95919   1.486   0.008   4.191  0.8535  1.8914  0.4950
  711MOL0     H95920   1.199   0.089   4.171  0.1140 -1.7233 -1.7323
  711MOL0     H95921   1.270  -0.069   4.167  0.2551  1.1260  0.3058
  711MOL0     H95922   1.050  -0.103   4.123 -0.3169  1.7622 -0.1986
  711MOL0     H95923   1.067  -0.146   4.297  2.3429  0.1559  0.2707
  711MOL0     H95924   0.944   0.074   4.338  0.8564 -1.3466  0.3156
  711MOL0     H95925   0.947   0.108   4.164 -0.6212 -1.2037 -1.5136
  711MOL0     H95926   0.815  -0.100   4.121  0.7270  1.4102 -0.5439
  711MOL0     H95927   0.822  -0.144   4.295 -2.3245 -0.4333 -0.2057
  711MOL0     H95928   0.692   0.046   4.358  2.4210  2.6574 -0.4422
  711MOL0     H95929   0.722   0.126   4.209  2.5719 -0.6705 -1.2201
  711MOL0     H95930   0.593  -0.023   4.082  0.0736 -0.3331  0.1778
  711MOL0     H95931   0.563  -0.124   4.230 -1.4472  0.6322  1.2296
  711MOL0     H95932   0.441   0.048   4.348  0.7686  1.4110  0.1872
  711MOL0     H95933   0.468   0.167   4.227 -0.0557  1.2567  4.2875
  711MOL0     H95934   0.336   0.041   4.058 -0.8396 -0.9619  0.0083
  711MOL0     H95935   0.244   0.057   4.212 -1.2395 -0.6592 -0.6416
  711MOL0     H95936   0.295  -0.215   3.961 -1.0379  1.0743 -0.0035
  711MOL0     H95937   0.295  -0.576   4.135 -0.1756 -1.9591 -1.7085
  711MOL0     H95938   0.210  -0.502   3.996  0.6928 -0.7968 -1.0341
  711MOL0     H95939   0.506  -0.484   4.039  1.9135 -3.2324 -0.6915
  711MOL0     H95940   0.412  -0.448   3.886 -2.6351 -1.0708  0.1141
  711MOL0     H95941   0.451  -0.722   4.027  0.5286  1.8482  0.8517
  711MOL0     H95942   0.554  -0.661   3.899  1.3688  1.1070  2.6066
  711MOL0     H95943   0.388  -0.672   3.743  2.1628 -0.9793  1.2121
  711MOL0     H95944   0.251  -0.696   3.855 -1.0074 -0.5709 -1.1419
  711MOL0     H95945   0.570  -0.782   3.705  0.2556 -0.4299  1.9875
  711MOL0     H95946   0.813  -0.946   3.496 -0.3320 -0.0296  0.4415
  711MOL0     H95947   0.775  -0.800   3.593  0.2693  0.1435  1.3863
  711MOL0     H95948   0.863  -0.936   3.668  0.1299 -1.1628 -0.6086
  711MOL0     H95949   1.032  -1.335   3.705  0.7279  2.7421  0.6559
  711MOL0     H95950   1.175  -1.511   3.597 -1.1118  1.3818  1.4128
  711MOL0     H95951   1.117  -1.608   3.182 -0.4286 -0.1846  1.4325
  711MOL0     H95952   1.248  -1.480   3.155 -1.0942  0.4049  0.0900
  711MOL0     H95953   1.325  -1.673   3.069 -2.0769 -0.9378 -0.2274
  711MOL0     H95954   1.407  -1.623   3.220  0.2346 -0.6739  1.1702
  711MOL0     H95955   1.287  -1.790   3.362 -3.2564 -3.2513  0.2229
  711MOL0     H95956   1.375  -1.879   3.238 -1.4083 -1.7849 -0.4935
  711MOL0     H95957   1.081  -1.822   3.249 -1.0185 -1.3311 -2.3936
  711MOL0     H95958   1.164  -1.891   3.106  0.6767  2.5900 -0.4368
  711MOL0     H95959   1.200  -2.009   3.386  0.2965 -0.6842  0.3699
  711MOL0     H95960   1.241  -2.080   3.229  0.8011 -1.1604  3.1288
  711MOL0     H95961   0.953  -2.012   3.312  0.1738 -0.7165  0.2273
  711MOL0     H95962   0.996  -2.103   3.161 -1.0847 -1.5717  0.7131
  711MOL0     H95963   0.987  -2.204   3.454 -1.2899 -0.2288 -0.2509
  711MOL0     H95964   1.103  -2.267   3.348 -0.3443  0.2402 -2.1026
  711MOL0     H95965   0.804  -2.259   3.288  1.5554  1.8360  0.5010
  711MOL0     H95966   0.896  -2.399   3.359 -0.0570 -2.1730 -1.7141
  711MOL0     H95967   1.031  -1.380   3.213 -0.5646  3.1131 -0.3822
  711MOL0     H95968   0.885  -1.210   3.326 -0.2527 -0.3396 -0.1223
  711MOL0     H95969   0.489  -1.269   3.688 -0.4486  0.4909  1.1858
  711MOL0     H95970   0.344  -1.138   3.822  0.0573 -0.8350  0.5878
  711MOL0     H95971   1.332   0.088   4.588  1.0378 -1.0760  1.3476
  711MOL0     H95972   1.589   0.155   4.646 -0.6019 -0.3090  1.1558
  711MOL0     H95973   1.999   0.137   4.646 -1.4256  1.2378  0.8558
  711MOL0     H95974   2.161   0.245   4.769 -1.9777 -2.0969  0.2419
  711MOL0     H95975   2.363   0.455   4.892  0.8030  1.6740 -0.3203
  711MOL0     H95976   2.374   0.343   4.757  2.3527 -0.0653  0.3373
  711MOL0     H95977   2.464   0.631   4.714 -0.0421  1.0026  1.7703
  711MOL0     H95978   2.535   0.481   4.637 -0.8193 -2.1525  1.2387
  711MOL0     H95979   2.627   0.415   4.836 -2.7842 -0.5775 -0.4439
  711MOL0     H95980   2.587   0.562   4.915  2.5740 -2.7494  2.0855
  711MOL0     H95981   2.703   0.699   4.725  2.8891 -0.1654 -2.5932
  711MOL0     H95982   2.768   0.546   4.676 -0.4867 -1.0386  0.8489
  711MOL0     H95983   3.040   0.647   4.973 -0.0217 -1.0194 -0.1059
  711MOL0     H95984   2.154   0.578   4.499 -2.0430  0.8664 -2.1457
  711MOL0     H95985   1.968   0.476   4.374  3.5123  1.2911 -0.4779
  712MOL0     O95986   9.289   7.431   4.172 -0.6900 -0.2826  0.6326
  712MOL0     C95987   9.330   7.522   4.251 -0.9158 -0.4310  1.2444
  712MOL0     O95988   9.242   7.613   4.299 -0.3833 -0.0584 -0.6989
  712MOL0     C95989   9.107   7.588   4.316  0.4871  0.1386  0.3478
  712MOL0     C95990   9.017   7.675   4.253  0.4690  0.6127  0.4872
  712MOL0     C95991   8.884   7.644   4.251  0.2737 -0.7933  0.5353
  712MOL0     C95992   8.837   7.519   4.299  0.2491  0.7801 -0.1630
  712MOL0     O95993   8.716   7.461   4.271  1.0004 -0.3283  0.3369
  712MOL0     C95994   8.697   7.468   4.132  1.0512 -0.5381  0.0179
  712MOL0     C95995   8.583   7.370   4.096 -0.4392 -0.9276 -1.0426
  712MOL0     C95996   8.446   7.428   4.141  0.0594  0.1671  0.6949
  712MOL0     C95997   8.377   7.521   4.041  0.7954 -0.2482  1.0140
  712MOL0     C95998   8.240   7.560   4.092  1.1416  0.1926  0.6685
  712MOL0     C95999   8.157   7.646   3.994 -0.4311  0.2775 -0.2287
  712MOL0     C96000   8.016   7.678   4.058 -0.0167  0.0498  0.7012
  712MOL0     C96001   7.962   7.801   3.991 -0.3652 -0.6149  0.6688
  712MOL0     N96002   7.824   7.829   4.032 -0.4649  0.2264  0.5140
  712MOL0     C96003   7.719   7.817   3.946  0.0418  0.6861  0.3717
  712MOL0     C96004   7.611   7.829   4.024 -0.9998 -0.0587  0.0331
  712MOL0     C96005   7.468   7.813   3.979 -0.7352 -0.5625 -0.8846
  712MOL0     C96006   7.403   7.685   4.042  0.8813  0.3276  0.1660
  712MOL0     C96007   7.492   7.558   4.044 -0.4521 -0.1580 -0.0968
  712MOL0     C96008   7.454   7.455   3.935 -0.1386  0.1092 -0.0610
  712MOL0     O96009   7.464   7.487   3.793 -0.2262  0.6367  0.2054
  712MOL0     C96010   7.577   7.523   3.730 -0.3862 -0.1087  0.1809
  712MOL0     C96011   7.570   7.602   3.617 -0.3122  0.6072  1.1238
  712MOL0     C96012   7.675   7.677   3.564 -0.7467 -0.1926 -0.4300
  712MOL0     C96013   7.646   7.742   3.438 -0.1918  0.1978 -0.3783
  712MOL0     C96014   7.806   7.655   3.619  0.3592 -0.5214  0.2608
  712MOL0     C96015   7.938   7.715   3.569  0.3820 -0.2224  0.0690
  712MOL0     O96016   8.045   7.707   3.652  0.6824 -0.3774 -0.2149
  712MOL0     C96017   8.170   7.732   3.601 -0.0041 -0.5727  0.4585
  712MOL0     C96018   8.268   7.818   3.666  0.5108  0.5511 -1.2305
  712MOL0     C96019   8.392   7.847   3.608  0.0521 -0.4978 -0.3622
  712MOL0     C96020   8.430   7.795   3.488  0.2459 -0.1693  0.9135
  712MOL0     O96021   8.546   7.836   3.432  0.0830 -0.0355  0.0653
  712MOL0     C96022   8.597   7.776   3.312  0.0164 -0.1614 -0.1830
  712MOL0     C96023   8.739   7.817   3.269 -0.5493 -0.6975  0.9431
  712MOL0     C96024   8.785   7.769   3.131  0.2552  0.4017  0.2320
  712MOL0     C96025   8.707   7.647   3.071  0.1135 -0.5150  0.4440
  712MOL0     C96026   8.785   7.607   2.947 -0.3159  0.1500 -0.7055
  712MOL0     C96027   8.913   7.515   2.983  0.9810  0.1110  0.5912
  712MOL0     C96028   8.987   7.435   2.875  1.1000 -0.2380  0.3995
  712MOL0     C96029   8.893   7.340   2.793  0.5570  0.2098 -0.2280
  712MOL0    Cl96030   8.995   7.224   2.706  0.0719 -0.5500  0.0768
  712MOL0     C96031   8.336   7.716   3.418 -0.7949  0.0202  0.9718
  712MOL0     C96032   8.205   7.688   3.473 -0.3190  0.1422  0.3552
  712MOL0     O96033   7.937   7.781   3.465  0.6892  0.3514 -0.1884
  712MOL0     C96034   7.818   7.568   3.729 -0.4436 -0.3624  0.0971
  712MOL0     C96035   7.711   7.499   3.784  0.5017 -0.0239 -0.4099
  712MOL0     N96036   7.654   7.856   4.147  0.7491  0.0625  0.1765
  712MOL0     N96037   7.781   7.856   4.154  0.1868  0.2599  0.2859
  712MOL0     C96038   8.927   7.439   4.375  0.0000 -0.5651  0.0045
  712MOL0     C96039   9.064   7.475   4.385  0.3240  0.0479 -0.7861
  712MOL0     C96040   9.469   7.542   4.286 -1.1413  0.0622 -0.1010
  712MOL0     C96041   9.564   7.436   4.267  0.0825 -0.5847  0.2815
  712MOL0     C96042   9.702   7.460   4.291  0.3601 -0.1023 -0.7091
  712MOL0     C96043   9.749   7.584   4.335 -0.4813  0.0297  0.2829
  712MOL0     O96044   9.870   7.586   4.388  0.0445  0.6569  0.0771
  712MOL0     C96045   9.962   7.659   4.302 -0.8312 -0.2149  0.1204
  712MOL0     C96046  10.046   7.565   4.213  0.0652  0.4001  0.3452
  712MOL0     C96047  10.153   7.636   4.126  0.5287 -0.0612  0.7602
  712MOL0     C96048  10.287   7.609   4.194 -0.0269  0.4275 -0.1409
  712MOL0     C96049  10.305   7.683   4.319 -0.2453  0.2954  0.1702
  712MOL0     C96050  10.310   7.740   4.426 -0.1473  0.1236 -0.2991
  712MOL0     C96051   9.659   7.681   4.363 -0.1169 -0.5324  0.0570
  712MOL0     C96052   9.521   7.663   4.339  0.2510  0.0417 -0.6189
  712MOL0     H96053   9.047   7.767   4.204 -1.7318 -0.4442 -3.2745
  712MOL0     H96054   8.829   7.702   4.178  4.0156 -0.0541 -1.9493
  712MOL0     H96055   8.671   7.569   4.098 -1.2407 -1.7287 -2.1871
  712MOL0     H96056   8.785   7.439   4.074 -0.0963  0.9653 -2.6701
  712MOL0     H96057   8.586   7.351   3.989 -2.0428 -1.7315 -0.9814
  712MOL0     H96058   8.595   7.270   4.139  0.9685 -0.1463  0.4970
  712MOL0     H96059   8.370   7.351   4.158  1.7615 -1.4530  1.2978
  712MOL0     H96060   8.458   7.482   4.235  0.1949  0.1140  0.7088
  712MOL0     H96061   8.432   7.614   4.021 -1.0988  0.3368 -2.2632
  712MOL0     H96062   8.375   7.470   3.945 -3.7773  1.7094 -0.2310
  712MOL0     H96063   8.197   7.464   4.120  0.1126  0.7296  1.0045
  712MOL0     H96064   8.248   7.622   4.182  2.0308  0.9762  0.0637
  712MOL0     H96065   8.215   7.734   3.966  2.7779 -1.2874  1.0891
  712MOL0     H96066   8.143   7.583   3.905 -0.3363 -2.7421  1.7457
  712MOL0     H96067   7.942   7.598   4.046  0.2013 -0.4646  2.5050
  712MOL0     H96068   8.022   7.698   4.165  0.7842 -1.1750  0.9113
  712MOL0     H96069   7.972   7.785   3.883  0.0661 -0.9367  0.7514
  712MOL0     H96070   8.024   7.889   4.010 -1.6772  0.4168  0.3219
  712MOL0     H96071   7.712   7.787   3.841  0.4059 -0.8424  0.7555
  712MOL0     H96072   7.410   7.892   4.027 -1.7549 -0.4183 -2.2870
  712MOL0     H96073   7.454   7.829   3.872  1.7728 -2.2537 -1.5778
  712MOL0     H96074   7.311   7.667   3.986  1.7375  2.3161 -2.0776
  712MOL0     H96075   7.370   7.698   4.145  1.9397 -3.1072  1.1008
  712MOL0     H96076   7.488   7.525   4.148 -1.0084 -0.0982 -0.0953
  712MOL0     H96077   7.598   7.581   4.028 -0.6020  1.1543  0.6107
  712MOL0     H96078   7.352   7.421   3.952 -0.5947  1.8559  0.8385
  712MOL0     H96079   7.527   7.375   3.956 -0.0734  0.9828  3.5573
  712MOL0     H96080   7.472   7.626   3.576 -0.0085 -1.0594 -0.7273
  712MOL0     H96081   7.709   7.826   3.409  3.1074 -2.9062 -3.1220
  712MOL0     H96082   7.653   7.675   3.352 -2.6569  0.2208 -0.6773
  712MOL0     H96083   7.545   7.782   3.451  0.1714  0.4634  2.2113
  712MOL0     H96084   8.236   7.870   3.756  2.5739  0.8244 -0.6237
  712MOL0     H96085   8.471   7.899   3.661  2.0318 -0.4658 -3.1344
  712MOL0     H96086   8.589   7.667   3.315 -2.0313 -0.0337  2.7172
  712MOL0     H96087   8.530   7.807   3.232 -0.0230  0.8309  0.2181
  712MOL0     H96088   8.739   7.926   3.273 -0.6076 -0.6813  0.5524
  712MOL0     H96089   8.809   7.775   3.342  0.4375 -0.5985  0.0826
  712MOL0     H96090   8.890   7.737   3.135 -0.0283 -1.0398 -2.0142
  712MOL0     H96091   8.769   7.848   3.057 -1.0785  1.2201  1.3712
  712MOL0     H96092   8.702   7.570   3.149 -1.0581 -0.2568  0.6522
  712MOL0     H96093   8.607   7.682   3.045  0.8464 -0.6276 -2.9697
  712MOL0     H96094   8.821   7.696   2.895 -0.3429  0.7311  0.2444
  712MOL0     H96095   8.716   7.545   2.889  0.7463  0.2659 -2.1335
  712MOL0     H96096   8.984   7.587   3.022  2.0010  0.0423 -1.0424
  712MOL0     H96097   8.878   7.442   3.057  0.1333  0.2809  0.3768
  712MOL0     H96098   9.068   7.373   2.915  0.6054 -1.0412  0.1694
  712MOL0     H96099   9.031   7.505   2.803 -0.5673  0.3849 -0.0547
  712MOL0     H96100   8.833   7.404   2.728  0.6472  2.6590  1.9456
  712MOL0     H96101   8.822   7.285   2.855 -1.1421  2.1287 -0.3804
  712MOL0     H96102   8.363   7.685   3.317  0.2795 -0.8441  1.4925
  712MOL0     H96103   8.137   7.644   3.400 -0.2668  1.5746 -0.6077
  712MOL0     H96104   7.917   7.550   3.771  0.8176  0.7105 -2.2081
  712MOL0     H96105   7.726   7.437   3.872 -0.7515  0.3796  0.1106
  712MOL0     H96106   8.881   7.356   4.428  1.2084  0.4716  2.8256
  712MOL0     H96107   9.138   7.412   4.434  0.3602  0.4551 -0.3004
  712MOL0     H96108   9.542   7.341   4.219  0.5108  0.1365 -1.4271
  712MOL0     H96109   9.763   7.371   4.281  0.6040  0.0236 -0.3734
  712MOL0     H96110   9.912   7.732   4.238  0.7409  1.1231  0.3610
  712MOL0     H96111  10.022   7.723   4.367 -1.2514  0.0169  0.2826
  712MOL0     H96112   9.975   7.503   4.157  0.4295  0.3873 -0.1016
  712MOL0     H96113  10.100   7.503   4.285  0.1603  0.6570  0.4962
  712MOL0     H96114  10.137   7.744   4.119 -0.7144 -0.2695  0.0725
  712MOL0     H96115  10.143   7.594   4.025 -0.7068  0.9075  0.4461
  712MOL0     H96116  10.366   7.644   4.127 -0.5758  1.2722 -0.3643
  712MOL0     H96117  10.299   7.505   4.227 -2.5586  0.2678  0.5001
  712MOL0     H96118  10.317   7.807   4.509  2.0779 -3.2404  2.5253
  712MOL0     H96119   9.700   7.778   4.387  1.9434 -0.2962 -3.6360
  712MOL0     H96120   9.455   7.749   4.344 -0.2156 -0.3250 -0.5349
  713MOL0     O96121   2.454  11.155   1.134 -0.1339  0.2227  0.3073
  713MOL0     C96122   2.505  11.151   1.026  0.0636  0.3904 -0.6328
  713MOL0     O96123   2.444  11.099   0.915  0.3099  0.2205  0.8679
  713MOL0     C96124   2.328  11.028   0.933  0.6640  0.4752  1.0521
  713MOL0     C96125   2.209  11.082   0.967 -0.2704  0.1366 -0.1726
  713MOL0     C96126   2.095  11.009   0.956 -0.3620 -0.1725 -0.1984
  713MOL0     C96127   2.100  10.871   0.926 -0.5942 -0.3434 -0.6804
  713MOL0     O96128   1.992  10.784   0.899 -0.3234 -0.3406  0.3580
  713MOL0     C96129   1.863  10.821   0.955  0.2890  0.2781 -0.9187
  713MOL0     C96130   1.757  10.714   0.914 -0.2011  0.2583 -0.9727
  713MOL0     C96131   1.625  10.732   1.000  0.2001  0.7018 -0.1347
  713MOL0     C96132   1.580  10.885   1.018  0.3160  0.6429 -0.9656
  713MOL0     C96133   1.436  10.894   1.074 -0.0296 -0.2074 -0.6439
  713MOL0     C96134   1.413  10.845   1.225 -0.2705  0.5400 -0.7588
  713MOL0     C96135   1.275  10.863   1.278 -0.0886 -0.0046 -0.2176
  713MOL0     C96136   1.242  10.997   1.355  0.3833  0.1927 -0.5672
  713MOL0     N96137   1.268  11.119   1.287 -0.1996 -0.5032  0.0168
  713MOL0     C96138   1.186  11.186   1.194 -1.2151 -0.0586  0.0702
  713MOL0     C96139   1.261  11.289   1.153 -0.4434 -0.3601  0.8009
  713MOL0     C96140   1.227  11.390   1.055 -0.0271 -0.4221  0.4613
  713MOL0     C96141   1.165  11.512   1.119  0.4037 -0.1976 -0.0681
  713MOL0     C96142   1.124  11.624   1.021  0.2097  0.1998 -0.5663
  713MOL0     C96143   1.074  11.591   0.884  0.1430 -0.5219  0.6658
  713MOL0     O96144   0.941  11.536   0.879 -0.4250 -0.4058 -0.6297
  713MOL0     C96145   0.839  11.606   0.926  0.4772  0.5299  0.0878
  713MOL0     C96146   0.762  11.565   1.040 -0.6647 -0.0450 -0.2096
  713MOL0     C96147   0.649  11.636   1.079 -1.0627 -0.2562 -1.4431
  713MOL0     C96148   0.593  11.577   1.205 -0.4410 -0.3293 -0.1059
  713MOL0     C96149   0.601  11.737   1.003  0.1005  0.1996 -0.4596
  713MOL0     C96150   0.479  11.821   1.033  0.1573 -0.2672 -0.4259
  713MOL0     O96151   0.430  11.902   0.937  0.1044  0.0262 -0.6570
  713MOL0     C96152   0.338  11.997   0.976 -0.0836 -0.0442 -0.6046
  713MOL0     C96153   0.217  12.000   0.905 -0.1756  0.4479  0.7810
  713MOL0     C96154   0.118  12.098   0.931 -0.2903  0.2090  0.0596
  713MOL0     C96155   0.127  12.183   1.044 -0.2021 -0.1276 -0.5580
  713MOL0     O96156   0.018  12.265   1.063 -0.4663 -0.0752  0.5764
  713MOL0     C96157   0.013  12.346   1.182  0.5235  0.4726  0.5217
  713MOL0     C96158  -0.099  12.450   1.166  0.1906  0.0222  0.4819
  713MOL0     C96159  -0.238  12.393   1.127  0.0236 -0.0558  0.8573
  713MOL0     C96160  -0.340  12.504   1.120 -0.0795 -0.2580 -0.5315
  713MOL0     C96161  -0.464  12.460   1.045  0.5567  0.3796 -0.3080
  713MOL0     C96162  -0.596  12.527   1.084  0.2395  0.2969  0.6034
  713MOL0     C96163  -0.655  12.489   1.219 -0.8943 -0.3877 -0.0595
  713MOL0     C96164  -0.787  12.563   1.229  0.0229  0.3335  0.4040
  713MOL0    Cl96165  -0.855  12.521   1.389  0.1087 -0.0551 -0.0380
  713MOL0     C96166   0.244  12.166   1.126 -0.5414  0.3768 -0.2456
  713MOL0     C96167   0.352  12.080   1.086  0.6775  0.7841 -0.0933
  713MOL0     O96168   0.442  11.812   1.151  0.6671 -0.1550 -0.1564
  713MOL0     C96169   0.674  11.782   0.893  0.1308  0.2464 -0.0952
  713MOL0     C96170   0.790  11.715   0.852  1.1060  0.0262 -0.4197
  713MOL0     N96171   1.379  11.291   1.221 -0.4272  0.2613  0.7720
  713MOL0     N96172   1.384  11.189   1.295 -0.0807 -0.7611 -0.2213
  713MOL0     C96173   2.219  10.807   0.915  0.4705 -0.0314 -0.9379
  713MOL0     C96174   2.335  10.892   0.913 -0.0237  0.0543 -0.4774
  713MOL0     C96175   2.650  11.185   1.024 -0.2804  0.6515  0.6564
  713MOL0     C96176   2.730  11.189   1.140 -0.0156  0.0571 -0.6404
  713MOL0     C96177   2.868  11.211   1.131  0.0752 -0.0509  0.1345
  713MOL0     C96178   2.935  11.244   1.009  0.6860  0.2468 -0.8832
  713MOL0     O96179   3.069  11.261   0.985  0.0609  0.4278 -1.0339
  713MOL0     C96180   3.159  11.235   1.100 -0.2277  0.2217  1.4694
  713MOL0     C96181   3.300  11.237   1.034  0.0610 -0.2517  0.4063
  713MOL0     C96182   3.407  11.172   1.135  0.6487  0.1584  0.2863
  713MOL0     C96183   3.550  11.180   1.078 -0.4031  0.2003 -0.1130
  713MOL0     C96184   3.591  11.319   1.046  0.4043 -0.8088  0.9607
  713MOL0     C96185   3.604  11.438   1.017  0.4157  0.1815 -0.0511
  713MOL0     C96186   2.849  11.243   0.894  0.4015  0.8040 -0.3227
  713MOL0     C96187   2.718  11.199   0.897  0.0205  0.2398 -0.2069
  713MOL0     H96188   2.198  11.183   1.004 -1.9791 -0.8259  2.1496
  713MOL0     H96189   2.002  11.062   0.976  0.2745  1.7549 -1.9389
  713MOL0     H96190   1.863  10.814   1.064 -2.5781  0.0017 -0.8764
  713MOL0     H96191   1.827  10.912   0.905  0.8963  0.6694 -0.6567
  713MOL0     H96192   1.747  10.709   0.805 -0.2494 -0.8964 -0.9311
  713MOL0     H96193   1.791  10.614   0.944 -3.7643 -0.1849  2.4548
  713MOL0     H96194   1.545  10.693   0.936  1.3138  1.2624 -1.9589
  713MOL0     H96195   1.621  10.670   1.090 -4.6340 -1.0564 -1.2424
  713MOL0     H96196   1.653  10.927   1.089 -1.9152  2.2127  0.5383
  713MOL0     H96197   1.598  10.945   0.928  3.5280 -0.4652 -1.1651
  713MOL0     H96198   1.389  10.993   1.070  1.3594  0.4347 -1.9951
  713MOL0     H96199   1.375  10.831   1.010 -2.3364  0.8927  0.3509
  713MOL0     H96200   1.444  10.740   1.231 -0.2296  0.5867 -0.0789
  713MOL0     H96201   1.479  10.900   1.292 -0.4138 -0.3956  0.1850
  713MOL0     H96202   1.205  10.855   1.194  2.1114  1.3213 -2.3352
  713MOL0     H96203   1.263  10.779   1.347  1.5743 -0.5601 -0.5520
  713MOL0     H96204   1.286  10.992   1.456 -0.3040  0.7517 -0.2330
  713MOL0     H96205   1.136  11.004   1.379  1.2265  0.7734  3.8928
  713MOL0     H96206   1.085  11.151   1.175 -0.8785 -0.6508 -0.6602
  713MOL0     H96207   1.309  11.429   0.993 -0.5518 -0.1266 -0.0578
  713MOL0     H96208   1.155  11.349   0.984 -0.1032  1.6539 -0.7578
  713MOL0     H96209   1.224  11.557   1.200 -2.1939 -0.9653  2.4317
  713MOL0     H96210   1.069  11.480   1.162  0.5112 -0.0321  0.2989
  713MOL0     H96211   1.207  11.694   1.010  1.8296 -1.6029 -0.4172
  713MOL0     H96212   1.050  11.695   1.058  1.2140  2.3457 -2.4988
  713MOL0     H96213   1.143  11.539   0.817  1.4977  2.1990 -0.2252
  713MOL0     H96214   1.061  11.686   0.830 -0.1393  0.1891  1.9590
  713MOL0     H96215   0.793  11.472   1.087 -1.8576 -1.1730 -1.5508
  713MOL0     H96216   0.654  11.494   1.244 -2.1405 -1.2860  0.6326
  713MOL0     H96217   0.600  11.650   1.285  1.4354  0.6489 -1.0979
  713MOL0     H96218   0.492  11.539   1.186  0.7086 -3.5484 -0.4576
  713MOL0     H96219   0.198  11.930   0.824 -0.4916 -1.8798  2.7527
  713MOL0     H96220   0.031  12.083   0.868 -1.7406 -1.0516  2.2533
  713MOL0     H96221  -0.001  12.278   1.267 -0.4990 -0.8555 -0.6764
  713MOL0     H96222   0.114  12.387   1.195  0.6694  1.0099 -1.9011
  713MOL0     H96223  -0.119  12.502   1.261  2.8282  0.5446  0.8210
  713MOL0     H96224  -0.070  12.529   1.096 -3.3335  0.2730 -0.8771
  713MOL0     H96225  -0.268  12.320   1.204 -2.4517  1.3812  1.3715
  713MOL0     H96226  -0.227  12.355   1.025 -2.1972 -0.5640  0.7545
  713MOL0     H96227  -0.371  12.518   1.224  0.2519 -4.2336  0.2651
  713MOL0     H96228  -0.301  12.601   1.088 -1.4848  0.2295 -0.8439
  713MOL0     H96229  -0.472  12.351   1.041  1.5307  0.1845  1.8574
  713MOL0     H96230  -0.451  12.487   0.940 -3.9280 -1.2141 -1.4978
  713MOL0     H96231  -0.588  12.635   1.065 -1.6738  0.2232 -0.9118
  713MOL0     H96232  -0.681  12.509   1.018 -1.6105  2.2242  2.2872
  713MOL0     H96233  -0.585  12.526   1.295  0.0228 -0.8718 -0.6430
  713MOL0     H96234  -0.665  12.382   1.239 -1.3382 -0.1209  1.2573
  713MOL0     H96235  -0.866  12.526   1.163  0.3373 -2.1848  1.3534
  713MOL0     H96236  -0.766  12.670   1.224 -0.1837  0.3674  0.2579
  713MOL0     H96237   0.267  12.227   1.212 -1.4282 -1.3981  1.3075
  713MOL0     H96238   0.444  12.077   1.144  0.0160  1.8742  1.0824
  713MOL0     H96239   0.637  11.869   0.839 -0.6480  1.2745  1.9947
  713MOL0     H96240   0.835  11.754   0.761  1.8910  1.2975  0.4599
  713MOL0     H96241   2.218  10.701   0.891 -0.7117  0.1013 -1.5880
  713MOL0     H96242   2.427  10.839   0.889  0.1491 -0.8756  1.9645
  713MOL0     H96243   2.694  11.168   1.240 -0.4733  0.6954 -0.6644
  713MOL0     H96244   2.931  11.218   1.219  1.3036  1.6322 -0.8116
  713MOL0     H96245   3.142  11.318   1.169  0.1094  0.4884  1.2312
  713MOL0     H96246   3.137  11.135   1.139 -1.5707 -0.8162 -1.6699
  713MOL0     H96247   3.325  11.343   1.021  1.2488 -0.5198  0.4577
  713MOL0     H96248   3.304  11.194   0.933 -0.2725 -0.5274  0.5093
  713MOL0     H96249   3.376  11.068   1.148 -1.4678  0.5625 -1.0196
  713MOL0     H96250   3.406  11.230   1.228 -2.0586  1.1494 -0.2663
  713MOL0     H96251   3.563  11.117   0.990  0.1030  1.7100 -1.1689
  713MOL0     H96252   3.622  11.148   1.153 -0.9354 -2.6904 -0.7257
  713MOL0     H96253   3.611  11.542   0.993 -2.6557 -0.3158 -4.2227
  713MOL0     H96254   2.896  11.288   0.807  1.0194 -0.0734 -0.4646
  713MOL0     H96255   2.670  11.213   0.800 -1.3707  1.0402  0.5582
  714MOL0     O96256   8.809   9.078   4.006 -0.4225 -0.1839  0.1232
  714MOL0     C96257   8.919   9.116   3.956  0.6771 -0.2322 -0.2079
  714MOL0     O96258   8.933   9.218   3.867  0.1095 -0.0607  0.3311
  714MOL0     C96259   8.825   9.304   3.841 -0.5295 -0.0215 -0.8552
  714MOL0     C96260   8.694   9.266   3.821 -0.3716 -0.1628  0.2186
  714MOL0     C96261   8.601   9.367   3.789 -0.5625  0.1748  0.5803
  714MOL0     C96262   8.630   9.503   3.795  0.3312 -0.4616  0.4333
  714MOL0     O96263   8.541   9.606   3.762 -0.6485 -0.3323 -0.4935
  714MOL0     C96264   8.406   9.603   3.819 -0.1602 -0.2547 -1.3914
  714MOL0     C96265   8.297   9.580   3.715 -0.5263 -0.2282  0.4172
  714MOL0     C96266   8.165   9.606   3.791 -0.2624 -0.6552  0.1205
  714MOL0     C96267   8.038   9.586   3.702 -0.1374 -0.3349  0.6340
  714MOL0     C96268   7.906   9.626   3.781  0.0639  0.2684 -0.3394
  714MOL0     C96269   7.786   9.587   3.684  0.8821 -0.0971 -0.0902
  714MOL0     C96270   7.647   9.606   3.751  0.9764  0.2693  0.2187
  714MOL0     C96271   7.550   9.523   3.669  0.4753 -0.2514 -0.3674
  714MOL0     N96272   7.412   9.515   3.724 -0.6749  0.3828 -0.0984
  714MOL0     C96273   7.305   9.460   3.657 -0.7195  0.2075 -0.2046
  714MOL0     C96274   7.210   9.465   3.749  0.0140  0.0638 -0.3801
  714MOL0     C96275   7.079   9.406   3.726 -0.5733  0.8261  0.0508
  714MOL0     C96276   6.956   9.478   3.782  0.0349  0.1150  0.2039
  714MOL0     C96277   6.836   9.394   3.735 -0.1480  0.3099 -0.7471
  714MOL0     C96278   6.706   9.442   3.794  0.6874  0.1837  0.1570
  714MOL0     O96279   6.594   9.351   3.795 -0.5304 -0.7042  0.3436
  714MOL0     C96280   6.467   9.402   3.822  0.2238 -1.0299  1.4267
  714MOL0     C96281   6.430   9.533   3.865 -0.5598  0.4440  0.0480
  714MOL0     C96282   6.297   9.567   3.895  0.4779 -0.4635  0.2945
  714MOL0     C96283   6.271   9.713   3.931  0.0758  0.1092  0.2487
  714MOL0     C96284   6.190   9.472   3.894  0.1783  0.4277 -0.9263
  714MOL0     C96285   6.051   9.497   3.915  0.0272 -0.6162  0.5564
  714MOL0     O96286   5.949   9.422   3.868 -0.6286 -0.2564  0.6425
  714MOL0     C96287   5.820   9.446   3.915  0.4040  0.0870  0.4040
  714MOL0     C96288   5.768   9.341   3.986 -0.1212  0.2254 -0.3818
  714MOL0     C96289   5.643   9.348   4.050 -0.0267  0.8180  0.5290
  714MOL0     C96290   5.571   9.467   4.043  0.6132  0.6186 -0.3215
  714MOL0     O96291   5.459   9.495   4.110  0.2810  0.2723  0.3720
  714MOL0     C96292   5.434   9.415   4.227 -0.1787  0.6818 -1.2035
  714MOL0     C96293   5.330   9.481   4.307 -0.4732  0.1493 -1.5661
  714MOL0     C96294   5.372   9.620   4.347  0.8178  0.2749  0.0091
  714MOL0     C96295   5.255   9.686   4.431 -1.0630 -0.4780  0.8019
  714MOL0     C96296   5.307   9.813   4.494 -0.5037 -0.6781 -0.1734
  714MOL0     C96297   5.229   9.823   4.631  0.1595  0.2302  0.1005
  714MOL0     C96298   5.282   9.928   4.729 -1.2322  0.2915  0.2987
  714MOL0     C96299   5.204  10.061   4.710  0.0191  0.5734  0.9954
  714MOL0    Cl96300   5.027  10.051   4.762  0.1095 -0.4779 -0.0519
  714MOL0     C96301   5.627   9.571   3.972 -0.0636  0.5411  0.7199
  714MOL0     C96302   5.749   9.564   3.909 -0.2751 -0.9383 -0.2582
  714MOL0     O96303   6.026   9.596   3.983  0.4300 -0.2979  0.0834
  714MOL0     C96304   6.228   9.339   3.863  0.1968  0.3485  0.1221
  714MOL0     C96305   6.364   9.301   3.819 -0.5788  0.1100 -0.5993
  714MOL0     N96306   7.263   9.517   3.865  0.0058  1.1964  0.3897
  714MOL0     N96307   7.382   9.552   3.847 -0.6802  0.1464 -0.4283
  714MOL0     C96308   8.757   9.538   3.820 -0.0127 -0.4989  0.2614
  714MOL0     C96309   8.862   9.437   3.834  0.7795  0.1463  0.6813
  714MOL0     C96310   9.045   9.039   4.001 -0.1020  0.0745 -0.4871
  714MOL0     C96311   9.037   8.987   4.136 -0.2662  0.4363  1.1760
  714MOL0     C96312   9.143   8.905   4.181 -0.2232 -0.7415  0.5369
  714MOL0     C96313   9.262   8.894   4.110  0.0965 -0.2445 -0.1435
  714MOL0     O96314   9.370   8.823   4.156  0.5124  0.2798  0.5552
  714MOL0     C96315   9.366   8.743   4.279  0.0746 -0.1275 -1.0055
  714MOL0     C96316   9.476   8.638   4.303 -0.2488 -0.9394 -0.1481
  714MOL0     C96317   9.623   8.708   4.305 -0.7408  0.3518  0.1926
  714MOL0     C96318   9.736   8.625   4.373  0.1408 -0.1660  0.6753
  714MOL0     C96319   9.739   8.487   4.322  0.1998 -0.4467 -0.3972
  714MOL0     C96320   9.749   8.377   4.269 -0.5241  0.1705 -0.4832
  714MOL0     C96321   9.270   8.962   3.990 -0.5799  1.2398  0.0591
  714MOL0     C96322   9.166   9.034   3.934  0.5541 -0.4050 -0.2710
  714MOL0     H96323   8.657   9.164   3.812  2.1546 -1.0178 -1.9313
  714MOL0     H96324   8.500   9.351   3.755 -0.3020 -0.2915  0.0033
  714MOL0     H96325   8.399   9.522   3.893  2.8908  0.2288 -0.4146
  714MOL0     H96326   8.385   9.703   3.859  0.0717 -0.9916  0.7172
  714MOL0     H96327   8.309   9.650   3.632 -0.4588 -0.5637  0.1468
  714MOL0     H96328   8.303   9.481   3.670 -0.3553 -0.2980  0.5928
  714MOL0     H96329   8.149   9.545   3.880 -1.6722 -1.7320 -0.8344
  714MOL0     H96330   8.170   9.711   3.824  0.1458 -1.1025  1.5514
  714MOL0     H96331   8.050   9.654   3.617  0.8842  1.0757  1.8482
  714MOL0     H96332   8.040   9.489   3.652  1.3105  1.1604 -2.5191
  714MOL0     H96333   7.902   9.579   3.880 -0.6961 -4.3944 -2.3218
  714MOL0     H96334   7.901   9.734   3.796 -2.0385  0.1649  0.0897
  714MOL0     H96335   7.790   9.649   3.593 -1.3777 -1.7074 -1.3922
  714MOL0     H96336   7.802   9.482   3.658 -2.3157 -0.8229  0.4801
  714MOL0     H96337   7.640   9.581   3.857 -0.0858 -1.3334 -0.2066
  714MOL0     H96338   7.618   9.712   3.743  1.3541  0.3983  0.5009
  714MOL0     H96339   7.583   9.419   3.661 -1.2723 -1.1352  2.4452
  714MOL0     H96340   7.544   9.552   3.563 -1.8054  1.0476  0.0548
  714MOL0     H96341   7.311   9.428   3.554 -0.0016  1.5561 -0.6020
  714MOL0     H96342   7.066   9.399   3.617 -0.4732 -0.5779  0.1091
  714MOL0     H96343   7.082   9.302   3.761  0.4579  0.2983 -1.5158
  714MOL0     H96344   6.949   9.580   3.742  1.7463 -0.1585 -0.8496
  714MOL0     H96345   6.966   9.491   3.890 -0.4452  2.5305  0.0256
  714MOL0     H96346   6.847   9.294   3.778 -1.8282  1.0660  1.6819
  714MOL0     H96347   6.823   9.392   3.627  1.3352 -1.0952 -0.9325
  714MOL0     H96348   6.676   9.533   3.741  0.6154  1.6783  2.6019
  714MOL0     H96349   6.720   9.460   3.901 -2.0503  1.7280  0.3601
  714MOL0     H96350   6.508   9.605   3.888 -1.2932  1.1181  0.4576
  714MOL0     H96351   6.354   9.769   3.886 -0.2742  0.0142 -0.5403
  714MOL0     H96352   6.181   9.744   3.878 -0.9892  1.3485  2.6041
  714MOL0     H96353   6.264   9.749   4.034 -2.2721 -0.8621  0.4912
  714MOL0     H96354   5.816   9.245   3.994 -2.5899 -1.6160 -4.4399
  714MOL0     H96355   5.600   9.259   4.095  0.7098  0.7592  1.1386
  714MOL0     H96356   5.412   9.310   4.205  0.1484  1.2474 -4.9568
  714MOL0     H96357   5.520   9.411   4.295 -1.7691  0.3288  0.8750
  714MOL0     H96358   5.232   9.487   4.260 -2.1868  1.9122  1.8172
  714MOL0     H96359   5.312   9.417   4.394  0.3911 -0.0541 -1.5259
  714MOL0     H96360   5.369   9.686   4.260  1.4240 -2.0213 -1.8629
  714MOL0     H96361   5.470   9.618   4.395  0.6712  0.1308  0.3039
  714MOL0     H96362   5.162   9.698   4.375  0.5008  2.5602 -1.4736
  714MOL0     H96363   5.246   9.619   4.517 -0.5403  1.8313  2.7635
  714MOL0     H96364   5.294   9.895   4.424 -0.8307 -3.7155 -4.0354
  714MOL0     H96365   5.415   9.813   4.508 -0.4470  0.3004 -0.5479
  714MOL0     H96366   5.120   9.825   4.621 -0.1746  1.9438  2.9338
  714MOL0     H96367   5.225   9.728   4.686 -0.6538  0.5582  0.6242
  714MOL0     H96368   5.391   9.926   4.718 -1.4745  0.5484 -3.2748
  714MOL0     H96369   5.276   9.891   4.832  0.6488 -2.0683 -0.3460
  714MOL0     H96370   5.204  10.085   4.604  2.6579 -0.6530  0.6305
  714MOL0     H96371   5.249  10.133   4.779  1.9865 -1.3505  1.8480
  714MOL0     H96372   5.582   9.669   3.982 -1.5194 -0.0065 -0.2424
  714MOL0     H96373   5.781   9.644   3.844 -0.2137 -0.2830  0.5635
  714MOL0     H96374   6.157   9.258   3.869  0.8398 -0.1475  1.4025
  714MOL0     H96375   6.404   9.208   3.782 -0.8236  0.6260 -2.2382
  714MOL0     H96376   8.775   9.645   3.829 -1.8960 -0.1048 -0.1587
  714MOL0     H96377   8.967   9.453   3.857  1.0123  0.1770 -0.3826
  714MOL0     H96378   8.955   9.006   4.205  0.4092  2.7049  1.4461
  714MOL0     H96379   9.123   8.877   4.283 -1.2492  0.6251  0.7405
  714MOL0     H96380   9.352   8.808   4.367 -0.3845 -1.5439 -0.0014
  714MOL0     H96381   9.274   8.684   4.278 -0.2063  0.2347  0.4409
  714MOL0     H96382   9.466   8.568   4.220 -0.1880  1.4242 -2.2483
  714MOL0     H96383   9.460   8.583   4.397 -0.3376 -0.0828  0.3513
  714MOL0     H96384   9.619   8.807   4.352 -0.2224  0.4776 -0.0151
  714MOL0     H96385   9.647   8.713   4.198 -5.6958 -1.7735 -1.3179
  714MOL0     H96386   9.712   8.620   4.480  1.4935  1.2105  1.0963
  714MOL0     H96387   9.841   8.653   4.359  0.6068 -0.9779  2.2347
  714MOL0     H96388   9.735   8.274   4.240 -0.8095  0.5374 -1.7234
  714MOL0     H96389   9.359   8.940   3.932 -0.2228  0.6251  0.8385
  714MOL0     H96390   9.173   9.082   3.837  3.4139  2.1852  1.0579
  715MOL0     O96391   8.860   1.375   6.554  0.5066  0.1559  0.4325
  715MOL0     C96392   8.956   1.320   6.603 -0.3552  0.1308  0.2549
  715MOL0     O96393   8.955   1.210   6.677 -0.5095  0.6581 -0.3115
  715MOL0     C96394   8.828   1.160   6.708  0.5978  0.9848  0.3749
  715MOL0     C96395   8.745   1.210   6.806 -0.0241 -0.2975 -0.1997
  715MOL0     C96396   8.621   1.155   6.839 -0.7742 -0.4970 -0.0430
  715MOL0     C96397   8.575   1.044   6.773 -0.5551  0.3657  0.9834
  715MOL0     O96398   8.452   1.000   6.800 -0.5113  0.4674 -0.2644
  715MOL0     C96399   8.412   0.869   6.749 -0.0525  0.0637 -0.3400
  715MOL0     C96400   8.289   0.825   6.830 -0.6193 -0.3692 -0.2235
  715MOL0     C96401   8.234   0.687   6.787  0.2677 -0.5375 -0.2550
  715MOL0     C96402   8.106   0.636   6.856 -0.0837  0.2333  0.1350
  715MOL0     C96403   8.120   0.600   7.004 -0.3665 -1.1846 -0.1292
  715MOL0     C96404   7.999   0.524   7.064  0.2892  0.0318 -0.0038
  715MOL0     C96405   8.026   0.468   7.202 -0.5729 -0.9712 -0.4260
  715MOL0     C96406   8.087   0.570   7.300  0.4529 -0.4774 -0.1803
  715MOL0     N96407   8.000   0.682   7.331 -0.3643 -0.2035  0.0842
  715MOL0     C96408   7.870   0.666   7.389 -0.1092 -0.0452 -0.0343
  715MOL0     C96409   7.818   0.787   7.377 -0.0192  0.0178 -0.1799
  715MOL0     C96410   7.677   0.820   7.421  0.8770 -1.1134  0.3994
  715MOL0     C96411   7.560   0.738   7.362 -0.0792  0.1664 -0.2632
  715MOL0     C96412   7.561   0.739   7.206 -0.3341  0.2509  0.5155
  715MOL0     C96413   7.418   0.694   7.155 -0.1972 -0.0901  0.0092
  715MOL0     O96414   7.386   0.562   7.211 -0.1185 -0.1764  0.0999
  715MOL0     C96415   7.263   0.504   7.183  0.6185  0.4917 -0.4292
  715MOL0     C96416   7.236   0.377   7.237 -0.0066  0.6580  0.3415
  715MOL0     C96417   7.106   0.321   7.219  0.4929  0.5493 -0.0289
  715MOL0     C96418   7.093   0.180   7.276 -0.4555 -0.0243  0.2307
  715MOL0     C96419   7.000   0.392   7.151  0.2876  0.0727  0.5554
  715MOL0     C96420   6.859   0.341   7.140 -0.1902 -0.2678 -0.1838
  715MOL0     O96421   6.766   0.437   7.146  0.4354  0.6695  0.1074
  715MOL0     C96422   6.638   0.398   7.197 -0.0131 -0.5617  0.0698
  715MOL0     C96423   6.525   0.450   7.131  0.0867 -0.6827  0.0685
  715MOL0     C96424   6.403   0.421   7.178  0.4941  0.4397  0.4599
  715MOL0     C96425   6.380   0.346   7.292 -0.5078 -0.0628  0.0084
  715MOL0     O96426   6.251   0.338   7.338 -0.2979 -0.0366  0.2495
  715MOL0     C96427   6.229   0.282   7.468 -0.6606  0.2766 -0.4405
  715MOL0     C96428   6.083   0.274   7.496  0.1754 -0.2809  0.2057
  715MOL0     C96429   6.018   0.414   7.502  0.0013 -0.4770 -0.3474
  715MOL0     C96430   5.873   0.404   7.563  0.5222  0.3059  0.9152
  715MOL0     C96431   5.818   0.540   7.569  0.6831 -0.6052  0.0177
  715MOL0     C96432   5.675   0.531   7.619 -0.6060  1.0225  0.1787
  715MOL0     C96433   5.597   0.659   7.595  0.1506 -0.6546  0.0439
  715MOL0     C96434   5.571   0.707   7.457 -0.1931  1.1321 -0.5301
  715MOL0    Cl96435   5.495   0.576   7.363 -0.1432 -0.6022 -0.0080
  715MOL0     C96436   6.491   0.289   7.363  0.4725 -0.9494  0.3310
  715MOL0     C96437   6.624   0.326   7.316 -0.3658  0.3581  0.0332
  715MOL0     O96438   6.840   0.216   7.145  0.3382  0.2869  0.0979
  715MOL0     C96439   7.026   0.517   7.103 -0.2351 -0.4733 -0.2772
  715MOL0     C96440   7.160   0.568   7.116  0.0843 -0.4020  0.0324
  715MOL0     N96441   7.905   0.878   7.317 -0.0920  0.6033  0.5864
  715MOL0     N96442   8.014   0.811   7.293  0.3331  0.5223  0.1632
  715MOL0     C96443   8.660   0.992   6.669 -0.1127  0.1313 -0.7982
  715MOL0     C96444   8.779   1.050   6.637 -0.4173 -0.1539  0.3853
  715MOL0     C96445   9.089   1.387   6.573  0.1121  0.5374  0.9668
  715MOL0     C96446   9.095   1.491   6.485  0.0111 -1.2550  0.2218
  715MOL0     C96447   9.218   1.555   6.444 -0.2960  0.1000 -0.2701
  715MOL0     C96448   9.337   1.515   6.504 -0.3581 -0.6740 -0.2694
  715MOL0     O96449   9.462   1.579   6.485 -0.8940 -0.2402 -0.3800
  715MOL0     C96450   9.476   1.698   6.403 -1.0611  0.2278 -0.2500
  715MOL0     C96451   9.497   1.650   6.262  0.6131 -0.0746 -0.1327
  715MOL0     C96452   9.490   1.756   6.153 -0.2925 -0.3416  0.3315
  715MOL0     C96453   9.488   1.696   6.009 -0.9737 -0.3937 -0.3194
  715MOL0     C96454   9.353   1.642   5.986 -0.5740 -0.2323  0.3483
  715MOL0     C96455   9.241   1.591   5.971 -1.3659  1.1852 -0.1195
  715MOL0     C96456   9.332   1.408   6.594 -0.4562 -0.0924  0.7395
  715MOL0     C96457   9.213   1.344   6.634 -0.3714 -0.3679  0.5115
  715MOL0     H96458   8.770   1.301   6.859  0.5391 -0.3367 -0.3919
  715MOL0     H96459   8.569   1.196   6.925 -0.7639 -1.9890  0.7108
  715MOL0     H96460   8.388   0.872   6.643 -0.6802 -0.5007 -0.2251
  715MOL0     H96461   8.483   0.788   6.772 -0.4356 -0.4058 -0.8060
  715MOL0     H96462   8.313   0.835   6.936 -0.2507 -4.4764  0.2424
  715MOL0     H96463   8.212   0.898   6.805 -1.0938 -0.1252  1.7338
  715MOL0     H96464   8.222   0.699   6.679 -0.3412  0.0574 -0.1313
  715MOL0     H96465   8.310   0.608   6.786  0.8744  0.0373 -1.0372
  715MOL0     H96466   8.030   0.714   6.855 -0.5945 -0.2441  0.7334
  715MOL0     H96467   8.083   0.544   6.801  3.2211 -1.1322  0.7757
  715MOL0     H96468   8.217   0.553   7.023  0.4659  1.3167  2.5173
  715MOL0     H96469   8.126   0.695   7.059  2.5361 -0.6966 -1.0631
  715MOL0     H96470   7.909   0.586   7.062 -0.3661 -0.8559  1.1082
  715MOL0     H96471   7.978   0.442   6.995 -0.1639  1.8393 -2.1473
  715MOL0     H96472   7.943   0.428   7.261  0.1063 -1.1065  0.4463
  715MOL0     H96473   8.100   0.387   7.193 -0.7306 -0.9899 -1.7744
  715MOL0     H96474   8.179   0.610   7.255 -0.6242  1.6091 -0.6301
  715MOL0     H96475   8.114   0.522   7.395 -0.6817 -1.3147 -0.2666
  715MOL0     H96476   7.832   0.570   7.423 -1.7014  0.6679  0.2485
  715MOL0     H96477   7.658   0.824   7.529 -0.5313  2.8279  0.1673
  715MOL0     H96478   7.661   0.925   7.395 -0.7435 -0.7756  2.4871
  715MOL0     H96479   7.470   0.790   7.397  1.1088  0.8961  1.9263
  715MOL0     H96480   7.549   0.637   7.402 -0.8706 -0.0286 -0.9403
  715MOL0     H96481   7.640   0.671   7.173 -0.6449  0.8292 -1.5578
  715MOL0     H96482   7.587   0.837   7.166 -0.4141  0.2868  0.5493
  715MOL0     H96483   7.429   0.701   7.046  0.2416  1.7671  0.1404
  715MOL0     H96484   7.346   0.766   7.194 -1.5478 -0.7360 -1.1770
  715MOL0     H96485   7.306   0.321   7.299 -0.0254  0.1744 -0.0765
  715MOL0     H96486   7.187   0.155   7.326  0.6666  1.4135 -1.0876
  715MOL0     H96487   7.028   0.183   7.364  2.9663 -0.3072  3.0107
  715MOL0     H96488   7.071   0.112   7.193  1.8586 -1.1248  0.4562
  715MOL0     H96489   6.536   0.509   7.040 -0.5602  0.3352  0.6334
  715MOL0     H96490   6.324   0.458   7.114  0.3486 -0.3049  0.1921
  715MOL0     H96491   6.259   0.177   7.479 -2.0859  0.0397  2.0195
  715MOL0     H96492   6.274   0.348   7.542  2.5276 -1.8294 -0.2919
  715MOL0     H96493   6.021   0.217   7.426 -1.7477  1.3423  0.5047
  715MOL0     H96494   6.078   0.224   7.593 -0.0426  2.7619  1.8912
  715MOL0     H96495   6.005   0.461   7.404  1.2525  0.6848  0.0123
  715MOL0     H96496   6.077   0.483   7.562  1.1675  0.5044 -2.5075
  715MOL0     H96497   5.814   0.342   7.495  2.9162 -2.1419  0.8843
  715MOL0     H96498   5.868   0.353   7.660  1.6906  0.4778  1.0738
  715MOL0     H96499   5.826   0.584   7.470  2.8023  0.6401  0.6679
  715MOL0     H96500   5.872   0.612   7.631 -0.7543  1.7119 -1.2738
  715MOL0     H96501   5.621   0.447   7.574  1.4538 -0.9577  1.2571
  715MOL0     H96502   5.677   0.510   7.726  0.4501  0.8547  0.1341
  715MOL0     H96503   5.650   0.748   7.631 -2.0200  1.5912 -1.9256
  715MOL0     H96504   5.497   0.647   7.637  0.2892 -3.5529 -0.2359
  715MOL0     H96505   5.663   0.744   7.412 -1.0276  4.3123  0.1192
  715MOL0     H96506   5.511   0.798   7.461 -0.2575  1.1147 -1.0445
  715MOL0     H96507   6.463   0.230   7.449  1.3629 -2.2429 -0.2323
  715MOL0     H96508   6.714   0.300   7.371 -0.5198 -0.2758 -0.0103
  715MOL0     H96509   6.944   0.575   7.062  0.1827  0.7553  0.5603
  715MOL0     H96510   7.170   0.663   7.065 -0.4978 -0.5180 -0.2993
  715MOL0     H96511   8.627   0.915   6.600  1.1741 -1.7089  0.5745
  715MOL0     H96512   8.842   1.025   6.553 -1.7343  1.1849 -1.0753
  715MOL0     H96513   9.012   1.527   6.425  1.5028  0.4803 -0.9355
  715MOL0     H96514   9.219   1.623   6.360 -0.4276 -1.9678 -2.0293
  715MOL0     H96515   9.401   1.774   6.425  0.7367  1.8531  0.5589
  715MOL0     H96516   9.572   1.742   6.431 -1.5234  0.3211  1.2769
  715MOL0     H96517   9.418   1.580   6.235 -0.5353  2.3305 -3.7562
  715MOL0     H96518   9.600   1.617   6.250  1.0075  1.1531 -0.3013
  715MOL0     H96519   9.569   1.829   6.170 -0.4066  0.2272 -1.3481
  715MOL0     H96520   9.403   1.819   6.175 -1.6819 -2.2300  0.5245
  715MOL0     H96521   9.565   1.619   6.007 -0.0324  0.5103  0.3734
  715MOL0     H96522   9.516   1.764   5.928  0.8086 -2.5884 -1.6807
  715MOL0     H96523   9.153   1.538   5.941 -1.5985  1.7027 -0.3725
  715MOL0     H96524   9.414   1.381   6.659 -0.9141 -0.6414  1.0992
  715MOL0     H96525   9.208   1.263   6.706 -1.4503 -1.3291 -0.5767
  716MOL0     O96526  10.238   6.776   3.588  0.2288 -0.2104 -0.7572
  716MOL0     C96527  10.255   6.892   3.605  0.3047 -0.3455  0.2545
  716MOL0     O96528  10.145   6.984   3.634 -0.4668 -0.4977  0.3704
  716MOL0     C96529  10.009   6.965   3.615  0.0578  0.4456  0.0195
  716MOL0     C96530   9.921   7.075   3.615  0.2600  0.1095  0.7915
  716MOL0     C96531   9.781   7.047   3.599 -1.3181  0.3693  0.1231
  716MOL0     C96532   9.725   6.919   3.583 -0.3704  0.0031 -0.0341
  716MOL0     O96533   9.586   6.917   3.577 -0.5039  0.3871  0.1077
  716MOL0     C96534   9.528   6.810   3.505  0.5402  0.3388 -0.0371
  716MOL0     C96535   9.528   6.679   3.595  0.5226  0.1034  0.4719
  716MOL0     C96536   9.400   6.653   3.681 -0.1727 -0.1069  0.1875
  716MOL0     C96537   9.275   6.614   3.597 -0.2027  0.4302  0.3912
  716MOL0     C96538   9.149   6.602   3.681  0.6630  0.3170  0.2458
  716MOL0     C96539   9.087   6.726   3.743  1.0424  0.7883 -0.0398
  716MOL0     C96540   8.939   6.701   3.789 -0.2797  0.5309 -0.1174
  716MOL0     C96541   8.858   6.700   3.668  0.2952  0.3044  0.2223
  716MOL0     N96542   8.712   6.716   3.695 -0.0868  0.2111  0.3655
  716MOL0     C96543   8.631   6.635   3.761 -0.5207  1.1560 -0.8021
  716MOL0     C96544   8.506   6.689   3.747 -0.6763  0.7905 -0.1719
  716MOL0     C96545   8.382   6.634   3.814 -0.4147 -0.4224  0.0337
  716MOL0     C96546   8.244   6.691   3.762 -0.0039 -0.5615  0.4643
  716MOL0     C96547   8.133   6.600   3.819  0.9306  0.0586 -0.2267
  716MOL0     C96548   7.995   6.634   3.782  0.1805  0.0761  0.7151
  716MOL0     O96549   7.912   6.581   3.888  0.1895 -0.1039  0.3421
  716MOL0     C96550   7.779   6.593   3.882 -0.3301 -0.3712 -0.1151
  716MOL0     C96551   7.709   6.552   3.990  0.6924  0.3907 -0.8633
  716MOL0     C96552   7.566   6.524   3.989 -0.3978 -0.7947 -0.1690
  716MOL0     C96553   7.507   6.446   4.105 -0.1978  0.4478 -0.1541
  716MOL0     C96554   7.487   6.569   3.880 -0.2647  0.3748  0.2352
  716MOL0     C96555   7.342   6.539   3.870 -0.1006  0.3427  0.2685
  716MOL0     O96556   7.287   6.529   3.741  0.1248  0.2311 -0.7808
  716MOL0     C96557   7.156   6.490   3.727  0.4134 -2.1607  0.0093
  716MOL0     C96558   7.055   6.548   3.814 -0.2074  0.2282 -0.5459
  716MOL0     C96559   6.920   6.527   3.799  0.6034  0.8943  0.1473
  716MOL0     C96560   6.876   6.451   3.694  0.8256  0.2760 -0.2369
  716MOL0     O96561   6.734   6.456   3.675  0.6614 -0.0115  0.2382
  716MOL0     C96562   6.679   6.382   3.560 -0.1837 -0.0254 -0.8277
  716MOL0     C96563   6.527   6.391   3.570 -0.6036  0.5299  0.1624
  716MOL0     C96564   6.454   6.341   3.447  0.5553  0.5977 -0.4810
  716MOL0     C96565   6.304   6.377   3.448 -0.4475  0.5494 -0.9454
  716MOL0     C96566   6.240   6.304   3.565  0.0689  0.1832 -0.4136
  716MOL0     C96567   6.090   6.295   3.557 -0.3220  0.8501 -0.1868
  716MOL0     C96568   6.024   6.229   3.676  0.4578  0.6898 -0.3614
  716MOL0     C96569   5.875   6.205   3.662 -0.3630 -0.6575  0.1119
  716MOL0    Cl96570   5.791   6.358   3.614  0.0410 -0.0205 -0.0349
  716MOL0     C96571   6.968   6.390   3.610 -0.3545  0.5386  0.2311
  716MOL0     C96572   7.109   6.416   3.625 -0.3472 -0.8106  0.3888
  716MOL0     O96573   7.277   6.529   3.975  0.1334 -0.1051 -0.3979
  716MOL0     C96574   7.559   6.617   3.768 -0.0396 -0.4784  0.7336
  716MOL0     C96575   7.701   6.629   3.770  0.9410 -0.5869 -0.4081
  716MOL0     N96576   8.509   6.796   3.658 -0.4038  0.4012  0.3586
  716MOL0     N96577   8.633   6.816   3.633  0.0365 -0.2985  0.0460
  716MOL0     C96578   9.812   6.811   3.584 -0.1084 -0.6865  0.3032
  716MOL0     C96579   9.947   6.834   3.587 -0.2904 -0.5432 -0.8701
  716MOL0     C96580  10.393   6.944   3.624 -0.0361 -0.5810  0.5271
  716MOL0     C96581  10.496   6.879   3.567  0.1717  0.1226 -0.3508
  716MOL0     C96582  10.618   6.934   3.572  0.1523  1.2524 -0.2978
  716MOL0     C96583  10.643   7.049   3.649  0.9421  0.6711  0.2856
  716MOL0     O96584  10.774   7.091   3.660  0.3061 -1.4699 -0.0502
  716MOL0     C96585  10.803   7.128   3.794  0.2342  0.1657 -0.0430
  716MOL0     C96586  10.944   7.167   3.817  0.5715  0.6548  0.8762
  716MOL0     C96587  11.042   7.089   3.726  0.2319 -0.4459 -0.2701
  716MOL0     C96588  11.195   7.087   3.766  0.0281 -0.4582 -0.3604
  716MOL0     C96589  11.257   7.216   3.816  0.8213 -0.9894  0.1941
  716MOL0     C96590  11.272   7.326   3.859  0.5184 -0.0716 -0.7996
  716MOL0     C96591  10.536   7.116   3.704 -0.4601 -0.9838  0.2572
  716MOL0     C96592  10.415   7.056   3.699 -0.1683 -0.2361  0.4987
  716MOL0     H96593   9.957   7.178   3.616 -2.5206  1.2979 -1.9208
  716MOL0     H96594   9.715   7.132   3.618 -1.2562 -0.1105  3.0149
  716MOL0     H96595   9.427   6.837   3.475  0.3105 -2.4430 -2.2140
  716MOL0     H96596   9.585   6.776   3.418  3.2146 -0.9000  2.0292
  716MOL0     H96597   9.549   6.600   3.522  2.9463  3.1334 -2.4070
  716MOL0     H96598   9.607   6.683   3.670  0.4390  0.7572  0.5320
  716MOL0     H96599   9.419   6.567   3.746  5.0436  2.2511  2.4099
  716MOL0     H96600   9.394   6.741   3.747  2.3357  0.0072  0.3840
  716MOL0     H96601   9.263   6.700   3.530 -0.0512  1.0887  1.1888
  716MOL0     H96602   9.289   6.516   3.551  0.7494 -0.5525  2.6447
  716MOL0     H96603   9.084   6.563   3.602  0.5446  1.2043 -0.0966
  716MOL0     H96604   9.159   6.525   3.759 -0.3492 -1.6453 -1.4548
  716MOL0     H96605   9.140   6.755   3.835 -1.7913  0.0261  1.9662
  716MOL0     H96606   9.081   6.814   3.678  0.7762  1.9275  1.4732
  716MOL0     H96607   8.935   6.609   3.848  2.0924  0.9603  0.8123
  716MOL0     H96608   8.911   6.786   3.852 -0.5714  0.9678 -0.8218
  716MOL0     H96609   8.862   6.601   3.622 -0.0442 -1.6777  4.0560
  716MOL0     H96610   8.891   6.789   3.614 -1.3732  1.1377  0.5211
  716MOL0     H96611   8.657   6.546   3.818  2.5103  0.3658 -3.1648
  716MOL0     H96612   8.384   6.527   3.791  1.4277 -0.4378  0.1340
  716MOL0     H96613   8.378   6.639   3.923 -2.8109  1.1638 -0.0416
  716MOL0     H96614   8.243   6.699   3.653 -0.7082  1.1055  0.5548
  716MOL0     H96615   8.215   6.788   3.802 -0.4803 -0.5209  0.0324
  716MOL0     H96616   8.161   6.602   3.925  1.1810 -0.5014 -0.2776
  716MOL0     H96617   8.160   6.503   3.776  0.9041 -1.2149  2.4194
  716MOL0     H96618   7.970   6.584   3.688  2.0041  4.1079 -2.1959
  716MOL0     H96619   7.970   6.740   3.784 -1.6975 -0.2888 -0.5262
  716MOL0     H96620   7.761   6.532   4.083 -2.7573 -2.0742  0.7562
  716MOL0     H96621   7.593   6.420   4.168 -1.7397  2.0585  2.8216
  716MOL0     H96622   7.431   6.490   4.171 -0.5191 -2.7896  1.8679
  716MOL0     H96623   7.468   6.354   4.060 -0.8904 -0.2296  1.7279
  716MOL0     H96624   7.072   6.619   3.894 -1.3271  0.4077 -0.4383
  716MOL0     H96625   6.852   6.588   3.857  2.4853  0.3094  3.2223
  716MOL0     H96626   6.717   6.422   3.465  0.6988 -1.3433 -1.0608
  716MOL0     H96627   6.707   6.277   3.576 -0.4945  0.3717  3.4363
  716MOL0     H96628   6.510   6.337   3.664  3.1364 -0.2573  0.5534
  716MOL0     H96629   6.499   6.497   3.572 -3.1658 -0.0342 -1.3895
  716MOL0     H96630   6.468   6.233   3.436 -2.5413  0.1771 -1.0032
  716MOL0     H96631   6.495   6.398   3.362  2.0958  0.0795 -0.1165
  716MOL0     H96632   6.294   6.486   3.452 -3.6768  0.3895 -2.1637
  716MOL0     H96633   6.260   6.344   3.354 -0.4927  1.7183 -1.3476
  716MOL0     H96634   6.274   6.350   3.658  1.5611 -0.1607 -0.7605
  716MOL0     H96635   6.277   6.202   3.551 -0.5010 -0.0252 -0.4160
  716MOL0     H96636   6.061   6.400   3.551 -1.5507  0.5757  0.7795
  716MOL0     H96637   6.046   6.248   3.469  2.5195  0.9614 -1.8150
  716MOL0     H96638   6.041   6.295   3.762 -0.0703  2.1243 -1.3196
  716MOL0     H96639   6.077   6.136   3.699  0.6166  0.3943 -1.7880
  716MOL0     H96640   5.833   6.159   3.752 -0.2750 -0.1499  0.4172
  716MOL0     H96641   5.858   6.145   3.573  1.6666  1.6225 -1.9726
  716MOL0     H96642   6.940   6.320   3.532  3.8281  0.3218 -1.2840
  716MOL0     H96643   7.171   6.377   3.544 -1.7638  1.4089 -1.9204
  716MOL0     H96644   7.509   6.646   3.676 -1.0426  1.1479  1.7378
  716MOL0     H96645   7.743   6.657   3.673 -1.2766 -1.7331 -1.7738
  716MOL0     H96646   9.777   6.709   3.591 -0.7060 -0.5879 -1.0501
  716MOL0     H96647  10.019   6.755   3.607  3.1683  2.6398  0.3655
  716MOL0     H96648  10.480   6.799   3.496  1.0102  0.3711 -0.8262
  716MOL0     H96649  10.696   6.878   3.522 -1.0647 -0.3349 -0.5179
  716MOL0     H96650  10.746   7.217   3.822  2.2894  0.8883  2.2177
  716MOL0     H96651  10.780   7.052   3.869  1.4551 -0.9943 -0.7919
  716MOL0     H96652  10.967   7.148   3.923  0.2762 -2.9271  0.4362
  716MOL0     H96653  10.959   7.273   3.794 -0.3136  0.4152 -0.9075
  716MOL0     H96654  11.029   7.133   3.626 -2.0891  1.2899  0.6942
  716MOL0     H96655  11.025   6.981   3.719  1.9585 -1.0470  2.8300
  716MOL0     H96656  11.256   7.059   3.680  1.7046  1.8944 -0.0459
  716MOL0     H96657  11.199   7.016   3.849  1.6337 -0.2910 -0.2637
  716MOL0     H96658  11.300   7.425   3.887  0.2565 -0.3748  0.5952
  716MOL0     H96659  10.543   7.208   3.761 -0.0154 -0.7247 -0.2068
  716MOL0     H96660  10.331   7.090   3.759  0.2753  1.2632  0.3239
  717MOL0     O96661   1.354  10.939   5.621  0.2764  0.4502  0.7346
  717MOL0     C96662   1.422  10.909   5.518 -0.3296 -1.3207  0.6808
  717MOL0     O96663   1.375  10.898   5.382  0.6353  0.0027 -0.5253
  717MOL0     C96664   1.236  10.883   5.374 -0.1275 -0.2193 -0.7152
  717MOL0     C96665   1.141  10.973   5.431 -0.5251  0.7797  0.7263
  717MOL0     C96666   1.006  10.942   5.411  0.0251 -0.1454 -0.2277
  717MOL0     C96667   0.965  10.812   5.352  0.1505  0.2407 -0.4232
  717MOL0     O96668   0.838  10.759   5.358 -0.1060 -0.1124  0.0880
  717MOL0     C96669   0.720  10.845   5.381  0.1209 -0.7198  0.4469
  717MOL0     C96670   0.604  10.766   5.439 -0.0193  0.5921 -0.3816
  717MOL0     C96671   0.476  10.857   5.449 -0.3489  0.4450 -0.1834
  717MOL0     C96672   0.356  10.765   5.487 -0.4268  0.4868  0.4754
  717MOL0     C96673   0.224  10.857   5.514 -1.0857 -0.0852  0.7507
  717MOL0     C96674   0.133  10.777   5.597 -0.3058 -0.0582 -0.2812
  717MOL0     C96675   0.092  10.637   5.540  1.0229  0.1411 -0.3215
  717MOL0     C96676  -0.020  10.572   5.621  0.4298  0.0839  0.1633
  717MOL0     N96677  -0.139  10.659   5.643  1.2944  0.5874 -0.1721
  717MOL0     C96678  -0.227  10.701   5.540 -0.2917  0.3238 -0.4232
  717MOL0     C96679  -0.331  10.756   5.599  0.0877  0.6602  0.1100
  717MOL0     C96680  -0.450  10.816   5.526 -0.5319  0.6334 -0.7344
  717MOL0     C96681  -0.593  10.799   5.600 -0.0918  0.7079 -0.1708
  717MOL0     C96682  -0.636  10.646   5.615  0.2504 -0.1738  0.4951
  717MOL0     C96683  -0.771  10.641   5.681  0.7826 -0.5029 -0.5653
  717MOL0     O96684  -0.871  10.721   5.613 -0.1474  0.1144  0.3139
  717MOL0     C96685  -1.005  10.691   5.635 -0.0735 -1.1135 -0.7226
  717MOL0     C96686  -1.055  10.684   5.767  0.0473 -0.0412 -0.2238
  717MOL0     C96687  -1.190  10.650   5.793 -0.6448  0.8258  0.0232
  717MOL0     C96688  -1.242  10.652   5.934 -0.0618  0.1384 -0.4403
  717MOL0     C96689  -1.269  10.604   5.685  0.1865  0.5278  0.1668
  717MOL0     C96690  -1.407  10.567   5.695  0.4578  0.3453  0.4940
  717MOL0     O96691  -1.480  10.632   5.786  0.7306 -0.3044 -0.2934
  717MOL0     C96692  -1.615  10.604   5.785  0.4245 -0.4226 -0.1450
  717MOL0     C96693  -1.713  10.695   5.745  0.4208  0.2258  0.0283
  717MOL0     C96694  -1.855  10.665   5.754  1.0740  0.1600 -0.1694
  717MOL0     C96695  -1.894  10.533   5.802  0.4939  0.5189 -0.2939
  717MOL0     O96696  -2.026  10.501   5.805  0.2982 -0.0125  0.8028
  717MOL0     C96697  -2.075  10.445   5.928  0.4081 -0.5960  0.7010
  717MOL0     C96698  -2.228  10.417   5.907 -0.0149 -0.3399 -0.1754
  717MOL0     C96699  -2.265  10.306   5.807 -0.2963 -0.6639 -0.5229
  717MOL0     C96700  -2.413  10.288   5.772 -1.1201 -0.8723 -0.9843
  717MOL0     C96701  -2.412  10.237   5.628  0.1117  0.5222 -0.0999
  717MOL0     C96702  -2.544  10.189   5.582  0.6880 -0.2578  0.2737
  717MOL0     C96703  -2.555  10.124   5.437  0.1886 -0.7487 -0.2476
  717MOL0     C96704  -2.644  10.007   5.444 -0.8326 -0.3107  0.5621
  717MOL0    Cl96705  -2.798  10.067   5.523 -0.0305  0.2786  0.2062
  717MOL0     C96706  -1.796  10.443   5.834 -0.1765 -0.0001 -1.0412
  717MOL0     C96707  -1.664  10.476   5.829 -0.0157 -0.5633 -0.1433
  717MOL0     O96708  -1.445  10.481   5.601  0.7000 -0.5858 -0.3886
  717MOL0     C96709  -1.217  10.616   5.558 -0.6108  0.3175  0.1326
  717MOL0     C96710  -1.093  10.671   5.532 -0.3215 -0.8463 -0.4759
  717MOL0     N96711  -0.306  10.760   5.731 -0.4944  0.3284  0.0279
  717MOL0     N96712  -0.187  10.714   5.758 -0.3834 -0.5936 -0.6457
  717MOL0     C96713   1.064  10.720   5.321 -0.8608 -0.0214  0.0400
  717MOL0     C96714   1.198  10.758   5.327  0.1720  0.0805  0.1826
  717MOL0     C96715   1.570  10.888   5.522  0.3940 -0.0934  0.1012
  717MOL0     C96716   1.651  10.882   5.407  0.2901  0.0657 -0.0737
  717MOL0     C96717   1.789  10.886   5.418 -0.0100  0.0417 -0.1734
  717MOL0     C96718   1.851  10.880   5.543  0.1703 -0.6596 -0.2962
  717MOL0     O96719   1.984  10.885   5.563  0.3148 -0.1795 -0.1086
  717MOL0     C96720   2.070  10.860   5.450 -0.0659  1.0163 -0.4549
  717MOL0     C96721   2.217  10.839   5.520  0.0159 -0.2303 -0.2333
  717MOL0     C96722   2.269  10.968   5.586  0.1519 -0.2748 -0.2263
  717MOL0     C96723   2.389  10.957   5.675  0.2792 -0.2050 -0.3624
  717MOL0     C96724   2.507  10.895   5.618 -0.2656  0.4911 -0.4556
  717MOL0     C96725   2.611  10.842   5.581 -0.9392  0.1619  0.2750
  717MOL0     C96726   1.764  10.893   5.656 -1.2556  0.7097 -0.3612
  717MOL0     C96727   1.626  10.890   5.648  0.4118  0.3730 -0.5390
  717MOL0     H96728   1.177  11.060   5.485  0.5343  0.8396 -0.0506
  717MOL0     H96729   0.927  11.010   5.441 -0.7628  0.1315 -2.6950
  717MOL0     H96730   0.741  10.925   5.452 -0.4002 -0.0305 -0.1516
  717MOL0     H96731   0.696  10.897   5.287 -0.5800  0.3247  1.1793
  717MOL0     H96732   0.583  10.675   5.382 -1.6330  1.0038 -0.4972
  717MOL0     H96733   0.635  10.740   5.541  2.2150  2.5539 -0.4549
  717MOL0     H96734   0.483  10.938   5.522  1.8441  0.7239 -0.6459
  717MOL0     H96735   0.465  10.900   5.349  2.0632 -1.0503 -1.1922
  717MOL0     H96736   0.333  10.699   5.403  2.0231  3.0795 -2.4942
  717MOL0     H96737   0.379  10.713   5.580  0.5716  0.1496  0.0560
  717MOL0     H96738   0.251  10.953   5.560  1.8595 -0.9925  1.1676
  717MOL0     H96739   0.180  10.885   5.418  2.5914 -1.2494 -1.4747
  717MOL0     H96740   0.177  10.764   5.697 -0.6510  0.1170 -0.1037
  717MOL0     H96741   0.047  10.843   5.611  0.6443  1.1186  0.1663
  717MOL0     H96742   0.052  10.642   5.438 -0.5498  3.2718  0.3058
  717MOL0     H96743   0.176  10.569   5.556 -0.5128 -1.6159  0.6231
  717MOL0     H96744   0.011  10.551   5.724 -1.1524  1.1682  0.9101
  717MOL0     H96745  -0.042  10.474   5.579 -0.9004 -0.3544  1.7682
  717MOL0     H96746  -0.215  10.677   5.435 -1.6773 -1.6897 -0.1762
  717MOL0     H96747  -0.438  10.925   5.526 -0.7931  0.6821  0.5999
  717MOL0     H96748  -0.457  10.777   5.424 -3.8786 -3.0639  0.6792
  717MOL0     H96749  -0.668  10.853   5.542 -2.0922 -0.5174  1.1709
  717MOL0     H96750  -0.593  10.838   5.702  0.4603  2.1294 -0.6881
  717MOL0     H96751  -0.566  10.583   5.671 -0.3149  0.5491  2.0846
  717MOL0     H96752  -0.648  10.605   5.514 -1.6571  1.2415  0.1036
  717MOL0     H96753  -0.762  10.669   5.786  0.9444 -0.5050 -0.5780
  717MOL0     H96754  -0.810  10.539   5.680  0.4483 -0.4316 -3.1548
  717MOL0     H96755  -0.990  10.718   5.847  0.4499 -1.3100  0.0050
  717MOL0     H96756  -1.312  10.571   5.955 -1.7015  1.3445 -0.9941
  717MOL0     H96757  -1.153  10.654   5.996 -0.6629 -0.4149  0.4553
  717MOL0     H96758  -1.292  10.749   5.946  0.3515  0.3549 -0.4639
  717MOL0     H96759  -1.684  10.794   5.711 -2.9362  0.8737 -1.3163
  717MOL0     H96760  -1.921  10.748   5.732  1.9741  0.8331 -0.4169
  717MOL0     H96761  -2.015  10.359   5.956 -1.3300 -2.1740 -0.2176
  717MOL0     H96762  -2.078  10.526   6.002  1.5396  0.7621 -0.6552
  717MOL0     H96763  -2.281  10.394   6.000  1.0498  4.1274  1.7986
  717MOL0     H96764  -2.268  10.514   5.877  0.0323  0.6228  2.6140
  717MOL0     H96765  -2.231  10.212   5.851 -1.6081 -1.4034 -1.0043
  717MOL0     H96766  -2.210  10.336   5.718  0.9052  0.4301  0.5403
  717MOL0     H96767  -2.451  10.205   5.831 -0.3305 -0.9104 -0.5157
  717MOL0     H96768  -2.468  10.381   5.788 -0.3058 -0.3676 -1.0613
  717MOL0     H96769  -2.341  10.154   5.614 -0.6184  0.2784 -2.8864
  717MOL0     H96770  -2.384  10.311   5.552 -0.8874  2.1852  1.0868
  717MOL0     H96771  -2.569  10.106   5.649 -0.2634  0.3096  0.6389
  717MOL0     H96772  -2.620  10.267   5.592  1.1564  0.0519  1.5081
  717MOL0     H96773  -2.454  10.103   5.401  1.1680  1.4094  1.0123
  717MOL0     H96774  -2.603  10.200   5.374  0.4330 -1.1892 -0.9706
  717MOL0     H96775  -2.601   9.920   5.494 -0.1947 -1.4044 -1.7676
  717MOL0     H96776  -2.670   9.971   5.344  0.2170 -0.5563  0.3717
  717MOL0     H96777  -1.818  10.340   5.861  0.3913 -0.5473 -2.5551
  717MOL0     H96778  -1.587  10.403   5.854  0.0223 -1.6646 -3.1123
  717MOL0     H96779  -1.278  10.573   5.480 -1.7569  0.9546  0.6611
  717MOL0     H96780  -1.058  10.673   5.429  1.6541 -1.0392  0.1518
  717MOL0     H96781   1.047  10.621   5.281 -1.6769 -0.3863  1.2383
  717MOL0     H96782   1.278  10.697   5.285  0.1366  0.1555  0.0103
  717MOL0     H96783   1.615  10.875   5.305  1.9958  0.4434 -0.7235
  717MOL0     H96784   1.850  10.890   5.328 -2.4382 -0.6064 -1.9370
  717MOL0     H96785   2.032  10.777   5.389  0.3510  2.2633 -2.4874
  717MOL0     H96786   2.080  10.948   5.386  1.6043  4.0498  3.5856
  717MOL0     H96787   2.286  10.786   5.454  2.0402 -1.9032  2.9787
  717MOL0     H96788   2.218  10.761   5.596  1.0571 -0.6638 -0.6728
  717MOL0     H96789   2.190  11.021   5.640  0.6084  1.7535 -1.4501
  717MOL0     H96790   2.296  11.045   5.512 -1.0994  1.4404  1.0163
  717MOL0     H96791   2.365  10.911   5.771  1.2116  0.2445  0.1008
  717MOL0     H96792   2.414  11.060   5.704 -4.9555  1.3391 -0.2131
  717MOL0     H96793   2.707  10.801   5.558 -0.0851  1.4008  1.4778
  717MOL0     H96794   1.806  10.884   5.756 -2.0260 -2.1613 -0.2291
  717MOL0     H96795   1.566  10.901   5.738 -1.5090 -4.4664 -0.9114
  718MOL0     O96796   9.529   1.704   1.809 -0.3880 -0.3679 -0.4444
  718MOL0     C96797   9.532   1.599   1.751  0.1078  0.0100  0.6768
  718MOL0     O96798   9.438   1.551   1.658 -0.1989  0.0869  0.7797
  718MOL0     C96799   9.315   1.609   1.621  0.7537  0.4122 -0.7888
  718MOL0     C96800   9.242   1.565   1.510 -0.0682 -0.0345  0.0871
  718MOL0     C96801   9.117   1.622   1.485  0.5244  0.1858  0.3426
  718MOL0     C96802   9.060   1.729   1.561  0.0135 -0.2122  0.9515
  718MOL0     O96803   8.934   1.799   1.543 -0.5950  0.2374  0.0240
  718MOL0     C96804   8.824   1.713   1.512 -1.1584  0.7819  0.4346
  718MOL0     C96805   8.778   1.628   1.625  0.4056 -0.2781  0.2024
  718MOL0     C96806   8.689   1.715   1.716 -0.6827 -0.0705 -0.2699
  718MOL0     C96807   8.537   1.721   1.673  0.4133  0.4191 -0.1422
  718MOL0     C96808   8.464   1.827   1.747  0.0132  0.4431 -0.0422
  718MOL0     C96809   8.319   1.842   1.705 -0.2462  0.8516  0.3212
  718MOL0     C96810   8.252   1.956   1.787  0.2798 -0.9623 -0.0789
  718MOL0     C96811   8.103   1.996   1.767 -0.2329  0.6075 -0.0407
  718MOL0     N96812   8.013   1.870   1.765  1.0312 -0.6417  0.9064
  718MOL0     C96813   7.969   1.793   1.868  0.1815  0.1466  0.7934
  718MOL0     C96814   7.883   1.702   1.811 -0.4556 -0.5306  0.4320
  718MOL0     C96815   7.801   1.599   1.879 -0.1462 -0.1207  0.3195
  718MOL0     C96816   7.653   1.628   1.864 -0.1532 -0.3005  0.5430
  718MOL0     C96817   7.574   1.594   1.991 -0.2518 -0.6719  0.5775
  718MOL0     C96818   7.427   1.605   1.966  1.1383  0.0872 -0.1472
  718MOL0     O96819   7.383   1.706   1.876  0.1745 -0.1105  1.2948
  718MOL0     C96820   7.291   1.792   1.915 -0.1691  0.5162 -0.2349
  718MOL0     C96821   7.323   1.891   2.018  0.1623 -0.3304 -0.4920
  718MOL0     C96822   7.229   1.969   2.077  0.1588  0.5362  0.0907
  718MOL0     C96823   7.291   2.052   2.184 -0.7371 -0.0867  0.7064
  718MOL0     C96824   7.090   1.966   2.026  0.0274  0.3907 -0.8386
  718MOL0     C96825   6.982   2.052   2.078  0.2278  0.1740  0.2046
  718MOL0     O96826   6.903   2.107   1.982  0.5329 -0.3833  0.3130
  718MOL0     C96827   6.794   2.183   2.015 -1.0077  0.6500  0.7349
  718MOL0     C96828   6.672   2.119   2.034 -0.4970  0.6712  0.1361
  718MOL0     C96829   6.549   2.185   2.069 -1.2780  0.0516 -0.1549
  718MOL0     C96830   6.559   2.329   2.079 -0.1926  0.4084 -0.9119
  718MOL0     O96831   6.457   2.418   2.085  0.3130 -0.2385  0.6697
  718MOL0     C96832   6.334   2.377   2.024  0.4049 -0.6142  0.6872
  718MOL0     C96833   6.241   2.489   1.996  0.4851 -0.1396  0.5930
  718MOL0     C96834   6.199   2.559   2.125 -0.0399  0.1299  0.0704
  718MOL0     C96835   6.148   2.466   2.231 -0.7228 -0.2585  0.1146
  718MOL0     C96836   6.010   2.400   2.200  0.3735 -0.1463  0.1691
  718MOL0     C96837   5.897   2.502   2.160  0.2732  0.1159  0.3664
  718MOL0     C96838   5.760   2.434   2.140  0.0218 -0.0903  0.1721
  718MOL0     C96839   5.670   2.535   2.063 -0.1610  0.2866  0.4591
  718MOL0    Cl96840   5.501   2.485   2.050  0.2282  0.5278  0.4219
  718MOL0     C96841   6.689   2.392   2.065 -0.4241  0.0442  0.3834
  718MOL0     C96842   6.805   2.318   2.034 -0.1788 -0.2894  0.0205
  718MOL0     O96843   6.960   2.055   2.200 -0.1776  0.1662 -0.0218
  718MOL0     C96844   7.060   1.867   1.921 -0.2313  0.5017  0.1398
  718MOL0     C96845   7.158   1.779   1.877 -0.6578  0.2133  0.2500
  718MOL0     N96846   7.867   1.734   1.682  1.3012 -0.4861  1.0324
  718MOL0     N96847   7.945   1.832   1.655  0.4784  0.2883  0.4932
  718MOL0     C96848   9.135   1.766   1.667 -0.0947 -0.7827  0.2012
  718MOL0     C96849   9.260   1.716   1.695 -0.0246 -0.4879 -0.2635
  718MOL0     C96850   9.657   1.519   1.784  0.1461 -0.2866 -0.2028
  718MOL0     C96851   9.672   1.388   1.739 -0.0292 -0.1335 -0.4274
  718MOL0     C96852   9.793   1.318   1.753  0.9281  0.5624 -0.6085
  718MOL0     C96853   9.900   1.374   1.818  0.2950  0.6131 -0.1047
  718MOL0     O96854  10.014   1.300   1.827 -0.0073  0.4261 -0.4973
  718MOL0     C96855  10.139   1.369   1.860  0.5012  0.0169  0.0765
  718MOL0     C96856  10.246   1.279   1.804  0.9805 -0.5497 -0.3019
  718MOL0     C96857  10.394   1.332   1.830 -0.1276  0.1472  0.1385
  718MOL0     C96858  10.507   1.251   1.770 -0.4855 -0.0696  0.2115
  718MOL0     C96859  10.518   1.111   1.824 -0.2765 -0.4216 -0.7600
  718MOL0     C96860  10.539   1.007   1.867  0.1853  0.0854  0.1293
  718MOL0     C96861   9.888   1.500   1.872 -0.0584 -0.4936 -0.1064
  718MOL0     C96862   9.771   1.578   1.850  0.9610  1.1141 -0.3703
  718MOL0     H96863   9.288   1.486   1.450  1.5957  0.3694  0.7624
  718MOL0     H96864   9.055   1.597   1.399 -2.7736 -3.4161  3.3727
  718MOL0     H96865   8.747   1.777   1.467 -1.9052 -1.1131 -1.0969
  718MOL0     H96866   8.846   1.643   1.431 -1.7684  2.3289 -1.1459
  718MOL0     H96867   8.710   1.555   1.579 -1.1794  2.0759 -1.4491
  718MOL0     H96868   8.859   1.575   1.677 -0.3562 -0.0283  1.6938
  718MOL0     H96869   8.685   1.669   1.816  0.6325 -0.1958 -0.2572
  718MOL0     H96870   8.725   1.818   1.726 -0.2043 -0.1418 -1.1651
  718MOL0     H96871   8.523   1.743   1.567  0.8718  0.3109 -0.2306
  718MOL0     H96872   8.491   1.623   1.687  0.9872  0.1123 -0.3350
  718MOL0     H96873   8.469   1.805   1.854  1.7823 -1.5400 -0.4669
  718MOL0     H96874   8.513   1.922   1.725  1.7382 -0.6949 -1.3178
  718MOL0     H96875   8.312   1.866   1.598  0.1792 -0.7671 -0.1028
  718MOL0     H96876   8.257   1.755   1.725  0.1956  0.5470  0.3816
  718MOL0     H96877   8.270   1.928   1.891 -2.0385 -0.9035  0.4027
  718MOL0     H96878   8.317   2.041   1.766  2.2306 -1.7017  2.5026
  718MOL0     H96879   8.096   2.047   1.670 -0.9991 -0.1518 -0.3994
  718MOL0     H96880   8.073   2.062   1.848  0.2717  1.3057 -0.4093
  718MOL0     H96881   7.992   1.803   1.974  0.9822 -2.7915  0.9856
  718MOL0     H96882   7.825   1.501   1.836  0.0048 -0.8211  1.9198
  718MOL0     H96883   7.833   1.598   1.984  1.3736 -0.6591 -0.1255
  718MOL0     H96884   7.614   1.561   1.787  0.6201 -0.1542  0.0163
  718MOL0     H96885   7.637   1.735   1.851  0.0714 -0.5242 -1.9097
  718MOL0     H96886   7.594   1.665   2.071  1.2268 -0.8072  0.3458
  718MOL0     H96887   7.599   1.496   2.032 -0.4852 -1.2153 -0.5346
  718MOL0     H96888   7.383   1.634   2.062  1.5658 -1.0987  0.4392
  718MOL0     H96889   7.381   1.509   1.941 -3.7031  1.9473  0.5825
  718MOL0     H96890   7.423   1.898   2.059 -0.7837  1.5633  1.7542
  718MOL0     H96891   7.217   2.095   2.252 -0.1003  0.3150  1.1591
  718MOL0     H96892   7.356   1.985   2.241  0.5667 -0.1927 -0.8288
  718MOL0     H96893   7.343   2.141   2.148  1.6147 -2.4128 -2.1030
  718MOL0     H96894   6.668   2.011   2.024 -2.3915  0.7956 -1.1139
  718MOL0     H96895   6.454   2.133   2.077 -1.0554 -0.4538 -0.7261
  718MOL0     H96896   6.355   2.335   1.925  0.1873 -0.0990  0.4202
  718MOL0     H96897   6.285   2.297   2.080 -1.1133 -0.2270 -0.0157
  718MOL0     H96898   6.298   2.552   1.927  1.3939 -2.2812 -0.7168
  718MOL0     H96899   6.147   2.464   1.945  1.1716 -0.4475 -0.5625
  718MOL0     H96900   6.123   2.635   2.106 -2.7113 -2.1126  1.0356
  718MOL0     H96901   6.291   2.606   2.160 -0.1348  0.1643  0.2773
  718MOL0     H96902   6.219   2.387   2.259  1.1288  1.2026 -0.3148
  718MOL0     H96903   6.144   2.531   2.319  0.6937 -1.4154  1.0684
  718MOL0     H96904   5.978   2.351   2.292  0.0942 -0.1073  0.0950
  718MOL0     H96905   6.018   2.321   2.125 -2.6599 -0.3332 -0.1032
  718MOL0     H96906   5.882   2.587   2.226  0.2791  1.2198 -1.0115
  718MOL0     H96907   5.924   2.543   2.062  3.2205  1.1934  1.5416
  718MOL0     H96908   5.698   2.419   2.229 -2.4455 -0.0748 -1.4463
  718MOL0     H96909   5.763   2.339   2.086 -0.0536  0.0649 -0.1063
  718MOL0     H96910   5.717   2.547   1.964  0.5484 -2.1944  0.4215
  718MOL0     H96911   5.681   2.633   2.110  1.7754  1.0977 -1.4842
  718MOL0     H96912   6.697   2.500   2.076  1.5929  0.3685 -2.9002
  718MOL0     H96913   6.902   2.368   2.038  1.1606 -2.6109 -0.9949
  718MOL0     H96914   6.962   1.858   1.876  0.3632 -2.2090 -0.7734
  718MOL0     H96915   7.132   1.696   1.812 -0.0388 -0.9145  1.3830
  718MOL0     H96916   9.091   1.837   1.736 -1.1592 -1.5197  0.3087
  718MOL0     H96917   9.309   1.749   1.786 -0.1281 -2.0662  0.3929
  718MOL0     H96918   9.594   1.337   1.684  0.1806  1.0130 -1.8586
  718MOL0     H96919   9.812   1.226   1.698 -0.3154 -0.4553  0.5822
  718MOL0     H96920  10.144   1.462   1.803  1.2667  0.8467  1.4557
  718MOL0     H96921  10.147   1.379   1.968 -1.6582 -3.9106  0.8036
  718MOL0     H96922  10.223   1.276   1.697 -2.1999  0.3175  0.2492
  718MOL0     H96923  10.232   1.182   1.851  1.8183  0.1455  1.4603
  718MOL0     H96924  10.402   1.333   1.939  1.3046 -1.4022  0.0751
  718MOL0     H96925  10.396   1.437   1.800 -1.1717  0.5327  1.3279
  718MOL0     H96926  10.597   1.308   1.796 -0.5777 -0.1528  0.7367
  718MOL0     H96927  10.492   1.260   1.662  0.0391 -1.1681  0.0377
  718MOL0     H96928  10.569   0.912   1.906 -2.6442 -0.8654  0.2497
  718MOL0     H96929   9.966   1.552   1.927 -1.8193  0.7652  1.3141
  718MOL0     H96930   9.759   1.681   1.881 -3.0212  0.4927  0.6343
  719MOL0     O96931   0.516   3.107   1.183  0.0796 -1.0181  0.4165
  719MOL0     C96932   0.583   3.127   1.282  0.4503 -0.1466  0.4639
  719MOL0     O96933   0.532   3.144   1.412  0.3758  0.2328 -0.0208
  719MOL0     C96934   0.395   3.148   1.430  0.5874  0.2118  0.6133
  719MOL0     C96935   0.326   3.027   1.430 -0.6031  0.0153 -0.5268
  719MOL0     C96936   0.185   3.033   1.450 -0.6186  0.0344  0.0666
  719MOL0     C96937   0.117   3.154   1.479 -0.3652  0.3473  0.6102
  719MOL0     O96938  -0.022   3.146   1.495 -0.2033 -0.0310  0.1240
  719MOL0     C96939  -0.106   3.257   1.511 -0.0495  0.0376 -0.4487
  719MOL0     C96940  -0.243   3.198   1.556 -0.3581  0.0548  0.1235
  719MOL0     C96941  -0.340   3.322   1.575 -0.3830  1.3258  0.3189
  719MOL0     C96942  -0.474   3.274   1.628 -0.6300  0.1840 -0.5369
  719MOL0     C96943  -0.586   3.387   1.608 -0.1271  0.1675  0.0520
  719MOL0     C96944  -0.715   3.319   1.632  0.3016 -0.0794 -0.0137
  719MOL0     C96945  -0.826   3.424   1.647 -0.5702  0.8605 -0.3129
  719MOL0     C96946  -0.954   3.352   1.690  0.1053  0.5589 -0.2885
  719MOL0     N96947  -1.081   3.422   1.692 -0.1365 -0.3935  0.9992
  719MOL0     C96948  -1.134   3.477   1.803 -0.1894 -0.0733  0.5038
  719MOL0     C96949  -1.262   3.507   1.764 -0.2839  0.2235 -0.6120
  719MOL0     C96950  -1.368   3.578   1.841 -0.7551  0.0807  0.9088
  719MOL0     C96951  -1.498   3.492   1.844 -0.2436 -0.3704  0.7673
  719MOL0     C96952  -1.606   3.583   1.893  0.1613  1.2071 -0.1125
  719MOL0     C96953  -1.725   3.507   1.944 -1.0481  0.2682  0.3989
  719MOL0     O96954  -1.765   3.430   1.828  0.0947 -0.3955  0.6835
  719MOL0     C96955  -1.884   3.369   1.833 -0.2104 -0.0650 -0.5266
  719MOL0     C96956  -1.941   3.324   1.711  0.0904 -0.7931 -0.4037
  719MOL0     C96957  -2.063   3.260   1.709  0.2500  0.2407 -0.0153
  719MOL0     C96958  -2.117   3.194   1.580 -0.2813  0.1943  0.8868
  719MOL0     C96959  -2.125   3.225   1.838  0.2211 -0.4066  0.2058
  719MOL0     C96960  -2.249   3.157   1.848 -0.4401  0.2026  0.8621
  719MOL0     O96961  -2.350   3.230   1.798 -0.0598  0.7936  0.0113
  719MOL0     C96962  -2.468   3.165   1.767 -0.6326  0.4573 -0.9777
  719MOL0     C96963  -2.515   3.168   1.635 -0.6338 -0.3213 -0.0070
  719MOL0     C96964  -2.632   3.102   1.614  0.1396  0.0499  0.0346
  719MOL0     C96965  -2.719   3.049   1.709 -0.9873 -0.0411 -0.5121
  719MOL0     O96966  -2.842   2.994   1.685 -0.3342  0.4628 -0.0995
  719MOL0     C96967  -2.881   2.947   1.560  0.0608 -0.1356 -0.0115
  719MOL0     C96968  -3.028   2.922   1.581  0.2275 -0.1644 -0.4080
  719MOL0     C96969  -3.113   2.884   1.457  0.4355 -0.3887  0.2764
  719MOL0     C96970  -3.096   2.744   1.407  0.2639  0.0795  0.6702
  719MOL0     C96971  -3.151   2.714   1.264 -0.9434 -0.8844 -0.3791
  719MOL0     C96972  -3.303   2.732   1.263 -0.4137  0.3691  0.0397
  719MOL0     C96973  -3.352   2.727   1.117  0.1098 -0.3857 -0.0168
  719MOL0     C96974  -3.506   2.751   1.124 -0.3770  0.2251  0.5066
  719MOL0    Cl96975  -3.565   2.609   1.207  0.2764  0.1616  0.3611
  719MOL0     C96976  -2.667   3.062   1.841  0.5955 -0.3166  0.4922
  719MOL0     C96977  -2.550   3.110   1.868 -0.5829 -0.6286  0.7591
  719MOL0     O96978  -2.252   3.042   1.898  0.6631  0.2975  0.5703
  719MOL0     C96979  -2.069   3.272   1.953  1.2806 -0.5288 -0.0618
  719MOL0     C96980  -1.959   3.345   1.946  0.6496  0.3579 -1.0011
  719MOL0     N96981  -1.277   3.464   1.632 -0.0666 -0.3730  0.7595
  719MOL0     N96982  -1.163   3.425   1.586 -0.0130 -0.4254  1.0574
  719MOL0     C96983   0.189   3.273   1.470 -0.2824  0.0419  0.0348
  719MOL0     C96984   0.326   3.274   1.452  0.0142 -0.0395 -0.2443
  719MOL0     C96985   0.729   3.123   1.264 -0.2924 -0.4345 -0.0050
  719MOL0     C96986   0.791   3.068   1.144 -0.0128 -0.0264  0.1641
  719MOL0     C96987   0.932   3.064   1.140 -0.3693  0.8053 -0.3673
  719MOL0     C96988   1.010   3.124   1.246 -0.4770 -0.0352 -0.5300
  719MOL0     O96989   1.147   3.147   1.239  0.7179  0.0874 -0.4433
  719MOL0     C96990   1.222   3.170   1.116 -0.8215 -0.0639 -0.2263
  719MOL0     C96991   1.197   3.309   1.058 -0.0118 -0.2537  0.0138
  719MOL0     C96992   1.269   3.339   0.923 -0.1863  0.0304  1.0053
  719MOL0     C96993   1.249   3.486   0.866 -0.5052  0.1540 -0.0181
  719MOL0     C96994   1.120   3.507   0.797  0.5654  0.6447 -0.9432
  719MOL0     C96995   1.015   3.532   0.746 -0.5967  0.3188  0.2584
  719MOL0     C96996   0.953   3.183   1.361  0.2812  0.0055 -0.2021
  719MOL0     C96997   0.812   3.182   1.364 -0.5592  0.1215 -0.4421
  719MOL0     H96998   0.381   2.935   1.414 -0.3364 -0.0312  0.5299
  719MOL0     H96999   0.131   2.940   1.437  0.2431 -0.2526 -1.8017
  719MOL0     H97000  -0.070   3.316   1.596 -0.8956 -0.9362  0.6161
  719MOL0     H97001  -0.120   3.314   1.419 -1.3655 -0.3934 -0.5262
  719MOL0     H97002  -0.268   3.122   1.483 -0.2887 -0.7285  0.8934
  719MOL0     H97003  -0.226   3.144   1.650 -2.5679 -2.2302 -0.6867
  719MOL0     H97004  -0.310   3.394   1.651 -1.7756 -1.4827  3.8127
  719MOL0     H97005  -0.334   3.370   1.477  1.8540  2.1698  0.8100
  719MOL0     H97006  -0.497   3.188   1.564  1.3205 -1.1436  0.4104
  719MOL0     H97007  -0.481   3.230   1.728 -2.4479  1.1193 -0.2103
  719MOL0     H97008  -0.574   3.471   1.677 -1.1535 -1.1683  1.9546
  719MOL0     H97009  -0.591   3.417   1.503  0.3429  0.8604  0.2232
  719MOL0     H97010  -0.740   3.253   1.548  1.8844  0.5163 -0.9926
  719MOL0     H97011  -0.702   3.267   1.727  3.6474  0.2665 -0.1595
  719MOL0     H97012  -0.794   3.490   1.728  0.8806 -1.5097  1.1475
  719MOL0     H97013  -0.840   3.461   1.545  1.4105 -1.1503 -1.4129
  719MOL0     H97014  -0.930   3.317   1.791 -3.1128 -1.2760 -0.0159
  719MOL0     H97015  -0.964   3.264   1.625 -1.7510 -1.6803  2.7734
  719MOL0     H97016  -1.089   3.490   1.901  0.6483  0.9899  0.0047
  719MOL0     H97017  -1.321   3.591   1.939  1.7692  0.3335 -0.2288
  719MOL0     H97018  -1.378   3.677   1.796  1.0559 -0.4245 -0.7650
  719MOL0     H97019  -1.473   3.410   1.913  1.0098 -0.5190  0.1614
  719MOL0     H97020  -1.520   3.459   1.742  0.2291  4.2433 -1.0555
  719MOL0     H97021  -1.643   3.640   1.807 -1.0111  0.9628  0.2202
  719MOL0     H97022  -1.566   3.659   1.961  2.1802  0.3141 -0.2369
  719MOL0     H97023  -1.798   3.582   1.977  1.2047  1.3868  3.3179
  719MOL0     H97024  -1.688   3.445   2.026  1.4836 -0.2910 -1.0717
  719MOL0     H97025  -1.883   3.344   1.621  0.0836  3.0206  0.2417
  719MOL0     H97026  -2.064   3.098   1.578 -2.2668 -0.9435 -0.1245
  719MOL0     H97027  -2.226   3.194   1.568 -0.1533  0.0437 -0.4634
  719MOL0     H97028  -2.077   3.253   1.497 -0.1765 -3.3193 -1.8180
  719MOL0     H97029  -2.457   3.212   1.554 -1.0477 -2.5909 -1.6428
  719MOL0     H97030  -2.671   3.106   1.513  1.5242 -2.2170 -0.6644
  719MOL0     H97031  -2.865   3.016   1.476  1.9820 -2.0516 -1.3202
  719MOL0     H97032  -2.830   2.854   1.534 -0.6427 -0.1230 -1.5562
  719MOL0     H97033  -3.041   2.854   1.666 -0.9503  3.2868  2.4473
  719MOL0     H97034  -3.071   3.015   1.620  0.8120 -0.3047  0.6259
  719MOL0     H97035  -3.109   2.953   1.372  0.4005 -1.3585 -0.5414
  719MOL0     H97036  -3.218   2.889   1.486 -1.0155 -3.9824 -3.3158
  719MOL0     H97037  -2.988   2.733   1.395  0.1488 -1.2231  0.6976
  719MOL0     H97038  -3.125   2.661   1.472  3.5750 -0.4298  1.6983
  719MOL0     H97039  -3.123   2.612   1.234  0.4572 -0.2224 -1.4065
  719MOL0     H97040  -3.103   2.781   1.193 -1.3911 -0.4938 -0.3213
  719MOL0     H97041  -3.348   2.653   1.325 -0.2489  1.0336  1.0412
  719MOL0     H97042  -3.322   2.829   1.311  2.0000  1.0279 -0.2152
  719MOL0     H97043  -3.335   2.633   1.064  1.8747  1.0800 -2.2267
  719MOL0     H97044  -3.297   2.803   1.061 -1.0113  1.1365  0.8553
  719MOL0     H97045  -3.549   2.749   1.023  1.1915 -0.5448 -0.1864
  719MOL0     H97046  -3.544   2.842   1.171 -0.8145 -0.6766  1.9747
  719MOL0     H97047  -2.744   3.019   1.904 -0.2038 -1.9263 -1.4439
  719MOL0     H97048  -2.504   3.104   1.966  2.4419  1.7180 -0.3395
  719MOL0     H97049  -2.108   3.253   2.053 -1.4027 -0.3873 -1.0090
  719MOL0     H97050  -1.918   3.372   2.043  3.1404  0.6311 -2.0533
  719MOL0     H97051   0.134   3.361   1.499 -1.9088 -0.9015 -0.0406
  719MOL0     H97052   0.392   3.360   1.456 -0.8793  0.7553 -1.6154
  719MOL0     H97053   0.722   3.037   1.066  0.0420 -0.5589  0.3210
  719MOL0     H97054   0.987   3.022   1.056 -0.0346  0.1435  0.1672
  719MOL0     H97055   1.329   3.148   1.117 -0.9323 -0.6482 -0.6799
  719MOL0     H97056   1.184   3.100   1.041 -0.5694 -0.1647 -0.2629
  719MOL0     H97057   1.243   3.369   1.137 -0.3167  0.3205 -0.2373
  719MOL0     H97058   1.090   3.329   1.048 -0.0078  1.0101  1.8236
  719MOL0     H97059   1.257   3.270   0.839  1.4485  2.1373 -1.0890
  719MOL0     H97060   1.376   3.344   0.943  0.3746  0.1108 -1.7134
  719MOL0     H97061   1.328   3.525   0.800 -0.4938  0.8540  0.3958
  719MOL0     H97062   1.253   3.548   0.956  1.9973  1.1989 -0.7395
  719MOL0     H97063   0.916   3.562   0.720  0.0849  0.9668 -1.8319
  719MOL0     H97064   1.005   3.222   1.448 -1.2099  0.2376  0.6261
  719MOL0     H97065   0.764   3.240   1.442 -2.5668 -1.3085 -0.5340
  720MOL0     O97066   7.557   2.491   9.038  0.1956 -0.2395  0.4875
  720MOL0     C97067   7.594   2.417   8.943 -0.3252 -0.4748  0.0388
  720MOL0     O97068   7.512   2.350   8.851 -0.0950  0.6036  0.4156
  720MOL0     C97069   7.374   2.356   8.847 -0.0317 -0.4082 -1.2450
  720MOL0     C97070   7.298   2.471   8.884 -0.4445 -0.4493 -0.9428
  720MOL0     C97071   7.153   2.464   8.884  0.4954 -0.2874  0.3727
  720MOL0     C97072   7.091   2.348   8.832  0.8113  0.7303 -0.5461
  720MOL0     O97073   6.954   2.327   8.810 -0.3823 -0.1921 -0.0970
  720MOL0     C97074   6.862   2.381   8.909  0.8223  1.2330 -0.0893
  720MOL0     C97075   6.761   2.265   8.938 -0.2389  0.2797  0.0944
  720MOL0     C97076   6.688   2.229   8.799  0.0193 -0.1385 -0.3475
  720MOL0     C97077   6.539   2.266   8.815  0.4656 -0.3580 -0.7904
  720MOL0     C97078   6.461   2.210   8.700 -0.0556 -0.2272 -0.0937
  720MOL0     C97079   6.311   2.232   8.717 -0.2339  1.1566  1.1177
  720MOL0     C97080   6.241   2.182   8.839  0.8466  0.0858  0.2151
  720MOL0     C97081   6.098   2.234   8.838  0.3886 -0.8387 -1.0857
  720MOL0     N97082   6.016   2.169   8.940  0.1019  0.6790  1.5035
  720MOL0     C97083   5.935   2.064   8.916 -0.4912  0.7544 -0.3030
  720MOL0     C97084   5.860   2.051   9.022  0.5222 -0.0758 -0.3209
  720MOL0     C97085   5.748   1.941   9.018  0.3184  0.3370  0.3106
  720MOL0     C97086   5.681   1.926   9.152  0.6305  0.5684 -0.4980
  720MOL0     C97087   5.592   1.800   9.158  0.8440 -0.2479 -0.4820
  720MOL0     C97088   5.512   1.799   9.293 -0.6962  0.3144  0.0468
  720MOL0     O97089   5.458   1.668   9.315 -0.4416  0.2660 -0.0567
  720MOL0     C97090   5.341   1.652   9.388 -0.2946 -0.4373  0.0018
  720MOL0     C97091   5.259   1.540   9.378 -0.1557 -0.3331 -0.5722
  720MOL0     C97092   5.137   1.533   9.445  0.1234 -0.6059 -0.1293
  720MOL0     C97093   5.064   1.407   9.435  0.1687  0.7236 -0.2093
  720MOL0     C97094   5.095   1.645   9.523 -0.5647  0.4724  0.1541
  720MOL0     C97095   4.968   1.637   9.593  0.3906  0.6181  0.5074
  720MOL0     O97096   4.977   1.705   9.714  0.0481  0.4082  0.4584
  720MOL0     C97097   4.866   1.710   9.793  0.7083  0.1314  0.5167
  720MOL0     C97098   4.841   1.829   9.863  0.9882 -0.2258  0.2922
  720MOL0     C97099   4.736   1.837   9.952  0.1674  0.2881  0.0006
  720MOL0     C97100   4.647   1.738   9.970  0.2419 -0.1650  0.0315
  720MOL0     O97101   4.531   1.745  10.044  0.7023 -0.0522  0.2485
  720MOL0     C97102   4.517   1.839  10.144  0.3797 -0.4910  0.1984
  720MOL0     C97103   4.403   1.806  10.238 -0.3583  0.0436 -0.1170
  720MOL0     C97104   4.271   1.793  10.147  0.2330  0.0542  0.2829
  720MOL0     C97105   4.147   1.757  10.240 -0.7427 -0.2516 -0.5318
  720MOL0     C97106   4.024   1.719  10.163 -0.3484 -0.1159 -0.6642
  720MOL0     C97107   3.935   1.838  10.105 -0.1143 -0.2516  0.3055
  720MOL0     C97108   3.848   1.893  10.225  0.4038  0.3201 -0.6295
  720MOL0     C97109   3.764   2.017  10.182  0.0650  0.2705 -0.3896
  720MOL0    Cl97110   3.700   2.098  10.326 -0.1399  0.1792  0.2269
  720MOL0     C97111   4.676   1.618   9.902  0.2797 -0.3656  1.2587
  720MOL0     C97112   4.781   1.600   9.823 -0.0691 -0.3739  0.0583
  720MOL0     O97113   4.865   1.597   9.541  0.0251 -0.2268  0.2120
  720MOL0     C97114   5.187   1.745   9.549 -1.1151 -0.8966 -0.0197
  720MOL0     C97115   5.306   1.744   9.478 -0.1343  0.3510  0.2656
  720MOL0     N97116   5.896   2.139   9.116 -0.4178 -0.5291  0.7086
  720MOL0     N97117   5.995   2.211   9.067  0.0619  0.0912 -0.6477
  720MOL0     C97118   7.173   2.238   8.800 -0.0248  0.2086  0.0098
  720MOL0     C97119   7.314   2.244   8.808  0.0182 -0.0802  0.7417
  720MOL0     C97120   7.740   2.372   8.942  0.7236  0.7119  0.6975
  720MOL0     C97121   7.788   2.276   8.845  0.0577  0.0621 -0.7282
  720MOL0     C97122   7.924   2.235   8.857 -0.4876  0.5610  0.1391
  720MOL0     C97123   8.013   2.274   8.954 -1.4345  0.3815  0.8920
  720MOL0     O97124   8.146   2.226   8.946  0.2443  0.0032 -0.3190
  720MOL0     C97125   8.221   2.238   9.070  0.2683 -0.1955  0.6126
  720MOL0     C97126   8.360   2.168   9.057 -0.3850 -0.2881 -0.1716
  720MOL0     C97127   8.475   2.232   8.964 -0.0705  0.5730  0.1603
  720MOL0     C97128   8.604   2.151   8.970 -0.1332  0.1289  0.4054
  720MOL0     C97129   8.685   2.207   9.078 -0.3983 -0.2868 -0.5804
  720MOL0     C97130   8.755   2.266   9.159  0.6127  0.4989 -0.5529
  720MOL0     C97131   7.971   2.369   9.044  1.0217  0.2720 -0.7436
  720MOL0     C97132   7.833   2.420   9.035  0.6004 -0.1019 -0.3331
  720MOL0     H97133   7.350   2.559   8.920 -0.5488 -2.1628  4.1002
  720MOL0     H97134   7.093   2.554   8.893  0.7502  0.0546 -1.1340
  720MOL0     H97135   6.914   2.407   9.002  0.2482  0.2017  0.5323
  720MOL0     H97136   6.814   2.471   8.869 -1.7719  0.8402  1.9340
  720MOL0     H97137   6.803   2.167   8.962 -1.4085 -0.4106 -0.5517
  720MOL0     H97138   6.684   2.288   9.012 -1.4162 -1.9413 -0.3435
  720MOL0     H97139   6.725   2.296   8.721  1.0613  0.2250  0.4390
  720MOL0     H97140   6.704   2.124   8.772 -1.7425 -1.1107  2.0527
  720MOL0     H97141   6.505   2.212   8.904 -1.2213  0.2134 -1.0591
  720MOL0     H97142   6.531   2.374   8.823 -0.9919 -0.5052  0.0047
  720MOL0     H97143   6.506   2.262   8.614 -1.0084 -1.3209 -1.2764
  720MOL0     H97144   6.481   2.103   8.698  1.3923 -0.0122  1.0151
  720MOL0     H97145   6.307   2.341   8.716  2.5568  1.3666 -1.3956
  720MOL0     H97146   6.262   2.186   8.630  0.8609 -1.9945  2.0266
  720MOL0     H97147   6.244   2.073   8.844  0.4967 -0.1022 -2.3307
  720MOL0     H97148   6.294   2.222   8.926  1.3600  2.0971 -0.9725
  720MOL0     H97149   6.044   2.213   8.746 -2.3434  2.9820 -0.6310
  720MOL0     H97150   6.103   2.343   8.853 -0.1182 -0.8914 -0.4804
  720MOL0     H97151   5.927   1.999   8.829 -0.5733  3.0053 -2.0919
  720MOL0     H97152   5.666   1.976   8.955  1.7182 -0.2860 -1.9650
  720MOL0     H97153   5.789   1.844   8.986 -1.1262 -0.6215  1.2546
  720MOL0     H97154   5.627   2.019   9.172 -2.0825 -1.0233  0.0435
  720MOL0     H97155   5.759   1.918   9.229  0.4437  0.2187 -0.3421
  720MOL0     H97156   5.656   1.711   9.150  0.2251 -0.9557  1.7324
  720MOL0     H97157   5.519   1.807   9.077 -0.6623  2.1135  0.9474
  720MOL0     H97158   5.427   1.867   9.304 -0.5309  0.2365  2.1451
  720MOL0     H97159   5.584   1.823   9.372  1.4784 -0.7668 -1.4907
  720MOL0     H97160   5.288   1.469   9.301  2.5636  1.3832 -1.2779
  720MOL0     H97161   5.048   1.375   9.538  0.0563  2.0321  0.1934
  720MOL0     H97162   4.964   1.425   9.394  0.0424 -0.2331 -0.3307
  720MOL0     H97163   5.114   1.334   9.371  1.7868 -0.9468  2.7511
  720MOL0     H97164   4.908   1.910   9.833 -0.5792  2.5891  3.7306
  720MOL0     H97165   4.724   1.936   9.995 -3.4005  1.3598 -2.9057
  720MOL0     H97166   4.612   1.852  10.198 -0.1809 -1.3023  1.4192
  720MOL0     H97167   4.507   1.935  10.092  3.0946 -1.2224 -1.8706
  720MOL0     H97168   4.431   1.716  10.294 -0.0454  0.8868  1.1117
  720MOL0     H97169   4.384   1.875  10.320  2.6314 -0.0379  0.7348
  720MOL0     H97170   4.285   1.714  10.074  3.0462  1.6506 -1.0585
  720MOL0     H97171   4.262   1.879  10.080  0.6034 -0.4202 -0.3902
  720MOL0     H97172   4.170   1.676  10.310 -1.5621  1.4151  1.8047
  720MOL0     H97173   4.132   1.844  10.305 -0.5387 -0.6116  0.0064
  720MOL0     H97174   3.965   1.655  10.229  0.1881  1.4685  1.4613
  720MOL0     H97175   4.051   1.661  10.074  2.5561 -0.0826  0.0974
  720MOL0     H97176   4.005   1.915  10.070  1.5333 -1.7276  0.1821
  720MOL0     H97177   3.873   1.802  10.023 -1.1561 -1.2006  1.4794
  720MOL0     H97178   3.912   1.937  10.302 -1.3898 -0.9767  1.7319
  720MOL0     H97179   3.784   1.821  10.276 -1.5909  1.5110 -1.3145
  720MOL0     H97180   3.675   1.990  10.124 -0.9538 -0.3847  1.4189
  720MOL0     H97181   3.816   2.095  10.125  0.2814 -0.6612 -1.5212
  720MOL0     H97182   4.595   1.546   9.903  2.0126 -2.4680 -0.7950
  720MOL0     H97183   4.804   1.506   9.774  3.3745 -1.8707  3.9012
  720MOL0     H97184   5.165   1.830   9.613 -1.0447  0.5440 -1.8038
  720MOL0     H97185   5.378   1.822   9.502 -0.5817  0.9381 -0.2548
  720MOL0     H97186   7.123   2.150   8.761 -0.1295  0.5107 -0.5550
  720MOL0     H97187   7.369   2.155   8.777  1.4541  1.0060  0.0637
  720MOL0     H97188   7.728   2.234   8.764 -1.6805 -1.4741  1.2422
  720MOL0     H97189   7.962   2.169   8.781  0.5901  0.6251  0.6118
  720MOL0     H97190   8.243   2.339   9.104  2.7083 -1.5187  3.5120
  720MOL0     H97191   8.159   2.189   9.147 -1.3252  1.8624  0.7158
  720MOL0     H97192   8.348   2.065   9.023  1.7180 -0.4524 -0.5834
  720MOL0     H97193   8.392   2.170   9.162  0.2916  2.7300 -0.3486
  720MOL0     H97194   8.492   2.337   8.990  0.2162  0.5871 -0.0854
  720MOL0     H97195   8.434   2.232   8.863 -0.4561  1.4619  0.3079
  720MOL0     H97196   8.653   2.180   8.877 -1.9236 -0.1161 -0.6542
  720MOL0     H97197   8.582   2.044   8.977 -2.5975  0.2610 -2.9173
  720MOL0     H97198   8.826   2.312   9.224 -0.8827  2.2195 -0.0593
  720MOL0     H97199   8.042   2.413   9.114  1.3434 -0.6242 -0.4954
  720MOL0     H97200   7.800   2.491   9.110 -0.0739 -1.6286  0.8784
  721MOL0     O97201   6.786   5.969   7.892  0.0223 -0.2026 -0.4686
  721MOL0     C97202   6.866   5.943   7.986  0.7764  0.5149 -0.5475
  721MOL0     O97203   6.831   5.921   8.110  0.0501  0.4501  0.4986
  721MOL0     C97204   6.702   5.921   8.160 -0.2074 -0.5280 -0.1589
  721MOL0     C97205   6.658   6.032   8.237  0.3248  0.3406  0.3627
  721MOL0     C97206   6.520   6.055   8.240 -0.2888 -0.1001 -1.0590
  721MOL0     C97207   6.425   5.968   8.201  0.1693 -0.4055  0.1089
  721MOL0     O97208   6.298   6.001   8.219  0.0252  0.1724 -0.6868
  721MOL0     C97209   6.210   5.982   8.109  0.5894  0.4608  0.1775
  721MOL0     C97210   6.090   6.074   8.123 -1.0321 -0.9784  0.9527
  721MOL0     C97211   5.974   6.018   8.036  0.1048  0.2764  0.4481
  721MOL0     C97212   5.872   5.928   8.110  0.6137  0.4756 -0.3994
  721MOL0     C97213   5.777   5.851   8.014 -0.4893  0.3647 -0.7853
  721MOL0     C97214   5.681   5.764   8.105 -0.2814 -0.2367  0.3168
  721MOL0     C97215   5.605   5.673   8.010  1.2984  1.1735  0.0916
  721MOL0     C97216   5.675   5.542   7.975  1.1062 -0.1699  0.0087
  721MOL0     N97217   5.591   5.467   7.875 -0.4177 -0.6484 -0.6164
  721MOL0     C97218   5.507   5.350   7.885 -0.0858 -0.0123 -0.3707
  721MOL0     C97219   5.451   5.339   7.762 -0.1994 -1.0338 -0.0430
  721MOL0     C97220   5.373   5.220   7.711 -0.5715 -0.9935 -0.0201
  721MOL0     C97221   5.229   5.263   7.687  0.0024 -0.5522  0.5885
  721MOL0     C97222   5.143   5.157   7.613  0.3433 -0.6008 -0.2263
  721MOL0     C97223   5.008   5.203   7.552 -0.3747 -0.0961  0.3021
  721MOL0     O97224   4.908   5.188   7.648  0.2678 -0.4111  0.1266
  721MOL0     C97225   4.774   5.214   7.619  0.0480 -0.6448  0.6906
  721MOL0     C97226   4.719   5.232   7.490 -0.3153 -0.3792 -0.6597
  721MOL0     C97227   4.582   5.256   7.476  0.1902  0.1446  0.0482
  721MOL0     C97228   4.535   5.246   7.332  0.7755  0.5450  0.4838
  721MOL0     C97229   4.503   5.269   7.592  0.6542  0.2055  0.7944
  721MOL0     C97230   4.357   5.291   7.585 -0.0610  0.0173  1.1587
  721MOL0     O97231   4.282   5.248   7.692  0.2683 -0.5146 -0.0124
  721MOL0     C97232   4.145   5.269   7.682  1.4078 -0.3668  0.4834
  721MOL0     C97233   4.060   5.150   7.682 -0.5499 -0.0728  0.8456
  721MOL0     C97234   3.922   5.158   7.674 -0.2250 -0.4107  0.9198
  721MOL0     C97235   3.855   5.281   7.670  0.2164 -0.1458  0.7731
  721MOL0     O97236   3.724   5.291   7.652 -0.1227 -0.2167 -0.6096
  721MOL0     C97237   3.654   5.420   7.643  0.3185  0.6210 -1.3130
  721MOL0     C97238   3.506   5.396   7.625 -0.3355 -0.1016  0.1940
  721MOL0     C97239   3.415   5.518   7.610  0.0576  0.7271  0.2993
  721MOL0     C97240   3.277   5.474   7.550  0.1571 -0.5028  0.0413
  721MOL0     C97241   3.168   5.586   7.549  0.8122  0.1642  0.5542
  721MOL0     C97242   3.039   5.528   7.486 -0.1235 -0.2109  0.2634
  721MOL0     C97243   3.037   5.513   7.336  0.4748 -1.0996 -0.0913
  721MOL0     C97244   3.021   5.650   7.262 -0.3007 -0.2984 -0.0004
  721MOL0    Cl97245   2.846   5.706   7.258  0.2062  0.2882  0.6308
  721MOL0     C97246   3.932   5.394   7.679 -0.8299  0.0767 -0.1235
  721MOL0     C97247   4.075   5.392   7.689 -0.3754  0.0175 -0.2661
  721MOL0     O97248   4.316   5.363   7.494 -0.2756 -0.1407  0.2030
  721MOL0     C97249   4.560   5.255   7.719 -0.3671  0.5268  0.6409
  721MOL0     C97250   4.693   5.222   7.732  0.0963 -0.0670 -0.7236
  721MOL0     N97251   5.507   5.432   7.679  0.7197 -1.2364 -0.1332
  721MOL0     N97252   5.588   5.511   7.747  0.4239  1.1703 -0.2831
  721MOL0     C97253   6.470   5.846   8.137 -0.0194  0.2086  0.4044
  721MOL0     C97254   6.605   5.828   8.123 -0.3727  0.7314 -0.4444
  721MOL0     C97255   7.018   5.939   7.956 -0.2269 -0.2955 -0.0645
  721MOL0     C97256   7.068   5.982   7.831 -0.3826 -0.3176  0.0212
  721MOL0     C97257   7.203   5.966   7.797  0.4333 -0.4616 -0.3355
  721MOL0     C97258   7.291   5.903   7.885 -0.6287 -0.4942  1.9420
  721MOL0     O97259   7.418   5.882   7.829  0.1353 -0.4628  0.4404
  721MOL0     C97260   7.512   5.825   7.924 -0.4538  0.3421 -0.0790
  721MOL0     C97261   7.659   5.826   7.884 -0.1644  0.2998  0.6932
  721MOL0     C97262   7.692   5.769   7.742  0.8817 -0.3762 -0.2699
  721MOL0     C97263   7.651   5.621   7.724 -0.2825 -0.2385  0.0472
  721MOL0     C97264   7.696   5.519   7.819 -0.0828 -0.0189  0.6298
  721MOL0     C97265   7.732   5.424   7.888 -0.7024  0.4287  0.4200
  721MOL0     C97266   7.245   5.862   8.007 -1.1050 -0.7060  0.3784
  721MOL0     C97267   7.109   5.870   8.038  0.0535 -0.6221 -1.0013
  721MOL0     H97268   6.727   6.111   8.266 -0.6351  0.4560  2.5487
  721MOL0     H97269   6.488   6.153   8.275 -0.2156  0.4032 -2.3544
  721MOL0     H97270   6.254   6.008   8.013 -1.5570 -1.1435 -1.3125
  721MOL0     H97271   6.172   5.880   8.102  3.0837 -0.4211 -2.4032
  721MOL0     H97272   6.051   6.080   8.225 -2.2799  0.4080  0.4388
  721MOL0     H97273   6.129   6.167   8.080  0.5414 -2.8384 -1.9448
  721MOL0     H97274   5.925   6.105   7.993 -0.7425  0.3110  1.4428
  721MOL0     H97275   6.019   5.963   7.953  0.9298 -0.2229  1.2093
  721MOL0     H97276   5.917   5.859   8.181 -1.0042 -0.4060 -0.1692
  721MOL0     H97277   5.812   5.995   8.173  2.9866  3.0061 -0.6792
  721MOL0     H97278   5.714   5.919   7.955  0.0648  0.7166 -0.9745
  721MOL0     H97279   5.837   5.791   7.945 -1.4499 -2.1114  0.3913
  721MOL0     H97280   5.733   5.702   8.178 -1.0111 -0.4325  0.6829
  721MOL0     H97281   5.608   5.826   8.157  0.4286  0.0274  1.0201
  721MOL0     H97282   5.505   5.657   8.053  1.9965  0.7518  1.6296
  721MOL0     H97283   5.590   5.724   7.915  1.7972 -0.4095 -0.8760
  721MOL0     H97284   5.687   5.493   8.072  1.2769  0.9978  0.5939
  721MOL0     H97285   5.771   5.577   7.938 -0.3417  1.6435 -2.2885
  721MOL0     H97286   5.505   5.286   7.972 -2.0598  1.1417  0.4996
  721MOL0     H97287   5.412   5.182   7.617  1.1577  0.7446 -0.0693
  721MOL0     H97288   5.381   5.144   7.789 -1.0056 -0.4346  0.5815
  721MOL0     H97289   5.224   5.350   7.622 -3.9988 -1.7460 -1.0040
  721MOL0     H97290   5.190   5.298   7.783  1.7869 -0.2985  1.2706
  721MOL0     H97291   5.138   5.068   7.675  0.2842 -0.7260 -0.4090
  721MOL0     H97292   5.191   5.125   7.520 -0.8477 -1.2220 -0.6524
  721MOL0     H97293   4.990   5.153   7.457 -0.2893  1.9950 -0.8600
  721MOL0     H97294   5.016   5.309   7.526 -1.8002  0.3719  1.6421
  721MOL0     H97295   4.792   5.223   7.409  0.8145 -0.0037  0.2924
  721MOL0     H97296   4.608   5.188   7.274 -3.5898 -2.7024 -2.5029
  721MOL0     H97297   4.446   5.181   7.329  0.6714  0.6739  0.7439
  721MOL0     H97298   4.508   5.339   7.281 -0.1623  1.7201  2.9554
  721MOL0     H97299   4.111   5.054   7.686 -0.2878  0.0569  0.6179
  721MOL0     H97300   3.860   5.069   7.668 -1.5802  0.4181  1.8583
  721MOL0     H97301   3.669   5.479   7.734  1.1588 -1.2937 -0.1383
  721MOL0     H97302   3.690   5.471   7.553  2.0131 -3.6307 -3.3229
  721MOL0     H97303   3.485   5.341   7.532 -3.3817  0.9138  0.1722
  721MOL0     H97304   3.468   5.332   7.704  1.2497 -0.0380  1.0558
  721MOL0     H97305   3.466   5.602   7.563  0.9670 -0.1054 -0.2315
  721MOL0     H97306   3.388   5.549   7.711 -1.1362  0.2367  0.1550
  721MOL0     H97307   3.295   5.432   7.450 -0.8258  0.4718 -0.5726
  721MOL0     H97308   3.233   5.401   7.618  0.7664 -2.6748 -1.7489
  721MOL0     H97309   3.203   5.670   7.488  0.6063 -0.3943 -0.3432
  721MOL0     H97310   3.141   5.621   7.649 -0.7346 -1.2261  0.6730
  721MOL0     H97311   3.025   5.433   7.540 -0.2460  0.5792  1.6886
  721MOL0     H97312   2.952   5.582   7.525 -1.1873 -3.0507  2.2009
  721MOL0     H97313   2.960   5.442   7.304 -0.6890 -0.0082  0.2469
  721MOL0     H97314   3.134   5.475   7.303  0.4352 -0.1558 -1.3467
  721MOL0     H97315   3.047   5.642   7.156 -3.9150 -3.2946 -0.8656
  721MOL0     H97316   3.094   5.718   7.307  0.5380 -1.6047  0.6585
  721MOL0     H97317   3.887   5.493   7.684 -2.6907 -0.4649 -3.1136
  721MOL0     H97318   4.139   5.480   7.696  0.9113 -0.7484 -1.7861
  721MOL0     H97319   4.489   5.260   7.801 -2.4001  1.1526 -1.0467
  721MOL0     H97320   4.748   5.200   7.824 -0.8648 -0.2033 -0.1662
  721MOL0     H97321   6.402   5.767   8.109 -0.1492  0.8840 -1.3108
  721MOL0     H97322   6.653   5.748   8.067  2.1589  2.1261 -0.4402
  721MOL0     H97323   7.002   6.041   7.767  0.6005  1.2324  0.3827
  721MOL0     H97324   7.246   6.008   7.707 -2.6374  2.4971 -0.5911
  721MOL0     H97325   7.513   5.889   8.012  0.8544  0.9377 -0.5100
  721MOL0     H97326   7.480   5.722   7.945  0.3311 -0.2663 -1.6511
  721MOL0     H97327   7.725   5.765   7.945  0.4881  2.2110  1.9817
  721MOL0     H97328   7.701   5.927   7.881  0.3248  0.2550 -4.6691
  721MOL0     H97329   7.800   5.777   7.728  0.6864  2.0095 -0.9195
  721MOL0     H97330   7.636   5.833   7.673 -0.6563 -1.6911 -0.3063
  721MOL0     H97331   7.683   5.585   7.626 -0.1609  0.2591 -0.0998
  721MOL0     H97332   7.542   5.618   7.734 -0.4789  0.0748 -1.7959
  721MOL0     H97333   7.779   5.343   7.940 -2.8362 -1.4186 -0.3618
  721MOL0     H97334   7.310   5.811   8.078  0.6204  0.3853 -0.3681
  721MOL0     H97335   7.071   5.831   8.131  0.9399  0.9961  0.0993
  722MOL0     O97336   3.387   9.121   9.833 -0.3624 -0.1805  0.6611
  722MOL0     C97337   3.402   9.224   9.899 -0.1779 -1.1961  0.4870
  722MOL0     O97338   3.314   9.325   9.917  0.0818 -0.4235 -0.4439
  722MOL0     C97339   3.195   9.308   9.851 -0.6059  0.0428  0.4098
  722MOL0     C97340   3.101   9.219   9.885 -0.0322  0.0105 -0.3319
  722MOL0     C97341   2.984   9.198   9.803 -0.0657  1.1222  0.4995
  722MOL0     C97342   2.958   9.278   9.697 -1.2239  0.3225 -0.3047
  722MOL0     O97343   2.842   9.252   9.626  0.0733  0.0227  0.1158
  722MOL0     C97344   2.780   9.358   9.548  0.0220 -0.3734  0.3033
  722MOL0     C97345   2.640   9.322   9.505 -0.1301 -0.1423 -0.4014
  722MOL0     C97346   2.566   9.457   9.473  0.3029  0.2448  0.3070
  722MOL0     C97347   2.453   9.422   9.380 -0.0362 -0.7384  0.3707
  722MOL0     C97348   2.341   9.528   9.368 -0.9682  1.0527  0.4095
  722MOL0     C97349   2.264   9.560   9.494  0.2990 -0.0360  0.0020
  722MOL0     C97350   2.129   9.638   9.474  0.5052 -0.3254  0.2583
  722MOL0     C97351   2.154   9.771   9.396 -0.4002 -0.4589 -0.5217
  722MOL0     N97352   2.032   9.850   9.395 -0.3627 -0.4438 -0.3012
  722MOL0     C97353   2.040   9.989   9.377  0.2296  0.8097  0.4135
  722MOL0     C97354   1.910  10.029   9.348 -0.4473  0.2173 -0.7325
  722MOL0     C97355   1.845  10.164   9.337 -1.0203  0.4407 -0.2428
  722MOL0     C97356   1.694  10.185   9.329  0.1454 -0.3634  0.1000
  722MOL0     C97357   1.639  10.123   9.193  0.6358  0.3306 -0.7996
  722MOL0     C97358   1.484  10.160   9.175 -0.7712  0.1044  0.9000
  722MOL0     O97359   1.455  10.303   9.174  0.1532  0.2941 -0.2023
  722MOL0     C97360   1.355  10.350   9.095  0.2624 -0.6505  0.1142
  722MOL0     C97361   1.374  10.470   9.035  0.7190 -0.4246  0.7945
  722MOL0     C97362   1.266  10.529   8.962 -0.8134 -0.3759  0.4741
  722MOL0     C97363   1.296  10.672   8.911  0.4134  0.1171  0.0024
  722MOL0     C97364   1.141  10.464   8.944 -0.8238 -0.9989  0.4211
  722MOL0     C97365   1.023  10.523   8.866 -0.1613  0.1671  0.1942
  722MOL0     O97366   0.911  10.439   8.860  0.3687  0.3051  0.6748
  722MOL0     C97367   0.799  10.489   8.805  0.5698 -0.3418  0.0185
  722MOL0     C97368   0.734  10.596   8.869 -0.5709 -1.0596 -0.0967
  722MOL0     C97369   0.603  10.635   8.825  0.0958 -0.5600  0.9464
  722MOL0     C97370   0.544  10.571   8.708 -0.5448 -0.0231 -0.8651
  722MOL0     O97371   0.431  10.613   8.642  0.1387  0.9218  0.0261
  722MOL0     C97372   0.357  10.725   8.694 -0.0353  0.0960 -0.4101
  722MOL0     C97373   0.280  10.680   8.826 -0.8085 -0.0953 -0.6923
  722MOL0     C97374   0.232  10.800   8.907 -0.2033  0.2251  0.0051
  722MOL0     C97375   0.154  10.750   9.024  0.1415 -0.2758 -0.3780
  722MOL0     C97376   0.118  10.872   9.113 -0.4191 -0.6854 -0.3597
  722MOL0     C97377  -0.008  10.934   9.049  0.2566 -1.5373 -0.1494
  722MOL0     C97378  -0.058  11.047   9.143 -0.3994 -0.1547 -0.1257
  722MOL0     C97379  -0.186  11.106   9.085  0.0835  1.4424 -0.6667
  722MOL0    Cl97380  -0.336  11.007   9.131 -0.2519  0.3058  0.0809
  722MOL0     C97381   0.613  10.471   8.637 -0.8279  0.0162 -0.1799
  722MOL0     C97382   0.738  10.428   8.696  0.8844  0.1053  0.1077
  722MOL0     O97383   1.031  10.633   8.814 -0.6025  0.2350  0.7720
  722MOL0     C97384   1.131  10.339   9.000 -0.2023  0.2324 -0.4290
  722MOL0     C97385   1.240  10.278   9.074  0.3458 -0.7890 -0.0379
  722MOL0     N97386   1.831   9.922   9.354  0.7487  0.1037 -0.5346
  722MOL0     N97387   1.909   9.822   9.382  0.3939  0.4593 -0.2151
  722MOL0     C97388   3.059   9.371   9.656  0.7080 -0.0525 -0.0621
  722MOL0     C97389   3.183   9.374   9.720  0.1226 -0.0950 -0.2954
  722MOL0     C97390   3.533   9.229   9.971  0.2938 -0.4804  0.8342
  722MOL0     C97391   3.554   9.333  10.059  0.2177 -0.0120  0.5292
  722MOL0     C97392   3.674   9.351  10.122 -0.3406 -0.6396  0.2652
  722MOL0     C97393   3.777   9.264  10.102  0.2592 -0.5538  0.6445
  722MOL0     O97394   3.880   9.266  10.191 -0.6268  0.6139  0.1382
  722MOL0     C97395   3.951   9.382  10.211  0.4650 -0.2185  0.1796
  722MOL0     C97396   4.085   9.347  10.272 -0.2681 -0.5946 -0.3465
  722MOL0     C97397   4.179   9.249  10.200 -0.2890 -1.5538 -0.1729
  722MOL0     C97398   4.299   9.191  10.287  0.0474  0.2943  0.0358
  722MOL0     C97399   4.260   9.096  10.388  0.2142 -0.1397  0.4184
  722MOL0     C97400   4.215   9.015  10.470  0.7803 -0.1730  0.1597
  722MOL0     C97401   3.751   9.155  10.016 -0.8080 -0.0427 -0.3419
  722MOL0     C97402   3.635   9.137   9.950 -0.5021 -0.5360  0.2708
  722MOL0     H97403   3.107   9.152   9.970 -1.6529  0.1300 -0.0871
  722MOL0     H97404   2.918   9.118   9.834  1.0588 -0.2082 -0.3847
  722MOL0     H97405   2.778   9.455   9.601  1.2541 -0.2643  0.1608
  722MOL0     H97406   2.845   9.375   9.462 -1.2169  1.2954 -0.3763
  722MOL0     H97407   2.635   9.258   9.417 -0.6007  0.9944 -1.2268
  722MOL0     H97408   2.590   9.265   9.583 -2.6120  0.9271 -1.1261
  722MOL0     H97409   2.538   9.504   9.568 -0.0307 -0.7629  0.7189
  722MOL0     H97410   2.639   9.516   9.417  0.7212 -0.3026  0.2671
  722MOL0     H97411   2.492   9.387   9.285  0.4482 -1.7468  0.9216
  722MOL0     H97412   2.411   9.325   9.409  0.9808 -1.3335 -0.1342
  722MOL0     H97413   2.390   9.621   9.337  1.4396 -0.1298  0.3653
  722MOL0     H97414   2.270   9.501   9.289 -0.7394  2.5381 -0.3248
  722MOL0     H97415   2.242   9.470   9.552 -1.9730 -1.4136 -2.7453
  722MOL0     H97416   2.331   9.618   9.557  1.4073 -3.3535  2.1360
  722MOL0     H97417   2.051   9.579   9.425  3.1911 -2.6059 -1.5686
  722MOL0     H97418   2.093   9.661   9.575 -1.3906 -0.4775 -0.3355
  722MOL0     H97419   2.184   9.753   9.293  1.2930 -0.1738 -0.1021
  722MOL0     H97420   2.238   9.826   9.440 -0.4646  0.1244 -1.1085
  722MOL0     H97421   2.127  10.053   9.386  0.7349 -0.0958  2.9502
  722MOL0     H97422   1.886  10.218   9.422 -3.3142  1.3129  0.3812
  722MOL0     H97423   1.875  10.228   9.253 -2.2316  0.0727 -0.9884
  722MOL0     H97424   1.685  10.294   9.336 -0.5669 -0.3481 -0.8732
  722MOL0     H97425   1.641  10.145   9.416  0.7428 -0.5842  0.3676
  722MOL0     H97426   1.658  10.016   9.193  1.4068  0.4384  0.4282
  722MOL0     H97427   1.703  10.145   9.108  2.1180 -0.9123 -0.0488
  722MOL0     H97428   1.430  10.107   9.255  0.5606 -1.4594  0.8161
  722MOL0     H97429   1.444  10.121   9.080 -0.5965 -0.0687  0.8957
  722MOL0     H97430   1.466  10.526   9.050  0.6174  0.4299 -1.4066
  722MOL0     H97431   1.401  10.700   8.922 -0.0844  2.5137 -0.5933
  722MOL0     H97432   1.285  10.667   8.802 -2.1076  0.8187  0.1659
  722MOL0     H97433   1.228  10.747   8.952  0.2974 -0.0146  0.0490
  722MOL0     H97434   0.767  10.632   8.966  1.2538 -4.1858  0.5984
  722MOL0     H97435   0.550  10.702   8.891 -2.2402 -2.4094  1.1221
  722MOL0     H97436   0.412  10.820   8.689  0.5767 -0.3159 -3.5043
  722MOL0     H97437   0.274  10.741   8.624 -0.3038 -0.3677 -0.2020
  722MOL0     H97438   0.198  10.610   8.806 -2.3908  0.8739  1.8685
  722MOL0     H97439   0.345  10.615   8.885 -1.6464  1.1629  1.7320
  722MOL0     H97440   0.164  10.862   8.847 -2.9991 -0.2789  2.4596
  722MOL0     H97441   0.319  10.857   8.938  1.1401 -2.6863  1.9501
  722MOL0     H97442   0.066  10.702   8.980  0.7104  0.7226 -2.7639
  722MOL0     H97443   0.202  10.668   9.079 -0.3721 -0.4762 -0.2221
  722MOL0     H97444   0.197  10.947   9.113  1.6627 -2.6711  1.8759
  722MOL0     H97445   0.108  10.843   9.218  1.5033 -1.5768 -0.3809
  722MOL0     H97446   0.017  10.972   8.949 -1.3639 -0.7085 -0.2750
  722MOL0     H97447  -0.092  10.865   9.041 -0.7651 -0.3072 -0.4542
  722MOL0     H97448   0.010  11.132   9.156 -0.0509 -0.8877  3.9385
  722MOL0     H97449  -0.067  11.005   9.243 -0.1121 -0.6753 -0.3163
  722MOL0     H97450  -0.184  11.102   8.975 -0.2644 -1.4418 -0.6430
  722MOL0     H97451  -0.201  11.210   9.116 -2.3654  0.2872  2.6187
  722MOL0     H97452   0.564  10.423   8.554 -3.0001  0.4656  0.7809
  722MOL0     H97453   0.792  10.342   8.658  0.2875 -0.5541  0.7174
  722MOL0     H97454   1.041  10.279   8.994  0.1438 -0.1931 -1.7159
  722MOL0     H97455   1.228  10.178   9.117  0.3975 -0.9515 -0.3972
  722MOL0     H97456   3.043   9.426   9.564  0.7640 -0.9118 -0.5983
  722MOL0     H97457   3.251   9.456   9.697 -2.0514  1.9436  0.1596
  722MOL0     H97458   3.470   9.399  10.077 -1.5542 -0.5749 -4.2558
  722MOL0     H97459   3.667   9.432  10.195 -2.9032  0.4745 -1.0730
  722MOL0     H97460   3.960   9.438  10.117  0.8248 -0.2059  0.2224
  722MOL0     H97461   3.901   9.453  10.278  1.7887  0.9577 -0.0340
  722MOL0     H97462   4.060   9.310  10.372 -1.3763 -0.4636 -0.5629
  722MOL0     H97463   4.135   9.444  10.281 -0.7823 -0.4375  1.0335
  722MOL0     H97464   4.229   9.301  10.118 -3.9845 -0.4922 -1.9695
  722MOL0     H97465   4.124   9.169  10.149  2.6756 -2.3767 -2.3835
  722MOL0     H97466   4.341   9.281  10.331 -0.0400  3.2422 -5.1563
  722MOL0     H97467   4.378   9.151  10.222 -0.7764  0.8816 -1.3851
  722MOL0     H97468   4.164   8.965  10.550  1.9843 -1.9157 -0.1169
  722MOL0     H97469   3.826   9.077  10.012 -0.4961 -0.1144  3.4481
  722MOL0     H97470   3.641   9.050   9.885  3.4267 -0.2684  0.0018
  723MOL0     O97471   6.795   4.909  10.546 -0.2809  0.3866 -0.0366
  723MOL0     C97472   6.793   4.874  10.665 -0.6210 -0.2212 -0.2139
  723MOL0     O97473   6.684   4.832  10.733 -0.2533 -0.2745 -0.2384
  723MOL0     C97474   6.547   4.859  10.708  0.5997 -0.6686  0.6255
  723MOL0     C97475   6.497   4.915  10.594 -0.0060 -0.1670  0.0814
  723MOL0     C97476   6.361   4.941  10.577 -0.6191 -0.4617  0.5850
  723MOL0     C97477   6.265   4.889  10.667 -0.6396  0.6812  0.8008
  723MOL0     O97478   6.134   4.914  10.645 -0.0455  0.0227 -0.0120
  723MOL0     C97479   6.048   4.897  10.758 -0.4493  0.3123 -0.5686
  723MOL0     C97480   5.903   4.910  10.715 -0.2009 -1.4337  0.5244
  723MOL0     C97481   5.847   5.046  10.662 -0.5307 -0.0849  0.0505
  723MOL0     C97482   5.715   5.035  10.574 -0.7672  0.3001  0.3253
  723MOL0     C97483   5.662   5.179  10.549  0.1345 -0.7982  0.0437
  723MOL0     C97484   5.521   5.173  10.495 -1.0286  0.2647  0.1408
  723MOL0     C97485   5.517   5.116  10.350  0.2483  0.7862  0.4279
  723MOL0     C97486   5.598   5.207  10.253 -0.2625 -0.2377 -0.0646
  723MOL0     N97487   5.525   5.332  10.230 -0.9114  0.9422  0.3096
  723MOL0     C97488   5.392   5.334  10.218 -0.1998 -0.3417  0.5256
  723MOL0     C97489   5.368   5.464  10.192  0.0512  0.3920  0.6594
  723MOL0     C97490   5.235   5.528  10.139 -0.2394  0.6442 -0.3465
  723MOL0     C97491   5.148   5.417  10.069  0.4281 -0.1168 -0.1175
  723MOL0     C97492   5.036   5.472   9.995  0.1054 -0.0780 -0.4013
  723MOL0     C97493   4.953   5.374   9.913  1.2112  0.1656  0.0024
  723MOL0     O97494   4.883   5.267   9.978 -0.1561 -0.1509 -0.6884
  723MOL0     C97495   4.746   5.273  10.001 -0.2543  0.3738  0.1899
  723MOL0     C97496   4.669   5.384  10.009  0.0512 -0.3349 -0.5168
  723MOL0     C97497   4.533   5.374  10.022  0.1301  0.1527 -0.9544
  723MOL0     C97498   4.457   5.506  10.014  0.2067 -0.8544  0.4383
  723MOL0     C97499   4.461   5.253  10.047  0.0328 -0.2495  0.3028
  723MOL0     C97500   4.318   5.236  10.091  0.0933  0.9059 -0.1234
  723MOL0     O97501   4.303   5.153  10.190 -0.1070 -0.0136 -0.0469
  723MOL0     C97502   4.183   5.107  10.239 -0.4100 -0.3124 -0.6729
  723MOL0     C97503   4.194   5.070  10.373 -0.0087 -0.5013  0.3263
  723MOL0     C97504   4.086   5.005  10.435  0.3683 -0.1073  0.5815
  723MOL0     C97505   3.962   4.996  10.369 -0.4827  0.5347 -0.2735
  723MOL0     O97506   3.855   4.936  10.426  0.5775  0.3500  0.9725
  723MOL0     C97507   3.721   4.990  10.396  0.3107  0.8298  0.3913
  723MOL0     C97508   3.619   4.972  10.512 -0.1739 -0.2079  0.0028
  723MOL0     C97509   3.473   4.992  10.451 -0.4206  0.4437 -0.0987
  723MOL0     C97510   3.360   5.028  10.548  0.2419 -0.0647  0.1095
  723MOL0     C97511   3.227   5.035  10.482  0.4176  0.2492 -0.6090
  723MOL0     C97512   3.122   5.038  10.596 -0.1233 -0.8018  0.0093
  723MOL0     C97513   2.992   5.061  10.535  0.7462  0.1957 -0.2844
  723MOL0     C97514   2.873   5.010  10.621  0.6662 -0.2921  0.1088
  723MOL0    Cl97515   2.865   4.835  10.643 -0.7977  0.2374  0.2285
  723MOL0     C97516   3.953   5.039  10.237  0.5000 -0.0699 -0.8583
  723MOL0     C97517   4.062   5.095  10.173  0.8515  0.0586  0.0110
  723MOL0     O97518   4.235   5.321  10.060 -0.1150 -0.7239  0.7678
  723MOL0     C97519   4.545   5.138  10.034  0.0115  1.4511 -0.4657
  723MOL0     C97520   4.680   5.149  10.010  0.1597 -0.1546  0.8052
  723MOL0     N97521   5.486   5.537  10.197  0.4048  0.3017  0.4582
  723MOL0     N97522   5.576   5.452  10.239 -0.1978 -0.0741  0.6463
  723MOL0     C97523   6.318   4.842  10.789  0.3426 -0.0593  1.0073
  723MOL0     C97524   6.451   4.831  10.808 -0.9902  0.2989 -0.6686
  723MOL0     C97525   6.929   4.879  10.737 -0.2903  0.7351 -0.1070
  723MOL0     C97526   7.046   4.915  10.669  0.2210 -0.1163 -0.9776
  723MOL0     C97527   7.176   4.928  10.735  0.8197 -1.1138 -0.1101
  723MOL0     C97528   7.190   4.894  10.867  0.7563  0.0008  0.1048
  723MOL0     O97529   7.300   4.912  10.951 -0.0557 -0.4767  0.3660
  723MOL0     C97530   7.433   4.917  10.884 -0.2283  1.2775  0.6388
  723MOL0     C97531   7.549   4.871  10.975  0.9155  0.8313 -0.3735
  723MOL0     C97532   7.509   4.751  11.063 -0.8393  0.0284  0.8110
  723MOL0     C97533   7.644   4.688  11.104  0.1960  0.2808  0.0299
  723MOL0     C97534   7.616   4.547  11.155  0.2910 -0.1933 -0.3959
  723MOL0     C97535   7.596   4.432  11.178  0.2898  0.5219 -0.8472
  723MOL0     C97536   7.078   4.855  10.935  0.9987  0.1571  0.4026
  723MOL0     C97537   6.954   4.847  10.870 -0.3354 -0.0574  0.2907
  723MOL0     H97538   6.565   4.956  10.520 -1.8513  1.2980 -0.8809
  723MOL0     H97539   6.332   5.003  10.493  0.1184 -0.5628  0.2464
  723MOL0     H97540   6.058   4.795  10.796  4.1226  0.7172 -0.1564
  723MOL0     H97541   6.056   4.971  10.838 -0.1165  0.9003 -1.1463
  723MOL0     H97542   5.890   4.856  10.620  0.8271  2.3143 -1.9635
  723MOL0     H97543   5.848   4.868  10.799 -0.3195  0.0629  1.2052
  723MOL0     H97544   5.833   5.115  10.746  0.4877 -0.1386  0.2660
  723MOL0     H97545   5.924   5.079  10.591 -1.9710 -2.3688 -2.7836
  723MOL0     H97546   5.734   4.982  10.480  1.2398 -1.5951  1.7074
  723MOL0     H97547   5.645   4.980  10.638 -2.0562  2.4200  0.8331
  723MOL0     H97548   5.661   5.246  10.635 -0.1858 -0.5107 -0.1832
  723MOL0     H97549   5.724   5.229  10.474 -2.7667  1.6040 -0.9449
  723MOL0     H97550   5.456   5.114  10.560 -3.2420  0.2691 -1.9130
  723MOL0     H97551   5.482   5.275  10.493 -0.9179  0.3041 -0.1123
  723MOL0     H97552   5.559   5.015  10.355 -3.2858 -1.0426 -2.2881
  723MOL0     H97553   5.414   5.099  10.319 -0.4037 -1.0863  3.3113
  723MOL0     H97554   5.621   5.148  10.164  2.7564 -3.3628  2.4848
  723MOL0     H97555   5.697   5.242  10.282  0.1047  0.1287 -1.6430
  723MOL0     H97556   5.320   5.253  10.210  0.2737 -0.5832 -2.1390
  723MOL0     H97557   5.179   5.561  10.227  1.0605  1.2315  0.2868
  723MOL0     H97558   5.235   5.608  10.065  1.1704  0.7263 -0.2830
  723MOL0     H97559   5.115   5.343  10.143 -1.1553 -0.6565 -1.3099
  723MOL0     H97560   5.213   5.368   9.995  1.0966 -0.5238  0.7140
  723MOL0     H97561   5.073   5.555   9.934  1.0295  0.9254  1.4576
  723MOL0     H97562   4.974   5.515  10.074 -0.8189 -1.7773 -0.1688
  723MOL0     H97563   5.029   5.325   9.850  1.9147 -2.5528  2.7175
  723MOL0     H97564   4.879   5.438   9.865  3.3468  1.3121 -1.9932
  723MOL0     H97565   4.716   5.482   9.998 -0.5317 -0.0599 -0.5963
  723MOL0     H97566   4.516   5.598  10.014 -2.5806  1.0738  2.3760
  723MOL0     H97567   4.377   5.500   9.940 -0.8413 -0.4260  1.5056
  723MOL0     H97568   4.397   5.525  10.103 -1.4077 -0.3420 -0.7178
  723MOL0     H97569   4.283   5.067  10.436 -0.0405  0.3871  0.4250
  723MOL0     H97570   4.097   4.973  10.538  2.3314  0.6990  0.6739
  723MOL0     H97571   3.745   5.095  10.382 -0.6881  0.7976 -2.2340
  723MOL0     H97572   3.688   4.947  10.301  0.3130  1.4197  0.1221
  723MOL0     H97573   3.622   4.878  10.567 -0.9367 -0.6485 -0.6767
  723MOL0     H97574   3.651   5.055  10.575 -1.5198 -0.4829  1.1034
  723MOL0     H97575   3.451   4.903  10.393 -0.5523  1.1706 -1.1850
  723MOL0     H97576   3.469   5.073  10.378  1.9383  0.1536 -0.6024
  723MOL0     H97577   3.349   4.962  10.634 -0.1751 -2.2556 -1.5136
  723MOL0     H97578   3.392   5.117  10.602  0.4093 -2.0048  3.4572
  723MOL0     H97579   3.201   4.949  10.419  1.1261  0.0904 -0.6939
  723MOL0     H97580   3.214   5.122  10.417 -1.6594 -0.4612 -1.2319
  723MOL0     H97581   3.127   4.942  10.649 -0.2053 -0.7804  0.0559
  723MOL0     H97582   3.153   5.115  10.666  3.3213 -1.5278 -0.5298
  723MOL0     H97583   2.978   5.016  10.436 -1.6748  1.8518 -0.7679
  723MOL0     H97584   2.964   5.166  10.530 -0.2937  0.0298  1.5577
  723MOL0     H97585   2.784   5.053  10.574 -0.8073 -2.2380  0.9593
  723MOL0     H97586   2.884   5.059  10.718 -1.7793 -2.3348  1.5521
  723MOL0     H97587   3.864   5.027  10.176 -1.3613  0.9304  1.5155
  723MOL0     H97588   4.068   5.104  10.065 -2.4311 -1.7342 -0.4345
  723MOL0     H97589   4.504   5.039  10.048 -0.1348  1.4023 -1.2254
  723MOL0     H97590   4.748   5.064  10.001  0.1440  0.0299 -1.8034
  723MOL0     H97591   6.251   4.826  10.873 -0.8041 -0.6203  0.0254
  723MOL0     H97592   6.489   4.807  10.907  0.5810 -1.0661 -1.5479
  723MOL0     H97593   7.041   4.936  10.563  0.7449 -0.6842 -1.1200
  723MOL0     H97594   7.265   4.961  10.682  0.4711 -0.2812 -0.1934
  723MOL0     H97595   7.430   4.839  10.808 -2.4276  0.4006  1.5414
  723MOL0     H97596   7.453   5.013  10.837  0.4685  1.7006  1.7462
  723MOL0     H97597   7.585   4.949  11.044 -3.8837  1.7363  1.4642
  723MOL0     H97598   7.628   4.832  10.910 -0.0269 -2.6241  0.3560
  723MOL0     H97599   7.448   4.678  11.009 -1.0990 -0.3103  1.5452
  723MOL0     H97600   7.453   4.785  11.151 -1.3069  0.1581  0.4702
  723MOL0     H97601   7.690   4.747  11.184 -3.1399  2.0688  0.8345
  723MOL0     H97602   7.710   4.681  11.018 -1.1580 -2.0241 -0.9338
  723MOL0     H97603   7.583   4.326  11.192  0.1092  0.4989 -1.1795
  723MOL0     H97604   7.081   4.837  11.042  0.0670 -2.0404  0.1146
  723MOL0     H97605   6.870   4.824  10.934 -0.7538 -2.0334 -0.8832
  724MOL0     O97606   3.867   4.653   2.216  0.1622  0.6230 -0.2046
  724MOL0     C97607   3.833   4.546   2.169  0.3347 -0.2643  0.2725
  724MOL0     O97608   3.703   4.526   2.117 -0.1203  0.1683  0.3883
  724MOL0     C97609   3.613   4.620   2.141  0.1215 -0.6688  0.5237
  724MOL0     C97610   3.620   4.749   2.076  0.9886 -0.2731  0.1314
  724MOL0     C97611   3.507   4.834   2.082 -0.4738  0.9094 -0.5593
  724MOL0     C97612   3.394   4.799   2.153  0.3708  0.2708  0.5860
  724MOL0     O97613   3.291   4.888   2.159  0.6693 -0.6512 -0.0293
  724MOL0     C97614   3.230   4.941   2.033 -1.1060 -0.8447 -0.6070
  724MOL0     C97615   3.151   4.852   1.947  0.1469 -0.1960  0.1938
  724MOL0     C97616   3.006   4.820   1.997 -1.0015  0.3218 -0.4881
  724MOL0     C97617   2.929   4.745   1.891  0.1750 -0.3551  0.2841
  724MOL0     C97618   2.782   4.710   1.924 -0.0734 -0.7433 -0.0509
  724MOL0     C97619   2.710   4.601   1.835 -0.8787 -0.4687 -0.1254
  724MOL0     C97620   2.778   4.465   1.844  0.1362  1.1073 -0.8351
  724MOL0     C97621   2.706   4.347   1.764 -0.3958 -0.1148  0.3684
  724MOL0     N97622   2.569   4.320   1.826  0.4607  0.6138 -0.6106
  724MOL0     C97623   2.553   4.280   1.955 -0.2351 -0.2781 -0.5358
  724MOL0     C97624   2.420   4.275   1.978 -0.9943 -0.1289 -0.1784
  724MOL0     C97625   2.333   4.234   2.097  0.2638  0.3940  0.1368
  724MOL0     C97626   2.195   4.295   2.091 -0.3610 -0.2389  0.1887
  724MOL0     C97627   2.102   4.257   2.202 -0.3882  0.4123 -0.3944
  724MOL0     C97628   2.157   4.278   2.348  0.2879 -0.2666 -0.3727
  724MOL0     O97629   2.071   4.221   2.456  0.3433  0.1442 -0.0178
  724MOL0     C97630   1.943   4.270   2.477 -0.9434 -0.3122  0.4916
  724MOL0     C97631   1.846   4.195   2.538  0.4978 -0.2911  0.9425
  724MOL0     C97632   1.717   4.241   2.562  0.6715 -0.4703  0.2510
  724MOL0     C97633   1.620   4.139   2.621 -0.3287 -0.9262 -0.0785
  724MOL0     C97634   1.676   4.367   2.514  0.1433  0.4223 -0.6368
  724MOL0     C97635   1.539   4.425   2.538  0.5706 -0.5283  0.1805
  724MOL0     O97636   1.505   4.518   2.452 -0.0747 -0.1600  0.2548
  724MOL0     C97637   1.382   4.568   2.429 -0.0150 -0.2566 -0.1658
  724MOL0     C97638   1.361   4.647   2.313 -0.4303  0.5513  0.6542
  724MOL0     C97639   1.233   4.675   2.268  0.5771 -0.4313  0.3924
  724MOL0     C97640   1.116   4.638   2.339  0.6167  0.2032  0.1439
  724MOL0     O97641   0.999   4.678   2.278  0.2520  0.4316 -0.2861
  724MOL0     C97642   0.894   4.708   2.372  1.0427 -0.5300 -0.1916
  724MOL0     C97643   0.825   4.836   2.334  0.7400  0.1893  0.0122
  724MOL0     C97644   0.741   4.815   2.213 -0.5010  0.2162  0.1981
  724MOL0     C97645   0.610   4.892   2.230  0.0095 -0.0584 -0.1063
  724MOL0     C97646   0.521   4.888   2.101  0.1793  1.0159  0.0067
  724MOL0     C97647   0.399   4.974   2.100 -0.0588  0.7727 -0.7656
  724MOL0     C97648   0.298   4.962   2.216  1.0444  0.3044 -0.0184
  724MOL0     C97649   0.163   5.018   2.185 -0.2940  0.3177  0.6951
  724MOL0    Cl97650   0.035   4.972   2.297 -0.3205 -0.0196 -0.1871
  724MOL0     C97651   1.137   4.574   2.466 -0.5875 -1.0096  0.2473
  724MOL0     C97652   1.262   4.528   2.499  0.6744 -0.0632 -0.4921
  724MOL0     O97653   1.476   4.394   2.642 -0.7196 -0.3100  0.1262
  724MOL0     C97654   1.773   4.446   2.456 -0.3335 -0.6147 -0.2015
  724MOL0     C97655   1.907   4.400   2.437 -0.4281  0.0781  0.8227
  724MOL0     N97656   2.356   4.305   1.862  0.2932 -0.0887  0.5857
  724MOL0     N97657   2.444   4.331   1.768  0.5497  0.2208 -0.4448
  724MOL0     C97658   3.385   4.673   2.216  0.3715  0.4310  0.3882
  724MOL0     C97659   3.494   4.579   2.203 -0.2712  0.1322  0.3447
  724MOL0     C97660   3.938   4.446   2.143  0.0724 -0.3166 -0.0503
  724MOL0     C97661   3.905   4.335   2.057  0.0815  0.0623 -0.7240
  724MOL0     C97662   4.001   4.246   2.015 -1.3513  0.6335  0.3860
  724MOL0     C97663   4.136   4.253   2.049 -0.0457 -0.3964  0.1425
  724MOL0     O97664   4.237   4.170   2.007 -0.3236  0.3719 -0.3775
  724MOL0     C97665   4.245   4.147   1.867 -0.9351 -0.4515 -0.4806
  724MOL0     C97666   4.355   4.225   1.790 -0.5328 -0.0891 -0.9650
  724MOL0     C97667   4.446   4.133   1.702  0.3338 -0.2407  0.1097
  724MOL0     C97668   4.537   4.228   1.611 -0.5303 -0.4388 -0.0984
  724MOL0     C97669   4.631   4.138   1.559  0.2876 -0.9842  0.3615
  724MOL0     C97670   4.717   4.065   1.522  0.4691 -1.0710  0.5700
  724MOL0     C97671   4.167   4.356   2.143 -0.4437 -0.0852 -0.1422
  724MOL0     C97672   4.077   4.459   2.184 -0.0434 -0.2625 -0.2937
  724MOL0     H97673   3.708   4.777   2.019 -1.4565  3.1563 -2.3817
  724MOL0     H97674   3.518   4.933   2.038  0.8762  0.4038 -1.4270
  724MOL0     H97675   3.170   5.031   2.054  0.3941 -0.0179  0.3329
  724MOL0     H97676   3.312   4.983   1.974 -0.7498  2.3252  1.8536
  724MOL0     H97677   3.141   4.884   1.843  1.6965 -2.3695 -0.7061
  724MOL0     H97678   3.225   4.771   1.942  2.9595  2.2250 -0.7182
  724MOL0     H97679   3.015   4.745   2.077  1.8578 -1.5369 -2.3663
  724MOL0     H97680   2.955   4.908   2.036 -1.2918  0.7996 -1.9214
  724MOL0     H97681   2.927   4.806   1.800 -0.9972 -1.7412 -0.6763
  724MOL0     H97682   2.972   4.646   1.870  0.2106 -0.6895  1.7907
  724MOL0     H97683   2.772   4.698   2.032 -1.4498  2.8774  0.3527
  724MOL0     H97684   2.714   4.794   1.913  2.8320  2.3443  3.1067
  724MOL0     H97685   2.611   4.597   1.882  0.2730  0.6179  2.6632
  724MOL0     H97686   2.696   4.633   1.731 -3.3699  1.1071  0.5910
  724MOL0     H97687   2.874   4.487   1.796  1.0173  1.2817  0.9352
  724MOL0     H97688   2.797   4.432   1.946 -0.7601 -0.1653 -1.0492
  724MOL0     H97689   2.773   4.262   1.750  2.1683  1.9795 -1.2675
  724MOL0     H97690   2.705   4.390   1.664 -0.2146 -1.1953 -0.1111
  724MOL0     H97691   2.638   4.257   2.019 -2.1206  0.3859  2.3799
  724MOL0     H97692   2.333   4.124   2.104 -1.5644  0.0213 -3.4315
  724MOL0     H97693   2.385   4.277   2.183  1.7956  1.1990 -1.1394
  724MOL0     H97694   2.137   4.277   2.001 -1.4946 -1.0220  1.0469
  724MOL0     H97695   2.212   4.403   2.086 -1.2064 -0.1697 -2.0927
  724MOL0     H97696   2.078   4.151   2.192  0.7938  0.1291 -0.4313
  724MOL0     H97697   2.011   4.316   2.190 -1.3670 -0.6169  1.4537
  724MOL0     H97698   2.164   4.385   2.369 -0.8836  0.1871 -2.0575
  724MOL0     H97699   2.253   4.226   2.353  0.0809 -0.7961 -1.5020
  724MOL0     H97700   1.882   4.094   2.556  1.0527 -0.8090 -2.4612
  724MOL0     H97701   1.640   4.040   2.579 -1.9269 -1.5229  0.5166
  724MOL0     H97702   1.649   4.133   2.726  2.2559  1.5928 -0.5114
  724MOL0     H97703   1.515   4.165   2.605  0.2500  0.4097 -2.1896
  724MOL0     H97704   1.447   4.665   2.249  1.4262 -2.9559  1.8964
  724MOL0     H97705   1.224   4.727   2.173  0.1183 -2.1896 -0.5564
  724MOL0     H97706   0.820   4.628   2.359  0.8814 -0.6974  1.5101
  724MOL0     H97707   0.921   4.724   2.477 -3.7437 -4.4462  2.1043
  724MOL0     H97708   0.761   4.887   2.407 -0.4100  2.9397 -2.7203
  724MOL0     H97709   0.901   4.915   2.327  1.6177 -0.5753  0.6581
  724MOL0     H97710   0.722   4.713   2.179  1.4179  0.3716 -1.5679
  724MOL0     H97711   0.801   4.851   2.129  1.0913 -0.7358  0.8701
  724MOL0     H97712   0.561   4.852   2.319 -1.0167 -0.4271 -0.8138
  724MOL0     H97713   0.621   4.998   2.254 -0.1134 -0.2112  0.6403
  724MOL0     H97714   0.491   4.784   2.086 -0.7472  1.2332  0.2889
  724MOL0     H97715   0.588   4.918   2.020  0.6775  3.9430  1.3780
  724MOL0     H97716   0.424   5.078   2.079 -1.3207  1.9049  2.6198
  724MOL0     H97717   0.348   4.945   2.007 -1.3636  0.6504 -0.0382
  724MOL0     H97718   0.337   4.993   2.313 -2.0587  1.7243  0.9187
  724MOL0     H97719   0.266   4.857   2.223 -0.3021  0.3552 -3.3877
  724MOL0     H97720   0.131   4.981   2.088  1.3943 -0.4822  0.3951
  724MOL0     H97721   0.172   5.126   2.174  1.9828  0.2249  1.1171
  724MOL0     H97722   1.052   4.572   2.533 -2.6286  1.3265 -2.0465
  724MOL0     H97723   1.261   4.477   2.595  2.9175  0.3125 -0.2089
  724MOL0     H97724   1.745   4.544   2.419  1.7796  0.5359  1.0830
  724MOL0     H97725   1.975   4.466   2.384  0.6648 -0.3216  1.6921
  724MOL0     H97726   3.288   4.642   2.256  0.1127  1.0598  0.2630
  724MOL0     H97727   3.483   4.479   2.241  0.2366  0.2183  0.7386
  724MOL0     H97728   3.803   4.314   2.025 -1.3935  0.4286  3.1919
  724MOL0     H97729   3.967   4.162   1.955 -0.0804  1.1399 -1.0916
  724MOL0     H97730   4.259   4.039   1.868 -0.9012 -0.4561  0.9245
  724MOL0     H97731   4.165   4.166   1.795  0.0205 -0.7003 -1.6410
  724MOL0     H97732   4.422   4.265   1.867  0.3962 -1.5946 -0.9502
  724MOL0     H97733   4.329   4.312   1.729  1.0613  0.0992 -1.4405
  724MOL0     H97734   4.378   4.070   1.643 -0.3001  0.4842  0.0390
  724MOL0     H97735   4.507   4.070   1.767  2.0175  1.3932  0.1825
  724MOL0     H97736   4.593   4.300   1.673 -3.3452 -0.6769  2.9878
  724MOL0     H97737   4.479   4.270   1.529  0.2322 -1.8673 -1.4138
  724MOL0     H97738   4.785   3.994   1.480 -0.9858 -2.3434  0.2784
  724MOL0     H97739   4.268   4.366   2.180 -0.7092  1.0211  0.3484
  724MOL0     H97740   4.119   4.537   2.246 -2.3420  2.3848 -1.8320
  725MOL0     O97741   4.264  10.692   4.149  0.0820  0.1006  0.3048
  725MOL0     C97742   4.376  10.735   4.178  1.0332  0.2589  0.7768
  725MOL0     O97743   4.406  10.860   4.228  1.0459  0.5059 -0.6812
  725MOL0     C97744   4.300  10.944   4.218  0.4386 -0.6047 -0.4882
  725MOL0     C97745   4.221  10.958   4.334 -0.1894 -0.0467  0.8468
  725MOL0     C97746   4.127  11.069   4.342 -0.0024  0.2811 -0.4889
  725MOL0     C97747   4.111  11.163   4.237  0.4111  0.6544  0.5289
  725MOL0     O97748   4.022  11.265   4.250  0.0825 -0.7572  0.3429
  725MOL0     C97749   4.006  11.379   4.160 -1.7408  0.3784  0.1389
  725MOL0     C97750   3.909  11.355   4.038 -0.7943 -0.5957 -0.0480
  725MOL0     C97751   3.769  11.302   4.081 -0.8147 -0.7132  0.2328
  725MOL0     C97752   3.682  11.283   3.946 -0.1860  0.1864 -0.2806
  725MOL0     C97753   3.535  11.254   3.980  0.0543  0.5959 -0.3996
  725MOL0     C97754   3.470  11.199   3.851 -0.5595  0.4032  0.3752
  725MOL0     C97755   3.323  11.180   3.875  0.3657 -0.7915  0.4916
  725MOL0     C97756   3.296  11.079   3.977  0.3381  0.5765  0.6731
  725MOL0     N97757   3.154  11.050   3.973  0.5031 -0.2690 -0.3837
  725MOL0     C97758   3.077  10.963   3.892  0.0168 -0.1990  0.4535
  725MOL0     C97759   2.950  10.986   3.928 -0.0468  0.4646  0.3893
  725MOL0     C97760   2.842  10.910   3.855 -0.4438 -0.2822 -0.3479
  725MOL0     C97761   2.804  10.772   3.923 -0.0152  1.0787 -0.1410
  725MOL0     C97762   2.697  10.693   3.850 -0.0719  0.1761  0.1269
  725MOL0     C97763   2.560  10.763   3.839 -0.4571 -0.2110  0.3629
  725MOL0     O97764   2.474  10.658   3.795 -0.5602  0.7632 -0.1784
  725MOL0     C97765   2.342  10.674   3.795 -0.1473 -0.1176  0.2522
  725MOL0     C97766   2.270  10.592   3.715  0.5913  0.0355 -0.5258
  725MOL0     C97767   2.133  10.584   3.720  0.1081  0.6576 -0.1140
  725MOL0     C97768   2.069  10.460   3.649  0.1174 -0.4521 -0.0735
  725MOL0     C97769   2.054  10.671   3.798  0.2327 -0.1806  0.6411
  725MOL0     C97770   1.909  10.667   3.819  0.3884  0.4665  0.1757
  725MOL0     O97771   1.858  10.710   3.933 -0.1025  0.1347  0.0766
  725MOL0     C97772   1.721  10.689   3.951  0.3072 -0.1441 -0.6291
  725MOL0     C97773   1.673  10.560   3.980 -0.6795 -0.2844 -0.4017
  725MOL0     C97774   1.535  10.540   3.985 -0.4445 -0.0988 -0.6729
  725MOL0     C97775   1.445  10.649   3.970  0.2543  0.6560  0.1187
  725MOL0     O97776   1.307  10.629   3.984 -0.9794  0.4842  0.1452
  725MOL0     C97777   1.250  10.506   3.935 -0.0587 -0.3123  0.0736
  725MOL0     C97778   1.094  10.484   3.950 -0.3363 -0.7219  0.5694
  725MOL0     C97779   1.012  10.593   3.875  0.2248  1.0013  0.5164
  725MOL0     C97780   1.015  10.714   3.966  0.0060  0.4225  0.5248
  725MOL0     C97781   0.912  10.821   3.919  0.0680 -0.1683  0.6396
  725MOL0     C97782   0.941  10.869   3.781 -0.4196  0.5404 -0.0690
  725MOL0     C97783   0.885  11.007   3.752  0.0346 -0.2748 -0.5948
  725MOL0     C97784   0.731  11.031   3.737  0.8880  0.1354  0.8443
  725MOL0    Cl97785   0.649  11.053   3.896 -0.3020  0.0779  0.0996
  725MOL0     C97786   1.498  10.775   3.952  0.6004  0.2359 -0.6234
  725MOL0     C97787   1.638  10.792   3.947  0.1780  0.8034 -0.0987
  725MOL0     O97788   1.842  10.626   3.721 -0.3889  0.4294  0.6677
  725MOL0     C97789   2.124  10.775   3.862  0.4490  0.5657 -0.1794
  725MOL0     C97790   2.266  10.773   3.859  0.3828 -0.1834  0.5651
  725MOL0     N97791   2.940  11.080   4.027  1.0075  0.3335  0.1286
  725MOL0     N97792   3.061  11.110   4.058 -0.0563 -0.1365 -0.8725
  725MOL0     C97793   4.187  11.136   4.123  0.0505 -0.4492  0.1045
  725MOL0     C97794   4.276  11.030   4.108 -0.0692  0.8624  0.6553
  725MOL0     C97795   4.478  10.630   4.194  1.3005 -0.2898  0.3373
  725MOL0     C97796   4.460  10.506   4.129 -0.1571 -0.3742  0.0240
  725MOL0     C97797   4.543  10.394   4.154  0.7615  0.1525  0.4671
  725MOL0     C97798   4.656  10.408   4.226  0.4759 -0.2949 -0.5429
  725MOL0     O97799   4.732  10.296   4.232  0.1470  0.2574  0.4776
  725MOL0     C97800   4.837  10.292   4.324  0.0499  0.6760 -0.1765
  725MOL0     C97801   4.862  10.145   4.365 -0.2031 -0.4056 -0.3002
  725MOL0     C97802   4.768  10.114   4.481  0.0384 -0.5033  0.7705
  725MOL0     C97803   4.760   9.966   4.507 -0.0113  1.2233  0.0609
  725MOL0     C97804   4.665   9.939   4.614  1.2522 -0.3818  0.9632
  725MOL0     C97805   4.579   9.932   4.703 -0.7858 -1.0014 -0.0940
  725MOL0     C97806   4.687  10.535   4.279  0.1266  0.4121  0.1925
  725MOL0     C97807   4.587  10.637   4.278 -1.2449  0.7988  0.8540
  725MOL0     H97808   4.235  10.893   4.421 -2.4807 -1.8281 -0.0141
  725MOL0     H97809   4.076  11.094   4.435  0.9413  0.1594  0.0755
  725MOL0     H97810   3.979  11.473   4.209 -2.0262  1.1771 -1.4452
  725MOL0     H97811   4.107  11.389   4.120  0.0482 -2.6798  3.3559
  725MOL0     H97812   3.903  11.446   3.978 -2.2132 -1.8856 -1.9917
  725MOL0     H97813   3.965  11.284   3.976  0.0658  0.0754 -0.0546
  725MOL0     H97814   3.762  11.213   4.144 -1.0093 -1.3289 -0.6537
  725MOL0     H97815   3.716  11.382   4.135 -0.7346 -1.8347  2.0517
  725MOL0     H97816   3.697  11.358   3.868  1.7103  0.3209  0.1711
  725MOL0     H97817   3.722  11.188   3.910  1.5443  0.4076  0.9084
  725MOL0     H97818   3.525  11.182   4.062  1.0046  0.1402 -0.6673
  725MOL0     H97819   3.483  11.347   4.004 -3.6812 -1.2614 -0.6408
  725MOL0     H97820   3.497  11.269   3.772  1.3368 -0.0035  0.6072
  725MOL0     H97821   3.518  11.103   3.832 -0.7654  0.8220 -2.8914
  725MOL0     H97822   3.274  11.273   3.906  0.7199  0.3167 -2.0274
  725MOL0     H97823   3.283  11.155   3.776 -1.7659  0.5879  0.9396
  725MOL0     H97824   3.328  11.105   4.078  0.8907 -2.0994  1.2611
  725MOL0     H97825   3.351  10.987   3.952 -2.9658 -1.7052  1.0766
  725MOL0     H97826   3.110  10.907   3.805  2.8872 -1.7017  2.3357
  725MOL0     H97827   2.756  10.978   3.861 -0.8025 -0.7573 -0.0234
  725MOL0     H97828   2.864  10.897   3.749 -2.1604  0.1138 -0.7831
  725MOL0     H97829   2.767  10.789   4.025  1.0962 -2.4908  1.0009
  725MOL0     H97830   2.890  10.706   3.937 -1.0345 -0.0265  1.2975
  725MOL0     H97831   2.676  10.595   3.893  1.0093  0.6123  1.7407
  725MOL0     H97832   2.734  10.668   3.750  0.9253  0.3987  0.4276
  725MOL0     H97833   2.564  10.841   3.763  0.2496  1.3975  1.9843
  725MOL0     H97834   2.531  10.795   3.939  1.1868 -1.3324  1.2506
  725MOL0     H97835   2.333  10.516   3.671  1.7430  0.1239  0.8761
  725MOL0     H97836   1.997  10.413   3.717 -1.2163  4.2961  2.2623
  725MOL0     H97837   2.011  10.505   3.568  1.4054  2.1294  0.3340
  725MOL0     H97838   2.143  10.392   3.605  0.2434  0.9834 -2.2560
  725MOL0     H97839   1.739  10.475   3.992  1.7572  1.7527  1.9652
  725MOL0     H97840   1.493  10.443   4.009 -1.2480  0.4486  0.2306
  725MOL0     H97841   1.291  10.467   3.841 -1.5685 -4.3926  0.8841
  725MOL0     H97842   1.294  10.430   4.001  2.4773  0.0866 -1.0480
  725MOL0     H97843   1.078  10.385   3.906  0.1616 -0.2766 -0.6564
  725MOL0     H97844   1.070  10.482   4.056 -1.2226 -1.5711  0.3692
  725MOL0     H97845   0.910  10.561   3.854  0.2653  1.8991 -1.2115
  725MOL0     H97846   1.054  10.617   3.777  0.3563 -0.2852  0.2387
  725MOL0     H97847   0.988  10.682   4.067  0.5057 -2.1437 -0.0790
  725MOL0     H97848   1.114  10.757   3.977 -0.8611  2.4455  0.7528
  725MOL0     H97849   0.917  10.908   3.985 -5.2389 -0.0525  1.3153
  725MOL0     H97850   0.811  10.783   3.937  0.4292 -1.0823  0.8008
  725MOL0     H97851   1.048  10.870   3.759  0.1480  3.4652  2.2681
  725MOL0     H97852   0.900  10.795   3.712 -1.0619  2.5168 -1.9440
  725MOL0     H97853   0.926  11.024   3.652  1.8471 -3.0193 -0.4194
  725MOL0     H97854   0.938  11.074   3.820  3.2921 -3.3013  0.1276
  725MOL0     H97855   0.684  10.956   3.673  1.6258 -0.0823  0.5533
  725MOL0     H97856   0.730  11.125   3.681  0.4271 -1.1261 -1.3750
  725MOL0     H97857   1.433  10.861   3.965  0.2154 -0.3914  2.0311
  725MOL0     H97858   1.684  10.890   3.939  1.2565  0.2201 -1.6492
  725MOL0     H97859   2.071  10.855   3.913 -0.9762 -0.2742 -0.2855
  725MOL0     H97860   2.309  10.862   3.904 -1.1039 -0.2328  2.2184
  725MOL0     H97861   4.169  11.192   4.031 -0.1879  0.8685  0.9223
  725MOL0     H97862   4.318  11.010   4.010 -0.9556 -2.9507  0.8966
  725MOL0     H97863   4.385  10.498   4.052  0.4724 -0.4608 -0.5863
  725MOL0     H97864   4.522  10.300   4.103 -0.6168 -0.2083  1.6413
  725MOL0     H97865   4.922  10.341   4.275 -0.6518  0.2246 -1.9222
  725MOL0     H97866   4.808  10.342   4.417 -0.9032 -0.3571  0.0954
  725MOL0     H97867   4.966  10.134   4.399 -0.3814 -3.6402 -0.4826
  725MOL0     H97868   4.848  10.080   4.278 -2.8077  0.0543 -0.2888
  725MOL0     H97869   4.670  10.156   4.460 -0.9615 -1.8887  2.4483
  725MOL0     H97870   4.808  10.168   4.568  0.2720  2.7000 -1.1352
  725MOL0     H97871   4.858   9.931   4.541  0.4521  0.2416 -2.0945
  725MOL0     H97872   4.726   9.907   4.421 -4.0295  1.5097  1.2590
  725MOL0     H97873   4.487   9.928   4.758  0.7448 -1.1285  2.6381
  725MOL0     H97874   4.777  10.546   4.339  1.9386 -1.0269 -2.0773
  725MOL0     H97875   4.600  10.724   4.342 -3.0812  1.1694  0.7954
  726MOL0     O97876   7.825   2.104   4.400  0.2552 -0.6061 -0.2715
  726MOL0     C97877   7.912   2.172   4.342  0.3740  0.4961  1.0237
  726MOL0     O97878   7.894   2.243   4.223  0.9215  0.0813 -0.0167
  726MOL0     C97879   7.792   2.207   4.144  0.6522 -0.2363 -0.2950
  726MOL0     C97880   7.776   2.074   4.098  0.6545 -0.4084 -0.9266
  726MOL0     C97881   7.666   2.039   4.018  0.0123  0.2513 -0.2297
  726MOL0     C97882   7.580   2.136   3.967  0.1043  0.2426 -0.4916
  726MOL0     O97883   7.485   2.099   3.878  0.7191 -0.3913 -0.2222
  726MOL0     C97884   7.352   2.131   3.934 -0.0147  0.0175  0.7009
  726MOL0     C97885   7.246   2.109   3.826  0.5030  0.4327  0.7255
  726MOL0     C97886   7.105   2.132   3.887  0.1778 -0.0577  1.6768
  726MOL0     C97887   6.999   2.073   3.795 -0.0661  0.3955 -0.5934
  726MOL0     C97888   6.867   2.112   3.852  0.2143 -0.1194 -0.2467
  726MOL0     C97889   6.762   2.079   3.748 -0.3733  0.0160  0.2656
  726MOL0     C97890   6.630   2.151   3.786  0.4045 -0.1976  0.0899
  726MOL0     C97891   6.519   2.128   3.679 -0.0462 -0.7544  0.3742
  726MOL0     N97892   6.386   2.164   3.735  0.2221 -0.2575 -0.1798
  726MOL0     C97893   6.309   2.279   3.702  0.3834  0.2283 -0.4628
  726MOL0     C97894   6.214   2.282   3.800 -0.5346  0.5241 -0.2220
  726MOL0     C97895   6.108   2.385   3.811 -0.2187  0.6382 -0.3747
  726MOL0     C97896   5.980   2.356   3.735 -0.1312 -0.3530  0.4258
  726MOL0     C97897   5.896   2.485   3.744 -0.0455  0.3243  0.7679
  726MOL0     C97898   5.744   2.452   3.730  0.8973 -0.6506 -0.2081
  726MOL0     O97899   5.664   2.566   3.762 -0.3007 -0.0001  0.0680
  726MOL0     C97900   5.529   2.550   3.769 -0.0376  0.0705  0.6584
  726MOL0     C97901   5.451   2.434   3.747  0.2769  1.0796  0.0756
  726MOL0     C97902   5.307   2.420   3.754 -1.6459 -0.9213  0.1630
  726MOL0     C97903   5.249   2.278   3.750 -0.4172  0.1878  0.1087
  726MOL0     C97904   5.239   2.538   3.783 -0.8212  0.0642  0.2151
  726MOL0     C97905   5.090   2.551   3.775  0.6254 -0.2837  0.7900
  726MOL0     O97906   5.029   2.676   3.791 -0.2010  0.0116  0.8451
  726MOL0     C97907   4.893   2.688   3.781  0.0885 -0.0921 -0.6847
  726MOL0     C97908   4.821   2.628   3.875  0.4323  0.6322 -0.4587
  726MOL0     C97909   4.685   2.630   3.862  0.1608 -0.0667 -0.5706
  726MOL0     C97910   4.619   2.695   3.761  0.2011  0.0306  1.3878
  726MOL0     O97911   4.482   2.704   3.739 -0.0230 -0.3044  0.7631
  726MOL0     C97912   4.390   2.641   3.833 -0.2955  0.1225 -0.3371
  726MOL0     C97913   4.258   2.664   3.777  0.1208 -0.2958 -0.1132
  726MOL0     C97914   4.152   2.588   3.862  0.2508 -0.5288  0.3836
  726MOL0     C97915   4.166   2.437   3.883  0.1348 -0.0589 -0.1821
  726MOL0     C97916   4.049   2.387   3.971 -1.1808 -0.6911  0.3731
  726MOL0     C97917   4.058   2.235   4.017 -0.4632 -0.0942 -0.3237
  726MOL0     C97918   4.096   2.142   3.900  0.8116  0.2172  0.5708
  726MOL0     C97919   4.111   2.000   3.947  0.5544  0.6428 -0.1192
  726MOL0    Cl97920   4.249   1.985   4.074 -0.2995  0.2441  0.6287
  726MOL0     C97921   4.697   2.760   3.658  0.3297  0.0466  0.5189
  726MOL0     C97922   4.839   2.751   3.666 -0.5607 -0.0448 -0.5869
  726MOL0     O97923   5.028   2.449   3.737  0.1953 -0.6077 -0.0992
  726MOL0     C97924   5.317   2.655   3.811  0.0103  0.2776 -1.5052
  726MOL0     C97925   5.453   2.660   3.799  0.5244  0.4179  0.0538
  726MOL0     N97926   6.221   2.160   3.875  0.0858  0.5257  0.4882
  726MOL0     N97927   6.331   2.097   3.835  0.0330  0.9171 -0.3553
  726MOL0     C97928   7.615   2.265   3.999  0.4814 -0.6707 -0.6486
  726MOL0     C97929   7.707   2.304   4.093  0.2176  0.5216 -0.6102
  726MOL0     C97930   8.041   2.192   4.408 -0.0483  0.4863  0.8683
  726MOL0     C97931   8.041   2.161   4.544 -0.2047 -0.1734 -0.3280
  726MOL0     C97932   8.155   2.189   4.623 -1.0778 -0.1562  0.7838
  726MOL0     C97933   8.271   2.250   4.569  0.1548  0.0696 -0.3139
  726MOL0     O97934   8.368   2.281   4.660  0.2604  0.8024  0.4523
  726MOL0     C97935   8.498   2.317   4.623 -0.2192  0.0296  0.1608
  726MOL0     C97936   8.586   2.344   4.738 -0.7704 -0.4560 -0.3438
  726MOL0     C97937   8.729   2.376   4.692 -0.0398 -0.3275  0.2307
  726MOL0     C97938   8.828   2.402   4.813 -0.0120 -0.1692 -0.5618
  726MOL0     C97939   8.785   2.522   4.898 -0.1162  0.9444  0.9049
  726MOL0     C97940   8.753   2.619   4.958  0.3007 -0.3759 -0.7600
  726MOL0     C97941   8.267   2.279   4.427 -0.3048 -1.1160 -0.2992
  726MOL0     C97942   8.149   2.253   4.348 -0.6629  0.2324 -0.3393
  726MOL0     H97943   7.843   1.990   4.112 -0.1410 -1.0837 -1.0406
  726MOL0     H97944   7.650   1.935   3.992  3.0012 -0.1296 -0.9321
  726MOL0     H97945   7.330   2.066   4.019  2.8087 -3.4376 -0.9636
  726MOL0     H97946   7.338   2.236   3.960  2.1005  0.8779 -1.2597
  726MOL0     H97947   7.259   2.184   3.748  3.4905  1.7394  2.3320
  726MOL0     H97948   7.246   2.009   3.782  0.8195  1.0277 -0.6648
  726MOL0     H97949   7.103   2.094   3.990  1.4617 -1.4075  1.2463
  726MOL0     H97950   7.086   2.238   3.904 -1.4696 -0.5222  3.0417
  726MOL0     H97951   7.013   2.109   3.693  3.1034 -0.5989 -0.6042
  726MOL0     H97952   7.014   1.965   3.796  1.5616  0.5709 -2.3093
  726MOL0     H97953   6.841   2.064   3.946 -0.9613 -0.1590 -0.5719
  726MOL0     H97954   6.873   2.219   3.871  3.7041 -0.7199  3.2298
  726MOL0     H97955   6.785   2.117   3.648  0.7915  0.7536  0.7975
  726MOL0     H97956   6.740   1.972   3.743 -1.4045  0.0524  2.5800
  726MOL0     H97957   6.602   2.126   3.889  1.3412  1.8873  0.9163
  726MOL0     H97958   6.654   2.258   3.789 -2.9397  0.6673 -0.2696
  726MOL0     H97959   6.522   2.020   3.660  0.7439 -1.1049  2.2631
  726MOL0     H97960   6.537   2.193   3.593 -0.1439 -0.2788  0.7107
  726MOL0     H97961   6.333   2.356   3.630 -0.6495  0.5353 -0.4882
  726MOL0     H97962   6.079   2.400   3.916 -2.1655  2.5760 -1.1126
  726MOL0     H97963   6.152   2.477   3.774  0.3700  0.3818 -0.3177
  726MOL0     H97964   5.932   2.274   3.791  1.0384  0.6895  3.1559
  726MOL0     H97965   6.006   2.338   3.631 -2.0984 -2.1037  0.1655
  726MOL0     H97966   5.932   2.540   3.656 -3.8579  0.4629 -0.8955
  726MOL0     H97967   5.922   2.540   3.834  0.9852  3.1273 -1.1238
  726MOL0     H97968   5.714   2.378   3.804 -0.3625  2.4080  2.6080
  726MOL0     H97969   5.730   2.413   3.629 -3.4168  0.0616 -0.0895
  726MOL0     H97970   5.501   2.340   3.723 -2.2005 -1.0303  2.4860
  726MOL0     H97971   5.326   2.202   3.746  1.9372  2.4474  0.0037
  726MOL0     H97972   5.197   2.266   3.846 -2.1932  5.3698  0.1387
  726MOL0     H97973   5.179   2.273   3.666 -0.5362  0.0173  0.2161
  726MOL0     H97974   4.871   2.579   3.958 -0.9080  1.7302  1.0635
  726MOL0     H97975   4.622   2.583   3.937 -0.1432 -0.8847 -1.3219
  726MOL0     H97976   4.417   2.536   3.847  1.5756  0.8534  2.2715
  726MOL0     H97977   4.389   2.693   3.929 -2.7992 -0.8895  0.2772
  726MOL0     H97978   4.240   2.772   3.781  0.8368 -0.2022  0.8383
  726MOL0     H97979   4.253   2.626   3.675 -2.1819  1.6761 -0.8443
  726MOL0     H97980   4.052   2.615   3.828  0.1407  1.6929  2.1634
  726MOL0     H97981   4.158   2.634   3.962  0.6734 -1.2027  0.6763
  726MOL0     H97982   4.182   2.384   3.789  0.6705 -3.6845  1.7768
  726MOL0     H97983   4.253   2.419   3.946  2.5356  1.1464 -2.9250
  726MOL0     H97984   3.955   2.403   3.917 -0.4560  0.6702 -0.5520
  726MOL0     H97985   4.056   2.446   4.063 -0.0863 -0.4943  0.1720
  726MOL0     H97986   4.128   2.227   4.101 -1.2144  0.4374  0.3635
  726MOL0     H97987   3.963   2.196   4.053 -1.5062  0.3894 -2.3880
  726MOL0     H97988   4.188   2.167   3.846 -0.6337 -2.3075 -3.5292
  726MOL0     H97989   4.019   2.152   3.823  0.1375  2.8423  1.4774
  726MOL0     H97990   4.134   1.929   3.867  0.2976 -0.3911  0.7015
  726MOL0     H97991   4.023   1.965   4.001  2.3711 -0.8529  2.0806
  726MOL0     H97992   4.647   2.801   3.571 -1.2298 -2.8689 -0.0930
  726MOL0     H97993   4.892   2.789   3.579 -0.3676 -0.5639 -0.7038
  726MOL0     H97994   5.261   2.746   3.830  1.4948  0.9311  0.0415
  726MOL0     H97995   5.519   2.746   3.804  2.4906 -0.9853 -0.7707
  726MOL0     H97996   7.565   2.358   3.971 -0.9233 -0.8190  1.2277
  726MOL0     H97997   7.731   2.406   4.123  1.3104 -0.6344  2.8859
  726MOL0     H97998   7.952   2.125   4.594  0.8698 -0.2945  1.5722
  726MOL0     H97999   8.144   2.186   4.731 -2.1312  0.2169  0.6995
  726MOL0     H98000   8.545   2.246   4.555 -0.8032 -1.9886  1.7622
  726MOL0     H98001   8.479   2.413   4.575 -1.7460 -1.0591 -1.5288
  726MOL0     H98002   8.586   2.257   4.804  1.3894 -0.6470 -0.5468
  726MOL0     H98003   8.545   2.428   4.796  1.7993 -0.0741  1.0369
  726MOL0     H98004   8.731   2.470   4.637  3.8430 -0.3396  0.0488
  726MOL0     H98005   8.762   2.295   4.626  0.7766 -0.7363  1.1088
  726MOL0     H98006   8.929   2.409   4.773  1.0009 -1.4903  1.5562
  726MOL0     H98007   8.821   2.306   4.866 -1.1684  1.1024  1.7439
  726MOL0     H98008   8.729   2.711   5.006 -0.7025 -1.8089  1.6743
  726MOL0     H98009   8.342   2.332   4.369  2.0301 -1.1453  2.5107
  726MOL0     H98010   8.142   2.278   4.242 -0.2069 -1.5192 -0.8179
  727MOL0     O98011   6.432   2.535   4.689 -0.1367 -0.2584 -0.2412
  727MOL0     C98012   6.396   2.653   4.707 -0.0632  0.4658 -0.6569
  727MOL0     O98013   6.264   2.695   4.724  0.5658 -0.3026  0.0884
  727MOL0     C98014   6.171   2.599   4.728  0.6939  0.4138  0.2262
  727MOL0     C98015   6.080   2.579   4.618 -0.1396 -0.5707 -0.3732
  727MOL0     C98016   5.976   2.476   4.633  0.0910  0.2391 -0.2066
  727MOL0     C98017   5.958   2.402   4.751 -0.6774  0.1648 -0.2375
  727MOL0     O98018   5.868   2.296   4.758 -0.0330 -0.4424 -0.1984
  727MOL0     C98019   5.740   2.338   4.744  0.1477  0.2752  0.4085
  727MOL0     C98020   5.664   2.231   4.814 -0.1017 -0.5205  0.2958
  727MOL0     C98021   5.525   2.279   4.855  0.5823  0.1621 -0.1579
  727MOL0     C98022   5.442   2.169   4.925  0.4986  0.0418 -1.0628
  727MOL0     C98023   5.318   2.242   4.997 -0.4946  0.6861 -0.7110
  727MOL0     C98024   5.356   2.320   5.126 -0.5661 -0.5245 -0.5081
  727MOL0     C98025   5.236   2.353   5.215 -0.6391 -0.3370 -0.1486
  727MOL0     C98026   5.281   2.439   5.336  0.7564 -0.4901 -0.5346
  727MOL0     N98027   5.170   2.461   5.431 -0.1051 -0.1563 -0.3043
  727MOL0     C98028   5.087   2.371   5.502 -0.8344  0.4642 -1.0667
  727MOL0     C98029   4.999   2.439   5.571  0.3265 -0.8306  0.7733
  727MOL0     C98030   4.885   2.378   5.651 -0.0703 -0.0776 -0.6084
  727MOL0     C98031   4.741   2.395   5.594  0.1308 -0.7961  0.1155
  727MOL0     C98032   4.711   2.516   5.504  1.1350  0.3862  0.6806
  727MOL0     C98033   4.562   2.499   5.461 -0.3906 -0.8919 -0.0660
  727MOL0     O98034   4.470   2.533   5.574  0.3107 -0.1798 -0.1547
  727MOL0     C98035   4.341   2.571   5.538 -0.2748  0.2095 -0.0319
  727MOL0     C98036   4.273   2.516   5.433 -0.4357  0.3446  0.3306
  727MOL0     C98037   4.141   2.560   5.395  0.3808  0.0868 -0.3697
  727MOL0     C98038   4.074   2.519   5.261 -0.3660 -0.1998 -0.6535
  727MOL0     C98039   4.078   2.647   5.486  0.1760 -0.6444 -0.1921
  727MOL0     C98040   3.934   2.688   5.460  0.0422  0.4705 -0.1018
  727MOL0     O98041   3.859   2.690   5.575  0.4972 -0.5839  0.2718
  727MOL0     C98042   3.724   2.721   5.592 -0.1141 -0.0915 -0.4552
  727MOL0     C98043   3.632   2.749   5.487 -0.0700 -0.2092  0.1933
  727MOL0     C98044   3.495   2.763   5.514 -0.5054 -0.6454  0.1418
  727MOL0     C98045   3.441   2.761   5.642  1.2519 -0.4782 -0.2906
  727MOL0     O98046   3.301   2.771   5.643  0.9073 -0.2319  0.1631
  727MOL0     C98047   3.240   2.781   5.779  0.3061  0.0859 -0.1222
  727MOL0     C98048   3.086   2.805   5.780  0.8313 -0.0862  0.5160
  727MOL0     C98049   3.030   2.787   5.926  0.5367 -0.6856  1.6409
  727MOL0     C98050   2.892   2.725   5.909 -0.4167 -0.6611  0.5465
  727MOL0     C98051   2.824   2.721   6.043 -0.0775 -0.5478 -0.7317
  727MOL0     C98052   2.678   2.669   6.008 -0.7232  0.3563  0.3488
  727MOL0     C98053   2.571   2.687   6.126  0.1689  0.2724 -0.1441
  727MOL0     C98054   2.448   2.605   6.099  0.4428 -0.6441 -0.2593
  727MOL0    Cl98055   2.359   2.599   6.251 -0.2177  0.0696  0.4169
  727MOL0     C98056   3.541   2.755   5.742 -0.2603  0.2525 -0.6462
  727MOL0     C98057   3.678   2.736   5.727 -0.3774  0.6682  0.7395
  727MOL0     O98058   3.907   2.733   5.349 -0.5481 -0.1892  0.3698
  727MOL0     C98059   4.145   2.704   5.593  0.3433 -0.3890  0.2118
  727MOL0     C98060   4.269   2.657   5.622 -0.0333  0.3161 -0.3058
  727MOL0     N98061   5.024   2.575   5.546  0.4043 -0.1607 -0.4726
  727MOL0     N98062   5.122   2.587   5.465 -0.2245 -0.2695 -0.1160
  727MOL0     C98063   6.044   2.438   4.862  0.7562 -0.6859  0.5799
  727MOL0     C98064   6.139   2.535   4.852 -0.1001 -0.5854  0.9513
  727MOL0     C98065   6.499   2.752   4.723  0.6125 -0.9721 -0.3577
  727MOL0     C98066   6.635   2.716   4.724 -0.3230  1.2244  0.1708
  727MOL0     C98067   6.728   2.824   4.736 -0.6145  0.4885  0.2449
  727MOL0     C98068   6.693   2.958   4.735  0.1513  0.6536 -0.3317
  727MOL0     O98069   6.780   3.059   4.714  0.0459  0.1582 -0.8214
  727MOL0     C98070   6.924   3.031   4.728 -0.8683  0.8077 -0.0815
  727MOL0     C98071   7.003   3.156   4.681 -0.0421  0.5638 -0.4165
  727MOL0     C98072   7.007   3.165   4.528 -0.3695 -0.2846 -0.3054
  727MOL0     C98073   7.086   3.294   4.483  0.3495 -0.0989  0.2684
  727MOL0     C98074   7.071   3.316   4.343  0.2555  0.3086  0.4413
  727MOL0     C98075   7.086   3.337   4.226  0.6979 -0.3536 -0.1297
  727MOL0     C98076   6.562   2.986   4.744 -0.3356  0.5143  0.5198
  727MOL0     C98077   6.468   2.888   4.740 -0.7165 -0.0466  0.6996
  727MOL0     H98078   6.090   2.640   4.529  1.3552  2.0460  1.4532
  727MOL0     H98079   5.924   2.458   4.539 -0.8879 -0.4651  0.4547
  727MOL0     H98080   5.737   2.434   4.798  3.3802  0.4316  0.5221
  727MOL0     H98081   5.710   2.345   4.639  2.0178 -2.4237 -0.4165
  727MOL0     H98082   5.653   2.144   4.750  1.9116 -0.6408  0.0547
  727MOL0     H98083   5.714   2.193   4.903  1.4949 -0.2391 -0.4361
  727MOL0     H98084   5.534   2.360   4.928  0.6590 -0.7250  0.8492
  727MOL0     H98085   5.477   2.312   4.762  4.2445  1.6378 -1.7475
  727MOL0     H98086   5.403   2.083   4.871  0.9368 -2.3644  2.1281
  727MOL0     H98087   5.508   2.130   5.004 -0.3250  0.6457 -0.0500
  727MOL0     H98088   5.252   2.297   4.929 -1.7316 -1.8229 -1.6929
  727MOL0     H98089   5.248   2.161   5.021 -1.4791  2.3586  2.6691
  727MOL0     H98090   5.433   2.267   5.183 -0.8769 -0.4521 -0.0175
  727MOL0     H98091   5.401   2.415   5.094  0.4400 -1.5200 -2.2213
  727MOL0     H98092   5.160   2.413   5.163  1.1088  0.3465 -2.0213
  727MOL0     H98093   5.193   2.256   5.245  0.9860 -1.6540 -1.8304
  727MOL0     H98094   5.305   2.535   5.289 -4.0610  0.2660 -2.0669
  727MOL0     H98095   5.375   2.408   5.380  0.0735 -2.1856 -0.2075
  727MOL0     H98096   5.100   2.264   5.493  2.0349  0.9402 -4.2920
  727MOL0     H98097   4.907   2.271   5.658 -0.7851 -0.1860  0.1180
  727MOL0     H98098   4.895   2.415   5.753  2.4268 -0.9773 -0.4455
  727MOL0     H98099   4.673   2.404   5.680  1.5800 -0.5780  1.2882
  727MOL0     H98100   4.725   2.302   5.540  1.9321 -0.8122 -0.4429
  727MOL0     H98101   4.779   2.507   5.419  1.6018  0.4928  1.0388
  727MOL0     H98102   4.720   2.613   5.555  1.9455 -0.0605  1.4148
  727MOL0     H98103   4.538   2.398   5.427 -0.2013 -0.5647 -1.1863
  727MOL0     H98104   4.548   2.573   5.382  0.2568  0.6938  1.2474
  727MOL0     H98105   4.331   2.443   5.377 -0.3952  0.3937  0.3084
  727MOL0     H98106   4.104   2.419   5.230  1.4616 -0.1306  0.6843
  727MOL0     H98107   3.967   2.512   5.280 -0.3648 -1.0044 -0.9079
  727MOL0     H98108   4.108   2.592   5.186  0.7167  1.6719  1.5050
  727MOL0     H98109   3.656   2.743   5.381 -0.2773 -4.3588  0.2465
  727MOL0     H98110   3.415   2.778   5.442 -0.5526  0.5915  0.4171
  727MOL0     H98111   3.261   2.693   5.840  1.0798  0.1593 -0.2692
  727MOL0     H98112   3.285   2.858   5.842  1.7567 -0.8647  0.0379
  727MOL0     H98113   3.064   2.908   5.749 -3.2746 -0.0817  2.7531
  727MOL0     H98114   3.032   2.743   5.708 -0.2920  2.4030 -0.9197
  727MOL0     H98115   3.020   2.892   5.955 -2.7076 -0.3320 -0.2310
  727MOL0     H98116   3.087   2.731   6.001  2.2900 -0.9054  0.2170
  727MOL0     H98117   2.825   2.782   5.844 -0.6783 -1.1140  0.4156
  727MOL0     H98118   2.895   2.627   5.860 -0.1948 -0.0475 -0.7001
  727MOL0     H98119   2.819   2.821   6.088 -0.2183 -0.7839 -0.2050
  727MOL0     H98120   2.870   2.655   6.117  0.4055 -1.8211 -2.1353
  727MOL0     H98121   2.644   2.732   5.925 -0.0933 -0.2465 -0.3792
  727MOL0     H98122   2.687   2.566   5.975 -2.1546 -1.1407  4.0594
  727MOL0     H98123   2.544   2.792   6.136 -2.5533 -0.4179  0.4183
  727MOL0     H98124   2.605   2.657   6.225  2.2566 -1.1643 -1.2057
  727MOL0     H98125   2.446   2.506   6.053 -5.2303 -0.2753 -1.5917
  727MOL0     H98126   2.392   2.661   6.023 -2.1248 -1.9022  0.5835
  727MOL0     H98127   3.501   2.778   5.840  0.4893  1.8332 -0.6822
  727MOL0     H98128   3.746   2.719   5.810  0.4108 -0.4360 -0.1185
  727MOL0     H98129   4.095   2.766   5.667  0.5593 -2.3604  2.1208
  727MOL0     H98130   4.321   2.702   5.705  0.3553  0.4925 -0.6388
  727MOL0     H98131   6.043   2.383   4.956  0.2681 -1.0718  0.3541
  727MOL0     H98132   6.199   2.566   4.938  1.8588 -1.0616 -0.1694
  727MOL0     H98133   6.670   2.613   4.722  0.2344  1.3840 -2.3479
  727MOL0     H98134   6.834   2.803   4.747 -0.9904 -0.6081  2.2580
  727MOL0     H98135   6.936   3.015   4.835 -2.6404  1.6461  0.2879
  727MOL0     H98136   6.960   2.943   4.674 -2.3763  0.5630 -0.7376
  727MOL0     H98137   7.107   3.152   4.712  0.5392  0.0025 -2.2812
  727MOL0     H98138   6.973   3.245   4.736 -0.0226 -1.9838  4.2111
  727MOL0     H98139   6.903   3.172   4.497 -0.6504 -2.0078  0.1628
  727MOL0     H98140   7.046   3.072   4.486 -0.3653  0.9981 -3.4101
  727MOL0     H98141   7.190   3.291   4.519 -0.1880 -0.7327  1.8265
  727MOL0     H98142   7.037   3.376   4.536 -0.7713 -1.3450  1.2115
  727MOL0     H98143   7.117   3.356   4.125  3.4043  1.1192  0.8786
  727MOL0     H98144   6.532   3.090   4.748  2.4710  1.3541  2.1985
  727MOL0     H98145   6.362   2.910   4.751 -1.1467 -1.7701  0.3226
  728MOL0     O98146   8.931   2.902   8.279  0.8408  0.5017 -0.4461
  728MOL0     C98147   8.946   3.017   8.241 -1.0252 -0.3426 -0.1462
  728MOL0     O98148   8.855   3.089   8.165 -0.2432  0.7915 -0.8002
  728MOL0     C98149   8.722   3.047   8.157 -0.0591 -0.0873 -0.3688
  728MOL0     C98150   8.623   3.147   8.182 -0.7328  0.4143  0.7553
  728MOL0     C98151   8.485   3.113   8.178  0.4156  0.3970  0.6043
  728MOL0     C98152   8.442   2.987   8.143  0.6033 -0.4807 -0.4828
  728MOL0     O98153   8.309   2.940   8.140  0.2851  0.2259 -0.4545
  728MOL0     C98154   8.207   3.034   8.174 -0.5148  0.1015  0.7381
  728MOL0     C98155   8.066   2.975   8.152 -0.4305 -0.1276  0.6037
  728MOL0     C98156   8.058   2.920   8.010 -0.7773 -0.5020 -0.1393
  728MOL0     C98157   7.908   2.896   7.987 -0.5638  0.0971  0.9983
  728MOL0     C98158   7.881   2.824   7.856 -0.0988  0.4337  0.0250
  728MOL0     C98159   7.727   2.782   7.849  0.4418  0.4424  0.3663
  728MOL0     C98160   7.694   2.705   7.718 -0.1012 -0.3557  0.4575
  728MOL0     C98161   7.545   2.659   7.717 -0.4957  0.8552 -0.1158
  728MOL0     N98162   7.512   2.630   7.574  0.3017  0.5540 -0.2629
  728MOL0     C98163   7.468   2.505   7.531 -0.4350  0.3540  0.1132
  728MOL0     C98164   7.451   2.531   7.402 -0.9444  0.3518  0.1408
  728MOL0     C98165   7.414   2.419   7.299 -0.3412 -0.0687  1.0484
  728MOL0     C98166   7.266   2.423   7.260  0.1568 -0.2890  1.2184
  728MOL0     C98167   7.181   2.332   7.353  0.4652  0.3283 -0.1653
  728MOL0     C98168   7.027   2.326   7.332  0.0449  0.4014 -0.1964
  728MOL0     O98169   6.972   2.449   7.383  0.1556  0.1793  0.2397
  728MOL0     C98170   6.840   2.446   7.388  0.4015  0.2103  0.0450
  728MOL0     C98171   6.753   2.368   7.308 -0.0115  0.4894  0.4574
  728MOL0     C98172   6.618   2.377   7.307 -0.1995  0.4557 -1.3397
  728MOL0     C98173   6.549   2.294   7.205  0.1271 -0.5038 -0.1246
  728MOL0     C98174   6.568   2.481   7.385  0.5158  0.3712  0.2081
  728MOL0     C98175   6.427   2.505   7.400  0.0514  0.6773  0.1142
  728MOL0     O98176   6.383   2.537   7.524 -0.0551  0.3985  0.2012
  728MOL0     C98177   6.252   2.577   7.541  0.3718  0.1551  0.5096
  728MOL0     C98178   6.231   2.678   7.635 -0.2905  0.3727  1.0109
  728MOL0     C98179   6.107   2.725   7.661  0.5989  0.0197 -0.4390
  728MOL0     C98180   5.995   2.671   7.597  0.1785 -0.0627 -0.3138
  728MOL0     O98181   5.869   2.708   7.631  0.1720 -0.1812 -1.1442
  728MOL0     C98182   5.845   2.845   7.653  0.0057 -0.1561  0.4378
  728MOL0     C98183   5.695   2.874   7.656  0.0624 -0.1833  0.5372
  728MOL0     C98184   5.614   2.823   7.776 -0.1874 -0.1171 -0.7935
  728MOL0     C98185   5.478   2.892   7.804  0.4379  0.4855  0.1215
  728MOL0     C98186   5.434   2.882   7.952  0.0964 -0.1914 -0.9014
  728MOL0     C98187   5.278   2.882   7.959 -0.8659 -0.3967  0.6897
  728MOL0     C98188   5.209   3.025   7.936  0.1577  0.1462  0.3447
  728MOL0     C98189   5.063   3.012   7.896 -0.5942  0.5058 -0.2301
  728MOL0    Cl98190   4.972   2.942   8.030  0.3649 -0.0414  0.4380
  728MOL0     C98191   6.013   2.575   7.503 -0.5454  0.7830  0.1069
  728MOL0     C98192   6.142   2.527   7.479 -0.0675  0.0149 -0.3135
  728MOL0     O98193   6.363   2.499   7.295  0.3099 -0.4539 -0.4102
  728MOL0     C98194   6.650   2.552   7.470  0.1936 -0.4689 -0.4187
  728MOL0     C98195   6.784   2.536   7.472 -0.8454  0.5648  0.0066
  728MOL0     N98196   7.461   2.668   7.370 -0.4795 -0.1596  0.0567
  728MOL0     N98197   7.498   2.726   7.484  0.0810  0.3965  0.6098
  728MOL0     C98198   8.542   2.893   8.112  0.4290  0.0139 -1.0694
  728MOL0     C98199   8.678   2.918   8.129 -0.4312 -0.5941 -0.5665
  728MOL0     C98200   9.080   3.072   8.268  0.5430 -0.8393 -0.8766
  728MOL0     C98201   9.129   3.198   8.202 -0.3011  0.3806 -0.1167
  728MOL0     C98202   9.249   3.244   8.240 -0.1747  1.0658 -0.5889
  728MOL0     C98203   9.324   3.189   8.344  0.2427 -0.2073  0.6361
  728MOL0     O98204   9.430   3.265   8.385 -0.3900  0.3085  0.0713
  728MOL0     C98205   9.512   3.229   8.493  0.1948 -0.0206  0.0099
  728MOL0     C98206   9.614   3.123   8.446 -0.5329  0.3980 -0.3114
  728MOL0     C98207   9.734   3.198   8.378  0.2746  0.3920  0.0328
  728MOL0     C98208   9.828   3.094   8.319  0.4660 -0.3037 -0.8940
  728MOL0     C98209   9.951   3.154   8.284 -0.4024 -0.0680  1.0660
  728MOL0     C98210  10.059   3.199   8.269  0.3682 -0.3893 -0.4743
  728MOL0     C98211   9.287   3.068   8.402  0.2493 -0.4124 -0.4683
  728MOL0     C98212   9.166   3.006   8.362  0.3867  0.4262 -0.4725
  728MOL0     H98213   8.661   3.242   8.218  1.3157 -0.1655  0.2609
  728MOL0     H98214   8.424   3.196   8.212 -0.8095 -0.9113  1.7125
  728MOL0     H98215   8.221   3.065   8.279 -0.0425 -0.1835  0.7630
  728MOL0     H98216   8.223   3.121   8.109  2.5689  0.0317  1.2373
  728MOL0     H98217   8.056   2.894   8.225  2.6988  1.4635  3.0635
  728MOL0     H98218   7.988   3.049   8.172 -0.3485  0.3004 -0.6270
  728MOL0     H98219   8.109   2.978   7.932 -2.7580  0.9661 -0.4245
  728MOL0     H98220   8.102   2.821   8.021  3.8076  1.3938  1.2101
  728MOL0     H98221   7.883   2.821   8.063  1.4982 -1.5326  0.1950
  728MOL0     H98222   7.848   2.987   7.989 -2.3188 -0.9947  3.0093
  728MOL0     H98223   7.896   2.897   7.776 -1.5149  0.9808  0.2235
  728MOL0     H98224   7.947   2.739   7.841  0.1329  0.5998  0.0986
  728MOL0     H98225   7.709   2.723   7.939  3.2632 -1.3204 -0.0771
  728MOL0     H98226   7.666   2.872   7.847  0.2671  0.4319 -3.7934
  728MOL0     H98227   7.696   2.777   7.635 -1.3875 -0.5695  0.2123
  728MOL0     H98228   7.763   2.622   7.701 -0.2237 -0.9479  2.6446
  728MOL0     H98229   7.480   2.739   7.754 -0.1870  0.9495  0.2218
  728MOL0     H98230   7.521   2.573   7.780  1.0670 -0.5653 -1.3589
  728MOL0     H98231   7.450   2.408   7.576  0.2277 -1.8010 -3.8496
  728MOL0     H98232   7.479   2.440   7.213 -1.0257  3.8550  1.3056
  728MOL0     H98233   7.442   2.319   7.334 -1.2240 -1.2367 -1.3403
  728MOL0     H98234   7.255   2.381   7.160 -1.2632  2.6768 -0.0025
  728MOL0     H98235   7.225   2.524   7.256  1.1848  0.0994 -1.8321
  728MOL0     H98236   7.199   2.366   7.456 -1.2881  1.9381 -0.3277
  728MOL0     H98237   7.223   2.233   7.331  2.0564  1.3124 -1.8471
  728MOL0     H98238   6.999   2.236   7.387 -0.9012  0.6627 -0.2349
  728MOL0     H98239   7.007   2.304   7.227 -2.1791  1.6911 -0.1061
  728MOL0     H98240   6.801   2.291   7.248 -0.9210  0.6567 -0.5218
  728MOL0     H98241   6.607   2.214   7.157  0.2355 -1.8112  2.0478
  728MOL0     H98242   6.460   2.246   7.247 -0.5062  0.8005  0.0493
  728MOL0     H98243   6.517   2.366   7.129 -2.4282 -0.6838  0.6789
  728MOL0     H98244   6.319   2.705   7.691  0.3484  0.0216  0.1942
  728MOL0     H98245   6.093   2.813   7.723 -2.7600  0.2402 -1.3452
  728MOL0     H98246   5.884   2.869   7.752 -0.0293 -1.3832  0.7586
  728MOL0     H98247   5.886   2.908   7.573  0.3437 -1.5110 -0.4869
  728MOL0     H98248   5.685   2.983   7.656  0.4742 -0.0789  3.2907
  728MOL0     H98249   5.654   2.834   7.563  4.5790 -2.2028 -0.8461
  728MOL0     H98250   5.678   2.843   7.863 -1.5349  1.4019 -0.0959
  728MOL0     H98251   5.593   2.716   7.770  1.1710 -0.5054  0.5885
  728MOL0     H98252   5.483   2.999   7.787  0.9519  0.7670  1.7982
  728MOL0     H98253   5.401   2.851   7.738  2.2623  0.5021 -2.1557
  728MOL0     H98254   5.461   2.972   8.009 -0.4513  0.7551 -2.0817
  728MOL0     H98255   5.482   2.793   7.994 -1.4209 -0.4015  0.4599
  728MOL0     H98256   5.230   2.812   7.890 -1.1347  0.8864 -0.4526
  728MOL0     H98257   5.260   2.859   8.065 -1.7948  1.0076  0.8642
  728MOL0     H98258   5.262   3.076   7.855  2.3352 -1.5821  0.5649
  728MOL0     H98259   5.205   3.078   8.032 -0.2672 -0.9119  0.9309
  728MOL0     H98260   5.054   2.941   7.813 -0.2522  0.0511  0.1103
  728MOL0     H98261   5.020   3.106   7.859 -2.9754 -0.5347 -0.3156
  728MOL0     H98262   5.926   2.529   7.458 -0.4628  0.0527  0.6833
  728MOL0     H98263   6.144   2.432   7.425 -0.3444  0.7782 -1.7104
  728MOL0     H98264   6.620   2.632   7.538  0.8859 -0.2591 -0.3435
  728MOL0     H98265   6.841   2.601   7.537  0.6051  1.7374 -2.3093
  728MOL0     H98266   8.512   2.792   8.084  0.7634 -0.8733  1.4645
  728MOL0     H98267   8.747   2.836   8.109  0.7242  0.5642 -1.4784
  728MOL0     H98268   9.071   3.252   8.129 -1.9730 -2.3676 -0.9697
  728MOL0     H98269   9.279   3.339   8.196 -0.9053  2.1668  1.1537
  728MOL0     H98270   9.562   3.319   8.530 -0.6081  2.1959 -3.7915
  728MOL0     H98271   9.449   3.191   8.574 -2.6416 -0.0198 -2.0477
  728MOL0     H98272   9.568   3.049   8.381  0.9186 -0.9277  0.0843
  728MOL0     H98273   9.651   3.056   8.524 -0.6812 -0.7699 -1.2192
  728MOL0     H98274   9.788   3.255   8.454  1.3690 -1.4679  0.7353
  728MOL0     H98275   9.698   3.261   8.297  1.3734  1.0167  0.0137
  728MOL0     H98276   9.773   3.063   8.230 -0.2595  1.0449 -0.9373
  728MOL0     H98277   9.842   3.007   8.385 -1.7397  0.0545  0.1425
  728MOL0     H98278  10.144   3.253   8.231  1.1785 -1.0030  0.3968
  728MOL0     H98279   9.348   3.010   8.471  0.7153  0.1898 -0.3634
  728MOL0     H98280   9.145   2.912   8.413  4.4553  0.6694  2.1490
  729MOL0     O98281   2.823   1.181  10.318  0.1443 -0.3022  0.1599
  729MOL0     C98282   2.888   1.085  10.347 -0.8855 -1.0056 -0.3767
  729MOL0     O98283   2.853   0.993  10.442  0.0530 -0.4333 -0.7041
  729MOL0     C98284   2.743   1.022  10.519 -0.4530 -0.2839  0.5402
  729MOL0     C98285   2.763   1.031  10.654 -0.2039  0.6141 -0.1156
  729MOL0     C98286   2.658   1.067  10.735  0.4547 -0.1699 -0.1979
  729MOL0     C98287   2.531   1.087  10.685 -0.4529 -0.6021  0.4962
  729MOL0     O98288   2.429   1.136  10.761 -0.5154  0.1932  0.5451
  729MOL0     C98289   2.371   1.039  10.850  0.5678 -0.4338 -0.1357
  729MOL0     C98290   2.226   1.092  10.877 -0.3368  0.4232  0.0547
  729MOL0     C98291   2.138   0.970  10.906  0.1381 -0.0621 -0.1411
  729MOL0     C98292   1.995   0.998  10.859  0.3229 -0.4702 -0.3688
  729MOL0     C98293   1.921   1.098  10.954  0.4676 -0.7389  0.2066
  729MOL0     C98294   1.780   1.136  10.904 -0.0485 -0.1896  0.7527
  729MOL0     C98295   1.671   1.023  10.889 -0.1092 -0.4960 -0.5753
  729MOL0     C98296   1.533   1.089  10.881 -0.5275  0.6371 -1.1068
  729MOL0     N98297   1.429   0.981  10.855  0.4509  0.0502 -0.0856
  729MOL0     C98298   1.405   0.909  10.740  0.0211 -0.5392 -0.0756
  729MOL0     C98299   1.303   0.827  10.775 -0.0382 -0.2824 -0.0547
  729MOL0     C98300   1.228   0.738  10.678 -0.2594 -1.4154 -0.0655
  729MOL0     C98301   1.081   0.700  10.723 -0.4516 -0.0939 -0.2776
  729MOL0     C98302   1.068   0.590  10.831  0.0839 -0.9086  0.1791
  729MOL0     C98303   0.926   0.585  10.897  0.0431 -0.5101  0.1264
  729MOL0     O98304   0.818   0.601  10.792  0.1272 -0.6890 -0.0154
  729MOL0     C98305   0.694   0.626  10.846 -0.4760 -0.4372  0.2317
  729MOL0     C98306   0.583   0.649  10.766  0.3036  0.0988 -0.2983
  729MOL0     C98307   0.450   0.664  10.808  0.2341  0.3603  0.4760
  729MOL0     C98308   0.358   0.713  10.703  0.4081  0.6126  0.2933
  729MOL0     C98309   0.424   0.633  10.937  0.2915  0.0613  0.2350
  729MOL0     C98310   0.292   0.642  11.001 -0.4080  0.1906  0.2176
  729MOL0     O98311   0.292   0.661  11.138  0.3124  0.2504  0.3053
  729MOL0     C98312   0.177   0.693  11.198  0.3142  0.5581 -0.1246
  729MOL0     C98313   0.062   0.614  11.198 -0.8186  0.3759 -0.9162
  729MOL0     C98314  -0.052   0.644  11.279 -0.6305  0.1810 -0.3610
  729MOL0     C98315  -0.042   0.758  11.366  0.0029  0.5220  0.4580
  729MOL0     O98316  -0.145   0.788  11.454  0.8985 -0.0522  0.3844
  729MOL0     C98317  -0.278   0.768  11.398 -0.4467 -0.2404 -0.5612
  729MOL0     C98318  -0.383   0.835  11.491 -0.8778 -0.1615 -0.2074
  729MOL0     C98319  -0.522   0.788  11.457  0.4716  0.3725 -0.0478
  729MOL0     C98320  -0.556   0.650  11.514 -0.2682 -0.4165 -0.1455
  729MOL0     C98321  -0.705   0.617  11.493 -0.5206 -0.3669 -0.5116
  729MOL0     C98322  -0.733   0.473  11.546 -0.6441  0.2908  0.0458
  729MOL0     C98323  -0.782   0.476  11.690 -0.7666 -0.2468 -0.9158
  729MOL0     C98324  -0.823   0.338  11.742  0.4609  0.0692 -0.2606
  729MOL0    Cl98325  -0.989   0.276  11.695  0.1331 -0.0957  0.0137
  729MOL0     C98326   0.080   0.828  11.372  0.1138  0.5204 -1.7514
  729MOL0     C98327   0.184   0.804  11.289  0.0577  0.4182  0.2108
  729MOL0     O98328   0.191   0.633  10.931 -0.5809 -0.1022  0.0154
  729MOL0     C98329   0.530   0.603  11.018  0.7018 -0.2775  0.4300
  729MOL0     C98330   0.661   0.608  10.980 -0.7337  0.1551  0.8317
  729MOL0     N98331   1.264   0.859  10.909 -0.0566  0.0470 -0.2560
  729MOL0     N98332   1.341   0.955  10.955 -0.3309 -0.7346  0.0156
  729MOL0     C98333   2.509   1.076  10.552  0.7035  0.6471 -0.7139
  729MOL0     C98334   2.609   1.052  10.468 -0.6342  0.4768 -0.2110
  729MOL0     C98335   3.016   1.070  10.279 -0.0575 -0.4288 -0.7822
  729MOL0     C98336   3.107   0.984  10.325  0.7682  0.8097 -0.7380
  729MOL0     C98337   3.233   0.972  10.253  0.5882 -0.2201 -0.3102
  729MOL0     C98338   3.255   1.043  10.133 -1.1218  0.1121  0.1895
  729MOL0     O98339   3.380   1.049  10.067  0.3032  0.3894  0.8967
  729MOL0     C98340   3.491   0.986  10.131  0.0847 -0.7849  0.6904
  729MOL0     C98341   3.553   1.063  10.249 -0.5786 -0.3535  1.2964
  729MOL0     C98342   3.638   1.179  10.192  0.0009  0.2061  0.4787
  729MOL0     C98343   3.723   1.247  10.303 -0.5595 -0.5348  0.0055
  729MOL0     C98344   3.825   1.321  10.240 -0.3566  0.0083  0.4418
  729MOL0     C98345   3.916   1.366  10.174  0.3807  0.0906  1.0670
  729MOL0     C98346   3.156   1.125  10.083  1.1860  0.8943 -0.0781
  729MOL0     C98347   3.030   1.132  10.153 -0.5271  0.0024  0.5080
  729MOL0     H98348   2.855   1.014  10.710 -0.7389 -0.2717  0.5127
  729MOL0     H98349   2.666   1.091  10.840  1.2847  1.9339 -0.6967
  729MOL0     H98350   2.377   0.942  10.798 -0.5320 -0.3127 -0.5146
  729MOL0     H98351   2.428   1.023  10.942  0.7377 -0.7729 -0.2969
  729MOL0     H98352   2.229   1.167  10.956  0.0055  0.6447 -0.1643
  729MOL0     H98353   2.190   1.147  10.789  2.6815  0.1828 -1.4502
  729MOL0     H98354   2.172   0.880  10.853  1.7465  1.7477 -2.3664
  729MOL0     H98355   2.144   0.942  11.012 -2.6628 -2.6679 -0.5313
  729MOL0     H98356   1.979   1.035  10.757 -3.0694 -1.5788 -0.3933
  729MOL0     H98357   1.946   0.900  10.865 -1.4360  0.3460 -0.4881
  729MOL0     H98358   1.909   1.053  11.052 -5.0431  2.5978  1.5458
  729MOL0     H98359   1.975   1.192  10.968  3.7380 -2.1431 -1.8284
  729MOL0     H98360   1.749   1.217  10.971  0.3023  2.0600 -1.6637
  729MOL0     H98361   1.784   1.189  10.808 -0.3114 -1.6459 -0.0863
  729MOL0     H98362   1.698   0.960  10.804  2.7024 -0.7616  0.4225
  729MOL0     H98363   1.671   0.963  10.981 -0.4965  0.6170  0.1722
  729MOL0     H98364   1.523   1.158  10.797  2.0243 -0.8547 -2.7741
  729MOL0     H98365   1.522   1.132  10.981 -1.1187 -2.6419  0.3744
  729MOL0     H98366   1.445   0.909  10.638  0.3938 -1.8267  0.0414
  729MOL0     H98367   1.215   0.790  10.583  3.7047  1.5429  0.7727
  729MOL0     H98368   1.289   0.652  10.650 -0.2176 -1.2739 -0.4169
  729MOL0     H98369   1.029   0.681  10.628 -0.4700  1.9313 -0.7142
  729MOL0     H98370   1.040   0.794  10.760  0.2683  0.6821 -1.3823
  729MOL0     H98371   1.147   0.613  10.903 -0.8108  3.5519  0.0264
  729MOL0     H98372   1.085   0.492  10.784  0.4908  0.2054 -2.1610
  729MOL0     H98373   0.929   0.655  10.981  1.3840 -0.5391  0.1277
  729MOL0     H98374   0.906   0.492  10.952  0.3808  1.4741  3.9408
  729MOL0     H98375   0.598   0.659  10.659  2.5932  3.1878  0.1681
  729MOL0     H98376   0.308   0.799  10.749  0.8580 -0.4207  2.9082
  729MOL0     H98377   0.398   0.739  10.605  1.4804 -3.4263 -0.5479
  729MOL0     H98378   0.277   0.641  10.684  0.3012  0.8249 -0.0565
  729MOL0     H98379   0.054   0.521  11.143  0.3040 -0.2328 -0.0990
  729MOL0     H98380  -0.137   0.576  11.271 -0.7600  0.4014 -0.9173
  729MOL0     H98381  -0.283   0.807  11.295  3.7080  1.8427 -0.2079
  729MOL0     H98382  -0.302   0.662  11.399 -0.3288 -0.2637  0.8490
  729MOL0     H98383  -0.365   0.820  11.598 -1.1062 -0.9539 -0.2756
  729MOL0     H98384  -0.381   0.943  11.478  1.3323  0.1321  1.9274
  729MOL0     H98385  -0.544   0.789  11.349 -2.0928  0.2973  0.4278
  729MOL0     H98386  -0.592   0.862  11.497  1.1851  2.6453 -2.6665
  729MOL0     H98387  -0.487   0.572  11.481  1.2948  0.6311  0.4982
  729MOL0     H98388  -0.540   0.659  11.622  0.5160  0.1884 -0.2973
  729MOL0     H98389  -0.730   0.610  11.387  0.0410  1.2597 -0.7826
  729MOL0     H98390  -0.764   0.698  11.537  1.5431  0.0749  1.6530
  729MOL0     H98391  -0.813   0.429  11.486 -0.4607  0.7635 -0.5627
  729MOL0     H98392  -0.653   0.399  11.534 -0.9938 -0.2925  1.1945
  729MOL0     H98393  -0.871   0.538  11.705 -0.2354 -0.0283  2.1249
  729MOL0     H98394  -0.713   0.523  11.760 -2.5620  0.5359  0.4217
  729MOL0     H98395  -0.818   0.338  11.851 -3.5153 -1.0655  0.0893
  729MOL0     H98396  -0.758   0.262  11.699 -2.0129 -3.7764  2.1786
  729MOL0     H98397   0.075   0.913  11.440  0.0750 -1.7047  1.2371
  729MOL0     H98398   0.267   0.873  11.290 -0.2766  1.1918  5.7396
  729MOL0     H98399   0.511   0.579  11.123  1.3308 -2.0741  0.1556
  729MOL0     H98400   0.735   0.587  11.057  0.0173 -3.1445 -0.5877
  729MOL0     H98401   2.411   1.100  10.512 -0.0518 -3.6212 -1.8873
  729MOL0     H98402   2.595   1.049  10.360 -0.7971 -0.7595 -0.1615
  729MOL0     H98403   3.081   0.924  10.412 -0.8337 -1.6182 -2.7849
  729MOL0     H98404   3.308   0.909  10.300  1.5350  1.7342  0.9636
  729MOL0     H98405   3.477   0.883  10.164  0.6799 -1.7144 -1.7271
  729MOL0     H98406   3.572   0.978  10.058  0.4425  0.5220  0.9129
  729MOL0     H98407   3.611   0.987  10.301  3.7724  0.2985 -2.0471
  729MOL0     H98408   3.468   1.105  10.304 -2.4146 -0.5268 -1.2381
  729MOL0     H98409   3.581   1.255  10.140 -2.7605 -2.1252 -0.1556
  729MOL0     H98410   3.709   1.140  10.118  1.2353  1.2668  1.0612
  729MOL0     H98411   3.755   1.168  10.372 -2.6662 -2.5125 -1.1554
  729MOL0     H98412   3.670   1.319  10.367  0.7367 -2.0544  2.9495
  729MOL0     H98413   3.993   1.414  10.117  0.9278 -0.5081  1.2794
  729MOL0     H98414   3.164   1.188   9.995 -0.1295  1.7481  0.3810
  729MOL0     H98415   2.953   1.192  10.105  1.4696  0.5711 -2.2522
  730MOL0     O98416   0.463   4.267   2.683  0.1013 -0.1005 -0.0226
  730MOL0     C98417   0.543   4.342   2.738 -0.8840  0.0710 -0.3991
  730MOL0     O98418   0.509   4.434   2.833  0.0027  0.9330 -0.5038
  730MOL0     C98419   0.388   4.425   2.900  0.5231 -0.2659  0.5340
  730MOL0     C98420   0.299   4.530   2.893  0.0071 -0.1752  0.4492
  730MOL0     C98421   0.169   4.530   2.948 -0.0672  0.4685  1.0247
  730MOL0     C98422   0.121   4.409   3.005  0.0351  0.4024 -0.1282
  730MOL0     O98423  -0.003   4.406   3.058  0.1712 -0.0715 -0.5122
  730MOL0     C98424  -0.025   4.312   3.163 -0.1775  0.8412 -1.4675
  730MOL0     C98425  -0.151   4.351   3.236 -0.1616 -0.2497 -0.2913
  730MOL0     C98426  -0.282   4.343   3.157  0.0010  0.4383 -0.6061
  730MOL0     C98427  -0.384   4.444   3.202  0.1487 -0.2195 -0.5392
  730MOL0     C98428  -0.522   4.406   3.148 -0.6575 -0.9841  0.2936
  730MOL0     C98429  -0.618   4.520   3.130  0.0761 -0.2177 -0.1283
  730MOL0     C98430  -0.616   4.625   3.242  0.5702  0.3483 -1.0018
  730MOL0     C98431  -0.719   4.739   3.240 -0.7964  0.5916  0.4119
  730MOL0     N98432  -0.856   4.686   3.232 -0.1353 -0.4032  0.2353
  730MOL0     C98433  -0.932   4.641   3.339  0.4251 -0.1768  0.7813
  730MOL0     C98434  -1.057   4.622   3.291  0.3877  0.4527  0.6145
  730MOL0     C98435  -1.178   4.571   3.357 -0.1259  0.0310 -0.3018
  730MOL0     C98436  -1.259   4.699   3.387 -0.1816  0.2610 -0.5049
  730MOL0     C98437  -1.394   4.654   3.441  1.0329 -0.7135  0.6647
  730MOL0     C98438  -1.505   4.758   3.420  0.6071 -0.2801  0.0580
  730MOL0     O98439  -1.536   4.760   3.284  0.4674  0.1663  0.8325
  730MOL0     C98440  -1.641   4.841   3.249  0.2687 -0.1553  0.1059
  730MOL0     C98441  -1.708   4.928   3.338  0.2493 -0.1662  0.4578
  730MOL0     C98442  -1.809   5.013   3.289  0.4056 -0.5948  1.0338
  730MOL0     C98443  -1.874   5.105   3.394 -0.6653 -0.1087 -0.8017
  730MOL0     C98444  -1.847   5.015   3.148  0.1090  0.6968  0.1125
  730MOL0     C98445  -1.945   5.109   3.083 -0.2721 -0.9174  0.0044
  730MOL0     O98446  -1.984   5.213   3.162 -0.4213 -0.1329  0.6373
  730MOL0     C98447  -2.097   5.299   3.141 -0.1662  1.0142 -0.2546
  730MOL0     C98448  -2.114   5.363   3.015  0.0302  0.1575 -0.3825
  730MOL0     C98449  -2.226   5.438   2.999  0.1537  0.1171 -0.0029
  730MOL0     C98450  -2.322   5.447   3.104  0.6975  0.7250  0.2448
  730MOL0     O98451  -2.447   5.513   3.098  0.1187  0.1074  0.6406
  730MOL0     C98452  -2.455   5.616   2.990  0.7247  0.1413 -0.8128
  730MOL0     C98453  -2.603   5.665   2.993  0.0033  0.0044  0.0670
  730MOL0     C98454  -2.642   5.707   3.141 -0.8591  0.4770  0.3764
  730MOL0     C98455  -2.784   5.767   3.144  0.4055  0.6455 -0.1250
  730MOL0     C98456  -2.841   5.777   3.288 -0.4904  0.4926 -0.0089
  730MOL0     C98457  -2.999   5.787   3.281  0.0268  0.7278 -0.7580
  730MOL0     C98458  -3.052   5.814   3.423 -0.2085  0.5670 -1.2557
  730MOL0     C98459  -3.189   5.747   3.454  1.7260  0.6423  0.0713
  730MOL0    Cl98460  -3.199   5.747   3.635  0.3424 -0.0850 -0.6849
  730MOL0     C98461  -2.296   5.394   3.224 -0.4195  0.6116 -0.0807
  730MOL0     C98462  -2.185   5.315   3.251  0.0102 -1.3031 -0.2498
  730MOL0     O98463  -1.986   5.086   2.969  0.4188  0.0973 -0.0659
  730MOL0     C98464  -1.784   4.912   3.070 -0.7133 -0.4595  0.3493
  730MOL0     C98465  -1.675   4.837   3.115 -0.2564 -0.2361  0.3911
  730MOL0     N98466  -1.056   4.663   3.156  0.4586 -0.4352 -0.2858
  730MOL0     N98467  -0.933   4.701   3.123 -0.8116  0.1780 -0.2389
  730MOL0     C98468   0.206   4.294   3.005  0.4864 -0.2535 -0.5910
  730MOL0     C98469   0.338   4.305   2.958 -0.9580 -0.6601  0.2070
  730MOL0     C98470   0.686   4.328   2.693 -0.2853 -0.0458  0.0722
  730MOL0     C98471   0.730   4.231   2.603  0.3770 -0.6266 -0.4269
  730MOL0     C98472   0.866   4.219   2.577  0.4223  0.0594 -0.0198
  730MOL0     C98473   0.966   4.310   2.632  0.8536 -0.2861  0.3463
  730MOL0     O98474   1.103   4.298   2.612 -0.1434 -0.4146 -0.3139
  730MOL0     C98475   1.166   4.168   2.636  0.1219  0.6918  0.1985
  730MOL0     C98476   1.168   4.132   2.791 -0.3826  0.0927 -0.3731
  730MOL0     C98477   1.269   4.222   2.869 -0.0924 -0.1979  0.6038
  730MOL0     C98478   1.294   4.152   3.001  0.1295  0.1101  0.5805
  730MOL0     C98479   1.353   4.256   3.088 -0.3617  0.7644  0.3013
  730MOL0     C98480   1.413   4.325   3.167  0.6454 -0.1709  0.3297
  730MOL0     C98481   0.912   4.407   2.725 -0.9211 -0.6510  0.0010
  730MOL0     C98482   0.781   4.423   2.754  0.8373  0.3975  0.0440
  730MOL0     H98483   0.335   4.619   2.843  0.2522 -0.2710  0.4520
  730MOL0     H98484   0.104   4.617   2.942  0.8158  1.1076  0.4186
  730MOL0     H98485  -0.046   4.212   3.124  0.2653 -0.7190  1.9006
  730MOL0     H98486   0.057   4.307   3.235 -2.7759  0.5539  1.7143
  730MOL0     H98487  -0.164   4.279   3.318 -0.9048 -1.4859 -1.4553
  730MOL0     H98488  -0.129   4.452   3.271 -2.7944  0.4872 -0.5150
  730MOL0     H98489  -0.266   4.361   3.050 -3.7867 -0.0462 -1.3869
  730MOL0     H98490  -0.329   4.246   3.174  0.6463  0.4015  1.2665
  730MOL0     H98491  -0.398   4.455   3.310  0.8406  1.3184 -0.5756
  730MOL0     H98492  -0.346   4.540   3.166  2.0906  0.6715  3.3197
  730MOL0     H98493  -0.504   4.359   3.050 -0.4402  1.2989 -0.8438
  730MOL0     H98494  -0.561   4.335   3.220 -1.4691  1.3365  2.2569
  730MOL0     H98495  -0.594   4.582   3.043  1.2351  0.9711  0.9922
  730MOL0     H98496  -0.718   4.478   3.122  0.0992 -0.2508 -0.2389
  730MOL0     H98497  -0.637   4.575   3.338 -2.1067 -0.5098 -1.9452
  730MOL0     H98498  -0.518   4.672   3.252  0.1166  1.1273  0.0347
  730MOL0     H98499  -0.690   4.812   3.164 -1.4730  0.7987  0.3468
  730MOL0     H98500  -0.709   4.786   3.338 -2.1983  0.4327  0.6422
  730MOL0     H98501  -0.887   4.622   3.436  0.3790 -0.3646  0.7667
  730MOL0     H98502  -1.234   4.500   3.297 -0.1815 -1.5023  1.4655
  730MOL0     H98503  -1.156   4.519   3.451  0.4431 -0.1721 -0.5449
  730MOL0     H98504  -1.269   4.748   3.290  3.0905  1.1753 -0.4979
  730MOL0     H98505  -1.210   4.767   3.458 -1.1530  0.0773  0.3557
  730MOL0     H98506  -1.389   4.632   3.548  0.1365 -3.1995  0.2692
  730MOL0     H98507  -1.426   4.563   3.388  0.1918 -1.5149  2.4428
  730MOL0     H98508  -1.486   4.858   3.462 -2.7707  2.4931 -4.1306
  730MOL0     H98509  -1.596   4.721   3.468  0.4697  2.0585  1.7961
  730MOL0     H98510  -1.686   4.935   3.444 -1.0425  1.2753  0.6689
  730MOL0     H98511  -1.840   5.208   3.378  4.4528 -1.5811 -1.1261
  730MOL0     H98512  -1.983   5.099   3.396 -0.8752  2.5816  1.1580
  730MOL0     H98513  -1.841   5.079   3.496 -1.0090 -0.4808 -0.7849
  730MOL0     H98514  -2.030   5.355   2.946 -0.6818 -0.6838 -1.1720
  730MOL0     H98515  -2.243   5.486   2.903  0.1188 -1.2806 -0.7187
  730MOL0     H98516  -2.387   5.698   3.013 -0.1688  0.3947  1.1512
  730MOL0     H98517  -2.426   5.584   2.890  1.8375 -0.1650 -0.4082
  730MOL0     H98518  -2.611   5.753   2.929  2.1593  2.5371  2.9699
  730MOL0     H98519  -2.666   5.589   2.946  0.6353  0.5871 -1.8327
  730MOL0     H98520  -2.573   5.781   3.183 -0.0809  0.1709 -0.3325
  730MOL0     H98521  -2.636   5.619   3.206 -1.1593 -0.5520 -0.9588
  730MOL0     H98522  -2.780   5.865   3.096  3.0937  0.1129 -1.1616
  730MOL0     H98523  -2.851   5.698   3.092  1.0155  0.0329 -0.1153
  730MOL0     H98524  -2.795   5.864   3.337 -0.7706  1.4250 -1.3449
  730MOL0     H98525  -2.823   5.687   3.347 -0.9276  0.6856  0.4235
  730MOL0     H98526  -3.028   5.862   3.208  0.3753 -0.8537 -2.6016
  730MOL0     H98527  -3.035   5.689   3.248  3.2762 -0.7199 -0.3520
  730MOL0     H98528  -3.049   5.922   3.436 -0.5655  0.5042 -0.6021
  730MOL0     H98529  -2.976   5.777   3.492 -2.4377 -1.0388  0.4981
  730MOL0     H98530  -3.200   5.644   3.418  1.0010  0.5218  0.6186
  730MOL0     H98531  -3.271   5.804   3.409  1.2618 -0.2096 -0.1908
  730MOL0     H98532  -2.373   5.410   3.298  0.0975  0.7692  0.4314
  730MOL0     H98533  -2.163   5.274   3.349 -1.2394 -0.5941  0.3424
  730MOL0     H98534  -1.806   4.908   2.964 -0.7040  4.2006 -0.0734
  730MOL0     H98535  -1.621   4.771   3.046  0.3452  0.3331  0.3048
  730MOL0     H98536   0.157   4.200   3.029  0.9883  0.2307  2.7840
  730MOL0     H98537   0.409   4.224   2.950 -2.5825 -2.0458 -0.6950
  730MOL0     H98538   0.667   4.149   2.569 -3.2649  1.6542  0.2192
  730MOL0     H98539   0.893   4.139   2.510 -1.2955 -1.2051  0.7301
  730MOL0     H98540   1.123   4.083   2.582  1.9869  1.7726 -3.3012
  730MOL0     H98541   1.268   4.162   2.598  0.0624 -3.6848  0.1487
  730MOL0     H98542   1.197   4.027   2.802  1.9820  0.8665  1.6558
  730MOL0     H98543   1.069   4.139   2.836 -1.0571 -2.4998 -1.2541
  730MOL0     H98544   1.219   4.319   2.865 -2.3227 -1.3519 -1.6944
  730MOL0     H98545   1.360   4.225   2.809  0.1150  2.7938  0.9132
  730MOL0     H98546   1.351   4.059   2.996 -0.6045 -0.3171  0.0103
  730MOL0     H98547   1.195   4.127   3.040 -0.8040  2.9404  0.3251
  730MOL0     H98548   1.470   4.376   3.242  1.4158  0.5611 -0.7209
  730MOL0     H98549   0.983   4.481   2.760  0.9696 -2.0130 -0.7827
  730MOL0     H98550   0.738   4.499   2.819  0.8461 -1.1309  1.9283
  731MOL0     O98551   7.521   1.311   0.611 -0.0646  0.3338  0.4259
  731MOL0     C98552   7.577   1.404   0.673 -0.4323  0.2867 -0.2033
  731MOL0     O98553   7.526   1.530   0.700 -0.1128 -0.3036 -0.1703
  731MOL0     C98554   7.401   1.570   0.660  1.3833 -0.3414  0.4972
  731MOL0     C98555   7.311   1.517   0.558  0.4271  0.2301  0.0190
  731MOL0     C98556   7.194   1.585   0.529  0.1783 -0.6232 -0.5053
  731MOL0     C98557   7.151   1.701   0.597 -0.0699  0.3701  1.4731
  731MOL0     O98558   7.030   1.755   0.554 -0.9199 -0.1156 -0.8152
  731MOL0     C98559   6.958   1.836   0.657 -0.0563 -0.8534  0.1673
  731MOL0     C98560   6.903   1.750   0.769  0.3288 -0.6570 -0.4153
  731MOL0     C98561   6.799   1.828   0.848 -0.7289 -0.5285 -0.5336
  731MOL0     C98562   6.846   1.958   0.922 -0.8264 -0.0775 -0.2842
  731MOL0     C98563   6.737   2.059   0.938 -0.8127  0.3708 -0.3942
  731MOL0     C98564   6.780   2.175   1.025 -0.0348  0.9378 -0.3586
  731MOL0     C98565   6.677   2.292   1.001 -0.2616  0.2777 -0.1918
  731MOL0     C98566   6.527   2.258   1.036  0.0032 -0.5492  0.3756
  731MOL0     N98567   6.437   2.378   1.034 -0.3996  0.3936  0.2002
  731MOL0     C98568   6.443   2.487   1.116  0.1993  0.5246  0.0725
  731MOL0     C98569   6.354   2.577   1.067  0.7207 -0.4408  0.8084
  731MOL0     C98570   6.321   2.722   1.118 -0.0193  0.0507 -0.0323
  731MOL0     C98571   6.339   2.726   1.271 -0.8029  0.7205 -0.5517
  731MOL0     C98572   6.336   2.864   1.330 -0.3219  0.8317 -0.2127
  731MOL0     C98573   6.453   2.939   1.299 -0.0754 -0.2695  0.6252
  731MOL0     O98574   6.573   2.879   1.350  0.2343 -0.0438 -0.5427
  731MOL0     C98575   6.690   2.952   1.342 -0.7785  0.6048  0.9380
  731MOL0     C98576   6.799   2.881   1.407 -0.1740 -0.2230  0.2704
  731MOL0     C98577   6.920   2.956   1.419  0.1898  1.1115  0.7203
  731MOL0     C98578   7.023   2.880   1.487  0.0951 -0.4081  0.1822
  731MOL0     C98579   6.929   3.089   1.368 -0.8975 -0.1464  0.2755
  731MOL0     C98580   7.059   3.158   1.380 -0.0087 -0.4926 -0.0893
  731MOL0     O98581   7.120   3.150   1.502 -0.0785 -0.2677 -0.0792
  731MOL0     C98582   7.246   3.213   1.513  1.2680 -0.0357  0.0595
  731MOL0     C98583   7.354   3.130   1.513  0.1107  0.5941  0.9613
  731MOL0     C98584   7.487   3.182   1.536  0.3046 -0.1506 -0.8838
  731MOL0     C98585   7.501   3.328   1.547 -1.3258  0.3197 -1.1609
  731MOL0     O98586   7.616   3.390   1.586 -0.1161 -0.5859 -0.5717
  731MOL0     C98587   7.734   3.330   1.627  0.5873 -0.4051  0.0401
  731MOL0     C98588   7.720   3.279   1.773 -0.3736  0.3617 -0.1937
  731MOL0     C98589   7.842   3.187   1.794 -0.1785 -0.4783  0.1521
  731MOL0     C98590   7.844   3.126   1.942  0.6645  0.4151  0.8617
  731MOL0     C98591   7.958   3.021   1.948  0.2686  1.0422 -0.5710
  731MOL0     C98592   8.092   3.058   1.903 -0.3177  0.6919  0.0127
  731MOL0     C98593   8.146   3.183   1.970  0.8961 -0.5992  0.2267
  731MOL0     C98594   8.289   3.171   1.988  0.2453 -0.3369 -0.2619
  731MOL0    Cl98595   8.356   3.310   2.080 -0.0992  0.0062 -0.3315
  731MOL0     C98596   7.388   3.405   1.535  0.3486 -0.0193 -0.0046
  731MOL0     C98597   7.259   3.350   1.522 -0.0257  0.2517  0.6265
  731MOL0     O98598   7.104   3.226   1.285 -0.1256 -0.4357  0.6458
  731MOL0     C98599   6.826   3.145   1.298  0.1623 -0.5867  0.4558
  731MOL0     C98600   6.702   3.083   1.291 -0.6040 -0.6721 -0.6121
  731MOL0     N98601   6.296   2.519   0.952 -0.2608  0.4136 -0.2181
  731MOL0     N98602   6.344   2.401   0.936  0.4029  0.0052 -0.0243
  731MOL0     C98603   7.239   1.753   0.697  0.5523  0.2577 -0.2549
  731MOL0     C98604   7.358   1.686   0.735 -0.1825  0.3047 -0.2261
  731MOL0     C98605   7.712   1.384   0.721 -0.4165  0.5172 -0.7246
  731MOL0     C98606   7.761   1.474   0.816  0.1602  0.2000  0.2686
  731MOL0     C98607   7.888   1.442   0.869  0.2257  0.1150  0.2586
  731MOL0     C98608   7.961   1.332   0.833 -0.2600  0.3161  1.2000
  731MOL0     O98609   8.095   1.334   0.876 -0.7067  0.3178  0.3895
  731MOL0     C98610   8.161   1.210   0.890 -0.1907  0.2530 -0.9502
  731MOL0     C98611   8.259   1.221   0.997 -0.4619  0.1313 -0.8055
  731MOL0     C98612   8.346   1.088   1.004 -0.1849 -0.0598 -0.0297
  731MOL0     C98613   8.471   1.094   1.090 -0.0882 -0.8128  0.2428
  731MOL0     C98614   8.555   1.208   1.032 -0.3680  0.4607  0.3884
  731MOL0     C98615   8.605   1.313   0.987 -0.2590  0.3543  0.6172
  731MOL0     C98616   7.914   1.251   0.726 -0.7921 -0.9785 -0.1799
  731MOL0     C98617   7.788   1.270   0.677 -0.0056  0.5539 -0.1176
  731MOL0     H98618   7.344   1.435   0.496 -1.8336  0.7693 -2.0194
  731MOL0     H98619   7.127   1.557   0.448 -1.0563  0.7015  0.0064
  731MOL0     H98620   7.027   1.903   0.709 -1.5279  0.4564  0.4944
  731MOL0     H98621   6.882   1.890   0.600 -0.6477 -0.2752  1.4630
  731MOL0     H98622   6.853   1.664   0.724  0.9312 -0.4271 -1.5709
  731MOL0     H98623   6.987   1.714   0.829  0.2543 -1.9284 -1.0635
  731MOL0     H98624   6.708   1.842   0.788 -0.3441  1.2868 -0.7620
  731MOL0     H98625   6.776   1.760   0.931 -1.3807  1.1607  0.7376
  731MOL0     H98626   6.891   1.934   1.019  1.5229  2.8269 -0.4887
  731MOL0     H98627   6.927   2.007   0.867  1.5606  2.0733  4.5550
  731MOL0     H98628   6.708   2.107   0.844  1.6458 -1.8849 -2.4479
  731MOL0     H98629   6.648   2.018   0.987  0.0535  0.3449  1.2277
  731MOL0     H98630   6.768   2.147   1.130 -2.3549 -1.0561 -1.0631
  731MOL0     H98631   6.885   2.192   0.999  0.4136 -1.9331 -0.7615
  731MOL0     H98632   6.718   2.376   1.057 -1.4747  0.1851  0.8924
  731MOL0     H98633   6.683   2.324   0.897 -0.8878  1.9636  0.2571
  731MOL0     H98634   6.528   2.219   1.138 -0.8341 -0.0434  0.5882
  731MOL0     H98635   6.480   2.178   0.979 -1.9740  0.2784  0.7554
  731MOL0     H98636   6.497   2.513   1.206 -0.8052  0.7854  0.6209
  731MOL0     H98637   6.391   2.786   1.063 -2.2230  1.3392 -1.4511
  731MOL0     H98638   6.222   2.756   1.087 -0.7017 -0.1882  1.7527
  731MOL0     H98639   6.431   2.678   1.305 -2.5290 -1.9624  0.6880
  731MOL0     H98640   6.261   2.665   1.319  0.8351 -0.3659  0.8523
  731MOL0     H98641   6.321   2.854   1.438 -0.4428  0.3441 -0.2737
  731MOL0     H98642   6.248   2.915   1.289  1.0305  1.7476 -2.0958
  731MOL0     H98643   6.443   3.040   1.341  2.3144 -0.8100  2.7914
  731MOL0     H98644   6.466   2.950   1.191 -0.5990 -2.1501  0.3414
  731MOL0     H98645   6.787   2.779   1.441  1.3743 -1.0039 -1.3843
  731MOL0     H98646   7.120   2.893   1.440  0.0720 -0.8273  0.0213
  731MOL0     H98647   7.026   2.891   1.596  0.5845 -1.0957  0.2459
  731MOL0     H98648   6.987   2.778   1.470 -0.4516 -0.2844  0.5731
  731MOL0     H98649   7.331   3.026   1.493 -2.8002  0.9723  1.8321
  731MOL0     H98650   7.581   3.128   1.529  0.8207  0.8201 -1.6363
  731MOL0     H98651   7.756   3.245   1.562  2.0431 -1.4032  1.7314
  731MOL0     H98652   7.822   3.393   1.618  1.0388 -0.9756  0.4204
  731MOL0     H98653   7.729   3.366   1.839 -0.3604  0.1949  0.0261
  731MOL0     H98654   7.626   3.227   1.791 -0.4632  0.7145  0.3772
  731MOL0     H98655   7.940   3.232   1.775 -0.3299 -0.9512 -2.0592
  731MOL0     H98656   7.841   3.093   1.737  0.4937 -3.2216  4.2342
  731MOL0     H98657   7.860   3.209   2.012 -1.8417  2.6462 -1.0013
  731MOL0     H98658   7.743   3.089   1.960  0.1249  1.6603  0.5592
  731MOL0     H98659   7.932   2.937   1.882  0.5479  2.5547 -2.6962
  731MOL0     H98660   7.959   2.989   2.053 -2.9416 -1.8841 -1.2475
  731MOL0     H98661   8.156   2.977   1.939  1.7373  1.6426 -1.3508
  731MOL0     H98662   8.089   3.067   1.794 -2.1761  0.6096  0.0156
  731MOL0     H98663   8.100   3.187   2.069 -1.0709  0.6885 -0.6698
  731MOL0     H98664   8.127   3.276   1.915 -0.2706 -0.2405  1.2044
  731MOL0     H98665   8.341   3.162   1.892  2.8173 -1.8513  1.1278
  731MOL0     H98666   8.313   3.078   2.041 -0.8612  0.0683  1.0049
  731MOL0     H98667   7.397   3.512   1.550  2.4833  0.0579 -1.3702
  731MOL0     H98668   7.171   3.414   1.507  0.2651  0.5618  0.2015
  731MOL0     H98669   6.842   3.241   1.250 -3.3851  0.1543  0.5048
  731MOL0     H98670   6.613   3.125   1.245 -1.6355 -3.0998 -0.9589
  731MOL0     H98671   7.209   1.835   0.762 -0.2720 -1.5153  1.7286
  731MOL0     H98672   7.419   1.729   0.814  1.9061 -2.3543 -0.2234
  731MOL0     H98673   7.714   1.564   0.854 -0.2624  0.6055 -1.1298
  731MOL0     H98674   7.927   1.517   0.938 -1.4380 -0.0109  1.4179
  731MOL0     H98675   8.092   1.128   0.911  2.1967 -1.6360 -0.0946
  731MOL0     H98676   8.205   1.177   0.796  0.1745  0.8009 -0.9773
  731MOL0     H98677   8.198   1.227   1.087  0.9299 -0.8355  0.2541
  731MOL0     H98678   8.310   1.315   0.975  2.8563 -0.9079  1.6217
  731MOL0     H98679   8.371   1.062   0.901 -0.6894  1.1498 -0.4708
  731MOL0     H98680   8.285   1.007   1.044 -1.2822 -0.3008 -2.0651
  731MOL0     H98681   8.530   1.002   1.090  1.3159  0.0475  1.3610
  731MOL0     H98682   8.456   1.113   1.196  0.1052 -3.9142  0.9031
  731MOL0     H98683   8.644   1.393   0.927  0.5029  0.4489  1.2189
  731MOL0     H98684   7.974   1.171   0.683  0.9229  1.3100 -2.3631
  731MOL0     H98685   7.743   1.210   0.599 -0.5275 -0.2507  0.7702
  732MOL0     O98686   2.387   3.555   9.956 -0.7807  0.6569  0.1404
  732MOL0     C98687   2.432   3.518   9.842  0.6958  0.7498  0.2536
  732MOL0     O98688   2.359   3.443   9.757 -0.2114 -0.4989  0.1495
  732MOL0     C98689   2.221   3.433   9.778  0.4627 -0.6814 -0.3496
  732MOL0     C98690   2.145   3.554   9.788  0.4874  0.8290 -0.3195
  732MOL0     C98691   2.010   3.556   9.793  0.2091  0.2958  0.1879
  732MOL0     C98692   1.940   3.434   9.758 -0.3144 -0.9628 -0.7349
  732MOL0     O98693   1.806   3.456   9.764  0.4705  0.1370  0.1594
  732MOL0     C98694   1.710   3.347   9.754 -0.3828 -0.0734  0.4685
  732MOL0     C98695   1.572   3.412   9.711 -0.4702  0.3758  0.2879
  732MOL0     C98696   1.467   3.306   9.673 -0.3347 -0.3614 -0.5638
  732MOL0     C98697   1.330   3.371   9.658 -0.8037  0.0288 -0.5086
  732MOL0     C98698   1.220   3.269   9.638  0.0705  0.0971  0.1301
  732MOL0     C98699   1.181   3.191   9.769  0.7056 -0.1731  1.3044
  732MOL0     C98700   1.073   3.090   9.746  0.2652 -0.6373  0.0573
  732MOL0     C98701   0.954   3.125   9.656  0.0048 -0.6831  0.0125
  732MOL0     N98702   0.864   3.224   9.728 -0.2376 -0.0290 -0.2504
  732MOL0     C98703   0.768   3.198   9.817 -0.4098 -0.7220 -0.7085
  732MOL0     C98704   0.732   3.325   9.854  0.6777 -0.2577  0.6816
  732MOL0     C98705   0.609   3.342   9.936  0.6242 -0.3776 -0.4413
  732MOL0     C98706   0.496   3.316   9.847  0.6832  0.2834 -0.8760
  732MOL0     C98707   0.367   3.329   9.930 -0.8066 -0.3312 -0.2441
  732MOL0     C98708   0.242   3.310   9.842 -0.4572  0.5394  0.4226
  732MOL0     O98709   0.206   3.432   9.784 -0.1723 -0.2326 -0.1657
  732MOL0     C98710   0.100   3.408   9.700  0.0227 -0.1146 -0.6836
  732MOL0     C98711   0.083   3.509   9.609  0.1719 -0.3256 -0.2632
  732MOL0     C98712  -0.022   3.499   9.512 -0.1579  0.2887 -0.8139
  732MOL0     C98713  -0.021   3.610   9.423 -0.5815 -0.6211 -0.2753
  732MOL0     C98714  -0.106   3.383   9.498 -0.0573  0.9056 -0.1472
  732MOL0     C98715  -0.201   3.350   9.389  0.2623 -0.0968 -0.1132
  732MOL0     O98716  -0.184   3.409   9.268  0.3422 -0.3531 -0.5393
  732MOL0     C98717  -0.278   3.389   9.177  0.6008  0.0471  0.5589
  732MOL0     C98718  -0.324   3.262   9.120  0.1336 -0.2633 -0.0432
  732MOL0     C98719  -0.443   3.249   9.038 -0.6507 -0.4520  0.9325
  732MOL0     C98720  -0.505   3.371   8.998  0.2618 -0.2463 -0.0091
  732MOL0     O98721  -0.620   3.349   8.920 -0.7225 -0.4888  0.2436
  732MOL0     C98722  -0.727   3.436   8.949  1.2080  0.0880  0.3556
  732MOL0     C98723  -0.868   3.383   8.919  0.1242 -0.2413  0.3105
  732MOL0     C98724  -0.918   3.421   8.777 -0.4653 -0.3845 -0.1843
  732MOL0     C98725  -0.869   3.309   8.680 -0.0058 -0.4330 -0.1623
  732MOL0     C98726  -0.911   3.355   8.539 -0.4799  0.1636 -0.0451
  732MOL0     C98727  -0.881   3.251   8.430 -0.6138 -0.1489 -0.0399
  732MOL0     C98728  -0.729   3.248   8.388 -0.1347 -0.5378  0.2973
  732MOL0     C98729  -0.700   3.121   8.305 -0.0484  0.2896  0.3428
  732MOL0    Cl98730  -0.784   3.124   8.145 -0.1432  0.0374  0.0690
  732MOL0     C98731  -0.458   3.490   9.042 -0.1506 -0.2593 -0.0249
  732MOL0     C98732  -0.347   3.498   9.126 -0.2976  0.8841 -0.0552
  732MOL0     O98733  -0.289   3.276   9.420  0.1890  0.2732 -0.4789
  732MOL0     C98734  -0.087   3.287   9.600 -0.3346 -0.0959  0.3271
  732MOL0     C98735   0.010   3.301   9.699 -0.6046  0.1375  0.1154
  732MOL0     N98736   0.814   3.422   9.788  0.9316 -0.2532 -0.0667
  732MOL0     N98737   0.894   3.358   9.713 -0.9087 -0.5439 -0.3622
  732MOL0     C98738   2.011   3.314   9.731 -0.0435  1.0845 -0.2435
  732MOL0     C98739   2.150   3.316   9.739 -0.0737  0.7936 -0.1401
  732MOL0     C98740   2.579   3.514   9.826 -0.5474  0.0040 -0.0919
  732MOL0     C98741   2.625   3.477   9.698  0.3782 -0.0550 -0.4957
  732MOL0     C98742   2.764   3.467   9.665  0.0725 -0.8977 -0.2655
  732MOL0     C98743   2.859   3.503   9.757 -0.3031  0.5730  0.3338
  732MOL0     O98744   2.994   3.486   9.719 -0.0961 -0.0453  0.1893
  732MOL0     C98745   3.101   3.557   9.793 -0.1518 -0.3523  0.1612
  732MOL0     C98746   3.224   3.569   9.706 -0.2548  0.3643 -0.0411
  732MOL0     C98747   3.354   3.506   9.772 -0.1363  0.0368  1.3660
  732MOL0     C98748   3.482   3.525   9.680 -0.0594  0.2184  0.3043
  732MOL0     C98749   3.598   3.460   9.753 -0.2447  0.3240 -0.0515
  732MOL0     C98750   3.697   3.416   9.803 -0.5344  0.0903 -0.1495
  732MOL0     C98751   2.816   3.544   9.885 -0.6723  1.2387  0.9315
  732MOL0     C98752   2.681   3.543   9.920  0.1452 -0.5521 -1.0397
  732MOL0     H98753   2.192   3.652   9.785  2.6040 -0.1270 -0.0744
  732MOL0     H98754   1.960   3.651   9.811  0.0163  0.0151  1.1918
  732MOL0     H98755   1.733   3.267   9.683  0.8614  2.2345 -1.9348
  732MOL0     H98756   1.714   3.318   9.859 -1.8738  0.8823  0.8330
  732MOL0     H98757   1.522   3.465   9.792 -0.4717 -0.5157  0.8800
  732MOL0     H98758   1.589   3.475   9.623  0.7470  1.1190  1.0245
  732MOL0     H98759   1.494   3.253   9.582  0.9710 -0.7942  0.0504
  732MOL0     H98760   1.476   3.228   9.750  0.3816 -0.2282 -0.4994
  732MOL0     H98761   1.315   3.428   9.750  0.9178  2.1067 -1.4163
  732MOL0     H98762   1.333   3.433   9.568 -0.2127  0.8473  0.0655
  732MOL0     H98763   1.135   3.328   9.603  1.0292  0.4271 -1.7326
  732MOL0     H98764   1.246   3.196   9.562 -2.9728 -3.0383  1.8097
  732MOL0     H98765   1.271   3.136   9.798  1.6038 -0.2240 -1.2885
  732MOL0     H98766   1.169   3.270   9.844 -1.7516 -0.1365  0.9382
  732MOL0     H98767   1.124   3.002   9.707  2.2473  1.1659 -1.6258
  732MOL0     H98768   1.028   3.065   9.843  0.4865  2.9956  1.2139
  732MOL0     H98769   0.908   3.031   9.624 -2.0490  0.1155  0.4138
  732MOL0     H98770   0.992   3.174   9.566 -1.3752  2.1191  0.8463
  732MOL0     H98771   0.720   3.102   9.835  0.3707 -0.9633  0.1334
  732MOL0     H98772   0.606   3.273  10.021 -1.6116  0.2250  0.0360
  732MOL0     H98773   0.591   3.439   9.982 -3.5648 -0.8811 -0.6399
  732MOL0     H98774   0.504   3.214   9.808 -2.0072  0.0387 -0.9902
  732MOL0     H98775   0.505   3.391   9.768  0.6080  3.2272  1.7126
  732MOL0     H98776   0.367   3.431   9.971 -1.5607  0.3324 -1.7822
  732MOL0     H98777   0.380   3.248  10.002  1.9312 -1.2972 -1.7189
  732MOL0     H98778   0.163   3.270   9.906 -2.1970 -0.2549 -2.0720
  732MOL0     H98779   0.255   3.237   9.762 -0.2594 -0.6967  1.5396
  732MOL0     H98780   0.158   3.587   9.620  1.2496 -0.8918 -2.9039
  732MOL0     H98781   0.044   3.593   9.337  2.3352  0.4226  1.5813
  732MOL0     H98782  -0.115   3.641   9.375 -0.2351 -0.6580 -0.9795
  732MOL0     H98783   0.009   3.699   9.480 -3.7737  1.0082 -0.8476
  732MOL0     H98784  -0.275   3.170   9.150  0.6872  0.6880  2.1784
  732MOL0     H98785  -0.467   3.156   8.987 -0.2908 -0.5331  0.9063
  732MOL0     H98786  -0.730   3.452   9.057  0.3231 -1.2482  0.5549
  732MOL0     H98787  -0.707   3.532   8.901  1.0048  1.2321  2.4658
  732MOL0     H98788  -0.871   3.274   8.933  1.3162 -0.5026 -1.1966
  732MOL0     H98789  -0.948   3.435   8.973 -1.4690  0.2369 -2.2996
  732MOL0     H98790  -0.871   3.515   8.747  1.1112 -0.5103  1.6630
  732MOL0     H98791  -1.027   3.432   8.776 -0.7663 -2.3595  2.2168
  732MOL0     H98792  -0.762   3.290   8.694  0.4367  1.2680 -0.9576
  732MOL0     H98793  -0.922   3.220   8.714  1.5282 -1.5899 -0.6687
  732MOL0     H98794  -0.879   3.456   8.512 -2.8785  1.1639  0.5711
  732MOL0     H98795  -1.020   3.362   8.538 -0.8853 -3.5803 -2.2162
  732MOL0     H98796  -0.893   3.150   8.472  5.2936 -1.1647  0.1691
  732MOL0     H98797  -0.943   3.267   8.342 -1.3065 -3.6003 -0.3437
  732MOL0     H98798  -0.668   3.251   8.479  0.1621  2.4827  0.1005
  732MOL0     H98799  -0.706   3.341   8.334 -2.6747 -0.4661 -0.8081
  732MOL0     H98800  -0.748   3.035   8.351  1.1440 -1.1610 -1.0292
  732MOL0     H98801  -0.596   3.088   8.302 -0.3587 -0.7559  0.7361
  732MOL0     H98802  -0.506   3.583   9.014 -1.6755 -1.4570 -1.5596
  732MOL0     H98803  -0.319   3.595   9.165  2.1734  0.5336 -0.7814
  732MOL0     H98804  -0.152   3.205   9.628  0.0637  0.4558  3.2213
  732MOL0     H98805   0.010   3.222   9.773 -1.0161 -0.9793 -1.0471
  732MOL0     H98806   1.970   3.216   9.713 -0.3623  0.8766  1.4349
  732MOL0     H98807   2.207   3.226   9.722 -0.4380 -0.0746  2.7810
  732MOL0     H98808   2.560   3.456   9.613 -0.0367  0.9870 -0.4667
  732MOL0     H98809   2.799   3.440   9.566  3.4676  0.8430  0.3198
  732MOL0     H98810   3.066   3.658   9.818 -1.4511 -0.9859  1.0371
  732MOL0     H98811   3.122   3.500   9.884  1.6547  0.1598  0.1099
  732MOL0     H98812   3.229   3.677   9.694  1.1319  0.2061 -1.2494
  732MOL0     H98813   3.195   3.511   9.617 -1.4304 -2.6211  2.1001
  732MOL0     H98814   3.328   3.400   9.781 -0.4450 -0.4644 -3.1926
  732MOL0     H98815   3.376   3.543   9.872  4.0594 -1.7977  1.3075
  732MOL0     H98816   3.495   3.633   9.663 -3.5189  0.4385 -1.7321
  732MOL0     H98817   3.459   3.483   9.583  1.3958  4.4579 -2.1538
  732MOL0     H98818   3.786   3.376   9.846 -1.1310 -0.9648  0.1455
  732MOL0     H98819   2.887   3.577   9.960 -0.3733  3.0096 -0.0775
  732MOL0     H98820   2.650   3.565  10.022  1.1511  0.3217 -0.9055
  733MOL0     O98821   8.241   5.673   5.037  0.2388 -0.1312 -0.0091
  733MOL0     C98822   8.178   5.570   5.035 -0.0762  0.1622  0.0366
  733MOL0     O98823   8.238   5.454   5.065 -0.4637  0.8073  0.5619
  733MOL0     C98824   8.360   5.448   5.124  0.0006 -0.9041  1.2814
  733MOL0     C98825   8.473   5.484   5.052  0.3746  0.0265  0.5043
  733MOL0     C98826   8.603   5.490   5.120 -0.3366  0.0148  0.1075
  733MOL0     C98827   8.617   5.463   5.254  0.1216  1.5042  0.0787
  733MOL0     O98828   8.744   5.474   5.306 -0.2673  0.7620  0.0991
  733MOL0     C98829   8.746   5.483   5.451 -0.3967 -0.2784  0.0172
  733MOL0     C98830   8.852   5.575   5.505 -0.1249 -0.0151 -0.2381
  733MOL0     C98831   8.838   5.717   5.453 -0.4541 -0.2147  0.1707
  733MOL0     C98832   8.978   5.773   5.408 -0.8085  0.4612 -1.2733
  733MOL0     C98833   9.033   5.712   5.275 -0.4088 -0.1882  0.0966
  733MOL0     C98834   8.954   5.728   5.139  0.2806  0.3594 -0.9172
  733MOL0     C98835   9.044   5.684   5.020 -0.5972 -0.4696 -0.3785
  733MOL0     C98836   9.167   5.773   4.993  0.0793  1.0940 -0.1562
  733MOL0     N98837   9.152   5.854   4.864 -0.2385  0.1876 -0.1306
  733MOL0     C98838   9.064   5.957   4.850  0.1015 -0.3489 -0.3346
  733MOL0     C98839   9.100   6.020   4.738 -0.2648 -0.4131 -0.3088
  733MOL0     C98840   9.049   6.151   4.675  0.4888  0.3032  0.5517
  733MOL0     C98841   8.903   6.126   4.617  0.0302  0.1381 -0.3591
  733MOL0     C98842   8.790   6.146   4.721  0.0940 -0.0197  0.7757
  733MOL0     C98843   8.657   6.125   4.664  0.1212 -0.5560  0.2619
  733MOL0     O98844   8.567   6.104   4.773  0.3894  0.3276  0.3042
  733MOL0     C98845   8.428   6.127   4.759 -0.7205  0.3663  0.1206
  733MOL0     C98846   8.364   6.190   4.655  0.2516  1.1111 -0.6308
  733MOL0     C98847   8.223   6.217   4.661  0.2404  0.6356 -1.0273
  733MOL0     C98848   8.155   6.281   4.542  0.3179  0.0311 -0.8932
  733MOL0     C98849   8.143   6.180   4.780 -0.4376 -0.0261  0.1064
  733MOL0     C98850   7.999   6.215   4.805  0.5504 -0.3189  0.6463
  733MOL0     O98851   7.944   6.162   4.910 -0.5163  0.1447  0.0683
  733MOL0     C98852   7.812   6.173   4.939  0.2358  0.2244  0.4520
  733MOL0     C98853   7.777   6.191   5.072 -0.4638  0.5197 -0.7036
  733MOL0     C98854   7.644   6.178   5.123 -0.2049 -0.8705  0.3251
  733MOL0     C98855   7.545   6.128   5.037  0.4011 -0.6079  0.5441
  733MOL0     O98856   7.429   6.093   5.096  0.6918  0.5578 -0.7101
  733MOL0     C98857   7.319   6.047   5.010 -0.0578 -0.3199 -0.5703
  733MOL0     C98858   7.209   5.995   5.098  0.8221 -0.0952 -0.1875
  733MOL0     C98859   7.112   6.091   5.164 -0.1271  0.4573  0.7456
  733MOL0     C98860   7.036   6.034   5.283  0.2444  0.7338  0.1256
  733MOL0     C98861   6.952   6.137   5.358  0.4611  0.2930 -0.1303
  733MOL0     C98862   6.873   6.063   5.471 -0.5473  0.9708 -0.3007
  733MOL0     C98863   6.771   6.166   5.541  0.8894 -0.5910  0.0505
  733MOL0     C98864   6.660   6.208   5.452 -0.4635  0.1188  0.1798
  733MOL0    Cl98865   6.526   6.085   5.435 -0.0588  0.1331  0.1921
  733MOL0     C98866   7.575   6.115   4.897  0.1602  0.7458  0.1765
  733MOL0     C98867   7.710   6.135   4.851 -0.2375 -0.8755 -0.0197
  733MOL0     O98868   7.933   6.257   4.707  0.0282  0.3719 -0.5750
  733MOL0     C98869   8.215   6.117   4.880 -1.2109 -0.6097  0.0229
  733MOL0     C98870   8.356   6.089   4.872 -0.1327  0.7086  0.8421
  733MOL0     N98871   9.208   5.950   4.681  0.4164  0.3222 -1.0543
  733MOL0     N98872   9.231   5.851   4.759  0.4694  0.1607 -0.6017
  733MOL0     C98873   8.496   5.423   5.329  0.1537 -0.6354  0.3732
  733MOL0     C98874   8.374   5.416   5.259  0.1277 -1.1532 -0.3901
  733MOL0     C98875   8.032   5.586   5.016 -0.1033  1.3695 -1.0562
  733MOL0     C98876   7.975   5.710   5.004 -0.1433  0.4114 -0.4402
  733MOL0     C98877   7.839   5.729   5.021 -0.5545 -0.2815 -0.0526
  733MOL0     C98878   7.749   5.622   5.049 -0.2810  0.3487  0.6383
  733MOL0     O98879   7.619   5.641   5.065  0.2552 -0.4180  0.0116
  733MOL0     C98880   7.520   5.535   5.078  0.5687 -0.0653 -1.0926
  733MOL0     C98881   7.389   5.603   5.113 -0.5959 -0.4646 -0.4837
  733MOL0     C98882   7.277   5.508   5.117 -0.5761 -0.7382 -0.1018
  733MOL0     C98883   7.145   5.584   5.126 -0.2073 -0.8685  0.1663
  733MOL0     C98884   7.081   5.573   5.256 -0.0611  0.7944 -0.2132
  733MOL0     C98885   7.012   5.562   5.357  0.4621 -0.2317  1.5184
  733MOL0     C98886   7.811   5.494   5.063 -0.2191  0.2681 -0.3739
  733MOL0     C98887   7.951   5.473   5.044 -0.1824  0.1336 -0.1827
  733MOL0     H98888   8.459   5.509   4.947 -3.2842 -1.8642  0.3621
  733MOL0     H98889   8.692   5.506   5.060  1.2364  0.2539  2.3730
  733MOL0     H98890   8.658   5.523   5.503 -1.0358  2.0147 -2.5939
  733MOL0     H98891   8.765   5.381   5.484  0.0797 -0.0506  0.4454
  733MOL0     H98892   8.827   5.597   5.609 -1.1635  2.3373 -0.9184
  733MOL0     H98893   8.951   5.530   5.499 -0.4453 -0.6852 -0.7698
  733MOL0     H98894   8.781   5.720   5.360 -0.5462 -0.3586  0.2216
  733MOL0     H98895   8.791   5.782   5.527  2.0435  0.3417  1.3619
  733MOL0     H98896   8.961   5.876   5.376  3.2152  0.7582 -3.1915
  733MOL0     H98897   9.046   5.747   5.489 -1.3991 -3.3825 -1.8166
  733MOL0     H98898   9.126   5.768   5.264 -0.9329  0.5743 -0.6020
  733MOL0     H98899   9.050   5.607   5.298 -0.1329 -0.1836 -0.0841
  733MOL0     H98900   8.873   5.654   5.137 -1.8029  2.4631  0.1245
  733MOL0     H98901   8.912   5.828   5.121  0.3543  0.3083 -1.4078
  733MOL0     H98902   9.078   5.580   5.017 -1.4592 -0.8323  1.1573
  733MOL0     H98903   8.969   5.692   4.940 -1.7141 -0.5375  0.6208
  733MOL0     H98904   9.258   5.713   4.999 -0.3352  0.2764 -1.5789
  733MOL0     H98905   9.170   5.855   5.065 -4.6110  1.4618 -0.0741
  733MOL0     H98906   8.998   5.988   4.931  2.2169  2.1201  0.5855
  733MOL0     H98907   9.052   6.228   4.753  1.1404 -1.4353  2.3284
  733MOL0     H98908   9.118   6.187   4.599  1.1812 -0.1219  0.9631
  733MOL0     H98909   8.899   6.020   4.590 -1.4462  0.6990 -2.5999
  733MOL0     H98910   8.892   6.180   4.523 -0.5352 -0.1247 -0.4496
  733MOL0     H98911   8.806   6.246   4.762  0.2321 -0.8339  2.8379
  733MOL0     H98912   8.799   6.072   4.801 -4.7074 -1.8919 -0.1097
  733MOL0     H98913   8.651   6.044   4.590  1.2530 -1.0592  0.6942
  733MOL0     H98914   8.629   6.217   4.612  0.1616 -0.2409  0.7899
  733MOL0     H98915   8.416   6.220   4.564  0.4281  0.5064 -0.7296
  733MOL0     H98916   8.097   6.370   4.569 -0.9544 -0.8089 -0.7668
  733MOL0     H98917   8.236   6.321   4.480  0.4090  0.9685 -0.1937
  733MOL0     H98918   8.094   6.221   4.475 -0.0809 -0.3317 -0.2170
  733MOL0     H98919   7.862   6.226   5.129 -0.1622  0.8018 -1.3178
  733MOL0     H98920   7.617   6.184   5.229 -2.0363  0.0438 -0.1392
  733MOL0     H98921   7.289   6.119   4.934 -1.8954 -0.7937 -0.3522
  733MOL0     H98922   7.363   5.960   4.959  0.7989  1.3974 -2.9268
  733MOL0     H98923   7.156   5.926   5.031  2.0693 -1.8001  0.5132
  733MOL0     H98924   7.256   5.938   5.178 -0.5540 -0.2765  0.5227
  733MOL0     H98925   7.033   6.113   5.093 -1.5154  0.3135  2.1771
  733MOL0     H98926   7.170   6.182   5.184  4.1906 -1.4439 -1.7201
  733MOL0     H98927   6.968   5.957   5.244 -1.3110  2.0954  0.0044
  733MOL0     H98928   7.111   5.983   5.343 -0.3105  1.6768  1.6750
  733MOL0     H98929   6.888   6.178   5.279 -1.4850 -1.1758  0.6229
  733MOL0     H98930   7.024   6.203   5.408 -1.3609  0.9119  1.8283
  733MOL0     H98931   6.813   5.979   5.434  1.7717 -2.1960  2.5042
  733MOL0     H98932   6.934   6.017   5.549 -1.0251  1.3113  0.2852
  733MOL0     H98933   6.829   6.254   5.571  0.3995 -0.6537  1.2735
  733MOL0     H98934   6.728   6.122   5.632 -1.0735  2.2761  0.6255
  733MOL0     H98935   6.696   6.231   5.351  0.0150 -0.3766  0.2326
  733MOL0     H98936   6.620   6.303   5.489  0.4876  0.3716  0.5690
  733MOL0     H98937   7.494   6.085   4.831 -2.2825  2.8032  2.0262
  733MOL0     H98938   7.732   6.124   4.745  0.4749 -0.6675  0.0990
  733MOL0     H98939   8.175   6.073   4.971  1.1299 -0.2059  1.3159
  733MOL0     H98940   8.412   6.051   4.957  0.8893  1.2023  0.4105
  733MOL0     H98941   8.498   5.392   5.433  0.8701 -2.8026 -0.2460
  733MOL0     H98942   8.296   5.383   5.327  0.9900 -0.5013  0.9789
  733MOL0     H98943   8.030   5.801   4.980  0.5826  0.8489  2.5495
  733MOL0     H98944   7.810   5.833   5.025  2.3349  0.5610  1.9893
  733MOL0     H98945   7.515   5.485   4.980  1.1931 -1.0428 -0.6474
  733MOL0     H98946   7.549   5.459   5.151 -1.2237  0.6102  0.3832
  733MOL0     H98947   7.378   5.682   5.038  3.6728  1.5756  0.6564
  733MOL0     H98948   7.392   5.651   5.212 -0.8551  0.0060 -0.7019
  733MOL0     H98949   7.273   5.420   5.181  1.6685 -0.3535  0.6419
  733MOL0     H98950   7.293   5.478   5.013  0.2254 -0.0010 -0.2055
  733MOL0     H98951   7.079   5.527   5.060 -0.0083 -1.7462  0.7068
  733MOL0     H98952   7.149   5.684   5.082 -0.1064 -0.7631  0.4177
  733MOL0     H98953   6.955   5.538   5.445 -1.3195 -0.1776  0.4164
  733MOL0     H98954   7.747   5.410   5.090 -1.7232  1.4914  0.0581
  733MOL0     H98955   7.992   5.373   5.054  2.1507  0.7520 -2.5422
  734MOL0     O98956   2.579   2.869   3.239 -0.1653  0.2862 -0.0051
  734MOL0     C98957   2.614   2.810   3.338  0.0083 -0.4743 -0.8415
  734MOL0     O98958   2.696   2.700   3.347  0.4197 -0.1348 -0.3602
  734MOL0     C98959   2.733   2.641   3.228  0.3453  0.0537  0.5009
  734MOL0     C98960   2.870   2.620   3.212 -0.4035 -0.1141 -0.3684
  734MOL0     C98961   2.921   2.540   3.102  0.1507 -0.0858  0.5274
  734MOL0     C98962   2.827   2.483   3.011  0.1616 -0.2324  0.2501
  734MOL0     O98963   2.879   2.392   2.920  0.0992  0.1465 -0.1225
  734MOL0     C98964   2.794   2.368   2.804 -0.4845  0.1290  0.1554
  734MOL0     C98965   2.878   2.330   2.678 -0.1194  0.0299  0.0194
  734MOL0     C98966   2.998   2.415   2.642 -0.4407 -1.1449  0.6432
  734MOL0     C98967   3.129   2.367   2.696  0.3862  0.2858  0.5498
  734MOL0     C98968   3.245   2.457   2.654 -0.6303 -0.0332 -0.0388
  734MOL0     C98969   3.243   2.598   2.736  0.1341 -0.1160  0.3682
  734MOL0     C98970   3.359   2.685   2.707 -0.9611  0.5158 -0.1218
  734MOL0     C98971   3.381   2.790   2.817  0.7522  0.5247 -0.0793
  734MOL0     N98972   3.267   2.871   2.855  0.4678 -0.4230  0.6421
  734MOL0     C98973   3.166   2.839   2.943  1.1267 -0.1947 -0.2727
  734MOL0     C98974   3.089   2.948   2.942  0.3477 -0.5452 -0.5489
  734MOL0     C98975   2.960   2.984   3.014  0.6645 -0.0477 -0.8219
  734MOL0     C98976   2.995   3.048   3.153  0.6379  0.6583  0.7942
  734MOL0     C98977   2.866   3.046   3.229  1.2644  0.2472 -0.5715
  734MOL0     C98978   2.851   3.130   3.360  0.3265 -1.0193 -0.4638
  734MOL0     O98979   2.923   3.069   3.468 -0.0319 -0.3658  0.0121
  734MOL0     C98980   2.865   3.069   3.588  0.1995 -0.3661  0.2532
  734MOL0     C98981   2.924   2.984   3.681  0.3445  0.8083  0.4662
  734MOL0     C98982   2.894   2.990   3.820  0.1967 -0.4518  0.4414
  734MOL0     C98983   2.979   2.905   3.911  0.2976 -0.2641  0.1003
  734MOL0     C98984   2.784   3.071   3.859 -0.3344  0.2863  0.4238
  734MOL0     C98985   2.726   3.076   3.993 -0.0746  0.2320 -0.1880
  734MOL0     O98986   2.742   2.973   4.081 -0.6420 -0.4366 -0.3204
  734MOL0     C98987   2.710   3.005   4.210 -0.0915  0.6340 -0.3623
  734MOL0     C98988   2.807   3.056   4.292 -0.4216 -0.2079 -1.2343
  734MOL0     C98989   2.778   3.098   4.427 -0.3203  0.3269  0.4930
  734MOL0     C98990   2.657   3.072   4.480 -0.5155  0.0821  0.0040
  734MOL0     O98991   2.636   3.110   4.611 -0.7790  0.5396 -0.2256
  734MOL0     C98992   2.579   3.015   4.704  0.5456  0.1665 -0.3270
  734MOL0     C98993   2.672   2.903   4.717  0.5943  0.7086 -0.0154
  734MOL0     C98994   2.811   2.940   4.766  0.2174  0.3961  0.3318
  734MOL0     C98995   2.895   2.816   4.785 -0.4263  1.2392  0.4493
  734MOL0     C98996   3.030   2.852   4.846 -1.0074 -0.3229  0.0722
  734MOL0     C98997   3.127   2.739   4.857  0.0041 -0.5468 -0.3982
  734MOL0     C98998   3.148   2.663   4.729  0.6115 -0.2372  0.5409
  734MOL0     C98999   3.265   2.571   4.738  0.0281 -1.3373 -0.7673
  734MOL0    Cl99000   3.281   2.460   4.602  0.3592 -0.1588 -0.0163
  734MOL0     C99001   2.552   3.014   4.402 -0.5403 -0.2393  0.4874
  734MOL0     C99002   2.585   2.984   4.267 -0.3457  0.4774  0.2249
  734MOL0     O99003   2.658   3.168   4.017 -0.3675 -0.3120  0.0813
  734MOL0     C99004   2.724   3.150   3.761  1.7236  0.2496 -0.7280
  734MOL0     C99005   2.772   3.160   3.637  0.2375 -0.6716  0.2063
  734MOL0     N99006   3.157   3.041   2.860 -0.1115 -0.5376 -0.3610
  734MOL0     N99007   3.260   2.995   2.809 -0.9216  0.1058  0.0775
  734MOL0     C99008   2.692   2.495   3.029  0.6509 -0.0696 -0.3052
  734MOL0     C99009   2.648   2.573   3.138  0.0728  1.1239  0.4443
  734MOL0     C99010   2.565   2.867   3.469  0.4425 -0.2469 -0.4213
  734MOL0     C99011   2.511   2.997   3.483  0.0605 -0.1865  0.1979
  734MOL0     C99012   2.455   3.040   3.601 -0.1964 -0.3303  0.6834
  734MOL0     C99013   2.463   2.960   3.719  0.4915  0.2747 -0.8324
  734MOL0     O99014   2.415   2.993   3.842 -0.2207  0.4543 -0.2275
  734MOL0     C99015   2.334   3.106   3.863 -1.1352 -0.2428  0.1435
  734MOL0     C99016   2.276   3.092   4.007  0.1133 -0.7694 -0.3783
  734MOL0     C99017   2.181   3.204   4.049  0.0116 -1.3020 -0.2408
  734MOL0     C99018   2.121   3.194   4.188  0.9438 -0.3466 -1.2909
  734MOL0     C99019   2.220   3.215   4.297 -0.6538  0.8738 -0.2509
  734MOL0     C99020   2.310   3.234   4.382  0.2088  0.0015 -0.2338
  734MOL0     C99021   2.526   2.831   3.716 -0.6806  0.2884 -0.2530
  734MOL0     C99022   2.575   2.797   3.590 -0.1205  0.1668  0.2632
  734MOL0     H99023   2.933   2.662   3.291  0.1863 -0.2936 -0.7329
  734MOL0     H99024   3.025   2.516   3.082 -0.0051  0.6669 -1.4063
  734MOL0     H99025   2.716   2.293   2.823 -1.1653  0.5936 -0.7657
  734MOL0     H99026   2.740   2.460   2.780  0.7079  0.6175 -0.7529
  734MOL0     H99027   2.912   2.228   2.698 -1.5388 -0.7034 -1.0358
  734MOL0     H99028   2.810   2.323   2.592 -1.9296  1.4302  1.2892
  734MOL0     H99029   3.008   2.425   2.534  0.8868  0.2642  0.8569
  734MOL0     H99030   2.965   2.511   2.683 -1.4207 -0.7716 -0.9374
  734MOL0     H99031   3.131   2.352   2.804 -2.2835  1.9423  0.9112
  734MOL0     H99032   3.149   2.264   2.663 -3.6762 -0.6171  0.4453
  734MOL0     H99033   3.340   2.407   2.678 -0.2081  0.3978 -0.7769
  734MOL0     H99034   3.241   2.475   2.547  1.1077  2.5405  0.2299
  734MOL0     H99035   3.149   2.648   2.712 -0.6201 -1.2214  0.9084
  734MOL0     H99036   3.245   2.579   2.844 -1.5252  2.1269  0.8576
  734MOL0     H99037   3.455   2.634   2.691  0.4515  2.5934  1.2673
  734MOL0     H99038   3.340   2.730   2.609  2.0827  1.8093 -0.2188
  734MOL0     H99039   3.468   2.850   2.790  1.7375 -0.7665  0.1332
  734MOL0     H99040   3.417   2.744   2.909  0.4725  2.0776  0.8517
  734MOL0     H99041   3.148   2.745   2.993  0.3446 -0.6077 -1.2835
  734MOL0     H99042   2.904   3.057   2.955  0.6555  1.0226  0.4626
  734MOL0     H99043   2.895   2.897   3.026  1.5260 -0.3343  2.8910
  734MOL0     H99044   3.036   3.147   3.136 -0.4226  0.6295 -2.5797
  734MOL0     H99045   3.068   2.985   3.206 -0.8059 -0.5039  1.4904
  734MOL0     H99046   2.845   2.942   3.253  0.0730  0.8297  1.0579
  734MOL0     H99047   2.786   3.088   3.168 -2.6047 -2.1808  2.3520
  734MOL0     H99048   2.744   3.142   3.375  0.5135 -0.6221  0.6663
  734MOL0     H99049   2.903   3.223   3.335  2.1382 -1.9841 -0.4729
  734MOL0     H99050   2.998   2.916   3.638  0.4784  1.2599 -0.0298
  734MOL0     H99051   3.024   2.975   3.982  0.5116 -0.4593  0.1565
  734MOL0     H99052   2.917   2.828   3.957  0.9748 -1.6761 -1.2845
  734MOL0     H99053   3.059   2.860   3.853 -0.1011  0.4783 -1.0726
  734MOL0     H99054   2.911   3.069   4.263  0.2629 -1.6018  0.3908
  734MOL0     H99055   2.861   3.137   4.485 -0.0411 -1.8441  1.6933
  734MOL0     H99056   2.571   3.069   4.799 -1.1803  0.7677 -0.7846
  734MOL0     H99057   2.476   2.991   4.677 -0.5956  1.8497  2.1641
  734MOL0     H99058   2.632   2.846   4.802  0.2109  1.4319  0.2986
  734MOL0     H99059   2.676   2.839   4.628  4.0832 -0.1895  0.6660
  734MOL0     H99060   2.793   2.989   4.861  1.4876  0.3198  0.6299
  734MOL0     H99061   2.864   3.012   4.702 -0.5363  0.2573 -0.4781
  734MOL0     H99062   2.853   2.742   4.854  3.3413  0.8146  2.5360
  734MOL0     H99063   2.918   2.770   4.688  2.5336  2.5843  0.4162
  734MOL0     H99064   3.013   2.898   4.944 -2.4427  0.2949 -0.4343
  734MOL0     H99065   3.077   2.937   4.794  2.6623 -1.6214  0.9842
  734MOL0     H99066   3.216   2.783   4.902 -2.0935  0.7186  2.8808
  734MOL0     H99067   3.083   2.671   4.930 -0.3914  0.6896  0.5374
  734MOL0     H99068   3.162   2.734   4.646 -1.7364  0.0130  0.3033
  734MOL0     H99069   3.061   2.600   4.710  0.2683 -0.4698  2.6513
  734MOL0     H99070   3.262   2.502   4.823  1.8652 -1.7739 -1.0084
  734MOL0     H99071   3.354   2.635   4.750 -0.4658 -0.6264 -0.8125
  734MOL0     H99072   2.453   3.000   4.443 -1.2864  1.0800 -0.7625
  734MOL0     H99073   2.506   2.935   4.211 -2.1212 -0.4947  3.3206
  734MOL0     H99074   2.630   3.201   3.779  0.2321 -2.4411 -0.3224
  734MOL0     H99075   2.734   3.243   3.579 -1.4778  0.0551  2.2330
  734MOL0     H99076   2.615   2.449   2.966 -2.0937  1.5581  1.6243
  734MOL0     H99077   2.541   2.587   3.145 -0.0207  1.6012 -1.5908
  734MOL0     H99078   2.504   3.062   3.397 -1.3071 -2.9838 -1.9558
  734MOL0     H99079   2.406   3.136   3.615  2.7495  1.3395  0.3767
  734MOL0     H99080   2.395   3.195   3.844 -0.0014 -0.3624  2.8007
  734MOL0     H99081   2.258   3.090   3.786  2.5658 -0.4476 -3.8811
  734MOL0     H99082   2.365   3.097   4.070  0.6205 -0.4573 -1.0999
  734MOL0     H99083   2.220   2.999   4.018  1.6005 -2.6981 -5.7700
  734MOL0     H99084   2.099   3.227   3.981  1.1356  0.4243 -1.0762
  734MOL0     H99085   2.249   3.289   4.043 -2.3555  0.6311 -0.8957
  734MOL0     H99086   2.064   3.103   4.208 -0.7858  0.3060 -2.9624
  734MOL0     H99087   2.056   3.279   4.209  2.2163 -0.1191  2.6317
  734MOL0     H99088   2.390   3.263   4.447 -2.2586  2.0622  2.1412
  734MOL0     H99089   2.522   2.766   3.802 -1.2846  1.0668  0.3343
  734MOL0     H99090   2.624   2.700   3.585 -1.9391 -0.8208  0.8224
  735MOL0     O99091   5.477   4.668   7.816  0.4152  0.8711  0.8698
  735MOL0     C99092   5.452   4.554   7.805 -0.1038 -0.3523  0.7199
  735MOL0     O99093   5.333   4.499   7.783  0.5059  0.1226  0.1829
  735MOL0     C99094   5.212   4.562   7.778  0.3619 -0.6638  0.6282
  735MOL0     C99095   5.120   4.503   7.687  0.4325  0.5620 -0.3616
  735MOL0     C99096   4.988   4.542   7.676  0.1233  0.5040  0.7529
  735MOL0     C99097   4.960   4.669   7.724 -0.6148 -0.9703 -0.4489
  735MOL0     O99098   4.830   4.712   7.710 -0.2418  0.0347 -0.7659
  735MOL0     C99099   4.806   4.842   7.774  0.3150 -1.2408  0.0109
  735MOL0     C99100   4.661   4.874   7.747  0.1469  0.1843 -0.5584
  735MOL0     C99101   4.628   4.883   7.599  1.3433  0.1923  0.2818
  735MOL0     C99102   4.476   4.907   7.572  0.1111 -0.3912  0.4747
  735MOL0     C99103   4.450   4.880   7.424  0.0119  0.3301 -0.3194
  735MOL0     C99104   4.302   4.893   7.399  1.0630 -0.2495  0.4793
  735MOL0     C99105   4.251   4.852   7.256  0.2125  0.7190  0.0966
  735MOL0     C99106   4.288   4.954   7.146  0.0430  0.8021  1.0850
  735MOL0     N99107   4.231   4.911   7.012  0.7745  0.4807  0.1601
  735MOL0     C99108   4.111   4.941   6.954  0.5362 -0.4210 -0.4305
  735MOL0     C99109   4.103   4.883   6.831 -0.0330 -0.3746  0.1200
  735MOL0     C99110   3.990   4.900   6.734 -0.4384  0.0045  0.1305
  735MOL0     C99111   3.867   4.815   6.780  0.5779  0.8864  0.1743
  735MOL0     C99112   3.782   4.897   6.873  1.1600  0.3074 -0.3335
  735MOL0     C99113   3.665   4.809   6.927 -0.0674 -0.7585  0.5538
  735MOL0     O99114   3.554   4.792   6.837  0.0653 -0.4413 -0.2135
  735MOL0     C99115   3.460   4.896   6.845  0.6033  0.3923 -0.3686
  735MOL0     C99116   3.466   5.015   6.913  0.1938 -0.0173  0.1402
  735MOL0     C99117   3.350   5.104   6.922  0.1718 -0.2377 -0.7644
  735MOL0     C99118   3.361   5.220   7.012  0.3379  0.6585 -0.4016
  735MOL0     C99119   3.230   5.071   6.852 -0.0090  0.9887 -1.0752
  735MOL0     C99120   3.110   5.153   6.854  0.5026 -0.2272 -0.6372
  735MOL0     O99121   3.120   5.290   6.859  0.2216  0.0789  0.4413
  735MOL0     C99122   3.005   5.359   6.844  0.2953 -0.0649  0.8588
  735MOL0     C99123   2.914   5.338   6.729 -0.8715 -0.2536 -0.3198
  735MOL0     C99124   2.797   5.405   6.723  0.2618 -0.0267  0.9894
  735MOL0     C99125   2.757   5.496   6.825 -0.2058  0.0313  0.3932
  735MOL0     O99126   2.637   5.565   6.831  0.2179 -0.3801 -1.3066
  735MOL0     C99127   2.566   5.564   6.712  0.5721  0.8722  1.1448
  735MOL0     C99128   2.445   5.650   6.756  0.2048 -0.6490 -0.3114
  735MOL0     C99129   2.324   5.646   6.658 -0.6216  0.0245  0.0109
  735MOL0     C99130   2.207   5.735   6.707 -0.2990 -0.0473  0.1472
  735MOL0     C99131   2.104   5.731   6.598 -0.0037  0.0610  0.9111
  735MOL0     C99132   1.982   5.818   6.643 -0.4344  0.0813 -0.4561
  735MOL0     C99133   1.873   5.840   6.546  0.0088 -0.0095  0.3679
  735MOL0     C99134   1.751   5.886   6.618  1.4651  0.4024  0.8042
  735MOL0    Cl99135   1.760   6.044   6.698 -0.0542 -0.2144 -0.2411
  735MOL0     C99136   2.846   5.512   6.936 -0.5134 -0.2910  0.6166
  735MOL0     C99137   2.968   5.450   6.942 -0.2186 -0.4732 -0.9498
  735MOL0     O99138   3.007   5.087   6.848 -0.4515 -0.1455 -0.0745
  735MOL0     C99139   3.235   4.945   6.788  0.3963 -0.7185 -0.6187
  735MOL0     C99140   3.350   4.865   6.775  1.2482  0.1038 -0.0264
  735MOL0     N99141   4.220   4.809   6.814  0.4709 -0.1816 -0.1233
  735MOL0     N99142   4.293   4.825   6.917 -0.1655  0.0635  0.4795
  735MOL0     C99143   5.053   4.742   7.807 -0.9169  0.0606  0.7257
  735MOL0     C99144   5.180   4.688   7.832 -0.5668 -0.2379 -0.0127
  735MOL0     C99145   5.555   4.452   7.844 -0.6129 -0.8655 -0.5679
  735MOL0     C99146   5.521   4.319   7.859  0.1919  0.0274 -0.2728
  735MOL0     C99147   5.618   4.228   7.901 -0.4652  0.9855 -0.1646
  735MOL0     C99148   5.752   4.266   7.918 -0.9184  0.2189  0.4792
  735MOL0     O99149   5.845   4.168   7.945 -0.4896 -0.1950 -0.5378
  735MOL0     C99150   5.977   4.204   7.990 -0.1436  0.3088  0.3376
  735MOL0     C99151   6.044   4.066   8.012  0.0402  0.0372  0.1632
  735MOL0     C99152   6.194   4.082   8.055  0.0670  0.1368 -0.0760
  735MOL0     C99153   6.252   3.941   8.086 -0.4616  0.0563 -0.2928
  735MOL0     C99154   6.392   3.958   8.117  0.2161 -0.4645  0.4256
  735MOL0     C99155   6.511   3.990   8.137 -0.5933  0.5914  0.0067
  735MOL0     C99156   5.790   4.395   7.889  0.3501  0.2692  0.4060
  735MOL0     C99157   5.695   4.491   7.863 -0.2801  0.3503  0.1017
  735MOL0     H99158   5.138   4.410   7.634 -0.4402  0.0019  0.2857
  735MOL0     H99159   4.916   4.481   7.622  0.7436  1.6788 -1.5201
  735MOL0     H99160   4.830   4.850   7.880  0.6074 -0.3807 -0.1093
  735MOL0     H99161   4.858   4.921   7.718 -2.1666 -0.6961 -1.7303
  735MOL0     H99162   4.609   4.784   7.782 -0.1674  0.4585 -0.3242
  735MOL0     H99163   4.624   4.959   7.804 -0.4351  0.4940 -1.3793
  735MOL0     H99164   4.690   4.956   7.547  0.1725 -0.3481 -2.0264
  735MOL0     H99165   4.646   4.787   7.551 -0.8569 -0.4419  0.6021
  735MOL0     H99166   4.414   4.845   7.638 -0.7451 -0.7478 -0.6259
  735MOL0     H99167   4.454   5.013   7.590  1.1051  0.1676 -1.3995
  735MOL0     H99168   4.513   4.945   7.363  0.6790 -1.6583 -1.8358
  735MOL0     H99169   4.481   4.777   7.402  0.2217  0.0756  1.0277
  735MOL0     H99170   4.246   4.848   7.482  2.7886  2.9132  3.6164
  735MOL0     H99171   4.284   5.000   7.407 -0.7061 -0.6602  4.1155
  735MOL0     H99172   4.270   4.747   7.231 -2.9452  0.7747 -3.3430
  735MOL0     H99173   4.143   4.863   7.272  0.1728  1.5030 -0.6863
  735MOL0     H99174   4.396   4.956   7.133 -0.0705 -2.5196 -2.0876
  735MOL0     H99175   4.255   5.055   7.169 -0.1381  0.2673  3.3907
  735MOL0     H99176   4.036   5.008   6.995  1.5878 -0.3683  1.5257
  735MOL0     H99177   3.958   5.004   6.731  0.3537  0.2416 -0.3763
  735MOL0     H99178   4.031   4.870   6.637  2.6998  0.9310  1.0468
  735MOL0     H99179   3.907   4.728   6.833  1.6515 -1.0036 -3.4226
  735MOL0     H99180   3.810   4.773   6.697  0.8967  0.6307  0.0801
  735MOL0     H99181   3.733   4.984   6.828 -1.0651 -1.4363 -1.5197
  735MOL0     H99182   3.845   4.920   6.960 -1.5047  2.2757  1.2597
  735MOL0     H99183   3.632   4.847   7.024  2.3333  0.3565  1.0113
  735MOL0     H99184   3.705   4.709   6.948  0.2431 -0.7227  0.1391
  735MOL0     H99185   3.564   5.036   6.957  1.1048 -0.9837 -1.3468
  735MOL0     H99186   3.452   5.233   7.071 -0.1623 -0.5039  0.6894
  735MOL0     H99187   3.341   5.306   6.947 -0.7645  0.7859  0.0874
  735MOL0     H99188   3.289   5.200   7.092  1.9380  2.4585  1.6226
  735MOL0     H99189   2.962   5.281   6.651  1.5531  2.2252 -0.7564
  735MOL0     H99190   2.740   5.372   6.637  2.8808 -1.1912 -0.4246
  735MOL0     H99191   2.620   5.600   6.624 -0.4112 -0.3822  0.0070
  735MOL0     H99192   2.524   5.464   6.697  1.7784  0.2007  2.0722
  735MOL0     H99193   2.408   5.617   6.853  0.6341 -0.0258  0.0744
  735MOL0     H99194   2.479   5.754   6.765 -0.2848 -0.6010  1.2352
  735MOL0     H99195   2.297   5.543   6.634  3.2841 -1.4961  1.3564
  735MOL0     H99196   2.374   5.686   6.569  1.3537  1.9421  1.8376
  735MOL0     H99197   2.171   5.702   6.804 -1.1366  1.1849  0.2743
  735MOL0     H99198   2.241   5.839   6.714  1.5051 -0.5167 -0.8135
  735MOL0     H99199   2.072   5.629   6.578  2.7153 -0.5458 -0.9259
  735MOL0     H99200   2.151   5.773   6.508  2.5092 -1.6515  1.3050
  735MOL0     H99201   1.943   5.767   6.732 -0.7629 -0.9747 -1.1902
  735MOL0     H99202   2.018   5.917   6.671 -0.3325  0.6321 -2.3833
  735MOL0     H99203   1.854   5.746   6.492 -0.6312  0.5230 -0.3539
  735MOL0     H99204   1.909   5.920   6.482  0.3661 -1.8030 -1.7805
  735MOL0     H99205   1.717   5.815   6.694  1.4476  0.9092  1.2787
  735MOL0     H99206   1.663   5.892   6.552  2.3995 -0.1221 -0.5220
  735MOL0     H99207   2.817   5.590   7.006 -0.5600  0.4589 -0.2069
  735MOL0     H99208   3.032   5.446   7.030 -1.0672 -2.5627 -0.3675
  735MOL0     H99209   3.146   4.913   6.735  0.0982 -0.4331 -0.2963
  735MOL0     H99210   3.341   4.771   6.721  0.9556  1.0129 -1.6389
  735MOL0     H99211   5.033   4.839   7.851 -2.3358 -0.7275  1.9370
  735MOL0     H99212   5.245   4.733   7.906 -3.7602  0.7778  2.3911
  735MOL0     H99213   5.422   4.282   7.833 -0.4836  2.0968 -0.7725
  735MOL0     H99214   5.587   4.127   7.924 -2.5001  1.9781  1.9349
  735MOL0     H99215   6.032   4.260   7.914 -0.9090  1.8273  0.8669
  735MOL0     H99216   5.978   4.266   8.080  0.0553 -2.6029  2.4633
  735MOL0     H99217   6.036   4.002   7.923 -0.3010  0.0724  0.1694
  735MOL0     H99218   5.997   4.001   8.086  0.5886 -0.3133  0.2172
  735MOL0     H99219   6.193   4.145   8.144  0.1734 -1.1353  0.8483
  735MOL0     H99220   6.264   4.115   7.977  1.9098 -2.2936  0.4475
  735MOL0     H99221   6.242   3.873   8.001 -0.6022  0.0783 -0.2948
  735MOL0     H99222   6.205   3.900   8.176  1.5230 -0.2922  0.6307
  735MOL0     H99223   6.609   4.028   8.156  0.7421 -0.9586 -3.0318
  735MOL0     H99224   5.895   4.419   7.878 -0.0800  1.3630 -1.8250
  735MOL0     H99225   5.731   4.591   7.840  0.2116  0.0456 -0.4868
  736MOL0     O99226   5.330   6.214   8.518 -0.5120  0.3943 -0.6903
  736MOL0     C99227   5.383   6.305   8.459  0.0889 -0.1218  0.0518
  736MOL0     O99228   5.318   6.417   8.407  0.4118  0.2654  0.4024
  736MOL0     C99229   5.188   6.407   8.357 -0.2484 -0.0040 -0.7054
  736MOL0     C99230   5.076   6.353   8.424 -0.3723 -0.8168 -0.7668
  736MOL0     C99231   4.945   6.366   8.366 -0.1339 -0.6923 -0.4910
  736MOL0     C99232   4.925   6.436   8.238  0.4147  0.1113 -0.3404
  736MOL0     O99233   4.808   6.452   8.174  0.0517  0.4766 -0.1141
  736MOL0     C99234   4.694   6.391   8.234  0.3548  0.0305 -0.2671
  736MOL0     C99235   4.576   6.429   8.148  0.0203  0.1908 -0.0219
  736MOL0     C99236   4.495   6.543   8.211  0.4295 -0.0614 -0.9354
  736MOL0     C99237   4.349   6.547   8.158 -0.8802  0.1733 -0.1569
  736MOL0     C99238   4.271   6.643   8.246  0.1963 -0.9877 -0.0743
  736MOL0     C99239   4.318   6.790   8.224 -0.3368 -0.2743  0.0757
  736MOL0     C99240   4.240   6.883   8.316 -0.4133  0.2995  0.4328
  736MOL0     C99241   4.087   6.913   8.272 -0.7149  0.3168 -0.7270
  736MOL0     N99242   4.038   7.030   8.351  0.9230  1.5320 -0.4725
  736MOL0     C99243   4.015   7.024   8.477  0.4377 -1.4678 -0.1469
  736MOL0     C99244   3.994   7.157   8.503 -0.0959 -0.4131 -0.0071
  736MOL0     C99245   3.968   7.226   8.634  0.2593 -0.0478 -0.5164
  736MOL0     C99246   3.846   7.165   8.701  0.7344  0.1110  0.0501
  736MOL0     C99247   3.707   7.194   8.628 -0.1385  0.4116  0.7708
  736MOL0     C99248   3.656   7.336   8.651 -0.5055 -0.2570  0.0157
  736MOL0     O99249   3.644   7.366   8.789  1.0568 -0.1739 -0.1464
  736MOL0     C99250   3.625   7.501   8.806  0.0018  0.1970 -1.0277
  736MOL0     C99251   3.495   7.554   8.827 -0.8161 -0.6836  0.2765
  736MOL0     C99252   3.482   7.691   8.832 -0.3045 -0.0906  0.2088
  736MOL0     C99253   3.339   7.747   8.836  0.2044  0.5337 -0.2369
  736MOL0     C99254   3.597   7.779   8.834  0.2742  0.9175  0.8318
  736MOL0     C99255   3.605   7.923   8.850  1.2632  0.5657  0.4110
  736MOL0     O99256   3.724   7.984   8.822  0.1614  0.2479 -0.8084
  736MOL0     C99257   3.730   8.123   8.844 -0.7960  0.1755  0.1403
  736MOL0     C99258   3.658   8.217   8.768  0.0306 -0.1732 -0.0564
  736MOL0     C99259   3.682   8.350   8.797  0.4688 -0.1080 -0.1115
  736MOL0     C99260   3.749   8.389   8.910 -0.1151 -0.6907  0.5104
  736MOL0     O99261   3.759   8.521   8.951  0.1379 -0.5047 -0.5196
  736MOL0     C99262   3.721   8.627   8.863 -0.5539 -0.8628  1.1671
  736MOL0     C99263   3.767   8.761   8.929 -0.9058  0.1281 -0.0118
  736MOL0     C99264   3.922   8.762   8.919 -0.2702  0.1081 -1.0867
  736MOL0     C99265   3.969   8.882   9.010  0.4153  0.1506 -0.0307
  736MOL0     C99266   4.116   8.886   9.014  0.1447 -0.1460  0.5035
  736MOL0     C99267   4.170   8.921   8.874  0.8336 -0.4065  0.1570
  736MOL0     C99268   4.318   8.950   8.879  0.0692 -0.4482 -0.1927
  736MOL0     C99269   4.400   8.833   8.935 -0.3911  0.4086 -0.0972
  736MOL0    Cl99270   4.555   8.839   8.856  0.1037  0.6371 -0.2295
  736MOL0     C99271   3.829   8.296   8.977  0.4982 -0.4813 -0.2264
  736MOL0     C99272   3.821   8.158   8.947 -0.5483 -0.8403 -0.4157
  736MOL0     O99273   3.503   7.981   8.899  0.7243  0.3477 -0.6871
  736MOL0     C99274   3.724   7.718   8.801 -0.6542 -0.4796  0.3922
  736MOL0     C99275   3.731   7.583   8.772 -0.3034 -0.5062  0.7065
  736MOL0     N99276   3.987   7.229   8.380 -0.6218 -0.5000  0.4321
  736MOL0     N99277   4.026   7.146   8.295  0.1758 -0.0282  0.6454
  736MOL0     C99278   5.037   6.490   8.177  0.6489  0.3807 -0.2661
  736MOL0     C99279   5.164   6.479   8.240  0.0312 -0.5662 -0.0973
  736MOL0     C99280   5.531   6.312   8.449  0.2323 -0.3912  0.4524
  736MOL0     C99281   5.604   6.198   8.482 -0.1712 -0.6857  0.4712
  736MOL0     C99282   5.745   6.204   8.457  0.2312  0.8997 -0.3598
  736MOL0     C99283   5.817   6.312   8.409  0.1068 -0.2394  0.3028
  736MOL0     O99284   5.953   6.300   8.388  0.3276 -0.2093 -0.3659
  736MOL0     C99285   6.031   6.411   8.399  0.1027 -0.3130  0.1071
  736MOL0     C99286   6.176   6.354   8.420  0.4221 -0.9564  0.2357
  736MOL0     C99287   6.184   6.269   8.550 -0.0663 -0.3252  0.2448
  736MOL0     C99288   6.327   6.227   8.591 -0.0955  0.3573  0.5490
  736MOL0     C99289   6.333   6.177   8.723 -1.0004  0.3154 -0.0182
  736MOL0     C99290   6.336   6.133   8.838  0.5716 -0.8977 -0.0434
  736MOL0     C99291   5.746   6.427   8.394  0.6240  0.0363  0.7627
  736MOL0     C99292   5.603   6.424   8.403  0.4211 -0.1908 -0.0361
  736MOL0     H99293   5.108   6.290   8.506  1.3970 -0.1204 -0.8907
  736MOL0     H99294   4.855   6.333   8.416 -0.7638  1.2147 -0.2828
  736MOL0     H99295   4.694   6.283   8.223 -0.5260  0.1662 -1.7654
  736MOL0     H99296   4.683   6.426   8.338  2.6745  0.7594 -0.1984
  736MOL0     H99297   4.616   6.453   8.049  1.5139 -1.2851  0.1697
  736MOL0     H99298   4.512   6.340   8.137  0.0868  0.1467 -0.0485
  736MOL0     H99299   4.483   6.529   8.319 -0.5338 -1.0183 -1.1406
  736MOL0     H99300   4.557   6.632   8.195  1.7834 -0.6125  0.8677
  736MOL0     H99301   4.350   6.596   8.060  2.6166 -3.1836 -2.0671
  736MOL0     H99302   4.299   6.450   8.151 -0.8936  0.1352  0.4158
  736MOL0     H99303   4.165   6.636   8.221 -0.5159 -0.7530  2.6283
  736MOL0     H99304   4.272   6.615   8.352 -1.7775 -0.9968 -0.0314
  736MOL0     H99305   4.426   6.800   8.243  0.3809 -3.5958 -1.5658
  736MOL0     H99306   4.309   6.819   8.118  0.3657  2.4050  0.6515
  736MOL0     H99307   4.234   6.829   8.411  1.5808 -1.5583 -0.4175
  736MOL0     H99308   4.300   6.974   8.324  1.4123 -0.1612 -4.4964
  736MOL0     H99309   4.019   6.828   8.270  1.1230 -1.2148 -2.3086
  736MOL0     H99310   4.100   6.936   8.166 -1.1245  1.0069 -0.6344
  736MOL0     H99311   4.033   6.945   8.550 -1.7199 -1.5477  0.3627
  736MOL0     H99312   4.053   7.217   8.702 -1.1097  0.0942  1.2737
  736MOL0     H99313   3.956   7.330   8.602  1.1956 -0.2083 -1.4780
  736MOL0     H99314   3.854   7.199   8.805  1.1973 -0.3337  0.1622
  736MOL0     H99315   3.848   7.056   8.710  1.8982  0.2348  1.8398
  736MOL0     H99316   3.632   7.118   8.652  0.1352 -1.8661 -4.2568
  736MOL0     H99317   3.719   7.173   8.521 -1.6724 -0.3711  0.7248
  736MOL0     H99318   3.561   7.347   8.599 -1.5478 -0.9715  1.6955
  736MOL0     H99319   3.728   7.405   8.604  0.8169  1.5541  4.2189
  736MOL0     H99320   3.412   7.484   8.832  1.1369 -3.1113  0.7014
  736MOL0     H99321   3.331   7.811   8.748  0.1017  1.3115  0.3295
  736MOL0     H99322   3.264   7.668   8.843  2.3142 -1.5019  0.6521
  736MOL0     H99323   3.318   7.809   8.923  0.5362 -0.1325  0.3239
  736MOL0     H99324   3.584   8.185   8.696  0.1398 -0.1151 -0.1954
  736MOL0     H99325   3.636   8.420   8.728  4.9394  1.3085 -2.0846
  736MOL0     H99326   3.765   8.617   8.763  1.9319 -2.7719  2.3443
  736MOL0     H99327   3.612   8.629   8.854 -0.3508  0.9986 -2.6764
  736MOL0     H99328   3.722   8.844   8.875 -1.9318  0.3867  1.1890
  736MOL0     H99329   3.719   8.769   9.027 -0.8451  2.7378 -0.1282
  736MOL0     H99330   3.944   8.779   8.813  3.4119  0.9949 -0.2946
  736MOL0     H99331   3.965   8.670   8.960 -0.1618  1.2740  1.6340
  736MOL0     H99332   3.928   8.979   8.979 -0.3082  0.4631  1.7907
  736MOL0     H99333   3.933   8.875   9.113  1.4365 -0.3819  0.3036
  736MOL0     H99334   4.150   8.785   9.041  1.5917  0.1531 -0.1373
  736MOL0     H99335   4.146   8.960   9.088  0.0391  3.8017 -3.0301
  736MOL0     H99336   4.161   8.840   8.801  1.4265 -1.4932  1.2597
  736MOL0     H99337   4.121   9.011   8.836  0.2613 -1.1640 -0.9518
  736MOL0     H99338   4.341   9.037   8.941  2.1659 -0.6823 -0.5774
  736MOL0     H99339   4.353   8.977   8.779 -1.8131 -0.9604 -1.0530
  736MOL0     H99340   4.346   8.749   8.893 -0.1714 -0.8504  2.0027
  736MOL0     H99341   4.392   8.825   9.044 -0.8479  2.1379  0.0242
  736MOL0     H99342   3.885   8.334   9.063 -0.1001 -0.4921  0.1765
  736MOL0     H99343   3.883   8.102   9.016 -1.1377 -1.3886 -0.3285
  736MOL0     H99344   3.815   7.768   8.771 -1.9388  1.2126 -0.8810
  736MOL0     H99345   3.821   7.535   8.736  1.2234 -0.4468  4.0685
  736MOL0     H99346   5.021   6.546   8.086  3.4673  1.0989 -0.4069
  736MOL0     H99347   5.239   6.529   8.181 -2.7250  1.3506 -2.2749
  736MOL0     H99348   5.555   6.108   8.519  0.2070  0.5830  4.5274
  736MOL0     H99349   5.787   6.104   8.471  0.0984  0.9597  0.5113
  736MOL0     H99350   6.039   6.464   8.303  0.8737  1.2713  1.0002
  736MOL0     H99351   6.008   6.485   8.476  1.6651  0.9820 -0.5916
  736MOL0     H99352   6.244   6.440   8.421 -1.2483  0.4162  0.3415
  736MOL0     H99353   6.206   6.295   8.332  0.5459 -0.9767  0.2898
  736MOL0     H99354   6.127   6.178   8.525 -0.4739  0.1726 -0.6954
  736MOL0     H99355   6.130   6.321   8.630  1.3092  1.1374  0.2678
  736MOL0     H99356   6.387   6.318   8.584  0.4182  0.0001  0.2894
  736MOL0     H99357   6.361   6.149   8.522 -1.0002 -0.8475  1.4270
  736MOL0     H99358   6.350   6.113   8.943  1.0526  1.6733  0.4317
  736MOL0     H99359   5.799   6.516   8.363 -0.9879  0.3781 -1.1955
  736MOL0     H99360   5.541   6.511   8.389 -0.5693 -0.4131  2.4418
  737MOL0     O99361  10.316   9.150  11.278 -0.1621 -0.3258 -0.3025
  737MOL0     C99362  10.326   9.151  11.400 -0.2655 -0.1009  0.3184
  737MOL0     O99363  10.225   9.106  11.488 -0.2333  0.2411  0.0892
  737MOL0     C99364  10.105   9.056  11.443  0.3969 -0.0794 -1.1384
  737MOL0     C99365   9.994   9.085  11.531 -0.0017 -0.2351  0.5071
  737MOL0     C99366   9.866   9.032  11.493  0.2084  0.2585 -0.5223
  737MOL0     C99367   9.850   8.943  11.387 -0.2426  0.6894 -0.2531
  737MOL0     O99368   9.718   8.901  11.362 -0.3696  0.5510  0.2881
  737MOL0     C99369   9.676   8.916  11.228  0.5898  0.3496 -0.0984
  737MOL0     C99370   9.521   8.923  11.240  1.0652  0.5164  0.1070
  737MOL0     C99371   9.440   8.924  11.105 -0.2338 -0.3129  0.3160
  737MOL0     C99372   9.340   8.809  11.099 -0.1841  0.8014 -0.0541
  737MOL0     C99373   9.222   8.848  11.187  0.2103  0.2624  0.1310
  737MOL0     C99374   9.130   8.726  11.195 -0.2933  0.0608 -0.5190
  737MOL0     C99375   9.026   8.762  11.301 -0.3701 -0.2229 -0.9401
  737MOL0     C99376   8.899   8.672  11.285  0.0516 -0.0778  0.1040
  737MOL0     N99377   8.923   8.539  11.342  0.4894  0.3624  0.1146
  737MOL0     C99378   8.940   8.522  11.480  0.0077  0.0518 -0.2039
  737MOL0     C99379   8.932   8.389  11.494 -0.3924  0.8275  0.3320
  737MOL0     C99380   8.955   8.301  11.619  0.7553  0.3471  0.8232
  737MOL0     C99381   8.805   8.273  11.673 -0.9432 -0.2829  0.8696
  737MOL0     C99382   8.799   8.165  11.781 -0.7421  0.3072  0.6432
  737MOL0     C99383   8.664   8.118  11.795  0.2222 -0.2135 -0.0445
  737MOL0     O99384   8.591   8.197  11.892 -0.2406 -0.5077 -0.0478
  737MOL0     C99385   8.459   8.153  11.907  0.1185  0.4428 -0.0440
  737MOL0     C99386   8.373   8.250  11.954  0.2669  0.4147  0.1756
  737MOL0     C99387   8.231   8.241  11.952  0.6336 -1.3051  0.7223
  737MOL0     C99388   8.157   8.371  11.976 -0.0536 -0.7754  0.4407
  737MOL0     C99389   8.179   8.121  11.911  0.3608 -0.0765  0.3574
  737MOL0     C99390   8.030   8.095  11.893 -0.6768 -0.7382 -0.3030
  737MOL0     O99391   7.989   7.967  11.899  0.3763 -0.1764 -0.4367
  737MOL0     C99392   7.848   7.950  11.892 -1.0127  0.0237  0.2606
  737MOL0     C99393   7.771   8.016  11.985 -0.1717  0.5491  0.1518
  737MOL0     C99394   7.630   7.997  11.979 -0.3590 -0.7472  0.4926
  737MOL0     C99395   7.568   7.949  11.862 -1.0255 -0.3843 -0.2985
  737MOL0     O99396   7.431   7.957  11.858  0.2475 -0.5522 -1.0187
  737MOL0     C99397   7.360   7.911  11.746  0.3670  0.1923  0.9724
  737MOL0     C99398   7.208   7.938  11.757 -0.1155  0.0217  0.2850
  737MOL0     C99399   7.130   7.884  11.876  0.1115  0.0528  0.3169
  737MOL0     C99400   7.151   7.733  11.881  0.4120 -0.3831 -0.4490
  737MOL0     C99401   7.055   7.662  11.782 -1.2359  0.9673  0.3938
  737MOL0     C99402   6.905   7.688  11.809 -0.4702  0.5905  0.6662
  737MOL0     C99403   6.824   7.620  11.701 -0.4550  0.8263  0.3591
  737MOL0     C99404   6.684   7.663  11.696  0.2259  0.2154 -1.0265
  737MOL0    Cl99405   6.584   7.547  11.597  0.3238 -0.1140  0.0909
  737MOL0     C99406   7.647   7.875  11.768 -0.0468 -0.2284 -0.2048
  737MOL0     C99407   7.788   7.877  11.783  0.6462 -0.5234  0.2727
  737MOL0     O99408   7.954   8.194  11.873 -0.3941 -0.6265 -0.3029
  737MOL0     C99409   8.266   8.014  11.882  0.8083  0.0190 -1.2395
  737MOL0     C99410   8.403   8.027  11.880  0.4790  0.3988  0.0732
  737MOL0     N99411   8.916   8.332  11.367  0.0455 -0.1675 -0.2567
  737MOL0     N99412   8.894   8.424  11.279 -0.2757 -0.2059 -0.0135
  737MOL0     C99413   9.961   8.897  11.317  0.2751 -0.4062 -0.7253
  737MOL0     C99414  10.089   8.958  11.345  0.4655 -0.0751  0.0775
  737MOL0     C99415  10.454   9.201  11.464 -0.0239  0.4682  1.4558
  737MOL0     C99416  10.554   9.267  11.389  0.7176 -0.2478  0.8245
  737MOL0     C99417  10.667   9.311  11.457  1.2920  0.5480  0.1187
  737MOL0     C99418  10.685   9.307  11.596  0.0931  0.1361  0.4402
  737MOL0     O99419  10.800   9.363  11.639  0.3418 -0.3422  0.2548
  737MOL0     C99420  10.849   9.308  11.753  0.0457 -0.7003 -1.5140
  737MOL0     C99421  10.973   9.377  11.806  0.2597 -0.3258  0.3758
  737MOL0     C99422  11.096   9.336  11.718 -0.4890 -0.0876 -1.0850
  737MOL0     C99423  11.223   9.411  11.769  0.6177  0.7668  0.8797
  737MOL0     C99424  11.342   9.376  11.701  0.8930 -0.2584 -0.0845
  737MOL0     C99425  11.440   9.350  11.639 -0.0370  0.5416  0.2270
  737MOL0     C99426  10.589   9.235  11.668 -0.0509  0.2368  0.5206
  737MOL0     C99427  10.474   9.185  11.607  0.0337  0.1824  0.0257
  737MOL0     H99428   9.996   9.155  11.614  1.5585 -0.1513  0.4328
  737MOL0     H99429   9.778   9.057  11.552  1.0388 -0.9807  1.3389
  737MOL0     H99430   9.714   9.010  11.187  0.9567  0.3960  0.3368
  737MOL0     H99431   9.704   8.828  11.169 -1.9258 -0.9595  0.5146
  737MOL0     H99432   9.493   8.833  11.296  0.9229 -0.3690 -1.3417
  737MOL0     H99433   9.490   9.008  11.301 -0.0180  0.3240 -0.1379
  737MOL0     H99434   9.387   9.019  11.093  1.2565  0.2128 -3.5757
  737MOL0     H99435   9.514   8.919  11.024 -0.2131  1.0471  0.2205
  737MOL0     H99436   9.292   8.785  11.004 -3.1946 -0.3173  1.5967
  737MOL0     H99437   9.390   8.718  11.132  0.1472  1.0421  0.1185
  737MOL0     H99438   9.249   8.882  11.288 -0.2349 -4.5151  2.1059
  737MOL0     H99439   9.169   8.929  11.136 -3.9342 -3.2018 -1.6150
  737MOL0     H99440   9.080   8.711  11.099 -0.8489 -1.4539 -0.0157
  737MOL0     H99441   9.177   8.634  11.229  1.8178 -0.4473 -4.2905
  737MOL0     H99442   9.068   8.758  11.402  1.6157  1.1288 -1.6465
  737MOL0     H99443   8.990   8.864  11.284  0.8097 -0.0674 -2.7380
  737MOL0     H99444   8.860   8.675  11.183 -3.2031  1.0197  1.2545
  737MOL0     H99445   8.821   8.717  11.347  0.0355 -0.9470  0.7342
  737MOL0     H99446   8.955   8.598  11.556  2.8498 -0.8128  0.2353
  737MOL0     H99447   9.009   8.209  11.593  0.2100  0.1031  0.5488
  737MOL0     H99448   9.017   8.353  11.693  1.3385 -0.6983  1.0788
  737MOL0     H99449   8.745   8.259  11.583 -0.6647  1.3481  0.3878
  737MOL0     H99450   8.776   8.373  11.706 -1.1928 -0.5513  1.4803
  737MOL0     H99451   8.850   8.180  11.876  1.6761 -0.9826 -0.3422
  737MOL0     H99452   8.853   8.079  11.739 -1.2598 -0.0961  0.8014
  737MOL0     H99453   8.669   8.016  11.835  2.7469  0.0259  0.3999
  737MOL0     H99454   8.607   8.106  11.702  0.1588 -3.9388  0.3149
  737MOL0     H99455   8.422   8.342  11.982  0.7215  0.6674 -1.3617
  737MOL0     H99456   8.205   8.427  12.057  1.9329 -0.4302 -0.8954
  737MOL0     H99457   8.168   8.442  11.894 -0.2518  0.2085  1.2392
  737MOL0     H99458   8.055   8.357  12.013  0.6023 -3.8693  1.4329
  737MOL0     H99459   7.819   8.073  12.064 -0.9653  1.3279  0.0816
  737MOL0     H99460   7.570   8.019  12.066  0.3973 -1.6058  1.2496
  737MOL0     H99461   7.396   7.955  11.652 -0.3590  1.9088  1.4611
  737MOL0     H99462   7.372   7.803  11.742 -2.5927 -0.2496  2.0225
  737MOL0     H99463   7.195   8.047  11.749  1.0785  0.0860 -1.2126
  737MOL0     H99464   7.166   7.902  11.663 -1.5252  3.1093 -0.3955
  737MOL0     H99465   7.026   7.918  11.871 -0.3839 -1.2196  1.4591
  737MOL0     H99466   7.164   7.928  11.971 -0.3855  0.4749  0.3092
  737MOL0     H99467   7.254   7.702  11.865  1.3266  1.5411  1.3224
  737MOL0     H99468   7.134   7.696  11.983 -0.4281 -1.6618 -1.0242
  737MOL0     H99469   7.074   7.554  11.786 -1.1337  1.0014  0.8903
  737MOL0     H99470   7.071   7.692  11.678  0.8343 -0.1085  0.3443
  737MOL0     H99471   6.881   7.640  11.904  0.3150 -0.6838  0.2402
  737MOL0     H99472   6.879   7.794  11.799  0.7676  0.8208 -0.4555
  737MOL0     H99473   6.826   7.513  11.724  1.1068  0.6878 -0.3278
  737MOL0     H99474   6.864   7.644  11.603  1.1286  0.1384  0.8004
  737MOL0     H99475   6.689   7.767  11.665  2.4321 -0.1964 -2.2294
  737MOL0     H99476   6.634   7.664  11.794 -3.5439 -2.5798 -2.6982
  737MOL0     H99477   7.616   7.825  11.677 -1.0061  0.0173 -0.0283
  737MOL0     H99478   7.859   7.832  11.714  1.4599 -1.1170  1.4575
  737MOL0     H99479   8.221   7.918  11.858 -0.8838  0.3637  0.3326
  737MOL0     H99480   8.458   7.941  11.845  1.2246  0.0708  1.9303
  737MOL0     H99481   9.955   8.822  11.239 -0.4650  0.2446 -1.3151
  737MOL0     H99482  10.167   8.918  11.281 -0.6986 -0.5841 -1.0681
  737MOL0     H99483  10.542   9.284  11.283  0.9664 -1.5151  0.5767
  737MOL0     H99484  10.754   9.344  11.402  1.9175  1.5197  1.6312
  737MOL0     H99485  10.772   9.320  11.830  1.0359  0.5049 -0.6625
  737MOL0     H99486  10.862   9.199  11.745 -0.8041 -1.0712  1.0101
  737MOL0     H99487  10.996   9.334  11.904 -0.3145 -0.8062  0.3066
  737MOL0     H99488  10.966   9.486  11.809  2.9121 -0.1098  0.6395
  737MOL0     H99489  11.075   9.358  11.613 -0.2703  0.8176 -0.9478
  737MOL0     H99490  11.114   9.229  11.732  0.7678  0.3717  1.5383
  737MOL0     H99491  11.225   9.364  11.868  2.9702  2.4227  1.7017
  737MOL0     H99492  11.209   9.519  11.786  1.5563  0.8179  1.3597
  737MOL0     H99493  11.520   9.314  11.577 -1.7390 -1.4364 -0.9313
  737MOL0     H99494  10.593   9.228  11.777  2.1338  2.3963  0.6546
  737MOL0     H99495  10.401   9.138  11.671  0.6842 -1.1821 -0.1992
  738MOL0     O99496   0.432  11.271   2.110  0.5633 -0.3373  0.3801
  738MOL0     C99497   0.370  11.261   2.007  0.3462  0.0558 -0.2049
  738MOL0     O99498   0.424  11.275   1.884 -0.6909 -0.1382 -0.2456
  738MOL0     C99499   0.559  11.305   1.876 -0.2120  0.5222 -0.5429
  738MOL0     C99500   0.628  11.412   1.940 -0.7871 -0.1477 -0.2911
  738MOL0     C99501   0.770  11.413   1.923 -0.4802 -0.1654 -1.3485
  738MOL0     C99502   0.837  11.328   1.845 -0.4807  0.2774  0.3743
  738MOL0     O99503   0.972  11.318   1.878  0.1866 -0.0773  0.7814
  738MOL0     C99504   1.056  11.214   1.805  0.2174 -0.4453 -0.6160
  738MOL0     C99505   1.210  11.229   1.854  0.8986  0.2323 -0.0444
  738MOL0     C99506   1.290  11.356   1.811 -0.6138 -0.1282  0.4123
  738MOL0     C99507   1.429  11.339   1.876  0.0610  0.4010  0.4982
  738MOL0     C99508   1.427  11.386   2.022 -0.0167  0.2846  0.3420
  738MOL0     C99509   1.565  11.344   2.073  0.1246  0.7856 -0.9743
  738MOL0     C99510   1.578  11.392   2.217 -0.0459  0.4464  0.9006
  738MOL0     C99511   1.468  11.358   2.321 -0.3264  0.0791 -0.0871
  738MOL0     N99512   1.524  11.378   2.448  0.0030 -0.2697 -0.4537
  738MOL0     C99513   1.495  11.497   2.518 -0.5334  0.3573 -0.0893
  738MOL0     C99514   1.554  11.458   2.641  0.0343 -0.4564 -0.1990
  738MOL0     C99515   1.560  11.546   2.762 -0.6462  0.2509  0.1455
  738MOL0     C99516   1.429  11.538   2.841  0.4486  0.0261  0.1316
  738MOL0     C99517   1.458  11.564   2.988  0.8700 -0.1467 -0.5234
  738MOL0     C99518   1.343  11.589   3.071 -0.1893 -0.4887  0.3888
  738MOL0     O99519   1.270  11.699   3.020  0.5188 -0.3935 -0.1113
  738MOL0     C99520   1.136  11.717   3.049  0.7742  0.4766 -0.2185
  738MOL0     C99521   1.061  11.635   3.141 -0.3241 -0.3135 -0.1023
  738MOL0     C99522   0.928  11.656   3.160 -0.3331 -0.4840 -0.1673
  738MOL0     C99523   0.865  11.552   3.246 -0.3237  0.0428 -0.4082
  738MOL0     C99524   0.854  11.755   3.092 -0.1035  0.3611 -0.4427
  738MOL0     C99525   0.705  11.773   3.098 -0.4022 -0.0759  0.2137
  738MOL0     O99526   0.655  11.853   2.995  0.0499  0.8581 -0.2929
  738MOL0     C99527   0.527  11.840   2.946  1.0633  0.1714 -0.6424
  738MOL0     C99528   0.486  11.940   2.869  0.6625  0.0059  0.0836
  738MOL0     C99529   0.359  11.950   2.799  0.2985  0.1781 -0.5107
  738MOL0     C99530   0.265  11.849   2.820  1.2705 -0.4540  0.6381
  738MOL0     O99531   0.147  11.865   2.750 -0.3225 -0.7463 -0.2069
  738MOL0     C99532   0.025  11.804   2.796  0.0841 -0.1099  0.2124
  738MOL0     C99533  -0.096  11.862   2.706 -0.8604 -0.3584  0.3066
  738MOL0     C99534  -0.091  11.815   2.560  0.2682  0.2934  0.5300
  738MOL0     C99535  -0.165  11.682   2.546 -0.3041 -0.8123 -0.6822
  738MOL0     C99536  -0.169  11.641   2.401  0.8047 -0.0637  0.2280
  738MOL0     C99537  -0.202  11.490   2.404 -0.2438  1.2876  0.5366
  738MOL0     C99538  -0.246  11.451   2.266  0.2293 -1.0090  0.4528
  738MOL0     C99539  -0.397  11.487   2.249  0.9715 -0.6717 -0.1390
  738MOL0    Cl99540  -0.486  11.368   2.141 -0.0208  0.5401  0.0498
  738MOL0     C99541   0.305  11.740   2.902  0.7484 -0.2889  1.1017
  738MOL0     C99542   0.429  11.742   2.974  0.2739  1.3767  0.5331
  738MOL0     O99543   0.641  11.729   3.190  0.2863 -1.0288 -0.1213
  738MOL0     C99544   0.930  11.846   3.008  0.6950  0.8436 -0.9548
  738MOL0     C99545   1.067  11.832   3.001 -0.9190 -0.3537  0.7106
  738MOL0     N99546   1.617  11.333   2.629  0.1451 -0.1762 -0.2519
  738MOL0     N99547   1.586  11.283   2.518 -0.9557 -0.8409 -0.0952
  738MOL0     C99548   0.763  11.237   1.768 -0.2751 -0.4820 -0.3848
  738MOL0     C99549   0.628  11.224   1.785  0.2557 -0.3542  0.4356
  738MOL0     C99550   0.222  11.238   2.020  0.0610  0.4571 -0.1004
  738MOL0     C99551   0.151  11.216   1.903  0.2334 -0.2687  0.7723
  738MOL0     C99552   0.021  11.181   1.906  0.7172  0.4380  1.1105
  738MOL0     C99553  -0.053  11.172   2.032 -0.0760  0.5692 -0.0895
  738MOL0     O99554  -0.186  11.127   2.052 -0.0500 -0.2489 -0.3803
  738MOL0     C99555  -0.273  11.110   1.944  0.1645  0.5577  0.4667
  738MOL0     C99556  -0.405  11.068   1.995 -0.5962  0.2438  0.3301
  738MOL0     C99557  -0.412  10.915   2.031  0.0567  0.8763 -0.0551
  738MOL0     C99558  -0.549  10.861   2.057 -0.4861  0.0321  0.1204
  738MOL0     C99559  -0.577  10.826   2.197  0.3502  0.7952 -0.2882
  738MOL0     C99560  -0.631  10.779   2.298 -0.1951 -1.3221 -0.0785
  738MOL0     C99561   0.020  11.202   2.155 -0.3632 -0.7083  0.7477
  738MOL0     C99562   0.162  11.240   2.145 -0.0474  0.1561 -0.3948
  738MOL0     H99563   0.588  11.488   2.006  3.8018  3.0357 -0.6739
  738MOL0     H99564   0.832  11.482   1.980 -1.7891  1.1165 -1.4151
  738MOL0     H99565   1.016  11.113   1.819  2.8967 -1.8795 -2.3701
  738MOL0     H99566   1.046  11.236   1.699  0.0130  1.8376 -0.1559
  738MOL0     H99567   1.210  11.235   1.964 -2.6452  3.4166 -0.0230
  738MOL0     H99568   1.265  11.137   1.833  0.2848  0.3291 -2.2986
  738MOL0     H99569   1.287  11.366   1.702 -0.2254 -0.5514  0.3623
  738MOL0     H99570   1.236  11.447   1.841  0.1685  1.3699 -2.3075
  738MOL0     H99571   1.467  11.237   1.867  0.5317  0.3493  2.5417
  738MOL0     H99572   1.498  11.405   1.821  0.7313  0.7838  1.7449
  738MOL0     H99573   1.413  11.494   2.024  2.0695  0.6943 -1.9781
  738MOL0     H99574   1.342  11.354   2.083 -1.4815 -1.4533 -2.4168
  738MOL0     H99575   1.588  11.237   2.074  0.6296  0.8337 -2.9586
  738MOL0     H99576   1.633  11.389   2.001 -0.4182  1.2700 -1.1890
  738MOL0     H99577   1.679  11.369   2.253 -0.9029 -1.0504  2.4692
  738MOL0     H99578   1.587  11.500   2.204  1.5907  0.3339  0.8459
  738MOL0     H99579   1.451  11.250   2.309  1.6585 -0.3709  0.6469
  738MOL0     H99580   1.378  11.412   2.291  0.1319 -0.2824 -2.2853
  738MOL0     H99581   1.424  11.572   2.487 -1.7113 -1.1438 -1.1702
  738MOL0     H99582   1.633  11.506   2.834 -1.2347 -0.4144  0.3783
  738MOL0     H99583   1.586  11.649   2.736 -0.0994  0.2629  0.7003
  738MOL0     H99584   1.382  11.439   2.838 -2.6864  1.3985  0.1350
  738MOL0     H99585   1.359  11.613   2.801  2.7964  1.2115 -2.0593
  738MOL0     H99586   1.530  11.646   3.000  2.1907 -0.6205 -4.0086
  738MOL0     H99587   1.513  11.479   3.030 -0.8001 -0.5415  0.9660
  738MOL0     H99588   1.375  11.600   3.175  2.9995 -0.0690 -0.5174
  738MOL0     H99589   1.281  11.500   3.058 -0.0573 -0.2048 -3.0945
  738MOL0     H99590   1.107  11.550   3.191  2.2900  2.5000  2.7119
  738MOL0     H99591   0.793  11.493   3.189 -0.9450 -0.0654  0.4735
  738MOL0     H99592   0.942  11.486   3.287 -0.4462 -0.4917 -1.0230
  738MOL0     H99593   0.810  11.610   3.321 -2.8685 -3.2372  0.4817
  738MOL0     H99594   0.565  12.013   2.852 -0.1546  0.7545 -0.6054
  738MOL0     H99595   0.341  12.037   2.737 -1.2018  1.0404  1.0508
  738MOL0     H99596   0.034  11.695   2.789 -1.4616 -0.2184 -0.5805
  738MOL0     H99597   0.011  11.827   2.902 -1.9748  1.2963 -0.2861
  738MOL0     H99598  -0.192  11.833   2.749 -2.3154 -0.5307 -2.8223
  738MOL0     H99599  -0.087  11.971   2.705  1.3527 -0.4838 -1.2847
  738MOL0     H99600   0.003  11.802   2.505 -0.1939 -1.0548  0.0192
  738MOL0     H99601  -0.139  11.899   2.509 -3.2740  0.5380  3.8251
  738MOL0     H99602  -0.108  11.609   2.603 -0.4348 -0.5008 -0.1526
  738MOL0     H99603  -0.265  11.691   2.589  0.0555  1.5735 -0.1949
  738MOL0     H99604  -0.077  11.667   2.348  1.1720  1.2051  1.4355
  738MOL0     H99605  -0.253  11.689   2.351  0.2214 -2.0768 -0.8364
  738MOL0     H99606  -0.107  11.438   2.423  1.2714  3.4988 -0.4757
  738MOL0     H99607  -0.278  11.461   2.477 -1.4949  2.2507 -0.3467
  738MOL0     H99608  -0.234  11.342   2.261  0.0149 -1.0891  1.5143
  738MOL0     H99609  -0.194  11.499   2.183  0.9244  1.5806  2.2601
  738MOL0     H99610  -0.413  11.594   2.233 -0.9948 -0.9124 -0.0274
  738MOL0     H99611  -0.452  11.468   2.341 -0.4459 -0.4634 -0.9105
  738MOL0     H99612   0.243  11.651   2.905 -2.2013  1.2314 -3.0693
  738MOL0     H99613   0.446  11.657   3.039 -0.3307 -2.3144 -3.6374
  738MOL0     H99614   0.888  11.926   2.948 -0.6864  0.0805 -1.0295
  738MOL0     H99615   1.117  11.906   2.939  1.1642 -1.8384  0.5210
  738MOL0     H99616   0.818  11.165   1.708  2.4007  0.7089  0.4473
  738MOL0     H99617   0.582  11.150   1.721  0.7772 -0.8799  0.6560
  738MOL0     H99618   0.200  11.233   1.808  3.5674 -0.0818  2.3776
  738MOL0     H99619  -0.030  11.163   1.811  2.2810  1.0822  0.1085
  738MOL0     H99620  -0.278  11.201   1.883  3.4271  0.1472 -0.6092
  738MOL0     H99621  -0.232  11.043   1.868 -0.6689  2.0718 -1.4353
  738MOL0     H99622  -0.477  11.095   1.918  0.1766  1.1285 -0.1060
  738MOL0     H99623  -0.432  11.115   2.090  0.0111 -0.1142  0.6849
  738MOL0     H99624  -0.349  10.888   2.116  2.4675  1.5918 -1.5414
  738MOL0     H99625  -0.372  10.850   1.953 -0.2616 -0.9795  1.2540
  738MOL0     H99626  -0.553  10.768   2.000  3.4140 -0.0615 -0.2871
  738MOL0     H99627  -0.624  10.928   2.013 -1.2340  0.0777  1.4221
  738MOL0     H99628  -0.689  10.748   2.383 -2.5291 -0.4299 -1.2540
  738MOL0     H99629  -0.036  11.179   2.245  1.5364 -1.7002  1.7344
  738MOL0     H99630   0.210  11.266   2.239  1.5593  1.8904 -1.6205
  739MOL0     O99631  10.503   7.422   9.567 -0.3721 -0.5322  0.0513
  739MOL0     C99632  10.529   7.334   9.646  0.2377 -0.4780 -0.3785
  739MOL0     O99633  10.438   7.251   9.689  0.2103  0.2621 -0.4927
  739MOL0     C99634  10.312   7.262   9.626  0.4765 -0.1966  0.5212
  739MOL0     C99635  10.207   7.338   9.676 -0.5295 -0.6817  0.1960
  739MOL0     C99636  10.088   7.348   9.613  0.1291 -1.0300  0.3728
  739MOL0     C99637  10.060   7.247   9.526 -0.5181  0.0686  0.8251
  739MOL0     O99638   9.935   7.256   9.462 -0.7857  0.9506 -0.2213
  739MOL0     C99639   9.873   7.134   9.424  0.1928  1.0202  0.4853
  739MOL0     C99640   9.855   7.132   9.276 -0.2810 -0.6981  0.7441
  739MOL0     C99641   9.760   7.248   9.228 -0.2306 -0.2480 -1.2143
  739MOL0     C99642   9.755   7.258   9.078  0.4218  0.2712 -0.8553
  739MOL0     C99643   9.684   7.391   9.047  0.4757 -0.7164  0.1755
  739MOL0     C99644   9.532   7.357   9.029 -0.8363  0.4884  0.5040
  739MOL0     C99645   9.466   7.477   8.963  0.2677 -0.4590 -0.4014
  739MOL0     C99646   9.321   7.503   9.016 -0.6304 -0.0348 -0.3264
  739MOL0     N99647   9.225   7.400   8.988 -0.1127  0.4674  0.3670
  739MOL0     C99648   9.230   7.304   8.890 -0.5481 -0.0904  0.2375
  739MOL0     C99649   9.110   7.242   8.892 -0.2222  0.0123 -0.3695
  739MOL0     C99650   9.065   7.138   8.788  0.4544  0.3202 -0.6289
  739MOL0     C99651   8.918   7.140   8.752 -0.8045 -0.3814 -0.2548
  739MOL0     C99652   8.818   7.089   8.863 -0.0742  0.6071 -0.6567
  739MOL0     C99653   8.680   7.125   8.833  0.3299  0.1149  0.3003
  739MOL0     O99654   8.630   7.042   8.730 -0.1065 -0.0933 -0.7408
  739MOL0     C99655   8.497   7.041   8.710  1.0596 -1.1192  0.4626
  739MOL0     C99656   8.435   6.923   8.677  0.6784  0.0945 -0.2514
  739MOL0     C99657   8.295   6.913   8.642  1.7445 -0.2305 -0.6674
  739MOL0     C99658   8.227   6.778   8.605  0.1098  0.4541  0.0911
  739MOL0     C99659   8.223   7.039   8.639  0.3520 -0.2886  0.1818
  739MOL0     C99660   8.080   7.039   8.599  0.5252  0.2501 -0.0215
  739MOL0     O99661   7.999   6.956   8.667 -0.2977  0.0311  0.1821
  739MOL0     C99662   7.870   6.983   8.647 -0.4394  0.3398  0.7852
  739MOL0     C99663   7.803   6.925   8.540 -0.6690 -0.5863  0.3095
  739MOL0     C99664   7.676   6.976   8.505  0.3673  0.4240  0.1050
  739MOL0     C99665   7.617   7.078   8.568 -0.2428  1.1307  0.8377
  739MOL0     O99666   7.488   7.111   8.522  0.1249  0.3254  0.0455
  739MOL0     C99667   7.407   7.190   8.616 -1.4493  0.4259 -0.6706
  739MOL0     C99668   7.252   7.197   8.600  0.2980 -0.0726  0.3302
  739MOL0     C99669   7.184   7.065   8.640 -0.3435 -0.0978  0.2155
  739MOL0     C99670   7.035   7.072   8.628  0.6918  0.2017  1.3667
  739MOL0     C99671   6.968   6.952   8.703 -0.4130 -0.0232  0.5331
  739MOL0     C99672   7.003   6.820   8.630 -0.4979 -0.0872 -0.4767
  739MOL0     C99673   6.879   6.730   8.602  0.0475  0.6722 -0.4867
  739MOL0     C99674   6.834   6.639   8.722  0.0347 -0.4100  0.3766
  739MOL0    Cl99675   6.662   6.604   8.711  0.1094  0.6465  0.1833
  739MOL0     C99676   7.685   7.141   8.672 -0.3515 -0.5786  0.5207
  739MOL0     C99677   7.800   7.088   8.720 -0.3144  0.1556 -0.3329
  739MOL0     O99678   8.047   7.129   8.524 -0.2753 -0.0198  0.0922
  739MOL0     C99679   8.290   7.159   8.662 -0.0352 -0.8117 -0.1878
  739MOL0     C99680   8.419   7.157   8.705 -0.1810  0.3688 -0.2022
  739MOL0     N99681   9.040   7.295   8.995  0.2947  0.4700  0.2150
  739MOL0     N99682   9.110   7.388   9.052 -0.1027 -0.3641 -0.2769
  739MOL0     C99683  10.159   7.160   9.481 -0.7270  0.6345  0.1169
  739MOL0     C99684  10.289   7.162   9.531 -0.9358 -0.0206  0.5725
  739MOL0     C99685  10.667   7.339   9.701  0.3656 -0.0195  0.0222
  739MOL0     C99686  10.697   7.301   9.831 -0.1564 -0.1104  0.4492
  739MOL0     C99687  10.829   7.317   9.870  0.4618 -0.3736 -0.3077
  739MOL0     C99688  10.930   7.361   9.781  0.3098  0.4646  0.1503
  739MOL0     O99689  11.062   7.371   9.816 -0.4705  0.4341 -0.3848
  739MOL0     C99690  11.091   7.468   9.914  0.1680  0.7076  0.0157
  739MOL0     C99691  11.236   7.515   9.886  0.3984  0.0689  0.6540
  739MOL0     C99692  11.271   7.570   9.741  0.4229 -0.1557 -0.1805
  739MOL0     C99693  11.426   7.606   9.733  1.1268 -0.5519 -0.1232
  739MOL0     C99694  11.495   7.647   9.858 -0.2580 -0.3863 -0.2036
  739MOL0     C99695  11.544   7.705   9.959  1.3309 -0.0917  0.5419
  739MOL0     C99696  10.902   7.393   9.651 -0.5399  0.8440 -0.3011
  739MOL0     C99697  10.768   7.384   9.620  0.6490 -0.6487  0.4493
  739MOL0     H99698  10.227   7.410   9.754 -2.7687  1.2971 -0.9249
  739MOL0     H99699  10.012   7.424   9.630  0.2900 -0.7813  0.0052
  739MOL0     H99700   9.926   7.044   9.454  0.0252  1.3249  1.7781
  739MOL0     H99701   9.773   7.127   9.467 -0.8156  3.9406 -1.1161
  739MOL0     H99702   9.950   7.137   9.224 -1.2985 -2.7354 -1.5346
  739MOL0     H99703   9.813   7.037   9.240 -1.6694 -0.1374  0.7932
  739MOL0     H99704   9.663   7.212   9.263  1.3944 -5.3539 -1.1804
  739MOL0     H99705   9.793   7.336   9.284  0.0353 -0.9296 -0.2739
  739MOL0     H99706   9.855   7.281   9.042  0.1003  3.2457 -0.1153
  739MOL0     H99707   9.718   7.164   9.037 -1.1774  0.9861 -1.1387
  739MOL0     H99708   9.703   7.477   9.111 -0.8904  2.5189 -3.3967
  739MOL0     H99709   9.719   7.421   8.948  2.6188 -0.7687  0.8557
  739MOL0     H99710   9.526   7.267   8.966  0.3958  0.5148  0.3116
  739MOL0     H99711   9.487   7.338   9.126 -0.5363 -0.1862  0.5198
  739MOL0     H99712   9.516   7.571   8.989  0.7717 -0.2081 -2.1027
  739MOL0     H99713   9.469   7.468   8.854 -0.5792  3.0107 -0.8452
  739MOL0     H99714   9.280   7.595   8.974 -2.0546 -1.6160 -2.6279
  739MOL0     H99715   9.329   7.515   9.125 -2.7424 -0.1120 -0.1140
  739MOL0     H99716   9.315   7.281   8.828  0.3664  1.7532  0.7354
  739MOL0     H99717   9.128   7.156   8.701  1.2762 -1.3011 -0.4182
  739MOL0     H99718   9.081   7.042   8.840  1.0294  1.8823  2.2884
  739MOL0     H99719   8.904   7.077   8.663  1.2497 -0.4660 -0.5648
  739MOL0     H99720   8.892   7.245   8.732  0.1799  0.0380  0.5684
  739MOL0     H99721   8.854   7.125   8.959  1.4919  1.4076 -1.4993
  739MOL0     H99722   8.815   6.980   8.871 -2.2936  0.6772  0.3922
  739MOL0     H99723   8.685   7.228   8.798  1.8847 -0.2315 -0.5499
  739MOL0     H99724   8.605   7.130   8.913  0.5528  0.7293  0.4773
  739MOL0     H99725   8.492   6.830   8.680 -0.4323 -0.6081 -0.3054
  739MOL0     H99726   8.164   6.736   8.684 -2.1505  1.2729 -1.1664
  739MOL0     H99727   8.153   6.785   8.524  0.5938 -2.1592 -0.6707
  739MOL0     H99728   8.309   6.711   8.577  0.7059  1.3231 -0.3114
  739MOL0     H99729   7.851   6.846   8.484 -1.4614 -1.9432  1.4739
  739MOL0     H99730   7.618   6.925   8.429  1.2375 -3.2815  1.6993
  739MOL0     H99731   7.423   7.135   8.709 -2.9809 -0.2802 -0.7897
  739MOL0     H99732   7.458   7.286   8.616  1.1869 -0.8477 -1.9612
  739MOL0     H99733   7.217   7.276   8.667 -0.0314 -0.9941  1.2769
  739MOL0     H99734   7.222   7.228   8.499 -1.4392 -0.9787  0.5182
  739MOL0     H99735   7.212   7.044   8.744 -1.7591 -1.4260  0.3609
  739MOL0     H99736   7.218   6.984   8.574  1.4108  1.5336 -1.0251
  739MOL0     H99737   6.989   7.160   8.673 -1.3190 -0.1389  0.1282
  739MOL0     H99738   7.012   7.071   8.521  1.3263 -2.4886  1.1719
  739MOL0     H99739   6.861   6.972   8.712 -0.4951 -0.1568 -0.0824
  739MOL0     H99740   7.005   6.948   8.806  1.5059  1.5270 -0.0257
  739MOL0     H99741   7.045   6.838   8.530  0.7207 -2.0412 -0.3822
  739MOL0     H99742   7.072   6.763   8.693 -0.5446 -2.1503 -2.1873
  739MOL0     H99743   6.906   6.654   8.528 -0.4423 -1.2924  1.2577
  739MOL0     H99744   6.797   6.792   8.563  1.5639  2.7932 -0.4797
  739MOL0     H99745   6.851   6.686   8.819  0.2381  0.5789 -0.1291
  739MOL0     H99746   6.900   6.552   8.716  0.4575 -0.2497  2.2010
  739MOL0     H99747   7.653   7.234   8.718 -0.3574 -0.7663  0.8983
  739MOL0     H99748   7.837   7.126   8.815 -0.5920  0.4953 -0.3574
  739MOL0     H99749   8.244   7.257   8.650  0.8957 -0.5287 -1.5957
  739MOL0     H99750   8.477   7.247   8.724  0.2169 -0.0308  0.5123
  739MOL0     H99751  10.132   7.086   9.407  0.9813 -0.4820  0.5529
  739MOL0     H99752  10.359   7.090   9.492 -0.0803  0.7918  0.5782
  739MOL0     H99753  10.630   7.259   9.905 -0.5869  1.5334  1.0140
  739MOL0     H99754  10.854   7.286   9.971  3.1324 -0.7439 -1.0192
  739MOL0     H99755  11.032   7.560   9.907  1.3973  1.4307 -1.2726
  739MOL0     H99756  11.079   7.423  10.013  0.0967 -0.9831 -0.7240
  739MOL0     H99757  11.299   7.430   9.914  3.6360  1.9931 -0.3655
  739MOL0     H99758  11.264   7.588   9.962  1.2815 -0.5294  0.9249
  739MOL0     H99759  11.224   7.666   9.717 -1.2825 -0.9920 -0.3270
  739MOL0     H99760  11.241   7.500   9.662 -1.7451  0.4919 -0.0034
  739MOL0     H99761  11.446   7.673   9.650  1.0702  1.0537  1.1080
  739MOL0     H99762  11.489   7.520   9.707  0.3432 -0.7008 -1.6203
  739MOL0     H99763  11.598   7.750  10.039  4.1900 -1.4225 -0.4666
  739MOL0     H99764  10.976   7.431   9.582 -1.4218 -0.4915 -2.0963
  739MOL0     H99765  10.744   7.425   9.522  0.2288  2.4767  1.7459
  740MOL0     O99766   3.221   5.508   0.422  0.4866  0.0753 -0.2044
  740MOL0     C99767   3.240   5.437   0.519  0.2341 -0.0608  0.1281
  740MOL0     O99768   3.150   5.409   0.614 -0.5808  0.2938 -0.5909
  740MOL0     C99769   3.017   5.455   0.609 -0.3448  0.3938 -0.7170
  740MOL0     C99770   2.925   5.429   0.502 -0.4034  0.7193 -0.3623
  740MOL0     C99771   2.796   5.479   0.510  0.1474  0.6385  1.3540
  740MOL0     C99772   2.751   5.551   0.619 -0.1698  0.9565  0.2610
  740MOL0     O99773   2.618   5.580   0.617 -0.4886  0.3510 -0.0408
  740MOL0     C99774   2.578   5.697   0.688  0.1565  0.0353  0.1234
  740MOL0     C99775   2.425   5.724   0.692  0.4158  0.8755  0.0400
  740MOL0     C99776   2.386   5.855   0.755 -0.2586  0.4101  0.7992
  740MOL0     C99777   2.231   5.878   0.767  1.0106  0.7204  0.2149
  740MOL0     C99778   2.152   5.787   0.868  0.3444  0.0053 -0.4774
  740MOL0     C99779   2.003   5.808   0.854  0.2498  0.1330 -1.1148
  740MOL0     C99780   1.937   5.797   0.713 -0.1825  0.3591  0.8614
  740MOL0     C99781   1.937   5.652   0.665  0.2752 -0.1790 -1.0484
  740MOL0     N99782   1.821   5.604   0.586 -0.0384 -0.2532  0.3027
  740MOL0     C99783   1.824   5.523   0.478  0.4139 -0.4583 -0.0894
  740MOL0     C99784   1.702   5.475   0.466  0.1827  0.4543  0.3469
  740MOL0     C99785   1.659   5.370   0.368  0.0675  0.7871  0.9794
  740MOL0     C99786   1.735   5.247   0.383 -0.5381  0.3277 -0.4155
  740MOL0     C99787   1.677   5.134   0.299 -0.4915 -0.0339 -0.3142
  740MOL0     C99788   1.691   4.989   0.373 -0.5769  0.2341  0.2217
  740MOL0     O99789   1.713   4.871   0.289 -0.0189 -0.3332 -0.5990
  740MOL0     C99790   1.605   4.796   0.242 -0.3517 -0.4957  0.3172
  740MOL0     C99791   1.634   4.731   0.122 -0.6450  0.5863 -0.4156
  740MOL0     C99792   1.532   4.668   0.050 -0.2327  0.2402 -0.1791
  740MOL0     C99793   1.570   4.581  -0.066 -0.1779 -0.0961 -0.7267
  740MOL0     C99794   1.402   4.659   0.103  0.2401  0.4686  0.3618
  740MOL0     C99795   1.297   4.576   0.040  0.4494 -0.4279  0.4336
  740MOL0     O99796   1.214   4.503   0.127 -0.0137  0.0881  0.1214
  740MOL0     C99797   1.088   4.469   0.084 -0.1096 -0.1357 -0.8408
  740MOL0     C99798   0.985   4.563   0.110  0.0427  0.1488 -0.4650
  740MOL0     C99799   0.855   4.527   0.071 -0.3032 -0.0020  0.1001
  740MOL0     C99800   0.832   4.408  -0.002  0.4498 -0.0944  0.0136
  740MOL0     O99801   0.706   4.368  -0.041  0.1421  0.6853 -1.0046
  740MOL0     C99802   0.599   4.458  -0.006  0.0943  0.4019 -1.0147
  740MOL0     C99803   0.459   4.396  -0.023 -0.3585  0.4218  0.3958
  740MOL0     C99804   0.412   4.275   0.057 -0.0967 -0.0252 -0.0655
  740MOL0     C99805   0.258   4.266   0.039  1.0119 -0.7802 -0.3262
  740MOL0     C99806   0.191   4.139   0.092  0.3263 -0.0241 -0.0733
  740MOL0     C99807   0.034   4.147   0.078  0.0594 -0.1626 -0.2395
  740MOL0     C99808  -0.017   4.117  -0.061  0.7844 -0.3252  1.0734
  740MOL0     C99809  -0.170   4.106  -0.075 -0.3512  0.7756  0.1005
  740MOL0    Cl99810  -0.238   4.069  -0.239  0.4036  0.0592 -0.8957
  740MOL0     C99811   0.938   4.329  -0.049  0.0372 -0.1659 -0.7525
  740MOL0     C99812   1.062   4.360   0.005 -0.4007 -0.2913 -0.1339
  740MOL0     O99813   1.259   4.609  -0.075 -0.5900  0.6199 -0.1507
  740MOL0     C99814   1.375   4.725   0.219 -0.2112  0.0500 -0.6915
  740MOL0     C99815   1.473   4.798   0.288 -0.1296  0.9663  0.3860
  740MOL0     N99816   1.626   5.529   0.561  0.7193 -0.4851  0.0505
  740MOL0     N99817   1.694   5.615   0.631 -1.0340 -0.7150  0.2374
  740MOL0     C99818   2.840   5.577   0.717 -0.5429  0.3872 -0.1235
  740MOL0     C99819   2.976   5.542   0.710 -0.2185  0.4335 -0.0278
  740MOL0     C99820   3.372   5.367   0.526 -1.0080  0.4911  0.5474
  740MOL0     C99821   3.404   5.299   0.646  0.0427  0.0964  0.8741
  740MOL0     C99822   3.533   5.253   0.676  0.1022 -0.5005  0.4777
  740MOL0     C99823   3.645   5.273   0.587  0.3930  0.2260  0.2179
  740MOL0     O99824   3.774   5.235   0.616  0.3704  0.4085  0.2316
  740MOL0     C99825   3.878   5.233   0.513  0.1414  0.7605  0.2939
  740MOL0     C99826   4.001   5.166   0.597 -0.2674 -0.3790 -0.1645
  740MOL0     C99827   4.139   5.180   0.526  0.0284  0.1476 -0.0737
  740MOL0     C99828   4.255   5.128   0.605  0.4211  0.8452 -0.0471
  740MOL0     C99829   4.295   5.225   0.707  0.2700 -0.1934 -0.3208
  740MOL0     C99830   4.336   5.313   0.785 -0.4123 -0.0652  0.3406
  740MOL0     C99831   3.619   5.353   0.471 -0.7080  1.1749 -0.1703
  740MOL0     C99832   3.490   5.404   0.448 -0.3673 -0.7922 -0.3239
  740MOL0     H99833   2.952   5.365   0.418 -0.7493  0.9211 -0.6263
  740MOL0     H99834   2.724   5.450   0.434 -3.0430  1.6007  3.8023
  740MOL0     H99835   2.610   5.690   0.793  2.8688 -2.4070 -0.7181
  740MOL0     H99836   2.626   5.785   0.645  0.8373 -0.8579 -1.0072
  740MOL0     H99837   2.392   5.713   0.588 -2.0929 -0.2514  0.8909
  740MOL0     H99838   2.373   5.653   0.757 -2.1362  2.7912  0.2238
  740MOL0     H99839   2.429   5.865   0.855 -2.6751  2.3589  1.7636
  740MOL0     H99840   2.426   5.933   0.690 -0.2167 -0.1840  0.1009
  740MOL0     H99841   2.211   5.986   0.771  0.3518  0.9085 -3.8229
  740MOL0     H99842   2.190   5.847   0.671 -0.2993  1.2062  0.6021
  740MOL0     H99843   2.169   5.681   0.846  0.8302  0.2676 -1.4104
  740MOL0     H99844   2.184   5.804   0.971  1.7683  0.5973 -0.9901
  740MOL0     H99845   1.943   5.752   0.926 -1.2667  2.9304 -0.0546
  740MOL0     H99846   1.984   5.909   0.893  0.5451 -0.8336  1.7104
  740MOL0     H99847   1.831   5.819   0.726 -0.4096  0.7950 -1.3013
  740MOL0     H99848   1.963   5.871   0.637  1.8933  0.2473  1.4079
  740MOL0     H99849   1.952   5.581   0.747 -2.6513  0.5141  0.1845
  740MOL0     H99850   2.022   5.648   0.596  0.3765 -2.6258 -0.8819
  740MOL0     H99851   1.905   5.501   0.410 -0.8403 -3.7875 -0.7031
  740MOL0     H99852   1.553   5.343   0.372 -0.3166  1.5760 -1.9393
  740MOL0     H99853   1.694   5.410   0.273  0.3043 -0.3146  0.5905
  740MOL0     H99854   1.726   5.229   0.490 -1.0424 -0.3001 -0.5583
  740MOL0     H99855   1.840   5.251   0.353 -0.2350 -1.7050  0.2636
  740MOL0     H99856   1.738   5.129   0.209  0.9096  0.5340  0.5836
  740MOL0     H99857   1.577   5.160   0.263  0.0346  0.4134 -1.4794
  740MOL0     H99858   1.595   4.979   0.426 -0.1621  2.3551  1.4963
  740MOL0     H99859   1.767   4.988   0.452  0.3357  1.8685 -0.5952
  740MOL0     H99860   1.734   4.716   0.083 -0.0243 -2.5861  1.9718
  740MOL0     H99861   1.679   4.581  -0.075 -0.0135  0.8489  0.9461
  740MOL0     H99862   1.555   4.474  -0.047  0.1761  0.2468  1.6848
  740MOL0     H99863   1.523   4.624  -0.156 -0.7315  1.4423  0.2587
  740MOL0     H99864   1.013   4.655   0.161 -1.9910  0.9167 -0.6585
  740MOL0     H99865   0.782   4.602   0.100  0.3892  1.4103 -1.6452
  740MOL0     H99866   0.611   4.485   0.099 -0.9663  0.1895 -0.8227
  740MOL0     H99867   0.615   4.549  -0.066  3.9837  1.8918  1.8396
  740MOL0     H99868   0.385   4.472   0.003 -1.0922  0.1675 -0.8474
  740MOL0     H99869   0.452   4.363  -0.127 -0.6793 -1.4072  0.9652
  740MOL0     H99870   0.436   4.283   0.163 -2.2112 -0.5038  0.5006
  740MOL0     H99871   0.454   4.187   0.007  0.8533  0.7145 -0.5870
  740MOL0     H99872   0.204   4.349   0.086 -0.7843 -0.6646 -2.3964
  740MOL0     H99873   0.231   4.281  -0.066 -0.8284  2.4875  0.4709
  740MOL0     H99874   0.226   4.132   0.195  2.1885  1.4183 -0.5519
  740MOL0     H99875   0.227   4.051   0.039 -0.8752  1.1054 -2.9823
  740MOL0     H99876  -0.009   4.076   0.150 -0.2142  0.5848  0.3407
  740MOL0     H99877   0.003   4.244   0.119 -2.4386 -0.2354 -1.7377
  740MOL0     H99878   0.018   4.016  -0.085  0.0646 -0.4750  0.6450
  740MOL0     H99879   0.029   4.187  -0.131  0.7454 -0.7666  0.5979
  740MOL0     H99880  -0.221   4.196  -0.039 -2.6023  0.1140 -1.2541
  740MOL0     H99881  -0.194   4.020  -0.012 -0.3591  1.9269  1.7513
  740MOL0     H99882   0.936   4.232  -0.096 -2.2397 -0.9022  0.7216
  740MOL0     H99883   1.158   4.318  -0.023  0.1147  2.4546 -3.0077
  740MOL0     H99884   1.271   4.715   0.248 -0.8998 -2.0677 -3.4372
  740MOL0     H99885   1.439   4.846   0.379  1.7603  4.4717 -0.5608
  740MOL0     H99886   2.806   5.633   0.804  0.7544  0.2459  0.5038
  740MOL0     H99887   3.055   5.560   0.783  1.2086 -3.1881 -0.4649
  740MOL0     H99888   3.322   5.273   0.712 -0.0104  1.9029  1.5735
  740MOL0     H99889   3.537   5.190   0.764  1.7003  1.1654  1.6432
  740MOL0     H99890   3.835   5.169   0.436  2.7644 -1.6290  0.6668
  740MOL0     H99891   3.900   5.335   0.480  0.4652  1.2277  1.9031
  740MOL0     H99892   3.974   5.060   0.605  2.6479 -1.0905  1.7871
  740MOL0     H99893   3.993   5.215   0.694  0.3711  1.3691 -0.9530
  740MOL0     H99894   4.160   5.286   0.507 -2.5875  0.6181 -0.6629
  740MOL0     H99895   4.135   5.130   0.429 -1.3174  1.7666 -0.8944
  740MOL0     H99896   4.346   5.117   0.545  2.2226  2.6830  2.1485
  740MOL0     H99897   4.230   5.032   0.650 -0.0724  0.3208 -1.3873
  740MOL0     H99898   4.369   5.391   0.850  0.6856 -0.5720  0.4157
  740MOL0     H99899   3.698   5.383   0.403  1.9401 -0.1996  2.1295
  740MOL0     H99900   3.477   5.479   0.372 -2.4289 -2.5232 -1.7926
  741MOL0     O99901   8.056  11.060   3.210 -0.0402 -0.2434 -0.5351
  741MOL0     C99902   8.003  11.074   3.326  1.0691 -0.5531  0.0882
  741MOL0     O99903   7.871  11.073   3.353  0.2404 -0.2385 -0.5096
  741MOL0     C99904   7.788  11.046   3.247  0.2142 -0.2851  0.2300
  741MOL0     C99905   7.742  10.921   3.216 -0.5041 -0.4097  0.0355
  741MOL0     C99906   7.654  10.904   3.104  0.6291  0.1202  0.3439
  741MOL0     C99907   7.626  11.014   3.022  0.5258  0.0734  0.5835
  741MOL0     O99908   7.558  10.977   2.911 -0.5957 -0.5137 -0.2064
  741MOL0     C99909   7.579  11.051   2.789 -0.9528  0.7227 -0.9129
  741MOL0     C99910   7.506  11.178   2.776  0.7782  0.3498  0.5413
  741MOL0     C99911   7.399  11.191   2.666  0.2821 -0.6193  0.5168
  741MOL0     C99912   7.272  11.255   2.735 -0.3010  0.2483 -0.4262
  741MOL0     C99913   7.159  11.285   2.645 -0.0005  0.0594  0.3973
  741MOL0     C99914   7.022  11.301   2.728  0.4228 -0.4908  0.7355
  741MOL0     C99915   6.920  11.394   2.646  0.4154 -0.1325  0.1760
  741MOL0     C99916   6.783  11.405   2.722 -0.2062 -0.5043 -0.0607
  741MOL0     N99917   6.668  11.469   2.644  0.0779  0.6419 -0.7890
  741MOL0     C99918   6.566  11.399   2.599  0.5369 -0.1855 -0.5106
  741MOL0     C99919   6.489  11.478   2.522 -0.1763 -0.4438  0.0109
  741MOL0     C99920   6.349  11.455   2.458 -0.5408  0.6319  0.0205
  741MOL0     C99921   6.245  11.460   2.567  0.0771  0.6254 -0.5389
  741MOL0     C99922   6.213  11.601   2.612 -0.4538 -0.0125 -0.7961
  741MOL0     C99923   6.137  11.600   2.746  0.0205 -0.0099  0.0395
  741MOL0     O99924   6.029  11.506   2.737 -0.2107  0.0107 -0.0257
  741MOL0     C99925   5.904  11.542   2.699 -0.3252 -0.1419 -0.2605
  741MOL0     C99926   5.805  11.448   2.709  0.0933  0.7334 -0.2322
  741MOL0     C99927   5.670  11.472   2.673 -0.2697 -0.0293 -0.2234
  741MOL0     C99928   5.583  11.361   2.710  1.1497  0.0079  0.1157
  741MOL0     C99929   5.629  11.597   2.621  0.7614  0.2497  0.2026
  741MOL0     C99930   5.489  11.626   2.579  0.8405  0.2691 -0.2506
  741MOL0     O99931   5.420  11.524   2.522 -0.3470  0.1986 -0.3992
  741MOL0     C99932   5.298  11.559   2.467  0.2251  0.6427 -0.4290
  741MOL0     C99933   5.293  11.644   2.349  0.0633 -0.5316 -0.2638
  741MOL0     C99934   5.165  11.693   2.306  0.5893 -0.2693 -0.0423
  741MOL0     C99935   5.047  11.629   2.357  0.3870  0.0468 -0.6017
  741MOL0     O99936   4.917  11.648   2.316  0.6802 -0.1427  1.0354
  741MOL0     C99937   4.883  11.736   2.213  0.3515  0.2344  0.4908
  741MOL0     C99938   4.729  11.733   2.235 -0.1221  0.3411 -0.0354
  741MOL0     C99939   4.675  11.840   2.140 -0.7537 -0.0219  0.2319
  741MOL0     C99940   4.517  11.836   2.153 -0.2965  0.2594  0.3743
  741MOL0     C99941   4.444  11.713   2.104  0.2188 -0.0340 -0.2617
  741MOL0     C99942   4.492  11.655   1.981  0.4967  0.6859  0.2106
  741MOL0     C99943   4.419  11.517   1.952  0.6266  0.0040 -0.3307
  741MOL0     C99944   4.490  11.444   1.832  0.1088  0.2524 -0.0387
  741MOL0    Cl99945   4.445  11.503   1.672  0.4739  0.6071  0.2528
  741MOL0     C99946   5.059  11.537   2.458  0.3437  0.3652 -0.1375
  741MOL0     C99947   5.182  11.504   2.523 -0.4862 -0.0625  0.7829
  741MOL0     O99948   5.437  11.737   2.603 -0.2592  0.7413 -0.0765
  741MOL0     C99949   5.724  11.691   2.605  0.3178 -0.1579 -0.2847
  741MOL0     C99950   5.857  11.662   2.640  0.2670 -0.5493  0.1970
  741MOL0     N99951   6.554  11.607   2.517  0.0933 -0.3084  0.3262
  741MOL0     N99952   6.659  11.596   2.594 -0.2396 -0.5891  0.7088
  741MOL0     C99953   7.674  11.141   3.059 -0.4144 -0.2426  0.1352
  741MOL0     C99954   7.756  11.156   3.165 -0.4149  0.0536  0.6339
  741MOL0     C99955   8.088  11.107   3.439  0.4124  0.3954 -0.6490
  741MOL0     C99956   8.225  11.093   3.430 -0.4444 -0.0948 -0.1017
  741MOL0     C99957   8.312  11.119   3.545  0.3935 -0.8620 -0.4742
  741MOL0     C99958   8.255  11.155   3.668  0.0109  0.2277  0.3041
  741MOL0     O99959   8.344  11.179   3.776 -0.1240 -0.1298  0.3482
  741MOL0     C99960   8.292  11.245   3.897 -0.0138  0.6595  0.4062
  741MOL0     C99961   8.233  11.127   3.969 -0.5155  0.2950 -0.3464
  741MOL0     C99962   8.217  11.159   4.122 -0.2806  0.0875 -0.4359
  741MOL0     C99963   8.109  11.270   4.147 -0.1511  0.3796 -0.3117
  741MOL0     C99964   7.984  11.222   4.098  0.3018 -0.0090  0.0515
  741MOL0     C99965   7.873  11.185   4.078  0.1420 -0.9723  0.3316
  741MOL0     C99966   8.115  11.165   3.677 -0.3309 -0.3525 -0.3828
  741MOL0     C99967   8.035  11.150   3.566  0.3316 -0.5272  0.4954
  741MOL0     H99968   7.775  10.839   3.279 -2.1249  0.2900  1.8793
  741MOL0     H99969   7.622  10.806   3.070 -2.7516  1.5692 -1.0877
  741MOL0     H99970   7.687  11.071   2.785 -0.1305 -1.8256  3.0281
  741MOL0     H99971   7.548  10.983   2.709  0.7773 -1.6070  0.2876
  741MOL0     H99972   7.457  11.194   2.872  1.8955  2.8928  0.7599
  741MOL0     H99973   7.572  11.265   2.769 -2.0064  3.3525  5.6577
  741MOL0     H99974   7.431  11.251   2.580 -0.5698 -3.2291 -1.7637
  741MOL0     H99975   7.383  11.095   2.615  2.0942 -1.8868  2.1568
  741MOL0     H99976   7.232  11.195   2.817 -0.1722 -1.0474 -1.2901
  741MOL0     H99977   7.316  11.343   2.784  2.4833 -1.5372  0.4886
  741MOL0     H99978   7.170  11.370   2.577 -0.9310 -0.6518 -0.6762
  741MOL0     H99979   7.148  11.207   2.570  4.2402  0.5340 -0.9965
  741MOL0     H99980   6.985  11.198   2.741  0.5527 -0.7020 -0.4314
  741MOL0     H99981   7.048  11.345   2.825 -1.9685 -1.0290  1.7042
  741MOL0     H99982   6.952  11.496   2.625 -1.7322  0.4413 -0.5674
  741MOL0     H99983   6.893  11.343   2.553 -1.1616  2.2782 -0.7669
  741MOL0     H99984   6.797  11.462   2.815 -1.5864 -1.5889  0.8526
  741MOL0     H99985   6.742  11.308   2.749 -1.7932 -0.1453 -1.0367
  741MOL0     H99986   6.530  11.301   2.629 -2.0132  0.7918 -0.1606
  741MOL0     H99987   6.333  11.537   2.386 -0.7220  1.4749  1.0009
  741MOL0     H99988   6.351  11.360   2.403 -1.7291  0.5972  0.0101
  741MOL0     H99989   6.278  11.402   2.654  0.1811 -0.1574 -1.0989
  741MOL0     H99990   6.157  11.411   2.524  0.2962 -2.0690  1.7854
  741MOL0     H99991   6.148  11.650   2.539 -1.3109  0.0536 -0.0098
  741MOL0     H99992   6.305  11.659   2.623  0.5768 -1.6471 -0.3685
  741MOL0     H99993   6.100  11.700   2.771 -2.3301 -0.3122 -1.8858
  741MOL0     H99994   6.206  11.565   2.824 -0.4265 -0.2295  0.3412
  741MOL0     H99995   5.836  11.351   2.747  1.7530  1.2406 -0.2117
  741MOL0     H99996   5.549  11.311   2.619  2.5917 -1.8852  0.5480
  741MOL0     H99997   5.631  11.277   2.761  3.8835  1.6129  0.4213
  741MOL0     H99998   5.501  11.402   2.770 -0.9296 -3.3207 -0.1938
  741MOL0     H99999   5.378  11.683   2.295  1.0279  0.3051  1.7493
  741MOL0     H    0   5.162  11.769   2.229 -1.9076 -1.6339 -1.4307
  741MOL0     H    1   4.935  11.830   2.234  0.9723  0.0490 -0.1459
  741MOL0     H    2   4.907  11.693   2.115 -1.8479 -0.6265  0.2851
  741MOL0     H    3   4.685  11.633   2.227  2.1702 -0.6604 -1.0389
  741MOL0     H    4   4.704  11.759   2.338  1.8137  2.6252 -0.0827
  741MOL0     H    5   4.713  11.824   2.039 -2.6095 -1.1671 -0.3296
  741MOL0     H    6   4.712  11.939   2.169  0.9181  0.6585 -3.6024
  741MOL0     H    7   4.500  11.844   2.261 -1.6521 -2.4525  0.4437
  741MOL0     H    8   4.475  11.922   2.101  0.3621  0.7482  0.6366
  741MOL0     H    9   4.336  11.730   2.101  0.3843  1.0421 -0.3464
  741MOL0     H   10   4.451  11.634   2.179  0.6028  0.4914  0.2652
  741MOL0     H   11   4.479  11.714   1.890 -1.5324 -1.1150 -0.7872
  741MOL0     H   12   4.597  11.625   1.990  0.9199  1.6002 -1.3796
  741MOL0     H   13   4.311  11.528   1.939  0.6202 -0.7656 -1.0228
  741MOL0     H   14   4.429  11.457   2.043 -0.9263  2.2088  1.4043
  741MOL0     H   15   4.472  11.337   1.836 -0.4811  0.3603  3.8696
  741MOL0     H   16   4.598  11.457   1.846 -0.3331  2.1036  2.2804
  741MOL0     H   17   4.973  11.485   2.499  1.7835 -1.4799  0.6823
  741MOL0     H   18   5.178  11.430   2.603 -1.8727  0.8742  1.6290
  741MOL0     H   19   5.709  11.784   2.551 -0.2993 -0.3457 -0.4524
  741MOL0     H   20   5.937  11.731   2.616  0.9583 -2.2949 -3.1181
  741MOL0     H   21   7.663  11.224   2.991  1.3047 -2.1416 -2.6496
  741MOL0     H   22   7.794  11.255   3.191 -0.4994  1.0649 -2.6447
  741MOL0     H   23   8.266  11.059   3.335  0.6861  0.6480  0.1073
  741MOL0     H   24   8.420  11.117   3.535  0.3037 -1.0964 -1.4217
  741MOL0     H   25   8.389  11.278   3.936  0.8679 -1.8664  0.5688
  741MOL0     H   26   8.224  11.329   3.881  1.4717  1.5201 -2.0036
  741MOL0     H   27   8.295  11.038   3.951  0.8250  1.3052 -0.8878
  741MOL0     H   28   8.136  11.108   3.923 -1.2687  2.4505  0.2286
  741MOL0     H   29   8.320  11.184   4.148 -0.7946 -1.0667  3.3153
  741MOL0     H   30   8.199  11.071   4.184  0.4047 -0.0912 -0.4887
  741MOL0     H   31   8.134  11.360   4.091  1.5325  0.9139  1.1969
  741MOL0     H   32   8.099  11.291   4.254 -1.3404  1.2652 -0.5813
  741MOL0     H   33   7.773  11.147   4.072 -0.4629  0.7297 -2.5223
  741MOL0     H   34   8.066  11.201   3.767 -0.5628  1.1156 -1.0562
  741MOL0     H   35   7.927  11.164   3.566 -0.2894 -3.2087 -3.8547
  742MOL0     O   36   2.369   7.713   2.238  0.0447 -0.4671  0.5991
  742MOL0     C   37   2.435   7.812   2.254 -0.2904  0.0108  0.2167
  742MOL0     O   38   2.387   7.936   2.278 -0.7130  0.2818  0.8367
  742MOL0     C   39   2.249   7.936   2.279 -0.3050  0.5690 -0.1283
  742MOL0     C   40   2.178   8.023   2.192 -0.4614  0.0465  0.6703
  742MOL0     C   41   2.039   8.019   2.180 -0.2487 -0.5254 -0.5489
  742MOL0     C   42   1.960   7.936   2.260 -0.0627 -0.0030  0.2368
  742MOL0     O   43   1.822   7.937   2.251 -0.4478  0.1068  0.1966
  742MOL0     C   44   1.744   7.838   2.314  0.7384 -0.3487  0.6797
  742MOL0     C   45   1.589   7.869   2.286  0.0619  0.0135  0.8894
  742MOL0     C   46   1.546   8.014   2.300 -0.1035  0.5532 -0.1285
  742MOL0     C   47   1.399   8.036   2.325 -0.2168 -0.5871 -0.5493
  742MOL0     C   48   1.377   8.187   2.315  0.4813  0.0160 -0.6312
  742MOL0     C   49   1.373   8.248   2.452  0.6951  0.5055 -1.1935
  742MOL0     C   50   1.242   8.218   2.525 -1.0685  0.4515 -0.0004
  742MOL0     C   51   1.235   8.248   2.673 -0.4508 -0.0442 -0.2798
  742MOL0     N   52   1.088   8.236   2.707  0.6399  0.5589  0.0673
  742MOL0     C   53   1.025   8.122   2.737  0.0285 -0.3910 -0.2058
  742MOL0     C   54   0.893   8.158   2.749 -0.7583  0.2580  0.9152
  742MOL0     C   55   0.773   8.067   2.762 -0.0377  0.0666  0.3201
  742MOL0     C   56   0.765   8.003   2.895 -0.5246  0.5992 -0.4059
  742MOL0     C   57   0.658   7.892   2.902 -0.0254 -0.5635 -0.2009
  742MOL0     C   58   0.638   7.825   3.040 -0.4344  1.0329  0.4459
  742MOL0     O   59   0.515   7.748   3.022  0.1567  0.2665 -0.2669
  742MOL0     C   60   0.397   7.818   3.050  0.4850  0.6568 -1.0689
  742MOL0     C   61   0.286   7.741   3.000 -0.0574 -0.2155 -0.3455
  742MOL0     C   62   0.156   7.791   3.000 -0.2321  0.0219  0.0963
  742MOL0     C   63   0.047   7.713   2.931 -0.3037  0.6940  0.3104
  742MOL0     C   64   0.128   7.910   3.071 -0.3968 -0.2048  0.0266
  742MOL0     C   65  -0.001   7.961   3.089 -0.2320  0.8206  0.1334
  742MOL0     O   66  -0.006   8.091   3.111 -0.2609 -0.4865 -0.1909
  742MOL0     C   67  -0.131   8.150   3.120 -1.3655 -0.3565  0.2858
  742MOL0     C   68  -0.167   8.195   3.255  0.4329 -0.1566  0.4922
  742MOL0     C   69  -0.290   8.269   3.261 -0.4461 -1.1137 -0.0557
  742MOL0     C   70  -0.362   8.318   3.152 -0.0430 -0.2055 -1.0090
  742MOL0     O   71  -0.478   8.393   3.169  0.1262 -0.5255  0.0364
  742MOL0     C   72  -0.601   8.358   3.094  0.0727  1.2497 -1.4042
  742MOL0     C   73  -0.723   8.416   3.168  0.8656  0.4611  0.1612
  742MOL0     C   74  -0.770   8.548   3.108  0.4273 -0.0527 -0.1455
  742MOL0     C   75  -0.893   8.615   3.175 -0.2517 -0.1262 -0.1336
  742MOL0     C   76  -0.859   8.684   3.306 -0.5420 -0.5300  0.5050
  742MOL0     C   77  -0.973   8.756   3.367 -0.2569 -0.5819 -0.0120
  742MOL0     C   78  -1.101   8.664   3.395 -0.4146  0.5101  0.3791
  742MOL0     C   79  -1.158   8.687   3.538  1.4173 -0.2573 -0.8053
  742MOL0    Cl   80  -1.052   8.621   3.667 -0.2954 -0.0912  0.1299
  742MOL0     C   81  -0.324   8.266   3.032  0.0861 -0.7962 -0.4212
  742MOL0     C   82  -0.207   8.194   3.011  0.1271  0.0285  0.4472
  742MOL0     O   83  -0.097   7.882   3.109  0.6499  0.3264  0.1150
  742MOL0     C   84   0.237   7.987   3.121 -0.4820  0.2915 -0.5556
  742MOL0     C   85   0.368   7.941   3.112 -0.1247  0.3913 -0.1823
  742MOL0     N   86   0.885   8.294   2.743 -0.2835  0.4266  0.2601
  742MOL0     N   87   0.999   8.339   2.707 -0.4888 -0.2077 -0.8601
  742MOL0     C   88   2.032   7.854   2.352  0.3058  0.4100  0.9784
  742MOL0     C   89   2.173   7.849   2.359  0.3969 -0.7785  0.2880
  742MOL0     C   90   2.579   7.789   2.234 -1.3471 -0.5727  0.2316
  742MOL0     C   91   2.634   7.665   2.205  0.2540  0.2348 -0.5154
  742MOL0     C   92   2.766   7.642   2.196  0.3079  0.8280  0.4125
  742MOL0     C   93   2.856   7.744   2.228 -0.1499 -0.3468  0.6587
  742MOL0     O   94   2.992   7.735   2.204 -0.2021  0.3387  0.4987
  742MOL0     C   95   3.052   7.605   2.189 -0.0637  0.4100  0.3440
  742MOL0     C   96   3.201   7.614   2.172  0.3016  0.1260  0.4714
  742MOL0     C   97   3.283   7.624   2.300 -0.2986 -0.0965  0.1743
  742MOL0     C   98   3.427   7.574   2.278 -0.1159  0.0340  0.2962
  742MOL0     C   99   3.502   7.588   2.407 -0.8735  0.4330  0.6211
  742MOL0     C  100   3.569   7.621   2.502  0.3208 -0.9963 -0.2590
  742MOL0     C  101   2.808   7.863   2.268  0.7660 -0.4978  0.0055
  742MOL0     C  102   2.667   7.888   2.270 -0.3249 -0.6068 -0.3845
  742MOL0     H  103   2.246   8.091   2.140 -0.5259 -1.2365 -1.1822
  742MOL0     H  104   2.004   8.085   2.102  1.7910  1.2188 -0.0583
  742MOL0     H  105   1.783   7.741   2.283  2.6586 -0.0625  2.0148
  742MOL0     H  106   1.759   7.847   2.422  1.4867  0.2504  0.5366
  742MOL0     H  107   1.568   7.841   2.182 -1.2487 -1.0019  1.4042
  742MOL0     H  108   1.519   7.805   2.340 -3.0807  0.5783 -2.1629
  742MOL0     H  109   1.602   8.065   2.379 -3.1296  2.3790  1.0205
  742MOL0     H  110   1.573   8.064   2.207  0.1852  1.4589  0.4324
  742MOL0     H  111   1.346   7.991   2.241 -1.3678  0.0264 -0.1711
  742MOL0     H  112   1.379   7.991   2.422  0.9625  1.0739  0.5160
  742MOL0     H  113   1.456   8.238   2.258  0.3985 -0.1314 -0.8776
  742MOL0     H  114   1.281   8.213   2.270 -0.0893  2.6572  1.7790
  742MOL0     H  115   1.463   8.219   2.506 -0.2727  0.4627  0.4786
  742MOL0     H  116   1.379   8.358   2.447  1.2174  0.4517 -1.9451
  742MOL0     H  117   1.167   8.279   2.473 -1.1457  0.5275  0.2023
  742MOL0     H  118   1.214   8.113   2.513  0.3559 -0.0068  0.5311
  742MOL0     H  119   1.270   8.350   2.691 -1.2122 -0.0142  1.2416
  742MOL0     H  120   1.296   8.180   2.732  0.8591  0.5616 -0.9021
  742MOL0     H  121   1.064   8.023   2.761  0.1994 -0.4250 -0.6124
  742MOL0     H  122   0.684   8.127   2.742 -0.3499 -0.8622 -1.3209
  742MOL0     H  123   0.787   7.989   2.687  1.2521 -1.8439  2.4245
  742MOL0     H  124   0.755   8.068   2.982  1.2167  0.6190 -0.1961
  742MOL0     H  125   0.861   7.956   2.917  1.0963  3.6840 -0.3448
  742MOL0     H  126   0.677   7.812   2.829 -0.1052 -0.7331 -0.0382
  742MOL0     H  127   0.563   7.941   2.878  1.1764  2.0071 -0.0084
  742MOL0     H  128   0.637   7.897   3.123 -3.8180 -2.1988  3.6378
  742MOL0     H  129   0.727   7.762   3.048 -0.0620  1.3492 -1.0208
  742MOL0     H  130   0.320   7.649   2.954  3.2449  0.9151 -0.4298
  742MOL0     H  131  -0.014   7.660   3.005  0.6321  1.5058  1.7053
  742MOL0     H  132  -0.010   7.781   2.866 -2.7501  1.7071  3.2824
  742MOL0     H  133   0.099   7.639   2.870  0.7820  4.0794 -3.3094
  742MOL0     H  134  -0.116   8.157   3.343 -0.2345  1.9497  1.8872
  742MOL0     H  135  -0.325   8.291   3.362  0.8933 -1.5904  0.5412
  742MOL0     H  136  -0.588   8.399   2.994 -0.1025 -1.3199 -2.5564
  742MOL0     H  137  -0.606   8.249   3.101  0.4793  1.0784 -3.3596
  742MOL0     H  138  -0.800   8.339   3.167  1.3785 -0.1033  1.3794
  742MOL0     H  139  -0.694   8.433   3.272 -0.9820  0.6384  0.6772
  742MOL0     H  140  -0.787   8.535   3.000 -4.0071  3.0160 -0.1301
  742MOL0     H  141  -0.689   8.621   3.110 -0.7651  1.3160  0.3640
  742MOL0     H  142  -0.929   8.687   3.101  5.5350  0.5878 -2.7973
  742MOL0     H  143  -0.963   8.533   3.194  0.7950 -0.9978  0.0781
  742MOL0     H  144  -0.779   8.756   3.292 -1.0156 -0.2397 -0.9565
  742MOL0     H  145  -0.829   8.605   3.375  0.9000 -0.1815  0.3130
  742MOL0     H  146  -0.943   8.805   3.461 -4.0024 -1.5479  1.8895
  742MOL0     H  147  -1.004   8.827   3.290  0.8852  1.5086  1.3422
  742MOL0     H  148  -1.077   8.557   3.396  0.5292  0.5685 -3.1156
  742MOL0     H  149  -1.182   8.681   3.324 -2.1821 -2.7352  1.3899
  742MOL0     H  150  -1.250   8.629   3.538  1.3753 -0.2577  1.0020
  742MOL0     H  151  -1.167   8.795   3.555  0.9502 -0.5405  0.9160
  742MOL0     H  152  -0.388   8.297   2.950  0.2116  0.8538  0.0692
  742MOL0     H  153  -0.178   8.167   2.910  1.5828 -4.7495  1.8893
  742MOL0     H  154   0.221   8.084   3.166  2.0811  1.4238 -1.8370
  742MOL0     H  155   0.448   8.002   3.151 -0.8538  1.1039  0.2329
  742MOL0     H  156   1.971   7.789   2.414  0.8758  0.8145  1.9850
  742MOL0     H  157   2.205   7.790   2.444 -1.1686 -0.5920  1.0377
  742MOL0     H  158   2.566   7.580   2.199  0.5041 -0.0177  0.1459
  742MOL0     H  159   2.799   7.541   2.174 -2.4379 -0.0693  0.0724
  742MOL0     H  160   3.025   7.535   2.268  0.1160  0.3663  0.3667
  742MOL0     H  161   3.001   7.566   2.100 -0.5993 -0.3887  0.9853
  742MOL0     H  162   3.224   7.705   2.116 -1.6397 -0.0887 -0.7984
  742MOL0     H  163   3.228   7.526   2.112 -1.7455  0.7097 -1.4428
  742MOL0     H  164   3.236   7.563   2.377 -0.5199 -0.3661 -0.1695
  742MOL0     H  165   3.288   7.727   2.336 -1.6473  1.1750 -2.9266
  742MOL0     H  166   3.466   7.637   2.198 -1.2329 -0.9425 -1.0739
  742MOL0     H  167   3.438   7.471   2.242  2.3716 -0.0902  1.2627
  742MOL0     H  168   3.635   7.656   2.579  1.1547  0.8057 -1.7241
  742MOL0     H  169   2.875   7.940   2.307 -0.2473 -0.0164  0.8329
  742MOL0     H  170   2.628   7.978   2.318  0.9795 -0.5770  0.6957
  743MOL0     O  171   8.071   6.987   3.648 -0.2024  0.5648 -0.6988
  743MOL0     C  172   8.082   7.106   3.691  0.0011  0.7276  0.0485
  743MOL0     O  173   7.980   7.183   3.730 -0.0564  0.0576 -0.1288
  743MOL0     C  174   7.854   7.131   3.748  0.0396 -0.0492  0.1375
  743MOL0     C  175   7.830   7.029   3.846 -0.4817 -0.0783 -0.4126
  743MOL0     C  176   7.701   6.980   3.854 -0.1449 -0.2269 -1.4492
  743MOL0     C  177   7.595   7.028   3.782 -0.6695  0.0903 -0.6324
  743MOL0     O  178   7.476   6.965   3.791  0.5965 -0.4192  0.3257
  743MOL0     C  179   7.359   7.056   3.800 -0.3966 -0.5285  0.7404
  743MOL0     C  180   7.244   6.976   3.862 -0.4129 -0.4037  0.0447
  743MOL0     C  181   7.107   7.035   3.832  0.3002  0.1209  0.2881
  743MOL0     C  182   6.986   6.942   3.854  0.1174  0.9229  0.0812
  743MOL0     C  183   6.860   7.020   3.819  0.1103  0.8693  0.5940
  743MOL0     C  184   6.727   6.952   3.851 -0.4457 -0.1009 -0.0518
  743MOL0     C  185   6.614   7.052   3.828  1.1145  0.3540  0.9452
  743MOL0     C  186   6.484   6.988   3.876  0.4686 -0.2069 -0.6956
  743MOL0     N  187   6.482   6.958   4.021 -0.2389 -0.5538  0.5565
  743MOL0     C  188   6.430   6.842   4.072  0.5247 -0.2192  0.3672
  743MOL0     C  189   6.436   6.864   4.197  0.2377 -0.6425 -0.7725
  743MOL0     C  190   6.408   6.766   4.307 -0.2474  0.4641 -0.7493
  743MOL0     C  191   6.263   6.719   4.313  0.1839 -0.3298  0.1072
  743MOL0     C  192   6.251   6.610   4.413 -0.5433 -0.5600 -1.0622
  743MOL0     C  193   6.100   6.567   4.428  1.1690 -0.0627 -0.6781
  743MOL0     O  194   6.024   6.672   4.495  0.0449 -0.3805  0.0632
  743MOL0     C  195   5.893   6.649   4.531 -0.3568  0.9448  0.7719
  743MOL0     C  196   5.828   6.524   4.520  0.2840  0.1100  0.4649
  743MOL0     C  197   5.699   6.497   4.556  0.5678  0.5638 -0.6436
  743MOL0     C  198   5.642   6.357   4.553  0.3863  0.8933 -0.0587
  743MOL0     C  199   5.622   6.613   4.600  0.9780 -0.7614 -0.3252
  743MOL0     C  200   5.474   6.612   4.626  0.1935  0.6890 -0.2170
  743MOL0     O  201   5.407   6.514   4.578  0.2074  0.1527  0.1934
  743MOL0     C  202   5.278   6.495   4.621 -0.5249  0.8924 -0.4499
  743MOL0     C  203   5.241   6.400   4.717 -0.8068 -0.4196  0.7041
  743MOL0     C  204   5.109   6.386   4.751  0.0806  0.2772 -1.0503
  743MOL0     C  205   5.011   6.471   4.704  0.0744  0.3323  0.1991
  743MOL0     O  206   4.882   6.435   4.736 -0.0626 -0.4429 -0.4818
  743MOL0     C  207   4.772   6.504   4.677 -1.5890  0.5088 -0.4947
  743MOL0     C  208   4.651   6.413   4.674 -0.7278 -0.0255 -0.9590
  743MOL0     C  209   4.609   6.362   4.813  0.1374 -0.1849  0.7572
  743MOL0     C  210   4.476   6.280   4.808 -0.2184 -0.2141  0.2609
  743MOL0     C  211   4.449   6.216   4.939  0.2075  0.1523  0.1309
  743MOL0     C  212   4.318   6.134   4.947 -0.5155 -0.3819 -0.4012
  743MOL0     C  213   4.192   6.211   4.900 -0.0895 -0.0980 -0.1369
  743MOL0     C  214   4.079   6.173   4.991 -0.4088  0.2573 -0.3037
  743MOL0    Cl  215   3.917   6.226   4.921  0.1903 -0.2770  0.3042
  743MOL0     C  216   5.048   6.584   4.631  0.3503  0.0544  0.3083
  743MOL0     C  217   5.179   6.590   4.588 -0.5924  0.7046  0.0575
  743MOL0     O  218   5.422   6.701   4.700 -0.5580 -0.2888 -0.5675
  743MOL0     C  219   5.691   6.740   4.610 -0.1401  0.1229  0.4720
  743MOL0     C  220   5.822   6.756   4.578  0.5570  0.0222  0.3015
  743MOL0     N  221   6.481   6.993   4.222 -0.1491 -0.2543 -0.5029
  743MOL0     N  222   6.513   7.043   4.113  0.1849  0.4034 -0.5580
  743MOL0     C  223   7.625   7.128   3.696  0.2190  0.9380  0.2858
  743MOL0     C  224   7.751   7.176   3.668 -0.4579 -0.1587 -0.0838
  743MOL0     C  225   8.216   7.186   3.686  0.8167  0.1025  0.0936
  743MOL0     C  226   8.219   7.324   3.674 -0.0517  0.0633  0.3195
  743MOL0     C  227   8.336   7.394   3.669 -0.2084 -0.6549 -0.2162
  743MOL0     C  228   8.456   7.323   3.690 -0.1058 -0.5103  0.0341
  743MOL0     O  229   8.584   7.384   3.686  0.5185  0.6845 -0.9368
  743MOL0     C  230   8.595   7.527   3.689 -0.0259 -0.3404 -0.7456
  743MOL0     C  231   8.737   7.585   3.683  0.2439 -0.6625 -0.1128
  743MOL0     C  232   8.804   7.538   3.557  0.3325  0.0809  0.0467
  743MOL0     C  233   8.885   7.416   3.585 -0.2136  0.8428  0.3133
  743MOL0     C  234   8.994   7.450   3.679 -0.3007 -0.4239  0.1822
  743MOL0     C  235   9.068   7.475   3.772  0.3047  0.0882 -0.1337
  743MOL0     C  236   8.465   7.184   3.710 -0.3750 -0.0580  0.3892
  743MOL0     C  237   8.342   7.120   3.709  0.0925  0.1999  0.5296
  743MOL0     H  238   7.904   6.988   3.913 -0.8454  1.2818  0.8576
  743MOL0     H  239   7.674   6.911   3.934 -3.3221  1.6687 -0.6933
  743MOL0     H  240   7.365   7.150   3.855 -3.4611  0.8401 -1.0135
  743MOL0     H  241   7.332   7.070   3.694  1.3809 -0.1293  0.3055
  743MOL0     H  242   7.250   6.874   3.822 -1.2615 -0.2442 -0.5064
  743MOL0     H  243   7.252   6.971   3.971 -1.7122 -0.5465  0.1422
  743MOL0     H  244   7.108   7.125   3.894  5.5548  1.0792 -0.6918
  743MOL0     H  245   7.107   7.075   3.730  1.6428  2.3106  1.0743
  743MOL0     H  246   6.997   6.856   3.788 -2.5147  0.3466  0.3000
  743MOL0     H  247   7.005   6.910   3.957  3.3874  0.4689 -0.5355
  743MOL0     H  248   6.862   7.113   3.876 -0.8424 -0.4932  2.9881
  743MOL0     H  249   6.849   7.037   3.711 -0.9114 -1.3341  0.2929
  743MOL0     H  250   6.719   6.854   3.804 -0.8943 -0.5555  0.9462
  743MOL0     H  251   6.733   6.941   3.960  0.4239 -0.1210 -0.0901
  743MOL0     H  252   6.633   7.150   3.873  1.9892  0.1446  1.0521
  743MOL0     H  253   6.604   7.067   3.720  0.0137 -1.8185  0.6777
  743MOL0     H  254   6.457   6.894   3.826 -1.5011  0.6197 -1.2793
  743MOL0     H  255   6.405   7.059   3.850  0.3019 -0.3198 -0.4992
  743MOL0     H  256   6.393   6.753   4.022 -3.2065  0.5474  1.4427
  743MOL0     H  257   6.476   6.680   4.306 -0.0301  0.6317 -1.6282
  743MOL0     H  258   6.425   6.819   4.401 -3.1181 -0.9300  0.6843
  743MOL0     H  259   6.231   6.673   4.219 -0.8639 -0.9326  0.7395
  743MOL0     H  260   6.193   6.801   4.334  0.4423 -0.5819  2.1896
  743MOL0     H  261   6.297   6.634   4.509 -1.0570 -1.5405 -0.5646
  743MOL0     H  262   6.300   6.515   4.390 -0.6214 -1.3998  1.8337
  743MOL0     H  263   6.108   6.470   4.477  0.3358  0.6238  0.8665
  743MOL0     H  264   6.065   6.550   4.325  4.7500 -2.2096 -1.7505
  743MOL0     H  265   5.862   6.437   4.466 -1.1938 -0.2454  0.0470
  743MOL0     H  266   5.724   6.284   4.551 -0.2526  0.1772 -1.9274
  743MOL0     H  267   5.588   6.332   4.645 -0.0625  3.0834  0.3278
  743MOL0     H  268   5.575   6.332   4.470 -0.0599 -1.4221  0.9242
  743MOL0     H  269   5.313   6.327   4.753 -1.1084 -0.8074  0.5357
  743MOL0     H  270   5.079   6.305   4.816  0.8904 -1.5519 -2.8332
  743MOL0     H  271   4.755   6.591   4.741  0.2775 -0.6880  1.7901
  743MOL0     H  272   4.795   6.542   4.577  1.9088  0.5749  0.2325
  743MOL0     H  273   4.569   6.477   4.642  0.3924  1.7651 -0.4233
  743MOL0     H  274   4.671   6.330   4.605  0.8317  1.2840 -2.1549
  743MOL0     H  275   4.593   6.451   4.875 -3.1683  0.9004 -1.4312
  743MOL0     H  276   4.690   6.297   4.850  0.8666 -0.8255 -1.7677
  743MOL0     H  277   4.394   6.341   4.768 -0.2431 -1.0548 -1.0460
  743MOL0     H  278   4.495   6.205   4.730  1.7140  1.3359 -0.8797
  743MOL0     H  279   4.449   6.291   5.019 -0.1872 -2.2020  2.4640
  743MOL0     H  280   4.532   6.152   4.969  0.0174  0.4386  1.3305
  743MOL0     H  281   4.330   6.053   4.874  0.7099 -0.1661 -0.4537
  743MOL0     H  282   4.304   6.084   5.043 -0.0014 -3.6436 -1.8968
  743MOL0     H  283   4.171   6.183   4.796 -1.6225 -1.2885  0.4353
  743MOL0     H  284   4.196   6.319   4.915  0.7109 -0.3123  1.3430
  743MOL0     H  285   4.099   6.205   5.094 -0.7821  0.3913 -0.2722
  743MOL0     H  286   4.073   6.064   4.992 -0.0499  0.0885  4.2053
  743MOL0     H  287   4.975   6.661   4.606 -0.0835  0.3228  2.2259
  743MOL0     H  288   5.206   6.677   4.529 -0.5884  1.3048  0.9116
  743MOL0     H  289   5.630   6.821   4.649 -0.4356  1.1372 -1.9137
  743MOL0     H  290   5.868   6.851   4.600  0.4969  0.0202  0.4348
  743MOL0     H  291   7.547   7.174   3.636 -0.6036 -1.0160 -0.2184
  743MOL0     H  292   7.769   7.240   3.581 -1.5337 -1.7681 -1.5579
  743MOL0     H  293   8.129   7.385   3.675  0.0849  0.2744  2.0270
  743MOL0     H  294   8.329   7.502   3.658 -1.9488 -0.7994 -0.8766
  743MOL0     H  295   8.541   7.571   3.605 -1.1147  0.1389  0.1773
  743MOL0     H  296   8.549   7.569   3.779  1.3754  1.4003 -0.7927
  743MOL0     H  297   8.794   7.556   3.772 -2.5141 -2.7570  1.1000
  743MOL0     H  298   8.732   7.694   3.678  1.3729 -0.5556  0.7440
  743MOL0     H  299   8.874   7.620   3.536  0.7905 -0.0740  0.9220
  743MOL0     H  300   8.730   7.532   3.476  1.6001  0.5228 -1.1865
  743MOL0     H  301   8.929   7.387   3.489 -1.0009  2.0833 -0.4586
  743MOL0     H  302   8.820   7.335   3.617 -0.6236  0.1340 -2.0881
  743MOL0     H  303   9.118   7.498   3.863 -1.1696 -2.9996  1.6369
  743MOL0     H  304   8.561   7.135   3.718  1.4288  3.1657  0.2690
  743MOL0     H  305   8.356   7.014   3.728 -1.8630 -0.4543 -1.3115
  744MOL0     O  306   7.885   8.029   9.818 -0.1287 -0.3767  0.3255
  744MOL0     C  307   7.924   7.924   9.869  0.9554  0.5890 -0.0466
  744MOL0     O  308   7.889   7.797   9.820  0.4316 -0.4392 -0.7037
  744MOL0     C  309   7.782   7.781   9.729 -0.4775 -0.2164 -0.1587
  744MOL0     C  310   7.681   7.689   9.757 -0.1478 -0.0480  1.0392
  744MOL0     C  311   7.563   7.679   9.675 -0.1319  0.8347 -0.2985
  744MOL0     C  312   7.547   7.759   9.560  0.2388  0.1016 -0.1355
  744MOL0     O  313   7.457   7.743   9.453  0.2262  0.2283  0.3006
  744MOL0     C  314   7.343   7.656   9.479 -0.1642 -0.0180 -0.7864
  744MOL0     C  315   7.251   7.740   9.561  0.7302  0.2173 -0.0657
  744MOL0     C  316   7.110   7.673   9.561  0.7936  1.1505 -0.4530
  744MOL0     C  317   7.044   7.704   9.695 -0.1187 -0.4420  0.5316
  744MOL0     C  318   6.896   7.656   9.724  0.2409  0.0128  0.4997
  744MOL0     C  319   6.847   7.715   9.854  0.6184 -0.9934  0.0444
  744MOL0     C  320   6.714   7.651   9.895 -0.6842 -0.3005  0.8000
  744MOL0     C  321   6.602   7.727   9.829 -0.2834 -0.3072  0.5568
  744MOL0     N  322   6.468   7.673   9.874  0.3142 -0.2738  0.0881
  744MOL0     C  323   6.419   7.672  10.002 -0.1879  0.9797 -0.4268
  744MOL0     C  324   6.296   7.614   9.995  0.5474 -0.0246 -1.1000
  744MOL0     C  325   6.185   7.605  10.102  0.5065 -0.1115  0.8203
  744MOL0     C  326   6.101   7.734  10.112  0.1522  0.1795 -0.1633
  744MOL0     C  327   6.018   7.762   9.984  0.3617 -0.9106 -0.5137
  744MOL0     C  328   5.926   7.888  10.014  0.2249  0.0959 -0.0683
  744MOL0     O  329   5.811   7.835  10.089 -0.4792  0.7493 -0.0710
  744MOL0     C  330   5.699   7.909  10.081 -0.5051  0.1140 -0.0241
  744MOL0     C  331   5.672   8.002  10.174 -0.2361 -0.3754 -0.8215
  744MOL0     C  332   5.546   8.069  10.178 -0.3579 -1.3307  0.8393
  744MOL0     C  333   5.530   8.183  10.270  0.0423  1.0197 -0.5168
  744MOL0     C  334   5.452   8.044  10.083 -0.4957  0.4495 -0.1213
  744MOL0     C  335   5.320   8.101  10.076  0.1517  0.4763 -0.4819
  744MOL0     O  336   5.291   8.146   9.950 -0.1046 -0.0803 -0.2846
  744MOL0     C  337   5.161   8.180   9.924  0.2830  0.6347 -0.1725
  744MOL0     C  338   5.141   8.268   9.820 -0.0363 -0.1884  0.1508
  744MOL0     C  339   5.021   8.294   9.771  0.1725  0.3949  0.2228
  744MOL0     C  340   4.903   8.227   9.809 -0.2992 -0.5488 -1.4370
  744MOL0     O  341   4.775   8.249   9.758 -0.3022  0.2681  0.2114
  744MOL0     C  342   4.732   8.385   9.733 -0.3432  0.1366  0.3252
  744MOL0     C  343   4.576   8.384   9.729 -0.2590  0.3820  1.0611
  744MOL0     C  344   4.523   8.343   9.592 -0.3565  0.4608 -0.2896
  744MOL0     C  345   4.366   8.327   9.597  0.6858  0.4508  0.4254
  744MOL0     C  346   4.303   8.306   9.456  0.3371  0.7950 -0.2507
  744MOL0     C  347   4.145   8.302   9.469 -0.0264  0.2926  0.9704
  744MOL0     C  348   4.075   8.294   9.336 -0.2262  0.0247 -0.1195
  744MOL0     C  349   3.944   8.216   9.343  0.0346 -0.4898 -0.1866
  744MOL0    Cl  350   3.988   8.042   9.360  0.2481  0.0902 -0.6829
  744MOL0     C  351   4.919   8.132   9.909  0.0544  0.2587  0.4462
  744MOL0     C  352   5.047   8.093   9.954 -0.2821 -0.9369  0.3368
  744MOL0     O  353   5.256   8.114  10.174  0.5088 -0.1617  0.0813
  744MOL0     C  354   5.489   7.960   9.981 -0.1374  0.8921  0.7277
  744MOL0     C  355   5.600   7.878   9.989 -0.0553 -0.5870 -0.6189
  744MOL0     N  356   6.284   7.550   9.871 -0.0713  0.0501  0.1274
  744MOL0     N  357   6.391   7.589   9.798 -0.1351  0.5168 -0.1658
  744MOL0     C  358   7.654   7.845   9.530 -0.7280  0.5510  0.0999
  744MOL0     C  359   7.772   7.860   9.613 -0.6778  0.1861 -0.0246
  744MOL0     C  360   8.012   7.924   9.982 -0.5493 -0.5459  0.0456
  744MOL0     C  361   8.085   8.036  10.008 -0.5844  0.4489  0.3887
  744MOL0     C  362   8.168   8.034  10.127 -0.7315  0.0714  0.2390
  744MOL0     C  363   8.184   7.916  10.205 -0.2112  0.3039  0.2851
  744MOL0     O  364   8.274   7.905  10.310 -0.8141 -0.0254  0.2145
  744MOL0     C  365   8.329   8.019  10.359  0.4435 -0.1808  0.1639
  744MOL0     C  366   8.422   7.989  10.481 -0.0669 -0.9862  0.2698
  744MOL0     C  367   8.356   7.933  10.605 -0.5874  0.8085  0.2712
  744MOL0     C  368   8.416   8.001  10.727 -0.1936 -0.4553 -0.0392
  744MOL0     C  369   8.361   8.136  10.747  0.0010 -0.2308 -0.2739
  744MOL0     C  370   8.311   8.249  10.763 -0.6665 -0.2041 -0.8222
  744MOL0     C  371   8.110   7.804  10.169  0.6577 -0.8786 -0.1645
  744MOL0     C  372   8.018   7.815  10.062  0.1475 -0.8834 -0.2782
  744MOL0     H  373   7.680   7.637   9.852 -0.5268  0.9859  1.6086
  744MOL0     H  374   7.480   7.615   9.703 -0.9942  2.1091  0.1147
  744MOL0     H  375   7.294   7.651   9.382  1.6017 -1.8647 -1.6465
  744MOL0     H  376   7.356   7.553   9.513 -2.3390 -0.2765 -0.5725
  744MOL0     H  377   7.290   7.754   9.662  1.9924  3.6413 -0.8659
  744MOL0     H  378   7.231   7.840   9.520 -3.8827 -0.4850 -0.1351
  744MOL0     H  379   7.045   7.716   9.485 -0.2481  0.3549 -0.0472
  744MOL0     H  380   7.126   7.565   9.556 -2.9789 -0.1550  5.3519
  744MOL0     H  381   7.111   7.661   9.770 -0.1264  1.0229  1.4226
  744MOL0     H  382   7.053   7.809   9.724  2.3445 -0.3609 -0.2911
  744MOL0     H  383   6.827   7.691   9.646 -2.3639 -0.0809  2.6159
  744MOL0     H  384   6.891   7.547   9.724  1.7341 -0.1574  3.2204
  744MOL0     H  385   6.909   7.708   9.943 -0.6838  0.7394  1.1706
  744MOL0     H  386   6.832   7.823   9.839 -1.2040 -1.3332 -0.8484
  744MOL0     H  387   6.710   7.544   9.876  0.5522 -0.4388  1.2063
  744MOL0     H  388   6.702   7.663  10.003 -0.5066  1.5099  0.6525
  744MOL0     H  389   6.600   7.702   9.723  0.1637  1.9128 -0.0409
  744MOL0     H  390   6.616   7.835   9.845 -0.4964  0.1771 -2.0333
  744MOL0     H  391   6.460   7.728  10.086  0.8798  0.2426 -0.4428
  744MOL0     H  392   6.109   7.529  10.083  0.5194 -0.0799  0.6338
  744MOL0     H  393   6.232   7.583  10.198 -1.1173 -0.5574  1.5368
  744MOL0     H  394   6.161   7.822  10.140 -0.5128  0.7201 -0.4091
  744MOL0     H  395   6.022   7.719  10.186 -1.7566  2.9402 -1.4568
  744MOL0     H  396   5.959   7.674   9.957 -0.7620 -0.8236  1.4416
  744MOL0     H  397   6.081   7.796   9.902 -0.3123  2.3403  0.1789
  744MOL0     H  398   5.910   7.932   9.916  2.3714  1.8249  0.2677
  744MOL0     H  399   5.983   7.958  10.076  0.4836 -0.1074 -0.0723
  744MOL0     H  400   5.749   8.012  10.250 -0.2302  3.4496 -1.1186
  744MOL0     H  401   5.456   8.252  10.230  1.2573  1.5163 -2.0250
  744MOL0     H  402   5.495   8.158  10.370  1.9592  2.2287  0.5185
  744MOL0     H  403   5.615   8.252  10.272  1.0715 -0.0376 -3.1474
  744MOL0     H  404   5.224   8.331   9.787  0.1698 -1.3227 -1.5943
  744MOL0     H  405   5.013   8.371   9.695  1.0771 -1.3501 -1.7765
  744MOL0     H  406   4.768   8.458   9.806  1.0885 -0.5694  0.3659
  744MOL0     H  407   4.781   8.428   9.645 -0.4428 -0.2543  0.0751
  744MOL0     H  408   4.544   8.311   9.803  0.2294 -0.5203  0.4029
  744MOL0     H  409   4.537   8.485   9.746 -2.8112  0.5965 -4.1238
  744MOL0     H  410   4.563   8.243   9.572 -0.1678 -0.1353  2.6219
  744MOL0     H  411   4.567   8.415   9.523 -0.3202  0.3180 -0.4146
  744MOL0     H  412   4.342   8.238   9.656 -1.2980  0.5887 -0.0894
  744MOL0     H  413   4.322   8.415   9.645  1.5064  0.5380  1.0409
  744MOL0     H  414   4.335   8.212   9.411  1.9476  1.1726  0.0583
  744MOL0     H  415   4.345   8.384   9.392 -0.4049  1.3659 -0.0654
  744MOL0     H  416   4.119   8.209   9.520 -0.7221  0.0327  0.1655
  744MOL0     H  417   4.118   8.397   9.515 -0.6209  0.9590 -0.6538
  744MOL0     H  418   4.145   8.256   9.262  0.7611 -0.9302  1.2609
  744MOL0     H  419   4.055   8.397   9.303  0.8753 -0.1722 -1.4797
  744MOL0     H  420   3.894   8.234   9.247  0.4627  2.5178  0.0379
  744MOL0     H  421   3.873   8.249   9.419 -2.0996  0.7292 -2.5388
  744MOL0     H  422   4.838   8.072   9.947  0.0357  0.1808  0.2852
  744MOL0     H  423   5.044   8.014  10.028 -1.1154 -1.1381  0.1001
  744MOL0     H  424   5.419   7.936   9.902  0.3430 -2.9733  1.2993
  744MOL0     H  425   5.610   7.820   9.898 -3.1559 -1.1469 -0.6983
  744MOL0     H  426   7.661   7.900   9.437 -1.9208 -0.6942 -0.7621
  744MOL0     H  427   7.853   7.918   9.570  2.0095 -3.4951 -0.3620
  744MOL0     H  428   8.086   8.126   9.949 -1.5927  1.7622  2.2747
  744MOL0     H  429   8.215   8.126  10.159  1.3920 -1.3292  1.3567
  744MOL0     H  430   8.384   8.069  10.279 -2.6045 -0.8916 -2.5672
  744MOL0     H  431   8.240   8.076  10.388 -1.3072 -1.2686 -2.6970
  744MOL0     H  432   8.475   8.083  10.497 -3.6499  1.6336 -1.8303
  744MOL0     H  433   8.495   7.920  10.438 -0.0379 -1.6309  1.3121
  744MOL0     H  434   8.373   7.825  10.603  1.7760  1.1194  0.4792
  744MOL0     H  435   8.248   7.949  10.608 -0.4739  1.4676  2.0905
  744MOL0     H  436   8.524   8.006  10.714 -0.3347  3.1865 -0.9494
  744MOL0     H  437   8.380   7.935  10.807 -0.4304 -2.7157 -1.9273
  744MOL0     H  438   8.261   8.344  10.763  0.1067  0.2303  0.4435
  744MOL0     H  439   8.117   7.708  10.219  0.5088 -0.6580  0.2818
  744MOL0     H  440   7.951   7.732  10.040 -0.4826 -0.3187 -0.5121
  745MOL0     O  441   4.438   4.039   5.735 -0.0157  0.2069  0.2955
  745MOL0     C  442   4.493   3.942   5.791  0.2113  0.2890 -0.4010
  745MOL0     O  443   4.431   3.858   5.874  0.3619 -0.6854  0.2999
  745MOL0     C  444   4.294   3.866   5.879 -0.3499  0.0526 -0.1639
  745MOL0     C  445   4.213   3.747   5.855 -0.8827 -0.8021  0.6135
  745MOL0     C  446   4.069   3.739   5.860  2.1227  0.2957  0.6537
  745MOL0     C  447   4.007   3.861   5.884  0.3236 -0.0565  0.6489
  745MOL0     O  448   3.868   3.875   5.903  0.1261 -0.4630 -0.5537
  745MOL0     C  449   3.792   3.751   5.896 -0.6958  0.2887 -0.5634
  745MOL0     C  450   3.649   3.781   5.930  0.3266 -0.1449  0.3902
  745MOL0     C  451   3.638   3.845   6.069  0.0635 -0.2205 -0.2463
  745MOL0     C  452   3.485   3.846   6.131  0.1121 -0.1664 -0.3478
  745MOL0     C  453   3.496   3.865   6.278 -1.1531  0.5002  0.3559
  745MOL0     C  454   3.364   3.906   6.339 -0.8506  0.6256 -0.4635
  745MOL0     C  455   3.382   3.915   6.487  0.3920 -0.4607 -0.3744
  745MOL0     C  456   3.237   3.929   6.544  0.5912 -0.4202  1.1161
  745MOL0     N  457   3.187   4.068   6.531 -0.1609  0.6116 -0.1746
  745MOL0     C  458   3.200   4.156   6.634 -0.1733 -0.1328 -0.1049
  745MOL0     C  459   3.126   4.261   6.594 -0.1923  0.4266 -0.3729
  745MOL0     C  460   3.120   4.393   6.661  0.6909 -0.0667 -0.2796
  745MOL0     C  461   2.994   4.463   6.646 -0.3547  0.2314  0.4493
  745MOL0     C  462   3.000   4.587   6.736 -0.3422 -0.1097 -0.5216
  745MOL0     C  463   2.866   4.648   6.743  0.3631  0.2658 -0.4091
  745MOL0     O  464   2.769   4.574   6.817 -0.3919 -0.2407 -0.6165
  745MOL0     C  465   2.638   4.627   6.811 -0.8487 -0.1492  0.0602
  745MOL0     C  466   2.582   4.729   6.731  0.2676  0.3134  0.1118
  745MOL0     C  467   2.445   4.761   6.745  0.9308 -0.1728  0.2882
  745MOL0     C  468   2.391   4.853   6.638 -0.3521  0.0224  0.5096
  745MOL0     C  469   2.366   4.704   6.845 -0.5118 -0.4866 -0.4666
  745MOL0     C  470   2.227   4.755   6.883 -0.5775  0.4206 -0.4238
  745MOL0     O  471   2.185   4.726   7.012 -0.8132  0.8055  0.1461
  745MOL0     C  472   2.073   4.777   7.055  0.2336 -0.5430 -0.0765
  745MOL0     C  473   2.001   4.694   7.142 -0.4087  0.1831 -0.0342
  745MOL0     C  474   1.866   4.729   7.194 -0.6639  0.6564 -0.1805
  745MOL0     C  475   1.813   4.854   7.153  1.5681  0.4364  0.5956
  745MOL0     O  476   1.682   4.903   7.183 -0.0346  0.2351  0.6774
  745MOL0     C  477   1.606   4.834   7.292 -0.1823 -0.2254 -1.1884
  745MOL0     C  478   1.468   4.892   7.311 -0.0650  0.2969 -0.2322
  745MOL0     C  479   1.388   4.890   7.175  0.8060  0.1477 -0.0336
  745MOL0     C  480   1.266   4.990   7.167 -0.0627  0.5829 -0.3749
  745MOL0     C  481   1.208   4.979   7.025 -0.5606  0.2041 -0.1470
  745MOL0     C  482   1.093   5.085   7.012 -0.6947 -0.7223 -0.3581
  745MOL0     C  483   1.008   5.033   6.895 -0.1285 -0.1470  0.7399
  745MOL0     C  484   0.871   5.112   6.871  0.0402 -0.3126 -0.6325
  745MOL0    Cl  485   0.808   5.032   6.722 -0.3716 -0.0333 -0.0250
  745MOL0     C  486   1.883   4.936   7.078 -0.0658 -0.1656  0.2963
  745MOL0     C  487   2.011   4.902   7.026  0.1707 -0.0486 -0.0920
  745MOL0     O  488   2.159   4.807   6.803 -0.0016  0.1234 -0.0932
  745MOL0     C  489   2.427   4.609   6.939  0.0548  0.4855 -0.3613
  745MOL0     C  490   2.560   4.584   6.917  0.1476 -0.4813  0.4727
  745MOL0     N  491   3.062   4.232   6.478  0.0874 -0.0482  0.1013
  745MOL0     N  492   3.094   4.118   6.444 -0.1405  1.2033  0.3346
  745MOL0     C  493   4.080   3.972   5.917 -0.1917 -0.8796 -0.3732
  745MOL0     C  494   4.219   3.973   5.918 -0.8889 -0.6196  0.2563
  745MOL0     C  495   4.640   3.929   5.780 -0.6367 -0.6221 -0.1469
  745MOL0     C  496   4.720   4.020   5.696 -0.1425 -0.0661 -1.3921
  745MOL0     C  497   4.855   4.005   5.682  0.3515  0.2663  0.3085
  745MOL0     C  498   4.915   3.890   5.743 -0.1254 -0.0317  0.1843
  745MOL0     O  499   5.045   3.869   5.729 -0.0285  0.2606  0.2827
  745MOL0     C  500   5.138   3.970   5.691 -0.2323 -0.2541  0.4472
  745MOL0     C  501   5.280   3.919   5.727  0.1895  0.7128  0.2241
  745MOL0     C  502   5.399   3.994   5.668 -0.0581  0.0017 -0.3649
  745MOL0     C  503   5.403   3.990   5.515 -0.8563 -0.5993 -0.1605
  745MOL0     C  504   5.532   4.032   5.456 -0.0665 -0.8033  0.0658
  745MOL0     C  505   5.632   4.075   5.400 -0.2394 -0.3992 -0.3459
  745MOL0     C  506   4.838   3.800   5.815 -0.2410  0.6044  0.9240
  745MOL0     C  507   4.702   3.821   5.841  0.3278 -0.7385 -0.1023
  745MOL0     H  508   4.274   3.657   5.863 -1.0534 -0.8277  1.8402
  745MOL0     H  509   4.023   3.642   5.842  1.2719  0.9407 -0.8492
  745MOL0     H  510   3.776   3.714   5.794 -2.5499 -0.4603 -0.0623
  745MOL0     H  511   3.823   3.670   5.964 -1.1491  0.4571 -0.1476
  745MOL0     H  512   3.617   3.842   5.845  1.3645 -0.0693  0.0474
  745MOL0     H  513   3.576   3.699   5.934 -0.5919  0.6809  1.1355
  745MOL0     H  514   3.706   3.794   6.139  1.1883  3.7593  1.9170
  745MOL0     H  515   3.674   3.947   6.052  1.3387 -0.7708 -0.9545
  745MOL0     H  516   3.431   3.928   6.081 -1.6167 -2.1447 -1.8943
  745MOL0     H  517   3.433   3.751   6.118  0.5175 -0.4707  0.2614
  745MOL0     H  518   3.537   3.767   6.302 -1.1148 -0.6089 -3.5124
  745MOL0     H  519   3.570   3.943   6.301 -1.2022 -0.0224  2.4523
  745MOL0     H  520   3.313   3.991   6.293 -1.1869 -0.2310 -1.7125
  745MOL0     H  521   3.299   3.821   6.316 -0.0640  0.0663 -0.6385
  745MOL0     H  522   3.431   3.824   6.521 -0.0931 -0.4267  0.4473
  745MOL0     H  523   3.430   4.011   6.511  0.1313 -0.0837 -1.3245
  745MOL0     H  524   3.238   3.899   6.649 -0.1081  0.6439  1.4359
  745MOL0     H  525   3.165   3.856   6.506 -1.0010 -0.1691  3.5008
  745MOL0     H  526   3.265   4.150   6.721 -0.8120 -0.2854  0.3674
  745MOL0     H  527   3.156   4.378   6.764  1.8852 -2.9958 -1.0037
  745MOL0     H  528   3.197   4.442   6.603  1.2384 -2.5338 -1.7993
  745MOL0     H  529   2.910   4.401   6.680 -0.7216  1.8598  2.7261
  745MOL0     H  530   2.979   4.489   6.541  0.9151  1.2998  0.5028
  745MOL0     H  531   3.078   4.656   6.702 -2.5503  1.4579 -2.7117
  745MOL0     H  532   3.027   4.559   6.838 -1.7318  0.1102 -0.0820
  745MOL0     H  533   2.837   4.661   6.637  3.9071  0.4447 -1.4677
  745MOL0     H  534   2.876   4.743   6.797  0.2792 -0.0173  0.1057
  745MOL0     H  535   2.638   4.764   6.645  0.2892  0.5357  0.2157
  745MOL0     H  536   2.314   4.801   6.581  0.5112 -1.1232  0.3624
  745MOL0     H  537   2.360   4.947   6.687  1.9134  2.3474 -2.1826
  745MOL0     H  538   2.465   4.888   6.565 -1.1483  2.4699  0.7833
  745MOL0     H  539   2.051   4.606   7.179 -2.6474 -1.3535 -0.4765
  745MOL0     H  540   1.818   4.675   7.275  1.0095 -0.0920  0.3726
  745MOL0     H  541   1.589   4.732   7.257 -1.7731 -0.3051 -0.2943
  745MOL0     H  542   1.657   4.826   7.389 -2.9748 -1.3167  0.3308
  745MOL0     H  543   1.410   4.834   7.384  2.1468 -1.4204  0.2770
  745MOL0     H  544   1.478   4.994   7.347 -1.2229  0.6286 -0.7891
  745MOL0     H  545   1.351   4.790   7.151 -1.1888  1.3768 -2.5083
  745MOL0     H  546   1.452   4.924   7.094  3.4516 -1.4435  1.2472
  745MOL0     H  547   1.198   4.964   7.249  2.7706 -2.5713  1.2180
  745MOL0     H  548   1.296   5.095   7.175  0.8762  0.2279  1.3140
  745MOL0     H  549   1.178   4.875   7.012 -0.2649 -0.1594  1.8002
  745MOL0     H  550   1.279   4.998   6.944 -0.5296  1.2594  0.1196
  745MOL0     H  551   1.032   5.091   7.102  1.0066 -2.6863  1.0141
  745MOL0     H  552   1.133   5.187   7.000  0.6673 -1.2723 -0.6391
  745MOL0     H  553   0.973   4.931   6.912 -0.4216 -0.4018 -1.2073
  745MOL0     H  554   1.073   5.034   6.807  1.5284  1.8981  1.8940
  745MOL0     H  555   0.895   5.218   6.860  0.2841 -0.0739  1.6377
  745MOL0     H  556   0.788   5.087   6.938 -1.3797 -0.2273 -2.2777
  745MOL0     H  557   1.835   5.029   7.050 -1.8518 -0.7954  1.1090
  745MOL0     H  558   2.052   4.966   6.948  1.9786 -1.4867 -0.3858
  745MOL0     H  559   2.378   4.572   7.028 -0.3332  2.3210  0.2274
  745MOL0     H  560   2.615   4.530   6.993  1.9603  2.5366  1.5121
  745MOL0     H  561   4.019   4.059   5.938 -2.1702 -1.9578 -1.3837
  745MOL0     H  562   4.277   4.057   5.956  2.2463 -2.4572 -0.1035
  745MOL0     H  563   4.660   4.098   5.651 -0.9962 -0.8569 -1.6548
  745MOL0     H  564   4.905   4.080   5.622  1.6843 -1.4425 -0.8091
  745MOL0     H  565   5.132   3.986   5.583  0.8063 -1.3669  0.2050
  745MOL0     H  566   5.119   4.069   5.734 -0.4129  0.3293 -0.9151
  745MOL0     H  567   5.282   3.816   5.692 -2.9038  0.2155  1.1891
  745MOL0     H  568   5.277   3.908   5.836 -0.9037 -2.0493 -0.0105
  745MOL0     H  569   5.486   3.943   5.711  0.2884  2.0598  1.5800
  745MOL0     H  570   5.401   4.096   5.709 -2.0523 -0.6367  1.4629
  745MOL0     H  571   5.318   4.055   5.492 -0.5171  0.6500  1.9032
  745MOL0     H  572   5.372   3.890   5.482  1.3985 -2.6653  3.3040
  745MOL0     H  573   5.720   4.098   5.343 -0.0086 -0.4632 -0.0184
  745MOL0     H  574   4.885   3.719   5.870 -1.1407 -2.7775 -2.7281
  745MOL0     H  575   4.632   3.754   5.889  0.3121 -0.0343  0.9016
  746MOL0     O  576   0.129   8.926   0.102 -0.7842  0.1238 -0.7958
  746MOL0     C  577   0.079   9.026   0.057  0.8933  0.5952 -0.0361
  746MOL0     O  578  -0.055   9.064   0.059 -0.7762  0.3040 -0.0535
  746MOL0     C  579  -0.158   8.991   0.112 -0.1935 -0.2282  0.9668
  746MOL0     C  580  -0.276   9.059   0.123  0.1517  0.1921 -0.3145
  746MOL0     C  581  -0.388   8.991   0.178 -0.5959 -0.1946 -0.1380
  746MOL0     C  582  -0.385   8.854   0.205 -0.2677  0.7734 -0.0981
  746MOL0     O  583  -0.493   8.777   0.246  0.8756  0.2148 -0.4497
  746MOL0     C  584  -0.629   8.841   0.250  0.5220 -0.4853  0.2903
  746MOL0     C  585  -0.736   8.736   0.275 -0.2830  0.1073  0.1320
  746MOL0     C  586  -0.873   8.795   0.245  0.0084 -0.1188 -0.2189
  746MOL0     C  587  -0.982   8.688   0.254 -0.5503 -0.0893  0.6836
  746MOL0     C  588  -1.065   8.671   0.384  0.1863 -0.2317  0.8274
  746MOL0     C  589  -1.150   8.792   0.414 -0.0246 -0.1178 -0.4140
  746MOL0     C  590  -1.210   8.786   0.557 -0.3049 -0.3078 -0.7028
  746MOL0     C  591  -1.325   8.681   0.553  0.7102  0.2211  0.3899
  746MOL0     N  592  -1.459   8.739   0.516 -0.1479 -0.2534 -0.0745
  746MOL0     C  593  -1.518   8.738   0.388 -0.6088  0.5675 -0.9949
  746MOL0     C  594  -1.639   8.799   0.409  0.2356  0.3827 -0.2594
  746MOL0     C  595  -1.748   8.838   0.312  0.4171  0.5807  0.0175
  746MOL0     C  596  -1.890   8.851   0.377  0.8091  0.1112  0.2851
  746MOL0     C  597  -1.994   8.912   0.274 -0.8132 -0.3639 -0.1551
  746MOL0     C  598  -2.130   8.911   0.347  0.5457  0.3306  0.2712
  746MOL0     O  599  -2.226   8.946   0.248  0.3839 -0.2266 -0.0494
  746MOL0     C  600  -2.358   8.971   0.287  0.2073  0.0809 -0.4792
  746MOL0     C  601  -2.416   8.932   0.416  0.5908 -0.5064  0.2049
  746MOL0     C  602  -2.547   8.961   0.445 -0.2696 -0.5902 -0.2157
  746MOL0     C  603  -2.600   8.904   0.579 -0.2253  0.4216 -0.3172
  746MOL0     C  604  -2.625   9.039   0.358  0.3557 -0.6976  0.0929
  746MOL0     C  605  -2.756   9.101   0.397  0.5215  0.2233  0.1305
  746MOL0     O  606  -2.815   9.169   0.295  0.2205  0.5553 -0.2942
  746MOL0     C  607  -2.918   9.252   0.328  0.4550 -0.0440 -0.0629
  746MOL0     C  608  -3.043   9.196   0.344  0.3831  0.1160  0.9392
  746MOL0     C  609  -3.154   9.275   0.373  1.0931 -0.4146  0.1165
  746MOL0     C  610  -3.132   9.422   0.392 -0.2518 -1.0911 -0.2740
  746MOL0     O  611  -3.231   9.513   0.417  0.6979  0.1943  0.1938
  746MOL0     C  612  -3.362   9.448   0.424  0.4559  0.5094  0.1598
  746MOL0     C  613  -3.469   9.557   0.458 -0.5981  0.3409 -0.2670
  746MOL0     C  614  -3.487   9.652   0.350 -0.0113 -0.1242  0.6853
  746MOL0     C  615  -3.614   9.728   0.361 -0.1536 -0.8284 -0.4567
  746MOL0     C  616  -3.618   9.855   0.261 -0.5649  0.2059  0.4760
  746MOL0     C  617  -3.751   9.931   0.267 -0.0406  0.2803  0.2143
  746MOL0     C  618  -3.751  10.053   0.367 -0.1209  0.8337  0.8110
  746MOL0     C  619  -3.865  10.142   0.320  0.4329 -0.3427  0.3011
  746MOL0    Cl  620  -4.035  10.101   0.355  0.0114 -0.3837 -0.0811
  746MOL0     C  621  -3.000   9.471   0.395 -0.1221  0.2306 -0.0080
  746MOL0     C  622  -2.899   9.381   0.364 -0.4825 -0.5791 -0.4466
  746MOL0     O  623  -2.807   9.078   0.505 -0.7396 -0.0265  0.3385
  746MOL0     C  624  -2.578   9.064   0.232 -0.6803 -0.1005 -0.2532
  746MOL0     C  625  -2.442   9.030   0.199  0.4397  0.0819 -0.0388
  746MOL0     N  626  -1.643   8.846   0.543  0.0155  0.2827 -0.2650
  746MOL0     N  627  -1.540   8.808   0.608 -0.2826 -0.5700  0.0697
  746MOL0     C  628  -0.259   8.791   0.205 -0.8137  0.8803 -0.4167
  746MOL0     C  629  -0.149   8.858   0.159  0.0519 -0.0047  0.1009
  746MOL0     C  630   0.169   9.123  -0.007 -0.1600  0.6343  0.3545
  746MOL0     C  631   0.305   9.092  -0.037 -0.1172  0.4901 -0.6755
  746MOL0     C  632   0.388   9.197  -0.083 -0.3622 -0.2352 -0.5211
  746MOL0     C  633   0.338   9.329  -0.099  0.0906 -0.2400 -0.0431
  746MOL0     O  634   0.416   9.431  -0.140 -0.1128 -0.7145  0.7544
  746MOL0     C  635   0.523   9.462  -0.048  0.4028 -0.0270  0.1685
  746MOL0     C  636   0.483   9.468   0.100 -0.0597 -0.4729  0.1823
  746MOL0     C  637   0.582   9.553   0.192 -0.1749 -0.0074  0.0284
  746MOL0     C  638   0.548   9.541   0.345 -0.5293  0.5048  0.4917
  746MOL0     C  639   0.422   9.609   0.372 -0.3793 -0.6209  0.2189
  746MOL0     C  640   0.307   9.666   0.373 -0.3240  0.3432  1.2177
  746MOL0     C  641   0.203   9.355  -0.092  0.2695  0.5583  0.1801
  746MOL0     C  642   0.120   9.256  -0.046  0.1935 -0.0226  0.5122
  746MOL0     H  643  -0.278   9.164   0.096 -0.7257  0.2464 -0.0772
  746MOL0     H  644  -0.478   9.051   0.186  1.0207  2.2433  0.9359
  746MOL0     H  645  -0.643   8.929   0.313  1.5598 -0.6404  0.7638
  746MOL0     H  646  -0.637   8.870   0.145  0.6831 -3.0394 -0.5141
  746MOL0     H  647  -0.705   8.652   0.214  1.8265 -0.8821  2.3973
  746MOL0     H  648  -0.747   8.693   0.375  1.3816  0.5250  0.5195
  746MOL0     H  649  -0.910   8.881   0.301  0.6479  0.9991 -1.4438
  746MOL0     H  650  -0.862   8.835   0.143  0.2137 -0.9038 -0.5142
  746MOL0     H  651  -1.046   8.705   0.166  0.6546  0.9874 -0.0235
  746MOL0     H  652  -0.937   8.592   0.227 -0.0530  0.1099  0.8046
  746MOL0     H  653  -1.128   8.586   0.357 -2.5265  1.5544  1.1870
  746MOL0     H  654  -1.000   8.641   0.467 -0.4593 -1.0928  1.0364
  746MOL0     H  655  -1.084   8.879   0.417 -0.7941  0.4727 -0.1416
  746MOL0     H  656  -1.223   8.807   0.335  2.7821  0.4915 -3.0511
  746MOL0     H  657  -1.132   8.747   0.623 -0.4504 -0.7637 -0.7947
  746MOL0     H  658  -1.240   8.886   0.592  1.2138 -0.1297  0.1590
  746MOL0     H  659  -1.338   8.636   0.652  0.2572 -2.9692 -1.0004
  746MOL0     H  660  -1.313   8.595   0.486 -1.6890 -1.7072  2.2706
  746MOL0     H  661  -1.481   8.703   0.291 -2.9183  2.2912 -2.5986
  746MOL0     H  662  -1.714   8.929   0.263  1.2037 -0.3508 -1.2290
  746MOL0     H  663  -1.749   8.766   0.230 -1.3151  3.9365 -3.1899
  746MOL0     H  664  -1.877   8.923   0.458  1.7639 -1.2991  1.4362
  746MOL0     H  665  -1.929   8.754   0.410  1.1087  0.7738  2.7471
  746MOL0     H  666  -1.995   8.855   0.181 -2.3168  2.2186 -1.8342
  746MOL0     H  667  -1.967   9.015   0.247  1.1911 -0.9461 -0.5514
  746MOL0     H  668  -2.137   8.986   0.426 -0.4992  1.7115 -1.0742
  746MOL0     H  669  -2.148   8.806   0.371  0.2473 -0.1882 -1.9954
  746MOL0     H  670  -2.360   8.878   0.493  1.6251 -1.8844 -1.4354
  746MOL0     H  671  -2.618   8.992   0.641 -2.3455  0.8286 -1.4344
  746MOL0     H  672  -2.693   8.848   0.570  0.5617 -0.9540 -0.1675
  746MOL0     H  673  -2.534   8.833   0.631 -1.8177 -0.8875 -0.0035
  746MOL0     H  674  -3.064   9.095   0.312 -1.9276  1.1043 -1.0608
  746MOL0     H  675  -3.246   9.219   0.355  0.7688  0.6896 -2.0459
  746MOL0     H  676  -3.399   9.406   0.330  2.0342 -0.5377 -0.0354
  746MOL0     H  677  -3.344   9.373   0.501  1.9433  1.1755  0.5120
  746MOL0     H  678  -3.561   9.512   0.495  0.0656 -0.0327  1.0166
  746MOL0     H  679  -3.434   9.608   0.548  0.6210  1.6250 -1.4202
  746MOL0     H  680  -3.470   9.596   0.258 -0.1534 -1.4874  1.4637
  746MOL0     H  681  -3.414   9.732   0.363 -1.5135  1.4314 -0.0105
  746MOL0     H  682  -3.697   9.658   0.344  0.5148 -1.6874 -0.2111
  746MOL0     H  683  -3.617   9.768   0.462  1.2653 -0.9096 -0.3657
  746MOL0     H  684  -3.595   9.810   0.164  0.9668  0.5656  0.6412
  746MOL0     H  685  -3.532   9.919   0.284 -1.0829  0.9291  0.4380
  746MOL0     H  686  -3.765   9.972   0.167  2.1047  1.2319  0.2468
  746MOL0     H  687  -3.837   9.873   0.302 -0.5720  1.6541  1.3001
  746MOL0     H  688  -3.659  10.112   0.370  1.3102 -1.3019  1.1764
  746MOL0     H  689  -3.772  10.021   0.469 -2.0089 -0.9257 -0.0645
  746MOL0     H  690  -3.854  10.150   0.212 -0.9229 -2.3144 -0.0467
  746MOL0     H  691  -3.858  10.241   0.366 -0.6462  0.8280 -1.8575
  746MOL0     H  692  -2.981   9.572   0.429 -0.3149  0.6048 -0.9870
  746MOL0     H  693  -2.798   9.420   0.373  0.1467 -2.5825  2.6011
  746MOL0     H  694  -2.635   9.129   0.166 -0.1386 -1.3246 -1.9710
  746MOL0     H  695  -2.401   9.049   0.100 -0.8227  3.1684 -0.0816
  746MOL0     H  696  -0.257   8.687   0.236  0.7219  1.5798  2.1619
  746MOL0     H  697  -0.061   8.795   0.150 -0.6699 -0.9853 -0.3779
  746MOL0     H  698   0.334   8.989  -0.019 -1.8136  0.0219 -0.4574
  746MOL0     H  699   0.495   9.184  -0.101 -0.7320 -1.8504 -1.7700
  746MOL0     H  700   0.614   9.402  -0.055  2.4218  2.4743  2.7798
  746MOL0     H  701   0.560   9.561  -0.075 -1.4298  0.2547 -1.6375
  746MOL0     H  702   0.475   9.362   0.128 -1.7514  0.3415  3.2524
  746MOL0     H  703   0.380   9.503   0.109 -0.0283 -0.6999  1.7764
  746MOL0     H  704   0.587   9.657   0.159 -1.6808 -0.6818 -2.5958
  746MOL0     H  705   0.685   9.523   0.168 -0.1097  0.0556  0.2273
  746MOL0     H  706   0.626   9.581   0.411 -0.2285  0.6538  0.0487
  746MOL0     H  707   0.529   9.436   0.371  0.3311  0.8574  2.8410
  746MOL0     H  708   0.209   9.707   0.362  0.0098  0.8152 -0.1254
  746MOL0     H  709   0.164   9.454  -0.109 -0.2887  0.4012  0.5179
  746MOL0     H  710   0.017   9.287  -0.028  0.3221  0.2410  0.8053
  747MOL0     O  711   0.642  10.776  10.627  0.2934 -0.3380  0.1869
  747MOL0     C  712   0.730  10.860  10.588  0.3793  0.2836 -0.5401
  747MOL0     O  713   0.710  10.989  10.577 -0.1454 -0.5020 -0.0278
  747MOL0     C  714   0.582  11.030  10.557 -0.1295  0.3174  0.2222
  747MOL0     C  715   0.555  11.075  10.429  0.4918 -0.6590  0.1775
  747MOL0     C  716   0.422  11.125  10.398 -0.1194 -0.6465  0.0087
  747MOL0     C  717   0.322  11.125  10.496  0.6575 -0.5995  0.6489
  747MOL0     O  718   0.195  11.163  10.481  0.3463 -0.0854 -0.6688
  747MOL0     C  719   0.175  11.269  10.395  0.5336  0.3359 -0.4105
  747MOL0     C  720   0.039  11.324  10.415 -0.1291 -0.2051  0.6001
  747MOL0     C  721  -0.084  11.228  10.385 -1.3603 -0.6632 -0.0684
  747MOL0     C  722  -0.218  11.254  10.466  0.2397  0.3259  0.8889
  747MOL0     C  723  -0.330  11.141  10.447 -0.1903  0.8048 -0.8454
  747MOL0     C  724  -0.462  11.179  10.517 -0.4562  0.6346 -0.3217
  747MOL0     C  725  -0.472  11.140  10.665  0.3240 -0.3962  0.0295
  747MOL0     C  726  -0.481  10.985  10.688  0.1354 -0.0504 -0.0403
  747MOL0     N  727  -0.602  10.931  10.637 -1.2121 -0.4016  0.4977
  747MOL0     C  728  -0.724  10.976  10.675  0.0759 -0.4516  0.3897
  747MOL0     C  729  -0.809  10.878  10.641 -0.4803  0.2576  0.7986
  747MOL0     C  730  -0.956  10.887  10.667  0.1849 -0.6456  0.7534
  747MOL0     C  731  -1.017  10.783  10.566  0.2591  0.6931 -1.2721
  747MOL0     C  732  -1.167  10.774  10.579 -0.2519 -0.0683 -0.1388
  747MOL0     C  733  -1.228  10.666  10.495  0.3621  0.3695 -0.1764
  747MOL0     O  734  -1.342  10.714  10.431 -0.2602  0.1294  0.1294
  747MOL0     C  735  -1.468  10.683  10.486 -0.7531  0.3081 -0.2284
  747MOL0     C  736  -1.564  10.664  10.393  0.5582 -0.4905 -0.0783
  747MOL0     C  737  -1.700  10.632  10.429  0.1189  0.0243 -0.0863
  747MOL0     C  738  -1.803  10.628  10.317 -0.4346  0.2151  0.1484
  747MOL0     C  739  -1.736  10.619  10.569  0.8511 -0.7061  0.3931
  747MOL0     C  740  -1.871  10.602  10.620 -0.2817  0.0495  0.0113
  747MOL0     O  741  -1.890  10.535  10.738 -0.8549 -0.0580  0.1978
  747MOL0     C  742  -2.021  10.516  10.778 -0.2269 -0.1295 -0.2615
  747MOL0     C  743  -2.104  10.623  10.798 -0.4408 -0.2123 -0.0417
  747MOL0     C  744  -2.239  10.598  10.840  0.6865 -0.5706 -0.0927
  747MOL0     C  745  -2.292  10.475  10.872 -0.2949  0.2310  0.4077
  747MOL0     O  746  -2.424  10.478  10.918 -0.5870 -0.9731  0.0382
  747MOL0     C  747  -2.519  10.387  10.859  0.5150  0.2666  0.0704
  747MOL0     C  748  -2.653  10.386  10.945 -0.5052  0.0846 -0.1959
  747MOL0     C  749  -2.618  10.363  11.093 -0.4396  0.1159 -0.7867
  747MOL0     C  750  -2.747  10.344  11.181 -0.5384  0.6225  0.4916
  747MOL0     C  751  -2.740  10.410  11.318  0.8166  0.5313 -0.2858
  747MOL0     C  752  -2.881  10.428  11.379 -0.3125  0.3195 -0.4937
  747MOL0     C  753  -2.875  10.521  11.500 -0.5569 -0.0328 -0.8370
  747MOL0     C  754  -3.014  10.543  11.552 -0.0777  0.7486  0.3962
  747MOL0    Cl  755  -3.066  10.413  11.673 -0.1350  0.3458  0.5505
  747MOL0     C  756  -2.195  10.367  10.869  0.0591  0.1368 -0.3881
  747MOL0     C  757  -2.059  10.393  10.828 -0.1416 -0.4169 -0.2141
  747MOL0     O  758  -1.954  10.668  10.560  0.1290  0.6945 -0.1098
  747MOL0     C  759  -1.627  10.635  10.661 -0.3552 -0.6140 -0.0461
  747MOL0     C  760  -1.500  10.672  10.620 -0.1917  0.5910 -0.3638
  747MOL0     N  761  -0.740  10.775  10.582 -0.3582  0.7382 -0.2242
  747MOL0     N  762  -0.613  10.806  10.586 -0.8155  0.2755  0.1689
  747MOL0     C  763   0.355  11.077  10.619 -0.1869 -0.9529 -0.1632
  747MOL0     C  764   0.480  11.030  10.654 -0.5938  0.4670  0.0609
  747MOL0     C  765   0.857  10.811  10.552  0.0267 -0.4910  1.1856
  747MOL0     C  766   0.974  10.892  10.561 -0.1689  0.0500 -0.2175
  747MOL0     C  767   1.099  10.849  10.529 -0.9033  0.4642  0.0199
  747MOL0     C  768   1.120  10.716  10.501  0.7533  0.3032  0.3454
  747MOL0     O  769   1.247  10.667  10.505  0.3942  0.4642  0.5929
  747MOL0     C  770   1.309  10.670  10.637  0.6866  0.3945  0.0562
  747MOL0     C  771   1.448  10.602  10.631 -0.0141  0.1859 -0.3400
  747MOL0     C  772   1.443  10.467  10.557  0.7243 -0.2009 -0.4114
  747MOL0     C  773   1.578  10.394  10.563  0.4785 -0.0912 -0.0702
  747MOL0     C  774   1.608  10.314  10.680 -0.4418 -0.2263  0.3282
  747MOL0     C  775   1.623  10.234  10.772  0.1990 -0.1602  0.2757
  747MOL0     C  776   1.006  10.633  10.484 -0.2980  0.7584 -0.1333
  747MOL0     C  777   0.879  10.678  10.517 -0.2677 -0.4235 -0.5829
  747MOL0     H  778   0.631  11.067  10.352  0.8484  1.3056  0.2740
  747MOL0     H  779   0.398  11.163  10.299  2.5553 -2.9683 -1.6613
  747MOL0     H  780   0.249  11.348  10.412 -0.9929  1.2599  2.7107
  747MOL0     H  781   0.172  11.225  10.295 -3.9002 -0.9408  0.0418
  747MOL0     H  782   0.026  11.359  10.518 -4.7697  0.8773 -0.1581
  747MOL0     H  783   0.035  11.401  10.337  1.6439  0.1311  0.7881
  747MOL0     H  784  -0.100  11.237  10.277 -0.0173  1.7693 -0.1528
  747MOL0     H  785  -0.051  11.132  10.424 -2.5296 -1.3352 -0.7066
  747MOL0     H  786  -0.188  11.256  10.571 -1.2802 -2.5786  1.4943
  747MOL0     H  787  -0.265  11.349  10.438 -1.8827 -0.4913  1.4901
  747MOL0     H  788  -0.351  11.128  10.340 -0.7545  1.2668 -0.7987
  747MOL0     H  789  -0.293  11.044  10.479 -0.6166  0.6763 -0.7371
  747MOL0     H  790  -0.497  11.281  10.496 -1.7495  1.2016  3.7611
  747MOL0     H  791  -0.537  11.120  10.463 -1.0299  0.6464  0.4401
  747MOL0     H  792  -0.385  11.187  10.713 -0.5477  0.0754  1.1934
  747MOL0     H  793  -0.551  11.186  10.724  0.0501 -2.0125  0.9893
  747MOL0     H  794  -0.483  10.982  10.797  1.5421 -1.0773 -0.0262
  747MOL0     H  795  -0.396  10.926  10.654  1.2771  1.4690  0.0525
  747MOL0     H  796  -0.754  11.072  10.716  1.0194  0.6263 -1.3446
  747MOL0     H  797  -0.980  10.876  10.773 -1.5535  2.5845  0.8427
  747MOL0     H  798  -0.990  10.987  10.637 -1.0148 -0.7886  1.5737
  747MOL0     H  799  -0.977  10.686  10.597 -2.7119  0.9395  4.7822
  747MOL0     H  800  -0.999  10.823  10.466 -0.4519  1.2434 -1.1914
  747MOL0     H  801  -1.216  10.868  10.554 -2.1014 -0.8071  0.5068
  747MOL0     H  802  -1.195  10.745  10.681 -1.6235 -0.2361 -0.5365
  747MOL0     H  803  -1.241  10.578  10.559  0.2557  0.9626  0.6241
  747MOL0     H  804  -1.161  10.640  10.413  0.2477  0.6562 -0.3610
  747MOL0     H  805  -1.539  10.691  10.290  1.3841 -2.0604 -0.3110
  747MOL0     H  806  -1.756  10.603  10.221  1.4461  3.0893  0.1980
  747MOL0     H  807  -1.868  10.543  10.340 -1.9828  1.3317  0.0191
  747MOL0     H  808  -1.858  10.722  10.318  0.7901  0.9951 -1.7890
  747MOL0     H  809  -2.068  10.723  10.780 -0.5058  0.2028  1.9069
  747MOL0     H  810  -2.316  10.674  10.854 -0.0077 -0.6709 -2.8194
  747MOL0     H  811  -2.541  10.414  10.755  0.1934 -2.8568 -0.7738
  747MOL0     H  812  -2.489  10.282  10.852  0.0122  0.2127 -1.6054
  747MOL0     H  813  -2.692  10.488  10.936  2.0339  1.1853  0.3436
  747MOL0     H  814  -2.718  10.305  10.911 -0.2587 -0.3737  0.4063
  747MOL0     H  815  -2.566  10.451  11.132  1.0542 -0.5885 -1.1286
  747MOL0     H  816  -2.556  10.275  11.114  0.7444  1.4758  1.8702
  747MOL0     H  817  -2.833  10.378  11.122  0.5935  1.4041 -0.7524
  747MOL0     H  818  -2.762  10.236  11.193 -1.5573  0.9475  2.6036
  747MOL0     H  819  -2.690  10.505  11.300  0.2656  0.7057 -0.9138
  747MOL0     H  820  -2.667  10.356  11.379  1.0403 -1.2950 -2.0728
  747MOL0     H  821  -2.956  10.474  11.314 -2.9557  0.0343  2.1324
  747MOL0     H  822  -2.916  10.332  11.416  0.3795  0.4888  0.6637
  747MOL0     H  823  -2.836  10.618  11.468 -0.9136  0.7872  1.0953
  747MOL0     H  824  -2.812  10.483  11.581 -0.7604  1.6598  0.1582
  747MOL0     H  825  -3.089  10.557  11.474 -0.2745  0.6584  0.5694
  747MOL0     H  826  -3.011  10.642  11.599  2.9703  1.6332 -1.3257
  747MOL0     H  827  -2.237  10.270  10.893  0.9848  0.0880  1.1361
  747MOL0     H  828  -1.995  10.306  10.831  0.7774  0.2741  0.4117
  747MOL0     H  829  -1.647  10.646  10.767  0.7824 -2.8870  0.4468
  747MOL0     H  830  -1.422  10.698  10.691 -0.2309 -2.3469  0.8855
  747MOL0     H  831   0.284  11.091  10.700 -0.9370  1.2420 -1.1034
  747MOL0     H  832   0.493  11.002  10.758 -0.4897  3.8426  1.0597
  747MOL0     H  833   0.967  10.997  10.587  0.8119  0.1557 -0.3459
  747MOL0     H  834   1.185  10.914  10.539  1.9035 -2.7974 -0.9375
  747MOL0     H  835   1.320  10.778  10.650  1.6059  0.3814 -0.4912
  747MOL0     H  836   1.251  10.620  10.715  0.7000 -1.9855 -1.3839
  747MOL0     H  837   1.484  10.584  10.733 -1.4142 -0.6587  0.0372
  747MOL0     H  838   1.515  10.672  10.580 -0.7887  0.3173 -1.2017
  747MOL0     H  839   1.424  10.487  10.451 -2.5265  1.0389  0.2898
  747MOL0     H  840   1.361  10.409  10.600 -1.7563  1.9644 -1.8650
  747MOL0     H  841   1.665  10.458  10.549 -0.4294  0.9503 -1.3430
  747MOL0     H  842   1.593  10.329  10.476 -2.1436  0.4425 -1.0396
  747MOL0     H  843   1.648  10.166  10.851  0.8187  0.3673  0.5479
  747MOL0     H  844   1.016  10.527  10.461  0.4619  0.5518  1.0667
  747MOL0     H  845   0.795  10.609  10.510 -0.8497  0.0273  1.2211
  748MOL0     O  846   7.305   3.279   7.974 -0.0670 -0.7283  0.9018
  748MOL0     C  847   7.400   3.361   7.943  0.7085 -0.2518 -0.6924
  748MOL0     O  848   7.390   3.474   7.857  0.6142 -0.4814 -0.3513
  748MOL0     C  849   7.281   3.463   7.771  0.6131 -0.6448 -0.1900
  748MOL0     C  850   7.147   3.496   7.815  0.2340  0.7474 -0.2764
  748MOL0     C  851   7.042   3.485   7.727  0.0321  0.4165 -0.2066
  748MOL0     C  852   7.068   3.443   7.598  0.2188 -0.4001 -0.8098
  748MOL0     O  853   6.950   3.437   7.527 -0.0725 -0.2510  0.3086
  748MOL0     C  854   6.957   3.377   7.387 -0.2333 -0.5802 -0.0455
  748MOL0     C  855   6.818   3.375   7.330  0.0831  0.0627 -1.0492
  748MOL0     C  856   6.804   3.270   7.218 -0.1214  0.5430 -0.4203
  748MOL0     C  857   6.794   3.132   7.283 -0.2649 -0.3894  0.1790
  748MOL0     C  858   6.776   3.019   7.181 -0.2001 -0.1382 -0.6628
  748MOL0     C  859   6.762   2.880   7.242  0.1301 -0.3800 -0.3773
  748MOL0     C  860   6.613   2.873   7.280  0.0465  0.6236 -0.5059
  748MOL0     C  861   6.524   2.812   7.177 -0.4163  0.3524  0.4544
  748MOL0     N  862   6.398   2.879   7.185 -0.7093 -0.5313 -0.1596
  748MOL0     C  863   6.289   2.826   7.259  0.4505 -0.7584  0.8264
  748MOL0     C  864   6.197   2.923   7.241 -0.1989  0.6828 -0.3118
  748MOL0     C  865   6.053   2.901   7.295 -0.9647 -0.1563  0.4144
  748MOL0     C  866   5.944   2.975   7.212 -0.2720  0.1692 -0.2866
  748MOL0     C  867   5.817   2.953   7.288  0.4855 -0.3382  0.1038
  748MOL0     C  868   5.702   3.047   7.231  0.2816 -0.3231 -0.2937
  748MOL0     O  869   5.745   3.114   7.117 -0.6836 -0.4410 -0.1776
  748MOL0     C  870   5.665   3.213   7.058 -0.3208  0.6141 -0.2831
  748MOL0     C  871   5.720   3.265   6.938  0.7566 -0.2704 -0.6040
  748MOL0     C  872   5.642   3.362   6.859  0.3754 -0.6930  0.1146
  748MOL0     C  873   5.706   3.414   6.735 -0.5592 -1.0997 -0.4225
  748MOL0     C  874   5.517   3.407   6.907 -0.5628 -1.0840 -1.0856
  748MOL0     C  875   5.435   3.508   6.837  0.5663 -0.1296  0.6680
  748MOL0     O  876   5.320   3.544   6.909 -0.6162 -0.7510  0.2045
  748MOL0     C  877   5.227   3.621   6.848  0.1334  0.1665  0.5388
  748MOL0     C  878   5.258   3.737   6.782 -0.4050 -1.2016  0.7747
  748MOL0     C  879   5.158   3.829   6.742 -0.1117 -1.2850 -0.0006
  748MOL0     C  880   5.020   3.792   6.763 -0.1006 -0.5271  0.6314
  748MOL0     O  881   4.920   3.874   6.712  0.0949 -0.4579 -0.0614
  748MOL0     C  882   4.783   3.842   6.751 -0.7532 -0.3551 -0.6223
  748MOL0     C  883   4.683   3.926   6.677 -1.1970 -0.5364  0.3254
  748MOL0     C  884   4.541   3.894   6.733 -0.1877 -0.3768  0.4491
  748MOL0     C  885   4.434   3.988   6.670 -0.5748  0.5785 -0.4809
  748MOL0     C  886   4.296   3.984   6.737 -1.4031 -0.0234 -0.5731
  748MOL0     C  887   4.182   4.043   6.647 -0.5617  0.7474  0.4933
  748MOL0     C  888   4.045   4.033   6.717  0.1476 -0.1050  0.6611
  748MOL0     C  889   3.935   4.099   6.628  0.3367  0.4605 -0.8378
  748MOL0    Cl  890   3.768   4.065   6.690 -0.1064 -0.1117  0.1734
  748MOL0     C  891   4.994   3.672   6.835  0.5573  0.3219 -0.3917
  748MOL0     C  892   5.098   3.604   6.888  0.3354 -0.0417  0.1276
  748MOL0     O  893   5.457   3.543   6.725 -0.4419 -0.7777 -0.2548
  748MOL0     C  894   5.469   3.352   7.030 -0.6144  0.0994  0.2285
  748MOL0     C  895   5.540   3.254   7.102 -0.5154  0.0231 -0.1059
  748MOL0     N  896   6.248   3.027   7.167  0.2970 -1.0589 -0.3076
  748MOL0     N  897   6.369   2.998   7.131  0.6592 -0.1716 -0.1276
  748MOL0     C  898   7.203   3.399   7.560  0.3073  0.4553 -0.5100
  748MOL0     C  899   7.307   3.410   7.651 -0.1016 -0.1607  0.8109
  748MOL0     C  900   7.530   3.340   7.998  0.6013  0.4602  0.4495
  748MOL0     C  901   7.621   3.444   7.992  0.3948 -0.2854 -0.1391
  748MOL0     C  902   7.750   3.425   8.048  0.9099 -0.0391  0.8257
  748MOL0     C  903   7.778   3.315   8.130  0.0988 -0.4127  0.0286
  748MOL0     O  904   7.896   3.287   8.188  0.6563 -0.2241  0.4692
  748MOL0     C  905   7.976   3.402   8.231  0.0644  0.0771 -0.2046
  748MOL0     C  906   8.088   3.360   8.326  0.2298 -0.3422 -0.2460
  748MOL0     C  907   8.031   3.258   8.422  0.4285 -0.4057  0.2635
  748MOL0     C  908   8.117   3.238   8.534 -0.4361 -0.1202 -0.2291
  748MOL0     C  909   8.247   3.186   8.505 -0.7291  0.0037 -0.4875
  748MOL0     C  910   8.359   3.141   8.492 -0.5922  0.3246  0.0108
  748MOL0     C  911   7.683   3.214   8.124 -0.3410 -0.5654 -0.2804
  748MOL0     C  912   7.561   3.217   8.060  0.0727 -0.3510 -0.3904
  748MOL0     H  913   7.131   3.522   7.919  0.0672  0.1922 -0.1609
  748MOL0     H  914   6.938   3.500   7.757 -0.6757  1.3368 -2.8354
  748MOL0     H  915   7.014   3.452   7.332 -1.0572  2.3064  2.7378
  748MOL0     H  916   7.014   3.283   7.381  4.2554  1.8992 -0.4067
  748MOL0     H  917   6.753   3.352   7.415 -0.8022 -0.0953 -1.7548
  748MOL0     H  918   6.798   3.479   7.301  1.1812  0.5806 -0.0461
  748MOL0     H  919   6.711   3.283   7.163 -0.0128 -4.0516 -2.1293
  748MOL0     H  920   6.889   3.276   7.149 -2.7541  0.7050 -3.9253
  748MOL0     H  921   6.884   3.122   7.344 -0.6420 -0.1537  0.7924
  748MOL0     H  922   6.709   3.142   7.352  1.7130  0.4077  2.6438
  748MOL0     H  923   6.695   3.041   7.111  0.4486  0.8723 -1.1246
  748MOL0     H  924   6.870   3.016   7.125  1.0242  1.5179  1.1768
  748MOL0     H  925   6.784   2.797   7.174 -0.0529 -0.8554  0.1333
  748MOL0     H  926   6.819   2.872   7.334 -0.9287 -0.2032  0.3123
  748MOL0     H  927   6.593   2.823   7.375 -1.6261  2.2357  0.0405
  748MOL0     H  928   6.575   2.972   7.308  0.9802  1.1862 -1.1925
  748MOL0     H  929   6.518   2.704   7.191 -0.5162  0.5172  1.8091
  748MOL0     H  930   6.568   2.831   7.079 -0.2672  1.3931  0.7049
  748MOL0     H  931   6.265   2.726   7.293 -0.6516 -1.0035 -0.5676
  748MOL0     H  932   6.037   2.793   7.280  0.3198 -0.0721 -2.1422
  748MOL0     H  933   6.053   2.924   7.402 -3.5551  1.1543  0.2017
  748MOL0     H  934   5.937   2.941   7.108  0.6451  1.3749 -0.7601
  748MOL0     H  935   5.956   3.084   7.220 -0.8678  0.1981  0.4213
  748MOL0     H  936   5.825   2.977   7.395 -1.3261  0.0656  0.1903
  748MOL0     H  937   5.778   2.851   7.287  0.9227 -0.5040 -0.0190
  748MOL0     H  938   5.688   3.114   7.317  2.4925 -0.8672  0.5725
  748MOL0     H  939   5.613   2.988   7.207  0.0402 -0.5591  1.0893
  748MOL0     H  940   5.815   3.225   6.905  0.5369  0.5712 -2.4140
  748MOL0     H  941   5.640   3.411   6.648 -1.2261  3.5432 -0.3212
  748MOL0     H  942   5.725   3.521   6.748 -1.4217 -0.6375 -2.5826
  748MOL0     H  943   5.799   3.360   6.713 -1.0015 -2.1484  0.2118
  748MOL0     H  944   5.363   3.745   6.755 -0.1636  0.0211  1.9179
  748MOL0     H  945   5.191   3.917   6.687  1.1558 -1.4736  0.4281
  748MOL0     H  946   4.764   3.737   6.726  0.4439 -1.3912  2.2911
  748MOL0     H  947   4.771   3.855   6.859  0.1482  2.3902 -0.7695
  748MOL0     H  948   4.709   4.032   6.684 -2.7561 -0.1459  0.7742
  748MOL0     H  949   4.685   3.889   6.575 -0.9041 -0.2388  0.2211
  748MOL0     H  950   4.530   3.904   6.841 -1.5084  1.6634  0.1773
  748MOL0     H  951   4.516   3.791   6.706  2.9444 -1.3491  0.9612
  748MOL0     H  952   4.469   4.091   6.664 -0.0903  0.5201  0.8696
  748MOL0     H  953   4.418   3.959   6.566  0.3027 -0.3748 -0.3622
  748MOL0     H  954   4.288   4.037   6.833 -3.8444 -1.1644 -0.0636
  748MOL0     H  955   4.271   3.883   6.769 -1.1704  0.4620  1.2948
  748MOL0     H  956   4.197   4.147   6.616 -0.7118  0.8200  0.6593
  748MOL0     H  957   4.185   3.985   6.554  3.3540 -0.9077  1.4752
  748MOL0     H  958   4.045   4.075   6.817  0.1827  0.5805  0.3761
  748MOL0     H  959   4.014   3.929   6.728 -1.6659  0.0540 -1.9377
  748MOL0     H  960   3.938   4.065   6.524 -1.5495 -0.5850 -0.5972
  748MOL0     H  961   3.934   4.208   6.622 -1.1701  0.4226 -1.7292
  748MOL0     H  962   4.895   3.649   6.872  1.6981 -2.1798  1.3943
  748MOL0     H  963   5.078   3.534   6.969  0.8038 -1.0097 -0.5692
  748MOL0     H  964   5.371   3.371   7.073 -0.7234  0.0313  0.0106
  748MOL0     H  965   5.496   3.202   7.186  0.3208 -4.6057 -2.2295
  748MOL0     H  966   7.230   3.357   7.463 -1.2819 -0.2768 -0.6638
  748MOL0     H  967   7.407   3.390   7.612 -1.2481 -1.4820 -1.6546
  748MOL0     H  968   7.601   3.531   7.931  2.4045 -0.3681 -1.0028
  748MOL0     H  969   7.825   3.496   8.016  1.6920 -0.9512  0.6039
  748MOL0     H  970   8.027   3.454   8.149 -0.2043 -2.5583 -2.1415
  748MOL0     H  971   7.927   3.487   8.279 -0.6166  0.4130 -1.4583
  748MOL0     H  972   8.121   3.455   8.369  0.6715 -0.8526  0.5859
  748MOL0     H  973   8.169   3.317   8.266  1.0664  0.4031  0.3170
  748MOL0     H  974   8.008   3.165   8.370 -1.6605  1.3954 -2.2971
  748MOL0     H  975   7.937   3.303   8.454 -0.4137  0.0479 -2.6202
  748MOL0     H  976   8.076   3.185   8.621  1.3732  1.9742  2.0345
  748MOL0     H  977   8.134   3.337   8.578 -0.5773 -0.4720  0.6405
  748MOL0     H  978   8.451   3.090   8.471  0.3119  2.1786 -0.7246
  748MOL0     H  979   7.701   3.122   8.177  0.2144 -0.4153 -0.2015
  748MOL0     H  980   7.506   3.124   8.061  1.4929 -1.4718  5.1715
  749MOL0     O  981   1.932   9.375   1.095  0.3353 -0.4763  0.5069
  749MOL0     C  982   1.997   9.277   1.068 -0.2900  0.8269  0.4343
  749MOL0     O  983   1.974   9.196   0.953 -0.7852 -0.8015 -0.2275
  749MOL0     C  984   1.855   9.203   0.878  1.0471 -0.0901 -0.8167
  749MOL0     C  985   1.874   9.201   0.735 -0.4497 -0.0647 -0.2013
  749MOL0     C  986   1.770   9.200   0.646  0.1673 -0.2080 -0.2846
  749MOL0     C  987   1.643   9.224   0.692  0.1196  0.2754 -0.9172
  749MOL0     O  988   1.533   9.248   0.611  0.1053 -1.3071  0.1490
  749MOL0     C  989   1.537   9.380   0.542 -0.6479  0.0456 -1.1404
  749MOL0     C  990   1.396   9.414   0.485 -0.8157 -0.6694  0.4936
  749MOL0     C  991   1.424   9.537   0.390  0.5133 -0.0238 -0.5615
  749MOL0     C  992   1.293   9.576   0.325  0.2492  0.0129  0.9034
  749MOL0     C  993   1.293   9.708   0.236  0.3285 -0.0863 -0.1489
  749MOL0     C  994   1.168   9.743   0.159 -0.7631  0.7880  0.3864
  749MOL0     C  995   1.052   9.783   0.251  0.0364  0.9276  0.0199
  749MOL0     C  996   0.921   9.798   0.169 -0.2795  0.3458  0.4524
  749MOL0     N  997   0.825   9.879   0.235  0.7475 -0.1507 -0.1428
  749MOL0     C  998   0.769   9.855   0.363  0.2405  0.9437 -0.2264
  749MOL0     C  999   0.670   9.958   0.375 -0.2257 -0.1117  0.3105
  749MOL0     C 1000   0.596   9.997   0.493 -0.7539  0.0786  0.3106
  749MOL0     C 1001   0.454   9.948   0.509  1.2235 -0.5703  0.5260
  749MOL0     C 1002   0.401  10.004   0.642 -0.4324 -0.6462  0.4094
  749MOL0     C 1003   0.276   9.923   0.682  0.2335  0.2496 -0.1472
  749MOL0     O 1004   0.174   9.956   0.590  0.0060  0.0456  0.0621
  749MOL0     C 1005   0.051   9.910   0.613  1.6394 -0.5888  0.3740
  749MOL0     C 1006   0.012   9.803   0.694 -0.6036  0.5288  0.3437
  749MOL0     C 1007  -0.116   9.752   0.716  0.3017 -0.1394  0.2257
  749MOL0     C 1008  -0.144   9.644   0.815 -0.6324 -0.4226  0.2110
  749MOL0     C 1009  -0.224   9.818   0.650  0.5666  0.1953  0.7775
  749MOL0     C 1010  -0.372   9.774   0.655 -0.0402 -0.1301 -0.9874
  749MOL0     O 1011  -0.451   9.808   0.548 -0.3075  0.0750 -0.2771
  749MOL0     C 1012  -0.578   9.756   0.539  0.4858 -0.3366 -0.0293
  749MOL0     C 1013  -0.680   9.845   0.502  0.1207 -0.5414  0.4676
  749MOL0     C 1014  -0.816   9.800   0.498 -1.0314  0.4077 -0.5511
  749MOL0     C 1015  -0.848   9.669   0.526  0.2004 -0.5706  0.5996
  749MOL0     O 1016  -0.970   9.610   0.517  0.1757  0.6744  0.8545
  749MOL0     C 1017  -1.089   9.698   0.529 -0.2406  0.7207 -0.1090
  749MOL0     C 1018  -1.212   9.605   0.555 -0.6279 -0.6754  0.3106
  749MOL0     C 1019  -1.337   9.696   0.586 -0.6520 -0.3660 -0.3445
  749MOL0     C 1020  -1.463   9.615   0.615 -0.4661  0.0407 -0.0236
  749MOL0     C 1021  -1.582   9.702   0.593 -0.2176 -0.0616 -1.0308
  749MOL0     C 1022  -1.714   9.619   0.594 -0.3801 -0.2567 -0.5870
  749MOL0     C 1023  -1.819   9.723   0.552 -0.6579  0.0800  0.7295
  749MOL0     C 1024  -1.957   9.657   0.523 -0.1399 -0.9509  0.2855
  749MOL0    Cl 1025  -1.964   9.555   0.380  0.0289 -0.1706  0.8061
  749MOL0     C 1026  -0.744   9.589   0.560  0.6590  0.5667 -0.2197
  749MOL0     C 1027  -0.614   9.626   0.570 -0.3427  0.4709 -0.9020
  749MOL0     O 1028  -0.408   9.697   0.749 -0.0612 -0.8128 -0.2475
  749MOL0     C 1029  -0.191   9.931   0.571 -0.3754  0.0151  0.8575
  749MOL0     C 1030  -0.057   9.979   0.557 -0.1043 -0.0702 -0.8752
  749MOL0     N 1031   0.671  10.038   0.254 -0.2176 -0.4646  0.2798
  749MOL0     N 1032   0.763   9.992   0.178 -0.8199  0.4428 -0.4197
  749MOL0     C 1033   1.620   9.227   0.830 -0.5022  0.4155  0.7670
  749MOL0     C 1034   1.722   9.208   0.926 -0.1690 -0.2256  0.9250
  749MOL0     C 1035   2.113   9.259   1.147 -1.0442 -0.2205  0.4436
  749MOL0     C 1036   2.209   9.168   1.112 -0.0121  0.7362 -0.3822
  749MOL0     C 1037   2.314   9.138   1.203 -0.0777 -0.0215  0.2051
  749MOL0     C 1038   2.332   9.212   1.320 -1.2306  0.8653 -0.6310
  749MOL0     O 1039   2.436   9.169   1.405  0.3645 -0.2385  0.3776
  749MOL0     C 1040   2.541   9.268   1.405  0.4272  0.1327  0.4785
  749MOL0     C 1041   2.655   9.247   1.498 -1.0675 -0.4708 -0.3138
  749MOL0     C 1042   2.678   9.093   1.538 -0.3340 -0.4377 -0.0246
  749MOL0     C 1043   2.825   9.063   1.554  0.1091  0.2268  0.2392
  749MOL0     C 1044   2.892   9.138   1.661  0.7694 -0.0624 -0.3491
  749MOL0     C 1045   2.942   9.206   1.745 -0.9528  0.4421 -0.1017
  749MOL0     C 1046   2.243   9.310   1.351  0.6796  0.2444  0.2179
  749MOL0     C 1047   2.126   9.328   1.271  0.9955 -0.0257 -0.6578
  749MOL0     H 1048   1.977   9.196   0.700  0.0093 -0.7747  1.1569
  749MOL0     H 1049   1.767   9.204   0.538 -2.0742 -2.2008 -0.3540
  749MOL0     H 1050   1.564   9.462   0.608 -0.8339 -0.2767 -0.6581
  749MOL0     H 1051   1.610   9.375   0.461  1.2587 -1.4042  0.5625
  749MOL0     H 1052   1.348   9.328   0.436 -0.8127 -0.7154  0.5713
  749MOL0     H 1053   1.347   9.454   0.574  1.8706 -0.8554  2.1352
  749MOL0     H 1054   1.469   9.620   0.445 -0.3136 -0.4064  0.7397
  749MOL0     H 1055   1.485   9.503   0.306 -0.9579 -1.8180 -0.9680
  749MOL0     H 1056   1.253   9.497   0.262  2.1266  0.0421 -0.4180
  749MOL0     H 1057   1.212   9.594   0.397  2.4936  4.3131  2.7923
  749MOL0     H 1058   1.329   9.786   0.304 -0.9197 -0.1019  0.5630
  749MOL0     H 1059   1.370   9.689   0.161 -1.3404 -1.6029 -1.5888
  749MOL0     H 1060   1.184   9.829   0.094 -0.1307 -0.9761 -1.9218
  749MOL0     H 1061   1.154   9.658   0.091  1.8010  2.3206 -2.2361
  749MOL0     H 1062   1.033   9.715   0.336 -2.6177  1.3175 -0.1764
  749MOL0     H 1063   1.085   9.882   0.284 -1.9266  1.2274  1.2824
  749MOL0     H 1064   0.877   9.700   0.150  0.3460  0.1786 -0.2132
  749MOL0     H 1065   0.932   9.837   0.067  1.8802 -0.6438  0.2545
  749MOL0     H 1066   0.804   9.795   0.446  0.0912  0.7096 -0.3308
  749MOL0     H 1067   0.660   9.957   0.572  0.7112  0.2959 -0.7079
  749MOL0     H 1068   0.592  10.105   0.509 -2.2610  0.2280 -0.8480
  749MOL0     H 1069   0.442   9.840   0.511  1.0793 -0.5534  1.6156
  749MOL0     H 1070   0.395   9.982   0.423 -2.3783  0.2760  3.0825
  749MOL0     H 1071   0.364  10.105   0.620  0.1233 -1.0141 -2.5071
  749MOL0     H 1072   0.473  10.014   0.724  1.2245  3.1757 -1.2518
  749MOL0     H 1073   0.229   9.944   0.779 -3.3594 -1.5074 -1.3344
  749MOL0     H 1074   0.305   9.818   0.675  0.6807  0.2911  0.9164
  749MOL0     H 1075   0.097   9.764   0.749  0.1119  2.3166  0.5667
  749MOL0     H 1076  -0.051   9.608   0.859 -0.3114 -0.6372 -0.6233
  749MOL0     H 1077  -0.192   9.694   0.900 -0.7040 -1.2605  0.6676
  749MOL0     H 1078  -0.207   9.566   0.773 -2.8208  1.0250  0.6358
  749MOL0     H 1079  -0.658   9.947   0.473  1.5063 -1.2004 -0.9525
  749MOL0     H 1080  -0.893   9.873   0.473 -3.5288 -1.7416  0.4092
  749MOL0     H 1081  -1.076   9.777   0.604  2.1193 -1.1335  1.5944
  749MOL0     H 1082  -1.113   9.754   0.438 -0.7886 -0.4641 -0.7074
  749MOL0     H 1083  -1.229   9.542   0.467 -2.2382 -1.4577  1.1235
  749MOL0     H 1084  -1.196   9.536   0.639 -4.1781  0.9147  2.5372
  749MOL0     H 1085  -1.352   9.753   0.495 -0.7693 -2.4282 -1.6834
  749MOL0     H 1086  -1.325   9.765   0.670  4.5663 -1.9037  0.5286
  749MOL0     H 1087  -1.462   9.538   0.537  1.3582  0.6270 -0.6232
  749MOL0     H 1088  -1.449   9.569   0.713  1.8441  0.5761 -0.0402
  749MOL0     H 1089  -1.574   9.768   0.506  0.8370  0.0561 -0.8624
  749MOL0     H 1090  -1.583   9.766   0.682  1.0137 -1.2547 -0.1150
  749MOL0     H 1091  -1.706   9.540   0.518  1.8029  0.4412 -1.1686
  749MOL0     H 1092  -1.727   9.573   0.692 -3.2615  1.7116  0.0519
  749MOL0     H 1093  -1.784   9.766   0.457 -0.9881  0.0939  0.6148
  749MOL0     H 1094  -1.841   9.809   0.615 -0.8264 -0.2035  1.0574
  749MOL0     H 1095  -2.031   9.737   0.510  0.8547 -0.0895 -0.1923
  749MOL0     H 1096  -1.970   9.588   0.607  0.1793 -1.2177  0.1170
  749MOL0     H 1097  -0.760   9.483   0.578  2.4566  0.7491  3.3478
  749MOL0     H 1098  -0.540   9.549   0.588 -1.0296 -0.1390 -0.6392
  749MOL0     H 1099  -0.274   9.985   0.528 -1.3045 -1.3914  0.8212
  749MOL0     H 1100  -0.033  10.065   0.495 -0.6933  0.5748 -0.2228
  749MOL0     H 1101   1.521   9.255   0.865 -1.8635  0.9371 -3.0477
  749MOL0     H 1102   1.707   9.223   1.032  0.0181  0.6187  0.8344
  749MOL0     H 1103   2.190   9.107   1.025  0.4919  0.1747 -0.1027
  749MOL0     H 1104   2.380   9.054   1.186  0.4407  1.0233 -3.9601
  749MOL0     H 1105   2.579   9.290   1.306 -1.6625 -0.3982 -0.5043
  749MOL0     H 1106   2.491   9.362   1.431 -1.4979 -0.5862 -0.4296
  749MOL0     H 1107   2.648   9.307   1.589  1.1453 -1.6004  0.6691
  749MOL0     H 1108   2.747   9.275   1.447 -0.0743  0.5153  1.9126
  749MOL0     H 1109   2.632   9.031   1.461 -0.3968  0.3407 -0.6240
  749MOL0     H 1110   2.632   9.070   1.634  2.7457  0.9059  1.9465
  749MOL0     H 1111   2.877   9.088   1.461  3.1510 -0.9601  1.4883
  749MOL0     H 1112   2.822   8.956   1.576 -2.5940 -0.3968 -2.5927
  749MOL0     H 1113   2.990   9.262   1.822 -1.1022 -0.8373  0.9548
  749MOL0     H 1114   2.245   9.362   1.446 -1.8366  1.6445 -0.4073
  749MOL0     H 1115   2.047   9.395   1.303  1.3473 -0.5377  1.4660
  750MOL0     O 1116  10.255   0.473   7.572  0.5281 -0.2980 -0.4183
  750MOL0     C 1117  10.261   0.598   7.565 -0.3198 -0.1707 -0.9018
  750MOL0     O 1118  10.154   0.679   7.565  0.5397 -0.3078  0.7861
  750MOL0     C 1119  10.055   0.657   7.662  0.1401  0.7584  0.7376
  750MOL0     C 1120   9.923   0.634   7.633 -0.7162  0.3315 -0.0799
  750MOL0     C 1121   9.824   0.625   7.736  0.5771  0.0762  0.3087
  750MOL0     C 1122   9.862   0.636   7.864 -0.0143  0.2169 -0.4003
  750MOL0     O 1123   9.769   0.642   7.964 -0.7502  0.1063  0.1164
  750MOL0     C 1124   9.779   0.750   8.058  0.3082  0.2706  0.1806
  750MOL0     C 1125   9.659   0.749   8.153 -0.4048 -0.7781 -0.4321
  750MOL0     C 1126   9.528   0.769   8.078 -0.2785  1.1790  0.6582
  750MOL0     C 1127   9.396   0.731   8.147 -0.1680 -0.1664 -0.2389
  750MOL0     C 1128   9.269   0.747   8.068  0.3612  0.4937  0.4239
  750MOL0     C 1129   9.143   0.711   8.153  0.4077 -0.1489  0.2261
  750MOL0     C 1130   9.024   0.680   8.054  0.2254 -0.1772 -0.5462
  750MOL0     C 1131   8.901   0.637   8.133 -0.0029  0.6238  0.7027
  750MOL0     N 1132   8.778   0.649   8.053  0.2209 -0.1462 -1.0022
  750MOL0     C 1133   8.687   0.749   8.056 -0.8345  0.2856 -0.5978
  750MOL0     C 1134   8.584   0.704   7.982  0.1437 -0.4989 -0.5094
  750MOL0     C 1135   8.465   0.785   7.957 -0.9398  0.2369 -1.0094
  750MOL0     C 1136   8.393   0.798   8.092  0.1705 -0.0345  0.1870
  750MOL0     C 1137   8.316   0.665   8.120  0.2361  0.0210  0.7050
  750MOL0     C 1138   8.263   0.690   8.256 -0.9703  0.1013 -1.0998
  750MOL0     O 1139   8.139   0.765   8.235 -0.6852  0.5914  0.5230
  750MOL0     C 1140   8.025   0.730   8.310 -0.8057 -0.0604  0.0094
  750MOL0     C 1141   7.900   0.784   8.267 -0.3537  0.1925 -0.6511
  750MOL0     C 1142   7.782   0.752   8.335 -0.7696 -0.1685  0.6763
  750MOL0     C 1143   7.658   0.815   8.285 -0.1424 -0.2055 -0.2541
  750MOL0     C 1144   7.783   0.668   8.454 -0.5656 -0.9225  0.3495
  750MOL0     C 1145   7.669   0.619   8.530 -0.0991 -0.0874  0.2629
  750MOL0     O 1146   7.548   0.644   8.479 -1.0201  0.1145  0.4099
  750MOL0     C 1147   7.430   0.608   8.540  0.0232  0.3344 -0.3687
  750MOL0     C 1148   7.315   0.625   8.463 -0.0031  0.4446 -0.0411
  750MOL0     C 1149   7.189   0.605   8.514 -0.6612  0.1499 -0.8007
  750MOL0     C 1150   7.171   0.554   8.642 -0.0530 -0.2843 -0.5367
  750MOL0     O 1151   7.047   0.523   8.686 -0.1383  0.0280 -0.0817
  750MOL0     C 1152   7.005   0.583   8.804  0.2933 -0.7837 -0.6883
  750MOL0     C 1153   6.856   0.583   8.812  0.4724 -0.3201 -1.1584
  750MOL0     C 1154   6.816   0.697   8.712 -0.6880 -0.0699  0.1091
  750MOL0     C 1155   6.664   0.723   8.716 -0.7837  0.6075  0.5424
  750MOL0     C 1156   6.611   0.851   8.666  0.8715 -0.3105  0.2223
  750MOL0     C 1157   6.563   0.859   8.513  0.4410  0.0917  0.4694
  750MOL0     C 1158   6.531   1.003   8.464 -0.0981  0.0943  0.2171
  750MOL0     C 1159   6.538   1.032   8.310 -0.3620  0.1001  0.3911
  750MOL0    Cl 1160   6.698   1.068   8.251 -0.1630 -0.1452 -0.2582
  750MOL0     C 1161   7.287   0.545   8.728 -0.4928 -0.0405  0.0221
  750MOL0     C 1162   7.417   0.566   8.674  0.0963  0.3428  0.6839
  750MOL0     O 1163   7.691   0.549   8.626  0.1682 -0.4104 -0.4416
  750MOL0     C 1164   7.909   0.635   8.503 -0.9960  0.4008  0.1957
  750MOL0     C 1165   8.028   0.659   8.435  0.0179  0.4997 -0.3998
  750MOL0     N 1166   8.609   0.579   7.936 -0.2438  0.8092  0.1305
  750MOL0     N 1167   8.732   0.546   7.973 -0.7756 -0.0854 -0.3650
  750MOL0     C 1168   9.997   0.647   7.896 -1.3665 -0.4344  0.0645
  750MOL0     C 1169  10.088   0.665   7.791 -0.7682 -0.0559 -0.2034
  750MOL0     C 1170  10.400   0.657   7.574 -0.3540  0.0769 -0.3539
  750MOL0     C 1171  10.510   0.566   7.593 -0.2634 -0.2470  0.4620
  750MOL0     C 1172  10.642   0.623   7.582  0.0538 -0.4769 -0.0257
  750MOL0     C 1173  10.665   0.756   7.544 -1.1279 -0.3056  0.1101
  750MOL0     O 1174  10.797   0.793   7.547  0.2802  0.4553  0.0093
  750MOL0     C 1175  10.833   0.916   7.486  0.6937  0.0437 -0.5242
  750MOL0     C 1176  10.980   0.932   7.490 -0.1483  0.0952  0.1311
  750MOL0     C 1177  11.061   0.810   7.451 -0.5413 -0.4088 -0.0487
  750MOL0     C 1178  11.029   0.766   7.308 -0.3961 -0.2407  0.4616
  750MOL0     C 1179  11.148   0.686   7.241 -0.1125 -0.0825  0.4919
  750MOL0     C 1180  11.226   0.608   7.191  0.5039 -0.1093 -0.3207
  750MOL0     C 1181  10.553   0.840   7.522  0.9852  0.0540  0.1096
  750MOL0     C 1182  10.422   0.794   7.541 -1.3319  0.0289 -0.5676
  750MOL0     H 1183   9.894   0.639   7.529  2.1954 -1.6477 -1.1130
  750MOL0     H 1184   9.718   0.615   7.712  0.9534  0.9861 -2.0199
  750MOL0     H 1185   9.872   0.755   8.115  0.7059  3.0427 -0.5709
  750MOL0     H 1186   9.783   0.844   8.003 -0.2053 -0.3167 -0.8932
  750MOL0     H 1187   9.661   0.652   8.203 -1.9908 -0.8052 -0.3775
  750MOL0     H 1188   9.671   0.831   8.224 -1.3179 -0.3863 -0.7179
  750MOL0     H 1189   9.506   0.872   8.047 -2.8324  0.2733 -0.8580
  750MOL0     H 1190   9.535   0.712   7.984 -1.3910 -0.7999  1.7272
  750MOL0     H 1191   9.388   0.623   8.164 -2.2478  0.0559  0.4680
  750MOL0     H 1192   9.381   0.794   8.235 -0.5175  1.9295 -1.7486
  750MOL0     H 1193   9.255   0.850   8.033 -0.8558  0.2487  0.1635
  750MOL0     H 1194   9.286   0.679   7.984 -0.0559 -1.0788  1.5685
  750MOL0     H 1195   9.168   0.621   8.209  2.1139 -1.6352 -2.7130
  750MOL0     H 1196   9.115   0.793   8.220  1.3425 -2.2292  3.3976
  750MOL0     H 1197   9.006   0.769   7.992 -0.5592  3.2359  4.0430
  750MOL0     H 1198   9.052   0.588   8.001 -0.6758 -1.9701  1.9437
  750MOL0     H 1199   8.884   0.694   8.224 -0.9732 -0.5226  1.2742
  750MOL0     H 1200   8.912   0.531   8.158 -3.0154  0.3967  1.4432
  750MOL0     H 1201   8.697   0.840   8.115  1.0035 -0.6476  0.6203
  750MOL0     H 1202   8.495   0.884   7.922  0.2570  0.2729  0.0421
  750MOL0     H 1203   8.411   0.737   7.875  0.9222 -2.5288 -0.7338
  750MOL0     H 1204   8.312   0.872   8.089 -1.5799 -1.9023 -0.7828
  750MOL0     H 1205   8.460   0.823   8.175 -0.4933 -0.0066  0.7219
  750MOL0     H 1206   8.386   0.581   8.112  0.1857  0.1512 -2.5495
  750MOL0     H 1207   8.237   0.642   8.048  1.9375 -1.6675 -0.7234
  750MOL0     H 1208   8.323   0.745   8.329 -3.8500  1.0518  0.7597
  750MOL0     H 1209   8.245   0.597   8.312 -1.2997  0.2231 -0.9962
  750MOL0     H 1210   7.910   0.849   8.181  0.4560 -0.3965 -1.0175
  750MOL0     H 1211   7.613   0.876   8.364 -2.3230 -2.9284  0.8114
  750MOL0     H 1212   7.683   0.882   8.203 -1.1555  3.0653  1.9241
  750MOL0     H 1213   7.590   0.735   8.253  0.2460 -1.4003  1.7656
  750MOL0     H 1214   7.328   0.650   8.359  0.1697  2.1165  0.3553
  750MOL0     H 1215   7.101   0.633   8.456 -1.6788  0.7520  0.9522
  750MOL0     H 1216   7.035   0.525   8.892 -0.2833 -1.0327 -0.6516
  750MOL0     H 1217   7.040   0.686   8.802  0.3271 -0.6072  2.6930
  750MOL0     H 1218   6.812   0.488   8.780  0.1629 -0.0862 -1.4356
  750MOL0     H 1219   6.836   0.607   8.917  0.9139  1.2416 -1.4125
  750MOL0     H 1220   6.850   0.669   8.612  3.2419 -0.2209  1.3114
  750MOL0     H 1221   6.869   0.792   8.728 -0.1931 -0.2258 -0.5449
  750MOL0     H 1222   6.605   0.639   8.677  0.2296  0.0337  0.2074
  750MOL0     H 1223   6.635   0.714   8.821  0.0174  0.1013  0.7261
  750MOL0     H 1224   6.682   0.932   8.686  1.7069 -1.1189  0.6091
  750MOL0     H 1225   6.522   0.874   8.725  0.7401  0.5360 -0.2966
  750MOL0     H 1226   6.631   0.802   8.450 -0.4488 -1.8770  1.2244
  750MOL0     H 1227   6.469   0.804   8.509  1.3528 -1.5039 -0.0075
  750MOL0     H 1228   6.604   1.071   8.510  2.9353 -3.1576  0.6335
  750MOL0     H 1229   6.428   1.025   8.493 -0.3571 -2.0337  1.0594
  750MOL0     H 1230   6.496   1.130   8.289  1.7574  0.9450 -0.1858
  750MOL0     H 1231   6.492   0.952   8.252 -3.2515  3.0390 -1.7139
  750MOL0     H 1232   7.267   0.521   8.832  1.3237 -1.4458  0.0958
  750MOL0     H 1233   7.499   0.556   8.745  0.0781  0.8624  0.7809
  750MOL0     H 1234   7.925   0.567   8.586  0.2460 -0.8164 -1.0102
  750MOL0     H 1235   8.123   0.626   8.476  0.4616 -0.9662 -2.4609
  750MOL0     H 1236  10.031   0.658   7.998  1.6277 -0.0840 -0.8685
  750MOL0     H 1237  10.190   0.676   7.828 -1.0867  0.6526  0.4749
  750MOL0     H 1238  10.496   0.459   7.599  2.3012 -0.8824 -2.3589
  750MOL0     H 1239  10.729   0.562   7.605 -0.6436 -1.6772 -0.4414
  750MOL0     H 1240  10.786   0.925   7.388  0.7678  0.2994 -0.5360
  750MOL0     H 1241  10.791   0.996   7.548 -1.4756 -1.9164  0.6974
  750MOL0     H 1242  11.011   0.952   7.593  4.6463  0.5320 -1.1634
  750MOL0     H 1243  11.004   1.020   7.429  0.9764 -2.1241 -2.8517
  750MOL0     H 1244  11.050   0.726   7.520  2.1997 -1.1540 -0.4113
  750MOL0     H 1245  11.165   0.844   7.455 -0.9736  0.9355  0.5491
  750MOL0     H 1246  10.999   0.845   7.238  3.5162 -0.7227 -2.1511
  750MOL0     H 1247  10.948   0.694   7.319  0.6939 -1.8859 -1.4897
  750MOL0     H 1248  11.293   0.544   7.137  2.8702  1.7116  0.2604
  750MOL0     H 1249  10.570   0.945   7.501  1.0431 -0.1258 -0.8096
  750MOL0     H 1250  10.334   0.854   7.519 -1.5360 -0.6974 -1.8391
  751MOL0     O 1251   0.202   3.279   7.174 -0.2395 -1.0785  0.0080
  751MOL0     C 1252   0.310   3.331   7.182  0.4901 -0.6691 -0.5949
  751MOL0     O 1253   0.330   3.468   7.184  0.4932 -0.0959 -0.1310
  751MOL0     C 1254   0.214   3.547   7.196 -0.0751 -0.0873  0.3731
  751MOL0     C 1255   0.145   3.530   7.314  0.0547  0.5689  0.5812
  751MOL0     C 1256   0.016   3.584   7.324 -0.4619 -0.4625 -0.1364
  751MOL0     C 1257  -0.038   3.653   7.225 -0.1794 -0.3302 -0.2523
  751MOL0     O 1258  -0.167   3.698   7.250 -0.2360 -0.6287  0.0685
  751MOL0     C 1259  -0.208   3.817   7.179  0.1679 -0.1020 -0.7145
  751MOL0     C 1260  -0.324   3.863   7.274 -0.3970  0.1377  0.8074
  751MOL0     C 1261  -0.378   4.004   7.274 -0.0662 -0.1332  0.0708
  751MOL0     C 1262  -0.507   4.019   7.354 -0.5411 -1.0767 -0.5451
  751MOL0     C 1263  -0.555   4.157   7.348 -0.1628 -0.0064 -0.5311
  751MOL0     C 1264  -0.692   4.173   7.410 -0.4004  0.1049  0.6061
  751MOL0     C 1265  -0.751   4.309   7.369  0.0811  0.0043 -0.1209
  751MOL0     C 1266  -0.806   4.314   7.225  0.4324 -0.2627 -0.0603
  751MOL0     N 1267  -0.930   4.237   7.216  0.3872 -0.1997 -0.0579
  751MOL0     C 1268  -1.050   4.278   7.278 -1.2190 -0.3127  0.5583
  751MOL0     C 1269  -1.135   4.182   7.237 -0.0665 -1.0237  0.2269
  751MOL0     C 1270  -1.277   4.177   7.272  0.1869 -0.2482 -0.3532
  751MOL0     C 1271  -1.371   4.259   7.177  0.0031 -0.4082 -0.6190
  751MOL0     C 1272  -1.379   4.199   7.031 -0.1586 -0.4435  0.4273
  751MOL0     C 1273  -1.446   4.055   7.025 -0.3456 -0.6632 -0.1556
  751MOL0     O 1274  -1.459   4.026   6.889 -0.0478 -0.2465 -0.2049
  751MOL0     C 1275  -1.582   3.986   6.858 -0.0567 -1.1700  0.4838
  751MOL0     C 1276  -1.683   4.085   6.844 -0.2710 -0.6239  0.7702
  751MOL0     C 1277  -1.809   4.065   6.794 -0.3889  0.7755  0.5741
  751MOL0     C 1278  -1.910   4.173   6.799 -0.3313 -0.2334 -0.0560
  751MOL0     C 1279  -1.830   3.931   6.744 -0.1019 -0.5039 -0.3002
  751MOL0     C 1280  -1.956   3.894   6.667 -0.4515 -0.1655 -0.0910
  751MOL0     O 1281  -2.033   3.993   6.616 -0.7252  0.1889  0.4202
  751MOL0     C 1282  -2.160   3.980   6.568 -0.5559 -0.6550  0.6823
  751MOL0     C 1283  -2.252   3.888   6.624 -0.2669 -1.1611 -0.7800
  751MOL0     C 1284  -2.386   3.879   6.575  0.3620  0.5120 -0.1954
  751MOL0     C 1285  -2.425   3.961   6.470  0.2348 -0.3917  0.1593
  751MOL0     O 1286  -2.551   3.974   6.419  0.2044 -0.3496 -0.5541
  751MOL0     C 1287  -2.648   3.879   6.459 -0.5395 -0.5261 -0.4874
  751MOL0     C 1288  -2.733   3.859   6.346 -0.5074 -0.0897  0.4322
  751MOL0     C 1289  -2.672   3.770   6.236 -0.5965 -0.1217 -0.3551
  751MOL0     C 1290  -2.757   3.760   6.112 -0.2340 -0.5949  0.2589
  751MOL0     C 1291  -2.720   3.864   5.997 -0.3242 -1.0447 -0.0596
  751MOL0     C 1292  -2.839   3.880   5.903 -0.1122 -0.8571  0.1616
  751MOL0     C 1293  -2.810   3.960   5.774  0.8785 -0.1795 -0.7157
  751MOL0     C 1294  -2.937   3.976   5.684 -1.0884  0.0011  0.0564
  751MOL0    Cl 1295  -2.881   4.037   5.517  0.6533 -0.1381 -0.3154
  751MOL0     C 1296  -2.335   4.050   6.414 -0.5918 -0.7043 -0.1772
  751MOL0     C 1297  -2.202   4.067   6.467 -0.2111  0.6835 -0.0934
  751MOL0     O 1298  -1.981   3.774   6.659  0.5964  0.2123 -0.3292
  751MOL0     C 1299  -1.732   3.828   6.763 -0.1764  0.0229 -0.3301
  751MOL0     C 1300  -1.607   3.857   6.815 -0.4620 -0.3148  0.4017
  751MOL0     N 1301  -1.066   4.095   7.150  0.5651 -0.1573 -0.2520
  751MOL0     N 1302  -0.939   4.119   7.146  0.1495  0.2884 -0.0029
  751MOL0     C 1303   0.037   3.682   7.112 -0.4690 -0.3415  0.1790
  751MOL0     C 1304   0.162   3.632   7.095 -0.3681  0.2998 -0.3381
  751MOL0     C 1305   0.431   3.246   7.187  0.7259  0.9127 -0.4976
  751MOL0     C 1306   0.550   3.299   7.151 -0.7274  0.1230  0.5556
  751MOL0     C 1307   0.659   3.211   7.147  0.6074 -0.9378 -0.0338
  751MOL0     C 1308   0.650   3.072   7.179  0.1824  0.3119 -0.5994
  751MOL0     O 1309   0.740   2.972   7.187 -0.0937  0.7321 -0.2542
  751MOL0     C 1310   0.870   3.017   7.154 -0.5523  0.5639 -0.1270
  751MOL0     C 1311   0.896   3.023   7.002  0.2852 -0.6721  0.6599
  751MOL0     C 1312   1.022   3.082   6.949  0.3527  0.0735  0.5201
  751MOL0     C 1313   1.136   2.991   6.988 -0.2390 -0.1928 -0.1000
  751MOL0     C 1314   1.261   3.057   6.961  0.1648  0.6840  0.1027
  751MOL0     C 1315   1.360   3.126   6.954  0.4524  0.1375 -0.3972
  751MOL0     C 1316   0.523   3.027   7.206 -0.1957 -0.4193 -0.5746
  751MOL0     C 1317   0.415   3.109   7.217  0.4264  0.3026  1.1863
  751MOL0     H 1318   0.172   3.471   7.402 -3.1351  0.2957  1.5182
  751MOL0     H 1319  -0.036   3.574   7.419  0.4564 -2.1471  0.2399
  751MOL0     H 1320  -0.137   3.900   7.173 -3.0119  3.0255  1.1277
  751MOL0     H 1321  -0.245   3.790   7.080 -2.2983  0.2244  0.0468
  751MOL0     H 1322  -0.410   3.799   7.250  0.5401 -0.9242  0.1684
  751MOL0     H 1323  -0.301   3.841   7.379  0.3942  0.0624  0.6203
  751MOL0     H 1324  -0.302   4.076   7.304  2.9234 -1.4789 -3.5011
  751MOL0     H 1325  -0.401   4.037   7.172 -1.0925  1.1477  0.7027
  751MOL0     H 1326  -0.585   3.954   7.311 -3.1328  0.0365  2.1266
  751MOL0     H 1327  -0.491   3.983   7.456 -2.2606 -1.1340 -0.2636
  751MOL0     H 1328  -0.484   4.223   7.398  0.5000 -0.3216 -1.0446
  751MOL0     H 1329  -0.563   4.185   7.242 -0.6406  2.4850  0.0921
  751MOL0     H 1330  -0.750   4.086   7.379  0.8502 -0.4673 -0.1706
  751MOL0     H 1331  -0.683   4.171   7.519 -2.0958  1.2220  0.8053
  751MOL0     H 1332  -0.831   4.329   7.440  1.1429 -2.8518  2.0863
  751MOL0     H 1333  -0.669   4.381   7.366  1.2550 -1.3104 -2.1941
  751MOL0     H 1334  -0.731   4.271   7.158  1.4760  0.5865  0.5310
  751MOL0     H 1335  -0.828   4.415   7.188  0.0128  0.0789  1.1024
  751MOL0     H 1336  -1.070   4.359   7.348 -2.4773 -1.0865  1.1348
  751MOL0     H 1337  -1.317   4.075   7.280  0.2687 -0.1585  2.3579
  751MOL0     H 1338  -1.287   4.223   7.371 -0.3768  1.3400 -1.1125
  751MOL0     H 1339  -1.339   4.362   7.166  0.0366 -0.5151 -1.7132
  751MOL0     H 1340  -1.469   4.245   7.223  0.7236 -1.8223  0.5870
  751MOL0     H 1341  -1.279   4.197   6.986  0.6815 -3.3744  2.1606
  751MOL0     H 1342  -1.439   4.275   6.980  1.4394  0.1491 -0.6254
  751MOL0     H 1343  -1.531   4.061   7.094  2.5521  0.9621  3.6230
  751MOL0     H 1344  -1.375   3.989   7.076  0.8753 -0.1095 -1.0941
  751MOL0     H 1345  -1.656   4.183   6.883 -0.4683 -0.2398 -0.0275
  751MOL0     H 1346  -1.878   4.258   6.860  0.0578  0.1802 -0.8246
  751MOL0     H 1347  -1.923   4.210   6.697 -0.5291  0.9827  0.3910
  751MOL0     H 1348  -2.004   4.133   6.838 -1.0844 -1.0392 -2.5127
  751MOL0     H 1349  -2.220   3.816   6.699  2.2321 -2.8646 -3.2472
  751MOL0     H 1350  -2.463   3.818   6.620 -1.3241  2.5160 -0.2455
  751MOL0     H 1351  -2.617   3.778   6.488  0.0339 -0.5602 -1.1744
  751MOL0     H 1352  -2.696   3.915   6.550 -3.9624 -0.9777 -1.9884
  751MOL0     H 1353  -2.828   3.812   6.373 -2.1884  2.7755 -0.0569
  751MOL0     H 1354  -2.766   3.950   6.296 -0.9626 -2.0956 -3.2858
  751MOL0     H 1355  -2.668   3.672   6.285  0.4197  1.7557  3.7466
  751MOL0     H 1356  -2.570   3.789   6.201 -0.7461 -2.7219 -2.5694
  751MOL0     H 1357  -2.741   3.660   6.071 -0.4127 -0.3183 -0.5213
  751MOL0     H 1358  -2.864   3.766   6.137 -1.0766  0.8700 -3.0390
  751MOL0     H 1359  -2.637   3.825   5.938 -2.2596 -2.2993 -2.1263
  751MOL0     H 1360  -2.698   3.966   6.032  2.5878 -1.9168  0.9251
  751MOL0     H 1361  -2.872   3.778   5.881 -0.1522 -0.8969  0.3947
  751MOL0     H 1362  -2.913   3.936   5.962  0.3354 -1.1469  1.0139
  751MOL0     H 1363  -2.742   3.901   5.712  1.6817  1.5526 -1.5473
  751MOL0     H 1364  -2.767   4.058   5.799 -0.7231 -0.1582  2.6303
  751MOL0     H 1365  -3.011   4.049   5.718  0.2551  0.2981  2.5424
  751MOL0     H 1366  -2.982   3.876   5.678 -1.8066  0.3383 -0.3152
  751MOL0     H 1367  -2.363   4.114   6.331 -0.1014  2.7482  2.1150
  751MOL0     H 1368  -2.141   4.136   6.411 -0.2614  1.2469  0.5361
  751MOL0     H 1369  -1.741   3.729   6.719  1.4849 -0.3655  0.1481
  751MOL0     H 1370  -1.519   3.794   6.819  0.2280  0.6686  1.4957
  751MOL0     H 1371   0.002   3.736   7.024  0.1110  1.1118  0.8035
  751MOL0     H 1372   0.217   3.648   7.003 -1.5762  0.5130 -1.0505
  751MOL0     H 1373   0.573   3.404   7.135  2.5173 -0.4534  0.7935
  751MOL0     H 1374   0.756   3.250   7.118  0.8229 -1.1499  0.3803
  751MOL0     H 1375   0.893   3.119   7.189  0.1486 -0.5386  2.9146
  751MOL0     H 1376   0.943   2.953   7.204  1.0769  2.5860  0.2676
  751MOL0     H 1377   0.809   3.075   6.963 -1.9715 -5.6078 -1.7609
  751MOL0     H 1378   0.912   2.920   6.968  0.3419 -1.0896  1.8851
  751MOL0     H 1379   1.032   3.184   6.989 -0.7418  2.1984 -4.0325
  751MOL0     H 1380   1.015   3.098   6.841 -0.4906  2.3592  0.8508
  751MOL0     H 1381   1.141   2.899   6.929 -1.9996 -0.4470  0.1156
  751MOL0     H 1382   1.142   2.970   7.095 -0.3065  0.5920  0.0637
  751MOL0     H 1383   1.438   3.199   6.941 -1.8510  2.7610 -0.4035
  751MOL0     H 1384   0.502   2.923   7.228  0.0529 -0.5046 -0.7357
  751MOL0     H 1385   0.317   3.068   7.237 -0.8472  1.6384 -1.7508
  752MOL0     O 1386   1.661  11.102   1.768 -0.4461  0.3878  0.0748
  752MOL0     C 1387   1.778  11.105   1.735  0.2275  0.1348 -0.2253
  752MOL0     O 1388   1.881  11.094   1.823 -0.3031  0.0947  0.2959
  752MOL0     C 1389   1.851  11.064   1.958 -0.9443  0.5190  0.7759
  752MOL0     C 1390   1.761  10.960   1.990 -0.6832 -0.7117 -0.2782
  752MOL0     C 1391   1.734  10.935   2.127  0.9867  0.5343  0.3909
  752MOL0     C 1392   1.789  11.006   2.234  0.1728  0.1853  0.1080
  752MOL0     O 1393   1.768  10.957   2.364  0.3672  0.3650  0.3442
  752MOL0     C 1394   1.792  11.046   2.476  0.7385  0.1316 -0.2044
  752MOL0     C 1395   1.914  10.982   2.548 -0.8355 -0.2916  0.8176
  752MOL0     C 1396   1.945  11.049   2.676  0.4618 -0.2054 -0.3919
  752MOL0     C 1397   1.847  10.999   2.790  0.5947  0.0260 -0.5483
  752MOL0     C 1398   1.808  11.106   2.885 -0.8570 -0.2895  0.4395
  752MOL0     C 1399   1.717  11.067   3.003 -0.6779 -0.4220  0.5681
  752MOL0     C 1400   1.570  11.078   2.968  0.4151 -0.1237  0.0011
  752MOL0     C 1401   1.479  11.046   3.083  0.0829 -0.1792  0.3218
  752MOL0     N 1402   1.333  11.075   3.059  0.2176  1.1001  0.3331
  752MOL0     C 1403   1.234  10.981   3.024 -0.4150 -0.1747  0.3022
  752MOL0     C 1404   1.116  11.047   3.045  0.4009 -0.2182  0.9778
  752MOL0     C 1405   0.981  10.987   3.011 -0.1468 -0.2099 -0.2143
  752MOL0     C 1406   0.902  10.907   3.113  0.7630  0.2922  1.0648
  752MOL0     C 1407   0.928  10.951   3.257  0.3417  0.5761 -0.1761
  752MOL0     C 1408   0.847  11.075   3.302  0.2885 -0.7014 -0.5016
  752MOL0     O 1409   0.712  11.032   3.317 -0.3876  0.2532 -0.1703
  752MOL0     C 1410   0.635  11.121   3.390  0.4488 -0.7859 -0.0386
  752MOL0     C 1411   0.645  11.258   3.414 -0.0804  0.3600  0.3531
  752MOL0     C 1412   0.560  11.327   3.510 -0.2506 -0.5153 -0.3229
  752MOL0     C 1413   0.582  11.486   3.518  0.7806  0.0144  0.3106
  752MOL0     C 1414   0.455  11.252   3.564 -0.2054  0.1553 -0.8798
  752MOL0     C 1415   0.356  11.305   3.663  0.4531  0.3443 -0.9237
  752MOL0     O 1416   0.384  11.419   3.734  0.5005 -0.3595  0.2568
  752MOL0     C 1417   0.312  11.473   3.836 -0.6258  0.0347  1.0343
  752MOL0     C 1418   0.176  11.435   3.869 -0.4537 -0.2435 -0.7239
  752MOL0     C 1419   0.100  11.510   3.970 -0.4147 -0.8621 -0.2168
  752MOL0     C 1420   0.169  11.615   4.034  0.8634 -0.3957  0.4942
  752MOL0     O 1421   0.108  11.697   4.127 -0.2650  0.9218  0.1397
  752MOL0     C 1422  -0.037  11.710   4.143  0.2057  0.3980 -0.9167
  752MOL0     C 1423  -0.069  11.787   4.275 -0.3057  0.1888  0.0664
  752MOL0     C 1424  -0.076  11.934   4.251  0.3198  0.6699 -0.8107
  752MOL0     C 1425  -0.222  11.968   4.208 -1.1736 -0.3145  0.7789
  752MOL0     C 1426  -0.225  12.120   4.187  0.4465  0.3338 -0.0517
  752MOL0     C 1427  -0.363  12.172   4.136  0.6332 -0.5615 -0.3805
  752MOL0     C 1428  -0.343  12.326   4.122  1.1797 -0.3865  0.0298
  752MOL0     C 1429  -0.473  12.397   4.084 -1.1086  0.5096 -0.0643
  752MOL0    Cl 1430  -0.432  12.563   4.034 -0.3396  0.2542 -0.3219
  752MOL0     C 1431   0.302  11.646   4.005  0.1770 -0.7911 -0.3536
  752MOL0     C 1432   0.380  11.577   3.908  0.8825  0.2907  0.0613
  752MOL0     O 1433   0.262  11.231   3.683 -0.2205  1.1158 -0.0427
  752MOL0     C 1434   0.436  11.117   3.533  0.6361  0.1488  0.0550
  752MOL0     C 1435   0.524  11.060   3.445  0.1680 -0.6347 -0.2455
  752MOL0     N 1436   1.140  11.177   3.074  0.3166  0.2795  0.4107
  752MOL0     N 1437   1.264  11.183   3.091  0.3459 -0.1529 -0.5087
  752MOL0     C 1438   1.873  11.113   2.199  1.0182 -0.6381 -0.5604
  752MOL0     C 1439   1.905  11.140   2.065  1.0831 -0.0819  0.4551
  752MOL0     C 1440   1.801  11.125   1.594 -0.2576  1.1707 -0.1352
  752MOL0     C 1441   1.700  11.113   1.496  0.3449  0.3433 -0.1449
  752MOL0     C 1442   1.712  11.139   1.359 -0.0046  0.1592 -0.4194
  752MOL0     C 1443   1.835  11.194   1.317  0.2401 -1.0338  0.1616
  752MOL0     O 1444   1.863  11.217   1.184 -0.1691 -0.2819 -0.1474
  752MOL0     C 1445   1.763  11.299   1.114 -0.3516 -0.3204 -1.0684
  752MOL0     C 1446   1.799  11.313   0.973 -0.1197 -0.2771  0.5935
  752MOL0     C 1447   1.690  11.379   0.883  0.1119 -0.4605  0.8195
  752MOL0     C 1448   1.579  11.275   0.863 -0.3950  0.2370 -0.3473
  752MOL0     C 1449   1.488  11.325   0.762 -0.2753 -0.5316 -0.0606
  752MOL0     C 1450   1.413  11.358   0.665 -0.2267  0.6036 -0.1234
  752MOL0     C 1451   1.931  11.218   1.414  0.2652  1.2425 -0.4330
  752MOL0     C 1452   1.919  11.183   1.551 -0.3900 -0.2493 -0.4948
  752MOL0     H 1453   1.715  10.902   1.911 -1.6495 -0.3579  0.0108
  752MOL0     H 1454   1.678  10.844   2.146  2.3376 -0.5893 -0.8182
  752MOL0     H 1455   1.816  11.149   2.446 -0.9823 -0.0458 -2.5241
  752MOL0     H 1456   1.698  11.051   2.530  0.4763  0.1289 -0.6516
  752MOL0     H 1457   1.901  10.875   2.567 -1.4150 -0.1389  1.3157
  752MOL0     H 1458   1.994  10.995   2.475 -2.3547  5.1852 -0.3752
  752MOL0     H 1459   2.048  11.027   2.706  1.1665  2.6236 -0.3908
  752MOL0     H 1460   1.937  11.159   2.672 -1.8101 -0.2922  0.3726
  752MOL0     H 1461   1.755  10.954   2.751 -0.4705 -0.1822  2.0093
  752MOL0     H 1462   1.884  10.915   2.849 -1.5738 -0.1140  0.7262
  752MOL0     H 1463   1.906  11.138   2.919 -0.2926 -1.8420  0.3493
  752MOL0     H 1464   1.765  11.193   2.835  1.3458  0.8969  0.4870
  752MOL0     H 1465   1.753  10.973   3.046  0.6190  1.9666  5.4021
  752MOL0     H 1466   1.733  11.140   3.083  1.1889  1.0335 -1.0460
  752MOL0     H 1467   1.555  11.184   2.947  0.2428  0.0136  0.8022
  752MOL0     H 1468   1.550  11.010   2.884 -1.6492  0.2517  0.1269
  752MOL0     H 1469   1.505  11.099   3.175 -0.9178  0.4288  0.2674
  752MOL0     H 1470   1.489  10.939   3.106  1.8581 -0.3330 -0.9506
  752MOL0     H 1471   1.249  10.874   3.012  2.1563  0.1383  0.1804
  752MOL0     H 1472   0.922  11.066   2.964 -0.3800 -1.7199 -2.6333
  752MOL0     H 1473   1.001  10.918   2.929  0.3621  1.7007 -1.7465
  752MOL0     H 1474   0.924  10.800   3.110 -0.1324  0.0406 -3.9256
  752MOL0     H 1475   0.799  10.931   3.087  0.8238 -0.2662  0.2611
  752MOL0     H 1476   1.033  10.977   3.277  0.6732 -0.6052 -0.3203
  752MOL0     H 1477   0.904  10.867   3.323 -1.7573 -0.4596 -2.1364
  752MOL0     H 1478   0.852  11.155   3.227  1.6276 -1.0849 -0.8353
  752MOL0     H 1479   0.891  11.108   3.396 -0.2046 -1.8046  0.1386
  752MOL0     H 1480   0.720  11.319   3.364 -1.4071  1.6468 -0.1351
  752MOL0     H 1481   0.661  11.509   3.590  1.2515 -0.9459  0.1124
  752MOL0     H 1482   0.616  11.525   3.422 -0.0980 -1.0539 -0.4568
  752MOL0     H 1483   0.492  11.540   3.549 -0.6893 -1.3969 -1.2484
  752MOL0     H 1484   0.112  11.360   3.822  0.4082 -1.3941 -0.1063
  752MOL0     H 1485  -0.002  11.507   4.006 -0.6935  2.6594 -0.4121
  752MOL0     H 1486  -0.094  11.751   4.060  0.0194  1.4501 -0.2946
  752MOL0     H 1487  -0.075  11.609   4.158  3.2861 -1.0737 -2.3127
  752MOL0     H 1488  -0.160  11.744   4.317  0.4938 -1.5876  0.0907
  752MOL0     H 1489   0.005  11.769   4.354 -2.3545 -0.0912  2.0402
  752MOL0     H 1490  -0.007  11.980   4.181  3.6263  1.6329  2.7643
  752MOL0     H 1491  -0.062  11.983   4.348  1.6775  2.0923 -1.7036
  752MOL0     H 1492  -0.246  11.934   4.107  3.0274  3.7661 -2.0087
  752MOL0     H 1493  -0.302  11.957   4.283 -0.5375  2.0397  1.8945
  752MOL0     H 1494  -0.159  12.149   4.105 -1.0643  1.2931 -0.9819
  752MOL0     H 1495  -0.200  12.161   4.285  0.0142 -0.5548  0.4406
  752MOL0     H 1496  -0.380  12.134   4.035  1.6507 -3.0154  0.2973
  752MOL0     H 1497  -0.455  12.138   4.184  0.9916 -1.9776 -0.6433
  752MOL0     H 1498  -0.272  12.350   4.042 -2.2607  1.0595 -2.8771
  752MOL0     H 1499  -0.298  12.364   4.215 -0.0247 -1.7586  1.2086
  752MOL0     H 1500  -0.560  12.395   4.151 -1.2797 -1.0581 -0.2820
  752MOL0     H 1501  -0.513  12.351   3.993  0.6841  0.2329 -0.7559
  752MOL0     H 1502   0.349  11.727   4.059 -1.5871  1.0917 -1.4730
  752MOL0     H 1503   0.486  11.602   3.907  2.1146 -3.8210  2.4882
  752MOL0     H 1504   0.364  11.050   3.579 -0.4029  2.4959  2.0303
  752MOL0     H 1505   0.507  10.955   3.425 -0.2466 -0.2949 -1.8163
  752MOL0     H 1506   1.923  11.179   2.269  0.5458 -2.3549  1.4916
  752MOL0     H 1507   1.990  11.204   2.044 -0.8635  3.4370  2.3658
  752MOL0     H 1508   1.607  11.072   1.535  2.5646 -0.8360  4.6656
  752MOL0     H 1509   1.634  11.110   1.290 -1.3495 -0.1178  1.1535
  752MOL0     H 1510   1.662  11.258   1.120 -0.8739  0.9073 -1.2370
  752MOL0     H 1511   1.766  11.398   1.161  0.4883  0.4531 -2.6430
  752MOL0     H 1512   1.821  11.212   0.937 -0.0970 -0.6312  1.5967
  752MOL0     H 1513   1.890  11.372   0.961 -0.6680  0.1834 -2.0392
  752MOL0     H 1514   1.728  11.403   0.783 -3.1224  1.1619 -0.1470
  752MOL0     H 1515   1.669  11.478   0.924  2.5803 -0.6397  2.7806
  752MOL0     H 1516   1.524  11.256   0.956  0.6754 -2.0851 -0.1227
  752MOL0     H 1517   1.609  11.177   0.826 -0.0699  1.1954 -2.8222
  752MOL0     H 1518   1.350  11.378   0.580  1.3668  0.3312 -1.4240
  752MOL0     H 1519   2.020  11.274   1.386  1.2755 -0.8764 -1.7507
  752MOL0     H 1520   1.995  11.214   1.622  3.0526 -3.1061 -2.5850
  753MOL0     O 1521   5.449   8.986   3.077 -0.1111 -0.1117 -0.1612
  753MOL0     C 1522   5.484   8.977   2.961 -0.1369  0.5056 -0.5072
  753MOL0     O 1523   5.396   8.983   2.846 -0.0564 -0.4853 -0.4780
  753MOL0     C 1524   5.260   8.994   2.866  0.2941 -0.2663 -1.1621
  753MOL0     C 1525   5.195   9.105   2.799 -0.5287 -0.7917  0.4938
  753MOL0     C 1526   5.059   9.121   2.827  0.7951  0.4928 -0.1153
  753MOL0     C 1527   4.986   9.033   2.907  0.3899  1.0959 -0.9740
  753MOL0     O 1528   4.856   9.056   2.947  0.3365 -0.1344  0.1769
  753MOL0     C 1529   4.810   9.189   2.967  0.1470 -0.2940  0.0905
  753MOL0     C 1530   4.891   9.262   3.068  0.1043  0.1958  0.0056
  753MOL0     C 1531   4.849   9.411   3.058 -0.0770  0.3287 -0.0906
  753MOL0     C 1532   4.926   9.496   3.157  0.0124 -0.0221  0.1681
  753MOL0     C 1533   5.073   9.515   3.140 -0.0754 -0.6068  0.2246
  753MOL0     C 1534   5.127   9.594   3.259 -0.0431  0.8338  0.2208
  753MOL0     C 1535   5.280   9.562   3.265  0.7250 -0.8568  0.0316
  753MOL0     C 1536   5.327   9.677   3.357  1.1258 -0.3249  0.2786
  753MOL0     N 1537   5.274   9.694   3.489 -0.9475  0.3285 -0.0888
  753MOL0     C 1538   5.296   9.616   3.608 -0.7358 -0.0645  0.6179
  753MOL0     C 1539   5.241   9.687   3.714 -0.0400  0.2862  0.1187
  753MOL0     C 1540   5.234   9.642   3.862 -0.7729 -0.5185  0.3524
  753MOL0     C 1541   5.083   9.605   3.896 -0.2129 -0.4297 -0.5364
  753MOL0     C 1542   5.060   9.615   4.047 -0.0431 -0.2831  0.6853
  753MOL0     C 1543   4.914   9.610   4.086  0.6850 -0.1856  0.6470
  753MOL0     O 1544   4.899   9.609   4.223  0.2795  0.5717 -0.4971
  753MOL0     C 1545   4.780   9.563   4.273  0.5056 -0.4742 -1.0609
  753MOL0     C 1546   4.764   9.566   4.409  0.1924 -1.0194  0.1406
  753MOL0     C 1547   4.646   9.524   4.471 -0.3043  0.6772 -0.5213
  753MOL0     C 1548   4.643   9.517   4.620  0.7866  0.3815 -0.0543
  753MOL0     C 1549   4.537   9.483   4.392  0.0680 -0.0561 -0.3322
  753MOL0     C 1550   4.405   9.422   4.443  0.7515 -0.5019  0.0103
  753MOL0     O 1551   4.302   9.415   4.356  0.1067  0.4491  0.3327
  753MOL0     C 1552   4.195   9.348   4.401 -0.2827 -0.1643  0.3399
  753MOL0     C 1553   4.096   9.429   4.477 -0.7752  0.9018  0.9019
  753MOL0     C 1554   3.972   9.373   4.515  0.0908 -0.1844  0.2293
  753MOL0     C 1555   3.939   9.235   4.487 -0.5759 -0.9898  0.5869
  753MOL0     O 1556   3.826   9.185   4.532 -0.0034  0.7045  0.5599
  753MOL0     C 1557   3.727   9.137   4.437 -0.1454  0.6935  0.0701
  753MOL0     C 1558   3.596   9.104   4.490  0.3942  0.6328 -0.3090
  753MOL0     C 1559   3.513   9.227   4.531  0.5811  0.8532 -0.7514
  753MOL0     C 1560   3.376   9.235   4.461  0.2713 -0.4396  0.1250
  753MOL0     C 1561   3.276   9.322   4.541 -0.3596  0.3806  0.0084
  753MOL0     C 1562   3.134   9.354   4.482 -0.9517  0.1279 -0.4680
  753MOL0     C 1563   3.042   9.429   4.583 -0.0042  0.0906 -0.5437
  753MOL0     C 1564   2.978   9.338   4.686  0.7412  0.1139 -1.0891
  753MOL0    Cl 1565   2.936   9.416   4.841  0.3212  0.1593 -0.1222
  753MOL0     C 1566   4.040   9.162   4.412  0.1127 -0.0012  0.6784
  753MOL0     C 1567   4.162   9.215   4.370  0.0295 -0.0314 -0.1764
  753MOL0     O 1568   4.397   9.384   4.561 -0.1713 -0.6160 -0.0761
  753MOL0     C 1569   4.548   9.491   4.255 -0.5102 -0.3519  0.0407
  753MOL0     C 1570   4.666   9.533   4.197 -0.0205  0.0394  0.8838
  753MOL0     N 1571   5.181   9.795   3.659  0.6004  0.5659  0.2803
  753MOL0     N 1572   5.201   9.797   3.534  0.6543 -0.2329  0.1316
  753MOL0     C 1573   5.045   8.927   2.960 -0.0285  0.8028  0.3678
  753MOL0     C 1574   5.178   8.905   2.943 -0.3179  0.2649 -0.4838
  753MOL0     C 1575   5.627   8.946   2.941  0.4262  0.6356 -0.5037
  753MOL0     C 1576   5.677   8.940   2.804  0.3641  0.0936 -0.1560
  753MOL0     C 1577   5.817   8.910   2.777  0.6219  0.3348  0.1918
  753MOL0     C 1578   5.908   8.876   2.879 -0.1912 -0.2851 -0.3666
  753MOL0     O 1579   6.041   8.841   2.868 -0.4771 -0.3527  0.0846
  753MOL0     C 1580   6.105   8.910   2.758  0.1669  0.3054 -0.2500
  753MOL0     C 1581   6.241   8.852   2.753  0.3689  0.6100 -0.2788
  753MOL0     C 1582   6.311   8.886   2.884 -0.2485  0.0836  0.8531
  753MOL0     C 1583   6.457   8.879   2.886  0.0424  0.0199  0.4702
  753MOL0     C 1584   6.526   8.973   2.794  0.7352  0.7981  0.0453
  753MOL0     C 1585   6.590   9.032   2.713  0.3175  0.2601  0.6803
  753MOL0     C 1586   5.855   8.881   3.013  0.4886 -0.4691 -0.2345
  753MOL0     C 1587   5.719   8.916   3.044  0.2253 -0.1605  0.2439
  753MOL0     H 1588   5.251   9.176   2.739 -1.0027 -1.9570 -1.4048
  753MOL0     H 1589   5.007   9.213   2.802  3.1718  1.7379 -0.8052
  753MOL0     H 1590   4.807   9.240   2.871 -2.5488 -1.7475 -0.7035
  753MOL0     H 1591   4.707   9.180   3.004 -0.8663 -0.9606 -2.6313
  753MOL0     H 1592   4.864   9.224   3.167 -0.7845 -3.3086 -1.4119
  753MOL0     H 1593   4.999   9.249   3.056  0.0261 -0.8912  0.3825
  753MOL0     H 1594   4.862   9.451   2.957 -1.5342 -3.5815 -2.0514
  753MOL0     H 1595   4.742   9.408   3.083  0.0197  1.6224  0.5629
  753MOL0     H 1596   4.891   9.597   3.178  0.7945 -0.0637  1.8884
  753MOL0     H 1597   4.913   9.452   3.257 -2.4720 -0.0669 -0.1197
  753MOL0     H 1598   5.123   9.419   3.124  1.7466  0.5902 -1.7601
  753MOL0     H 1599   5.094   9.569   3.047 -1.4128 -0.8372 -0.2346
  753MOL0     H 1600   5.107   9.698   3.235 -0.9749  0.5796 -0.1426
  753MOL0     H 1601   5.066   9.569   3.346 -0.7953  1.7446 -0.0324
  753MOL0     H 1602   5.295   9.462   3.305  1.5603 -1.1080 -0.8623
  753MOL0     H 1603   5.325   9.572   3.166  0.1968  1.0017 -0.0640
  753MOL0     H 1604   5.321   9.771   3.301 -2.6678 -1.2299 -1.1671
  753MOL0     H 1605   5.432   9.650   3.367  0.9664  0.0493  5.9961
  753MOL0     H 1606   5.351   9.523   3.612 -0.9653 -0.4026 -2.0397
  753MOL0     H 1607   5.312   9.571   3.890  0.1336 -0.2014 -1.2320
  753MOL0     H 1608   5.267   9.727   3.922 -0.0140 -1.8775  1.9300
  753MOL0     H 1609   5.067   9.498   3.880  0.2284 -1.0610  2.4515
  753MOL0     H 1610   5.016   9.672   3.842 -0.9254 -0.3440  0.4309
  753MOL0     H 1611   5.094   9.716   4.075  0.3024 -0.5994  1.4289
  753MOL0     H 1612   5.113   9.534   4.097 -3.2779 -2.4469  0.9048
  753MOL0     H 1613   4.887   9.514   4.042 -0.4281  0.9672 -1.2832
  753MOL0     H 1614   4.851   9.689   4.046  0.4177 -1.0160 -0.6075
  753MOL0     H 1615   4.843   9.605   4.473 -1.9640  4.0018  0.1541
  753MOL0     H 1616   4.729   9.557   4.675  0.0431  0.5628  1.0065
  753MOL0     H 1617   4.550   9.567   4.648  0.8648  0.3105  0.3416
  753MOL0     H 1618   4.638   9.412   4.651  1.3950  0.6000  0.8495
  753MOL0     H 1619   4.120   9.534   4.486  0.1030  1.2362 -3.2969
  753MOL0     H 1620   3.905   9.427   4.581 -0.7890 -0.9955  0.0225
  753MOL0     H 1621   3.706   9.213   4.362 -2.0878 -0.2175 -0.3806
  753MOL0     H 1622   3.764   9.056   4.374 -2.0855 -0.0198 -0.2217
  753MOL0     H 1623   3.534   9.041   4.426 -0.2145 -2.3196  2.8854
  753MOL0     H 1624   3.610   9.047   4.583  0.6637  2.4081  0.7943
  753MOL0     H 1625   3.573   9.317   4.520  3.3672 -0.7281  0.3455
  753MOL0     H 1626   3.482   9.210   4.635  2.2477  1.9705 -0.0343
  753MOL0     H 1627   3.392   9.283   4.364 -5.0000 -1.5376 -1.5999
  753MOL0     H 1628   3.330   9.137   4.451  2.5128 -1.6138  0.6735
  753MOL0     H 1629   3.319   9.422   4.550 -2.6622  1.3400  1.2174
  753MOL0     H 1630   3.265   9.275   4.640 -1.1125  1.5742  0.5073
  753MOL0     H 1631   3.147   9.415   4.392 -0.0332  0.3172 -0.2236
  753MOL0     H 1632   3.086   9.261   4.451 -0.4051 -0.0020 -0.9431
  753MOL0     H 1633   2.960   9.477   4.529  0.9633 -0.6772 -2.8075
  753MOL0     H 1634   3.101   9.505   4.634  1.7073  0.1715 -2.5199
  753MOL0     H 1635   3.053   9.265   4.716 -1.6035 -1.1538  2.1612
  753MOL0     H 1636   2.890   9.286   4.646  2.1265 -3.3402  0.0111
  753MOL0     H 1637   4.033   9.055   4.395  1.8964 -0.3016  1.6545
  753MOL0     H 1638   4.239   9.166   4.311 -0.1276  0.3418 -0.6985
  753MOL0     H 1639   4.461   9.468   4.196 -1.2655 -1.1421  1.3926
  753MOL0     H 1640   4.673   9.530   4.089  0.4856  1.2307  0.8735
  753MOL0     H 1641   4.988   8.853   3.016 -0.0690 -0.7643 -1.6290
  753MOL0     H 1642   5.249   8.839   2.991  1.7493  0.4883 -2.9708
  753MOL0     H 1643   5.602   8.960   2.728 -1.4728 -0.7266  1.3410
  753MOL0     H 1644   5.848   8.916   2.673 -0.1235  0.9338  0.0010
  753MOL0     H 1645   6.063   8.878   2.662  1.7391 -3.1086  0.0596
  753MOL0     H 1646   6.105   9.020   2.760 -0.4965  0.3177 -0.4996
  753MOL0     H 1647   6.289   8.889   2.661 -0.7974 -0.3453 -1.3092
  753MOL0     H 1648   6.228   8.744   2.750  4.3188 -0.0300  0.5774
  753MOL0     H 1649   6.268   8.821   2.960 -2.1861 -0.7358 -0.8559
  753MOL0     H 1650   6.290   8.991   2.906  0.1592  0.4798 -0.5196
  753MOL0     H 1651   6.471   8.772   2.869 -1.5898 -0.2934  0.9294
  753MOL0     H 1652   6.494   8.896   2.987 -0.2224 -0.7277  0.6990
  753MOL0     H 1653   6.653   9.054   2.629 -3.1388  0.3364 -2.1451
  753MOL0     H 1654   5.927   8.851   3.089  0.0311 -1.5347 -0.2012
  753MOL0     H 1655   5.693   8.910   3.149  3.0268 -0.2409  1.0308
  754MOL0     O 1656  10.764   6.422   0.133 -0.0742 -0.5232 -0.1938
  754MOL0     C 1657  10.790   6.506   0.215  0.2749 -0.7503  0.5388
  754MOL0     O 1658  10.694   6.574   0.273 -0.2161 -0.6447 -0.5824
  754MOL0     C 1659  10.559   6.565   0.245  0.6405  0.9239 -0.3634
  754MOL0     C 1660  10.479   6.677   0.259  0.0251 -0.0874 -0.0541
  754MOL0     C 1661  10.347   6.686   0.224  0.0536 -0.0364 -0.4998
  754MOL0     C 1662  10.281   6.568   0.190 -0.8401 -0.2754  0.2398
  754MOL0     O 1663  10.147   6.571   0.163  0.1770  0.0036 -0.2113
  754MOL0     C 1664  10.066   6.461   0.204  0.0381 -0.4552  0.1668
  754MOL0     C 1665   9.924   6.492   0.150 -0.0984 -0.4595 -0.7531
  754MOL0     C 1666   9.862   6.604   0.235 -0.6861 -0.5393 -0.1966
  754MOL0     C 1667   9.724   6.644   0.186 -0.4259  0.2688  0.8022
  754MOL0     C 1668   9.661   6.750   0.270  0.2639  0.3589  0.0769
  754MOL0     C 1669   9.740   6.883   0.285 -0.0461  0.6794  0.4598
  754MOL0     C 1670   9.656   7.000   0.286  0.7148 -0.4464  0.3368
  754MOL0     C 1671   9.579   7.019   0.155 -0.5976  0.5260 -0.1734
  754MOL0     N 1672   9.477   7.120   0.173 -0.2962  0.5672  0.0701
  754MOL0     C 1673   9.341   7.107   0.181 -0.1143 -0.4737  0.4962
  754MOL0     C 1674   9.292   7.234   0.187  0.0741  0.1052 -1.1810
  754MOL0     C 1675   9.149   7.284   0.221  0.0723 -0.6078 -0.5999
  754MOL0     C 1676   9.084   7.367   0.108 -0.5987  1.4834  0.6674
  754MOL0     C 1677   8.965   7.455   0.155 -0.2071 -0.8859  0.0075
  754MOL0     C 1678   8.849   7.378   0.223 -0.3186  0.8512 -0.0961
  754MOL0     O 1679   8.722   7.431   0.194 -0.4624  0.2939  0.7803
  754MOL0     C 1680   8.600   7.367   0.220  0.3462  0.2041 -0.2278
  754MOL0     C 1681   8.596   7.227   0.250  0.6553 -1.0316 -0.9139
  754MOL0     C 1682   8.471   7.161   0.263 -0.2307 -0.3453  0.3445
  754MOL0     C 1683   8.476   7.012   0.310  0.4476 -0.1758  0.2736
  754MOL0     C 1684   8.356   7.238   0.245  0.6159  0.4694 -0.3271
  754MOL0     C 1685   8.218   7.176   0.253 -0.7918 -0.2515 -0.6985
  754MOL0     O 1686   8.120   7.235   0.183  0.6106 -0.5156 -1.0185
  754MOL0     C 1687   7.986   7.193   0.184 -0.6228  0.1512  0.3307
  754MOL0     C 1688   7.914   7.201   0.302  0.9462  0.5817  0.6080
  754MOL0     C 1689   7.782   7.162   0.298  0.2563  0.1921 -0.1949
  754MOL0     C 1690   7.711   7.157   0.175  0.4232 -0.4811 -0.8374
  754MOL0     O 1691   7.574   7.144   0.165 -0.0737  0.5459 -0.0553
  754MOL0     C 1692   7.500   7.068   0.267 -0.2669 -0.4348  0.1298
  754MOL0     C 1693   7.354   7.032   0.213 -1.0264  0.0063 -0.2965
  754MOL0     C 1694   7.275   7.155   0.169  0.9249  0.7790 -0.3683
  754MOL0     C 1695   7.132   7.116   0.141  0.1230 -0.2740  0.2656
  754MOL0     C 1696   7.098   7.088  -0.009  0.8710  0.1732 -0.3426
  754MOL0     C 1697   6.944   7.083  -0.032  0.3553 -0.0005 -0.4630
  754MOL0     C 1698   6.926   7.032  -0.177  0.4119  0.0534 -0.6030
  754MOL0     C 1699   6.786   7.047  -0.228  0.1055 -0.2865 -0.6657
  754MOL0    Cl 1700   6.706   7.204  -0.197 -0.5066 -0.2773 -0.2145
  754MOL0     C 1701   7.784   7.156   0.057 -0.6092  0.1108 -0.2450
  754MOL0     C 1702   7.921   7.177   0.068  0.2084  0.1916  0.1975
  754MOL0     O 1703   8.200   7.078   0.320  1.2109  1.2120 -0.4690
  754MOL0     C 1704   8.361   7.373   0.222 -0.0823 -0.3712 -1.2887
  754MOL0     C 1705   8.482   7.439   0.202  0.2898 -0.0663 -0.8034
  754MOL0     N 1706   9.391   7.328   0.169 -0.2297  0.2084  0.3361
  754MOL0     N 1707   9.499   7.255   0.165 -0.3207 -0.7662  0.2301
  754MOL0     C 1708  10.354   6.448   0.182  0.4492 -1.3591 -1.0298
  754MOL0     C 1709  10.489   6.449   0.208 -0.5610  0.2420 -0.9464
  754MOL0     C 1710  10.928   6.529   0.255 -0.1889  0.3956 -0.4316
  754MOL0     C 1711  10.967   6.618   0.354  0.5543 -0.2224  0.3092
  754MOL0     C 1712  11.101   6.618   0.397 -0.1330 -0.2311 -0.3934
  754MOL0     C 1713  11.198   6.542   0.334  0.6154 -0.9561  0.1200
  754MOL0     O 1714  11.331   6.557   0.360  0.1795 -0.8343  0.6321
  754MOL0     C 1715  11.364   6.656   0.464 -0.8796  0.7725 -0.3382
  754MOL0     C 1716  11.509   6.632   0.510 -0.1329  0.1483  0.7274
  754MOL0     C 1717  11.604   6.597   0.403 -0.5711 -0.0082  0.2137
  754MOL0     C 1718  11.754   6.602   0.446 -0.0171 -0.8491 -0.4029
  754MOL0     C 1719  11.795   6.512   0.554 -0.3659  0.4346 -0.3935
  754MOL0     C 1720  11.843   6.442   0.645 -0.3875  0.0412 -0.9625
  754MOL0     C 1721  11.157   6.463   0.232  0.7287 -0.1530  0.9069
  754MOL0     C 1722  11.024   6.448   0.190 -0.4138  0.3327 -0.0406
  754MOL0     H 1723  10.540   6.759   0.298 -1.4540 -0.1668  2.7144
  754MOL0     H 1724  10.288   6.775   0.247  0.0256  0.8092 -3.4315
  754MOL0     H 1725  10.089   6.376   0.140 -1.0899  0.9014 -2.1901
  754MOL0     H 1726  10.059   6.446   0.312  0.2755  1.6297  0.5074
  754MOL0     H 1727   9.934   6.524   0.046 -1.6303  0.9310 -0.5313
  754MOL0     H 1728   9.861   6.403   0.146  0.5106 -1.0427  1.4040
  754MOL0     H 1729   9.848   6.571   0.339  1.8417 -3.1845 -0.5731
  754MOL0     H 1730   9.919   6.697   0.238 -0.1572 -0.8661  2.4124
  754MOL0     H 1731   9.739   6.678   0.083  0.6038 -2.9970 -0.2541
  754MOL0     H 1732   9.668   6.551   0.173 -0.2605  0.2997 -0.1848
  754MOL0     H 1733   9.555   6.764   0.246 -0.0856 -0.3055  1.1477
  754MOL0     H 1734   9.648   6.708   0.371 -1.9050  2.7960  0.9214
  754MOL0     H 1735   9.812   6.891   0.367  0.4322 -1.2087  0.2780
  754MOL0     H 1736   9.794   6.891   0.190 -0.3528 -0.4293  0.1794
  754MOL0     H 1737   9.584   6.995   0.368  1.7671 -0.6398  1.2664
  754MOL0     H 1738   9.709   7.092   0.313 -2.0437  1.7262 -1.0825
  754MOL0     H 1739   9.539   6.924   0.118 -0.3523 -0.0849  1.0747
  754MOL0     H 1740   9.657   7.036   0.080 -2.3820  2.7613 -1.6240
  754MOL0     H 1741   9.292   7.010   0.186 -0.7030 -0.3679 -2.1170
  754MOL0     H 1742   9.093   7.196   0.256  0.7625 -0.4385  0.9580
  754MOL0     H 1743   9.158   7.353   0.305 -2.6672 -2.3443  1.3025
  754MOL0     H 1744   9.042   7.301   0.031 -0.2171  0.1156  1.5875
  754MOL0     H 1745   9.171   7.424   0.074  1.5569 -1.9966 -0.2086
  754MOL0     H 1746   8.932   7.511   0.067 -0.0669 -1.1361 -0.2068
  754MOL0     H 1747   9.014   7.527   0.221  0.1849 -0.4832 -0.7089
  754MOL0     H 1748   8.869   7.367   0.329  2.1599 -2.4354 -0.7341
  754MOL0     H 1749   8.861   7.278   0.178  2.0479  2.0858 -2.4907
  754MOL0     H 1750   8.689   7.175   0.269  0.8391 -0.1209  0.8074
  754MOL0     H 1751   8.434   6.998   0.410  0.5674 -2.0670  0.0960
  754MOL0     H 1752   8.411   6.953   0.245 -0.7322  0.6674  0.6641
  754MOL0     H 1753   8.580   6.979   0.303  0.2877 -0.3646 -1.9507
  754MOL0     H 1754   7.977   7.212   0.391  0.9723  0.9997  0.5399
  754MOL0     H 1755   7.726   7.156   0.390  1.2752 -1.6685  0.3694
  754MOL0     H 1756   7.551   6.973   0.284  2.1983  0.6248 -0.8807
  754MOL0     H 1757   7.499   7.125   0.360  1.0811  1.3564 -0.9020
  754MOL0     H 1758   7.359   6.956   0.135 -1.3748 -0.3136 -0.0089
  754MOL0     H 1759   7.309   6.992   0.304  2.1970 -2.3881  0.3986
  754MOL0     H 1760   7.327   7.184   0.077  4.8292 -3.7919  0.0167
  754MOL0     H 1761   7.263   7.234   0.245  0.2521 -1.7141  2.2863
  754MOL0     H 1762   7.102   7.042   0.217 -1.3194  1.1174  1.1102
  754MOL0     H 1763   7.079   7.207   0.168 -1.1776 -1.8191  3.5263
  754MOL0     H 1764   7.137   6.987  -0.023 -0.5265 -1.5042  5.2003
  754MOL0     H 1765   7.134   7.161  -0.082 -1.5885  1.1477 -0.6763
  754MOL0     H 1766   6.877   7.021   0.029 -1.9066  3.1747  0.5404
  754MOL0     H 1767   6.912   7.186  -0.016  0.5446  0.2999 -1.9531
  754MOL0     H 1768   6.943   6.925  -0.161 -3.4068 -0.9640 -2.0618
  754MOL0     H 1769   7.004   7.063  -0.247  0.5354  0.6308 -0.2161
  754MOL0     H 1770   6.730   6.961  -0.191  1.1460 -0.6429  0.1369
  754MOL0     H 1771   6.793   7.038  -0.337 -2.8232  2.2091 -1.1752
  754MOL0     H 1772   7.733   7.156  -0.038  1.8758  0.0532 -1.6612
  754MOL0     H 1773   7.981   7.182  -0.022  0.0848  0.8462  0.1431
  754MOL0     H 1774   8.273   7.437   0.215 -0.1590  0.1374  2.4038
  754MOL0     H 1775   8.483   7.546   0.183 -2.5866 -0.0551 -1.2343
  754MOL0     H 1776  10.300   6.355   0.164 -0.2323 -1.2424  0.2442
  754MOL0     H 1777  10.540   6.353   0.207 -1.3258 -0.1672 -2.0687
  754MOL0     H 1778  10.897   6.686   0.402  1.2563  1.3900 -0.8479
  754MOL0     H 1779  11.099   6.690   0.478  1.1547 -3.7723  3.1113
  754MOL0     H 1780  11.352   6.752   0.413 -0.9686  2.3122  2.3606
  754MOL0     H 1781  11.292   6.644   0.546  0.8314 -1.1151  0.9886
  754MOL0     H 1782  11.521   6.553   0.584  0.2705  0.1577  0.6744
  754MOL0     H 1783  11.556   6.722   0.551  1.9724 -0.5168 -0.0861
  754MOL0     H 1784  11.589   6.675   0.328  0.7016 -0.5437 -0.6276
  754MOL0     H 1785  11.573   6.503   0.355  0.7541 -0.3526  0.0147
  754MOL0     H 1786  11.772   6.704   0.482  1.8024 -0.2473 -2.7266
  754MOL0     H 1787  11.822   6.571   0.365  1.0840 -3.4371  1.3679
  754MOL0     H 1788  11.895   6.394   0.726  1.3139  0.3811 -1.8149
  754MOL0     H 1789  11.227   6.401   0.176  0.9168 -0.2740  1.2726
  754MOL0     H 1790  10.993   6.395   0.101  1.8441 -0.3348 -0.5053
  755MOL0     O 1791   6.929   8.677   4.710 -0.4498  0.3131 -0.5052
  755MOL0     C 1792   6.955   8.571   4.755 -0.1162 -0.2533  0.1780
  755MOL0     O 1793   6.865   8.471   4.775  0.0355  0.4356  0.2491
  755MOL0     C 1794   6.731   8.485   4.752  0.5637  0.1290  0.5316
  755MOL0     C 1795   6.679   8.550   4.632 -0.1207 -0.3269  0.3476
  755MOL0     C 1796   6.537   8.553   4.621 -0.3197 -0.2756 -0.1067
  755MOL0     C 1797   6.457   8.487   4.715 -0.4474  0.1345  0.6710
  755MOL0     O 1798   6.317   8.496   4.728 -0.6158 -0.6047 -0.4850
  755MOL0     C 1799   6.234   8.484   4.612 -0.1428 -0.8507  0.3464
  755MOL0     C 1800   6.147   8.606   4.590 -0.1138  0.1685  0.4119
  755MOL0     C 1801   6.027   8.594   4.685 -0.3363 -0.0863 -0.2499
  755MOL0     C 1802   5.970   8.725   4.688  0.4468 -0.1136  0.9088
  755MOL0     C 1803   5.827   8.727   4.767 -0.4403 -0.5032  0.1459
  755MOL0     C 1804   5.720   8.642   4.690 -0.1568 -0.5644 -0.3152
  755MOL0     C 1805   5.578   8.655   4.754 -0.5976  0.4700  0.3110
  755MOL0     C 1806   5.477   8.623   4.638 -0.8781  0.3817  0.1175
  755MOL0     N 1807   5.469   8.474   4.606 -0.5944  0.0834  0.8541
  755MOL0     C 1808   5.458   8.424   4.478  0.8807  0.8925 -0.1917
  755MOL0     C 1809   5.449   8.293   4.501 -0.6420  0.0597 -0.1534
  755MOL0     C 1810   5.442   8.190   4.389  0.4823  0.2538 -1.1739
  755MOL0     C 1811   5.303   8.136   4.346  0.1892  0.2121  0.0955
  755MOL0     C 1812   5.334   8.027   4.242 -0.5869  0.5136 -0.3439
  755MOL0     C 1813   5.215   7.977   4.166  0.5068  0.4041 -0.6236
  755MOL0     O 1814   5.254   7.920   4.049 -0.0529 -0.1851  0.1397
  755MOL0     C 1815   5.156   7.877   3.963  0.8959 -0.7105 -0.9143
  755MOL0     C 1816   5.011   7.888   3.985 -0.6621 -0.4575  0.2482
  755MOL0     C 1817   4.919   7.851   3.886 -0.4977 -0.3655  0.1059
  755MOL0     C 1818   4.776   7.856   3.926  0.2414 -1.1098  0.2358
  755MOL0     C 1819   4.967   7.805   3.755  0.0276 -1.4188  0.2191
  755MOL0     C 1820   4.867   7.779   3.645  0.1183 -0.0816 -0.3251
  755MOL0     O 1821   4.776   7.675   3.667  0.4372 -1.0304 -0.1144
  755MOL0     C 1822   4.673   7.649   3.582 -0.0025  1.0637 -0.3037
  755MOL0     C 1823   4.648   7.517   3.549  0.0015  0.5550 -0.7974
  755MOL0     C 1824   4.537   7.485   3.461 -0.2236  0.3089 -0.4592
  755MOL0     C 1825   4.473   7.581   3.386  0.5690 -0.0724 -0.1775
  755MOL0     O 1826   4.368   7.544   3.305 -0.1780 -0.0155 -0.4588
  755MOL0     C 1827   4.330   7.630   3.199  0.5458 -0.5770 -0.9568
  755MOL0     C 1828   4.192   7.598   3.134 -0.1974 -0.8154 -0.1617
  755MOL0     C 1829   4.186   7.450   3.093 -0.4648 -0.1982 -0.0239
  755MOL0     C 1830   4.078   7.406   3.006  0.0173  0.6554 -0.3426
  755MOL0     C 1831   3.945   7.408   3.097 -0.0168  0.1776  0.0607
  755MOL0     C 1832   3.838   7.338   3.012 -0.2473 -0.0951 -1.3359
  755MOL0     C 1833   3.705   7.327   3.090  0.2951  0.0858 -0.5013
  755MOL0     C 1834   3.594   7.274   2.996  0.7103 -1.0489  0.4383
  755MOL0    Cl 1835   3.631   7.123   2.922 -0.3201  0.2192  0.2676
  755MOL0     C 1836   4.512   7.715   3.409  0.2506 -0.7843  0.0360
  755MOL0     C 1837   4.604   7.746   3.503  0.2444  0.2165 -0.2983
  755MOL0     O 1838   4.862   7.852   3.549 -0.0539  0.2176  0.6036
  755MOL0     C 1839   5.104   7.804   3.728  0.7319  0.4145  0.7526
  755MOL0     C 1840   5.198   7.833   3.837  0.7475 -0.5894  0.1459
  755MOL0     N 1841   5.488   8.263   4.632  0.0519  0.1546  1.2150
  755MOL0     N 1842   5.503   8.372   4.690 -0.1877 -0.2789 -0.2873
  755MOL0     C 1843   6.509   8.411   4.813  0.0844  0.5114 -0.1428
  755MOL0     C 1844   6.646   8.417   4.838 -0.1053 -0.2485 -0.7009
  755MOL0     C 1845   7.093   8.538   4.805  0.3177  0.4721 -0.4759
  755MOL0     C 1846   7.215   8.596   4.758 -0.0191 -0.1166 -0.0531
  755MOL0     C 1847   7.343   8.559   4.805 -0.5687 -0.1682  0.4376
  755MOL0     C 1848   7.356   8.460   4.909 -0.1737 -0.8760  0.5051
  755MOL0     O 1849   7.486   8.439   4.952 -0.6174  0.1748 -0.4357
  755MOL0     C 1850   7.497   8.334   5.045 -0.7545  0.4929  0.0094
  755MOL0     C 1851   7.643   8.275   5.046  0.0881  0.1591 -0.1939
  755MOL0     C 1852   7.750   8.364   5.107  0.2651  0.2825  0.1721
  755MOL0     C 1853   7.877   8.286   5.144 -0.7516 -0.6005  0.4954
  755MOL0     C 1854   7.929   8.210   5.027  0.6210  0.3772 -0.0270
  755MOL0     C 1855   7.953   8.148   4.922 -0.2780  0.1098 -0.0601
  755MOL0     C 1856   7.239   8.405   4.955  0.4495  0.5353 -0.4783
  755MOL0     C 1857   7.112   8.444   4.906 -0.2335  1.2032  0.2375
  755MOL0     H 1858   6.747   8.594   4.560  2.5535  0.0976  2.9109
  755MOL0     H 1859   6.499   8.606   4.534  0.3001 -1.1627 -0.9415
  755MOL0     H 1860   6.291   8.482   4.519 -3.5869 -0.8162 -1.9459
  755MOL0     H 1861   6.179   8.390   4.614  2.0694 -2.3498 -2.8532
  755MOL0     H 1862   6.212   8.692   4.604  0.7726 -0.2503 -0.9385
  755MOL0     H 1863   6.120   8.595   4.485 -0.7885 -0.6748  0.6577
  755MOL0     H 1864   5.955   8.522   4.644  0.2452 -1.7282  1.4827
  755MOL0     H 1865   6.059   8.556   4.782  2.1782 -1.5771 -1.5494
  755MOL0     H 1866   6.032   8.787   4.754 -1.2449  0.5559  1.9297
  755MOL0     H 1867   5.958   8.760   4.585 -1.7739 -1.3823  0.6841
  755MOL0     H 1868   5.841   8.680   4.864  0.1609 -0.3060  0.1589
  755MOL0     H 1869   5.808   8.834   4.781  0.8524 -0.2619  0.1554
  755MOL0     H 1870   5.723   8.686   4.590 -0.2023  1.5518  0.5657
  755MOL0     H 1871   5.742   8.535   4.683  2.4565 -0.0998 -0.1535
  755MOL0     H 1872   5.559   8.582   4.833  1.6425  0.0400  0.5210
  755MOL0     H 1873   5.568   8.754   4.799 -1.4870  0.1345  0.8730
  755MOL0     H 1874   5.504   8.681   4.550  1.8658 -0.2522  0.4222
  755MOL0     H 1875   5.380   8.658   4.675 -0.3464  0.0845  1.9139
  755MOL0     H 1876   5.430   8.479   4.389 -0.6479 -1.3489 -1.1714
  755MOL0     H 1877   5.489   8.244   4.306  2.2569  1.9014  0.7931
  755MOL0     H 1878   5.506   8.105   4.416 -1.6186 -0.8388  0.6789
  755MOL0     H 1879   5.235   8.213   4.308  0.2420  1.1335  1.7710
  755MOL0     H 1880   5.261   8.087   4.434  1.6089 -0.6539  0.3174
  755MOL0     H 1881   5.393   7.947   4.287  0.9139  1.9205  0.2709
  755MOL0     H 1882   5.402   8.063   4.164  0.0002  1.1220  0.4318
  755MOL0     H 1883   5.143   8.057   4.144 -0.0599  0.1795  0.3537
  755MOL0     H 1884   5.159   7.906   4.227  0.1183  0.0077 -1.4326
  755MOL0     H 1885   4.980   7.943   4.073  3.6229  3.6368 -0.3775
  755MOL0     H 1886   4.728   7.938   3.872  2.1502 -0.1544 -0.0627
  755MOL0     H 1887   4.736   7.754   3.914 -1.1950 -0.4438 -0.9826
  755MOL0     H 1888   4.768   7.881   4.032  1.0122  1.1043 -0.1923
  755MOL0     H 1889   4.721   7.445   3.585  0.0012  1.1094  0.3573
  755MOL0     H 1890   4.506   7.381   3.453 -0.6234 -0.1227  4.0919
  755MOL0     H 1891   4.324   7.733   3.233 -0.2453 -1.1148  0.6338
  755MOL0     H 1892   4.406   7.628   3.120 -0.1756  0.9720 -1.7252
  755MOL0     H 1893   4.120   7.624   3.211 -1.6199  0.0275 -1.7142
  755MOL0     H 1894   4.170   7.668   3.053  1.1800 -1.6283 -1.2947
  755MOL0     H 1895   4.189   7.394   3.188 -2.3393  0.5517  0.5389
  755MOL0     H 1896   4.280   7.444   3.038  0.3337  1.4484  1.0841
  755MOL0     H 1897   4.074   7.479   2.924  3.2571  1.5818  0.2017
  755MOL0     H 1898   4.110   7.314   2.957 -1.2410 -0.4685  0.8480
  755MOL0     H 1899   3.915   7.512   3.112 -0.6387  0.0192 -0.0247
  755MOL0     H 1900   3.956   7.354   3.192 -2.0739 -0.6292 -0.1019
  755MOL0     H 1901   3.820   7.393   2.919 -2.5493 -1.6979 -1.9115
  755MOL0     H 1902   3.874   7.237   2.991  2.7226 -0.8142  4.9936
  755MOL0     H 1903   3.667   7.424   3.124 -0.1744 -0.9751  2.3284
  755MOL0     H 1904   3.727   7.258   3.172  1.0565 -0.3498 -1.0543
  755MOL0     H 1905   3.570   7.351   2.922 -0.6323  2.2369  3.9594
  755MOL0     H 1906   3.502   7.273   3.056 -0.1689  2.6046 -0.6412
  755MOL0     H 1907   4.461   7.798   3.362  1.3543  0.9468  1.7226
  755MOL0     H 1908   4.618   7.846   3.542 -1.2551 -0.2044  1.4435
  755MOL0     H 1909   5.124   7.771   3.627 -0.9058  0.3223  0.4421
  755MOL0     H 1910   5.304   7.819   3.821  0.8404 -0.2476  0.4499
  755MOL0     H 1911   6.441   8.355   4.877  3.0676 -0.2020  2.6568
  755MOL0     H 1912   6.690   8.353   4.914  2.4490  0.6375 -1.3404
  755MOL0     H 1913   7.191   8.679   4.692  2.2970  0.8428  0.1884
  755MOL0     H 1914   7.430   8.616   4.773 -1.4265  1.1527  0.4164
  755MOL0     H 1915   7.473   8.364   5.147  0.2200  2.5476 -0.3029
  755MOL0     H 1916   7.436   8.250   5.013 -0.9307 -0.5072  2.7607
  755MOL0     H 1917   7.673   8.228   4.952  0.7494 -0.6426  0.3985
  755MOL0     H 1918   7.629   8.189   5.113 -1.7605  1.2105  0.8515
  755MOL0     H 1919   7.695   8.412   5.189 -3.4142 -1.8382 -0.8300
  755MOL0     H 1920   7.793   8.435   5.036  0.2094  1.9749  1.7536
  755MOL0     H 1921   7.865   8.218   5.229  2.3785 -0.5941  1.0503
  755MOL0     H 1922   7.948   8.364   5.172 -2.9969  2.0145 -0.5289
  755MOL0     H 1923   7.959   8.096   4.829  2.1896  0.2137 -0.0448
  755MOL0     H 1924   7.238   8.325   5.029  0.0976  1.3609  0.4311
  755MOL0     H 1925   7.028   8.392   4.949  0.6054 -0.2211  0.1971
  756MOL0     O 1926   0.450   5.120   6.838  0.2811  0.6210  0.8038
  756MOL0     C 1927   0.338   5.066   6.838 -0.4225  0.2510 -0.4950
  756MOL0     O 1928   0.311   4.934   6.824 -0.3051  0.0704 -0.3710
  756MOL0     C 1929   0.414   4.838   6.808  0.2493 -0.4458  0.8566
  756MOL0     C 1930   0.449   4.766   6.920  0.3474 -0.7923 -0.4700
  756MOL0     C 1931   0.541   4.660   6.916 -0.0747 -0.2647 -0.4063
  756MOL0     C 1932   0.584   4.614   6.789 -0.0780  1.2544 -0.0191
  756MOL0     O 1933   0.676   4.509   6.772 -0.2209 -0.1799 -0.0506
  756MOL0     C 1934   0.808   4.530   6.829 -0.1458 -0.3837  0.1558
  756MOL0     C 1935   0.906   4.604   6.734  0.0394  0.0870 -0.1359
  756MOL0     C 1936   1.048   4.588   6.791 -0.7027 -0.9334 -0.0468
  756MOL0     C 1937   1.146   4.669   6.712 -0.2805  0.3107 -0.1010
  756MOL0     C 1938   1.293   4.661   6.763  0.9402  0.5234  0.1079
  756MOL0     C 1939   1.347   4.514   6.732 -0.5607  0.7507  0.0240
  756MOL0     C 1940   1.499   4.514   6.763  0.1379  0.2480  0.5180
  756MOL0     C 1941   1.559   4.368   6.740  0.3090 -0.4140  0.4834
  756MOL0     N 1942   1.546   4.306   6.603 -0.0820 -0.8023  0.0904
  756MOL0     C 1943   1.583   4.376   6.487  0.5622 -0.9621  0.0120
  756MOL0     C 1944   1.544   4.296   6.383 -0.2040 -1.1076  0.6147
  756MOL0     C 1945   1.557   4.326   6.238 -0.0724 -0.4760  0.1163
  756MOL0     C 1946   1.466   4.446   6.200  0.1030 -0.7456 -0.4679
  756MOL0     C 1947   1.318   4.405   6.187 -0.0686 -0.3334 -0.4291
  756MOL0     C 1948   1.275   4.302   6.080  1.2507  0.2419  0.5280
  756MOL0     O 1949   1.269   4.371   5.954 -0.4801 -0.5529 -0.0814
  756MOL0     C 1950   1.145   4.362   5.899  0.2128 -0.4112  0.6372
  756MOL0     C 1951   1.054   4.459   5.919 -0.5466  0.3062 -0.0110
  756MOL0     C 1952   0.929   4.452   5.868  0.0032  0.1255  0.1525
  756MOL0     C 1953   0.841   4.572   5.903  1.0556 -0.3640  0.9130
  756MOL0     C 1954   0.883   4.349   5.785  0.3427 -0.1911 -0.0849
  756MOL0     C 1955   0.743   4.338   5.725  0.4020  0.5883  0.1377
  756MOL0     O 1956   0.693   4.200   5.717 -0.0842  0.4180  0.5569
  756MOL0     C 1957   0.566   4.173   5.658 -0.1673  0.7515 -0.0556
  756MOL0     C 1958   0.515   4.236   5.542 -0.2319 -0.6099  0.0147
  756MOL0     C 1959   0.392   4.191   5.487 -1.0312 -0.3109  1.1901
  756MOL0     C 1960   0.328   4.079   5.529 -0.4515  1.2890 -0.9650
  756MOL0     O 1961   0.216   4.030   5.472  0.5183 -0.9701 -0.0126
  756MOL0     C 1962   0.111   4.129   5.438 -0.3389  0.5559  0.3353
  756MOL0     C 1963  -0.020   4.047   5.416 -0.6391  0.2383  0.8630
  756MOL0     C 1964  -0.125   4.125   5.348  0.7463  0.0513  0.6639
  756MOL0     C 1965  -0.235   4.033   5.277 -0.7023  0.0804 -0.4952
  756MOL0     C 1966  -0.318   4.113   5.181  0.9823  0.3993  0.4085
  756MOL0     C 1967  -0.403   4.018   5.103  0.2541  0.7280 -0.1627
  756MOL0     C 1968  -0.478   4.100   5.005  0.0512  0.4596 -0.0411
  756MOL0     C 1969  -0.613   4.029   4.991  0.1743  0.0628  0.2874
  756MOL0    Cl 1970  -0.713   4.117   4.873 -0.2683  0.2711 -0.0244
  756MOL0     C 1971   0.380   4.014   5.642  0.7707 -0.4671  0.2688
  756MOL0     C 1972   0.496   4.063   5.708  0.0114  0.0714 -0.1825
  756MOL0     O 1973   0.685   4.438   5.682  0.4072  1.0418 -0.6045
  756MOL0     C 1974   0.975   4.239   5.769 -0.4189 -0.5952  0.0437
  756MOL0     C 1975   1.102   4.247   5.833  0.5489 -1.1478  1.0410
  756MOL0     N 1976   1.474   4.195   6.439  0.0505 -0.6374 -0.8397
  756MOL0     N 1977   1.469   4.200   6.571 -0.0868  0.5468 -0.0783
  756MOL0     C 1978   0.539   4.678   6.670  0.4656  0.9208 -0.0005
  756MOL0     C 1979   0.453   4.794   6.683 -0.4031 -0.5959 -0.6371
  756MOL0     C 1980   0.218   5.156   6.857  0.4010 -0.4336  0.6850
  756MOL0     C 1981   0.097   5.098   6.891 -0.4196 -0.2561 -0.4823
  756MOL0     C 1982  -0.004   5.186   6.941  0.2979 -0.1622  0.3190
  756MOL0     C 1983   0.013   5.321   6.950 -0.0669  0.3228  0.2939
  756MOL0     O 1984  -0.092   5.403   6.990 -0.2438  0.4105 -0.9746
  756MOL0     C 1985  -0.070   5.543   7.015  0.2197  0.9522 -0.0174
  756MOL0     C 1986  -0.203   5.609   7.047  0.4736  0.3454  0.4126
  756MOL0     C 1987  -0.277   5.535   7.163  0.0836 -0.0228 -0.1189
  756MOL0     C 1988  -0.426   5.574   7.187  0.2615 -1.0129  0.3838
  756MOL0     C 1989  -0.506   5.515   7.081  0.3506 -0.2004 -0.7861
  756MOL0     C 1990  -0.580   5.461   7.000 -0.5511  0.0916 -0.0711
  756MOL0     C 1991   0.135   5.378   6.913  0.4938  0.6087  0.1455
  756MOL0     C 1992   0.229   5.300   6.863 -0.2311 -0.4391  0.2818
  756MOL0     H 1993   0.389   4.793   7.006 -0.3349 -0.1508 -1.1297
  756MOL0     H 1994   0.577   4.614   7.008  0.1964  1.8197  0.5827
  756MOL0     H 1995   0.807   4.581   6.925  0.3062 -0.6081  0.2783
  756MOL0     H 1996   0.843   4.431   6.858 -0.8835 -2.0101 -3.7781
  756MOL0     H 1997   0.900   4.558   6.635 -2.6264 -3.0404  1.3107
  756MOL0     H 1998   0.884   4.710   6.717  0.8515 -0.0338 -2.3183
  756MOL0     H 1999   1.057   4.633   6.890  2.8128  1.4634 -1.2828
  756MOL0     H 2000   1.080   4.483   6.793 -0.7051 -0.9400 -0.3078
  756MOL0     H 2001   1.146   4.633   6.609  0.4871  0.4472 -0.1608
  756MOL0     H 2002   1.117   4.775   6.711 -1.3994  0.0156  0.1494
  756MOL0     H 2003   1.357   4.731   6.707  0.7038  1.8649  1.4406
  756MOL0     H 2004   1.299   4.688   6.869  0.1034 -0.7463  0.4960
  756MOL0     H 2005   1.296   4.435   6.787  2.2910 -1.9936 -0.9689
  756MOL0     H 2006   1.323   4.486   6.629 -1.4017 -3.4526  1.1897
  756MOL0     H 2007   1.550   4.588   6.700 -1.9008  1.4034  0.1141
  756MOL0     H 2008   1.513   4.538   6.869  0.3122 -1.6231  0.9432
  756MOL0     H 2009   1.519   4.290   6.805  1.0599 -1.8653 -0.7392
  756MOL0     H 2010   1.667   4.365   6.755  0.4751  0.1461 -0.5180
  756MOL0     H 2011   1.629   4.474   6.489 -2.2147  0.4448  1.7236
  756MOL0     H 2012   1.661   4.350   6.211 -0.4896 -0.0587 -1.1918
  756MOL0     H 2013   1.538   4.236   6.178  3.9953 -2.9301  2.0160
  756MOL0     H 2014   1.492   4.481   6.099 -1.1212  0.3941 -0.4118
  756MOL0     H 2015   1.474   4.531   6.267  1.6730 -2.2868  1.4101
  756MOL0     H 2016   1.247   4.488   6.183  0.2837  0.0071  0.2318
  756MOL0     H 2017   1.311   4.352   6.282  2.8114 -3.3590 -1.7033
  756MOL0     H 2018   1.184   4.248   6.109  2.5642 -1.9723  0.7415
  756MOL0     H 2019   1.354   4.226   6.075 -1.3257 -2.6456  0.1475
  756MOL0     H 2020   1.077   4.549   5.976 -2.0308  1.7046 -1.4894
  756MOL0     H 2021   0.851   4.610   6.005  0.7000  2.3636  0.0106
  756MOL0     H 2022   0.851   4.649   5.827 -1.3733 -0.6345  0.2212
  756MOL0     H 2023   0.738   4.536   5.902 -0.6161  3.8581  0.9325
  756MOL0     H 2024   0.577   4.310   5.494  1.3988 -1.1222  1.2427
  756MOL0     H 2025   0.362   4.226   5.389 -0.8379 -0.9910  0.8792
  756MOL0     H 2026   0.096   4.206   5.514 -0.2962 -0.1128  1.0301
  756MOL0     H 2027   0.143   4.187   5.351  4.3540 -1.1068  0.6680
  756MOL0     H 2028   0.012   3.968   5.347  0.4884  3.3669 -2.5697
  756MOL0     H 2029  -0.054   4.013   5.514 -2.5068  0.5945  0.3773
  756MOL0     H 2030  -0.078   4.186   5.271  2.5770  2.7630  3.6736
  756MOL0     H 2031  -0.171   4.195   5.418  1.5597  1.1292  0.1417
  756MOL0     H 2032  -0.184   3.958   5.216  1.5877  1.2432 -0.1084
  756MOL0     H 2033  -0.298   3.983   5.351 -0.0983  0.9539  0.6407
  756MOL0     H 2034  -0.241   4.166   5.125 -0.4322  1.0184 -1.0319
  756MOL0     H 2035  -0.372   4.192   5.234  5.7378  2.6640  2.4113
  756MOL0     H 2036  -0.359   3.933   5.049 -1.4584  1.5939 -3.2008
  756MOL0     H 2037  -0.470   3.967   5.173 -1.1844  1.7327 -0.7440
  756MOL0     H 2038  -0.427   4.098   4.908 -0.8468  1.8144 -0.5707
  756MOL0     H 2039  -0.477   4.207   5.027 -0.1385  0.2869  0.8696
  756MOL0     H 2040  -0.666   4.043   5.086 -0.9855 -0.5515 -0.2387
  756MOL0     H 2041  -0.618   3.921   4.977 -0.1169  0.2311 -1.0162
  756MOL0     H 2042   0.329   3.927   5.680 -2.0653  0.6603 -0.6995
  756MOL0     H 2043   0.531   4.014   5.798 -1.1033 -0.3455  0.0404
  756MOL0     H 2044   0.960   4.158   5.698  2.6361 -1.6275  0.4592
  756MOL0     H 2045   1.161   4.155   5.832  0.5560 -1.1781 -1.4577
  756MOL0     H 2046   0.569   4.635   6.576  0.0501 -0.9267  0.6726
  756MOL0     H 2047   0.424   4.844   6.592 -0.9521 -2.2969 -1.4357
  756MOL0     H 2048   0.088   4.990   6.887 -0.1492 -0.3288  0.5530
  756MOL0     H 2049  -0.101   5.147   6.968 -0.4531  3.2618  3.3304
  756MOL0     H 2050  -0.010   5.566   7.104 -0.3735  0.5047  0.5116
  756MOL0     H 2051  -0.022   5.579   6.924 -0.8928 -2.5468 -2.1728
  756MOL0     H 2052  -0.267   5.607   6.958  0.4546 -0.1164  0.4348
  756MOL0     H 2053  -0.194   5.715   7.072  0.0729  0.4834 -0.0154
  756MOL0     H 2054  -0.224   5.556   7.256 -0.3366 -2.9057  0.8991
  756MOL0     H 2055  -0.272   5.426   7.154 -1.6490 -0.0135 -1.8109
  756MOL0     H 2056  -0.442   5.681   7.170 -2.2267 -1.4951 -0.7849
  756MOL0     H 2057  -0.457   5.547   7.289 -0.6441  1.1416  0.7519
  756MOL0     H 2058  -0.652   5.419   6.932  1.0934 -2.3746 -0.4175
  756MOL0     H 2059   0.161   5.482   6.930 -1.6318  0.9763  1.6459
  756MOL0     H 2060   0.323   5.349   6.842 -0.2231 -0.8472 -0.6987
  757MOL0     O 2061  10.989   2.899   6.939 -0.0158 -0.4620 -0.1773
  757MOL0     C 2062  10.897   2.878   6.854 -0.0192  0.3269  0.3617
  757MOL0     O 2063  10.773   2.841   6.882  0.4289 -0.1204  0.2354
  757MOL0     C 2064  10.729   2.837   7.015 -0.3146  0.7833 -0.8817
  757MOL0     C 2065  10.710   2.714   7.073  1.0469  1.3003  0.3485
  757MOL0     C 2066  10.666   2.702   7.208  0.6943 -0.1774  0.0377
  757MOL0     C 2067  10.639   2.815   7.287 -0.2630  0.7374  1.0676
  757MOL0     O 2068  10.614   2.787   7.420 -0.0874 -0.6180 -0.0081
  757MOL0     C 2069  10.619   2.895   7.514  0.3823 -0.9617  0.3769
  757MOL0     C 2070  10.630   2.847   7.660 -0.7559  0.4025 -1.0436
  757MOL0     C 2071  10.503   2.803   7.732 -1.0575  0.5052  0.3920
  757MOL0     C 2072  10.524   2.782   7.882 -0.3893  0.0745  0.2282
  757MOL0     C 2073  10.419   2.698   7.949  0.8463 -1.0058 -0.2490
  757MOL0     C 2074  10.464   2.628   8.077  0.6294 -0.0357  0.1882
  757MOL0     C 2075  10.498   2.728   8.192  0.0693  0.0738  1.1079
  757MOL0     C 2076  10.534   2.668   8.330  0.6976 -0.2911 -0.3507
  757MOL0     N 2077  10.535   2.771   8.433 -0.2868  0.5247 -0.2517
  757MOL0     C 2078  10.637   2.813   8.523 -0.1703 -0.7166  0.4899
  757MOL0     C 2079  10.580   2.898   8.612  0.3157 -0.0613  0.5062
  757MOL0     C 2080  10.658   2.974   8.722 -0.1396 -0.0868 -0.8404
  757MOL0     C 2081  10.570   3.005   8.846  0.9212 -0.0582  0.4366
  757MOL0     C 2082  10.505   2.877   8.892 -0.0256  1.1882 -0.1366
  757MOL0     C 2083  10.397   2.920   9.002 -0.9418 -1.1521  0.6301
  757MOL0     O 2084  10.298   2.824   9.004 -0.1915 -0.0461 -0.0673
  757MOL0     C 2085  10.197   2.830   8.912  0.4818 -0.4342 -0.6112
  757MOL0     C 2086  10.186   2.909   8.796 -0.1519 -0.5098 -0.2518
  757MOL0     C 2087  10.072   2.899   8.724 -0.3598 -0.1090  0.0509
  757MOL0     C 2088  10.080   2.984   8.596 -0.8076  0.5362  0.7174
  757MOL0     C 2089   9.964   2.812   8.756 -1.1323 -0.4102 -0.4384
  757MOL0     C 2090   9.837   2.791   8.684 -1.0811 -0.5132 -0.0907
  757MOL0     O 2091   9.766   2.682   8.716  0.7936 -0.7710  0.1668
  757MOL0     C 2092   9.632   2.672   8.680 -0.4499  0.5597 -0.0603
  757MOL0     C 2093   9.540   2.777   8.693 -0.4096 -0.1623  0.0093
  757MOL0     C 2094   9.401   2.749   8.691 -0.4907  0.7968  0.2571
  757MOL0     C 2095   9.362   2.620   8.650  0.6995  0.0264  0.0497
  757MOL0     O 2096   9.231   2.583   8.624 -0.5189  0.1059  0.5086
  757MOL0     C 2097   9.136   2.682   8.573 -0.5652  0.0552 -0.6714
  757MOL0     C 2098   9.006   2.618   8.619  0.3965  0.0649  0.5060
  757MOL0     C 2099   8.880   2.688   8.573  0.3489 -0.6553 -0.1162
  757MOL0     C 2100   8.761   2.598   8.584  0.8353 -0.4245 -0.0915
  757MOL0     C 2101   8.626   2.671   8.565 -1.2442 -0.1693 -0.0973
  757MOL0     C 2102   8.595   2.714   8.427  0.2781  0.2294 -0.6585
  757MOL0     C 2103   8.444   2.746   8.410  0.7275  0.3329  0.5373
  757MOL0     C 2104   8.335   2.640   8.423 -0.5551 -0.3637 -0.5535
  757MOL0    Cl 2105   8.177   2.717   8.428 -0.3006 -0.0700  0.4503
  757MOL0     C 2106   9.457   2.518   8.631 -0.8514  0.4122  0.2323
  757MOL0     C 2107   9.593   2.541   8.653  0.3920  0.6092 -0.1410
  757MOL0     O 2108   9.803   2.871   8.595 -0.9067 -0.4816 -0.2567
  757MOL0     C 2109   9.977   2.737   8.877 -0.0846 -0.0043  0.1436
  757MOL0     C 2110  10.085   2.752   8.960  1.1103 -0.0801 -0.8625
  757MOL0     N 2111  10.448   2.906   8.579  0.4808  0.2332  1.0273
  757MOL0     N 2112  10.423   2.829   8.476  0.2677  0.7251 -0.1666
  757MOL0     C 2113  10.660   2.941   7.225  0.4268 -0.8529  0.5683
  757MOL0     C 2114  10.694   2.960   7.087  0.0724  0.3248 -0.1427
  757MOL0     C 2115  10.931   2.890   6.713 -0.2186 -0.0134  0.1325
  757MOL0     C 2116  11.066   2.886   6.666  0.1107  0.1535 -0.5345
  757MOL0     C 2117  11.106   2.870   6.535 -0.4842  0.3300  0.0345
  757MOL0     C 2118  11.016   2.876   6.434 -0.0474 -0.4604  0.4804
  757MOL0     O 2119  11.072   2.897   6.309 -0.4962  0.1162  0.1618
  757MOL0     C 2120  10.998   2.895   6.192  0.1718 -0.4207  0.7533
  757MOL0     C 2121  11.095   2.923   6.074 -0.7984 -0.2264  0.8509
  757MOL0     C 2122  11.167   3.058   6.079  0.1650  0.3762 -0.1672
  757MOL0     C 2123  11.250   3.100   5.951  0.6354  0.1363 -0.5477
  757MOL0     C 2124  11.333   2.992   5.897 -0.5516 -0.4495 -0.2682
  757MOL0     C 2125  11.410   2.908   5.857 -0.2139 -0.0849 -1.3840
  757MOL0     C 2126  10.874   2.889   6.474 -0.7645  0.2166  0.2270
  757MOL0     C 2127  10.830   2.892   6.611 -0.0492  0.4504  0.0349
  757MOL0     H 2128  10.737   2.622   7.021 -0.1332  0.2044  1.6025
  757MOL0     H 2129  10.655   2.605   7.256 -3.1886  0.0785 -0.0512
  757MOL0     H 2130  10.697   2.965   7.482  0.3671 -0.7577  0.7726
  757MOL0     H 2131  10.533   2.963   7.504  2.3123  1.4731 -0.8672
  757MOL0     H 2132  10.698   2.761   7.649  1.9064  2.4003 -1.3925
  757MOL0     H 2133  10.688   2.923   7.713  0.1890 -0.0160 -1.4361
  757MOL0     H 2134  10.435   2.887   7.714 -1.3459 -0.0020 -1.0257
  757MOL0     H 2135  10.470   2.710   7.685  1.0857 -0.1550  0.1249
  757MOL0     H 2136  10.621   2.735   7.898 -0.0338  0.8186  0.2811
  757MOL0     H 2137  10.535   2.882   7.925  1.6629 -0.9609  2.2635
  757MOL0     H 2138  10.333   2.761   7.974  0.8618 -1.2917  0.5631
  757MOL0     H 2139  10.381   2.624   7.877 -0.6643 -0.6061  0.1107
  757MOL0     H 2140  10.380   2.568   8.115 -0.0276  0.4354 -0.4957
  757MOL0     H 2141  10.554   2.567   8.065 -0.8599 -2.2746 -0.2233
  757MOL0     H 2142  10.578   2.797   8.163 -1.3641  1.3969  0.1050
  757MOL0     H 2143  10.410   2.794   8.199  0.2734  0.8751 -2.2362
  757MOL0     H 2144  10.632   2.619   8.331  0.9483  0.1759  1.5273
  757MOL0     H 2145  10.457   2.597   8.361  1.7720 -2.4511 -2.3255
  757MOL0     H 2146  10.738   2.774   8.526 -0.0014 -0.3042  0.2642
  757MOL0     H 2147  10.753   2.921   8.738 -1.3370 -2.5573 -1.4874
  757MOL0     H 2148  10.691   3.072   8.687 -0.4994  1.2307  2.2297
  757MOL0     H 2149  10.493   3.069   8.802  2.1567  2.0052  1.1837
  757MOL0     H 2150  10.621   3.048   8.932  3.0616 -2.7247  0.6556
  757MOL0     H 2151  10.574   2.811   8.945 -0.3452 -0.6091 -1.8314
  757MOL0     H 2152  10.456   2.820   8.813 -0.6993  1.8139 -0.1854
  757MOL0     H 2153  10.368   3.026   8.998  1.3028 -0.5187 -1.4660
  757MOL0     H 2154  10.432   2.916   9.106  0.0344 -1.2191  0.3029
  757MOL0     H 2155  10.268   2.972   8.763  0.3762  1.8433  4.6244
  757MOL0     H 2156  10.179   3.029   8.581 -1.7175  2.2155 -0.6005
  757MOL0     H 2157  10.058   2.916   8.513 -0.1742  2.6551 -1.2938
  757MOL0     H 2158   9.998   3.056   8.599 -1.2385  0.1119 -0.3309
  757MOL0     H 2159   9.582   2.875   8.713 -0.9234  0.2941 -1.0699
  757MOL0     H 2160   9.323   2.824   8.697 -2.0085 -0.6121 -0.9980
  757MOL0     H 2161   9.152   2.783   8.610 -0.8901 -0.2490  0.3395
  757MOL0     H 2162   9.139   2.698   8.465 -2.0869  2.5401 -0.4063
  757MOL0     H 2163   9.013   2.514   8.584  0.4494 -0.2920  1.5502
  757MOL0     H 2164   9.000   2.600   8.727 -0.1558 -1.3065  0.2698
  757MOL0     H 2165   8.892   2.712   8.466  1.4116  1.2564  0.3906
  757MOL0     H 2166   8.857   2.780   8.626 -1.3902  1.3154 -3.8493
  757MOL0     H 2167   8.757   2.533   8.496 -0.7729  1.7756 -1.7450
  757MOL0     H 2168   8.772   2.545   8.679  0.0951 -0.1399  0.1588
  757MOL0     H 2169   8.625   2.758   8.631  1.4729  0.6382 -1.0001
  757MOL0     H 2170   8.534   2.616   8.589 -1.8742  0.4550 -1.0287
  757MOL0     H 2171   8.659   2.796   8.391  0.0579 -0.5283 -2.9286
  757MOL0     H 2172   8.620   2.632   8.359 -2.6530 -0.5492 -0.9072
  757MOL0     H 2173   8.433   2.776   8.305 -2.7255 -3.4881 -0.4546
  757MOL0     H 2174   8.415   2.835   8.468  0.7026  1.3472 -0.9635
  757MOL0     H 2175   8.344   2.583   8.516 -2.1359 -1.3918 -0.9814
  757MOL0     H 2176   8.345   2.573   8.338  2.4171  1.3927 -1.7204
  757MOL0     H 2177   9.436   2.415   8.605 -1.0274  0.5306 -0.1160
  757MOL0     H 2178   9.664   2.460   8.649 -0.0009 -0.0464  3.3140
  757MOL0     H 2179   9.888   2.687   8.915 -0.4574  0.1657 -0.4796
  757MOL0     H 2180  10.080   2.697   9.054  0.1933 -0.7727 -1.2940
  757MOL0     H 2181  10.642   3.029   7.286 -1.5654 -1.1056  0.4104
  757MOL0     H 2182  10.709   3.055   7.039  2.8350  1.9893  3.4986
  757MOL0     H 2183  11.142   2.900   6.742 -0.6322  1.7450 -0.0504
  757MOL0     H 2184  11.210   2.855   6.506 -0.3569  1.3010 -0.0342
  757MOL0     H 2185  10.952   2.796   6.176 -0.2755  0.1973 -2.4232
  757MOL0     H 2186  10.917   2.969   6.193 -1.0741 -1.7303  1.4221
  757MOL0     H 2187  11.034   2.928   5.983  1.9547  4.2235 -1.1122
  757MOL0     H 2188  11.165   2.839   6.071 -0.2030  0.2010  2.0157
  757MOL0     H 2189  11.242   3.045   6.157  0.6739 -1.0223 -0.8448
  757MOL0     H 2190  11.107   3.146   6.105 -0.2223 -0.4058  1.7847
  757MOL0     H 2191  11.311   3.183   5.987 -0.6582  0.3910  1.1793
  757MOL0     H 2192  11.192   3.139   5.867 -0.5327  1.0953  0.6768
  757MOL0     H 2193  11.489   2.838   5.835 -1.9615 -2.1014 -1.5956
  757MOL0     H 2194  10.798   2.890   6.397 -1.2059  1.1518  0.6645
  757MOL0     H 2195  10.723   2.896   6.629 -0.3391 -1.9798 -0.7904
  758MOL0     O 2196   0.338  10.387   5.494 -0.1259 -0.1827  0.1179
  758MOL0     C 2197   0.332  10.280   5.439  0.5793  0.6674 -0.8354
  758MOL0     O 2198   0.238  10.177   5.479  0.1426  1.3612 -0.2367
  758MOL0     C 2199   0.153  10.214   5.582  1.2537  0.8349  0.5098
  758MOL0     C 2200   0.180  10.276   5.707  0.0257  0.3318 -0.2634
  758MOL0     C 2201   0.075  10.289   5.800  0.3264 -1.0175 -0.6751
  758MOL0     C 2202  -0.060  10.255   5.781  0.0836 -0.0890 -0.6012
  758MOL0     O 2203  -0.156  10.258   5.878 -0.2770  0.7347  0.4651
  758MOL0     C 2204  -0.174  10.388   5.942 -0.9585  0.2640  0.0389
  758MOL0     C 2205  -0.281  10.408   6.050  0.8154 -0.1219 -0.1795
  758MOL0     C 2206  -0.421  10.334   6.020 -0.7435 -0.2878 -0.6520
  758MOL0     C 2207  -0.529  10.336   6.129  0.7474 -0.5115 -0.0826
  758MOL0     C 2208  -0.640  10.229   6.132  0.3210 -0.0733  0.4075
  758MOL0     C 2209  -0.741  10.232   6.009  0.3522 -0.0218 -0.1636
  758MOL0     C 2210  -0.821  10.367   6.006  0.1039  0.0719  0.3425
  758MOL0     C 2211  -0.923  10.395   6.123 -0.6089 -0.7368 -0.0600
  758MOL0     N 2212  -0.988  10.286   6.194  0.6171 -0.2199 -0.7469
  758MOL0     C 2213  -1.067  10.191   6.141  0.6003 -0.6455  0.0098
  758MOL0     C 2214  -1.106  10.107   6.234 -0.5414 -0.4924 -0.2638
  758MOL0     C 2215  -1.201   9.995   6.206  0.5070 -0.8251 -0.3625
  758MOL0     C 2216  -1.347  10.045   6.221 -0.2346  0.1638  0.2934
  758MOL0     C 2217  -1.445   9.942   6.251  0.0502 -0.3936  0.3459
  758MOL0     C 2218  -1.431   9.803   6.174  0.3534 -0.1849 -0.1681
  758MOL0     O 2219  -1.530   9.707   6.223  0.4234 -0.4241 -0.2435
  758MOL0     C 2220  -1.666   9.702   6.191 -1.0273 -0.8739 -0.7375
  758MOL0     C 2221  -1.744   9.611   6.255  1.1327 -0.6630  0.4197
  758MOL0     C 2222  -1.878   9.600   6.222  0.3314  0.0786  0.2011
  758MOL0     C 2223  -1.953   9.487   6.306  0.0024  0.2690  0.2250
  758MOL0     C 2224  -1.946   9.689   6.133 -1.2987  1.0639 -0.2213
  758MOL0     C 2225  -2.090   9.701   6.108 -0.6012 -0.8514  1.1087
  758MOL0     O 2226  -2.163   9.630   6.194  0.0903  0.4151 -0.3224
  758MOL0     C 2227  -2.296   9.630   6.181 -0.2499 -0.5549  0.4175
  758MOL0     C 2228  -2.382   9.650   6.295  0.7925  0.6324 -0.6469
  758MOL0     C 2229  -2.519   9.639   6.290  0.3937 -0.0801  0.1317
  758MOL0     C 2230  -2.578   9.609   6.167  0.7823  0.0758 -0.5027
  758MOL0     O 2231  -2.712   9.610   6.169  0.0659  0.2864 -0.7201
  758MOL0     C 2232  -2.783   9.548   6.062  0.4855  0.9786 -0.2235
  758MOL0     C 2233  -2.936   9.539   6.105 -0.2119  1.1662 -0.0406
  758MOL0     C 2234  -3.027   9.538   5.986  0.3876  0.5524  0.8399
  758MOL0     C 2235  -3.165   9.586   6.039  0.3073 -0.2674  0.9144
  758MOL0     C 2236  -3.286   9.552   5.947 -0.0710 -0.3603 -0.0335
  758MOL0     C 2237  -3.309   9.407   5.907 -0.7090 -0.1327 -0.6782
  758MOL0     C 2238  -3.429   9.384   5.813  0.4086 -0.4207 -0.5519
  758MOL0     C 2239  -3.564   9.423   5.875 -0.3124 -0.2082  0.1904
  758MOL0    Cl 2240  -3.595   9.348   6.032  0.0512 -0.0432  0.6654
  758MOL0     C 2241  -2.500   9.603   6.053  0.0813 -0.8755  0.1555
  758MOL0     C 2242  -2.359   9.596   6.059 -0.2422 -0.6819 -0.1980
  758MOL0     O 2243  -2.130   9.789   6.027  0.5347 -0.1401  0.2227
  758MOL0     C 2244  -1.861   9.781   6.068  0.3677 -0.8769  1.2017
  758MOL0     C 2245  -1.725   9.791   6.093  0.3851 -1.1896 -0.2646
  758MOL0     N 2246  -1.054  10.155   6.352  0.1568  0.3438 -0.0454
  758MOL0     N 2247  -0.976  10.261   6.329  0.2546 -0.8611  0.2122
  758MOL0     C 2248  -0.084  10.188   5.662  0.7333  0.0260  0.6676
  758MOL0     C 2249   0.015  10.169   5.562  0.2116  0.2192 -0.1760
  758MOL0     C 2250   0.422  10.249   5.327  0.4007 -0.1919  1.3540
  758MOL0     C 2251   0.544  10.315   5.302  0.7102 -0.1360  0.0367
  758MOL0     C 2252   0.623  10.289   5.188 -0.1695  0.0103  1.0625
  758MOL0     C 2253   0.583  10.188   5.099 -0.1320 -0.5652 -0.3456
  758MOL0     O 2254   0.678  10.158   5.005  0.0787  0.8843 -0.3177
  758MOL0     C 2255   0.645  10.069   4.900  0.3578  0.0834 -1.1940
  758MOL0     C 2256   0.758  10.076   4.800 -0.4934 -0.3168  0.3774
  758MOL0     C 2257   0.791  10.217   4.739  0.1460  1.0476 -0.3816
  758MOL0     C 2258   0.895  10.199   4.624  0.5094 -0.1104  0.4963
  758MOL0     C 2259   0.845  10.116   4.508 -0.1278 -0.3102 -0.7220
  758MOL0     C 2260   0.806  10.070   4.407 -0.2508  1.3549  1.3198
  758MOL0     C 2261   0.459  10.117   5.123  0.2812  0.0825 -0.5906
  758MOL0     C 2262   0.387  10.143   5.240 -0.2244 -0.6814 -0.6919
  758MOL0     H 2263   0.282  10.300   5.734  0.3790  1.8129 -2.6745
  758MOL0     H 2264   0.098  10.341   5.893  0.5432 -0.5222 -1.0035
  758MOL0     H 2265  -0.077  10.425   5.975  1.0988 -2.5985 -2.2807
  758MOL0     H 2266  -0.200  10.453   5.857  2.7583  0.8921 -0.8006
  758MOL0     H 2267  -0.235  10.367   6.140 -1.8897  0.2521  1.4838
  758MOL0     H 2268  -0.309  10.513   6.066 -1.2509 -0.9779  2.7174
  758MOL0     H 2269  -0.474  10.376   5.934 -1.3250 -1.6753 -0.9891
  758MOL0     H 2270  -0.397  10.228   6.009 -0.4580 -0.4316  1.1241
  758MOL0     H 2271  -0.477  10.325   6.225  0.9638 -0.2403 -0.1680
  758MOL0     H 2272  -0.578  10.433   6.134  0.8703 -0.4621  0.1730
  758MOL0     H 2273  -0.589  10.133   6.120  0.3511 -0.0895  0.6608
  758MOL0     H 2274  -0.690  10.220   6.228  2.2082  0.2290  1.4704
  758MOL0     H 2275  -0.683  10.219   5.917  0.7514 -1.3950  0.2566
  758MOL0     H 2276  -0.814  10.151   6.017  0.5127 -0.0614  1.1541
  758MOL0     H 2277  -0.751  10.447   5.979 -0.0563 -0.8864 -3.5174
  758MOL0     H 2278  -0.881  10.359   5.915  1.6498 -4.0276 -0.5425
  758MOL0     H 2279  -0.994  10.469   6.085  0.4483  1.7109  2.3840
  758MOL0     H 2280  -0.856  10.443   6.195  1.3179 -0.9159 -1.6455
  758MOL0     H 2281  -1.084  10.179   6.034 -1.6510  3.3187 -0.2612
  758MOL0     H 2282  -1.189   9.954   6.105  0.0372  0.6945 -1.0549
  758MOL0     H 2283  -1.184   9.917   6.280 -0.8088 -0.3519  0.4581
  758MOL0     H 2284  -1.392  10.079   6.127 -2.4536 -2.1173  0.4258
  758MOL0     H 2285  -1.354  10.123   6.298  1.4793  1.4331 -0.7601
  758MOL0     H 2286  -1.548   9.977   6.249  0.8684  2.7532  3.4080
  758MOL0     H 2287  -1.426   9.911   6.354  0.7388  1.4680  0.8169
  758MOL0     H 2288  -1.335   9.761   6.203  0.1369  0.4025  1.6003
  758MOL0     H 2289  -1.447   9.815   6.067 -0.6447 -0.2491 -0.0377
  758MOL0     H 2290  -1.696   9.546   6.327  1.2088 -0.7928  0.2523
  758MOL0     H 2291  -2.023   9.533   6.376  0.2691  1.0135  0.0029
  758MOL0     H 2292  -1.998   9.408   6.244  0.3256  0.3459 -0.1122
  758MOL0     H 2293  -1.884   9.429   6.368  1.5589  2.3894  0.5846
  758MOL0     H 2294  -2.321   9.671   6.383 -0.4329 -1.2469  0.7194
  758MOL0     H 2295  -2.580   9.657   6.377 -0.0685 -1.1601  0.0460
  758MOL0     H 2296  -2.769   9.620   5.982 -1.7423  0.9917 -0.6632
  758MOL0     H 2297  -2.749   9.449   6.029 -1.3052 -0.4877  1.9798
  758MOL0     H 2298  -2.943   9.447   6.164  3.4706  1.6235  1.3997
  758MOL0     H 2299  -2.951   9.621   6.175  0.0403 -0.1135  1.5778
  758MOL0     H 2300  -3.025   9.435   5.949  2.1443  0.5462  0.8772
  758MOL0     H 2301  -2.995   9.597   5.900  0.0513  2.3128  1.8809
  758MOL0     H 2302  -3.171   9.538   6.137 -0.4588 -1.0293  0.5081
  758MOL0     H 2303  -3.169   9.695   6.041  0.2308 -0.2451 -0.0863
  758MOL0     H 2304  -3.292   9.609   5.854 -3.4648  0.8826  0.7827
  758MOL0     H 2305  -3.372   9.575   6.011  0.1244 -0.7003  0.3576
  758MOL0     H 2306  -3.218   9.373   5.858 -1.3811 -0.2383 -1.8996
  758MOL0     H 2307  -3.321   9.341   5.994 -0.2568 -1.4345 -1.5673
  758MOL0     H 2308  -3.435   9.279   5.784  0.4134 -0.9444  1.1855
  758MOL0     H 2309  -3.404   9.439   5.722  0.8341 -0.6680 -0.5885
  758MOL0     H 2310  -3.641   9.401   5.801 -2.8250  1.6098  2.1061
  758MOL0     H 2311  -3.572   9.530   5.898  1.5011  0.0719 -0.2964
  758MOL0     H 2312  -2.547   9.609   5.956  0.0857  0.3605  0.2068
  758MOL0     H 2313  -2.308   9.572   5.966  0.5484 -0.1124  0.0837
  758MOL0     H 2314  -1.902   9.839   5.986  0.0943 -1.1357  1.1532
  758MOL0     H 2315  -1.656   9.845   6.030  0.5622  2.4781  2.7224
  758MOL0     H 2316  -0.180  10.138   5.657  0.8483 -0.0689 -2.4685
  758MOL0     H 2317  -0.008  10.116   5.470 -2.1274  1.5636 -0.4501
  758MOL0     H 2318   0.585  10.397   5.360 -0.2061 -0.6604  1.4756
  758MOL0     H 2319   0.719  10.338   5.173 -0.9625  0.8911 -1.8056
  758MOL0     H 2320   0.632   9.971   4.945 -1.8774 -0.5687 -3.0648
  758MOL0     H 2321   0.549  10.092   4.852 -1.6441 -0.7015  2.1473
  758MOL0     H 2322   0.741  10.003   4.721 -3.0088 -0.5407  1.0598
  758MOL0     H 2323   0.842  10.042   4.862  0.0772 -1.2511 -0.8739
  758MOL0     H 2324   0.836  10.283   4.814  1.7959 -1.1616  0.6629
  758MOL0     H 2325   0.696  10.258   4.703 -0.1676  1.0393  0.4080
  758MOL0     H 2326   0.982  10.151   4.670 -1.0717 -0.2869  3.5408
  758MOL0     H 2327   0.932  10.294   4.585 -0.1882  0.7186  1.7826
  758MOL0     H 2328   0.779  10.011   4.322  4.5398  1.0220 -0.2222
  758MOL0     H 2329   0.414  10.044   5.058 -0.9470  0.3479 -0.0677
  758MOL0     H 2330   0.294  10.089   5.255  0.7604 -1.9996  1.1375
  759MOL0     O 2331   4.064   4.699   9.857 -0.2342  0.1226 -0.1008
  759MOL0     C 2332   4.090   4.811   9.859  0.5529 -0.6032  0.6391
  759MOL0     O 2333   4.001   4.910   9.890 -0.0002 -0.0441 -0.3653
  759MOL0     C 2334   3.870   4.883   9.923  0.0168 -0.2392  0.0753
  759MOL0     C 2335   3.768   4.979   9.892  0.6994  0.5827  0.9502
  759MOL0     C 2336   3.636   4.968   9.945 -0.4314  0.0577 -0.0764
  759MOL0     C 2337   3.600   4.853  10.019 -0.7433 -0.1102  0.3020
  759MOL0     O 2338   3.474   4.818  10.064  0.4400 -0.5801  0.4153
  759MOL0     C 2339   3.368   4.920  10.060 -0.1920  0.4858  0.8677
  759MOL0     C 2340   3.240   4.853  10.087  0.2836 -0.4395  0.5792
  759MOL0     C 2341   3.117   4.943  10.057  0.5412 -0.6808 -0.0261
  759MOL0     C 2342   3.005   4.898  10.150 -0.5004 -0.1662 -0.5430
  759MOL0     C 2343   2.907   5.010  10.176 -0.2512 -0.1932  0.4364
  759MOL0     C 2344   2.778   4.949  10.234  0.1620 -1.2136 -0.3999
  759MOL0     C 2345   2.667   5.054  10.251 -0.1224 -0.3814 -0.2060
  759MOL0     C 2346   2.536   4.989  10.262 -0.5765 -0.0434 -0.4099
  759MOL0     N 2347   2.431   5.081  10.311  0.1518  0.5472  0.0091
  759MOL0     C 2348   2.415   5.217  10.285 -0.7520  0.3318 -0.2302
  759MOL0     C 2349   2.302   5.262  10.346 -0.2263 -0.6113  0.3538
  759MOL0     C 2350   2.257   5.403  10.359 -0.0539 -0.2267 -0.4189
  759MOL0     C 2351   2.168   5.439  10.233  0.2103 -0.6496 -0.0224
  759MOL0     C 2352   2.125   5.584  10.230 -0.0169  0.3861 -0.0917
  759MOL0     C 2353   2.034   5.631  10.347  0.0762 -0.0288  0.2091
  759MOL0     O 2354   2.007   5.764  10.312  0.2714  0.3418  0.8100
  759MOL0     C 2355   1.880   5.804  10.320  1.2967 -0.2493  0.0716
  759MOL0     C 2356   1.773   5.736  10.391 -0.7278 -0.6649  0.0209
  759MOL0     C 2357   1.638   5.751  10.351  0.1705 -0.0508  0.2775
  759MOL0     C 2358   1.533   5.671  10.421 -0.2062  0.5977 -0.5996
  759MOL0     C 2359   1.609   5.857  10.258  0.4781 -0.4312 -0.5866
  759MOL0     C 2360   1.469   5.876  10.216 -0.6793 -0.0187 -0.5033
  759MOL0     O 2361   1.410   5.990  10.248  0.1020  0.8156  0.5266
  759MOL0     C 2362   1.275   5.988  10.234  0.6413  0.7123  0.2089
  759MOL0     C 2363   1.202   5.982  10.344  0.8830  0.0086 -1.2207
  759MOL0     C 2364   1.061   5.988  10.339 -0.2858  0.4046  0.5672
  759MOL0     C 2365   0.997   5.993  10.217 -0.1543  0.9203  0.1628
  759MOL0     O 2366   0.862   6.023  10.222  0.6401 -0.6322  0.3444
  759MOL0     C 2367   0.788   5.903  10.249  0.9202 -0.2863  0.8411
  759MOL0     C 2368   0.632   5.933  10.210  0.1706  0.9055  0.1670
  759MOL0     C 2369   0.576   6.046  10.300  0.3448 -0.7553  1.0151
  759MOL0     C 2370   0.425   6.046  10.286  0.0146  0.0913  0.1547
  759MOL0     C 2371   0.364   5.935  10.376  0.8897 -0.1416  0.2824
  759MOL0     C 2372   0.213   5.919  10.351 -0.7152 -0.2123 -0.1689
  759MOL0     C 2373   0.139   5.808  10.426 -0.1584  0.4780 -0.0749
  759MOL0     C 2374  -0.007   5.784  10.373 -0.3501 -0.0648  0.5925
  759MOL0    Cl 2375  -0.122   5.908  10.404  0.3012 -0.0377  0.1652
  759MOL0     C 2376   1.072   5.997  10.096  1.2527  0.2265 -0.5949
  759MOL0     C 2377   1.211   5.991  10.106 -0.1369 -0.3717 -0.1987
  759MOL0     O 2378   1.428   5.785  10.146  0.0155  0.3537  0.0322
  759MOL0     C 2379   1.707   5.936  10.200 -0.2015  1.0838  0.0455
  759MOL0     C 2380   1.844   5.901  10.226 -0.2303  0.0609 -0.0213
  759MOL0     N 2381   2.248   5.148  10.406  0.9588 -0.0550 -0.3957
  759MOL0     N 2382   2.320   5.044  10.388 -0.1815 -0.9444 -0.3820
  759MOL0     C 2383   3.700   4.772  10.061  0.1586  0.5936  0.4989
  759MOL0     C 2384   3.833   4.786  10.019 -0.3999  0.4307  0.1018
  759MOL0     C 2385   4.222   4.867   9.815  0.0410 -0.3421  1.1011
  759MOL0     C 2386   4.330   4.784   9.803 -0.1800  0.1476  0.0999
  759MOL0     C 2387   4.461   4.836   9.783  0.6194 -0.4334 -0.7466
  759MOL0     C 2388   4.475   4.982   9.766 -0.1947 -0.4750  1.1400
  759MOL0     O 2389   4.590   5.052   9.741 -0.2254  0.2817 -0.5625
  759MOL0     C 2390   4.692   4.979   9.695  0.1427  0.0354  0.0495
  759MOL0     C 2391   4.820   5.054   9.673  0.4102 -0.2147 -0.0469
  759MOL0     C 2392   4.922   4.977   9.590 -0.1881 -0.6430  0.3284
  759MOL0     C 2393   5.040   5.075   9.565 -0.0532 -0.0075  0.6859
  759MOL0     C 2394   5.012   5.194   9.494 -0.1012 -0.4773  0.6673
  759MOL0     C 2395   4.992   5.300   9.440  0.4079 -0.1633 -0.3080
  759MOL0     C 2396   4.362   5.057   9.763  0.0325 -0.5030  0.3578
  759MOL0     C 2397   4.238   5.001   9.784  0.5943  0.4677  0.1041
  759MOL0     H 2398   3.795   5.065   9.831  0.6476 -0.5394 -0.7158
  759MOL0     H 2399   3.571   5.055   9.936  0.3226  0.6215 -0.2160
  759MOL0     H 2400   3.388   4.990  10.142 -0.6358 -0.8491  2.1532
  759MOL0     H 2401   3.367   4.961   9.958 -3.8865 -0.5837  0.3213
  759MOL0     H 2402   3.219   4.774  10.015 -2.6579  1.4086 -0.8286
  759MOL0     H 2403   3.240   4.815  10.189  0.8983  2.7596  1.9145
  759MOL0     H 2404   3.150   5.047  10.072  0.8696 -0.8613  0.5603
  759MOL0     H 2405   3.087   4.937   9.952 -3.3753 -0.7285  0.9486
  759MOL0     H 2406   2.953   4.810  10.111  1.2565 -1.2517 -0.5560
  759MOL0     H 2407   3.036   4.863  10.248  0.1989 -2.6756 -1.5734
  759MOL0     H 2408   2.950   5.090  10.236  0.5142 -0.1577 -0.1513
  759MOL0     H 2409   2.874   5.055  10.082 -0.9154  4.4398  2.6157
  759MOL0     H 2410   2.743   4.873  10.164  0.4805 -2.7866  1.0802
  759MOL0     H 2411   2.809   4.900  10.327  0.9928 -0.7655 -0.4333
  759MOL0     H 2412   2.702   5.121  10.330 -2.7718  0.3116  0.5035
  759MOL0     H 2413   2.684   5.112  10.159  1.1523 -2.0151 -1.0495
  759MOL0     H 2414   2.534   4.912  10.339  0.6076  0.7064  0.4009
  759MOL0     H 2415   2.503   4.933  10.173 -0.9540  1.5189 -1.2951
  759MOL0     H 2416   2.490   5.269  10.225  0.3853 -1.4481 -0.4374
  759MOL0     H 2417   2.200   5.414  10.452 -0.7974 -3.1978 -0.4250
  759MOL0     H 2418   2.351   5.457  10.355  0.0826 -0.5177 -1.5276
  759MOL0     H 2419   2.076   5.381  10.238  0.3879 -0.9471 -0.1642
  759MOL0     H 2420   2.222   5.410  10.142 -0.3111 -2.4052  0.1831
  759MOL0     H 2421   2.069   5.599  10.138  0.2701 -0.0608 -0.3429
  759MOL0     H 2422   2.200   5.663  10.217 -0.7937  0.7258 -3.2936
  759MOL0     H 2423   2.079   5.622  10.446  2.2219  0.3234 -0.6893
  759MOL0     H 2424   1.941   5.573  10.335 -1.5178  2.2886  0.6193
  759MOL0     H 2425   1.793   5.667  10.473 -1.2715  2.5255  3.0629
  759MOL0     H 2426   1.572   5.622  10.510 -1.5419  0.1240 -0.2416
  759MOL0     H 2427   1.458   5.739  10.461 -0.5938 -0.4499  0.5395
  759MOL0     H 2428   1.484   5.599  10.354 -1.0430  2.2402 -1.8100
  759MOL0     H 2429   1.252   5.993  10.439 -1.3167  2.7276 -0.2212
  759MOL0     H 2430   0.992   5.985  10.423 -0.2924  1.2263  0.5975
  759MOL0     H 2431   0.825   5.819  10.189  0.6832 -0.1532  0.5089
  759MOL0     H 2432   0.795   5.869  10.353 -0.5723 -1.6438  0.5351
  759MOL0     H 2433   0.622   5.955  10.103  1.6889 -0.2610 -0.2392
  759MOL0     H 2434   0.579   5.839  10.227  1.0668  0.5108  0.8151
  759MOL0     H 2435   0.630   6.136  10.271  1.6277 -2.6253 -3.2175
  759MOL0     H 2436   0.603   6.026  10.404 -1.2266  1.2351  1.8766
  759MOL0     H 2437   0.385   6.145  10.312  1.7138  0.7501  0.4166
  759MOL0     H 2438   0.396   6.040  10.181  1.1413  1.7032 -0.2904
  759MOL0     H 2439   0.369   5.958  10.483  4.3529 -0.0963  0.2245
  759MOL0     H 2440   0.422   5.843  10.375 -0.1084 -0.8168 -2.2153
  759MOL0     H 2441   0.166   6.013  10.381  0.9990  0.1439  1.5850
  759MOL0     H 2442   0.199   5.915  10.242 -0.3343  0.7974 -0.2688
  759MOL0     H 2443   0.127   5.835  10.531  0.0763 -1.7762  0.5715
  759MOL0     H 2444   0.200   5.721  10.400  1.7238  2.1886 -1.8411
  759MOL0     H 2445  -0.044   5.687  10.408 -0.7103 -1.3396 -2.9168
  759MOL0     H 2446   0.002   5.769  10.265  0.4714 -5.1530  1.1227
  759MOL0     H 2447   1.022   5.993   9.999  1.5709 -0.8642 -0.7339
  759MOL0     H 2448   1.283   6.010  10.026  0.1190  2.5793  0.6058
  759MOL0     H 2449   1.675   6.018  10.136  0.2911  1.7885  0.6775
  759MOL0     H 2450   1.925   5.946  10.169  1.5033 -1.5052  1.0716
  759MOL0     H 2451   3.666   4.710  10.143  0.3422 -1.3401 -0.8264
  759MOL0     H 2452   3.908   4.716  10.054 -3.0572 -2.5614  0.1879
  759MOL0     H 2453   4.318   4.677   9.819  0.8941  0.1595  1.0932
  759MOL0     H 2454   4.552   4.778   9.791  1.9469  1.7886  3.7705
  759MOL0     H 2455   4.710   4.900   9.769 -0.1658  0.5726  0.7135
  759MOL0     H 2456   4.658   4.946   9.596  1.6468  0.3379 -0.5945
  759MOL0     H 2457   4.869   5.081   9.767 -2.3321  2.5862  0.7445
  759MOL0     H 2458   4.779   5.140   9.619 -2.0174 -0.6197  0.9848
  759MOL0     H 2459   4.880   4.945   9.494  0.0797 -0.8176  0.2695
  759MOL0     H 2460   4.936   4.886   9.649 -3.0124 -1.2073  0.2792
  759MOL0     H 2461   5.108   5.014   9.505 -0.7435 -0.5734  0.4608
  759MOL0     H 2462   5.097   5.106   9.653  1.1316  1.1614 -0.4400
  759MOL0     H 2463   4.975   5.392   9.388 -1.3066  0.6554  1.5694
  759MOL0     H 2464   4.369   5.165   9.754  2.7138 -0.6766 -0.5078
  759MOL0     H 2465   4.151   5.066   9.781 -0.0925 -0.4509 -0.5378
  760MOL0     O 2466   9.812   6.012  10.752 -0.4020  0.4605  0.0942
  760MOL0     C 2467   9.843   5.892  10.761 -0.0014 -0.1830  1.3365
  760MOL0     O 2468   9.741   5.794  10.758 -0.2792  0.8346 -0.4706
  760MOL0     C 2469   9.612   5.837  10.757 -0.2951  0.1788 -0.0369
  760MOL0     C 2470   9.550   5.943  10.829  0.0153 -0.2581  0.2273
  760MOL0     C 2471   9.412   5.965  10.824  0.7425  0.1016 -0.4878
  760MOL0     C 2472   9.338   5.885  10.743  0.9750 -0.2822 -0.0735
  760MOL0     O 2473   9.209   5.926  10.732  0.8287 -0.4820 -0.2320
  760MOL0     C 2474   9.108   5.844  10.668 -0.7742  0.1959 -0.3000
  760MOL0     C 2475   8.967   5.905  10.678 -0.3025  0.2627  0.2761
  760MOL0     C 2476   8.867   5.833  10.584 -0.6357  0.4340  0.1072
  760MOL0     C 2477   8.769   5.936  10.528 -0.5531  0.3563  0.0088
  760MOL0     C 2478   8.657   5.881  10.446  1.4517 -0.2813  0.4804
  760MOL0     C 2479   8.550   5.992  10.421  0.1887  0.4982 -0.1103
  760MOL0     C 2480   8.472   5.925  10.302  0.0403 -0.2548 -1.0449
  760MOL0     C 2481   8.379   6.034  10.254 -0.3868  0.6798 -0.0072
  760MOL0     N 2482   8.272   5.978  10.170 -0.1380 -0.3660 -0.2980
  760MOL0     C 2483   8.305   5.920  10.050  0.0312  1.0518  0.2931
  760MOL0     C 2484   8.183   5.880   9.993  0.1733  1.0043 -0.0107
  760MOL0     C 2485   8.169   5.811   9.861  0.1967 -0.9168 -0.0745
  760MOL0     C 2486   8.073   5.702   9.850  0.0545 -0.3277 -1.0277
  760MOL0     C 2487   8.056   5.672   9.694  0.3939 -0.1664  0.0060
  760MOL0     C 2488   7.983   5.537   9.665 -0.5495  0.5098 -0.8911
  760MOL0     O 2489   7.856   5.535   9.715  0.3062  0.5086  0.4769
  760MOL0     C 2490   7.795   5.420   9.733  0.4797  0.5595  0.1430
  760MOL0     C 2491   7.823   5.307   9.652  0.4490 -0.4657 -0.0693
  760MOL0     C 2492   7.736   5.197   9.652 -0.3942  0.1486  0.0890
  760MOL0     C 2493   7.762   5.093   9.542 -0.8512 -0.4334  0.5051
  760MOL0     C 2494   7.628   5.194   9.740  0.4501 -0.0228 -0.0896
  760MOL0     C 2495   7.539   5.082   9.747  0.4797  0.3058  0.1317
  760MOL0     O 2496   7.410   5.105   9.781  0.5789 -0.5220 -0.3448
  760MOL0     C 2497   7.321   4.999   9.752 -0.2160  0.7140  0.0339
  760MOL0     C 2498   7.288   4.970   9.621 -0.7125 -0.5951  0.1002
  760MOL0     C 2499   7.187   4.870   9.602 -0.1268 -0.0587 -0.1917
  760MOL0     C 2500   7.124   4.804   9.705 -0.6420 -0.4136 -0.8259
  760MOL0     O 2501   7.013   4.735   9.682  0.3951  0.2596  0.0527
  760MOL0     C 2502   6.906   4.779   9.776  0.6193 -0.1417  1.9363
  760MOL0     C 2503   6.772   4.792   9.705 -0.9363 -0.3021  0.3423
  760MOL0     C 2504   6.654   4.813   9.793  0.0870  0.3713  0.2303
  760MOL0     C 2505   6.530   4.847   9.705  0.0824 -1.6925  0.2103
  760MOL0     C 2506   6.397   4.892   9.780 -0.6050  0.0191 -0.5403
  760MOL0     C 2507   6.290   4.919   9.678 -0.6261 -0.3910  0.2157
  760MOL0     C 2508   6.155   4.950   9.746 -0.3043 -0.4541 -0.0754
  760MOL0     C 2509   6.028   4.899   9.666 -0.4190 -0.0932  0.7546
  760MOL0    Cl 2510   6.022   4.725   9.678 -0.0316  0.0789  0.1659
  760MOL0     C 2511   7.167   4.823   9.837 -0.0308 -0.2368 -0.1458
  760MOL0     C 2512   7.261   4.923   9.860 -0.1435 -0.2907 -0.0561
  760MOL0     O 2513   7.581   4.971   9.722  0.7884 -0.3383 -1.0668
  760MOL0     C 2514   7.602   5.313   9.814  0.9070  0.0263 -0.5687
  760MOL0     C 2515   7.683   5.422   9.821 -0.4085 -0.3361  0.5803
  760MOL0     N 2516   8.087   5.909  10.086  0.2550  0.9371  0.6425
  760MOL0     N 2517   8.141   5.973  10.185  0.1754 -0.1475  0.3863
  760MOL0     C 2518   9.399   5.780  10.676  0.2276 -0.2427 -0.0603
  760MOL0     C 2519   9.536   5.755  10.677 -0.2912  0.0157  0.6665
  760MOL0     C 2520   9.988   5.857  10.763 -0.4266  0.2967 -0.0888
  760MOL0     C 2521  10.082   5.956  10.769 -0.2983  0.4571  0.0732
  760MOL0     C 2522  10.214   5.935  10.776  0.0669  0.1071 -1.3828
  760MOL0     C 2523  10.260   5.805  10.789  0.1962  0.0631 -0.3323
  760MOL0     O 2524  10.398   5.777  10.795 -0.1493 -0.2769  0.0753
  760MOL0     C 2525  10.493   5.869  10.854  0.3707  0.4991  0.6258
  760MOL0     C 2526  10.584   5.786  10.946 -0.5472 -0.3504 -0.8247
  760MOL0     C 2527  10.688   5.702  10.873 -0.4013 -0.3424  1.0000
  760MOL0     C 2528  10.785   5.619  10.956 -0.1544 -0.1394  0.5061
  760MOL0     C 2529  10.895   5.708  10.999  0.3579  0.2257 -0.5422
  760MOL0     C 2530  10.995   5.756  11.045 -0.1205 -0.1628 -0.2171
  760MOL0     C 2531  10.176   5.700  10.779  0.7336  0.3960 -0.0984
  760MOL0     C 2532  10.040   5.721  10.769  0.4549 -0.1421  0.6476
  760MOL0     H 2533   9.612   5.987  10.907  1.0344 -3.0556  1.1358
  760MOL0     H 2534   9.358   6.034  10.887 -0.5627 -2.0517  0.8858
  760MOL0     H 2535   9.150   5.848  10.567 -0.6637  1.8240 -0.2303
  760MOL0     H 2536   9.103   5.742  10.705  1.4046 -0.2605 -1.0780
  760MOL0     H 2537   8.930   5.899  10.780  2.1300 -0.3523  1.2046
  760MOL0     H 2538   8.968   6.012  10.654 -1.0350  0.1423 -0.3512
  760MOL0     H 2539   8.924   5.789  10.501 -2.7026  0.0839 -1.1933
  760MOL0     H 2540   8.817   5.742  10.620 -1.3641  0.4901 -0.7363
  760MOL0     H 2541   8.731   6.008  10.602 -0.6171 -1.2455  1.5812
  760MOL0     H 2542   8.838   5.991  10.463 -0.3082  0.9973  0.7867
  760MOL0     H 2543   8.700   5.846  10.351  1.6284  1.3962 -0.1086
  760MOL0     H 2544   8.623   5.792  10.499  1.1550  0.5789  1.7876
  760MOL0     H 2545   8.483   5.995  10.506  0.1137 -0.1832 -0.1340
  760MOL0     H 2546   8.603   6.084  10.397  2.2057 -0.0821  1.7457
  760MOL0     H 2547   8.523   5.897  10.210  1.6741  0.3606 -0.3681
  760MOL0     H 2548   8.415   5.835  10.328 -0.1634  0.1041 -0.1896
  760MOL0     H 2549   8.429   6.115  10.200 -1.8372  2.9126  1.8205
  760MOL0     H 2550   8.330   6.078  10.341 -0.0557  0.1810  0.4412
  760MOL0     H 2551   8.405   5.922  10.007 -0.3370  1.7155 -0.5608
  760MOL0     H 2552   8.134   5.890   9.795  0.2507  0.0677  1.0439
  760MOL0     H 2553   8.267   5.777   9.824  0.1282  0.4713 -1.6207
  760MOL0     H 2554   7.973   5.734   9.881 -0.6057 -1.4227 -1.9537
  760MOL0     H 2555   8.103   5.604   9.890 -0.7182  0.5571  2.0388
  760MOL0     H 2556   8.154   5.665   9.646  0.7909 -2.6185  1.0245
  760MOL0     H 2557   7.996   5.755   9.655 -0.0147 -0.1195  0.7212
  760MOL0     H 2558   8.043   5.455   9.705 -0.8356  1.1642  0.9480
  760MOL0     H 2559   7.983   5.518   9.557  1.7902  1.2848 -1.1069
  760MOL0     H 2560   7.904   5.307   9.580 -1.0129 -0.7306 -1.8028
  760MOL0     H 2561   7.680   5.036   9.497  0.2980 -1.9760  0.2717
  760MOL0     H 2562   7.822   5.138   9.462  0.5713  0.4835  2.0202
  760MOL0     H 2563   7.823   5.016   9.591 -0.7624 -0.2661  0.6606
  760MOL0     H 2564   7.332   5.031   9.542 -2.6896  2.1670  0.9581
  760MOL0     H 2565   7.156   4.849   9.500  0.6347 -2.4256 -0.0183
  760MOL0     H 2566   6.895   4.701   9.852 -0.1599 -3.2468 -1.0968
  760MOL0     H 2567   6.927   4.872   9.829 -1.9053  1.1784  0.7807
  760MOL0     H 2568   6.777   4.875   9.634  0.1611  1.2435  2.1549
  760MOL0     H 2569   6.765   4.700   9.646  2.3669 -1.4857  1.5527
  760MOL0     H 2570   6.664   4.897   9.863 -1.1715 -0.6051  1.6296
  760MOL0     H 2571   6.637   4.722   9.851 -0.9024  1.8905  2.4913
  760MOL0     H 2572   6.562   4.931   9.643 -0.3219 -0.8980  1.0501
  760MOL0     H 2573   6.505   4.762   9.642 -2.4760  0.6001 -2.1477
  760MOL0     H 2574   6.422   4.974   9.848  1.8952 -1.7242  0.8096
  760MOL0     H 2575   6.368   4.807   9.844  0.3385 -0.6849 -1.0208
  760MOL0     H 2576   6.319   4.992   9.603 -1.0469 -1.1279 -0.6917
  760MOL0     H 2577   6.277   4.828   9.619 -2.8026  1.3160 -2.1528
  760MOL0     H 2578   6.145   5.058   9.764 -0.7353  0.0695 -2.9212
  760MOL0     H 2579   6.142   4.896   9.840  0.0040  0.1208  0.3078
  760MOL0     H 2580   6.028   4.924   9.560 -2.5279  0.9711  0.9460
  760MOL0     H 2581   5.938   4.944   9.710 -1.3051  0.0767 -1.1564
  760MOL0     H 2582   7.124   4.766   9.919  0.3937 -0.7253 -0.2655
  760MOL0     H 2583   7.286   4.942   9.964 -2.6901  1.8366  0.2714
  760MOL0     H 2584   7.511   5.318   9.873  1.6641  3.7981  0.5691
  760MOL0     H 2585   7.667   5.517   9.871 -1.2131  1.5052 -2.8480
  760MOL0     H 2586   9.341   5.716  10.610 -0.3380  0.4875 -0.2886
  760MOL0     H 2587   9.572   5.666  10.626 -1.8229 -0.0458 -0.3643
  760MOL0     H 2588  10.047   6.057  10.757 -2.9295 -0.6205 -2.3679
  760MOL0     H 2589  10.284   6.018  10.780  1.4679 -1.0689 -0.2369
  760MOL0     H 2590  10.546   5.927  10.778 -0.6629 -1.0431 -1.3548
  760MOL0     H 2591  10.447   5.942  10.922 -1.5489  0.1527 -0.2144
  760MOL0     H 2592  10.519   5.733  11.016  1.3808  0.6724  1.9309
  760MOL0     H 2593  10.637   5.847  11.020 -1.0424 -0.2203 -0.5709
  760MOL0     H 2594  10.745   5.772  10.812  0.4422 -2.9120 -1.3987
  760MOL0     H 2595  10.636   5.634  10.805  1.0167  0.7184 -1.2454
  760MOL0     H 2596  10.820   5.530  10.903  1.9877  2.9499 -3.9293
  760MOL0     H 2597  10.721   5.585  11.038 -1.7356 -0.0693 -0.6536
  760MOL0     H 2598  11.090   5.801  11.066  0.0968 -0.3252 -0.8239
  760MOL0     H 2599  10.208   5.596  10.784  3.1013  1.1211  1.3047
  760MOL0     H 2600   9.972   5.637  10.766  3.5851 -2.9018 -2.0259
  761MOL0     O 2601   7.794   4.926   5.545 -0.6165 -0.2186 -0.3335
  761MOL0     C 2602   7.858   4.977   5.453 -0.3818 -0.4705 -0.1302
  761MOL0     O 2603   7.824   4.997   5.319 -1.2543  0.0160  0.4736
  761MOL0     C 2604   7.699   4.957   5.274 -0.5774 -0.0153  0.3072
  761MOL0     C 2605   7.625   5.046   5.186 -0.0398  0.3689 -0.0417
  761MOL0     C 2606   7.502   5.010   5.124 -0.0950  0.5447  0.2632
  761MOL0     C 2607   7.448   4.889   5.162  0.1757 -0.3590 -0.1064
  761MOL0     O 2608   7.326   4.859   5.107 -0.9933 -0.3418  0.3629
  761MOL0     C 2609   7.221   4.796   5.175 -0.7189 -0.4366 -0.4112
  761MOL0     C 2610   7.090   4.822   5.108 -0.5735 -0.1913 -0.2958
  761MOL0     C 2611   7.095   4.964   5.041 -0.7179  0.2921  0.3547
  761MOL0     C 2612   7.108   5.086   5.129 -1.1986 -0.0979 -0.0845
  761MOL0     C 2613   6.991   5.107   5.216  0.6156 -0.4733 -0.3039
  761MOL0     C 2614   6.893   5.200   5.145 -0.2728  0.1221 -0.3811
  761MOL0     C 2615   6.782   5.261   5.236 -0.1658  0.2892 -0.0487
  761MOL0     C 2616   6.706   5.155   5.317  0.4233  0.2184 -0.5266
  761MOL0     N 2617   6.558   5.160   5.302  0.0125 -0.2187  0.1999
  761MOL0     C 2618   6.485   5.253   5.357  0.7829  0.1934 -0.3796
  761MOL0     C 2619   6.361   5.200   5.359  0.7969 -0.6113 -0.2777
  761MOL0     C 2620   6.250   5.277   5.433  0.0149 -0.1963  0.1317
  761MOL0     C 2621   6.137   5.187   5.461  0.2551 -0.2986 -0.3959
  761MOL0     C 2622   6.036   5.168   5.343 -0.0423 -0.0536 -0.3701
  761MOL0     C 2623   5.949   5.037   5.365  0.0228 -0.1134 -0.1809
  761MOL0     O 2624   5.850   5.046   5.255  0.1287 -0.0718  0.2513
  761MOL0     C 2625   5.733   4.980   5.285  0.5419 -0.4614  0.5937
  761MOL0     C 2626   5.730   4.852   5.331 -0.2350  0.7538 -0.1345
  761MOL0     C 2627   5.605   4.789   5.353 -1.0457 -0.4699  0.4022
  761MOL0     C 2628   5.605   4.649   5.397 -0.0233  0.4806 -0.2735
  761MOL0     C 2629   5.481   4.858   5.319 -0.4534  0.3849 -0.6101
  761MOL0     C 2630   5.349   4.803   5.334  0.2215  1.0407  0.0872
  761MOL0     O 2631   5.259   4.829   5.232 -0.7718 -0.0560 -0.6023
  761MOL0     C 2632   5.129   4.794   5.229 -0.0063 -0.5232 -0.3246
  761MOL0     C 2633   5.073   4.665   5.255  0.2323 -0.1981  0.1708
  761MOL0     C 2634   4.945   4.638   5.235  0.6861 -0.3361  0.3141
  761MOL0     C 2635   4.861   4.739   5.199  0.9768 -0.3612  0.0782
  761MOL0     O 2636   4.721   4.708   5.204  0.2811  0.1621  0.4775
  761MOL0     C 2637   4.648   4.745   5.089  0.5955 -0.5738  0.2076
  761MOL0     C 2638   4.532   4.651   5.073 -0.7921 -0.8818  0.0667
  761MOL0     C 2639   4.450   4.626   5.185  0.0055  0.9959 -0.3542
  761MOL0     C 2640   4.335   4.533   5.162  0.2744  0.7529 -1.0174
  761MOL0     C 2641   4.264   4.497   5.290  0.5129  0.6958 -0.2190
  761MOL0     C 2642   4.154   4.393   5.291 -0.1846 -0.0124 -0.1799
  761MOL0     C 2643   4.174   4.244   5.239  0.6862  0.0487 -0.7328
  761MOL0     C 2644   4.050   4.162   5.257 -0.0350  0.3449 -0.5521
  761MOL0    Cl 2645   3.909   4.208   5.155  0.0889 -0.0112 -0.0803
  761MOL0     C 2646   4.912   4.863   5.171 -0.2742  0.5712  0.4637
  761MOL0     C 2647   5.040   4.895   5.185 -0.6378 -0.6670  0.0412
  761MOL0     O 2648   5.318   4.735   5.428 -0.1418  0.5114  0.5225
  761MOL0     C 2649   5.492   4.988   5.275 -0.2867  0.1705  0.6240
  761MOL0     C 2650   5.613   5.049   5.256  0.3248  0.0402 -0.5905
  761MOL0     N 2651   6.354   5.079   5.290 -0.8347 -0.1339  0.0291
  761MOL0     N 2652   6.481   5.060   5.257 -0.0636  0.0802 -0.6413
  761MOL0     C 2653   7.507   4.811   5.264 -0.1527 -0.3893  0.5993
  761MOL0     C 2654   7.633   4.838   5.315 -0.5248  0.1537  0.3601
  761MOL0     C 2655   8.002   5.030   5.484  0.2102 -0.9408 -0.1061
  761MOL0     C 2656   8.042   5.047   5.614  0.0664 -0.7050  0.0753
  761MOL0     C 2657   8.173   5.089   5.650  0.6705 -0.4333  0.1249
  761MOL0     C 2658   8.259   5.139   5.550 -1.2692  0.4152  0.7765
  761MOL0     O 2659   8.383   5.200   5.564  0.4795  0.2466  0.7583
  761MOL0     C 2660   8.427   5.213   5.692 -0.9506  0.0685  0.2929
  761MOL0     C 2661   8.588   5.234   5.691 -0.9673  0.7204 -0.3508
  761MOL0     C 2662   8.642   5.226   5.835 -0.5174 -0.5863 -0.1190
  761MOL0     C 2663   8.771   5.287   5.854  0.3509 -0.2261  0.0183
  761MOL0     C 2664   8.880   5.208   5.784 -1.0086  0.4205 -0.3895
  761MOL0     C 2665   8.982   5.162   5.738  0.1195 -0.0765  0.3089
  761MOL0     C 2666   8.218   5.120   5.422  0.1539  0.9124  0.2264
  761MOL0     C 2667   8.087   5.071   5.384 -0.6399 -0.0498 -0.0755
  761MOL0     H 2668   7.658   5.149   5.177  0.2919  0.3326  0.7060
  761MOL0     H 2669   7.451   5.077   5.055  1.4920  0.9982 -0.5051
  761MOL0     H 2670   7.232   4.689   5.195  0.6468 -0.4871 -1.3090
  761MOL0     H 2671   7.216   4.840   5.275  2.9608  2.2777 -1.2000
  761MOL0     H 2672   7.080   4.745   5.031 -1.7161  1.6844 -2.1450
  761MOL0     H 2673   7.004   4.817   5.176 -0.4733  2.4064  0.1364
  761MOL0     H 2674   7.171   4.970   4.962  0.4644  1.3357  1.5249
  761MOL0     H 2675   6.999   4.979   4.990  0.3907 -0.7322 -2.1836
  761MOL0     H 2676   7.192   5.071   5.198 -1.1780 -0.9355 -0.2802
  761MOL0     H 2677   7.128   5.176   5.070  0.2855 -1.0554 -1.1173
  761MOL0     H 2678   6.948   5.010   5.245  2.4707 -0.9241  1.1351
  761MOL0     H 2679   7.029   5.155   5.306 -0.7027 -2.5791  1.4848
  761MOL0     H 2680   6.947   5.278   5.091  0.8519  0.1904  0.8067
  761MOL0     H 2681   6.849   5.139   5.065  0.9384 -1.3167  0.0032
  761MOL0     H 2682   6.821   5.343   5.297  0.7299 -1.0443  1.2262
  761MOL0     H 2683   6.724   5.318   5.163  1.5621 -0.2551 -1.9361
  761MOL0     H 2684   6.745   5.163   5.419  2.3720 -2.9771 -0.8738
  761MOL0     H 2685   6.743   5.057   5.284  2.3651  0.3842  0.9885
  761MOL0     H 2686   6.521   5.344   5.403 -0.5067  1.8051 -2.3631
  761MOL0     H 2687   6.285   5.315   5.529 -0.9873 -0.5769  0.6702
  761MOL0     H 2688   6.214   5.360   5.370 -1.2485  0.3707  1.5129
  761MOL0     H 2689   6.082   5.232   5.543 -0.3513 -3.5378  1.1636
  761MOL0     H 2690   6.158   5.088   5.503 -0.7881 -1.2006 -1.8805
  761MOL0     H 2691   6.081   5.139   5.247 -1.9174 -0.9626 -1.0206
  761MOL0     H 2692   5.982   5.261   5.319  0.6311  0.9834  1.8873
  761MOL0     H 2693   5.908   5.041   5.466 -1.0379 -1.2362 -0.5458
  761MOL0     H 2694   6.006   4.945   5.348  3.3798  1.8431 -0.4388
  761MOL0     H 2695   5.821   4.797   5.352  0.0182  1.4839  0.7505
  761MOL0     H 2696   5.509   4.596   5.397  1.0729 -1.6920  1.7917
  761MOL0     H 2697   5.671   4.591   5.333  2.1984  1.1694  1.2523
  761MOL0     H 2698   5.647   4.637   5.498 -0.1048  4.2692  0.3642
  761MOL0     H 2699   5.137   4.584   5.288 -1.9733 -1.5997  1.1780
  761MOL0     H 2700   4.904   4.540   5.259 -0.5592  0.8010  3.2942
  761MOL0     H 2701   4.612   4.847   5.103 -1.1061 -0.7173 -2.4845
  761MOL0     H 2702   4.709   4.743   4.999 -0.0926 -2.6501 -0.2735
  761MOL0     H 2703   4.464   4.690   4.998 -0.9426 -2.2083 -0.5066
  761MOL0     H 2704   4.566   4.559   5.025  2.6864  0.0576  0.4219
  761MOL0     H 2705   4.407   4.722   5.218 -0.3368  0.4221  0.9506
  761MOL0     H 2706   4.514   4.597   5.269 -0.0061  1.7923 -0.0547
  761MOL0     H 2707   4.261   4.574   5.092  0.3022  1.0321 -0.8864
  761MOL0     H 2708   4.374   4.447   5.106  1.6015  1.7663 -1.7087
  761MOL0     H 2709   4.225   4.590   5.332  0.7721  0.3568  0.7906
  761MOL0     H 2710   4.347   4.467   5.354  2.6419  0.6317 -2.8121
  761MOL0     H 2711   4.111   4.398   5.392  1.6116 -2.0774  0.7888
  761MOL0     H 2712   4.086   4.437   5.218  2.0931 -0.4426 -2.6994
  761MOL0     H 2713   4.248   4.191   5.299 -0.2617 -0.9975 -0.4650
  761MOL0     H 2714   4.201   4.245   5.133 -1.2517 -1.8098 -1.3219
  761MOL0     H 2715   4.014   4.152   5.360  1.1078 -2.3881 -0.3423
  761MOL0     H 2716   4.070   4.060   5.222 -0.4461  0.6099 -1.6059
  761MOL0     H 2717   4.833   4.935   5.151  0.0208  0.5488 -0.8330
  761MOL0     H 2718   5.080   4.988   5.145  0.2056 -1.1538 -0.2799
  761MOL0     H 2719   5.392   5.029   5.261 -0.8244 -1.0997  0.6471
  761MOL0     H 2720   5.623   5.155   5.236 -0.7067  0.2790  0.1103
  761MOL0     H 2721   7.458   4.719   5.295 -1.2759 -0.0747 -0.1649
  761MOL0     H 2722   7.681   4.768   5.382  4.3870  1.6132 -1.1988
  761MOL0     H 2723   7.984   4.996   5.691 -0.1428 -1.2702 -0.4534
  761MOL0     H 2724   8.205   5.098   5.753 -0.2476  0.9541  0.3134
  761MOL0     H 2725   8.368   5.293   5.736 -0.6458  0.6389 -0.3214
  761MOL0     H 2726   8.408   5.117   5.742 -0.7898 -0.3520 -0.4312
  761MOL0     H 2727   8.602   5.338   5.661 -2.6133  1.4191  1.0905
  761MOL0     H 2728   8.631   5.166   5.617  0.1455  1.4867 -0.4259
  761MOL0     H 2729   8.656   5.129   5.884  0.8535 -0.3330  0.0036
  761MOL0     H 2730   8.566   5.257   5.907  0.1830  0.6292  0.1096
  761MOL0     H 2731   8.787   5.290   5.962 -2.0826  0.6312  0.4203
  761MOL0     H 2732   8.779   5.386   5.809  2.9297 -1.6657 -3.1437
  761MOL0     H 2733   9.077   5.141   5.695  0.9507  1.8180  1.1131
  761MOL0     H 2734   8.292   5.139   5.344  3.0046  3.9617  3.3286
  761MOL0     H 2735   8.061   5.055   5.280  0.2189  1.3271 -0.5212
  762MOL0     O 2736   9.580   1.031   7.065  0.5140 -0.2263  0.3722
  762MOL0     C 2737   9.562   1.135   6.998 -0.2512 -0.8638 -0.0021
  762MOL0     O 2738   9.442   1.176   6.951  0.8704 -0.1344  0.4010
  762MOL0     C 2739   9.322   1.106   6.960 -0.6443 -0.2128 -0.0070
  762MOL0     C 2740   9.196   1.178   6.959 -0.0053 -0.4421  0.7745
  762MOL0     C 2741   9.073   1.119   6.990  0.0932 -0.3349 -0.5570
  762MOL0     C 2742   9.071   0.978   6.991 -0.4236  0.0087 -0.1083
  762MOL0     O 2743   8.952   0.915   7.016  0.1349  0.2923 -0.4122
  762MOL0     C 2744   8.938   0.775   7.038 -0.2126  0.1407  0.3636
  762MOL0     C 2745   8.791   0.728   7.042 -0.1725 -0.9563  0.5435
  762MOL0     C 2746   8.686   0.804   7.120 -0.5857 -0.3307 -0.0662
  762MOL0     C 2747   8.545   0.747   7.111 -1.8082 -0.0676  0.7211
  762MOL0     C 2748   8.455   0.812   7.216  0.7543 -0.1464  0.2511
  762MOL0     C 2749   8.452   0.966   7.199  0.3376  0.1457 -0.5725
  762MOL0     C 2750   8.370   1.028   7.317 -0.0545  0.1260 -0.7231
  762MOL0     C 2751   8.347   1.181   7.317  0.3092  0.3066  0.0050
  762MOL0     N 2752   8.275   1.206   7.192 -0.0387 -0.1245  0.9557
  762MOL0     C 2753   8.136   1.193   7.181  0.2628 -0.5835  0.0850
  762MOL0     C 2754   8.115   1.219   7.054  0.6859  0.1343 -0.8567
  762MOL0     C 2755   7.988   1.205   6.971  0.1498  0.4090 -0.4088
  762MOL0     C 2756   7.863   1.176   7.060 -0.5602 -0.0747 -0.1682
  762MOL0     C 2757   7.740   1.116   6.985  0.1238  0.3009  0.1570
  762MOL0     C 2758   7.619   1.130   7.087 -0.0730 -0.7832 -0.4134
  762MOL0     O 2759   7.571   1.265   7.088  0.2236  0.4488  0.2149
  762MOL0     C 2760   7.450   1.296   7.159 -0.6726  0.6359 -0.1336
  762MOL0     C 2761   7.435   1.425   7.224  0.1825 -0.5298  0.6283
  762MOL0     C 2762   7.322   1.450   7.294 -0.0610 -0.8628 -0.2597
  762MOL0     C 2763   7.305   1.585   7.365 -0.5926  0.2972  0.3633
  762MOL0     C 2764   7.218   1.352   7.298 -0.5891  0.0987  0.0625
  762MOL0     C 2765   7.101   1.384   7.373 -0.5245  0.0435 -0.7146
  762MOL0     O 2766   7.076   1.307   7.485  0.1863  0.0979 -0.0473
  762MOL0     C 2767   6.951   1.317   7.541  0.7778  1.3203 -0.3410
  762MOL0     C 2768   6.867   1.200   7.549  0.6412 -0.1009  0.0066
  762MOL0     C 2769   6.747   1.210   7.611 -0.1673 -0.1659  0.4337
  762MOL0     C 2770   6.693   1.330   7.659 -0.1096  0.1946  0.0110
  762MOL0     O 2771   6.568   1.325   7.711  0.0684  0.0263 -0.1179
  762MOL0     C 2772   6.504   1.428   7.782 -1.2113 -0.0217  0.5239
  762MOL0     C 2773   6.356   1.407   7.764 -1.0748 -0.4944 -0.6451
  762MOL0     C 2774   6.304   1.271   7.826  0.1945  0.3113 -0.5424
  762MOL0     C 2775   6.328   1.253   7.981  0.0507  0.5585  0.6420
  762MOL0     C 2776   6.262   1.118   8.018  0.3246  0.1849  0.3696
  762MOL0     C 2777   6.119   1.136   8.055  0.1413  0.2516  0.7595
  762MOL0     C 2778   6.060   1.005   8.110 -0.1281  0.1005  0.0407
  762MOL0     C 2779   6.098   0.985   8.257 -0.2617  0.5023 -0.0218
  762MOL0    Cl 2780   6.065   0.818   8.305  0.4236  0.4071 -0.2479
  762MOL0     C 2781   6.775   1.443   7.656  0.3362 -0.1223 -0.5369
  762MOL0     C 2782   6.907   1.433   7.599 -0.2627 -0.0113  0.0422
  762MOL0     O 2783   7.018   1.467   7.333 -0.0021 -0.6528  0.1643
  762MOL0     C 2784   7.218   1.241   7.224 -0.2546  0.5586 -0.8354
  762MOL0     C 2785   7.341   1.203   7.161  0.0783  0.6002 -0.4682
  762MOL0     N 2786   8.235   1.253   6.991 -0.1113  0.1840  0.3352
  762MOL0     N 2787   8.329   1.249   7.072  0.3359 -0.3431  0.9458
  762MOL0     C 2788   9.194   0.909   6.989 -0.2977  0.3008  0.2998
  762MOL0     C 2789   9.314   0.969   6.978  0.5625 -0.3061 -0.7818
  762MOL0     C 2790   9.678   1.223   6.981 -0.6944 -0.2093  0.0614
  762MOL0     C 2791   9.806   1.196   7.027  0.3087 -0.7695 -0.1009
  762MOL0     C 2792   9.911   1.278   7.006 -0.8402 -0.0408 -0.3508
  762MOL0     C 2793   9.902   1.397   6.937 -0.2238 -0.5087  0.4507
  762MOL0     O 2794   9.993   1.485   6.898 -0.4176  0.3383  0.1980
  762MOL0     C 2795  10.111   1.496   6.978  0.5269 -0.4689 -0.1611
  762MOL0     C 2796  10.188   1.620   6.926 -0.6548  0.6739 -0.3801
  762MOL0     C 2797  10.326   1.619   6.987 -0.6428  1.0977  0.2277
  762MOL0     C 2798  10.413   1.747   6.951  1.3490 -0.5126  0.0774
  762MOL0     C 2799  10.550   1.730   6.994  0.0437 -0.0465 -0.4013
  762MOL0     C 2800  10.663   1.704   7.030  0.2182  0.2911  0.1793
  762MOL0     C 2801   9.774   1.430   6.894  0.0716 -1.0613 -0.1786
  762MOL0     C 2802   9.667   1.345   6.915 -0.1642  0.8634  0.5200
  762MOL0     H 2803   9.212   1.285   6.947 -2.5325  0.6066  4.7165
  762MOL0     H 2804   8.986   1.182   7.005  0.4184 -0.0491  0.2563
  762MOL0     H 2805   8.977   0.710   6.959  0.9037  0.6987  0.4388
  762MOL0     H 2806   8.998   0.744   7.124  2.7424  0.2030 -1.5358
  762MOL0     H 2807   8.753   0.718   6.940  3.0376 -1.4985 -0.7148
  762MOL0     H 2808   8.787   0.626   7.080 -0.2539 -1.2049 -0.1257
  762MOL0     H 2809   8.714   0.812   7.225  0.0307  1.6807 -0.3328
  762MOL0     H 2810   8.689   0.906   7.080  1.3653  0.9261  2.9381
  762MOL0     H 2811   8.505   0.757   7.010  0.3834  2.3701 -0.0181
  762MOL0     H 2812   8.554   0.642   7.139  2.1288  0.1147  0.6818
  762MOL0     H 2813   8.356   0.767   7.218  1.8682 -2.9688 -1.6203
  762MOL0     H 2814   8.505   0.782   7.308  0.5731  1.0380  0.7549
  762MOL0     H 2815   8.556   1.000   7.203  0.5538 -0.6082  0.9142
  762MOL0     H 2816   8.409   0.994   7.102  0.9223  0.3129 -0.7872
  762MOL0     H 2817   8.274   0.975   7.324  0.5933 -1.0045 -0.0861
  762MOL0     H 2818   8.418   1.002   7.412 -1.0150  0.4834 -0.1289
  762MOL0     H 2819   8.441   1.236   7.313  2.2274 -2.7449 -0.2197
  762MOL0     H 2820   8.280   1.199   7.402 -0.0710 -1.4864  0.1229
  762MOL0     H 2821   8.069   1.150   7.255 -0.7618 -1.7540 -1.4619
  762MOL0     H 2822   7.959   1.289   6.907 -2.6307  1.2961  1.7797
  762MOL0     H 2823   8.001   1.115   6.911  1.3839 -0.1751  0.6834
  762MOL0     H 2824   7.845   1.279   7.092  0.4117  0.5071 -1.3893
  762MOL0     H 2825   7.883   1.099   7.134  1.8946  0.5855 -0.0672
  762MOL0     H 2826   7.745   1.010   6.957 -0.0068 -0.3921  2.4884
  762MOL0     H 2827   7.716   1.169   6.893 -3.2298  0.7041  1.1523
  762MOL0     H 2828   7.656   1.096   7.184  1.7931 -4.1439 -2.1126
  762MOL0     H 2829   7.535   1.066   7.062 -0.0127 -0.7656 -0.6657
  762MOL0     H 2830   7.519   1.493   7.217 -0.3787 -0.0276 -2.2198
  762MOL0     H 2831   7.222   1.649   7.332 -0.7525  0.0111  0.2007
  762MOL0     H 2832   7.286   1.565   7.471 -2.6795 -2.8950 -0.4546
  762MOL0     H 2833   7.389   1.649   7.340 -2.6974  2.8080 -0.7999
  762MOL0     H 2834   6.897   1.101   7.516  0.0245 -0.5585  0.8069
  762MOL0     H 2835   6.695   1.115   7.601  1.8937 -1.1837 -1.6585
  762MOL0     H 2836   6.522   1.433   7.889 -2.4193  2.2060  0.6653
  762MOL0     H 2837   6.530   1.522   7.732 -2.6122 -0.2218 -0.6620
  762MOL0     H 2838   6.305   1.488   7.818 -0.2124 -1.2633  1.4331
  762MOL0     H 2839   6.335   1.419   7.657 -0.0720 -0.2472 -0.8174
  762MOL0     H 2840   6.354   1.187   7.778  0.0162 -1.1268  1.6285
  762MOL0     H 2841   6.198   1.265   7.799  0.1392  0.1062 -0.2905
  762MOL0     H 2842   6.436   1.254   8.001  0.0362 -3.7125  1.7679
  762MOL0     H 2843   6.282   1.334   8.038 -2.8229 -0.7898  0.3845
  762MOL0     H 2844   6.308   1.070   8.104  1.5166 -1.4816 -1.1230
  762MOL0     H 2845   6.256   1.042   7.940 -2.4538  1.6106 -0.9449
  762MOL0     H 2846   6.104   1.225   8.118  1.4744  1.2755 -0.3161
  762MOL0     H 2847   6.059   1.166   7.968 -0.2451 -2.2144  0.1200
  762MOL0     H 2848   6.095   0.918   8.052  3.4226  1.3524  0.0591
  762MOL0     H 2849   5.951   1.008   8.106 -0.3248  0.7633  3.4992
  762MOL0     H 2850   6.035   1.043   8.326 -2.3163 -2.0955  0.4354
  762MOL0     H 2851   6.202   1.014   8.277  0.0531  0.5287 -1.5658
  762MOL0     H 2852   6.733   1.535   7.694  1.1684  1.5538 -3.3581
  762MOL0     H 2853   6.964   1.525   7.599 -0.1740 -0.0518 -1.1860
  762MOL0     H 2854   7.131   1.175   7.226 -0.2357  0.5279  1.3698
  762MOL0     H 2855   7.333   1.105   7.114 -1.5369  0.7096 -0.4680
  762MOL0     H 2856   9.189   0.800   6.990 -0.1409  0.2631  2.8982
  762MOL0     H 2857   9.398   0.901   6.970  0.9797  0.2877 -1.6353
  762MOL0     H 2858   9.842   1.109   7.082 -0.8066 -1.1069  0.1041
  762MOL0     H 2859  10.014   1.258   7.035 -1.1239 -0.0462  0.7115
  762MOL0     H 2860  10.086   1.515   7.083  3.6671  0.5866  0.5324
  762MOL0     H 2861  10.167   1.403   6.970 -0.8006 -1.1394 -2.3229
  762MOL0     H 2862  10.130   1.707   6.957  1.3640  1.2549  2.1473
  762MOL0     H 2863  10.207   1.617   6.818 -0.4255  2.1498 -0.3913
  762MOL0     H 2864  10.389   1.533   6.965  0.4728  2.3882 -1.8873
  762MOL0     H 2865  10.318   1.614   7.096  2.0166 -0.3997  0.4307
  762MOL0     H 2866  10.376   1.841   6.995 -0.3030 -1.4512  0.7870
  762MOL0     H 2867  10.411   1.763   6.843 -0.9976 -1.1307 -0.0209
  762MOL0     H 2868  10.754   1.661   7.067 -0.9563 -1.4524  1.2160
  762MOL0     H 2869   9.760   1.521   6.837 -1.5470  0.1506  2.0069
  762MOL0     H 2870   9.571   1.369   6.871 -1.5407 -3.0215  1.0312
  763MOL0     O 2871   4.865   6.172   8.910  0.6740  0.2342 -0.7933
  763MOL0     C 2872   4.928   6.146   9.008  0.3997  0.1543 -0.4705
  763MOL0     O 2873   4.867   6.104   9.127 -0.9287  0.2460 -0.0875
  763MOL0     C 2874   4.733   6.098   9.142  0.8749 -0.1936 -1.1824
  763MOL0     C 2875   4.636   6.062   9.046 -0.0500 -0.0094  1.1243
  763MOL0     C 2876   4.496   6.084   9.066  0.2376  0.0550  0.3938
  763MOL0     C 2877   4.442   6.125   9.186  0.7967 -0.0442 -0.0044
  763MOL0     O 2878   4.310   6.123   9.218  0.0031  0.5675  0.5262
  763MOL0     C 2879   4.219   6.116   9.104  0.7947 -1.0717 -0.2333
  763MOL0     C 2880   4.075   6.144   9.147  0.5708  0.2070  0.4655
  763MOL0     C 2881   4.019   6.039   9.249 -1.0444 -0.0269 -0.0346
  763MOL0     C 2882   3.871   6.072   9.283  0.2146  0.2867 -0.5251
  763MOL0     C 2883   3.809   5.950   9.355  0.3341 -0.6835  1.0002
  763MOL0     C 2884   3.652   5.975   9.374 -0.3795  0.3192  0.1915
  763MOL0     C 2885   3.590   5.850   9.422 -0.1136 -0.2775  0.3966
  763MOL0     C 2886   3.614   5.808   9.562 -0.0257  0.3372  0.3638
  763MOL0     N 2887   3.523   5.689   9.592 -0.1402 -0.1352  0.1455
  763MOL0     C 2888   3.391   5.705   9.617  0.2753 -0.8929  0.6406
  763MOL0     C 2889   3.336   5.577   9.600  0.0145 -0.1158  0.6586
  763MOL0     C 2890   3.199   5.538   9.656  1.0020  0.7247  0.5435
  763MOL0     C 2891   3.184   5.540   9.803 -0.3434  0.2553  0.5289
  763MOL0     C 2892   3.044   5.497   9.852  0.2656 -0.1358  0.0969
  763MOL0     C 2893   3.013   5.342   9.812  0.2516 -0.1660 -0.4294
  763MOL0     O 2894   2.892   5.297   9.890  0.0825 -0.1982 -0.0315
  763MOL0     C 2895   2.767   5.357   9.876  0.0469 -0.7596  0.2001
  763MOL0     C 2896   2.689   5.365   9.759 -0.6834 -0.0243 -0.1430
  763MOL0     C 2897   2.562   5.432   9.769  0.2610 -0.6291  0.2439
  763MOL0     C 2898   2.494   5.453   9.629 -0.6532  0.0715  0.2668
  763MOL0     C 2899   2.509   5.480   9.890 -0.0520  0.0746 -0.1662
  763MOL0     C 2900   2.375   5.539   9.911 -1.1278 -0.0900  0.8224
  763MOL0     O 2901   2.289   5.509   9.810  0.3604  0.2168  0.4954
  763MOL0     C 2902   2.154   5.546   9.810  0.0126 -0.2011 -0.2223
  763MOL0     C 2903   2.105   5.673   9.865  0.3782  0.5149 -0.2066
  763MOL0     C 2904   1.972   5.695   9.872 -0.9319 -0.1770 -0.0060
  763MOL0     C 2905   1.881   5.616   9.809 -0.0216  0.2665  0.5935
  763MOL0     O 2906   1.749   5.638   9.787  0.2490  0.1424 -0.2587
  763MOL0     C 2907   1.681   5.760   9.835 -0.0414 -0.1848 -0.4092
  763MOL0     C 2908   1.527   5.739   9.834  0.8007 -0.1015 -0.2027
  763MOL0     C 2909   1.468   5.701   9.695  0.0181  1.1224  0.4745
  763MOL0     C 2910   1.499   5.803   9.581 -0.3610  0.0485 -0.3202
  763MOL0     C 2911   1.393   5.785   9.467  0.9213 -0.4771 -0.2576
  763MOL0     C 2912   1.261   5.860   9.501  0.4431  0.0136 -1.0050
  763MOL0     C 2913   1.273   6.005   9.557  0.4051 -0.1638 -0.1896
  763MOL0     C 2914   1.138   6.071   9.567  0.2621 -0.7583 -0.2954
  763MOL0    Cl 2915   1.039   5.997   9.695  0.1878 -0.0241  0.2428
  763MOL0     C 2916   1.924   5.496   9.752  0.1084 -0.4952  0.2211
  763MOL0     C 2917   2.061   5.468   9.745 -0.3567 -0.6663  0.8793
  763MOL0     O 2918   2.356   5.607  10.013  0.0028 -0.1507  0.3176
  763MOL0     C 2919   2.591   5.463   9.997  0.2220  0.0838  0.1791
  763MOL0     C 2920   2.719   5.402   9.996  0.0191 -0.1767  0.6526
  763MOL0     N 2921   3.435   5.493   9.556  0.0595  0.0903  0.6022
  763MOL0     N 2922   3.542   5.558   9.544 -0.6108 -0.2106 -0.8857
  763MOL0     C 2923   4.537   6.144   9.292 -0.0480  0.2328 -0.5613
  763MOL0     C 2924   4.675   6.137   9.274 -0.5780  0.5329  0.3798
  763MOL0     C 2925   5.074   6.130   9.004  0.2122 -0.4621  0.3456
  763MOL0     C 2926   5.134   6.130   8.877  0.0656  0.3606  0.2906
  763MOL0     C 2927   5.269   6.100   8.848  0.6941  0.7631  0.2349
  763MOL0     C 2928   5.349   6.066   8.957  0.1623 -0.2984  0.8162
  763MOL0     O 2929   5.487   6.048   8.950  0.0769 -0.4635  0.3566
  763MOL0     C 2930   5.543   6.085   8.822  0.6959 -0.5484 -0.7272
  763MOL0     C 2931   5.695   6.110   8.834  0.2092 -0.2590 -0.3711
  763MOL0     C 2932   5.770   5.981   8.867  0.0108 -0.1337 -1.3094
  763MOL0     C 2933   5.914   5.994   8.834 -0.5582 -0.4562 -0.3385
  763MOL0     C 2934   5.984   6.105   8.896  0.5552  0.1884  0.0217
  763MOL0     C 2935   6.044   6.203   8.939  0.0457  0.1399 -0.7376
  763MOL0     C 2936   5.297   6.070   9.087  0.5121 -0.9256 -0.2624
  763MOL0     C 2937   5.159   6.101   9.114  0.2834 -0.9926  0.0854
  763MOL0     H 2938   4.663   6.017   8.951 -1.2931 -0.5637  1.0094
  763MOL0     H 2939   4.427   6.046   8.991 -0.4267  2.5483 -0.3710
  763MOL0     H 2940   4.251   6.182   9.023 -0.4007 -0.5758 -0.3145
  763MOL0     H 2941   4.221   6.011   9.075 -0.4701 -0.9661 -0.7543
  763MOL0     H 2942   4.060   6.245   9.187  0.4746 -0.0778  1.1640
  763MOL0     H 2943   4.023   6.132   9.051 -2.3761 -1.0794  2.0927
  763MOL0     H 2944   4.029   5.939   9.207  0.8692  0.0922  0.0402
  763MOL0     H 2945   4.073   6.034   9.344  1.0063 -2.9111 -1.2154
  763MOL0     H 2946   3.860   6.160   9.347  1.3829  0.7013 -0.8662
  763MOL0     H 2947   3.816   6.089   9.190 -0.4844  1.7877  0.1236
  763MOL0     H 2948   3.818   5.855   9.301 -0.8768 -1.2522  1.7337
  763MOL0     H 2949   3.860   5.932   9.450 -0.3184 -0.6329  1.3679
  763MOL0     H 2950   3.642   6.058   9.445 -0.7331  1.4037 -1.0841
  763MOL0     H 2951   3.612   6.010   9.279  0.5890 -1.9565 -1.1200
  763MOL0     H 2952   3.483   5.870   9.414  0.0532  1.1028  1.2562
  763MOL0     H 2953   3.620   5.766   9.359 -1.2140 -1.4510  1.4051
  763MOL0     H 2954   3.590   5.890   9.631  0.6127 -0.4425  1.5445
  763MOL0     H 2955   3.718   5.777   9.577 -1.1020 -2.2144  3.8820
  763MOL0     H 2956   3.355   5.795   9.666  1.8573 -0.1601  0.5164
  763MOL0     H 2957   3.125   5.601   9.605 -0.1924  0.5765  2.0015
  763MOL0     H 2958   3.179   5.442   9.608  0.1951  1.4075 -0.5414
  763MOL0     H 2959   3.215   5.641   9.830  3.7158  0.7201 -4.2878
  763MOL0     H 2960   3.254   5.474   9.856  0.2803 -0.2865 -0.9086
  763MOL0     H 2961   2.955   5.551   9.819 -0.8599 -1.3998  0.9703
  763MOL0     H 2962   3.043   5.503   9.961  3.7384  4.1621  0.1611
  763MOL0     H 2963   3.102   5.279   9.824 -0.2034 -0.7478 -0.0581
  763MOL0     H 2964   2.981   5.335   9.708  0.3740 -0.6027 -0.4365
  763MOL0     H 2965   2.737   5.325   9.670  1.2401  0.4212  0.6613
  763MOL0     H 2966   2.556   5.428   9.543  3.3572  2.7804  2.0372
  763MOL0     H 2967   2.396   5.408   9.611  0.1034 -1.1878 -0.9554
  763MOL0     H 2968   2.487   5.562   9.635 -0.4919 -0.0036  3.5878
  763MOL0     H 2969   2.168   5.754   9.900  1.4081 -0.9306  1.4968
  763MOL0     H 2970   1.937   5.784   9.923  1.2135  0.7410 -0.0232
  763MOL0     H 2971   1.711   5.786   9.937 -1.3518  1.2669 -0.3615
  763MOL0     H 2972   1.719   5.842   9.774  0.1891 -0.4868 -0.6737
  763MOL0     H 2973   1.509   5.648   9.890  0.1039  0.7477  1.0006
  763MOL0     H 2974   1.473   5.813   9.893 -0.0789 -1.8810  1.3139
  763MOL0     H 2975   1.359   5.705   9.705  0.1019  1.8938  1.2415
  763MOL0     H 2976   1.497   5.599   9.670 -2.6109  0.3590  0.2545
  763MOL0     H 2977   1.508   5.906   9.617 -3.4180  0.6291 -0.8835
  763MOL0     H 2978   1.593   5.778   9.532 -0.4808  2.8074 -2.1857
  763MOL0     H 2979   1.370   5.682   9.437 -1.7142 -0.3813  1.1732
  763MOL0     H 2980   1.441   5.831   9.380  1.2286 -2.4250 -1.1850
  763MOL0     H 2981   1.207   5.850   9.406  1.8583 -3.1336 -1.6054
  763MOL0     H 2982   1.209   5.808   9.582  2.2598  0.0938  0.2609
  763MOL0     H 2983   1.336   6.064   9.489  2.5375 -2.4824 -0.3800
  763MOL0     H 2984   1.322   6.000   9.655 -1.8812 -1.0412  0.9862
  763MOL0     H 2985   1.083   6.079   9.473 -2.1905  0.1136  1.1061
  763MOL0     H 2986   1.141   6.178   9.592 -2.1977 -0.3688 -1.3469
  763MOL0     H 2987   1.847   5.435   9.706 -0.4915  2.8697 -3.7820
  763MOL0     H 2988   2.081   5.376   9.691  1.5134 -0.0956  0.5238
  763MOL0     H 2989   2.549   5.507  10.087 -0.3005  2.9009 -1.3242
  763MOL0     H 2990   2.783   5.411  10.083  2.7308 -0.1599 -1.2270
  763MOL0     H 2991   4.493   6.166   9.389 -4.5603 -1.6100 -1.9125
  763MOL0     H 2992   4.738   6.167   9.357 -0.2658  1.8717 -0.3110
  763MOL0     H 2993   5.072   6.142   8.789  1.3712  2.0989 -0.4444
  763MOL0     H 2994   5.301   6.108   8.745  2.1472 -1.3062  0.4580
  763MOL0     H 2995   5.526   5.998   8.757 -0.4846 -1.1781  0.3736
  763MOL0     H 2996   5.505   6.173   8.769  0.1021 -0.7307 -0.6189
  763MOL0     H 2997   5.714   6.178   8.917 -0.3621 -0.0956 -0.3722
  763MOL0     H 2998   5.733   6.145   8.738  0.9936  2.0957  0.7154
  763MOL0     H 2999   5.722   5.897   8.816 -1.9586 -0.3960  0.7909
  763MOL0     H 3000   5.757   5.962   8.974 -2.7681 -0.2041 -1.5710
  763MOL0     H 3001   5.920   5.992   8.725  0.1527  1.1228 -0.3494
  763MOL0     H 3002   5.958   5.900   8.870 -2.1886 -1.3325 -0.5319
  763MOL0     H 3003   6.096   6.286   8.983  0.0287 -0.0793 -0.3048
  763MOL0     H 3004   5.368   6.044   9.165 -0.7694 -5.1942 -0.2474
  763MOL0     H 3005   5.107   6.104   9.209  0.8200 -0.4829  0.3725
  764MOL0     O 3006   1.787  10.565   2.092  0.5649 -0.2030 -0.1738
  764MOL0     C 3007   1.833  10.452   2.083 -0.0726 -0.1364 -0.4609
  764MOL0     O 3008   1.767  10.341   2.039  0.1835 -0.2017  0.4576
  764MOL0     C 3009   1.632  10.343   2.037 -0.1263  0.0844 -0.5670
  764MOL0     C 3010   1.554  10.282   2.136 -0.2885  0.5440 -0.0170
  764MOL0     C 3011   1.416  10.295   2.140 -0.7980  0.2597  0.1995
  764MOL0     C 3012   1.346  10.365   2.035 -0.6379  0.6302  0.1805
  764MOL0     O 3013   1.209  10.353   2.026  0.6942  0.3352 -0.5596
  764MOL0     C 3014   1.145  10.434   1.930 -0.7031 -0.0197  0.3663
  764MOL0     C 3015   0.999  10.426   1.934  0.2748  1.4272 -0.5126
  764MOL0     C 3016   0.944  10.487   2.058 -0.4759 -0.4390 -0.1363
  764MOL0     C 3017   0.792  10.499   2.047  0.1627 -0.3703 -0.8098
  764MOL0     C 3018   0.732  10.544   2.180 -0.2333 -0.1090 -1.2038
  764MOL0     C 3019   0.580  10.576   2.148  0.7605  0.6039 -0.1613
  764MOL0     C 3020   0.502  10.603   2.276 -0.3329  0.4973  0.7319
  764MOL0     C 3021   0.350  10.618   2.251 -0.8464 -1.2743 -0.1214
  764MOL0     N 3022   0.289  10.659   2.380 -1.0056 -0.2705  0.4073
  764MOL0     C 3023   0.240  10.586   2.482  0.9461  0.6949 -0.3552
  764MOL0     C 3024   0.172  10.674   2.558 -0.5740 -0.0808 -0.3153
  764MOL0     C 3025   0.099  10.625   2.680  0.0095  0.2939 -0.6748
  764MOL0     C 3026  -0.053  10.601   2.650  0.4344 -0.3406  0.2646
  764MOL0     C 3027  -0.152  10.720   2.664 -0.1034 -0.4427 -0.0871
  764MOL0     C 3028  -0.293  10.688   2.618  0.5812  0.1927  0.6921
  764MOL0     O 3029  -0.312  10.551   2.659 -0.4546  0.5257  0.1242
  764MOL0     C 3030  -0.437  10.498   2.673 -0.7112  0.6731  0.6469
  764MOL0     C 3031  -0.446  10.364   2.699  0.0751  0.9142  0.2672
  764MOL0     C 3032  -0.567  10.294   2.714 -0.0273 -0.8320  0.4380
  764MOL0     C 3033  -0.546  10.147   2.730 -0.1394  0.5084  0.1597
  764MOL0     C 3034  -0.690  10.363   2.715  0.5758 -0.3460  0.7120
  764MOL0     C 3035  -0.833  10.315   2.752 -0.1094  0.2361 -0.0213
  764MOL0     O 3036  -0.943  10.385   2.709  0.4124  0.1463 -0.0029
  764MOL0     C 3037  -1.068  10.338   2.725  0.0016 -0.0928 -0.0175
  764MOL0     C 3038  -1.164  10.384   2.642  0.3584  0.0014 -0.0839
  764MOL0     C 3039  -1.306  10.361   2.668 -0.2532 -0.1447  0.9491
  764MOL0     C 3040  -1.343  10.260   2.762  0.5210 -0.0803 -0.5366
  764MOL0     O 3041  -1.467  10.220   2.782  0.9849 -0.2017 -0.6933
  764MOL0     C 3042  -1.506  10.157   2.905  0.6132  1.3002 -0.2876
  764MOL0     C 3043  -1.651  10.152   2.906  0.6571  0.1865  0.1569
  764MOL0     C 3044  -1.701  10.073   3.032  0.5608 -0.1783 -0.1983
  764MOL0     C 3045  -1.842  10.012   3.001  0.4071 -0.4317  0.3232
  764MOL0     C 3046  -1.947  10.015   3.110  0.4621 -1.0136  0.6980
  764MOL0     C 3047  -2.010  10.152   3.164  0.7181  0.3216  0.3020
  764MOL0     C 3048  -2.081  10.120   3.287  0.8840 -0.6451  0.0955
  764MOL0     C 3049  -2.138  10.250   3.351  0.3638 -0.1197  0.3361
  764MOL0    Cl 3050  -2.282  10.204   3.459 -0.0686 -0.1029  0.4926
  764MOL0     C 3051  -1.243  10.208   2.842  0.0239 -0.0349 -0.5595
  764MOL0     C 3052  -1.106  10.244   2.824  0.7451  0.7409 -1.4586
  764MOL0     O 3053  -0.830  10.211   2.808  0.0122  0.1530 -0.3140
  764MOL0     C 3054  -0.688  10.507   2.676 -0.6388  0.4577 -0.2993
  764MOL0     C 3055  -0.561  10.568   2.662  0.5498  0.0209 -0.3254
  764MOL0     N 3056   0.178  10.801   2.508  0.3800  0.4817 -0.1632
  764MOL0     N 3057   0.244  10.790   2.394  0.2969  0.4296 -0.0552
  764MOL0     C 3058   1.423  10.434   1.933  0.1199 -0.2088  0.1590
  764MOL0     C 3059   1.566  10.423   1.935 -0.2398 -0.2684  0.0033
  764MOL0     C 3060   1.974  10.436   2.130 -0.7373  0.8572 -0.4468
  764MOL0     C 3061   2.042  10.549   2.182  0.2297  0.0445 -0.0447
  764MOL0     C 3062   2.158  10.532   2.253  0.3351  0.1726  0.1496
  764MOL0     C 3063   2.217  10.407   2.262 -0.3307  0.0444 -0.2416
  764MOL0     O 3064   2.323  10.392   2.353 -0.5058 -0.2302 -0.3720
  764MOL0     C 3065   2.424  10.293   2.318 -0.8160  0.1376  0.7343
  764MOL0     C 3066   2.533  10.326   2.417  0.4339  0.7793  0.0367
  764MOL0     C 3067   2.589  10.474   2.389 -0.3464  0.4942  0.8321
  764MOL0     C 3068   2.716  10.483   2.476  0.3720 -0.8009 -0.1986
  764MOL0     C 3069   2.844  10.425   2.429 -0.5353 -0.2942 -0.1168
  764MOL0     C 3070   2.946  10.373   2.386 -0.4276 -0.6418 -0.8292
  764MOL0     C 3071   2.152  10.296   2.202 -0.2168  0.6047 -0.0622
  764MOL0     C 3072   2.028  10.308   2.140 -1.1034 -0.1391  0.0012
  764MOL0     H 3073   1.607  10.232   2.216  2.7923  0.7583 -1.7509
  764MOL0     H 3074   1.359  10.258   2.225  0.0990  0.7401  1.0312
  764MOL0     H 3075   1.184  10.536   1.946  2.6639 -0.9022 -1.2242
  764MOL0     H 3076   1.179  10.394   1.834  0.9515  2.2985 -0.1143
  764MOL0     H 3077   0.960  10.488   1.853  0.0143 -0.9778 -2.3487
  764MOL0     H 3078   0.965  10.324   1.918  1.4462  1.0394 -0.6144
  764MOL0     H 3079   0.967  10.426   2.145  1.2448 -1.4479 -1.2351
  764MOL0     H 3080   0.988  10.585   2.076 -1.6080 -0.3580  2.6860
  764MOL0     H 3081   0.761  10.572   1.972  2.2816  0.8286 -0.5978
  764MOL0     H 3082   0.744  10.408   2.011 -0.2753 -1.7158  2.7653
  764MOL0     H 3083   0.729  10.467   2.257  1.3453  0.8235 -0.1292
  764MOL0     H 3084   0.787  10.630   2.219  1.2934 -1.5190 -0.1171
  764MOL0     H 3085   0.579  10.669   2.092 -2.7094 -0.5416 -2.3073
  764MOL0     H 3086   0.537  10.491   2.094 -0.5178 -0.8124  2.8203
  764MOL0     H 3087   0.514  10.520   2.347 -0.1125 -1.6311 -1.6844
  764MOL0     H 3088   0.541  10.695   2.321 -1.7350  1.2873  0.4197
  764MOL0     H 3089   0.304  10.531   2.205 -1.5357 -1.4391  0.8641
  764MOL0     H 3090   0.340  10.706   2.186 -0.5752  0.4540  2.0737
  764MOL0     H 3091   0.246  10.478   2.489  0.8893  0.5838 -1.7479
  764MOL0     H 3092   0.150  10.535   2.716  0.9550  0.6463 -1.0734
  764MOL0     H 3093   0.110  10.691   2.766  1.3060 -0.4359 -0.2500
  764MOL0     H 3094  -0.089  10.521   2.716 -0.2710 -1.3434 -1.2927
  764MOL0     H 3095  -0.057  10.560   2.549 -3.6830 -0.5219  0.3390
  764MOL0     H 3096  -0.118  10.809   2.610  0.1959  0.5293  1.6274
  764MOL0     H 3097  -0.158  10.754   2.768  2.6896  1.1767 -0.3463
  764MOL0     H 3098  -0.313  10.702   2.511 -0.5052 -0.1092  0.8425
  764MOL0     H 3099  -0.363  10.750   2.675  1.9223  0.8670  1.6325
  764MOL0     H 3100  -0.351  10.314   2.711 -0.6123 -0.3375  0.6835
  764MOL0     H 3101  -0.450  10.121   2.685  0.2737  1.2249  0.5882
  764MOL0     H 3102  -0.535  10.110   2.833  1.0648  0.6514  0.1011
  764MOL0     H 3103  -0.627  10.091   2.683  1.7673 -2.9601  0.6601
  764MOL0     H 3104  -1.132  10.452   2.563  3.4027 -0.6184  0.5071
  764MOL0     H 3105  -1.378  10.405   2.599 -0.7115 -1.1071  0.7893
  764MOL0     H 3106  -1.465  10.056   2.910  0.8658  1.4825  2.8666
  764MOL0     H 3107  -1.475  10.217   2.990 -5.0748  2.8824  1.1156
  764MOL0     H 3108  -1.691  10.253   2.915 -1.8186 -0.7684  0.8202
  764MOL0     H 3109  -1.685  10.106   2.813  0.1034 -0.0594  0.4736
  764MOL0     H 3110  -1.707  10.139   3.119  1.9713  0.2087 -0.3774
  764MOL0     H 3111  -1.634   9.990   3.059  1.7888  0.5560 -0.9191
  764MOL0     H 3112  -1.884  10.079   2.925  0.2648  0.1668  0.9225
  764MOL0     H 3113  -1.842   9.911   2.959 -0.0917 -0.5500  0.6123
  764MOL0     H 3114  -1.914   9.961   3.200 -0.8205 -0.0566  1.7856
  764MOL0     H 3115  -2.029   9.951   3.075  1.2849 -0.5986 -2.2057
  764MOL0     H 3116  -1.928  10.223   3.178 -0.2072  1.8598 -1.5576
  764MOL0     H 3117  -2.077  10.187   3.085 -1.2878  1.0871  2.2395
  764MOL0     H 3118  -2.013  10.074   3.360  1.6161  0.2418 -0.0071
  764MOL0     H 3119  -2.166  10.053   3.269 -0.6699  0.9478  1.1878
  764MOL0     H 3120  -2.186  10.308   3.272  1.4188  1.8907  1.0964
  764MOL0     H 3121  -2.059  10.304   3.404  1.4917 -1.8527  0.5032
  764MOL0     H 3122  -1.265  10.139   2.923 -1.5731  1.6649  0.5384
  764MOL0     H 3123  -1.048  10.194   2.901 -3.4535 -1.7501  0.4529
  764MOL0     H 3124  -0.776  10.569   2.665  1.2888  3.3130 -0.8842
  764MOL0     H 3125  -0.561  10.671   2.630  0.5533  1.1028  2.8272
  764MOL0     H 3126   1.387  10.498   1.853  3.0912  0.2143 -0.9458
  764MOL0     H 3127   1.621  10.463   1.850 -2.4000  1.5532 -0.6597
  764MOL0     H 3128   2.004  10.651   2.186 -1.0218 -0.4024 -0.1285
  764MOL0     H 3129   2.209  10.614   2.304 -0.2870  1.0111 -0.5457
  764MOL0     H 3130   2.388  10.192   2.341  1.3427 -1.0768 -0.8506
  764MOL0     H 3131   2.458  10.318   2.217  0.9908 -0.6296  1.1186
  764MOL0     H 3132   2.621  10.263   2.403  1.2774  2.3640 -2.4445
  764MOL0     H 3133   2.490  10.325   2.518 -1.2910  0.3721 -0.6581
  764MOL0     H 3134   2.520  10.548   2.430  1.3270  2.3397  0.4548
  764MOL0     H 3135   2.618  10.489   2.285 -0.4058 -3.1481  0.1447
  764MOL0     H 3136   2.697  10.450   2.579 -0.0968  1.1859  0.4014
  764MOL0     H 3137   2.729  10.591   2.489  0.4429 -0.9188  0.7978
  764MOL0     H 3138   3.042  10.329   2.366  1.2018  2.7141 -1.1153
  764MOL0     H 3139   2.187  10.195   2.222 -2.1769 -0.1487 -0.2208
  764MOL0     H 3140   1.983  10.223   2.090  0.5616 -2.4759  2.2133
  765MOL0     O 3141   9.388   7.731  10.985  0.0126 -1.1289 -0.0913
  765MOL0     C 3142   9.418   7.634  11.052 -0.2655 -0.7462  1.2752
  765MOL0     O 3143   9.323   7.551  11.107  0.3470  0.4570 -0.1995
  765MOL0     C 3144   9.193   7.569  11.094 -0.1538  0.5937 -0.0306
  765MOL0     C 3145   9.119   7.496  10.999  0.5203  0.0242  0.7974
  765MOL0     C 3146   8.981   7.518  11.000  0.1543 -0.0850 -0.2599
  765MOL0     C 3147   8.919   7.616  11.079  0.5302  0.1445  0.1739
  765MOL0     O 3148   8.782   7.623  11.066  0.5062 -0.5678  0.2880
  765MOL0     C 3149   8.712   7.704  11.166  0.4819 -0.2706 -0.7479
  765MOL0     C 3150   8.559   7.690  11.157  0.0582  0.1943 -0.7834
  765MOL0     C 3151   8.518   7.721  11.010 -0.2738 -0.6584  0.3148
  765MOL0     C 3152   8.505   7.588  10.931  0.0971 -0.4980  0.0807
  765MOL0     C 3153   8.456   7.615  10.788 -0.2648 -0.0849 -0.2220
  765MOL0     C 3154   8.401   7.488  10.727 -0.0726  0.2496  0.1827
  765MOL0     C 3155   8.343   7.521  10.589  0.0125 -0.4693  0.1193
  765MOL0     C 3156   8.279   7.399  10.527  0.1435  0.5420 -1.0400
  765MOL0     N 3157   8.228   7.413  10.396  0.1121 -0.0822  0.0389
  765MOL0     C 3158   8.290   7.372  10.281 -0.9328 -0.4372 -0.0376
  765MOL0     C 3159   8.208   7.403  10.180  0.6306  0.0738 -0.6233
  765MOL0     C 3160   8.221   7.362  10.037 -0.3868 -0.4504  0.4223
  765MOL0     C 3161   8.128   7.248   9.993 -0.9461 -0.5225 -0.4188
  765MOL0     C 3162   7.980   7.284  10.002 -0.6808 -0.0718 -0.9371
  765MOL0     C 3163   7.888   7.171   9.983  0.2639  0.5463 -0.9278
  765MOL0     O 3164   7.754   7.223   9.956  0.0753  0.2065  0.5435
  765MOL0     C 3165   7.648   7.132   9.919  0.4274 -0.6439 -0.6572
  765MOL0     C 3166   7.652   6.994   9.941  0.2686  0.3148 -0.0066
  765MOL0     C 3167   7.541   6.913   9.919 -0.3857 -0.3059 -0.2112
  765MOL0     C 3168   7.571   6.767   9.936  0.4727 -0.7528 -0.1536
  765MOL0     C 3169   7.418   6.969   9.871  0.1905 -0.1413  0.0375
  765MOL0     C 3170   7.285   6.897   9.872 -0.2076 -0.2588 -0.1722
  765MOL0     O 3171   7.173   6.954   9.816  0.4245  0.2869 -0.1620
  765MOL0     C 3172   7.060   6.867   9.806  0.0774  0.7051 -0.1490
  765MOL0     C 3173   7.042   6.780   9.696 -1.3974 -0.6985  0.4452
  765MOL0     C 3174   6.923   6.711   9.671 -0.0344  0.5595 -0.2440
  765MOL0     C 3175   6.827   6.714   9.770  0.4781  0.4186 -0.3882
  765MOL0     O 3176   6.700   6.655   9.751 -0.8568  0.3834 -0.6291
  765MOL0     C 3177   6.681   6.540   9.830  0.2967  0.1025 -0.5454
  765MOL0     C 3178   6.577   6.464   9.749  0.5780  0.2794  0.1587
  765MOL0     C 3179   6.618   6.442   9.602 -1.0830  0.6197  0.4227
  765MOL0     C 3180   6.513   6.356   9.524  0.4870 -0.6141 -0.2955
  765MOL0     C 3181   6.570   6.255   9.426  0.3674 -0.5441  0.1933
  765MOL0     C 3182   6.584   6.299   9.286  0.2050 -0.2017  0.0823
  765MOL0     C 3183   6.643   6.202   9.188  0.0538  0.6140 -0.5178
  765MOL0     C 3184   6.635   6.243   9.041 -0.6763 -0.0049  0.4440
  765MOL0    Cl 3185   6.739   6.398   9.019  0.1193  0.3700  0.0460
  765MOL0     C 3186   6.850   6.792   9.885  0.3363  0.1388 -0.1626
  765MOL0     C 3187   6.963   6.862   9.903  0.6830 -0.1172 -0.2913
  765MOL0     O 3188   7.279   6.792   9.934 -1.1197  0.6928  0.1733
  765MOL0     C 3189   7.415   7.111   9.849  0.5079 -0.5346 -0.3845
  765MOL0     C 3190   7.528   7.182   9.865  0.3136 -0.0470  0.3493
  765MOL0     N 3191   8.105   7.473  10.237 -0.0541  0.7280 -0.0737
  765MOL0     N 3192   8.113   7.465  10.362 -0.0681 -0.4424  0.6230
  765MOL0     C 3193   8.996   7.678  11.179 -0.1979 -0.9214  0.8998
  765MOL0     C 3194   9.135   7.655  11.180 -0.1997 -0.0359  0.6738
  765MOL0     C 3195   9.553   7.608  11.085  0.3051  0.2832 -0.0148
  765MOL0     C 3196   9.643   7.713  11.105  0.9177  0.9981 -0.3846
  765MOL0     C 3197   9.763   7.684  11.168  0.1745  0.8394 -0.6946
  765MOL0     C 3198   9.805   7.557  11.189  0.0497 -0.2369 -0.4700
  765MOL0     O 3199   9.928   7.531  11.238 -0.3351 -0.1974 -0.2219
  765MOL0     C 3200  10.020   7.460  11.146 -0.0883  0.1493  0.4835
  765MOL0     C 3201  10.094   7.567  11.065  0.2114  0.8429 -0.3447
  765MOL0     C 3202  10.217   7.528  10.985 -1.4564  0.0742  0.5086
  765MOL0     C 3203  10.337   7.501  11.075  0.0013 -0.0876 -0.3844
  765MOL0     C 3204  10.462   7.464  11.015 -0.7753  1.1686  0.5939
  765MOL0     C 3205  10.573   7.425  10.977 -0.1140 -0.8258 -0.2414
  765MOL0     C 3206   9.714   7.446  11.169  1.5135  0.5161 -0.1750
  765MOL0     C 3207   9.590   7.472  11.119 -0.2739 -0.1726  1.0514
  765MOL0     H 3208   9.153   7.413  10.938 -0.4549 -1.9305  2.7613
  765MOL0     H 3209   8.923   7.462  10.928  2.0548 -1.3478 -0.9036
  765MOL0     H 3210   8.738   7.673  11.268  1.7977  1.1877 -0.5985
  765MOL0     H 3211   8.737   7.810  11.158  0.4906 -0.0631  1.3980
  765MOL0     H 3212   8.518   7.592  11.185 -3.6851  0.4965 -4.3225
  765MOL0     H 3213   8.512   7.757  11.229 -2.6008 -3.5838  1.3581
  765MOL0     H 3214   8.421   7.770  11.023  0.6656  0.8802  1.9600
  765MOL0     H 3215   8.581   7.792  10.956 -0.8501 -1.1688 -1.0830
  765MOL0     H 3216   8.598   7.531  10.925  1.3539  1.5546 -0.8540
  765MOL0     H 3217   8.427   7.526  10.977 -0.9614  0.7727  0.0770
  765MOL0     H 3218   8.378   7.691  10.798 -1.7225 -1.7814  2.5135
  765MOL0     H 3219   8.546   7.641  10.731  1.1116 -0.1520  1.8092
  765MOL0     H 3220   8.480   7.414  10.717 -1.5051 -1.1925 -0.8902
  765MOL0     H 3221   8.324   7.452  10.796  0.0667 -0.3363  0.0292
  765MOL0     H 3222   8.268   7.600  10.594  1.2953  0.8726 -1.0193
  765MOL0     H 3223   8.423   7.555  10.522  1.0469 -3.2261 -0.1849
  765MOL0     H 3224   8.195   7.374  10.592 -0.2515 -0.1264 -1.7883
  765MOL0     H 3225   8.351   7.316  10.530 -0.1904  0.1458 -2.7300
  765MOL0     H 3226   8.376   7.305  10.279  0.1512  0.9117 -0.7170
  765MOL0     H 3227   8.210   7.453   9.977 -0.1431 -2.1270 -2.3326
  765MOL0     H 3228   8.324   7.338  10.010 -1.1629 -2.3651 -1.0588
  765MOL0     H 3229   8.151   7.156  10.047  3.7891  0.2402 -0.7238
  765MOL0     H 3230   8.137   7.220   9.888 -0.1101  0.5126 -0.6373
  765MOL0     H 3231   7.947   7.361   9.931  0.3694 -0.2503 -1.6474
  765MOL0     H 3232   7.951   7.334  10.095 -3.2170 -0.1406 -1.6072
  765MOL0     H 3233   7.890   7.116  10.078  4.0599  2.0318  0.0750
  765MOL0     H 3234   7.913   7.104   9.901  0.6203 -0.6391  0.1078
  765MOL0     H 3235   7.740   6.954   9.989  1.2899 -0.8060 -2.6401
  765MOL0     H 3236   7.524   6.717   9.851  1.0347 -2.6977  0.6458
  765MOL0     H 3237   7.676   6.739   9.946  0.8412  0.5659 -0.0368
  765MOL0     H 3238   7.517   6.736  10.026  1.6503 -1.8128  0.2144
  765MOL0     H 3239   7.119   6.769   9.620  0.2519 -1.4250  2.1391
  765MOL0     H 3240   6.909   6.647   9.585 -1.5188 -4.2357  3.1717
  765MOL0     H 3241   6.769   6.475   9.834 -0.2216 -0.5379  1.0265
  765MOL0     H 3242   6.646   6.565   9.930 -0.6172 -1.9931 -0.2950
  765MOL0     H 3243   6.570   6.363   9.790  2.4436  0.3029  0.6238
  765MOL0     H 3244   6.478   6.510   9.748  2.1643  4.0937  1.0611
  765MOL0     H 3245   6.717   6.396   9.593 -0.5373  2.1229 -2.2266
  765MOL0     H 3246   6.639   6.538   9.555  0.0018 -0.4412 -1.3703
  765MOL0     H 3247   6.466   6.290   9.598  2.4125  0.5255  2.0779
  765MOL0     H 3248   6.438   6.422   9.480 -0.4116 -1.0340  0.5567
  765MOL0     H 3249   6.502   6.169   9.425 -0.6250  0.2291 -0.1686
  765MOL0     H 3250   6.664   6.220   9.469  0.8224 -1.0752 -1.1863
  765MOL0     H 3251   6.490   6.340   9.246 -0.0412  0.5646  1.3995
  765MOL0     H 3252   6.654   6.382   9.289  1.4359 -1.1795 -0.4750
  765MOL0     H 3253   6.593   6.106   9.203  2.5934 -0.4511  2.1189
  765MOL0     H 3254   6.749   6.181   9.208 -0.2306 -1.8015 -1.2339
  765MOL0     H 3255   6.539   6.255   8.992  0.4549  2.1321 -1.4348
  765MOL0     H 3256   6.674   6.168   8.972 -0.4298 -0.1685  0.7603
  765MOL0     H 3257   6.764   6.789   9.951 -1.2589  1.3014 -2.0898
  765MOL0     H 3258   6.973   6.921   9.993  1.6307 -0.4924 -0.1406
  765MOL0     H 3259   7.332   7.147   9.790  0.5883 -2.7785 -2.0196
  765MOL0     H 3260   7.523   7.288   9.841  1.0395  0.1179  0.8932
  765MOL0     H 3261   8.954   7.746  11.252 -0.5782  0.2687 -0.3891
  765MOL0     H 3262   9.196   7.696  11.261 -1.2713 -0.2993  1.6442
  765MOL0     H 3263   9.633   7.814  11.068  2.4746 -0.0002 -3.9952
  765MOL0     H 3264   9.843   7.754  11.190 -0.8251  1.3112  1.8422
  765MOL0     H 3265  10.082   7.389  11.201  0.7663 -0.5367 -1.2611
  765MOL0     H 3266   9.964   7.397  11.075  1.4180 -0.3102 -0.3298
  765MOL0     H 3267  10.128   7.654  11.122 -0.9522  1.1368 -0.0629
  765MOL0     H 3268  10.012   7.604  11.003 -1.9893 -1.2490  1.1239
  765MOL0     H 3269  10.244   7.606  10.913  1.5000  0.9196  2.3597
  765MOL0     H 3270  10.185   7.438  10.931 -0.7723  0.6203 -0.8382
  765MOL0     H 3271  10.301   7.421  11.142  0.7931  0.4100  0.6627
  765MOL0     H 3272  10.366   7.588  11.135  0.6723  0.5429 -1.5949
  765MOL0     H 3273  10.657   7.369  10.940 -0.4880 -2.2335  0.9535
  765MOL0     H 3274   9.736   7.340  11.182 -2.1862 -0.2350  1.0492
  765MOL0     H 3275   9.529   7.385  11.096 -2.7129  0.7777  3.4162
  766MOL0     O 3276   8.027   0.025   8.591  0.2634 -0.0465 -0.0563
  766MOL0     C 3277   8.044  -0.097   8.605 -0.0558 -0.2667 -0.4032
  766MOL0     O 3278   7.994  -0.174   8.702  0.3503  0.4178 -0.0006
  766MOL0     C 3279   7.918  -0.115   8.791 -1.0074 -0.0275 -0.1103
  766MOL0     C 3280   7.783  -0.118   8.764  0.1898  0.2308 -0.2970
  766MOL0     C 3281   7.700  -0.062   8.865  0.5181  0.0003 -0.4145
  766MOL0     C 3282   7.747  -0.009   8.986  0.0499  0.4433 -0.0829
  766MOL0     O 3283   7.664   0.054   9.081 -0.1645 -0.2201 -0.5332
  766MOL0     C 3284   7.524   0.077   9.066  0.5488 -0.4523 -0.0555
  766MOL0     C 3285   7.430  -0.028   9.115 -0.6135 -0.2952  0.1858
  766MOL0     C 3286   7.288   0.029   9.128  0.0196  0.5628 -0.6703
  766MOL0     C 3287   7.194  -0.088   9.152  0.3195  0.0511  0.2831
  766MOL0     C 3288   7.062  -0.040   9.210  0.6900 -0.7028  0.3900
  766MOL0     C 3289   6.958  -0.143   9.184 -0.1174  0.3554 -1.2308
  766MOL0     C 3290   6.812  -0.100   9.187 -0.3810 -0.5977 -1.0168
  766MOL0     C 3291   6.725  -0.201   9.263  0.0099  0.0191  0.3683
  766MOL0     N 3292   6.587  -0.160   9.280 -0.0521  0.2526  0.0158
  766MOL0     C 3293   6.545  -0.049   9.356 -1.1981 -0.1281 -0.2027
  766MOL0     C 3294   6.416  -0.033   9.317 -1.1082 -1.0542  1.0115
  766MOL0     C 3295   6.335   0.082   9.377  0.1801 -0.1675 -1.1935
  766MOL0     C 3296   6.188   0.083   9.324 -0.7434 -0.0584 -1.0215
  766MOL0     C 3297   6.167   0.122   9.174  0.0474 -0.5649 -0.3803
  766MOL0     C 3298   6.004   0.123   9.165  0.1922 -1.6698 -0.3520
  766MOL0     O 3299   5.973   0.213   9.061  0.0881  0.3055  0.3672
  766MOL0     C 3300   5.841   0.241   9.033 -0.0859  0.6292 -0.0931
  766MOL0     C 3301   5.730   0.159   9.058  0.0563 -0.7229  0.4775
  766MOL0     C 3302   5.604   0.197   9.016  0.1268 -0.0102  0.6491
  766MOL0     C 3303   5.490   0.103   9.041 -0.3924 -0.0873 -0.2994
  766MOL0     C 3304   5.583   0.322   8.945 -0.2905 -0.3586 -0.1026
  766MOL0     C 3305   5.452   0.367   8.881  0.1157 -0.6827 -0.3056
  766MOL0     O 3306   5.332   0.324   8.939 -0.1397  0.4827 -0.8737
  766MOL0     C 3307   5.214   0.386   8.923  0.3617  0.0078  0.8624
  766MOL0     C 3308   5.200   0.524   8.890 -0.0317  0.5320 -0.2668
  766MOL0     C 3309   5.076   0.581   8.860  0.0896 -0.1756  0.1395
  766MOL0     C 3310   4.959   0.502   8.859  0.3913 -0.6402  0.3652
  766MOL0     O 3311   4.840   0.566   8.852 -0.7136 -0.3079 -0.4452
  766MOL0     C 3312   4.811   0.652   8.958  0.2926  0.4357 -0.8102
  766MOL0     C 3313   4.673   0.714   8.925  0.6437  0.4066 -0.2511
  766MOL0     C 3314   4.643   0.821   9.018 -0.1775 -0.6877 -0.3952
  766MOL0     C 3315   4.499   0.863   9.008 -0.9025 -1.7289 -0.3103
  766MOL0     C 3316   4.489   1.000   9.081 -0.5074  0.5799 -0.2177
  766MOL0     C 3317   4.344   1.040   9.102  0.8422 -0.1419 -0.2672
  766MOL0     C 3318   4.272   0.967   9.217 -0.7482 -0.3330 -0.7799
  766MOL0     C 3319   4.160   1.046   9.282 -0.7407 -0.0993 -0.1729
  766MOL0    Cl 3320   4.216   1.199   9.352 -0.3863 -0.0459 -0.0685
  766MOL0     C 3321   4.970   0.365   8.887  0.8342  0.1651  0.3863
  766MOL0     C 3322   5.090   0.307   8.918 -0.3557  0.2028 -0.6627
  766MOL0     O 3323   5.462   0.445   8.782  0.0966  0.7104  0.3916
  766MOL0     C 3324   5.696   0.401   8.926 -0.8177 -0.4950 -0.5141
  766MOL0     C 3325   5.827   0.361   8.967  0.0844  0.5858 -0.5540
  766MOL0     N 3326   6.378  -0.128   9.226 -0.2700  1.0729  0.7712
  766MOL0     N 3327   6.484  -0.204   9.202 -0.0325  0.0591  0.2507
  766MOL0     C 3328   7.887  -0.014   9.010  0.5865  0.0893 -0.3739
  766MOL0     C 3329   7.970  -0.071   8.919  0.1627 -0.4643 -0.0007
  766MOL0     C 3330   8.119  -0.174   8.506  0.0294 -0.9153  0.0629
  766MOL0     C 3331   8.145  -0.110   8.376 -0.1834 -0.1223 -0.1900
  766MOL0     C 3332   8.223  -0.164   8.281 -0.2466 -0.1770 -0.3177
  766MOL0     C 3333   8.295  -0.283   8.317 -0.2350 -0.0430 -0.2323
  766MOL0     O 3334   8.393  -0.331   8.239  0.0278  0.3378  0.0008
  766MOL0     C 3335   8.392  -0.331   8.094 -0.0050  0.4672 -0.6429
  766MOL0     C 3336   8.510  -0.418   8.049  0.0567 -0.4020  0.1969
  766MOL0     C 3337   8.465  -0.566   8.007  0.5558 -0.3561 -0.5433
  766MOL0     C 3338   8.580  -0.653   7.958 -0.1448  0.6969 -0.3306
  766MOL0     C 3339   8.533  -0.777   7.892  0.6011  0.5757 -0.2997
  766MOL0     C 3340   8.490  -0.875   7.842 -0.7602  0.2714  0.7353
  766MOL0     C 3341   8.271  -0.347   8.437  0.6931 -0.4376 -0.0845
  766MOL0     C 3342   8.178  -0.301   8.530 -0.3440 -0.0382  0.8121
  766MOL0     H 3343   7.747  -0.161   8.672  1.2295 -2.4416  0.4241
  766MOL0     H 3344   7.593  -0.052   8.850  0.3561  1.3325  1.3569
  766MOL0     H 3345   7.508   0.159   9.137  0.7701  0.3555 -0.9255
  766MOL0     H 3346   7.506   0.110   8.963  0.7691  0.2640  0.1248
  766MOL0     H 3347   7.420  -0.113   9.046 -0.6085 -1.3465  1.4499
  766MOL0     H 3348   7.472  -0.063   9.210 -1.3885 -0.7826  0.3608
  766MOL0     H 3349   7.291   0.103   9.209  1.0554 -1.6551  1.4645
  766MOL0     H 3350   7.267   0.084   9.036  0.0114 -0.8830 -1.5459
  766MOL0     H 3351   7.174  -0.138   9.057 -0.9033 -0.8849  0.9970
  766MOL0     H 3352   7.249  -0.164   9.207 -0.4693 -0.3262  0.5730
  766MOL0     H 3353   7.063  -0.018   9.317 -3.4994  1.0754  0.2498
  766MOL0     H 3354   7.028   0.044   9.150 -1.2438 -0.3955  1.8254
  766MOL0     H 3355   6.970  -0.200   9.092 -0.1785 -1.4526 -0.1494
  766MOL0     H 3356   6.967  -0.220   9.260  0.1858 -0.1241 -1.7472
  766MOL0     H 3357   6.801  -0.006   9.241 -2.0621 -1.4085  0.1330
  766MOL0     H 3358   6.782  -0.082   9.084 -0.4702 -0.5104 -0.9756
  766MOL0     H 3359   6.769  -0.219   9.362  1.2376  0.4607 -0.0832
  766MOL0     H 3360   6.721  -0.292   9.202  3.2423  0.8549 -1.3454
  766MOL0     H 3361   6.611   0.010   9.419 -0.9328  1.3776 -1.8118
  766MOL0     H 3362   6.343   0.072   9.485 -0.6953  2.2075 -0.8539
  766MOL0     H 3363   6.373   0.182   9.356  0.1910  0.6265  2.1823
  766MOL0     H 3364   6.149   0.166   9.384  2.3536  0.4822  0.4559
  766MOL0     H 3365   6.135  -0.010   9.348  1.0075 -1.2394 -1.5225
  766MOL0     H 3366   6.206   0.056   9.096  1.1955  0.6348 -0.8613
  766MOL0     H 3367   6.212   0.220   9.153  1.8315 -1.0221  1.0315
  766MOL0     H 3368   5.960   0.162   9.258  1.4335 -4.0890  1.3512
  766MOL0     H 3369   5.967   0.022   9.147 -1.5652 -1.2214  0.5256
  766MOL0     H 3370   5.739   0.067   9.116  1.1978 -0.5773  0.5525
  766MOL0     H 3371   5.424   0.095   8.954  0.8365 -0.4782 -1.2295
  766MOL0     H 3372   5.524   0.002   9.066 -1.4941 -0.7507 -1.3693
  766MOL0     H 3373   5.429   0.131   9.127  0.4528 -0.1881  0.3426
  766MOL0     H 3374   5.289   0.586   8.877 -1.1983  2.1143 -1.0457
  766MOL0     H 3375   5.058   0.688   8.850 -0.7345 -0.3336 -0.1858
  766MOL0     H 3376   4.804   0.590   9.047 -1.6705  2.9135  0.9002
  766MOL0     H 3377   4.890   0.725   8.978  2.0964 -1.6292 -0.0535
  766MOL0     H 3378   4.656   0.749   8.822  3.0741  1.4654 -0.3524
  766MOL0     H 3379   4.593   0.642   8.944  0.2506  1.4584  2.4989
  766MOL0     H 3380   4.707   0.908   9.001  0.5006 -1.4301 -1.7710
  766MOL0     H 3381   4.662   0.784   9.120 -0.5231 -1.2963 -0.5440
  766MOL0     H 3382   4.461   0.877   8.906 -0.2374 -1.1853 -0.4888
  766MOL0     H 3383   4.440   0.782   9.052  0.8251 -2.7498  0.2060
  766MOL0     H 3384   4.532   1.080   9.020 -1.5208 -0.2401 -2.0762
  766MOL0     H 3385   4.539   1.002   9.178  0.6283 -2.6776 -0.6163
  766MOL0     H 3386   4.339   1.146   9.131 -1.1223  0.5354 -2.7175
  766MOL0     H 3387   4.291   1.031   9.007  1.7495  2.7868 -1.1850
  766MOL0     H 3388   4.350   0.954   9.292 -0.5836  2.1722 -0.4333
  766MOL0     H 3389   4.230   0.871   9.186 -2.5679  0.2100 -0.0913
  766MOL0     H 3390   4.133   0.986   9.369  1.9529 -1.9138 -0.4568
  766MOL0     H 3391   4.076   1.059   9.213 -1.5071 -1.6571  0.4148
  766MOL0     H 3392   4.880   0.306   8.878  1.6699 -1.5671  2.4381
  766MOL0     H 3393   5.104   0.200   8.926  0.5867  0.2930 -0.9505
  766MOL0     H 3394   5.694   0.491   8.866  3.3950  0.5695  0.6243
  766MOL0     H 3395   5.910   0.430   8.953  0.2293  0.0476 -2.8565
  766MOL0     H 3396   7.926   0.037   9.098 -1.2849  0.0160  0.5365
  766MOL0     H 3397   8.076  -0.076   8.942  0.4775  2.8027 -0.3357
  766MOL0     H 3398   8.123  -0.004   8.370  4.7706  1.1902  0.1137
  766MOL0     H 3399   8.254  -0.098   8.201 -2.2589  3.9556  1.9564
  766MOL0     H 3400   8.301  -0.365   8.043  0.2557 -0.1137 -0.7295
  766MOL0     H 3401   8.417  -0.233   8.054  1.7766 -0.2849 -1.4832
  766MOL0     H 3402   8.590  -0.409   8.123 -0.3859  0.3664  0.5938
  766MOL0     H 3403   8.548  -0.365   7.961  4.9844 -0.6047  1.9173
  766MOL0     H 3404   8.391  -0.551   7.927 -0.0443 -1.6702 -0.2513
  766MOL0     H 3405   8.401  -0.605   8.086 -2.6869  1.8911 -1.8273
  766MOL0     H 3406   8.638  -0.679   8.047 -1.5968  0.2281  0.5088
  766MOL0     H 3407   8.652  -0.597   7.897  1.5754 -1.2144 -0.1717
  766MOL0     H 3408   8.452  -0.955   7.781 -2.4402  0.8708  0.9462
  766MOL0     H 3409   8.328  -0.433   8.468  1.8889  0.1957 -0.4905
  766MOL0     H 3410   8.155  -0.354   8.622 -3.5615 -0.5643 -0.1731
  767MOL0     O 3411   7.850   0.240   2.240  0.1498 -0.5709  0.1462
  767MOL0     C 3412   7.921   0.282   2.148  0.8443  0.4875  0.9377
  767MOL0     O 3413   7.872   0.325   2.026 -0.0122  0.3379  0.0459
  767MOL0     C 3414   7.740   0.345   1.988  0.5463  0.5672 -0.3258
  767MOL0     C 3415   7.729   0.371   1.854 -0.3300  0.4305  0.2683
  767MOL0     C 3416   7.606   0.395   1.798  0.2783  0.1775  0.0404
  767MOL0     C 3417   7.490   0.414   1.874 -0.7517  0.7889 -0.6027
  767MOL0     O 3418   7.379   0.450   1.802 -0.1553 -0.5509 -0.1869
  767MOL0     C 3419   7.248   0.465   1.867  0.0892 -0.8237  0.5862
  767MOL0     C 3420   7.151   0.437   1.751  0.1662  0.4407  0.4291
  767MOL0     C 3421   7.009   0.494   1.772 -0.2291  0.1652 -0.4689
  767MOL0     C 3422   6.922   0.474   1.648 -0.3010 -0.4248  0.5070
  767MOL0     C 3423   6.803   0.561   1.665 -0.1020  0.0166  0.4213
  767MOL0     C 3424   6.698   0.501   1.763 -0.6847  1.1678  0.1040
  767MOL0     C 3425   6.584   0.599   1.783  0.4486  0.1351 -1.2256
  767MOL0     C 3426   6.477   0.555   1.888 -0.5339 -0.5081  0.1920
  767MOL0     N 3427   6.355   0.636   1.880  0.3370  0.4104  1.2783
  767MOL0     C 3428   6.249   0.595   1.802  0.3685 -0.1044 -0.4172
  767MOL0     C 3429   6.160   0.685   1.837  1.4573 -0.1811  0.4091
  767MOL0     C 3430   6.020   0.684   1.778  0.6580 -0.0431  0.2430
  767MOL0     C 3431   6.013   0.742   1.634 -0.0139  0.0045  0.0934
  767MOL0     C 3432   5.878   0.812   1.596  0.2711 -0.2615  0.0530
  767MOL0     C 3433   5.754   0.751   1.652  0.1331 -0.1001 -0.2762
  767MOL0     O 3434   5.644   0.817   1.588  0.6278 -0.0712  0.0754
  767MOL0     C 3435   5.514   0.765   1.567 -0.3937 -0.3149 -0.0804
  767MOL0     C 3436   5.502   0.629   1.557  0.6725 -0.1149  0.5301
  767MOL0     C 3437   5.374   0.572   1.532 -0.5226  0.2616  0.1860
  767MOL0     C 3438   5.372   0.421   1.530 -0.2839  0.3702  0.0761
  767MOL0     C 3439   5.260   0.654   1.520  0.9242  0.0512 -0.1009
  767MOL0     C 3440   5.125   0.597   1.499  0.1327  0.3050 -0.2901
  767MOL0     O 3441   5.026   0.688   1.490 -0.3946  0.0341 -0.0060
  767MOL0     C 3442   4.901   0.639   1.492  0.5110 -0.3040  0.1435
  767MOL0     C 3443   4.840   0.563   1.590 -0.8598  0.2278 -0.1477
  767MOL0     C 3444   4.699   0.537   1.574  0.0269  0.1212 -0.2911
  767MOL0     C 3445   4.625   0.586   1.467  0.5096 -0.1513  0.7146
  767MOL0     O 3446   4.489   0.553   1.465 -0.3533 -0.4999 -0.7789
  767MOL0     C 3447   4.434   0.506   1.340 -0.0771  0.3558  0.0031
  767MOL0     C 3448   4.302   0.427   1.380 -0.2306  0.2111  0.5944
  767MOL0     C 3449   4.227   0.369   1.262  0.4493 -0.0727 -0.7418
  767MOL0     C 3450   4.132   0.471   1.199 -0.1691 -1.2871 -0.8754
  767MOL0     C 3451   4.045   0.414   1.080 -0.2252  0.0567 -0.4935
  767MOL0     C 3452   3.944   0.525   1.048 -0.8620  1.7033  0.0475
  767MOL0     C 3453   3.882   0.507   0.909 -0.5492  0.1831 -0.2433
  767MOL0     C 3454   3.755   0.593   0.899 -0.2448  0.5120 -0.4151
  767MOL0    Cl 3455   3.668   0.573   0.743 -0.0028 -0.1730  0.2835
  767MOL0     C 3456   4.691   0.672   1.373 -1.0683 -0.3078  0.9882
  767MOL0     C 3457   4.823   0.703   1.393  0.4899 -0.2176 -0.2812
  767MOL0     O 3458   5.107   0.478   1.507 -0.6096 -0.4021  0.4661
  767MOL0     C 3459   5.279   0.796   1.535 -0.4204 -0.0000  0.2882
  767MOL0     C 3460   5.411   0.850   1.552  0.5684 -0.5990  0.0773
  767MOL0     N 3461   6.210   0.779   1.929  0.1301 -0.3575 -0.3608
  767MOL0     N 3462   6.330   0.740   1.960 -0.2648 -0.1057 -0.0486
  767MOL0     C 3463   7.507   0.389   2.009  0.7046 -0.0121  0.3087
  767MOL0     C 3464   7.629   0.354   2.068  0.6054  0.7046  0.0640
  767MOL0     C 3465   8.062   0.284   2.153 -0.1111  0.8742 -0.9953
  767MOL0     C 3466   8.144   0.318   2.054 -0.8469 -0.4701  0.5083
  767MOL0     C 3467   8.282   0.308   2.061 -0.9446 -0.4870  1.0347
  767MOL0     C 3468   8.340   0.257   2.183 -0.6986 -0.5668 -1.4482
  767MOL0     O 3469   8.474   0.228   2.196 -0.4115 -0.7730  0.1417
  767MOL0     C 3470   8.562   0.340   2.220  0.7990  0.0203  0.1113
  767MOL0     C 3471   8.632   0.311   2.348 -0.7533  0.2663  0.1249
  767MOL0     C 3472   8.735   0.203   2.337 -0.2431 -0.9138 -0.1115
  767MOL0     C 3473   8.806   0.190   2.469 -0.1636  0.1710 -0.8908
  767MOL0     C 3474   8.919   0.097   2.457  0.1773  0.5187 -1.1122
  767MOL0     C 3475   8.996   0.001   2.464 -0.0568 -0.2677  0.4851
  767MOL0     C 3476   8.252   0.229   2.289 -1.1729 -0.7532  0.0296
  767MOL0     C 3477   8.112   0.245   2.279 -0.0550 -1.1797 -0.1472
  767MOL0     H 3478   7.821   0.367   1.797  0.2192 -0.0228  1.1693
  767MOL0     H 3479   7.603   0.435   1.697  0.8348  2.0325  0.7167
  767MOL0     H 3480   7.229   0.407   1.958 -2.2380 -0.0701  0.6566
  767MOL0     H 3481   7.231   0.571   1.891  1.1879 -0.4309 -0.2864
  767MOL0     H 3482   7.193   0.475   1.656  2.0601  0.0133  1.0532
  767MOL0     H 3483   7.145   0.329   1.741 -1.2336  0.4015  1.4369
  767MOL0     H 3484   6.958   0.455   1.861  1.2826  0.1152  0.4152
  767MOL0     H 3485   7.018   0.600   1.795 -0.3361 -0.2026  1.4607
  767MOL0     H 3486   6.982   0.510   1.564 -2.6184 -0.3785 -1.2073
  767MOL0     H 3487   6.907   0.368   1.631 -0.3229 -0.1070 -1.7729
  767MOL0     H 3488   6.826   0.659   1.708 -1.2674  0.0828  0.9114
  767MOL0     H 3489   6.770   0.577   1.562  3.8067 -1.6146 -1.2914
  767MOL0     H 3490   6.670   0.404   1.720  1.9580 -0.4054  1.6424
  767MOL0     H 3491   6.745   0.472   1.857 -3.7352 -3.4589  0.5457
  767MOL0     H 3492   6.616   0.698   1.818 -3.2445  1.1631 -0.2787
  767MOL0     H 3493   6.531   0.620   1.690 -4.5859  0.3012  1.3705
  767MOL0     H 3494   6.521   0.564   1.987  0.5909  2.7658 -0.4871
  767MOL0     H 3495   6.454   0.450   1.864 -1.1389 -0.0763 -1.2188
  767MOL0     H 3496   6.247   0.505   1.742 -0.5438  0.9412 -2.0269
  767MOL0     H 3497   5.978   0.583   1.780 -0.7365  0.4712 -1.1967
  767MOL0     H 3498   5.963   0.746   1.848 -0.2414  0.2525 -0.7082
  767MOL0     H 3499   6.032   0.662   1.562 -2.1724  0.0752 -0.6380
  767MOL0     H 3500   6.092   0.816   1.620 -1.6612  1.8511  0.0454
  767MOL0     H 3501   5.866   0.807   1.487 -1.3996 -0.0016  0.1973
  767MOL0     H 3502   5.877   0.920   1.616 -0.6094 -0.0610 -0.9990
  767MOL0     H 3503   5.753   0.767   1.761  0.3327  0.2010 -0.3175
  767MOL0     H 3504   5.761   0.643   1.644  4.0075 -0.2586  2.4761
  767MOL0     H 3505   5.584   0.558   1.561 -1.0491 -2.2341  0.2071
  767MOL0     H 3506   5.472   0.381   1.544 -1.4538 -2.6334  0.5153
  767MOL0     H 3507   5.317   0.386   1.617 -1.7477 -1.4104 -1.4778
  767MOL0     H 3508   5.326   0.379   1.439 -0.9203  2.1212 -0.4596
  767MOL0     H 3509   4.906   0.534   1.671  0.1023  0.1905 -0.9136
  767MOL0     H 3510   4.641   0.477   1.644 -1.9559  2.0739 -0.1670
  767MOL0     H 3511   4.422   0.583   1.264 -0.2167 -1.5305 -1.9698
  767MOL0     H 3512   4.508   0.435   1.302 -0.5543  0.4434 -1.1298
  767MOL0     H 3513   4.334   0.348   1.448  3.1967 -0.4794 -1.5681
  767MOL0     H 3514   4.235   0.498   1.430 -0.8408  0.5028 -0.6024
  767MOL0     H 3515   4.174   0.276   1.286  0.2496  0.2731  0.1885
  767MOL0     H 3516   4.289   0.336   1.178 -0.6568 -1.4841 -1.0408
  767MOL0     H 3517   4.065   0.503   1.279 -1.0283  0.4794 -2.2279
  767MOL0     H 3518   4.183   0.564   1.171 -1.5276 -0.4163 -0.5643
  767MOL0     H 3519   3.994   0.323   1.112  1.1508 -0.4359  0.3958
  767MOL0     H 3520   4.117   0.398   0.999  1.4829  0.5549  0.8601
  767MOL0     H 3521   3.868   0.518   1.127  1.5192 -0.6126  2.3315
  767MOL0     H 3522   3.990   0.624   1.050 -1.4059  1.9526  0.6224
  767MOL0     H 3523   3.859   0.402   0.891  0.6379 -0.5034  1.8735
  767MOL0     H 3524   3.951   0.541   0.831 -0.7912 -0.1519 -0.6069
  767MOL0     H 3525   3.775   0.700   0.905 -0.3775  0.8810 -4.3571
  767MOL0     H 3526   3.688   0.564   0.981 -1.3191 -0.3748 -1.5781
  767MOL0     H 3527   4.645   0.714   1.284 -0.4350 -1.1376  0.2487
  767MOL0     H 3528   4.882   0.757   1.320  0.8685 -1.4251 -0.9079
  767MOL0     H 3529   5.198   0.867   1.517 -1.3926 -1.3507 -0.8950
  767MOL0     H 3530   5.444   0.953   1.552  0.4597 -0.2993 -4.9597
  767MOL0     H 3531   7.423   0.395   2.078  0.7448 -0.6836  0.4243
  767MOL0     H 3532   7.650   0.344   2.174  2.6845  0.3696 -0.3285
  767MOL0     H 3533   8.096   0.336   1.959  1.4754 -2.8091 -1.2341
  767MOL0     H 3534   8.352   0.333   1.983  0.1657 -1.1317  1.8085
  767MOL0     H 3535   8.645   0.331   2.148  1.7839 -1.7783  1.4110
  767MOL0     H 3536   8.525   0.442   2.207 -0.6542 -0.0738  2.8995
  767MOL0     H 3537   8.560   0.287   2.428  1.0539  0.6510  1.9593
  767MOL0     H 3538   8.683   0.398   2.389 -1.7346  1.3387 -0.8763
  767MOL0     H 3539   8.804   0.235   2.259 -2.2555  1.5472 -1.0176
  767MOL0     H 3540   8.696   0.106   2.307 -0.9681 -0.5268 -0.4585
  767MOL0     H 3541   8.729   0.161   2.542 -1.7028 -1.3938 -2.9996
  767MOL0     H 3542   8.849   0.288   2.492  1.0683 -0.3019 -1.1277
  767MOL0     H 3543   9.060  -0.084   2.460 -1.4114 -1.3826  1.4294
  767MOL0     H 3544   8.299   0.179   2.373 -0.1767 -1.0944 -0.7265
  767MOL0     H 3545   8.055   0.221   2.369  3.2190 -1.6746  1.9953
  768MOL0     O 3546   2.888   9.552  11.093  0.3049  0.2518  0.0873
  768MOL0     C 3547   2.911   9.436  11.128 -0.1764 -0.1127  0.3015
  768MOL0     O 3548   2.845   9.321  11.090  0.3263 -0.1660  0.0083
  768MOL0     C 3549   2.725   9.339  11.025 -0.0967 -0.5429 -0.4430
  768MOL0     C 3550   2.626   9.257  11.072 -1.1461 -0.1745 -0.2244
  768MOL0     C 3551   2.506   9.246  11.008  0.3838 -0.2796 -0.2684
  768MOL0     C 3552   2.469   9.328  10.899 -0.3629 -0.6439  0.1702
  768MOL0     O 3553   2.348   9.308  10.839  0.0845 -0.4338  0.3858
  768MOL0     C 3554   2.278   9.420  10.784 -0.1820 -0.4483  0.0410
  768MOL0     C 3555   2.125   9.379  10.776 -0.3157  0.5493 -0.1394
  768MOL0     C 3556   2.045   9.504  10.727 -0.3817  0.6001  0.8481
  768MOL0     C 3557   1.897   9.467  10.696 -0.6593  0.3805  0.0307
  768MOL0     C 3558   1.817   9.582  10.630  0.2075  0.4342 -0.3355
  768MOL0     C 3559   1.706   9.522  10.549 -0.6387 -0.0943 -0.3312
  768MOL0     C 3560   1.637   9.627  10.466  0.2485  0.0803  0.0091
  768MOL0     C 3561   1.507   9.580  10.403 -0.2988 -0.2586 -0.6510
  768MOL0     N 3562   1.519   9.465  10.317 -0.7235  0.3868 -0.8162
  768MOL0     C 3563   1.466   9.338  10.336 -0.7436  0.5203 -0.4269
  768MOL0     C 3564   1.500   9.273  10.225 -0.6706  0.2108 -0.8983
  768MOL0     C 3565   1.436   9.143  10.179  0.0448 -0.8707 -0.9339
  768MOL0     C 3566   1.300   9.166  10.125 -0.5099 -0.6191  0.8561
  768MOL0     C 3567   1.293   9.148   9.966 -0.1895  0.2300 -0.4535
  768MOL0     C 3568   1.162   9.198   9.899  0.3177  0.0719  0.3622
  768MOL0     O 3569   1.044   9.126   9.951 -0.0619  0.0037 -0.7106
  768MOL0     C 3570   0.924   9.163   9.906  0.4170  0.0093 -0.3078
  768MOL0     C 3571   0.903   9.261   9.810 -0.2764  0.1132 -0.2901
  768MOL0     C 3572   0.777   9.309   9.761 -0.3622  0.5703 -0.3900
  768MOL0     C 3573   0.775   9.406   9.636  0.7119 -0.0272 -0.9509
  768MOL0     C 3574   0.664   9.251   9.818 -0.7698  0.1500  0.3589
  768MOL0     C 3575   0.523   9.281   9.780 -0.1774  0.2369 -0.5431
  768MOL0     O 3576   0.435   9.196   9.834  0.4154 -0.7650 -0.9872
  768MOL0     C 3577   0.308   9.238   9.838  0.5624 -0.3703 -0.7284
  768MOL0     C 3578   0.228   9.199   9.736  0.0148 -0.2671 -0.2618
  768MOL0     C 3579   0.088   9.223   9.741 -0.0211  1.2040 -0.2105
  768MOL0     C 3580   0.034   9.298   9.848 -0.2296  0.3514 -0.3383
  768MOL0     O 3581  -0.101   9.323   9.853  0.2951  0.1853  0.0583
  768MOL0     C 3582  -0.174   9.348   9.978  0.6978 -1.2524  1.0681
  768MOL0     C 3583  -0.332   9.354   9.940 -0.1100  0.0276  0.0854
  768MOL0     C 3584  -0.425   9.382  10.059 -0.4546  0.0339 -0.3979
  768MOL0     C 3585  -0.411   9.274  10.172 -0.3569 -0.1577 -0.0329
  768MOL0     C 3586  -0.500   9.280  10.295 -0.7685  0.3602 -0.6175
  768MOL0     C 3587  -0.447   9.199  10.408 -0.4122  0.3291 -0.4986
  768MOL0     C 3588  -0.440   9.037  10.380  0.2341  0.1091  0.1071
  768MOL0     C 3589  -0.352   8.948  10.471  0.4627 -0.0078  0.0454
  768MOL0    Cl 3590  -0.183   9.000  10.444  0.2743  0.0080  0.1332
  768MOL0     C 3591   0.119   9.333   9.960 -0.1203  0.2638  1.3656
  768MOL0     C 3592   0.257   9.306   9.950  0.6008  0.8442 -0.7218
  768MOL0     O 3593   0.496   9.371   9.702  0.2552 -0.7939  0.4370
  768MOL0     C 3594   0.682   9.150   9.917  0.9594  0.2024  0.0995
  768MOL0     C 3595   0.808   9.104   9.964 -0.0433 -0.9970  0.3516
  768MOL0     N 3596   1.578   9.358  10.150 -0.3742 -0.4816  0.1516
  768MOL0     N 3597   1.596   9.471  10.207 -0.0123 -0.5486  0.2943
  768MOL0     C 3598   2.571   9.423  10.851  0.5067  0.5787 -0.0397
  768MOL0     C 3599   2.703   9.416  10.906 -0.2648  0.7710 -0.5003
  768MOL0     C 3600   3.031   9.415  11.210  0.7010  0.0360  0.0608
  768MOL0     C 3601   3.115   9.526  11.224  0.1121 -0.1559  0.8245
  768MOL0     C 3602   3.236   9.512  11.294  0.3878  0.1823 -1.1399
  768MOL0     C 3603   3.264   9.399  11.371  0.1424 -0.3840  0.3877
  768MOL0     O 3604   3.370   9.385  11.445 -0.2771 -0.0362 -0.5171
  768MOL0     C 3605   3.495   9.412  11.389 -0.2997  0.7684 -0.2636
  768MOL0     C 3606   3.596   9.381  11.499  1.0779  0.7700 -0.2905
  768MOL0     C 3607   3.581   9.236  11.558 -0.7893  0.0302 -0.8511
  768MOL0     C 3608   3.654   9.211  11.691  0.2285  0.4801 -0.0742
  768MOL0     C 3609   3.794   9.241  11.674  0.3260 -0.0517  0.4301
  768MOL0     C 3610   3.910   9.251  11.640  0.0020  0.6787  0.0192
  768MOL0     C 3611   3.186   9.290  11.350 -0.6156  0.0282 -0.3265
  768MOL0     C 3612   3.068   9.296  11.269 -0.4005  0.4772  0.2460
  768MOL0     H 3613   2.638   9.198  11.162  0.8819  0.5838  0.0586
  768MOL0     H 3614   2.434   9.175  11.047  0.5338  0.0807  0.6724
  768MOL0     H 3615   2.289   9.510  10.845  0.0497 -0.6170  0.2483
  768MOL0     H 3616   2.316   9.450  10.686  1.2021  2.0141  1.2409
  768MOL0     H 3617   2.126   9.293  10.710  1.0251 -0.6106  1.3153
  768MOL0     H 3618   2.081   9.349  10.871  0.3492  2.8480  0.9901
  768MOL0     H 3619   2.041   9.584  10.802  0.8382  1.1829  0.3097
  768MOL0     H 3620   2.104   9.547  10.646  2.7263 -3.0650  0.8556
  768MOL0     H 3621   1.918   9.384  10.627  1.0425  0.0672  0.8806
  768MOL0     H 3622   1.849   9.434  10.789 -2.8969  1.6949 -0.5834
  768MOL0     H 3623   1.796   9.670  10.691 -0.5557  0.9862 -1.3670
  768MOL0     H 3624   1.890   9.618  10.557  0.2632 -1.8204 -1.4914
  768MOL0     H 3625   1.742   9.440  10.486  1.8152  2.2506 -2.1751
  768MOL0     H 3626   1.632   9.477  10.617 -0.0339 -1.2184 -0.4011
  768MOL0     H 3627   1.610   9.712  10.530  1.5579 -1.7287  3.2207
  768MOL0     H 3628   1.714   9.661  10.397  1.6364  0.4351  1.6749
  768MOL0     H 3629   1.467   9.661  10.343 -1.8719  3.2511  4.4887
  768MOL0     H 3630   1.446   9.551  10.489  0.1525 -0.8328 -0.5104
  768MOL0     H 3631   1.409   9.287  10.413  2.6653 -2.3288  0.4524
  768MOL0     H 3632   1.499   9.094  10.105  1.5705 -0.8817  0.3251
  768MOL0     H 3633   1.419   9.085  10.270 -0.7602  2.1545  1.0112
  768MOL0     H 3634   1.251   9.259  10.155 -0.5025  0.5987 -2.4844
  768MOL0     H 3635   1.228   9.091  10.159  0.8779 -1.8812  1.1290
  768MOL0     H 3636   1.318   9.043   9.950  0.0223  0.0862  0.7250
  768MOL0     H 3637   1.378   9.193   9.915  0.9628 -0.1815  1.0273
  768MOL0     H 3638   1.164   9.180   9.791  0.2150  1.1266  0.1739
  768MOL0     H 3639   1.153   9.307   9.909  0.9020  0.6274 -3.5440
  768MOL0     H 3640   0.982   9.317   9.761 -1.4435  1.3565 -0.8125
  768MOL0     H 3641   0.691   9.380   9.570 -0.6452 -1.1903  1.0972
  768MOL0     H 3642   0.768   9.510   9.667 -0.2871 -0.2398 -0.3867
  768MOL0     H 3643   0.861   9.392   9.570  0.2035 -3.1140 -1.1485
  768MOL0     H 3644   0.269   9.141   9.655 -3.8685 -0.5585 -2.2731
  768MOL0     H 3645   0.029   9.175   9.664 -1.2384 -1.8527  2.3902
  768MOL0     H 3646  -0.147   9.267  10.046 -0.2169 -2.3884  0.1195
  768MOL0     H 3647  -0.153   9.445  10.023  0.7830 -1.3420  1.2228
  768MOL0     H 3648  -0.349   9.426   9.860  0.0989 -0.3568 -0.3078
  768MOL0     H 3649  -0.349   9.250   9.909  0.5449 -0.7168  2.0573
  768MOL0     H 3650  -0.530   9.387  10.029 -0.6965 -0.8293  0.2562
  768MOL0     H 3651  -0.405   9.481  10.101  1.7406  0.5220 -2.4072
  768MOL0     H 3652  -0.419   9.172  10.133 -1.9766 -1.1198  2.5634
  768MOL0     H 3653  -0.312   9.282  10.216 -0.5005 -1.0402  0.4764
  768MOL0     H 3654  -0.601   9.251  10.265  0.1464 -0.8300 -2.8193
  768MOL0     H 3655  -0.498   9.387  10.317 -0.8945  0.2780 -0.2139
  768MOL0     H 3656  -0.348   9.243  10.422  0.0408  0.1233 -2.7319
  768MOL0     H 3657  -0.503   9.231  10.496  0.6779 -1.1915  0.8101
  768MOL0     H 3658  -0.396   9.028  10.281  0.1143 -1.6085  0.1933
  768MOL0     H 3659  -0.536   8.985  10.382  1.6592 -2.7767 -1.1684
  768MOL0     H 3660  -0.368   8.844  10.442  2.3786 -0.0858 -0.8488
  768MOL0     H 3661  -0.370   8.956  10.579 -0.4985 -0.9788 -0.0237
  768MOL0     H 3662   0.093   9.381  10.054  0.5791  2.4239  0.5287
  768MOL0     H 3663   0.336   9.336  10.018 -0.4983  1.9136  0.1247
  768MOL0     H 3664   0.600   9.105   9.972  0.3371 -1.0075 -1.6943
  768MOL0     H 3665   0.813   9.033  10.047 -2.2870  0.9333  2.2788
  768MOL0     H 3666   2.553   9.480  10.761 -2.0953 -0.8943 -0.5403
  768MOL0     H 3667   2.783   9.480  10.868 -0.5171  1.4139  0.0390
  768MOL0     H 3668   3.099   9.616  11.166 -0.4405 -1.1280 -0.5641
  768MOL0     H 3669   3.309   9.592  11.295  1.6156 -0.8959 -1.5116
  768MOL0     H 3670   3.507   9.346  11.303 -2.0341 -3.3490  2.3393
  768MOL0     H 3671   3.498   9.512  11.344 -0.2040  0.4096 -1.0736
  768MOL0     H 3672   3.588   9.453  11.580 -2.1091  2.5046 -1.9530
  768MOL0     H 3673   3.697   9.385  11.457  1.6179  0.2693  0.8938
  768MOL0     H 3674   3.607   9.164  11.479 -1.4916  0.5143 -1.5359
  768MOL0     H 3675   3.479   9.212  11.589  0.4488 -2.5321  1.6700
  768MOL0     H 3676   3.627   9.110  11.724 -1.8597  0.4199 -1.7533
  768MOL0     H 3677   3.609   9.285  11.758  0.7633  0.1847  0.6243
  768MOL0     H 3678   4.003   9.255  11.587  0.9968 -1.6105  1.4345
  768MOL0     H 3679   3.219   9.199  11.398  3.2741  0.8342 -1.1888
  768MOL0     H 3680   3.003   9.209  11.261  1.1833 -0.5878 -1.8003
  769MOL0     O 3681  11.202   6.776   4.714 -0.4012  0.4475 -0.0350
  769MOL0     C 3682  11.224   6.845   4.621 -0.1571 -0.0484  0.3356
  769MOL0     O 3683  11.142   6.875   4.517 -0.2808  0.2395 -0.7447
  769MOL0     C 3684  11.014   6.834   4.524  0.2558  0.6517  0.2494
  769MOL0     C 3685  10.931   6.928   4.457  0.0842  0.9242  1.0598
  769MOL0     C 3686  10.794   6.906   4.458 -0.6941 -0.5106 -0.0976
  769MOL0     C 3687  10.726   6.796   4.509  0.1990  0.2954 -0.4334
  769MOL0     O 3688  10.592   6.785   4.509 -0.0413 -0.3212 -0.3974
  769MOL0     C 3689  10.523   6.846   4.395  1.1737  0.1359 -0.6227
  769MOL0     C 3690  10.380   6.782   4.361  0.1193  0.4598  0.2595
  769MOL0     C 3691  10.307   6.747   4.494 -0.0691  0.5547  0.4878
  769MOL0     C 3692  10.177   6.676   4.458  0.9867 -0.1566  0.3259
  769MOL0     C 3693  10.111   6.626   4.590 -0.4598 -0.4415 -0.6237
  769MOL0     C 3694  10.041   6.735   4.677  0.5949  0.1245 -0.2533
  769MOL0     C 3695   9.958   6.675   4.790 -0.0333  0.0552 -0.0236
  769MOL0     C 3696  10.048   6.655   4.900 -0.3736 -0.9418  0.3749
  769MOL0     N 3697   9.977   6.644   5.027  0.1205 -0.0261 -0.6072
  769MOL0     C 3698   9.888   6.548   5.063  0.0851  0.5270  0.0650
  769MOL0     C 3699   9.841   6.586   5.186  0.1772  0.9802  0.0096
  769MOL0     C 3700   9.727   6.505   5.257 -0.3922 -0.5267  0.0230
  769MOL0     C 3701   9.580   6.571   5.235 -0.6304 -0.0183  0.2490
  769MOL0     C 3702   9.565   6.709   5.302  0.3051  0.3583 -0.3196
  769MOL0     C 3703   9.427   6.763   5.269  0.5424  0.2472  0.3544
  769MOL0     O 3704   9.329   6.711   5.362  0.4171  0.5923  0.3722
  769MOL0     C 3705   9.197   6.713   5.320  0.7130 -0.5019 -0.1895
  769MOL0     C 3706   9.157   6.758   5.201  0.9474 -0.2759  0.7680
  769MOL0     C 3707   9.024   6.726   5.151  0.5429 -0.0736 -0.0852
  769MOL0     C 3708   8.978   6.788   5.024  1.6445 -0.1433  0.2800
  769MOL0     C 3709   8.932   6.649   5.230 -0.7325 -0.3257  1.5116
  769MOL0     C 3710   8.790   6.611   5.194 -0.4192  1.0536  0.2494
  769MOL0     O 3711   8.701   6.609   5.296  0.1655  0.6486 -0.1705
  769MOL0     C 3712   8.567   6.606   5.275 -0.2449  0.2724 -0.7497
  769MOL0     C 3713   8.484   6.556   5.379 -0.3278 -0.5861 -0.2743
  769MOL0     C 3714   8.346   6.534   5.363 -0.2421 -0.6742 -0.3218
  769MOL0     C 3715   8.282   6.591   5.254  0.2158 -0.2819  0.3885
  769MOL0     O 3716   8.149   6.582   5.219 -0.2479  0.7359  0.0001
  769MOL0     C 3717   8.063   6.517   5.323  0.2197  0.3763  1.1677
  769MOL0     C 3718   7.924   6.519   5.267  0.0116  0.6555 -0.7407
  769MOL0     C 3719   7.824   6.462   5.364  0.5843  0.5990 -0.7401
  769MOL0     C 3720   7.683   6.471   5.315  0.4925  0.4168 -0.3939
  769MOL0     C 3721   7.585   6.411   5.425  0.4805  0.4096  0.0042
  769MOL0     C 3722   7.440   6.435   5.383  0.2275  0.3092 -0.0051
  769MOL0     C 3723   7.330   6.386   5.474  0.3465  1.0171 -0.2053
  769MOL0     C 3724   7.322   6.235   5.478 -0.4187  1.4917 -0.6675
  769MOL0    Cl 3725   7.202   6.179   5.586 -0.4698  0.0450  0.0253
  769MOL0     C 3726   8.358   6.659   5.160  0.2358 -0.4917 -0.1465
  769MOL0     C 3727   8.498   6.672   5.164 -0.1783  0.1912 -0.3115
  769MOL0     O 3728   8.768   6.577   5.078 -0.3016  0.0039  0.0818
  769MOL0     C 3729   8.975   6.604   5.355  0.8922 -0.4689 -0.6269
  769MOL0     C 3730   9.108   6.641   5.396  0.2750  1.0925 -0.6739
  769MOL0     N 3731   9.921   6.685   5.233 -0.6618 -0.5755 -0.5443
  769MOL0     N 3732  10.001   6.721   5.140 -0.4319 -0.1831  0.4914
  769MOL0     C 3733  10.812   6.696   4.566  0.8141 -0.0980 -0.0785
  769MOL0     C 3734  10.961   6.710   4.576  0.5409  0.1045  0.3008
  769MOL0     C 3735  11.369   6.878   4.593  0.8958 -0.2880 -0.1224
  769MOL0     C 3736  11.444   6.913   4.700 -0.2915 -0.1350  0.6685
  769MOL0     C 3737  11.577   6.946   4.691 -0.3686  0.0087 -0.1529
  769MOL0     C 3738  11.644   6.939   4.568  0.1192  0.1625  0.1599
  769MOL0     O 3739  11.778   6.975   4.556 -0.0280 -0.2236  0.3745
  769MOL0     C 3740  11.873   6.967   4.448  0.4039  0.3887  0.2154
  769MOL0     C 3741  11.952   7.094   4.439 -0.8532 -0.1382  0.5255
  769MOL0     C 3742  12.056   7.098   4.326 -0.1196  0.0677 -0.0876
  769MOL0     C 3743  12.172   7.003   4.349  0.2564 -0.1586 -0.1346
  769MOL0     C 3744  12.275   7.045   4.252  0.1468 -0.2163 -0.2771
  769MOL0     C 3745  12.372   7.073   4.191  0.3037  0.4071  0.1321
  769MOL0     C 3746  11.570   6.889   4.454 -0.6942 -1.0771  0.3592
  769MOL0     C 3747  11.431   6.861   4.466  0.3107  0.5007 -0.2813
  769MOL0     H 3748  10.971   7.024   4.427  1.1473  0.3539  0.6058
  769MOL0     H 3749  10.747   6.986   4.400 -4.3176 -3.1090 -1.0996
  769MOL0     H 3750  10.500   6.946   4.433 -1.0761 -0.5858  0.0397
  769MOL0     H 3751  10.583   6.856   4.304  0.2266 -1.2249 -1.4277
  769MOL0     H 3752  10.324   6.849   4.294  1.5379  1.3934 -0.0453
  769MOL0     H 3753  10.404   6.695   4.300  0.5749  0.8468 -0.1252
  769MOL0     H 3754  10.375   6.685   4.553  1.4744  3.0523  1.4918
  769MOL0     H 3755  10.280   6.835   4.554 -0.0808  1.2935 -0.5638
  769MOL0     H 3756  10.109   6.747   4.409  1.3617  0.4723  0.6953
  769MOL0     H 3757  10.191   6.597   4.384  0.4508 -0.4125  0.4891
  769MOL0     H 3758  10.037   6.553   4.556 -0.1264 -0.9232 -0.3260
  769MOL0     H 3759  10.180   6.563   4.647 -3.0736 -3.1287 -0.1620
  769MOL0     H 3760  10.109   6.809   4.718  0.0237 -0.7516  2.4815
  769MOL0     H 3761   9.978   6.790   4.606  1.2624  0.2900 -0.7263
  769MOL0     H 3762   9.882   6.749   4.815  0.4650  0.8820 -0.8884
  769MOL0     H 3763   9.914   6.578   4.764  1.9524 -0.2255 -2.8380
  769MOL0     H 3764  10.115   6.741   4.909  0.4739 -1.5101 -0.3170
  769MOL0     H 3765  10.106   6.566   4.873 -2.9771 -3.1398  1.6728
  769MOL0     H 3766   9.846   6.467   5.004  2.0627 -1.4689  1.2633
  769MOL0     H 3767   9.749   6.406   5.216  1.2831 -0.4515  0.6491
  769MOL0     H 3768   9.750   6.518   5.363 -2.3327  3.4287  0.1269
  769MOL0     H 3769   9.506   6.501   5.274  0.9614 -1.8477  0.1331
  769MOL0     H 3770   9.558   6.578   5.128  1.3335  0.7987 -0.1467
  769MOL0     H 3771   9.640   6.782   5.269 -0.0598  1.0319  0.3254
  769MOL0     H 3772   9.568   6.706   5.411  0.2993  0.7453 -0.3099
  769MOL0     H 3773   9.421   6.745   5.161  2.4470  1.6910 -0.0459
  769MOL0     H 3774   9.440   6.871   5.270  0.4542  0.3334 -2.1392
  769MOL0     H 3775   9.223   6.806   5.130  0.1778 -4.0994 -2.9578
  769MOL0     H 3776   8.967   6.893   5.051  0.5303  0.5141 -2.4247
  769MOL0     H 3777   9.050   6.791   4.942  0.2822  1.3385 -0.9043
  769MOL0     H 3778   8.884   6.758   4.978  0.5669  2.6991  0.4405
  769MOL0     H 3779   8.529   6.520   5.471 -2.2298  2.1526  1.9094
  769MOL0     H 3780   8.286   6.473   5.430  0.4591 -0.1524  0.8149
  769MOL0     H 3781   8.088   6.412   5.345 -1.6467 -1.2469 -3.3517
  769MOL0     H 3782   8.071   6.578   5.414  0.9621 -0.0048  1.3713
  769MOL0     H 3783   7.894   6.618   5.231  0.6873  0.3462 -2.2523
  769MOL0     H 3784   7.917   6.456   5.177 -0.6679 -1.4882  0.7366
  769MOL0     H 3785   7.830   6.508   5.463  2.7687 -2.6185  0.7883
  769MOL0     H 3786   7.846   6.355   5.372 -0.7988  0.2121 -1.7779
  769MOL0     H 3787   7.659   6.578   5.310  1.8041  0.7577  0.1778
  769MOL0     H 3788   7.685   6.424   5.216 -2.3070 -0.1028 -0.2974
  769MOL0     H 3789   7.608   6.463   5.519 -0.6385 -2.9567  2.3498
  769MOL0     H 3790   7.607   6.305   5.441 -0.0446  0.2607 -0.2503
  769MOL0     H 3791   7.427   6.540   5.354  1.6194  0.7919  0.9906
  769MOL0     H 3792   7.421   6.386   5.287 -1.7715 -2.6845  1.7660
  769MOL0     H 3793   7.239   6.436   5.440 -0.3364 -0.8334 -1.2308
  769MOL0     H 3794   7.348   6.423   5.575 -0.9597  0.1165  0.3859
  769MOL0     H 3795   7.421   6.194   5.498 -1.3121 -1.4583 -1.8278
  769MOL0     H 3796   7.310   6.200   5.375 -1.2602  0.8939 -0.3837
  769MOL0     H 3797   8.304   6.698   5.074  1.7315  0.3552 -0.7392
  769MOL0     H 3798   8.546   6.699   5.070  1.5308  1.3854  0.8560
  769MOL0     H 3799   8.904   6.549   5.415 -0.9325  3.5900  1.3188
  769MOL0     H 3800   9.147   6.609   5.492 -0.2147  0.2452 -0.7480
  769MOL0     H 3801  10.766   6.603   4.598  0.0713 -0.2276 -1.4358
  769MOL0     H 3802  11.020   6.637   4.629  1.8521  0.3320 -0.8000
  769MOL0     H 3803  11.405   6.929   4.800 -1.0913 -1.7597  0.6453
  769MOL0     H 3804  11.632   6.978   4.779  0.9060  0.0243 -0.9279
  769MOL0     H 3805  11.946   6.888   4.464  0.9068  0.9629  0.8034
  769MOL0     H 3806  11.818   6.952   4.354 -1.9948 -0.7926  1.6962
  769MOL0     H 3807  12.008   7.115   4.530 -0.7898 -2.0757  0.9797
  769MOL0     H 3808  11.879   7.174   4.431 -1.4210 -0.6792  0.2002
  769MOL0     H 3809  12.086   7.203   4.318  2.1616 -0.6411 -2.1977
  769MOL0     H 3810  12.007   7.077   4.230 -0.1534  0.8792 -0.2570
  769MOL0     H 3811  12.144   6.898   4.337  0.6327 -0.3638  0.7159
  769MOL0     H 3812  12.221   7.003   4.447  0.2075  0.9223 -0.0970
  769MOL0     H 3813  12.451   7.100   4.124 -0.2856  0.0330 -0.7360
  769MOL0     H 3814  11.618   6.869   4.359 -1.4116 -2.5949  0.2833
  769MOL0     H 3815  11.379   6.838   4.373 -0.2640  3.6607 -0.8481
  770MOL0     O 3816   3.960   0.810   9.096  0.3442 -0.4024 -0.5208
  770MOL0     C 3817   3.967   0.836   8.975  0.7577  0.4489 -0.1342
  770MOL0     O 3818   3.889   0.915   8.911  1.2208 -0.0695 -0.0534
  770MOL0     C 3819   3.784   0.979   8.976 -0.0011 -0.3184  0.4743
  770MOL0     C 3820   3.761   1.111   8.942 -0.2985  0.1652  0.6852
  770MOL0     C 3821   3.660   1.183   8.998  0.4860  0.6500  0.1577
  770MOL0     C 3822   3.564   1.128   9.086 -0.2651  0.6806  0.6592
  770MOL0     O 3823   3.453   1.198   9.135  0.1450 -0.9107 -0.2527
  770MOL0     C 3824   3.447   1.325   9.077 -0.1903 -0.0186 -0.5685
  770MOL0     C 3825   3.327   1.396   9.135 -0.4842  0.3651 -0.8015
  770MOL0     C 3826   3.318   1.397   9.288 -0.0473 -0.3512  0.1013
  770MOL0     C 3827   3.434   1.462   9.355  0.4906 -0.4861  0.1140
  770MOL0     C 3828   3.412   1.475   9.506  0.5092 -0.5129 -1.1164
  770MOL0     C 3829   3.288   1.554   9.553  0.8317 -0.5660  0.9709
  770MOL0     C 3830   3.274   1.566   9.710 -0.4150  0.4109 -0.0504
  770MOL0     C 3831   3.229   1.437   9.775 -0.1845 -0.3119 -0.0566
  770MOL0     N 3832   3.081   1.418   9.781 -0.1350  0.0668  0.3653
  770MOL0     C 3833   2.993   1.491   9.858 -0.3808  0.1277  0.1229
  770MOL0     C 3834   2.875   1.438   9.825  0.1544 -0.0133  0.6180
  770MOL0     C 3835   2.754   1.455   9.909 -0.6730  0.1002  0.5908
  770MOL0     C 3836   2.622   1.381   9.855 -0.8880  0.0362 -0.4888
  770MOL0     C 3837   2.489   1.420   9.920 -0.4764  0.2931  0.1718
  770MOL0     C 3838   2.452   1.354  10.053  0.7736  0.3327 -0.0740
  770MOL0     O 3839   2.316   1.375  10.083  0.3093 -0.1605 -0.1115
  770MOL0     C 3840   2.220   1.295  10.031 -0.3412 -1.0614 -0.8482
  770MOL0     C 3841   2.098   1.342  10.055  1.0986  0.2490  0.0753
  770MOL0     C 3842   1.985   1.275  10.006  0.5059 -0.2478  0.1287
  770MOL0     C 3843   1.852   1.345  10.024 -0.1531 -0.6502 -0.1452
  770MOL0     C 3844   1.997   1.151   9.948 -0.3369  0.0595  0.2517
  770MOL0     C 3845   1.887   1.064   9.906 -0.4276  1.1393 -0.6460
  770MOL0     O 3846   1.764   1.100   9.932 -0.1953 -0.5877  0.2301
  770MOL0     C 3847   1.650   1.023   9.916 -0.6480 -1.3176  0.7393
  770MOL0     C 3848   1.629   0.907   9.840  0.2552  0.0329  0.1599
  770MOL0     C 3849   1.507   0.835   9.839 -0.0670  0.3448 -0.2388
  770MOL0     C 3850   1.395   0.877   9.918  0.6198 -0.6502  0.1545
  770MOL0     O 3851   1.272   0.816   9.922  0.1534 -0.1359  0.4251
  770MOL0     C 3852   1.249   0.682   9.874  1.2936 -0.0726  0.2926
  770MOL0     C 3853   1.092   0.677   9.850  0.4719  0.4468 -0.1465
  770MOL0     C 3854   1.057   0.544   9.783  0.7614 -0.0889  0.6081
  770MOL0     C 3855   0.904   0.539   9.754  0.4599  0.2516  0.4558
  770MOL0     C 3856   0.871   0.416   9.673  0.7340 -0.0894  0.6199
  770MOL0     C 3857   0.725   0.404   9.630 -0.3239  0.0962  0.2642
  770MOL0     C 3858   0.639   0.344   9.742 -0.1218  0.0090 -0.1710
  770MOL0     C 3859   0.489   0.329   9.720 -0.3586  0.3013  0.2826
  770MOL0    Cl 3860   0.394   0.462   9.660  0.2748 -0.4365  0.1258
  770MOL0     C 3861   1.417   0.996   9.993 -0.2476 -0.1205 -0.7287
  770MOL0     C 3862   1.545   1.066   9.994  0.6843 -0.6235  0.6256
  770MOL0     O 3863   1.921   0.959   9.857 -0.3203  0.6559  0.9938
  770MOL0     C 3864   2.132   1.114   9.920 -0.4191  0.0763 -0.2079
  770MOL0     C 3865   2.241   1.190   9.958  0.4263  0.9754  0.6112
  770MOL0     N 3866   2.891   1.356   9.716 -0.3802  0.1057  0.2382
  770MOL0     N 3867   3.020   1.339   9.695  0.6763 -0.8113  0.0918
  770MOL0     C 3868   3.595   1.000   9.131 -0.6696  0.2861  0.1858
  770MOL0     C 3869   3.699   0.918   9.074 -0.5928 -0.8972 -0.2602
  770MOL0     C 3870   4.077   0.770   8.899  0.2925  0.7336  0.3202
  770MOL0     C 3871   4.151   0.665   8.956 -0.1612 -0.8730 -0.7101
  770MOL0     C 3872   4.264   0.616   8.901 -1.1755  0.4675  0.8435
  770MOL0     C 3873   4.307   0.653   8.770 -0.4523 -0.1426  0.0659
  770MOL0     O 3874   4.414   0.588   8.720  0.7056 -0.0928  0.6013
  770MOL0     C 3875   4.442   0.613   8.583  0.0240  0.7303  0.2906
  770MOL0     C 3876   4.569   0.533   8.548 -0.3535  0.1641 -0.3181
  770MOL0     C 3877   4.535   0.386   8.534 -0.1825  0.0738 -0.1108
  770MOL0     C 3878   4.666   0.303   8.516  0.3164  0.5584 -0.5876
  770MOL0     C 3879   4.639   0.162   8.542  0.1590 -0.0574 -0.4162
  770MOL0     C 3880   4.627   0.047   8.569  0.0678  0.0293  0.5483
  770MOL0     C 3881   4.224   0.751   8.703 -0.2951 -0.3497  0.5146
  770MOL0     C 3882   4.111   0.808   8.768 -0.0683  0.4622  0.6232
  770MOL0     H 3883   3.827   1.156   8.869 -1.1660  2.0902  1.0267
  770MOL0     H 3884   3.652   1.278   8.947 -1.3617  0.0425 -0.7933
  770MOL0     H 3885   3.533   1.380   9.118 -1.6262  1.1606  1.0476
  770MOL0     H 3886   3.448   1.322   8.968  1.0206 -2.1153 -0.5534
  770MOL0     H 3887   3.310   1.497   9.098  0.9929  1.0340  0.2065
  770MOL0     H 3888   3.240   1.346   9.092  0.5282 -1.2588 -1.0747
  770MOL0     H 3889   3.231   1.458   9.313 -0.9361 -0.8569 -1.5971
  770MOL0     H 3890   3.306   1.295   9.326 -0.7340 -1.1444 -2.0383
  770MOL0     H 3891   3.527   1.407   9.337  0.3571 -1.1073  1.2236
  770MOL0     H 3892   3.440   1.561   9.309 -2.7068 -1.2519 -2.3040
  770MOL0     H 3893   3.410   1.377   9.555 -0.0370 -1.1448 -2.3665
  770MOL0     H 3894   3.492   1.533   9.553  0.1612 -0.1277 -0.9922
  770MOL0     H 3895   3.274   1.649   9.502  0.5000 -2.4266 -2.7006
  770MOL0     H 3896   3.206   1.490   9.520  3.0792 -2.2640 -1.8346
  770MOL0     H 3897   3.355   1.619   9.762 -0.8880  1.8930 -0.7800
  770MOL0     H 3898   3.195   1.638   9.731  0.7323  1.6240  0.2981
  770MOL0     H 3899   3.260   1.450   9.879  1.0309  0.7434 -0.5257
  770MOL0     H 3900   3.287   1.352   9.740  2.9943  1.0640  1.4887
  770MOL0     H 3901   3.021   1.563   9.935  0.4578 -0.4452  0.3694
  770MOL0     H 3902   2.788   1.415  10.005  0.0384 -1.1882 -0.1681
  770MOL0     H 3903   2.731   1.562   9.915 -0.9512  0.2250 -1.8738
  770MOL0     H 3904   2.636   1.273   9.866  1.0949  0.1443 -1.4630
  770MOL0     H 3905   2.615   1.400   9.747 -5.1617  0.3086 -0.3115
  770MOL0     H 3906   2.409   1.398   9.848 -1.5896  0.8811  1.2005
  770MOL0     H 3907   2.484   1.530   9.916  2.7755  0.5131 -1.8987
  770MOL0     H 3908   2.510   1.398  10.135 -1.2671  1.6808  0.7060
  770MOL0     H 3909   2.459   1.245  10.047 -3.1188 -0.0753  0.5399
  770MOL0     H 3910   2.083   1.438  10.104  1.2722  0.4514 -0.2611
  770MOL0     H 3911   1.785   1.293  10.094  0.9751  2.6457  3.7157
  770MOL0     H 3912   1.866   1.444  10.068  0.6739 -1.7849  2.3842
  770MOL0     H 3913   1.791   1.355   9.934 -1.0973 -2.3545  0.2405
  770MOL0     H 3914   1.713   0.865   9.785  1.2025  2.0196 -0.0101
  770MOL0     H 3915   1.509   0.737   9.793 -0.2020 -0.7544  1.9429
  770MOL0     H 3916   1.306   0.665   9.782 -0.7578  1.2642 -1.3034
  770MOL0     H 3917   1.271   0.617   9.959 -1.2736  1.0074  1.9005
  770MOL0     H 3918   1.044   0.680   9.948 -1.2488 -2.2053 -0.7778
  770MOL0     H 3919   1.062   0.761   9.787  0.1737  0.1835 -0.3589
  770MOL0     H 3920   1.082   0.461   9.850  2.0455 -0.2106  0.0205
  770MOL0     H 3921   1.114   0.517   9.693 -1.0594  2.4023 -1.4336
  770MOL0     H 3922   0.837   0.548   9.840 -1.5359 -2.5969 -0.6293
  770MOL0     H 3923   0.877   0.625   9.693 -0.3350 -0.6004 -0.4250
  770MOL0     H 3924   0.907   0.324   9.722  3.3950  1.4800  1.8377
  770MOL0     H 3925   0.925   0.431   9.579  3.3518  0.3683  2.0874
  770MOL0     H 3926   0.683   0.503   9.609  0.4122  0.2076 -0.7452
  770MOL0     H 3927   0.722   0.335   9.545  2.7768  0.4978 -0.2823
  770MOL0     H 3928   0.649   0.394   9.839  0.6506 -1.4034  0.5042
  770MOL0     H 3929   0.665   0.239   9.756  0.3173 -0.1177 -1.8304
  770MOL0     H 3930   0.443   0.299   9.815  1.7014  0.0298  1.2517
  770MOL0     H 3931   0.479   0.258   9.638  1.0912  2.1160 -1.5904
  770MOL0     H 3932   1.351   1.045  10.064  3.1676 -2.1654  4.4574
  770MOL0     H 3933   1.556   1.162  10.044  1.3623 -0.2725 -0.1876
  770MOL0     H 3934   2.150   1.021   9.868 -0.4496 -0.3969  0.6153
  770MOL0     H 3935   2.332   1.144   9.921 -0.2531 -2.9741  3.2038
  770MOL0     H 3936   3.522   0.977   9.207 -2.7673  2.9829 -0.8595
  770MOL0     H 3937   3.708   0.815   9.107  0.8416 -0.6017  0.3525
  770MOL0     H 3938   4.121   0.607   9.043  1.8752 -3.1472 -1.4240
  770MOL0     H 3939   4.310   0.533   8.953 -2.1656  0.5323  1.8423
  770MOL0     H 3940   4.362   0.574   8.519  2.2857  1.3911 -3.2512
  770MOL0     H 3941   4.453   0.717   8.551 -0.9306  1.0545  0.9792
  770MOL0     H 3942   4.642   0.555   8.626  1.5763 -0.3824 -1.8772
  770MOL0     H 3943   4.617   0.569   8.456  2.4045  1.6623  1.5809
  770MOL0     H 3944   4.475   0.361   8.446  0.8749 -2.4749 -0.1979
  770MOL0     H 3945   4.480   0.364   8.626  0.0860  2.7597  0.7586
  770MOL0     H 3946   4.749   0.336   8.578  0.1503 -0.9056  0.4631
  770MOL0     H 3947   4.696   0.302   8.411 -0.8183  1.7194 -0.9476
  770MOL0     H 3948   4.625  -0.055   8.602  1.6049 -0.9949 -2.2327
  770MOL0     H 3949   4.247   0.782   8.602 -0.8649  0.2138  0.5491
  770MOL0     H 3950   4.057   0.888   8.720  2.4924  0.4753 -2.6311
  771MOL0     O 3951   1.377   3.672   9.993 -0.2478  0.6615  0.6220
  771MOL0     C 3952   1.379   3.784  10.043 -0.0195 -0.3136 -0.0708
  771MOL0     O 3953   1.271   3.848  10.092 -0.4902 -0.6964  0.0478
  771MOL0     C 3954   1.142   3.818  10.069  0.0823  0.1237  0.4378
  771MOL0     C 3955   1.091   3.759   9.953  0.7872 -0.7529  0.7391
  771MOL0     C 3956   0.960   3.733   9.932 -0.2306 -0.0593  0.3567
  771MOL0     C 3957   0.863   3.775  10.021 -0.3595  0.6420  0.3654
  771MOL0     O 3958   0.734   3.729   9.983  0.5192 -0.0576 -0.0463
  771MOL0     C 3959   0.627   3.752  10.075  0.2756  0.3249  0.2651
  771MOL0     C 3960   0.492   3.719  10.007 -0.6666  0.8159 -0.2804
  771MOL0     C 3961   0.373   3.806  10.055  0.2583 -0.1153 -0.0542
  771MOL0     C 3962   0.245   3.716  10.045  0.0357  0.0250  0.6079
  771MOL0     C 3963   0.124   3.802  10.069 -0.0764 -0.0817  0.3434
  771MOL0     C 3964   0.007   3.712  10.020 -0.9713 -0.6424  0.7854
  771MOL0     C 3965  -0.128   3.776  10.063  0.1673 -0.5533  0.0079
  771MOL0     C 3966  -0.251   3.680  10.044 -0.1369  1.2201  0.4462
  771MOL0     N 3967  -0.382   3.751  10.059  0.3460  0.7531 -0.5545
  771MOL0     C 3968  -0.435   3.833   9.964  0.5847 -0.1514 -0.1056
  771MOL0     C 3969  -0.562   3.869  10.009 -0.2309 -0.3740  0.2031
  771MOL0     C 3970  -0.680   3.932   9.943 -0.2302  0.4617  0.1364
  771MOL0     C 3971  -0.677   3.910   9.781  0.3680 -0.0425  0.8790
  771MOL0     C 3972  -0.805   3.965   9.726 -0.0498  0.6666  0.3982
  771MOL0     C 3973  -0.810   3.947   9.574  0.6137  0.0675 -0.3927
  771MOL0     O 3974  -0.938   4.000   9.531 -0.0190  0.1187  0.3143
  771MOL0     C 3975  -1.013   3.914   9.453 -1.0237 -0.3022  0.0371
  771MOL0     C 3976  -0.962   3.850   9.334 -0.7506  0.2481 -0.4634
  771MOL0     C 3977  -1.028   3.761   9.250 -1.0322  0.2650 -0.0273
  771MOL0     C 3978  -0.969   3.708   9.127 -0.3868 -0.6463 -0.1394
  771MOL0     C 3979  -1.159   3.730   9.291 -0.3967  0.3013 -0.6091
  771MOL0     C 3980  -1.253   3.647   9.210  0.0487  0.6179 -0.5111
  771MOL0     O 3981  -1.251   3.671   9.070  0.3880 -0.3669 -0.1993
  771MOL0     C 3982  -1.362   3.641   8.996 -0.0716  0.1606 -0.3543
  771MOL0     C 3983  -1.348   3.552   8.889 -0.3928 -0.2734 -0.8274
  771MOL0     C 3984  -1.460   3.516   8.817 -0.3253 -0.6428 -0.2094
  771MOL0     C 3985  -1.585   3.566   8.844  0.3883 -0.2813  0.5632
  771MOL0     O 3986  -1.693   3.532   8.767 -0.3765  0.0554  0.2093
  771MOL0     C 3987  -1.815   3.599   8.802  0.3048 -0.3156  0.7986
  771MOL0     C 3988  -1.939   3.564   8.712 -0.2265 -0.5861 -0.1506
  771MOL0     C 3989  -2.009   3.432   8.734  0.1835  0.0644  0.2525
  771MOL0     C 3990  -2.138   3.421   8.647 -0.6927 -0.5164  1.3321
  771MOL0     C 3991  -2.177   3.272   8.647 -0.1976  0.3161 -0.2558
  771MOL0     C 3992  -2.306   3.249   8.586  0.4949  0.2303  0.8109
  771MOL0     C 3993  -2.365   3.119   8.652 -0.6925  0.0143  0.2132
  771MOL0     C 3994  -2.503   3.077   8.604 -0.4323  0.1757 -0.2168
  771MOL0    Cl 3995  -2.629   3.199   8.636 -0.1987 -0.0247  0.2400
  771MOL0     C 3996  -1.591   3.669   8.948 -0.2087 -0.4899 -0.5290
  771MOL0     C 3997  -1.482   3.705   9.031  0.2652  1.0280 -0.4117
  771MOL0     O 3998  -1.330   3.575   9.266  0.5283 -0.5518 -0.7878
  771MOL0     C 3999  -1.218   3.795   9.405  1.4330 -0.4608  0.4321
  771MOL0     C 4000  -1.146   3.888   9.485  0.3075  0.2660 -0.2847
  771MOL0     N 4001  -0.571   3.831  10.144 -0.2063  0.1179 -0.5844
  771MOL0     N 4002  -0.462   3.764  10.169 -0.1105  0.5185 -0.8044
  771MOL0     C 4003   0.902   3.851  10.134 -0.1708  0.5154  1.4163
  771MOL0     C 4004   1.041   3.877  10.159  0.1063 -0.3608  0.1281
  771MOL0     C 4005   1.510   3.843  10.059 -0.1784  0.6572  0.6375
  771MOL0     C 4006   1.535   3.962  10.134  0.7883 -0.1686  0.0288
  771MOL0     C 4007   1.664   4.023  10.149 -0.3026 -0.6162  0.0586
  771MOL0     C 4008   1.772   3.954  10.098  0.7232  0.2296 -0.5690
  771MOL0     O 4009   1.887   4.018  10.143  0.1876 -0.2575 -0.3832
  771MOL0     C 4010   2.012   3.961  10.106 -0.3091 -0.5329  0.1455
  771MOL0     C 4011   2.050   4.006   9.961  0.4663  0.3539 -0.1388
  771MOL0     C 4012   2.194   3.983   9.936 -0.0698  0.2361 -0.1923
  771MOL0     C 4013   2.217   3.953   9.785 -0.6874  0.8700 -0.4851
  771MOL0     C 4014   2.364   3.936   9.781  0.1850  0.1507 -1.5417
  771MOL0     C 4015   2.477   3.905   9.788 -0.5041  0.2265  0.2159
  771MOL0     C 4016   1.756   3.830  10.028 -0.2980  0.1574 -0.3306
  771MOL0     C 4017   1.627   3.775  10.016 -0.4800 -0.9563  0.3464
  771MOL0     H 4018   1.157   3.727   9.872 -1.7198 -0.4128 -1.5762
  771MOL0     H 4019   0.924   3.688   9.840 -2.5291 -0.7913  1.5406
  771MOL0     H 4020   0.639   3.695  10.168  0.1727 -0.3398 -0.1212
  771MOL0     H 4021   0.625   3.860  10.092  1.5083  1.0544 -3.2134
  771MOL0     H 4022   0.502   3.744   9.901  1.0311  3.4176  0.4045
  771MOL0     H 4023   0.481   3.612  10.027  1.0878  0.2981 -1.8339
  771MOL0     H 4024   0.376   3.846  10.157 -0.9638 -1.2924  0.4762
  771MOL0     H 4025   0.368   3.889   9.985 -1.1388  1.5694  1.9091
  771MOL0     H 4026   0.248   3.677   9.943  0.0712 -0.7008  0.8823
  771MOL0     H 4027   0.254   3.632  10.114 -0.3068 -2.8443 -2.5884
  771MOL0     H 4028   0.108   3.826  10.175 -0.1449  1.7716 -0.0544
  771MOL0     H 4029   0.118   3.886  10.000 -1.6119 -0.8321 -0.5017
  771MOL0     H 4030   0.012   3.705   9.911  2.1760 -0.3480  0.8277
  771MOL0     H 4031   0.012   3.607  10.050  0.8975 -1.3616 -1.7413
  771MOL0     H 4032  -0.122   3.809  10.167  1.2777 -0.0733 -0.2033
  771MOL0     H 4033  -0.146   3.861   9.996 -2.0525 -0.8793  0.1207
  771MOL0     H 4034  -0.246   3.610  10.128  1.6122  0.7858  0.0032
  771MOL0     H 4035  -0.260   3.630   9.948  1.6470 -2.0818  1.8482
  771MOL0     H 4036  -0.396   3.848   9.863 -0.1984 -0.7262 -0.4980
  771MOL0     H 4037  -0.772   3.894   9.989 -1.2002 -0.6300 -2.5281
  771MOL0     H 4038  -0.672   4.040   9.952  2.0146  0.4674 -1.3389
  771MOL0     H 4039  -0.671   3.803   9.759  1.4732 -0.6475  3.7032
  771MOL0     H 4040  -0.594   3.966   9.737 -0.1873  0.5922  0.6332
  771MOL0     H 4041  -0.824   4.072   9.744 -1.6908  0.9739 -2.4803
  771MOL0     H 4042  -0.883   3.900   9.767  0.4651  0.7696  1.5794
  771MOL0     H 4043  -0.792   3.840   9.561 -1.6727 -0.3773 -0.3677
  771MOL0     H 4044  -0.728   4.000   9.524 -0.5647  3.2714  0.7687
  771MOL0     H 4045  -0.856   3.871   9.325 -0.6878  0.3692  0.4573
  771MOL0     H 4046  -0.864   3.736   9.120 -0.6581 -0.0046 -2.1892
  771MOL0     H 4047  -0.979   3.599   9.121 -1.9383 -0.5873  0.7240
  771MOL0     H 4048  -1.020   3.753   9.042 -0.3422  0.1661  0.2489
  771MOL0     H 4049  -1.247   3.516   8.875 -0.5050 -0.5494 -0.9492
  771MOL0     H 4050  -1.446   3.444   8.737  2.7727 -0.6368  0.2071
  771MOL0     H 4051  -1.855   3.588   8.904 -1.1892 -0.1848  0.2494
  771MOL0     H 4052  -1.808   3.707   8.787 -3.3072 -0.1371 -0.5390
  771MOL0     H 4053  -2.005   3.647   8.742 -0.1598 -0.3760 -0.5847
  771MOL0     H 4054  -1.914   3.575   8.606 -0.8636  2.2767 -0.1109
  771MOL0     H 4055  -2.014   3.420   8.842  0.5635  2.1351  0.5407
  771MOL0     H 4056  -1.941   3.356   8.694  0.7672  1.3673 -1.3744
  771MOL0     H 4057  -2.219   3.483   8.685  0.8150  1.4981  1.4233
  771MOL0     H 4058  -2.112   3.447   8.544  1.0801 -0.7803  1.6819
  771MOL0     H 4059  -2.176   3.247   8.754  1.5640  1.9157  0.1554
  771MOL0     H 4060  -2.094   3.218   8.601 -0.7374 -0.1016 -0.7489
  771MOL0     H 4061  -2.377   3.330   8.607 -0.4349 -0.1926 -0.5711
  771MOL0     H 4062  -2.301   3.243   8.477  0.4927  0.2694  0.8089
  771MOL0     H 4063  -2.354   3.126   8.761 -0.9117  0.2187  0.2246
  771MOL0     H 4064  -2.296   3.040   8.622 -0.2554  1.0036 -1.5067
  771MOL0     H 4065  -2.531   2.986   8.657  0.1784  0.8749  1.3583
  771MOL0     H 4066  -2.496   3.063   8.495 -0.2882 -0.5583 -0.1141
  771MOL0     H 4067  -1.675   3.735   8.966  0.5649  0.2631  0.4032
  771MOL0     H 4068  -1.492   3.779   9.110  2.3582  1.6924 -0.6988
  771MOL0     H 4069  -1.316   3.763   9.440  0.8332 -0.1722 -0.9116
  771MOL0     H 4070  -1.197   3.935   9.568  0.0717  2.6077 -1.6537
  771MOL0     H 4071   0.821   3.875  10.202 -1.4154 -4.5405  2.0876
  771MOL0     H 4072   1.066   3.940  10.244  1.0932  2.9359 -2.3775
  771MOL0     H 4073   1.445   4.012  10.168  1.8077  0.1732  2.4750
  771MOL0     H 4074   1.682   4.111  10.211 -1.0444 -1.1453  1.0648
  771MOL0     H 4075   2.092   3.972  10.180 -1.5122 -1.6690  1.6524
  771MOL0     H 4076   2.006   3.852  10.099 -1.6023 -0.4395 -0.3832
  771MOL0     H 4077   2.017   4.110   9.955 -0.0546  0.1145 -2.3804
  771MOL0     H 4078   1.983   3.962   9.886 -0.7328  2.1398 -0.1750
  771MOL0     H 4079   2.233   3.898   9.993  0.0227  0.8137  0.6346
  771MOL0     H 4080   2.243   4.076   9.967  2.6286 -1.3780  0.7497
  771MOL0     H 4081   2.186   4.030   9.714 -1.9336 -1.4598 -2.6236
  771MOL0     H 4082   2.163   3.861   9.760 -0.5451 -0.3558  3.0684
  771MOL0     H 4083   2.576   3.865   9.798 -0.6010  0.3401  1.9179
  771MOL0     H 4084   1.845   3.771  10.007  0.8355  2.3646 -2.2409
  771MOL0     H 4085   1.636   3.678   9.969  2.1292 -0.8884  0.5532
  772MOL0     O 4086   6.491   0.350   8.550 -0.4712 -0.5915 -0.6218
  772MOL0     C 4087   6.467   0.418   8.452 -0.9749 -1.1453  0.3540
  772MOL0     O 4088   6.347   0.455   8.399  0.0560 -0.5754 -1.4606
  772MOL0     C 4089   6.239   0.429   8.480 -0.2806 -0.2460  1.2289
  772MOL0     C 4090   6.136   0.522   8.495 -0.0909 -0.1844 -0.3089
  772MOL0     C 4091   6.011   0.489   8.556  0.5519  0.0844  0.4176
  772MOL0     C 4092   5.983   0.356   8.595  0.0448  0.1941 -0.3327
  772MOL0     O 4093   5.868   0.324   8.665 -0.0397  0.2752  0.0541
  772MOL0     C 4094   5.750   0.347   8.586  0.6606 -0.5494  0.2110
  772MOL0     C 4095   5.637   0.237   8.602 -0.0907 -0.1993 -0.1187
  772MOL0     C 4096   5.677   0.102   8.533  0.1219  0.5116  0.1548
  772MOL0     C 4097   5.560   0.001   8.555  0.6862  0.6642  0.1349
  772MOL0     C 4098   5.422   0.024   8.486 -0.0350  0.4766 -0.4799
  772MOL0     C 4099   5.312   0.062   8.586  0.5493 -0.2888  0.2595
  772MOL0     C 4100   5.177   0.085   8.510 -0.2507  0.4306  0.9649
  772MOL0     C 4101   5.095   0.202   8.563  0.3823 -0.3267 -0.2517
  772MOL0     N 4102   5.124   0.326   8.494  0.6197 -0.3348  0.5556
  772MOL0     C 4103   5.234   0.402   8.520  0.2171 -1.0028 -0.3706
  772MOL0     C 4104   5.230   0.501   8.425 -0.0794  0.0508 -0.3717
  772MOL0     C 4105   5.331   0.614   8.408  0.1907  0.4627  0.8372
  772MOL0     C 4106   5.481   0.556   8.411 -0.3943  0.1620 -0.5040
  772MOL0     C 4107   5.589   0.643   8.343 -0.4186  0.2831 -0.1643
  772MOL0     C 4108   5.603   0.790   8.388 -0.4061  0.0194 -0.5289
  772MOL0     O 4109   5.645   0.789   8.526 -0.0538 -0.2482 -0.0787
  772MOL0     C 4110   5.560   0.805   8.629  0.2812 -0.1298 -0.3578
  772MOL0     C 4111   5.599   0.779   8.760  0.2831  0.1701  0.3891
  772MOL0     C 4112   5.514   0.804   8.872 -1.0403 -0.3077  0.8616
  772MOL0     C 4113   5.548   0.752   9.007  0.3749 -0.5812 -0.0646
  772MOL0     C 4114   5.392   0.865   8.850  0.2065 -0.5563  0.2156
  772MOL0     C 4115   5.311   0.918   8.965 -0.5803 -0.0160  0.0995
  772MOL0     O 4116   5.177   0.924   8.945  0.1498  0.3404 -0.1396
  772MOL0     C 4117   5.108   1.005   9.036  0.0868 -0.3491  0.0062
  772MOL0     C 4118   5.103   0.977   9.175  0.1655  0.3059 -0.3405
  772MOL0     C 4119   5.022   1.063   9.251  0.6803 -0.3058 -0.8381
  772MOL0     C 4120   4.936   1.168   9.201  0.1900 -0.4511  0.2945
  772MOL0     O 4121   4.841   1.222   9.281 -0.9912 -1.2860  0.0701
  772MOL0     C 4122   4.751   1.133   9.343  1.3717 -0.4195  0.5980
  772MOL0     C 4123   4.615   1.201   9.343 -0.1948 -0.1288  0.0651
  772MOL0     C 4124   4.617   1.320   9.439 -0.8473 -0.2532 -0.6698
  772MOL0     C 4125   4.487   1.389   9.472  0.0504 -0.0800 -0.3273
  772MOL0     C 4126   4.491   1.507   9.573  0.6653 -0.1534  0.1729
  772MOL0     C 4127   4.357   1.563   9.622  0.0934  0.1850  0.0984
  772MOL0     C 4128   4.385   1.688   9.706  0.4492 -0.7370  0.1195
  772MOL0     C 4129   4.273   1.794   9.707 -0.1206  0.8965  0.4944
  772MOL0    Cl 4130   4.111   1.732   9.756  0.4329  0.6139 -0.1913
  772MOL0     C 4131   4.950   1.192   9.060  0.3786  0.4093  0.4422
  772MOL0     C 4132   5.035   1.110   8.982  0.9420  0.6748  0.2939
  772MOL0     O 4133   5.364   0.949   9.074 -0.1009  0.5209  0.1710
  772MOL0     C 4134   5.351   0.882   8.721 -0.6482  0.4299 -0.7524
  772MOL0     C 4135   5.431   0.853   8.610 -0.4607  0.2254  0.1295
  772MOL0     N 4136   5.112   0.488   8.353  0.7169  0.5939 -0.6807
  772MOL0     N 4137   5.058   0.376   8.382 -0.3770 -1.3472  0.0350
  772MOL0     C 4138   6.079   0.270   8.582  0.7541 -0.2667  0.1907
  772MOL0     C 4139   6.205   0.298   8.522 -0.3355  0.1658  0.0888
  772MOL0     C 4140   6.580   0.476   8.372 -1.1261 -0.9615  0.0122
  772MOL0     C 4141   6.713   0.446   8.416  0.4845 -0.5907  0.3004
  772MOL0     C 4142   6.832   0.482   8.343  0.2821 -0.5775 -0.3432
  772MOL0     C 4143   6.813   0.564   8.237 -1.0374 -0.8837  0.8110
  772MOL0     O 4144   6.926   0.608   8.165 -0.7193 -0.0067 -0.0043
  772MOL0     C 4145   6.915   0.669   8.038  0.2669  0.0837 -0.4371
  772MOL0     C 4146   7.054   0.655   7.966  0.1477  0.5328  0.4016
  772MOL0     C 4147   7.171   0.733   8.034 -0.9296 -0.1395  0.2960
  772MOL0     C 4148   7.302   0.724   7.944  0.1867  0.3755 -0.5666
  772MOL0     C 4149   7.391   0.617   7.993 -0.4773 -0.2682 -0.5434
  772MOL0     C 4150   7.478   0.540   8.024  0.7513 -0.5750 -0.0272
  772MOL0     C 4151   6.681   0.588   8.188 -0.2478 -1.3127 -0.3326
  772MOL0     C 4152   6.567   0.545   8.254 -0.0470  0.8203 -0.1708
  772MOL0     H 4153   6.157   0.625   8.470 -0.7615  0.5152  1.7738
  772MOL0     H 4154   5.938   0.569   8.560 -0.0800 -0.5299  2.4390
  772MOL0     H 4155   5.707   0.446   8.603 -1.1192 -1.4685  1.4216
  772MOL0     H 4156   5.777   0.339   8.480  1.7816  2.5698  0.1745
  772MOL0     H 4157   5.633   0.221   8.710 -4.6715  0.3454 -0.0204
  772MOL0     H 4158   5.543   0.280   8.565 -0.5583 -0.5504  0.6528
  772MOL0     H 4159   5.690   0.114   8.425  3.0260 -0.9361  0.2500
  772MOL0     H 4160   5.765   0.054   8.576  0.2937  1.0182  0.3653
  772MOL0     H 4161   5.593  -0.099   8.525  1.7095  0.9077  0.4155
  772MOL0     H 4162   5.540  -0.007   8.662  0.2864 -1.1328 -0.0335
  772MOL0     H 4163   5.424   0.114   8.424 -1.2471  1.7640  1.2468
  772MOL0     H 4164   5.397  -0.063   8.424 -2.6632 -0.5103  1.7585
  772MOL0     H 4165   5.299  -0.016   8.662  1.3223 -0.8833 -0.2169
  772MOL0     H 4166   5.346   0.151   8.640 -1.5417  0.2414  0.8316
  772MOL0     H 4167   5.199   0.110   8.405 -0.9141 -1.1681  0.4179
  772MOL0     H 4168   5.107   0.002   8.519 -0.5552  0.7584  1.6853
  772MOL0     H 4169   5.110   0.227   8.669  2.7916 -2.9651  0.1598
  772MOL0     H 4170   4.991   0.171   8.553  0.7284 -0.9651 -2.2573
  772MOL0     H 4171   5.314   0.398   8.593  0.5793  1.3438 -0.5650
  772MOL0     H 4172   5.315   0.665   8.312  2.0616  2.1892  1.3566
  772MOL0     H 4173   5.299   0.675   8.493  0.9191  0.9276  0.7882
  772MOL0     H 4174   5.485   0.455   8.369  1.4914  1.3661 -3.6108
  772MOL0     H 4175   5.514   0.545   8.515  3.2858  2.7402 -1.1704
  772MOL0     H 4176   5.565   0.653   8.237  0.9198  2.0067 -0.3372
  772MOL0     H 4177   5.690   0.602   8.335 -0.4280  0.1605  0.2698
  772MOL0     H 4178   5.521   0.858   8.365  0.8756  1.1843 -1.8658
  772MOL0     H 4179   5.682   0.839   8.331  1.1062  2.1139  3.0255
  772MOL0     H 4180   5.698   0.735   8.772  0.4697  0.9699  2.2116
  772MOL0     H 4181   5.463   0.711   9.063  0.2544  1.3837  1.2876
  772MOL0     H 4182   5.625   0.674   9.001  0.5913 -0.7150  2.8905
  772MOL0     H 4183   5.598   0.836   9.055  0.8734  1.1143 -3.2925
  772MOL0     H 4184   5.163   0.896   9.215  0.5128  1.1311  0.8592
  772MOL0     H 4185   5.017   1.044   9.357  3.6259  4.1704  0.3858
  772MOL0     H 4186   4.731   1.041   9.287 -5.1622 -0.2008  1.7965
  772MOL0     H 4187   4.774   1.111   9.447  2.4274  1.5215  0.8305
  772MOL0     H 4188   4.578   1.227   9.244  1.0602 -2.4017 -1.0731
  772MOL0     H 4189   4.556   1.122   9.389  2.1845 -0.1352  3.5095
  772MOL0     H 4190   4.682   1.397   9.395 -0.4305 -0.2591 -0.0854
  772MOL0     H 4191   4.671   1.287   9.529  2.2089 -0.2662 -2.3524
  772MOL0     H 4192   4.443   1.413   9.375 -1.0492 -0.3333  0.0969
  772MOL0     H 4193   4.427   1.305   9.508  1.7307  0.0575  3.3134
  772MOL0     H 4194   4.554   1.589   9.540  1.2323 -1.0109 -0.9541
  772MOL0     H 4195   4.540   1.459   9.659  1.5802 -1.5457 -1.0679
  772MOL0     H 4196   4.297   1.599   9.538  2.5659  4.5917 -0.0605
  772MOL0     H 4197   4.297   1.499   9.686 -0.4555  0.1925 -0.4023
  772MOL0     H 4198   4.479   1.732   9.670 -0.1356 -0.9841 -1.8447
  772MOL0     H 4199   4.398   1.645   9.805  3.4331  0.2106  0.2465
  772MOL0     H 4200   4.273   1.850   9.613  3.4946 -0.5083 -0.4812
  772MOL0     H 4201   4.307   1.855   9.791 -1.9233 -0.5983  2.4324
  772MOL0     H 4202   4.905   1.275   9.007  3.1490  1.5989 -0.1882
  772MOL0     H 4203   5.051   1.130   8.877  1.9955  1.4185  0.5810
  772MOL0     H 4204   5.256   0.926   8.694  0.3160  3.7147  0.6769
  772MOL0     H 4205   5.384   0.895   8.521  1.8249  2.1832 -0.2612
  772MOL0     H 4206   6.056   0.172   8.623  1.9533  0.0243  1.6698
  772MOL0     H 4207   6.271   0.214   8.505 -2.1456 -0.9927 -1.5966
  772MOL0     H 4208   6.724   0.396   8.511  0.5187  2.0297  1.7801
  772MOL0     H 4209   6.929   0.458   8.386 -0.1845 -0.8100  0.6089
  772MOL0     H 4210   6.835   0.623   7.978 -0.2509 -0.9099  0.9725
  772MOL0     H 4211   6.896   0.777   8.040  1.7429  0.3498  0.1215
  772MOL0     H 4212   7.052   0.686   7.861 -1.5397  0.3334  0.3505
  772MOL0     H 4213   7.075   0.548   7.979  2.4086  0.8615 -0.2327
  772MOL0     H 4214   7.193   0.680   8.127  0.6818  0.2168  0.1501
  772MOL0     H 4215   7.152   0.835   8.069 -0.8689 -0.4423  1.2358
  772MOL0     H 4216   7.356   0.818   7.954 -0.6468  0.7892  0.2681
  772MOL0     H 4217   7.276   0.712   7.839 -1.3120  0.6716 -0.2653
  772MOL0     H 4218   7.538   0.464   8.070  0.8559  1.2669  3.1990
  772MOL0     H 4219   6.661   0.627   8.089 -0.7458 -1.0463 -0.1295
  772MOL0     H 4220   6.470   0.553   8.207  0.4736  0.2525 -1.3971
  773MOL0     O 4221   2.723   0.851   7.634  0.1834 -0.1238  0.6889
  773MOL0     C 4222   2.696   0.887   7.749 -0.8097 -0.0483 -0.3248
  773MOL0     O 4223   2.572   0.923   7.790 -0.2771  0.1623  0.6760
  773MOL0     C 4224   2.454   0.912   7.709 -0.5404 -0.3413  0.0312
  773MOL0     C 4225   2.424   0.798   7.630  0.0557 -0.3849 -0.0307
  773MOL0     C 4226   2.313   0.789   7.552  0.9962  0.1941  0.1014
  773MOL0     C 4227   2.221   0.888   7.550  0.0095 -0.1335 -0.6372
  773MOL0     O 4228   2.112   0.853   7.485 -0.4293 -0.1979 -0.6484
  773MOL0     C 4229   2.002   0.941   7.478 -0.5532  0.4590 -0.3025
  773MOL0     C 4230   1.903   0.883   7.369 -0.0147  0.6672  0.0700
  773MOL0     C 4231   1.778   0.972   7.364 -0.1089 -0.2481 -0.5831
  773MOL0     C 4232   1.660   0.899   7.292 -0.2018 -0.2343 -0.5202
  773MOL0     C 4233   1.532   0.982   7.295  0.6685  0.3798 -0.4172
  773MOL0     C 4234   1.419   0.892   7.255  0.1032  0.6410 -0.8444
  773MOL0     C 4235   1.413   0.856   7.109  0.2443  0.4200 -0.2750
  773MOL0     C 4236   1.287   0.793   7.075 -0.5607  0.1838 -0.7410
  773MOL0     N 4237   1.254   0.796   6.934  0.1861 -0.4356 -0.1132
  773MOL0     C 4238   1.202   0.696   6.855 -0.0765 -0.1801  0.7254
  773MOL0     C 4239   1.204   0.748   6.728  0.1852  0.6016  0.4824
  773MOL0     C 4240   1.159   0.672   6.599  0.0948  0.0226 -0.3565
  773MOL0     C 4241   1.006   0.663   6.593  0.7875  0.2394 -0.2369
  773MOL0     C 4242   0.972   0.531   6.518  0.1866  0.4161 -0.2418
  773MOL0     C 4243   0.830   0.522   6.463  0.7773 -0.4013 -0.1073
  773MOL0     O 4244   0.797   0.633   6.377 -0.1531 -0.8662  0.4570
  773MOL0     C 4245   0.663   0.657   6.373 -0.8482 -0.2486  0.3063
  773MOL0     C 4246   0.586   0.584   6.280  0.0370 -0.4258  0.3860
  773MOL0     C 4247   0.442   0.600   6.280 -0.6453 -0.0793 -0.5089
  773MOL0     C 4248   0.366   0.498   6.188  1.1246  0.2591 -0.0625
  773MOL0     C 4249   0.384   0.691   6.370  0.6426 -0.2949 -0.2342
  773MOL0     C 4250   0.239   0.723   6.376  0.2656  0.0420  0.1302
  773MOL0     O 4251   0.148   0.658   6.304  0.1972 -0.2499  0.0388
  773MOL0     C 4252   0.015   0.691   6.321  0.0944  0.4858  0.7273
  773MOL0     C 4253  -0.064   0.705   6.205 -0.1639 -0.0792 -0.4058
  773MOL0     C 4254  -0.202   0.728   6.208 -0.4399  0.0613  0.9981
  773MOL0     C 4255  -0.264   0.728   6.329 -0.3604 -0.4178 -0.0106
  773MOL0     O 4256  -0.398   0.762   6.327  0.1274 -0.3125 -0.2306
  773MOL0     C 4257  -0.475   0.699   6.427  0.3583  0.6358 -0.3959
  773MOL0     C 4258  -0.626   0.716   6.400 -0.9024 -1.1965 -0.5843
  773MOL0     C 4259  -0.700   0.625   6.507  0.4634 -0.0429  0.5896
  773MOL0     C 4260  -0.861   0.619   6.503 -0.4485  0.4455  0.0256
  773MOL0     C 4261  -0.913   0.561   6.633  0.1949  0.1583 -0.9322
  773MOL0     C 4262  -1.063   0.579   6.649 -0.2912 -0.7026 -0.0361
  773MOL0     C 4263  -1.139   0.550   6.525 -0.2435 -0.2015  0.7753
  773MOL0     C 4264  -1.290   0.540   6.562 -0.1204  0.0831 -0.7768
  773MOL0    Cl 4265  -1.399   0.502   6.433  0.3212  0.0633 -0.1889
  773MOL0     C 4266  -0.189   0.719   6.451  0.2189  0.2635 -0.0166
  773MOL0     C 4267  -0.048   0.700   6.443 -0.1471 -0.2416  0.1276
  773MOL0     O 4268   0.218   0.820   6.452  1.0285  0.7693  0.1885
  773MOL0     C 4269   0.467   0.766   6.453 -0.2824  0.0721  0.2671
  773MOL0     C 4270   0.604   0.751   6.457  0.0050 -0.0964 -0.2542
  773MOL0     N 4271   1.255   0.877   6.728 -0.4930 -0.2007  0.2253
  773MOL0     N 4272   1.279   0.903   6.853 -0.3890  0.1158 -0.0735
  773MOL0     C 4273   2.241   1.000   7.629 -0.3093 -0.2837  0.5219
  773MOL0     C 4274   2.360   1.016   7.701  0.5984  0.9205 -0.1680
  773MOL0     C 4275   2.810   0.878   7.844  0.7002  0.4787 -0.0891
  773MOL0     C 4276   2.927   0.828   7.803 -0.3464 -0.8152 -0.2079
  773MOL0     C 4277   3.043   0.836   7.877 -0.1123  0.5255 -0.6142
  773MOL0     C 4278   3.035   0.884   8.004 -0.4327  1.0067 -0.2571
  773MOL0     O 4279   3.139   0.885   8.094  0.9038 -0.1445 -0.5832
  773MOL0     C 4280   3.272   0.895   8.045  0.3421  0.2598  0.1467
  773MOL0     C 4281   3.367   0.925   8.155  0.3388  0.8571 -0.6086
  773MOL0     C 4282   3.516   0.938   8.115 -0.7986 -1.1405  0.4543
  773MOL0     C 4283   3.608   0.924   8.233  0.9381  0.0355 -0.0915
  773MOL0     C 4284   3.733   0.997   8.213  0.3880  0.0317 -0.1893
  773MOL0     C 4285   3.834   1.058   8.205 -0.7532  0.7818  1.0239
  773MOL0     C 4286   2.915   0.926   8.061 -0.2519 -0.0803  0.1976
  773MOL0     C 4287   2.801   0.928   7.977 -1.1506 -0.2199  0.2389
  773MOL0     H 4288   2.497   0.719   7.648 -0.7705 -1.5224 -1.4427
  773MOL0     H 4289   2.293   0.700   7.494 -2.0459  0.3534  0.7324
  773MOL0     H 4290   1.965   0.946   7.581  1.7315  2.0188  0.5151
  773MOL0     H 4291   2.040   1.038   7.446  1.9041 -0.3985 -0.1996
  773MOL0     H 4292   1.948   0.881   7.269 -0.8988  0.0155 -0.3354
  773MOL0     H 4293   1.869   0.781   7.391 -0.1354  1.0342  1.7180
  773MOL0     H 4294   1.753   0.998   7.468  1.0170 -2.5580  0.3384
  773MOL0     H 4295   1.800   1.064   7.310  0.9245 -0.2184 -0.1392
  773MOL0     H 4296   1.695   0.871   7.192  2.0135 -1.7249  0.5829
  773MOL0     H 4297   1.640   0.805   7.346  0.8235  0.6548  1.5448
  773MOL0     H 4298   1.511   1.008   7.399 -0.0391 -0.2422 -0.3947
  773MOL0     H 4299   1.535   1.071   7.231  0.0821 -0.6432 -1.9361
  773MOL0     H 4300   1.412   0.800   7.313  2.9826  1.1072  0.4173
  773MOL0     H 4301   1.322   0.940   7.271  0.6035  1.7791 -1.1591
  773MOL0     H 4302   1.420   0.947   7.049  1.1498  1.6446  1.5860
  773MOL0     H 4303   1.495   0.788   7.081  0.3741  0.1392  0.7414
  773MOL0     H 4304   1.205   0.839   7.129 -1.2205 -0.2445 -1.3641
  773MOL0     H 4305   1.279   0.690   7.110 -0.8447 -0.8351 -3.5597
  773MOL0     H 4306   1.177   0.594   6.881 -1.8133  0.3753  1.3582
  773MOL0     H 4307   1.194   0.727   6.512 -0.7010  1.9745  0.5032
  773MOL0     H 4308   1.204   0.572   6.603  0.8370  0.3733  2.2943
  773MOL0     H 4309   0.971   0.743   6.528 -0.3865 -2.2576 -2.8932
  773MOL0     H 4310   0.965   0.662   6.695  0.0897 -0.3716 -0.5154
  773MOL0     H 4311   0.978   0.451   6.591 -0.3102  0.2189 -0.4203
  773MOL0     H 4312   1.040   0.516   6.433 -1.0156  1.4070 -1.4267
  773MOL0     H 4313   0.755   0.521   6.542  1.2130  1.7713  0.4197
  773MOL0     H 4314   0.803   0.433   6.405 -0.0457  0.6948 -1.4720
  773MOL0     H 4315   0.639   0.523   6.207  1.7161  2.7558 -1.2738
  773MOL0     H 4316   0.315   0.560   6.114  0.2911  1.5293  1.5293
  773MOL0     H 4317   0.435   0.422   6.148 -0.4760 -2.7344  2.4778
  773MOL0     H 4318   0.307   0.424   6.242 -0.4173  0.7921 -0.9644
  773MOL0     H 4319  -0.002   0.683   6.119 -0.3025  0.0133 -0.5292
  773MOL0     H 4320  -0.256   0.752   6.117  2.1887 -1.7198 -1.2017
  773MOL0     H 4321  -0.451   0.592   6.432  0.8147  0.7305 -0.5864
  773MOL0     H 4322  -0.466   0.740   6.528 -0.8420 -1.2268  0.5380
  773MOL0     H 4323  -0.659   0.820   6.407  0.6819 -0.6673 -0.6062
  773MOL0     H 4324  -0.649   0.684   6.297 -0.0052  0.3424 -1.2921
  773MOL0     H 4325  -0.669   0.670   6.601  2.5865 -1.5107  0.6702
  773MOL0     H 4326  -0.667   0.521   6.519  3.0402  0.9900  3.4851
  773MOL0     H 4327  -0.907   0.718   6.495 -1.6379 -0.0885  0.1309
  773MOL0     H 4328  -0.897   0.551   6.425 -4.3442 -1.6843  3.2538
  773MOL0     H 4329  -0.868   0.607   6.722 -0.9102  0.9200 -0.7499
  773MOL0     H 4330  -0.887   0.455   6.627  0.6344  0.3382 -4.1171
  773MOL0     H 4331  -1.101   0.525   6.736 -3.8128  0.9436 -0.3434
  773MOL0     H 4332  -1.076   0.686   6.671  2.9269  0.3263 -2.3904
  773MOL0     H 4333  -1.108   0.454   6.481 -1.9004 -0.8024  0.8506
  773MOL0     H 4334  -1.130   0.622   6.443 -3.5022 -0.2812  0.2114
  773MOL0     H 4335  -1.325   0.629   6.616 -2.2412 -0.2898 -1.4485
  773MOL0     H 4336  -1.302   0.459   6.635  1.1245 -1.3501 -2.0910
  773MOL0     H 4337  -0.242   0.709   6.546  0.1893 -0.7152 -0.1197
  773MOL0     H 4338   0.012   0.691   6.533 -0.3553 -2.7581  0.0909
  773MOL0     H 4339   0.425   0.831   6.529  0.9395  0.3372  0.7326
  773MOL0     H 4340   0.659   0.812   6.527 -1.9982 -0.0856  1.4285
  773MOL0     H 4341   2.175   1.086   7.635  0.4993  0.4249 -0.2811
  773MOL0     H 4342   2.370   1.102   7.767 -0.9925 -0.9784  2.7394
  773MOL0     H 4343   2.929   0.779   7.706 -1.0555 -1.6495  0.1852
  773MOL0     H 4344   3.127   0.780   7.837 -1.9342 -1.2944 -2.0563
  773MOL0     H 4345   3.301   0.799   8.001  4.0189  1.0021  0.6530
  773MOL0     H 4346   3.280   0.979   7.975  1.6974  0.2383  0.2523
  773MOL0     H 4347   3.356   0.832   8.211  0.3520  1.7821  0.9840
  773MOL0     H 4348   3.326   1.012   8.207 -2.0003 -1.4160  1.6591
  773MOL0     H 4349   3.522   1.034   8.063  5.3090 -0.8664  1.0051
  773MOL0     H 4350   3.546   0.858   8.047  1.0064 -1.1021  1.1764
  773MOL0     H 4351   3.630   0.818   8.249 -0.0807 -0.7778 -3.3967
  773MOL0     H 4352   3.565   0.974   8.321 -1.0446 -0.1763 -0.8865
  773MOL0     H 4353   3.930   1.103   8.189 -0.8196  0.3078 -0.9018
  773MOL0     H 4354   2.902   0.949   8.166 -1.6804  0.6157 -0.1186
  773MOL0     H 4355   2.703   0.968   8.002 -1.1815 -0.3793  0.3760
  774MOL0     O 4356   5.337   6.897   0.616 -0.0843  0.1771  0.6660
  774MOL0     C 4357   5.379   6.881   0.730  0.3858  0.2603 -0.3779
  774MOL0     O 4358   5.347   6.953   0.840 -0.5623  0.6558 -0.1055
  774MOL0     C 4359   5.282   7.071   0.839  0.4410  0.1438 -0.2655
  774MOL0     C 4360   5.318   7.176   0.761  0.1739 -0.4687 -0.5215
  774MOL0     C 4361   5.267   7.306   0.788  0.1449 -0.1846  0.1372
  774MOL0     C 4362   5.159   7.323   0.880 -0.0848  0.0799  0.8490
  774MOL0     O 4363   5.101   7.443   0.898 -0.2071  0.4054 -0.5987
  774MOL0     C 4364   5.076   7.523   0.786 -0.5757  0.1472 -0.2456
  774MOL0     C 4365   5.170   7.645   0.793 -0.3919  0.0505  0.2091
  774MOL0     C 4366   5.141   7.742   0.678 -0.2703 -0.2516  0.1186
  774MOL0     C 4367   5.267   7.801   0.626  0.5743 -0.0138  0.3290
  774MOL0     C 4368   5.236   7.906   0.523  0.4433 -0.4538  0.9741
  774MOL0     C 4369   5.369   7.989   0.500  0.5278  0.5136  0.9941
  774MOL0     C 4370   5.341   8.105   0.406 -0.1143 -0.2242 -0.2880
  774MOL0     C 4371   5.275   8.067   0.262 -0.2401  0.1894 -0.9879
  774MOL0     N 4372   5.269   8.184   0.169  0.9457 -0.3957 -0.3922
  774MOL0     C 4373   5.353   8.206   0.060 -0.8308 -0.7687  0.7867
  774MOL0     C 4374   5.314   8.329   0.022  0.2862 -0.0354 -0.5212
  774MOL0     C 4375   5.361   8.398  -0.099 -0.6662 -0.0267  1.0273
  774MOL0     C 4376   5.515   8.428  -0.100 -0.5711 -0.3324  0.7241
  774MOL0     C 4377   5.552   8.527   0.013  0.1857 -0.2200  0.0093
  774MOL0     C 4378   5.702   8.564   0.021 -0.5738  0.0811  0.3786
  774MOL0     O 4379   5.731   8.655   0.130  0.4418 -1.0461  0.4702
  774MOL0     C 4380   5.857   8.694   0.145 -0.9304 -0.6891  0.9563
  774MOL0     C 4381   5.966   8.616   0.106 -0.7655 -0.2809  0.0941
  774MOL0     C 4382   6.093   8.651   0.129  0.3263 -0.1813 -0.7729
  774MOL0     C 4383   6.199   8.558   0.069 -0.2463  0.4016  0.1623
  774MOL0     C 4384   6.113   8.783   0.182  0.2690  0.2959 -0.9040
  774MOL0     C 4385   6.251   8.836   0.210  0.7084  0.2973  0.4650
  774MOL0     O 4386   6.268   8.968   0.218 -0.2530  0.0378 -0.0628
  774MOL0     C 4387   6.397   9.019   0.222  1.1517 -0.3745 -0.5520
  774MOL0     C 4388   6.456   9.043   0.100 -0.1764  0.0222  0.7461
  774MOL0     C 4389   6.593   9.069   0.090  1.5879  0.8805 -0.6219
  774MOL0     C 4390   6.673   9.088   0.203 -0.7787 -0.0601  0.3859
  774MOL0     O 4391   6.807   9.110   0.180  0.1303  0.6442  0.3002
  774MOL0     C 4392   6.881   9.189   0.282  1.3843 -0.5763  0.1985
  774MOL0     C 4393   6.985   9.261   0.202 -0.1699 -0.1621  1.0735
  774MOL0     C 4394   7.048   9.372   0.298  0.2477  0.5937  0.6180
  774MOL0     C 4395   7.159   9.458   0.228 -0.3002  0.3895 -0.1183
  774MOL0     C 4396   7.201   9.565   0.321 -0.4286 -0.1331  0.3761
  774MOL0     C 4397   7.278   9.520   0.447  0.5321  0.2150 -0.0325
  774MOL0     C 4398   7.301   9.630   0.544 -0.4277 -0.2022 -0.8246
  774MOL0     C 4399   7.415   9.591   0.633 -0.6608  0.0617  0.1084
  774MOL0    Cl 4400   7.443   9.697   0.769 -0.0260  0.2155  0.1925
  774MOL0     C 4401   6.608   9.069   0.329 -0.5569 -0.9060  0.3047
  774MOL0     C 4402   6.471   9.040   0.342 -1.6729 -0.0777 -0.3218
  774MOL0     O 4403   6.344   8.753   0.221  0.2452  0.7793 -0.1643
  774MOL0     C 4404   6.003   8.863   0.223 -0.3606 -1.3368  0.1842
  774MOL0     C 4405   5.878   8.825   0.201 -0.6707 -0.0969 -0.3466
  774MOL0     N 4406   5.200   8.361   0.096  0.0990  0.0621 -0.0010
  774MOL0     N 4407   5.174   8.277   0.182 -0.0138 -0.1277 -0.0330
  774MOL0     C 4408   5.114   7.208   0.945 -0.2082  0.2234  0.5329
  774MOL0     C 4409   5.172   7.087   0.920  0.4441 -0.9778 -0.5310
  774MOL0     C 4410   5.485   6.769   0.745 -0.3876  0.5152  0.3914
  774MOL0     C 4411   5.509   6.669   0.649 -0.0710 -0.4928  0.5832
  774MOL0     C 4412   5.603   6.563   0.670  0.4304  0.1487  0.4281
  774MOL0     C 4413   5.671   6.557   0.796  0.1403 -0.2129  0.0233
  774MOL0     O 4414   5.750   6.450   0.830  0.3831 -0.6339 -0.1162
  774MOL0     C 4415   5.879   6.479   0.874 -0.2222  0.0490  0.3633
  774MOL0     C 4416   5.934   6.364   0.954 -0.8645  0.0849 -0.2795
  774MOL0     C 4417   6.085   6.373   0.938 -0.3260  0.0618  0.1913
  774MOL0     C 4418   6.142   6.300   0.816 -0.4140  0.6790 -0.9276
  774MOL0     C 4419   6.281   6.336   0.798  0.7452 -0.0997 -0.1970
  774MOL0     C 4420   6.405   6.344   0.799  0.0511  0.1548 -0.4950
  774MOL0     C 4421   5.649   6.662   0.890 -0.1213  0.6198  0.2187
  774MOL0     C 4422   5.557   6.765   0.865 -0.5136 -0.6933  0.8159
  774MOL0     H 4423   5.389   7.149   0.683 -2.0860  0.2615 -2.9968
  774MOL0     H 4424   5.304   7.387   0.725 -1.8916  1.8814  1.4541
  774MOL0     H 4425   5.103   7.473   0.693  3.6769  1.6908 -0.0991
  774MOL0     H 4426   4.973   7.559   0.792 -0.4776  0.2944  0.7524
  774MOL0     H 4427   5.143   7.691   0.888  1.5336 -1.1506  1.3944
  774MOL0     H 4428   5.273   7.607   0.793 -0.7156 -0.9062 -0.9275
  774MOL0     H 4429   5.090   7.699   0.592 -1.3766  1.6399 -0.2226
  774MOL0     H 4430   5.074   7.817   0.721 -1.7957 -1.2157 -0.5034
  774MOL0     H 4431   5.325   7.853   0.702  3.5128 -1.0761 -1.0553
  774MOL0     H 4432   5.321   7.717   0.581 -2.2705 -1.5576 -0.4462
  774MOL0     H 4433   5.202   7.856   0.432  2.9516 -2.1634  0.8648
  774MOL0     H 4434   5.158   7.974   0.558  3.2894  3.0866  1.0130
  774MOL0     H 4435   5.396   8.026   0.599 -1.8945 -0.0862  1.9486
  774MOL0     H 4436   5.440   7.914   0.466 -0.6350 -0.6110  0.9650
  774MOL0     H 4437   5.280   8.181   0.455 -0.2772  0.2497 -1.1895
  774MOL0     H 4438   5.440   8.150   0.389 -0.2838 -0.8357 -3.8225
  774MOL0     H 4439   5.180   8.020   0.289 -0.0746  0.7589  0.6607
  774MOL0     H 4440   5.341   7.992   0.218  1.2895  2.0335 -1.9918
  774MOL0     H 4441   5.435   8.142   0.029 -0.2446  0.6440 -0.7397
  774MOL0     H 4442   5.341   8.330  -0.182 -1.9990  0.2658  1.0924
  774MOL0     H 4443   5.309   8.493  -0.117 -0.9761 -0.0890  1.5872
  774MOL0     H 4444   5.530   8.478  -0.196 -2.0856  0.1531  0.7064
  774MOL0     H 4445   5.576   8.339  -0.089 -0.4055 -0.5105 -1.2250
  774MOL0     H 4446   5.519   8.489   0.110 -0.4588  1.8766  0.6671
  774MOL0     H 4447   5.495   8.618  -0.011  0.2542  0.3228  1.7593
  774MOL0     H 4448   5.737   8.597  -0.078 -3.4018  2.2503 -0.0210
  774MOL0     H 4449   5.756   8.471   0.036 -0.5148 -0.2560 -1.6193
  774MOL0     H 4450   5.947   8.518   0.063 -2.5959 -0.1664  0.5559
  774MOL0     H 4451   6.258   8.617  -0.002 -1.3877  0.8135 -0.4574
  774MOL0     H 4452   6.268   8.521   0.146 -0.6005  1.7378  1.1420
  774MOL0     H 4453   6.155   8.473   0.015 -3.0179  2.0386 -0.3377
  774MOL0     H 4454   6.403   9.041   0.005 -0.6739  3.3110  0.8582
  774MOL0     H 4455   6.655   9.067   0.000  3.4661  0.4905  0.6221
  774MOL0     H 4456   6.819   9.265   0.330 -1.2069 -2.1728 -0.4444
  774MOL0     H 4457   6.921   9.110   0.347  0.4358 -2.7518 -1.7172
  774MOL0     H 4458   7.057   9.188   0.161 -1.6287 -0.7267 -0.6176
  774MOL0     H 4459   6.937   9.307   0.115  0.5421 -1.9737 -0.3436
  774MOL0     H 4460   7.096   9.315   0.378 -1.5598 -1.3402  0.4114
  774MOL0     H 4461   6.969   9.439   0.334  0.9896  2.2582 -0.7306
  774MOL0     H 4462   7.241   9.398   0.186 -1.5973 -2.3546  1.0123
  774MOL0     H 4463   7.115   9.515   0.146  1.7065 -1.0160 -2.3162
  774MOL0     H 4464   7.115   9.627   0.350 -1.5163 -0.8524 -1.1323
  774MOL0     H 4465   7.270   9.635   0.274  0.0692 -1.9178 -1.6941
  774MOL0     H 4466   7.230   9.434   0.495  0.7338  0.2328  0.1959
  774MOL0     H 4467   7.370   9.481   0.403  1.4527  2.0548  0.1523
  774MOL0     H 4468   7.224   9.657   0.617 -0.7110  2.4337 -1.9796
  774MOL0     H 4469   7.318   9.727   0.497  0.5522  1.0155  1.8176
  774MOL0     H 4470   7.507   9.573   0.576 -0.6584  1.5986 -0.4149
  774MOL0     H 4471   7.385   9.491   0.665 -1.3990 -1.3539 -4.3100
  774MOL0     H 4472   6.669   9.075   0.419 -2.2386  0.5346  1.4050
  774MOL0     H 4473   6.433   9.019   0.442 -1.4134  1.0698  0.0296
  774MOL0     H 4474   6.016   8.964   0.259 -0.7300 -0.9745 -0.6714
  774MOL0     H 4475   5.786   8.882   0.210  0.0510  1.3101 -1.4141
  774MOL0     H 4476   5.023   7.223   1.002  0.8426 -0.7109  2.5744
  774MOL0     H 4477   5.117   7.002   0.960 -0.9250  0.8046  1.6352
  774MOL0     H 4478   5.469   6.669   0.549 -0.4801 -2.5954  0.7045
  774MOL0     H 4479   5.610   6.477   0.604 -5.9004 -1.9108  1.7603
  774MOL0     H 4480   5.945   6.491   0.787 -0.0387  1.5501  0.6778
  774MOL0     H 4481   5.878   6.567   0.940 -0.7398  0.7227 -0.5222
  774MOL0     H 4482   5.891   6.272   0.914 -0.8778 -0.5176  1.0760
  774MOL0     H 4483   5.915   6.347   1.060  2.3091 -2.3353  0.0303
  774MOL0     H 4484   6.122   6.318   1.025 -1.0023 -3.1294 -1.3730
  774MOL0     H 4485   6.122   6.476   0.939  1.8127 -0.6358  2.7235
  774MOL0     H 4486   6.084   6.328   0.728 -0.2702  0.7447 -1.0020
  774MOL0     H 4487   6.147   6.193   0.838  1.2537  1.0937  1.1133
  774MOL0     H 4488   6.511   6.352   0.796  0.1238 -0.2290  0.5278
  774MOL0     H 4489   5.706   6.651   0.982 -0.9119 -1.1087  0.5521
  774MOL0     H 4490   5.535   6.844   0.936 -2.5594 -2.8761  2.7703
  775MOL0     O 4491  10.059   7.523   8.214 -0.3119  0.2462  0.7512
  775MOL0     C 4492  10.160   7.568   8.265 -0.4987 -0.3031 -0.0393
  775MOL0     O 4493  10.167   7.670   8.363 -0.1811 -0.4142 -0.5836
  775MOL0     C 4494  10.046   7.719   8.410 -0.3761  0.5592  0.3183
  775MOL0     C 4495   9.998   7.707   8.544  0.2962 -0.2946 -1.0852
  775MOL0     C 4496   9.870   7.753   8.574 -0.1071  0.0165  0.1603
  775MOL0     C 4497   9.781   7.808   8.478  0.9847 -0.3062 -0.2737
  775MOL0     O 4498   9.646   7.842   8.503  0.6070 -0.2445  0.0444
  775MOL0     C 4499   9.550   7.814   8.392 -0.2618 -0.3438 -0.3301
  775MOL0     C 4500   9.411   7.793   8.455  0.2409 -1.0591 -0.2108
  775MOL0     C 4501   9.375   7.666   8.533 -0.1467  0.4924 -0.4622
  775MOL0     C 4502   9.220   7.650   8.540  0.2190  0.0702 -0.8907
  775MOL0     C 4503   9.178   7.502   8.578 -0.5738 -0.2871 -0.2141
  775MOL0     C 4504   9.023   7.481   8.584 -0.4520 -0.2221 -0.2985
  775MOL0     C 4505   8.942   7.567   8.683 -0.7463 -0.2367  0.3507
  775MOL0     C 4506   8.794   7.531   8.675 -0.5980  0.1866  0.7484
  775MOL0     N 4507   8.740   7.544   8.548 -0.3671 -0.2768 -0.0261
  775MOL0     C 4508   8.692   7.434   8.471 -1.0177 -0.4135 -0.0542
  775MOL0     C 4509   8.636   7.497   8.367  0.0569 -0.0024  0.0138
  775MOL0     C 4510   8.564   7.447   8.241 -0.2574 -0.4068 -0.9467
  775MOL0     C 4511   8.432   7.379   8.281  0.0442 -0.1320  0.1895
  775MOL0     C 4512   8.344   7.357   8.162 -0.4689 -0.0461  0.0282
  775MOL0     C 4513   8.223   7.282   8.192 -0.2744 -0.1339 -0.2192
  775MOL0     O 4514   8.128   7.311   8.086  0.5957 -0.1982 -1.1212
  775MOL0     C 4515   8.012   7.238   8.090  0.1043 -0.4474 -0.1034
  775MOL0     C 4516   7.944   7.231   7.967 -0.7934 -0.5556 -0.3917
  775MOL0     C 4517   7.822   7.156   7.960 -0.3226  0.9061  0.6719
  775MOL0     C 4518   7.741   7.155   7.832 -0.2728  0.6248 -0.2224
  775MOL0     C 4519   7.775   7.086   8.072 -0.0967 -0.1962  0.2978
  775MOL0     C 4520   7.648   7.003   8.070  0.5824 -0.5672  0.6980
  775MOL0     O 4521   7.598   6.969   8.188 -0.3749 -0.7940  0.3222
  775MOL0     C 4522   7.528   6.853   8.186  0.5139  0.9394 -0.3440
  775MOL0     C 4523   7.582   6.723   8.155  0.5757  0.2080  0.0057
  775MOL0     C 4524   7.505   6.607   8.154 -0.0237 -0.1648  0.3482
  775MOL0     C 4525   7.371   6.612   8.208 -0.0493 -0.9821  0.3101
  775MOL0     O 4526   7.298   6.496   8.226  0.6509 -0.4870 -1.0826
  775MOL0     C 4527   7.317   6.390   8.127 -0.1368 -0.1347 -1.2004
  775MOL0     C 4528   7.256   6.427   7.997  0.2781  0.7010  0.4737
  775MOL0     C 4529   7.250   6.297   7.909 -0.4635  0.9923  0.4966
  775MOL0     C 4530   7.299   6.318   7.763  0.5499 -0.5879 -0.5212
  775MOL0     C 4531   7.449   6.343   7.749 -0.5882 -0.4558 -0.5301
  775MOL0     C 4532   7.531   6.229   7.811 -0.7161 -0.0979  0.9431
  775MOL0     C 4533   7.674   6.228   7.753 -0.5933 -0.0736 -0.8945
  775MOL0     C 4534   7.685   6.183   7.609  0.2204  1.3779  0.0102
  775MOL0    Cl 4535   7.845   6.235   7.556 -0.2004  0.4440  0.6564
  775MOL0     C 4536   7.324   6.736   8.254  0.0359 -0.6626 -0.2809
  775MOL0     C 4537   7.403   6.854   8.239 -0.9504 -0.7158 -0.1605
  775MOL0     O 4538   7.610   6.953   7.965 -0.3547  0.8618  0.8522
  775MOL0     C 4539   7.847   7.090   8.194  0.6183  0.8824 -0.5322
  775MOL0     C 4540   7.963   7.162   8.196  0.2168  0.3651 -0.5884
  775MOL0     N 4541   8.634   7.633   8.386  1.0225 -0.2328  0.3138
  775MOL0     N 4542   8.698   7.661   8.491  0.0087 -0.3312  0.2041
  775MOL0     C 4543   9.841   7.838   8.351 -0.3342  0.6200 -0.0614
  775MOL0     C 4544   9.969   7.796   8.322 -0.0669  0.6463  1.0862
  775MOL0     C 4545  10.294   7.521   8.227  0.6790  0.7777 -1.0796
  775MOL0     C 4546  10.405   7.560   8.294  0.0241  0.0892  0.1717
  775MOL0     C 4547  10.535   7.523   8.240  0.3065  0.2991 -0.4807
  775MOL0     C 4548  10.551   7.448   8.118 -0.1886 -0.3785  0.2983
  775MOL0     O 4549  10.664   7.394   8.065  0.0926 -0.6118 -0.2719
  775MOL0     C 4550  10.795   7.443   8.106  0.4406 -0.0157  0.4639
  775MOL0     C 4551  10.840   7.364   8.228  0.4583 -0.4865  0.5798
  775MOL0     C 4552  10.975   7.396   8.285 -0.7319 -0.8571 -0.7351
  775MOL0     C 4553  10.977   7.540   8.342  0.9233 -0.3964  1.1208
  775MOL0     C 4554  10.877   7.578   8.445  0.2202  0.0106 -0.4889
  775MOL0     C 4555  10.790   7.598   8.529 -0.8500 -0.8789  0.1648
  775MOL0     C 4556  10.433   7.417   8.052  0.2977  0.4477  0.1333
  775MOL0     C 4557  10.306   7.450   8.102  0.6205  0.4178  0.5490
  775MOL0     H 4558  10.076   7.666   8.608 -0.6311  1.3543  1.2451
  775MOL0     H 4559   9.838   7.736   8.676  1.8709 -0.3415  0.7616
  775MOL0     H 4560   9.552   7.887   8.311 -4.5947 -1.9970 -2.2838
  775MOL0     H 4561   9.578   7.717   8.350 -3.4625 -1.1995 -0.8000
  775MOL0     H 4562   9.387   7.881   8.515  0.5223 -0.9554 -0.2505
  775MOL0     H 4563   9.351   7.807   8.365 -2.1196 -0.3950  1.3543
  775MOL0     H 4564   9.405   7.572   8.486  0.2657  0.6199 -0.4561
  775MOL0     H 4565   9.419   7.672   8.633  1.2716 -0.3544 -0.9971
  775MOL0     H 4566   9.183   7.725   8.611  0.4403  1.8954 -2.5952
  775MOL0     H 4567   9.167   7.672   8.447  1.6585 -2.3672 -2.3960
  775MOL0     H 4568   9.215   7.434   8.501  0.1907  1.6765 -1.6665
  775MOL0     H 4569   9.218   7.471   8.675  0.5983 -1.4930 -1.0538
  775MOL0     H 4570   8.982   7.500   8.484 -0.7940 -2.2876 -0.5864
  775MOL0     H 4571   9.009   7.376   8.609  0.5537 -0.4314 -0.6093
  775MOL0     H 4572   8.979   7.542   8.783  1.9691 -0.2214 -0.5422
  775MOL0     H 4573   8.963   7.673   8.670 -1.8728 -0.0489 -0.0294
  775MOL0     H 4574   8.759   7.617   8.734  0.5011  0.8597  0.4392
  775MOL0     H 4575   8.765   7.436   8.722 -0.1733 -0.4769 -0.2984
  775MOL0     H 4576   8.714   7.330   8.491  0.2667 -0.6487 -2.3895
  775MOL0     H 4577   8.545   7.532   8.175 -0.4042 -0.6764 -1.2526
  775MOL0     H 4578   8.632   7.376   8.192  2.1810  0.9149  0.3276
  775MOL0     H 4579   8.379   7.441   8.354  0.4772 -1.2678  1.5060
  775MOL0     H 4580   8.452   7.277   8.316 -0.8614 -1.1616 -2.0898
  775MOL0     H 4581   8.410   7.306   8.091 -0.3053 -0.6878  0.6390
  775MOL0     H 4582   8.319   7.456   8.122  2.5967  2.2488  3.1342
  775MOL0     H 4583   8.182   7.319   8.286 -1.0874  0.6989 -0.8716
  775MOL0     H 4584   8.241   7.174   8.197  0.5004 -0.1684 -2.3498
  775MOL0     H 4585   7.984   7.289   7.884 -1.6920  1.8325  0.7663
  775MOL0     H 4586   7.634   7.154   7.854 -0.7664 -2.0431 -2.2446
  775MOL0     H 4587   7.769   7.231   7.759 -0.8552  1.4512  0.3998
  775MOL0     H 4588   7.758   7.061   7.778  0.4412  0.6012  0.0243
  775MOL0     H 4589   7.688   6.707   8.134  1.4993  1.6827  2.9036
  775MOL0     H 4590   7.553   6.519   8.113 -3.6070 -1.6180 -1.1916
  775MOL0     H 4591   7.421   6.358   8.115  0.3014  1.1067 -0.8692
  775MOL0     H 4592   7.267   6.303   8.170 -3.1710  2.1335  0.2065
  775MOL0     H 4593   7.153   6.461   8.011  0.4372  0.6740  1.9263
  775MOL0     H 4594   7.313   6.508   7.952  2.1773  1.2113  3.4800
  775MOL0     H 4595   7.152   6.254   7.927 -0.1392  0.7984  1.9321
  775MOL0     H 4596   7.325   6.227   7.949 -0.4112  1.9623  2.2410
  775MOL0     H 4597   7.270   6.238   7.694 -0.2482 -0.7369 -0.0185
  775MOL0     H 4598   7.249   6.404   7.719  1.2469  0.0771 -0.0426
  775MOL0     H 4599   7.471   6.440   7.794  0.2397 -0.1870 -1.4762
  775MOL0     H 4600   7.473   6.346   7.642  2.5779  0.6374  0.0949
  775MOL0     H 4601   7.525   6.235   7.920 -3.4150 -0.5362  0.8907
  775MOL0     H 4602   7.486   6.132   7.787  1.6455 -0.7030 -1.4251
  775MOL0     H 4603   7.736   6.165   7.817  0.5699  0.9930 -0.9334
  775MOL0     H 4604   7.713   6.330   7.766 -3.2712  0.8184  1.0640
  775MOL0     H 4605   7.605   6.228   7.550  0.2669 -1.4418 -2.4106
  775MOL0     H 4606   7.683   6.075   7.595  0.9643  1.5379 -1.4814
  775MOL0     H 4607   7.219   6.740   8.282  0.4023 -0.2224  1.1310
  775MOL0     H 4608   7.353   6.946   8.268  0.4929  1.0017 -2.7665
  775MOL0     H 4609   7.812   7.025   8.273  1.6242  0.5090 -0.3763
  775MOL0     H 4610   8.018   7.158   8.290 -2.6964 -4.0307  1.3024
  775MOL0     H 4611   9.780   7.891   8.278 -0.1193  1.1522  0.1387
  775MOL0     H 4612   9.988   7.805   8.216 -0.5116 -0.1487  0.9251
  775MOL0     H 4613  10.402   7.629   8.377  0.9841  0.2777  0.0659
  775MOL0     H 4614  10.618   7.543   8.307 -1.4420  1.1982  1.5340
  775MOL0     H 4615  10.871   7.418   8.032  2.3553 -0.1698  2.3879
  775MOL0     H 4616  10.796   7.550   8.131  0.9368 -0.4210  2.2907
  775MOL0     H 4617  10.853   7.263   8.187  2.5878 -1.0154  2.3740
  775MOL0     H 4618  10.764   7.357   8.306 -2.8188  1.4179 -2.1377
  775MOL0     H 4619  11.044   7.377   8.202  0.5407  0.5348 -0.0326
  775MOL0     H 4620  11.004   7.319   8.357 -2.0649 -0.8631 -0.1700
  775MOL0     H 4621  10.977   7.622   8.270  0.5764  1.4037  3.1037
  775MOL0     H 4622  11.077   7.545   8.386  1.9449 -0.4546 -1.0618
  775MOL0     H 4623  10.710   7.616   8.599  0.2750  1.8293  0.8485
  775MOL0     H 4624  10.441   7.364   7.958 -0.6279  0.3766  0.0895
  775MOL0     H 4625  10.214   7.417   8.055  0.7535 -0.7934  1.1019
  776MOL0     O 4626   7.262   5.840   6.198  0.1265 -0.5773 -0.1132
  776MOL0     C 4627   7.320   5.928   6.134 -0.0444 -0.1027  0.8856
  776MOL0     O 4628   7.271   5.989   6.022  0.1926 -0.3944  0.0211
  776MOL0     C 4629   7.138   5.961   5.989 -0.0797  0.8083  0.0381
  776MOL0     C 4630   7.030   5.966   6.077  0.0080 -1.0742  0.3700
  776MOL0     C 4631   6.902   5.926   6.029 -0.1663  0.6136 -0.2037
  776MOL0     C 4632   6.876   5.886   5.902  0.0113  0.4998 -0.0117
  776MOL0     O 4633   6.747   5.845   5.871 -0.1559  0.3545  0.1867
  776MOL0     C 4634   6.725   5.825   5.726  0.9258  0.2313  0.0869
  776MOL0     C 4635   6.573   5.822   5.705 -0.0115 -0.2334  0.6285
  776MOL0     C 4636   6.531   5.771   5.574  0.6473  0.1815 -0.1136
  776MOL0     C 4637   6.380   5.735   5.561 -0.3284  1.1406 -0.2526
  776MOL0     C 4638   6.359   5.666   5.421  0.8853 -0.8970 -0.4172
  776MOL0     C 4639   6.333   5.768   5.314 -0.0479 -0.8658  0.7333
  776MOL0     C 4640   6.348   5.694   5.181  0.4589  0.2542 -0.2800
  776MOL0     C 4641   6.302   5.781   5.061  0.1260  1.0818  0.3092
  776MOL0     N 4642   6.158   5.778   5.046  0.7822 -0.7546 -0.1554
  776MOL0     C 4643   6.094   5.664   5.005  0.4371 -0.6973  0.1872
  776MOL0     C 4644   5.960   5.699   5.001  0.4189  0.5406 -0.5824
  776MOL0     C 4645   5.855   5.600   4.984 -0.0424  0.0739  0.4278
  776MOL0     C 4646   5.826   5.510   5.097  0.1228 -0.0516  0.4477
  776MOL0     C 4647   5.683   5.453   5.093  0.2668  1.0031 -0.8823
  776MOL0     C 4648   5.649   5.380   4.960 -1.6006  0.4142  0.4586
  776MOL0     O 4649   5.507   5.350   4.942 -1.1208  0.3109 -0.6530
  776MOL0     C 4650   5.420   5.448   4.898  0.1972  0.1895 -0.0209
  776MOL0     C 4651   5.285   5.410   4.895 -0.9984 -0.3061  0.2911
  776MOL0     C 4652   5.187   5.503   4.869 -0.4986 -0.2945 -0.1472
  776MOL0     C 4653   5.045   5.452   4.876 -0.5452  0.5701 -0.1470
  776MOL0     C 4654   5.214   5.635   4.836 -1.1206  0.2189 -0.0016
  776MOL0     C 4655   5.118   5.736   4.800 -0.1556  0.2567  0.8316
  776MOL0     O 4656   5.141   5.819   4.690 -0.2220 -0.6647 -0.2572
  776MOL0     C 4657   5.042   5.894   4.639  0.0086 -0.0574 -1.1537
  776MOL0     C 4658   4.969   5.990   4.702 -0.1994 -0.3027 -0.2567
  776MOL0     C 4659   4.866   6.064   4.641 -0.6563  0.9854  0.3108
  776MOL0     C 4660   4.824   6.034   4.514  0.4814  0.4305 -0.5959
  776MOL0     O 4661   4.717   6.108   4.470  0.4752 -0.2932 -0.5262
  776MOL0     C 4662   4.701   6.148   4.337  0.2475  0.1624 -0.5192
  776MOL0     C 4663   4.594   6.262   4.332 -0.0608  0.6603  0.8288
  776MOL0     C 4664   4.454   6.209   4.371  0.4483  0.3235 -0.4127
  776MOL0     C 4665   4.354   6.322   4.409 -0.8647 -0.1089  0.0800
  776MOL0     C 4666   4.216   6.279   4.458 -0.3534 -1.0239  0.0494
  776MOL0     C 4667   4.149   6.402   4.536  1.4187 -0.1193 -0.7017
  776MOL0     C 4668   3.993   6.379   4.520 -0.3047  0.3688  0.3298
  776MOL0     C 4669   3.931   6.469   4.623 -0.0783  0.8712  0.3530
  776MOL0    Cl 4670   3.957   6.643   4.601  0.0691  0.1927 -0.1202
  776MOL0     C 4671   4.894   5.936   4.441 -0.2601 -0.1271  0.5857
  776MOL0     C 4672   5.007   5.873   4.503 -0.0869 -0.4874 -0.4788
  776MOL0     O 4673   5.012   5.742   4.869 -0.4379 -0.7581 -0.4106
  776MOL0     C 4674   5.350   5.666   4.825  0.6466 -0.1621 -0.3094
  776MOL0     C 4675   5.448   5.575   4.853 -0.2867  0.4786  0.6260
  776MOL0     N 4676   5.944   5.825   5.064  0.6218  0.1415 -0.0303
  776MOL0     N 4677   6.065   5.868   5.084  0.2265 -0.0011 -0.3011
  776MOL0     C 4678   6.985   5.895   5.814 -0.2478 -0.3496  0.0910
  776MOL0     C 4679   7.111   5.920   5.856 -0.5592 -0.2026  0.7254
  776MOL0     C 4680   7.452   5.961   6.185  1.1323 -0.3065 -0.7659
  776MOL0     C 4681   7.491   5.939   6.312  0.3390 -1.5198 -0.7112
  776MOL0     C 4682   7.611   5.989   6.363  1.3048 -0.6217 -0.0006
  776MOL0     C 4683   7.706   6.046   6.286  0.1739 -0.3273  0.2817
  776MOL0     O 4684   7.830   6.086   6.322  0.3165  0.0030 -0.1127
  776MOL0     C 4685   7.884   6.072   6.455  0.2993  0.2436 -0.5880
  776MOL0     C 4686   8.024   6.135   6.463  0.1875 -0.3253 -0.1117
  776MOL0     C 4687   8.012   6.278   6.522 -0.5979 -1.3832 -0.0554
  776MOL0     C 4688   8.124   6.363   6.461 -0.3395  0.3402 -0.1861
  776MOL0     C 4689   8.149   6.475   6.552 -0.0783  0.3254 -0.3149
  776MOL0     C 4690   8.170   6.563   6.635 -0.0721  0.7776  0.6618
  776MOL0     C 4691   7.672   6.075   6.151 -0.3988  0.6356  1.3199
  776MOL0     C 4692   7.544   6.028   6.101 -0.4775 -0.1440  0.1613
  776MOL0     H 4693   7.053   6.013   6.173 -1.2344 -0.2327  0.2850
  776MOL0     H 4694   6.815   5.944   6.091 -0.6963  0.1351 -0.7935
  776MOL0     H 4695   6.757   5.912   5.668  0.1283 -0.3726 -1.2857
  776MOL0     H 4696   6.776   5.731   5.701 -1.0659 -0.9776  0.3953
  776MOL0     H 4697   6.529   5.754   5.779 -0.0110  1.4839  2.2739
  776MOL0     H 4698   6.528   5.917   5.736 -1.9326 -0.6124 -0.7677
  776MOL0     H 4699   6.563   5.839   5.495  0.6158 -0.3593 -0.6021
  776MOL0     H 4700   6.587   5.678   5.561 -0.4189 -0.3666 -0.9500
  776MOL0     H 4701   6.352   5.669   5.644 -0.4543  1.3372 -0.1347
  776MOL0     H 4702   6.298   5.807   5.574 -3.3116 -1.6856 -1.9284
  776MOL0     H 4703   6.438   5.594   5.396  0.0892 -1.2123 -2.1604
  776MOL0     H 4704   6.268   5.607   5.427  0.5697 -0.2661  2.0175
  776MOL0     H 4705   6.231   5.806   5.325 -0.9588 -2.3867 -1.6223
  776MOL0     H 4706   6.407   5.848   5.310 -0.1331 -0.6844  2.2369
  776MOL0     H 4707   6.455   5.680   5.162  0.8601 -0.6187  2.2888
  776MOL0     H 4708   6.306   5.594   5.175 -1.0488  0.8090  0.3880
  776MOL0     H 4709   6.355   5.752   4.970  0.7097 -3.4615  1.8576
  776MOL0     H 4710   6.329   5.887   5.075 -1.6386  1.6874 -0.5914
  776MOL0     H 4711   6.140   5.569   4.980  3.2686  0.4312  0.7465
  776MOL0     H 4712   5.759   5.644   4.954 -0.0455  0.3616  0.8396
  776MOL0     H 4713   5.892   5.536   4.904 -1.5034 -0.9557  0.5397
  776MOL0     H 4714   5.858   5.557   5.190  2.6206 -1.5952  0.4356
  776MOL0     H 4715   5.888   5.421   5.105 -0.8644 -0.6827  1.4808
  776MOL0     H 4716   5.612   5.536   5.103 -3.0460 -1.8237  0.9929
  776MOL0     H 4717   5.663   5.374   5.166 -1.0698 -0.6728 -2.9332
  776MOL0     H 4718   5.709   5.290   4.945 -0.9832  0.9531 -0.4400
  776MOL0     H 4719   5.679   5.442   4.875  1.1303  1.3099  1.9570
  776MOL0     H 4720   5.251   5.311   4.920  0.5324 -0.3939  2.2092
  776MOL0     H 4721   5.004   5.475   4.778  2.8242  1.6219 -1.4497
  776MOL0     H 4722   5.036   5.346   4.901  1.0966  0.4530  0.0611
  776MOL0     H 4723   4.990   5.499   4.959 -0.4032  0.1151  0.2095
  776MOL0     H 4724   4.986   6.009   4.807 -0.3910 -0.0888 -0.2617
  776MOL0     H 4725   4.816   6.149   4.686 -1.6079  0.6464 -0.0569
  776MOL0     H 4726   4.797   6.183   4.298  0.2081  0.7572 -0.0972
  776MOL0     H 4727   4.665   6.067   4.273  0.2059  0.1985 -0.5412
  776MOL0     H 4728   4.614   6.356   4.384  4.4824  1.7670 -2.3041
  776MOL0     H 4729   4.592   6.297   4.228 -1.1057  0.9336  0.9357
  776MOL0     H 4730   4.465   6.146   4.460 -0.7975  0.4640 -0.1414
  776MOL0     H 4731   4.408   6.150   4.291 -2.1000  0.3894  0.8962
  776MOL0     H 4732   4.387   6.386   4.491 -1.3486 -0.7950  0.8196
  776MOL0     H 4733   4.352   6.381   4.316 -0.4129 -0.7443 -0.3419
  776MOL0     H 4734   4.231   6.194   4.526  1.3358 -0.7529  0.0542
  776MOL0     H 4735   4.159   6.247   4.370 -1.0148 -1.1237  0.5005
  776MOL0     H 4736   4.180   6.399   4.641  0.3300  1.3538 -0.3181
  776MOL0     H 4737   4.173   6.498   4.490 -0.6884  0.8002  0.0205
  776MOL0     H 4738   3.976   6.274   4.549 -0.2877  0.2036 -0.2450
  776MOL0     H 4739   3.962   6.399   4.417  1.2820  1.0612 -0.0424
  776MOL0     H 4740   3.963   6.444   4.725  0.8713  0.4254 -0.0404
  776MOL0     H 4741   3.822   6.459   4.625 -0.2770  2.0308 -1.7598
  776MOL0     H 4742   4.863   5.911   4.340  1.5511  2.7028 -0.8352
  776MOL0     H 4743   5.068   5.795   4.458 -0.9711 -0.8364 -1.0999
  776MOL0     H 4744   5.376   5.762   4.782  0.4608  0.4860  0.9832
  776MOL0     H 4745   5.551   5.596   4.825 -0.6671  2.2654  0.4635
  776MOL0     H 4746   6.968   5.857   5.714  1.1559  0.8338 -0.6260
  776MOL0     H 4747   7.183   5.912   5.775 -1.3182 -0.7913  0.0901
  776MOL0     H 4748   7.429   5.883   6.382 -2.1775  0.2084 -1.4044
  776MOL0     H 4749   7.634   5.958   6.464  1.5835  0.0423  0.1420
  776MOL0     H 4750   7.810   6.119   6.521 -1.4926 -0.5662 -1.9668
  776MOL0     H 4751   7.894   5.965   6.474  2.6793 -0.2480 -3.8316
  776MOL0     H 4752   8.066   6.136   6.362 -2.9349  2.7163 -1.5615
  776MOL0     H 4753   8.081   6.068   6.528 -0.0496  0.8806  1.3811
  776MOL0     H 4754   8.021   6.264   6.631  1.1386 -2.2897 -0.2884
  776MOL0     H 4755   7.918   6.329   6.499  0.8273  1.2543 -0.4099
  776MOL0     H 4756   8.096   6.396   6.361  1.9577 -1.8905 -1.6827
  776MOL0     H 4757   8.218   6.307   6.455  0.5525  1.7808 -0.1128
  776MOL0     H 4758   8.199   6.627   6.716 -2.5160  2.3079  0.3995
  776MOL0     H 4759   7.737   6.125   6.081 -2.1866  0.3509 -0.6797
  776MOL0     H 4760   7.516   6.057   6.000 -0.6789 -0.9600 -0.0279
  777MOL0     O 4761   7.845   7.661   0.235 -0.1779  0.5265  0.1438
  777MOL0     C 4762   7.867   7.577   0.322 -0.3383 -0.3033 -0.2161
  777MOL0     O 4763   7.782   7.476   0.347 -0.3607 -0.2601  0.2677
  777MOL0     C 4764   7.654   7.485   0.294  0.0079  0.3612 -0.4490
  777MOL0     C 4765   7.621   7.450   0.164 -0.6184 -0.0437 -0.1159
  777MOL0     C 4766   7.490   7.460   0.120 -0.4928 -0.9807  0.3711
  777MOL0     C 4767   7.387   7.506   0.213  0.2759  0.4043 -0.1783
  777MOL0     O 4768   7.251   7.531   0.173  0.5928 -0.0183  0.5395
  777MOL0     C 4769   7.226   7.488   0.042  0.1557  0.2173  0.7783
  777MOL0     C 4770   7.073   7.499   0.034  0.0520  0.1484  0.0179
  777MOL0     C 4771   7.026   7.645   0.027  0.1029  0.2416 -0.1095
  777MOL0     C 4772   6.881   7.670   0.000  0.0618 -0.4253 -0.2575
  777MOL0     C 4773   6.850   7.819   0.015  0.1733  0.3877  0.4899
  777MOL0     C 4774   6.700   7.850   0.037 -0.8934 -0.4151  0.1452
  777MOL0     C 4775   6.668   7.993   0.044 -0.0617 -0.7595 -0.6007
  777MOL0     C 4776   6.691   8.063  -0.088  0.2945 -0.1387 -0.6822
  777MOL0     N 4777   6.612   8.186  -0.079  0.1994 -0.1398  0.2415
  777MOL0     C 4778   6.666   8.301  -0.039 -0.8990 -1.3752 -0.0905
  777MOL0     C 4779   6.572   8.398  -0.057  0.0351 -0.1860  0.2549
  777MOL0     C 4780   6.576   8.545  -0.033 -0.2988  0.5760  0.6335
  777MOL0     C 4781   6.719   8.600  -0.025 -0.4101  0.3858 -0.0663
  777MOL0     C 4782   6.742   8.743   0.028  0.1200  0.1580 -0.2079
  777MOL0     C 4783   6.860   8.805  -0.041 -0.5216 -0.0528 -0.1150
  777MOL0     O 4784   6.978   8.718  -0.026 -0.1062 -0.3251 -0.2808
  777MOL0     C 4785   7.098   8.769  -0.070 -0.1224 -0.0939  0.5161
  777MOL0     C 4786   7.209   8.680  -0.051 -0.0729 -0.7041 -0.6987
  777MOL0     C 4787   7.338   8.712  -0.116 -0.2167  0.5130  0.4667
  777MOL0     C 4788   7.464   8.624  -0.100  0.1587  0.3672 -0.6513
  777MOL0     C 4789   7.348   8.835  -0.187 -0.0430  0.6183  0.0394
  777MOL0     C 4790   7.466   8.890  -0.257 -0.0323  0.5854  0.7275
  777MOL0     O 4791   7.443   8.983  -0.361  0.1661 -0.2145 -0.2873
  777MOL0     C 4792   7.541   9.043  -0.428 -0.8015 -0.2144  0.1959
  777MOL0     C 4793   7.575   9.180  -0.418 -0.7908 -0.7509  0.8762
  777MOL0     C 4794   7.680   9.232  -0.496 -0.2048 -0.6843 -0.0093
  777MOL0     C 4795   7.748   9.157  -0.587 -0.5688 -0.6725  0.6018
  777MOL0     O 4796   7.864   9.210  -0.647  0.2575 -0.4603 -0.2537
  777MOL0     C 4797   7.982   9.124  -0.678  0.4617 -0.2429 -0.1368
  777MOL0     C 4798   8.056   9.078  -0.559  0.4040 -0.9332 -0.0748
  777MOL0     C 4799   8.202   9.057  -0.586 -1.1885  0.9219  0.4134
  777MOL0     C 4800   8.260   8.997  -0.460 -0.3923  0.3072  0.4468
  777MOL0     C 4801   8.407   8.972  -0.471  0.2832  0.4274 -0.2040
  777MOL0     C 4802   8.457   8.861  -0.563  0.3800 -0.2538 -0.4560
  777MOL0     C 4803   8.604   8.805  -0.551  0.4190 -0.4252 -0.2238
  777MOL0     C 4804   8.694   8.923  -0.592  0.3137  0.2945 -0.2694
  777MOL0    Cl 4805   8.858   8.885  -0.631  0.1745  0.0127 -0.0850
  777MOL0     C 4806   7.710   9.020  -0.603  0.4335  0.1090 -0.2314
  777MOL0     C 4807   7.611   8.966  -0.528  0.6306  0.6455  0.2308
  777MOL0     O 4808   7.583   8.847  -0.230  0.4362  0.2470 -0.3918
  777MOL0     C 4809   7.234   8.920  -0.199  0.1906  0.8534 -0.0335
  777MOL0     C 4810   7.112   8.888  -0.140  0.2944  0.1609 -0.4988
  777MOL0     N 4811   6.465   8.333  -0.110  0.4075  0.6837  0.2589
  777MOL0     N 4812   6.488   8.209  -0.129 -0.6888  0.2920 -0.3011
  777MOL0     C 4813   7.424   7.541   0.341 -0.4688 -0.3644 -0.0064
  777MOL0     C 4814   7.559   7.528   0.386  0.4087  0.5827  0.7909
  777MOL0     C 4815   7.999   7.583   0.400  0.6902 -0.0111  0.1185
  777MOL0     C 4816   8.023   7.502   0.514 -0.5883  0.3688 -0.4827
  777MOL0     C 4817   8.151   7.490   0.566 -0.6888  0.4558 -0.1170
  777MOL0     C 4818   8.262   7.552   0.504 -0.0568 -0.5058  0.9320
  777MOL0     O 4819   8.394   7.541   0.548 -0.8141 -0.3115  0.1778
  777MOL0     C 4820   8.425   7.458   0.661 -0.0456  0.4400 -0.4916
  777MOL0     C 4821   8.562   7.488   0.697  0.0726  0.6709  0.2796
  777MOL0     C 4822   8.669   7.426   0.608  0.0385  0.3845  0.5324
  777MOL0     C 4823   8.806   7.455   0.680  0.3129 -0.1927  0.5922
  777MOL0     C 4824   8.835   7.599   0.699  0.5444  0.5772 -0.0575
  777MOL0     C 4825   8.864   7.713   0.724 -0.0872  0.9821 -0.6571
  777MOL0     C 4826   8.238   7.647   0.399 -0.5365 -0.1809  1.0533
  777MOL0     C 4827   8.109   7.662   0.356  0.6312 -0.0640  0.4122
  777MOL0     H 4828   7.695   7.401   0.102  1.2506  1.1846  1.0633
  777MOL0     H 4829   7.468   7.415   0.024  0.4271 -1.5044  0.3889
  777MOL0     H 4830   7.278   7.551  -0.031 -0.5292 -1.7330 -1.5677
  777MOL0     H 4831   7.266   7.389   0.016  2.3807  1.2097  0.2010
  777MOL0     H 4832   7.033   7.454  -0.058 -3.3109 -0.6553  1.6967
  777MOL0     H 4833   7.011   7.446   0.107 -2.6985 -1.6726 -3.3033
  777MOL0     H 4834   7.060   7.702   0.115  1.0907 -1.7848  0.8934
  777MOL0     H 4835   7.081   7.700  -0.050 -2.4118 -0.0644 -2.2508
  777MOL0     H 4836   6.861   7.640  -0.103 -0.8126 -1.0956  0.0874
  777MOL0     H 4837   6.812   7.615   0.066 -1.1905 -0.5185 -1.5910
  777MOL0     H 4838   6.895   7.859   0.107 -1.5344  0.0094  1.5494
  777MOL0     H 4839   6.888   7.871  -0.073 -1.1687 -0.9946 -0.9631
  777MOL0     H 4840   6.635   7.796  -0.032  0.7390 -1.6672 -0.4930
  777MOL0     H 4841   6.661   7.796   0.123 -0.2562 -2.4563 -0.7894
  777MOL0     H 4842   6.563   8.002   0.076  0.5939  0.6127  1.3938
  777MOL0     H 4843   6.720   8.045   0.125  0.3190 -1.0272 -0.6730
  777MOL0     H 4844   6.653   7.994  -0.164 -3.6031 -0.7915  1.5742
  777MOL0     H 4845   6.798   8.073  -0.109  0.7851 -0.3589  1.4656
  777MOL0     H 4846   6.772   8.314  -0.017 -0.9283 -3.7425  1.8383
  777MOL0     H 4847   6.523   8.596  -0.114 -3.0703 -1.8066  0.7845
  777MOL0     H 4848   6.522   8.565   0.060  0.6600 -0.3657  1.4224
  777MOL0     H 4849   6.773   8.592  -0.119 -1.2491 -2.5908 -0.3935
  777MOL0     H 4850   6.773   8.533   0.043  1.3540 -1.2572 -2.9001
  777MOL0     H 4851   6.746   8.748   0.137 -1.7620 -0.5387 -0.0778
  777MOL0     H 4852   6.656   8.805   0.001 -0.0292  0.1332  0.2132
  777MOL0     H 4853   6.881   8.904   0.002  0.1397 -0.0502 -0.4345
  777MOL0     H 4854   6.852   8.813  -0.150 -1.5857  1.3996  0.0291
  777MOL0     H 4855   7.201   8.584  -0.001 -1.8746 -0.4059 -0.3721
  777MOL0     H 4856   7.514   8.654  -0.008  0.7764 -1.2698 -0.4058
  777MOL0     H 4857   7.440   8.518  -0.088  1.6660 -0.0625 -1.1301
  777MOL0     H 4858   7.532   8.631  -0.186  0.4848 -1.8074 -0.6287
  777MOL0     H 4859   7.532   9.247  -0.344 -2.0061 -1.2483  0.6590
  777MOL0     H 4860   7.710   9.329  -0.458 -0.9218 -0.3505 -0.2638
  777MOL0     H 4861   7.942   9.047  -0.744 -3.9716  1.9536 -0.4199
  777MOL0     H 4862   8.053   9.181  -0.739  0.8804 -0.3157  0.2807
  777MOL0     H 4863   8.042   9.154  -0.482 -0.1428 -0.3209 -0.7685
  777MOL0     H 4864   8.013   8.990  -0.510  0.7740 -0.3088  1.4222
  777MOL0     H 4865   8.252   9.149  -0.617 -0.0711 -0.0563 -0.7789
  777MOL0     H 4866   8.211   8.988  -0.670  1.2346 -1.5798  2.5583
  777MOL0     H 4867   8.244   9.077  -0.387  0.9159  1.9726 -1.0084
  777MOL0     H 4868   8.198   8.915  -0.422  1.4475 -0.5621  1.7554
  777MOL0     H 4869   8.454   8.950  -0.375 -0.2281  0.4660  0.0611
  777MOL0     H 4870   8.453   9.067  -0.500 -1.3964  1.5501  0.6760
  777MOL0     H 4871   8.392   8.775  -0.545  0.0983  0.1448  0.5161
  777MOL0     H 4872   8.439   8.902  -0.662 -1.1673 -1.7318 -0.8447
  777MOL0     H 4873   8.611   8.714  -0.611  1.8336  0.0237 -0.7852
  777MOL0     H 4874   8.626   8.782  -0.446 -0.0669 -2.4267 -0.5181
  777MOL0     H 4875   8.693   8.997  -0.511  0.1450 -0.4200  0.3914
  777MOL0     H 4876   8.656   8.983  -0.675 -0.4292  1.2837  0.7493
  777MOL0     H 4877   7.752   8.954  -0.678 -1.0531 -0.9536 -0.1671
  777MOL0     H 4878   7.591   8.859  -0.530 -1.0525  0.8583  2.3671
  777MOL0     H 4879   7.232   9.013  -0.255 -2.1298  3.0043  3.2103
  777MOL0     H 4880   7.026   8.950  -0.161  0.5693  0.7636  0.1229
  777MOL0     H 4881   7.352   7.588   0.408 -0.5657 -3.3199  2.1748
  777MOL0     H 4882   7.581   7.558   0.488 -0.1640 -0.5173  1.2679
  777MOL0     H 4883   7.933   7.460   0.558 -1.9157  3.7010  0.2900
  777MOL0     H 4884   8.162   7.436   0.660  0.1444  1.0560  0.1422
  777MOL0     H 4885   8.375   7.481   0.756  0.1130  0.0027 -0.2967
  777MOL0     H 4886   8.407   7.351   0.649 -0.7947  0.5560 -0.4544
  777MOL0     H 4887   8.583   7.465   0.801 -0.0766  0.7098  0.3185
  777MOL0     H 4888   8.568   7.596   0.684 -2.2780  0.6093 -2.4115
  777MOL0     H 4889   8.670   7.477   0.511 -2.3863  0.2067  0.3436
  777MOL0     H 4890   8.656   7.320   0.584  0.4527  0.7329 -1.4225
  777MOL0     H 4891   8.887   7.416   0.618  0.5309  1.1645 -0.0143
  777MOL0     H 4892   8.821   7.401   0.774  4.5683  0.4687  0.4821
  777MOL0     H 4893   8.881   7.816   0.749  0.8257 -0.0001  3.4349
  777MOL0     H 4894   8.322   7.693   0.347 -0.7433  0.2709  1.1193
  777MOL0     H 4895   8.086   7.740   0.285  1.5509  0.8219  1.0627
  778MOL0     O 4896   5.926   6.892   2.770  0.1895  0.8851  0.0229
  778MOL0     C 4897   5.981   6.790   2.819  0.3045 -0.0385  0.1107
  778MOL0     O 4898   5.923   6.674   2.856  0.2811 -0.2420 -0.2978
  778MOL0     C 4899   5.786   6.672   2.856 -0.1287 -0.2912  0.9677
  778MOL0     C 4900   5.704   6.760   2.937 -0.2320 -0.0368 -0.3853
  778MOL0     C 4901   5.569   6.742   2.943  0.2061  0.4517 -0.5227
  778MOL0     C 4902   5.513   6.633   2.858  0.3514 -0.3565  0.1912
  778MOL0     O 4903   5.378   6.604   2.861 -0.5424 -0.4298 -0.2870
  778MOL0     C 4904   5.280   6.699   2.885 -0.6386 -0.3222  0.2557
  778MOL0     C 4905   5.178   6.641   2.979  0.5217  0.0230  0.2620
  778MOL0     C 4906   5.247   6.610   3.105  0.2941  0.2131 -0.0177
  778MOL0     C 4907   5.171   6.527   3.207  0.1320 -1.0584 -0.0084
  778MOL0     C 4908   5.249   6.472   3.324  0.6936  1.1554 -0.5326
  778MOL0     C 4909   5.354   6.567   3.397  0.2127  0.0905 -0.0813
  778MOL0     C 4910   5.412   6.483   3.507 -0.1309 -0.2837 -0.2110
  778MOL0     C 4911   5.458   6.560   3.631 -0.3856  0.0991 -0.7052
  778MOL0     N 4912   5.346   6.626   3.709 -0.2279 -0.7474 -0.3801
  778MOL0     C 4913   5.270   6.735   3.676 -0.6920 -0.0495  0.1024
  778MOL0     C 4914   5.174   6.739   3.772 -0.4921 -0.2425 -0.1670
  778MOL0     C 4915   5.059   6.834   3.770 -0.7994  0.8473 -0.4382
  778MOL0     C 4916   4.956   6.802   3.667 -0.0561  0.2710 -0.2648
  778MOL0     C 4917   4.824   6.875   3.689 -0.0949  0.6157 -0.4714
  778MOL0     C 4918   4.825   7.022   3.645  0.1450  0.5055  0.3501
  778MOL0     O 4919   4.727   7.043   3.538  0.2124  0.2291  0.1565
  778MOL0     C 4920   4.596   7.064   3.581  0.3285  0.4834  0.4726
  778MOL0     C 4921   4.512   7.100   3.478  0.6947  0.6506  0.0698
  778MOL0     C 4922   4.371   7.084   3.486 -0.6278 -0.4899 -0.2246
  778MOL0     C 4923   4.294   7.121   3.363  0.5670 -0.2985  0.0290
  778MOL0     C 4924   4.311   7.037   3.607 -0.1792 -0.3375 -0.5299
  778MOL0     C 4925   4.161   7.019   3.621 -0.4135 -0.0184 -0.1012
  778MOL0     O 4926   4.068   7.038   3.519 -0.7315  0.6504 -0.2588
  778MOL0     C 4927   3.939   7.069   3.558 -0.5663  1.0234  0.3596
  778MOL0     C 4928   3.841   7.015   3.477  0.2784 -0.1356  0.5355
  778MOL0     C 4929   3.701   7.021   3.518 -0.7984  0.1200 -0.3952
  778MOL0     C 4930   3.661   7.094   3.626  0.8036 -0.5916  0.7748
  778MOL0     O 4931   3.525   7.106   3.656  0.3569  0.2826  0.7933
  778MOL0     C 4932   3.485   7.126   3.792  0.0617 -0.5586  0.5257
  778MOL0     C 4933   3.332   7.142   3.798  0.5992 -0.3788 -0.2537
  778MOL0     C 4934   3.259   7.013   3.742  0.1189  0.0178 -0.3275
  778MOL0     C 4935   3.118   7.036   3.790 -0.3388  0.2882  0.3804
  778MOL0     C 4936   3.021   6.934   3.728  0.1802 -0.1951 -0.3112
  778MOL0     C 4937   2.885   6.937   3.786 -0.4531  0.0042 -0.6126
  778MOL0     C 4938   2.802   6.820   3.750 -0.4169 -0.3957 -0.5806
  778MOL0     C 4939   2.668   6.813   3.819 -0.2215 -0.1196  0.0107
  778MOL0    Cl 4940   2.563   6.687   3.758  0.3342 -0.5789  0.2111
  778MOL0     C 4941   3.761   7.153   3.698  0.5159  0.0304 -0.2877
  778MOL0     C 4942   3.899   7.148   3.667 -0.3051  0.2559  0.1853
  778MOL0     O 4943   4.131   6.973   3.728 -0.0226  0.2473  0.4198
  778MOL0     C 4944   4.399   7.017   3.719 -0.1735 -0.0524 -0.1973
  778MOL0     C 4945   4.539   7.029   3.705 -0.0258 -0.1312 -0.4724
  778MOL0     N 4946   5.201   6.646   3.872  0.3020 -0.0438  0.5317
  778MOL0     N 4947   5.306   6.580   3.835 -0.1774 -1.0702 -1.0498
  778MOL0     C 4948   5.592   6.553   2.788 -0.9042  0.2251 -0.0837
  778MOL0     C 4949   5.727   6.574   2.783  0.7491 -0.5236  0.7782
  778MOL0     C 4950   6.130   6.808   2.840  0.5814 -0.3206 -0.6532
  778MOL0     C 4951   6.189   6.937   2.842 -0.3738 -0.8551 -0.4631
  778MOL0     C 4952   6.317   6.953   2.882 -0.2375  0.2055  0.1526
  778MOL0     C 4953   6.394   6.837   2.919  0.0928 -1.1690 -0.0121
  778MOL0     O 4954   6.521   6.856   2.970 -0.1788  0.3140  0.6080
  778MOL0     C 4955   6.625   6.852   2.867 -0.0243 -0.2016  0.2150
  778MOL0     C 4956   6.642   6.975   2.779 -0.5530 -0.3530  0.4853
  778MOL0     C 4957   6.692   7.096   2.867  0.3286  0.7889  0.2459
  778MOL0     C 4958   6.703   7.217   2.780 -0.3199  0.0268 -0.0630
  778MOL0     C 4959   6.577   7.281   2.741  0.1143 -0.2482 -0.5368
  778MOL0     C 4960   6.468   7.327   2.737 -0.4394  0.9448 -0.1715
  778MOL0     C 4961   6.344   6.710   2.912  0.1448  0.2654 -0.1332
  778MOL0     C 4962   6.208   6.694   2.874 -0.2747 -0.4556 -0.3677
  778MOL0     H 4963   5.752   6.835   3.000 -0.6909 -0.0045 -0.0669
  778MOL0     H 4964   5.512   6.796   3.018 -0.5006 -2.1376  0.9396
  778MOL0     H 4965   5.328   6.792   2.918  2.0276 -1.1247 -1.0384
  778MOL0     H 4966   5.236   6.723   2.788  0.5990 -3.3596 -1.1773
  778MOL0     H 4967   5.095   6.711   2.994  0.3787 -0.5090  2.1644
  778MOL0     H 4968   5.134   6.546   2.947  1.9607 -0.8337  0.7449
  778MOL0     H 4969   5.328   6.543   3.073 -3.4533 -4.7265 -0.4131
  778MOL0     H 4970   5.280   6.704   3.149  1.5705 -0.5836  0.7705
  778MOL0     H 4971   5.092   6.596   3.239  2.9447  1.6500  1.6914
  778MOL0     H 4972   5.125   6.438   3.162 -0.3056 -1.1311  0.5759
  778MOL0     H 4973   5.173   6.439   3.396 -0.1951  0.0999 -1.9185
  778MOL0     H 4974   5.311   6.390   3.289  0.8784  1.0847 -0.0505
  778MOL0     H 4975   5.441   6.597   3.338 -0.2613 -0.2118 -0.9593
  778MOL0     H 4976   5.305   6.658   3.433  0.3214 -0.2300  0.9066
  778MOL0     H 4977   5.338   6.409   3.538 -1.1357  0.2213 -1.2938
  778MOL0     H 4978   5.501   6.435   3.465 -0.8305 -1.1043 -0.8042
  778MOL0     H 4979   5.541   6.622   3.597 -0.1638 -1.4606 -3.2404
  778MOL0     H 4980   5.507   6.482   3.691  1.5129  2.4904  1.0518
  778MOL0     H 4981   5.271   6.800   3.589  1.9850  2.9227  2.0982
  778MOL0     H 4982   5.033   6.840   3.876  2.3085  2.1833  0.3789
  778MOL0     H 4983   5.107   6.930   3.749  0.0034  0.8949  1.3942
  778MOL0     H 4984   4.933   6.695   3.662  0.0306  0.3264 -3.7675
  778MOL0     H 4985   4.986   6.823   3.564 -1.8719 -0.9862 -1.0980
  778MOL0     H 4986   4.792   6.858   3.792 -1.5653  0.6541 -0.9050
  778MOL0     H 4987   4.754   6.834   3.615  0.4153 -2.3561  0.5707
  778MOL0     H 4988   4.928   7.046   3.618  0.8124 -0.3589  1.9740
  778MOL0     H 4989   4.789   7.074   3.734 -1.6649 -0.4762  0.2391
  778MOL0     H 4990   4.567   7.124   3.388 -1.1531  0.3281 -1.1970
  778MOL0     H 4991   4.244   7.216   3.387  1.3441 -0.1591  1.1783
  778MOL0     H 4992   4.351   7.133   3.270 -1.6566  0.9328 -1.2697
  778MOL0     H 4993   4.222   7.045   3.334  1.0714 -0.5421 -0.6286
  778MOL0     H 4994   3.875   6.963   3.388  1.8630 -1.7737  2.0303
  778MOL0     H 4995   3.627   6.973   3.455 -1.4468 -2.7066  2.3245
  778MOL0     H 4996   3.519   7.047   3.860 -0.6630 -0.0707  1.4896
  778MOL0     H 4997   3.530   7.214   3.840  0.5832  1.0278 -2.5903
  778MOL0     H 4998   3.302   7.156   3.902  0.0752 -0.9276 -0.3261
  778MOL0     H 4999   3.308   7.232   3.741  1.1812 -0.9171 -1.4028
  778MOL0     H 5000   3.299   6.922   3.787  0.4752 -1.2142 -2.9952
  778MOL0     H 5001   3.251   7.026   3.634 -2.7302  2.5251  0.0299
  778MOL0     H 5002   3.123   7.018   3.898 -0.0906 -4.4093 -0.1904
  778MOL0     H 5003   3.074   7.134   3.771 -0.7101 -0.1131 -0.9084
  778MOL0     H 5004   3.058   6.833   3.743 -0.4990 -0.5190 -0.7939
  778MOL0     H 5005   3.028   6.950   3.620 -0.4856  2.0114 -0.0904
  778MOL0     H 5006   2.907   6.943   3.893  0.3449  1.4864 -0.8298
  778MOL0     H 5007   2.845   7.037   3.766 -2.2800 -0.4291  0.6311
  778MOL0     H 5008   2.850   6.729   3.786  0.0765  0.4962  1.1509
  778MOL0     H 5009   2.780   6.816   3.643 -5.1405 -0.6274  0.1739
  778MOL0     H 5010   2.617   6.909   3.816 -1.3160 -0.6258  1.3275
  778MOL0     H 5011   2.690   6.782   3.922  1.5990  0.9988  0.0066
  778MOL0     H 5012   3.732   7.203   3.790  1.3086 -0.4207  0.2259
  778MOL0     H 5013   3.976   7.188   3.733 -0.9990  1.9730  0.0071
  778MOL0     H 5014   4.370   6.984   3.818 -0.8133 -0.5075 -0.5345
  778MOL0     H 5015   4.599   7.005   3.792 -0.1569 -2.9612 -1.0838
  778MOL0     H 5016   5.560   6.476   2.719 -0.5296  1.4600 -1.6964
  778MOL0     H 5017   5.788   6.507   2.723  1.0001 -0.4538  0.9529
  778MOL0     H 5018   6.132   7.027   2.818  1.7355  0.4839 -0.7488
  778MOL0     H 5019   6.362   7.050   2.866 -0.7563  0.0054 -3.1589
  778MOL0     H 5020   6.722   6.840   2.917  1.5577  3.4183 -1.6043
  778MOL0     H 5021   6.598   6.776   2.793 -1.8956  2.6894 -2.2991
  778MOL0     H 5022   6.549   7.001   2.727 -0.2920  3.4129  1.6016
  778MOL0     H 5023   6.715   6.963   2.698 -0.3992  0.8267  0.4274
  778MOL0     H 5024   6.789   7.071   2.911 -0.1316 -0.0064  0.8447
  778MOL0     H 5025   6.626   7.118   2.952 -1.3469 -0.9594 -0.5297
  778MOL0     H 5026   6.764   7.189   2.693  1.8486 -1.9579  1.9493
  778MOL0     H 5027   6.756   7.292   2.839  0.6077 -0.1670 -0.6288
  778MOL0     H 5028   6.378   7.384   2.729  0.3625  2.1157 -1.4599
  778MOL0     H 5029   6.400   6.625   2.949  2.7690  0.7305 -2.6731
  778MOL0     H 5030   6.163   6.595   2.868 -0.0774 -0.5235 -0.8342
  779MOL0     O 5031   6.153   7.143   6.964  0.4477  0.3063 -0.1583
  779MOL0     C 5032   6.243   7.117   7.043 -0.5876 -0.4429  0.2793
  779MOL0     O 5033   6.223   7.065   7.170 -0.4353 -0.1220 -0.4281
  779MOL0     C 5034   6.096   7.020   7.206  0.2156  0.6658 -0.3782
  779MOL0     C 5035   6.088   6.885   7.253  0.1602 -0.6482 -1.0313
  779MOL0     C 5036   5.971   6.825   7.285  0.3805 -0.0706 -0.1715
  779MOL0     C 5037   5.855   6.900   7.281  0.4168  0.3838 -0.1627
  779MOL0     O 5038   5.731   6.849   7.318 -0.0795  0.0583  0.4206
  779MOL0     C 5039   5.704   6.709   7.341  1.6219  0.2597  0.0314
  779MOL0     C 5040   5.556   6.686   7.375  0.3125  0.7379 -0.2521
  779MOL0     C 5041   5.474   6.649   7.253 -0.2719 -0.1028 -0.3071
  779MOL0     C 5042   5.451   6.779   7.180 -0.8695 -0.2651 -0.6630
  779MOL0     C 5043   5.407   6.750   7.036 -0.4378  0.2523  0.5871
  779MOL0     C 5044   5.347   6.878   6.979  0.0098 -0.2628  0.0492
  779MOL0     C 5045   5.340   6.882   6.824  0.6761 -0.5054 -0.4808
  779MOL0     C 5046   5.274   7.004   6.770  0.2903 -0.5287  0.2837
  779MOL0     N 5047   5.129   6.974   6.777 -0.1297 -0.6942  1.2816
  779MOL0     C 5048   5.048   6.923   6.681  0.2281 -0.1837  0.4899
  779MOL0     C 5049   4.922   6.951   6.724 -0.1740 -0.4999 -1.0814
  779MOL0     C 5050   4.795   6.912   6.668 -0.8103  0.0967  0.8658
  779MOL0     C 5051   4.704   7.022   6.616  0.0002  0.7043 -1.0719
  779MOL0     C 5052   4.760   7.105   6.507 -0.7094  0.1212 -0.0549
  779MOL0     C 5053   4.678   7.218   6.457  0.3164  0.0337  1.0449
  779MOL0     O 5054   4.564   7.173   6.385 -0.3427 -0.2848 -0.4687
  779MOL0     C 5055   4.438   7.240   6.386 -0.3418  0.4127 -0.1332
  779MOL0     C 5056   4.417   7.369   6.440 -0.3477 -0.3682 -0.3175
  779MOL0     C 5057   4.289   7.427   6.452  0.3095  0.2370  0.0456
  779MOL0     C 5058   4.281   7.567   6.513  0.1718 -0.3098  0.4674
  779MOL0     C 5059   4.176   7.352   6.429 -1.0065 -0.4203  0.0297
  779MOL0     C 5060   4.045   7.395   6.447 -0.2933  0.1727 -0.2040
  779MOL0     O 5061   3.963   7.349   6.352  0.1993 -0.4927 -0.3005
  779MOL0     C 5062   3.833   7.385   6.334 -0.4998 -0.4951 -0.2378
  779MOL0     C 5063   3.744   7.286   6.291 -0.0630 -0.7666 -0.0976
  779MOL0     C 5064   3.607   7.302   6.296 -0.1663  0.3094  0.4724
  779MOL0     C 5065   3.550   7.418   6.333 -0.0541  0.2442  0.6763
  779MOL0     O 5066   3.409   7.415   6.325 -0.3082 -0.0221 -0.4535
  779MOL0     C 5067   3.340   7.524   6.390 -0.5177 -0.8739  0.6821
  779MOL0     C 5068   3.196   7.486   6.389  1.2496  0.1379 -0.8515
  779MOL0     C 5069   3.113   7.594   6.457  0.2788  0.0661  0.1042
  779MOL0     C 5070   2.961   7.568   6.435 -0.3208  0.2700 -0.2065
  779MOL0     C 5071   2.872   7.571   6.568 -0.2085  0.5168  0.5012
  779MOL0     C 5072   2.892   7.450   6.654  0.2383  0.1856 -0.5001
  779MOL0     C 5073   2.827   7.460   6.791 -0.8256  0.0142 -0.1473
  779MOL0     C 5074   2.676   7.478   6.778  0.8392 -0.0140 -0.5644
  779MOL0    Cl 5075   2.593   7.517   6.943  0.1868  0.4242  0.2652
  779MOL0     C 5076   3.633   7.533   6.366 -1.5620 -0.1159  0.2291
  779MOL0     C 5077   3.777   7.508   6.361  0.6535 -0.5687 -1.0103
  779MOL0     O 5078   4.010   7.467   6.537 -0.6054  0.2996 -0.7614
  779MOL0     C 5079   4.199   7.225   6.376 -0.4836  0.5599 -0.6278
  779MOL0     C 5080   4.325   7.166   6.352 -0.2187 -0.2752 -0.5125
  779MOL0     N 5081   4.931   7.000   6.850  0.9069 -0.4886 -0.1585
  779MOL0     N 5082   5.054   7.010   6.877  0.0489  0.6523 -0.9268
  779MOL0     C 5083   5.862   7.034   7.239 -0.2516 -0.4369 -0.0735
  779MOL0     C 5084   5.977   7.096   7.197  0.0910  0.3969  0.5377
  779MOL0     C 5085   6.380   7.130   7.004 -1.1076 -0.5918 -0.2822
  779MOL0     C 5086   6.411   7.160   6.866 -0.3687  0.6084 -0.4252
  779MOL0     C 5087   6.549   7.192   6.847  1.2144 -0.2944 -0.2987
  779MOL0     C 5088   6.652   7.167   6.944 -0.8334  0.7907  0.2989
  779MOL0     O 5089   6.771   7.192   6.880 -0.3095  0.6095 -1.0268
  779MOL0     C 5090   6.894   7.192   6.955 -0.1566  0.1233  1.0654
  779MOL0     C 5091   6.911   7.314   7.046 -0.5619  0.1016 -0.5731
  779MOL0     C 5092   6.976   7.431   6.968  0.3261  0.0406 -0.2296
  779MOL0     C 5093   7.007   7.553   7.062 -0.3701  1.0929 -0.3329
  779MOL0     C 5094   7.116   7.525   7.162  0.1990  0.2661  0.4355
  779MOL0     C 5095   7.205   7.510   7.243 -0.4114  0.5274 -0.5186
  779MOL0     C 5096   6.614   7.127   7.068 -1.0134  0.3858 -0.7636
  779MOL0     C 5097   6.480   7.124   7.101  0.1732  1.0607  0.2442
  779MOL0     H 5098   6.183   6.832   7.256  1.8881  2.2189 -1.3158
  779MOL0     H 5099   5.957   6.718   7.303  0.3942 -0.1557 -0.6594
  779MOL0     H 5100   5.733   6.633   7.269  1.5224 -3.7859  3.8473
  779MOL0     H 5101   5.766   6.689   7.429  3.1458  1.3020 -0.7579
  779MOL0     H 5102   5.545   6.602   7.443 -3.0870  2.1194  1.1335
  779MOL0     H 5103   5.524   6.776   7.429 -0.2171 -0.2830  1.1985
  779MOL0     H 5104   5.528   6.583   7.185  1.4527 -0.2745  1.1723
  779MOL0     H 5105   5.372   6.614   7.274 -0.5322 -0.4535 -1.9962
  779MOL0     H 5106   5.372   6.827   7.239 -2.7291 -4.0835  0.2546
  779MOL0     H 5107   5.537   6.846   7.179 -0.1650 -1.0833  1.1759
  779MOL0     H 5108   5.495   6.715   6.982 -0.3358 -1.1273  1.5921
  779MOL0     H 5109   5.328   6.674   7.034 -0.2608  0.0705  0.2188
  779MOL0     H 5110   5.248   6.889   7.025 -0.7318 -1.6906 -1.1143
  779MOL0     H 5111   5.396   6.965   7.023 -1.2776 -0.9946  3.1941
  779MOL0     H 5112   5.443   6.893   6.788  0.6593 -0.2310 -0.4462
  779MOL0     H 5113   5.298   6.793   6.777 -2.6935  0.8491 -0.2954
  779MOL0     H 5114   5.308   7.025   6.668 -2.9913  3.6756 -0.1702
  779MOL0     H 5115   5.304   7.098   6.816  2.5664  1.0173 -3.8697
  779MOL0     H 5116   5.068   6.862   6.593  0.8007  0.2630  0.3106
  779MOL0     H 5117   4.827   6.847   6.586  0.1711  1.5727  0.0362
  779MOL0     H 5118   4.750   6.844   6.741 -4.3850 -0.0153 -1.1790
  779MOL0     H 5119   4.677   7.088   6.699 -2.7575 -1.9720  0.3393
  779MOL0     H 5120   4.614   6.965   6.590  1.4652 -2.6787  0.6791
  779MOL0     H 5121   4.772   7.036   6.422  1.4283  0.8784 -0.4391
  779MOL0     H 5122   4.858   7.141   6.540  0.4972 -3.9982  1.4196
  779MOL0     H 5123   4.737   7.279   6.387 -0.9963  0.6772  0.4604
  779MOL0     H 5124   4.652   7.281   6.542  1.1708 -0.1214  1.4420
  779MOL0     H 5125   4.498   7.435   6.469  0.2249 -1.7760  1.4315
  779MOL0     H 5126   4.379   7.614   6.501  1.5549 -2.9951  0.4081
  779MOL0     H 5127   4.207   7.634   6.467 -0.6940 -0.6901  1.2841
  779MOL0     H 5128   4.253   7.551   6.617  1.2473 -0.3734  0.7507
  779MOL0     H 5129   3.783   7.187   6.267  0.2680  0.0429 -3.2658
  779MOL0     H 5130   3.552   7.217   6.257  1.8174 -1.1033  0.5876
  779MOL0     H 5131   3.368   7.532   6.495 -1.8723  1.6737  0.9391
  779MOL0     H 5132   3.350   7.620   6.337 -3.0622 -0.2519  1.1967
  779MOL0     H 5133   3.165   7.464   6.286 -0.1016  1.5457 -0.7823
  779MOL0     H 5134   3.182   7.391   6.443  0.1918  2.0581  2.5685
  779MOL0     H 5135   3.142   7.687   6.408  1.2856 -0.9722 -1.3850
  779MOL0     H 5136   3.145   7.598   6.561  1.9181 -1.2576 -0.3122
  779MOL0     H 5137   2.929   7.644   6.363 -0.7795  1.6408  1.3717
  779MOL0     H 5138   2.945   7.476   6.377  1.5495  1.9082 -3.6569
  779MOL0     H 5139   2.770   7.562   6.529  0.1237 -2.2892  0.1392
  779MOL0     H 5140   2.890   7.656   6.635 -0.4435 -0.8013  2.3234
  779MOL0     H 5141   2.844   7.358   6.620 -4.4203  1.1843  2.4252
  779MOL0     H 5142   3.000   7.436   6.666  0.3845  2.6406  2.1532
  779MOL0     H 5143   2.877   7.532   6.856  1.3913 -3.3974  2.2609
  779MOL0     H 5144   2.844   7.369   6.850  1.0532  0.9612  0.8557
  779MOL0     H 5145   2.626   7.389   6.739  1.1698 -0.9930  1.1357
  779MOL0     H 5146   2.636   7.557   6.714 -1.0426 -1.2386 -0.9732
  779MOL0     H 5147   3.604   7.637   6.380  1.1478  0.6705  0.6572
  779MOL0     H 5148   3.840   7.584   6.406 -0.3990 -1.1349  1.6474
  779MOL0     H 5149   4.115   7.161   6.351 -2.2441  1.7428  1.8924
  779MOL0     H 5150   4.340   7.067   6.309  5.4237 -0.7788  1.7571
  779MOL0     H 5151   5.765   7.083   7.242 -0.0431  0.1208 -1.6295
  779MOL0     H 5152   5.968   7.200   7.166  1.8350  0.5290  0.3479
  779MOL0     H 5153   6.339   7.174   6.785 -1.2149 -1.5971 -0.1303
  779MOL0     H 5154   6.592   7.215   6.750 -1.7999  2.4853 -1.1700
  779MOL0     H 5155   6.906   7.099   7.011  1.5169  1.3181  2.8138
  779MOL0     H 5156   6.978   7.193   6.885 -0.7099 -1.2934  0.3406
  779MOL0     H 5157   6.991   7.285   7.115 -0.1304  0.3722 -0.9561
  779MOL0     H 5158   6.823   7.349   7.102  0.1948 -0.6874  1.1804
  779MOL0     H 5159   6.894   7.466   6.905 -0.7547  0.2306  1.2188
  779MOL0     H 5160   7.068   7.398   6.919  1.8714  1.2784  1.6660
  779MOL0     H 5161   6.918   7.573   7.123  0.6591  2.2778  0.8412
  779MOL0     H 5162   7.021   7.643   7.001 -4.5567  0.2782 -2.9111
  779MOL0     H 5163   7.285   7.493   7.313  1.6736  2.7410 -2.1871
  779MOL0     H 5164   6.691   7.116   7.143 -3.2921  4.1742  2.5575
  779MOL0     H 5165   6.464   7.108   7.207 -3.1984 -0.3211 -0.3587
  780MOL0     O 5166   2.260   3.767   1.489 -0.0957  0.6479  1.0754
  780MOL0     C 5167   2.197   3.835   1.404  0.2139  0.1322  0.1967
  780MOL0     O 5168   2.108   3.932   1.425 -0.4486 -0.0818 -0.3085
  780MOL0     C 5169   2.083   3.967   1.558 -0.1234 -0.2669  0.6337
  780MOL0     C 5170   2.178   4.029   1.638 -0.3224  0.7809  0.6462
  780MOL0     C 5171   2.158   4.045   1.774  0.2913 -1.4558 -0.7386
  780MOL0     C 5172   2.040   3.998   1.832 -0.1003 -0.6700 -0.6763
  780MOL0     O 5173   2.018   4.019   1.971  0.0907 -0.0623  0.3519
  780MOL0     C 5174   1.949   3.907   2.037 -1.0553  0.5177 -0.4215
  780MOL0     C 5175   1.822   3.931   2.121 -0.3378 -0.0203 -0.1917
  780MOL0     C 5176   1.700   3.975   2.040 -0.3434  0.9329  0.0935
  780MOL0     C 5177   1.564   3.963   2.116 -0.0393  0.2996 -0.5589
  780MOL0     C 5178   1.457   4.053   2.060 -0.8527  0.5185  0.3573
  780MOL0     C 5179   1.334   4.036   2.147  0.9776 -0.4364 -0.0853
  780MOL0     C 5180   1.337   4.114   2.282 -0.1847  1.2978  0.4500
  780MOL0     C 5181   1.254   4.234   2.271 -0.7345 -0.8082  0.0250
  780MOL0     N 5182   1.112   4.203   2.250 -0.7924 -1.1766  0.5521
  780MOL0     C 5183   1.011   4.285   2.194 -0.6438 -1.0174 -0.3918
  780MOL0     C 5184   0.902   4.210   2.209  0.7834  0.2328 -0.4621
  780MOL0     C 5185   0.765   4.254   2.155 -0.0663 -0.4608 -0.5787
  780MOL0     C 5186   0.673   4.296   2.267 -0.1145  0.2400 -0.3865
  780MOL0     C 5187   0.537   4.347   2.216 -1.1964  0.5238 -0.1566
  780MOL0     C 5188   0.457   4.404   2.324 -0.0581  0.0997  0.2218
  780MOL0     O 5189   0.527   4.515   2.383  1.0071  1.0584 -0.0806
  780MOL0     C 5190   0.458   4.592   2.468 -0.1294 -0.1238  0.8660
  780MOL0     C 5191   0.523   4.704   2.511 -0.3676 -0.4846  1.0589
  780MOL0     C 5192   0.454   4.811   2.582 -0.4286 -0.1710  0.3118
  780MOL0     C 5193   0.536   4.940   2.616 -0.1238 -0.8322 -0.5883
  780MOL0     C 5194   0.318   4.798   2.614  0.0587  0.6269  0.2122
  780MOL0     C 5195   0.230   4.908   2.668 -0.3456  0.9223 -0.6714
  780MOL0     O 5196   0.095   4.866   2.703 -0.4749 -0.6264 -0.8599
  780MOL0     C 5197   0.011   4.966   2.752 -0.4464  0.2520  0.6018
  780MOL0     C 5198  -0.104   5.001   2.677  0.4578 -0.4996 -0.8214
  780MOL0     C 5199  -0.203   5.088   2.739 -1.0246  0.1843  0.2467
  780MOL0     C 5200  -0.185   5.145   2.870 -0.6257 -0.1731  0.2801
  780MOL0     O 5201  -0.275   5.230   2.928  0.8079  0.3786 -0.4816
  780MOL0     C 5202  -0.331   5.347   2.857  0.0681  0.3326  0.1103
  780MOL0     C 5203  -0.476   5.311   2.800 -0.3677  0.1093 -0.5124
  780MOL0     C 5204  -0.551   5.436   2.757  0.6851 -0.6131 -0.5705
  780MOL0     C 5205  -0.687   5.408   2.685  1.1808 -0.4570  0.1902
  780MOL0     C 5206  -0.778   5.522   2.714 -0.7717  0.0184  0.5589
  780MOL0     C 5207  -0.924   5.490   2.684 -0.0217  1.2704 -0.0741
  780MOL0     C 5208  -0.953   5.415   2.560  0.7454  0.2561  0.4401
  780MOL0     C 5209  -0.911   5.489   2.437 -0.2337 -0.5248  0.0856
  780MOL0    Cl 5210  -0.939   5.670   2.442 -0.0021 -0.1006 -0.1137
  780MOL0     C 5211  -0.069   5.106   2.938  0.2576  0.1192  0.6946
  780MOL0     C 5212   0.026   5.017   2.886  0.3288  0.5001 -0.0520
  780MOL0     O 5213   0.276   5.015   2.681  0.5365  0.0684 -1.5102
  780MOL0     C 5214   0.252   4.685   2.572  1.1383 -0.0727  0.2307
  780MOL0     C 5215   0.321   4.590   2.498  0.2435  0.4867  0.3721
  780MOL0     N 5216   0.936   4.085   2.267  0.0343  0.1218  0.4562
  780MOL0     N 5217   1.055   4.087   2.294 -0.2457 -1.1083 -0.3182
  780MOL0     C 5218   1.937   3.949   1.750 -0.3858  0.0337 -0.4983
  780MOL0     C 5219   1.959   3.926   1.617 -0.6563  0.1387 -0.7947
  780MOL0     C 5220   2.235   3.819   1.266  0.0815 -0.7603  1.0605
  780MOL0     C 5221   2.151   3.874   1.166  0.4797 -0.1837  0.9974
  780MOL0     C 5222   2.191   3.861   1.033  0.4037 -1.1722  0.0004
  780MOL0     C 5223   2.309   3.807   0.995 -0.2273  0.0039  0.0458
  780MOL0     O 5224   2.334   3.814   0.862 -0.4920  0.0640  0.5222
  780MOL0     C 5225   2.461   3.782   0.818  0.2904  0.3981 -0.0192
  780MOL0     C 5226   2.475   3.809   0.664 -0.1394 -0.3288  0.5458
  780MOL0     C 5227   2.619   3.777   0.609  0.3782 -0.2331  0.6159
  780MOL0     C 5228   2.711   3.900   0.630 -0.3465  0.3904 -0.4429
  780MOL0     C 5229   2.849   3.865   0.581  0.3010  0.0363 -0.1563
  780MOL0     C 5230   2.962   3.833   0.535 -0.3897  0.6371  1.7410
  780MOL0     C 5231   2.393   3.747   1.093 -0.6137  0.0680 -0.5859
  780MOL0     C 5232   2.350   3.756   1.223  0.7139  1.0555  0.3729
  780MOL0     H 5233   2.268   4.071   1.595  0.7820 -1.3403  0.7603
  780MOL0     H 5234   2.236   4.097   1.829 -1.9181  0.2280  0.9922
  780MOL0     H 5235   1.923   3.820   1.977 -0.7686  0.5384 -0.5749
  780MOL0     H 5236   2.023   3.870   2.110 -0.3856  1.1545 -0.7691
  780MOL0     H 5237   1.799   3.836   2.170 -0.7291 -0.3609 -1.0173
  780MOL0     H 5238   1.825   3.995   2.209  0.3473 -3.1234  2.2245
  780MOL0     H 5239   1.708   4.079   2.006 -0.4159  0.9281  0.0597
  780MOL0     H 5240   1.693   3.905   1.956  1.2764 -0.8730  1.3520
  780MOL0     H 5241   1.531   3.860   2.101  1.8462 -0.5249  0.5865
  780MOL0     H 5242   1.572   3.979   2.224  1.9534  1.5079 -0.8358
  780MOL0     H 5243   1.495   4.155   2.055  0.3973  0.0435 -0.3997
  780MOL0     H 5244   1.438   4.011   1.960  1.7241 -1.2083  0.4831
  780MOL0     H 5245   1.257   4.088   2.089  2.6189  0.8662 -1.1852
  780MOL0     H 5246   1.306   3.933   2.170  0.4894 -0.0098  1.4137
  780MOL0     H 5247   1.308   4.044   2.361 -2.1518 -0.8355 -1.9848
  780MOL0     H 5248   1.440   4.135   2.312  0.1235 -1.6663  1.8335
  780MOL0     H 5249   1.303   4.295   2.195 -0.0906 -0.5624  0.6301
  780MOL0     H 5250   1.252   4.287   2.367 -3.5741 -0.5954 -0.0450
  780MOL0     H 5251   1.019   4.384   2.151 -0.1465 -1.6089 -1.7000
  780MOL0     H 5252   0.784   4.348   2.101  0.1174  1.3709  2.4181
  780MOL0     H 5253   0.713   4.181   2.092  1.3659 -1.4457 -0.6658
  780MOL0     H 5254   0.733   4.362   2.330  0.0630  0.4134 -0.7352
  780MOL0     H 5255   0.649   4.208   2.327 -0.7665  0.0369 -0.9276
  780MOL0     H 5256   0.474   4.265   2.183  1.3198 -1.8122  0.4674
  780MOL0     H 5257   0.558   4.411   2.130 -0.8260 -0.8211 -1.0879
  780MOL0     H 5258   0.437   4.322   2.393 -1.6003 -1.6883 -2.1907
  780MOL0     H 5259   0.356   4.428   2.288 -0.0781  0.7175  0.6834
  780MOL0     H 5260   0.629   4.707   2.485 -0.6529  2.4100 -0.0838
  780MOL0     H 5261   0.488   5.028   2.573  0.3805 -1.7202 -3.0923
  780MOL0     H 5262   0.542   4.959   2.724 -1.2860 -0.7870 -0.5153
  780MOL0     H 5263   0.638   4.923   2.580  0.7269  0.9722  0.8009
  780MOL0     H 5264  -0.120   4.963   2.576 -0.4713 -2.7318  0.1156
  780MOL0     H 5265  -0.297   5.112   2.689 -1.8382  1.1515  2.1393
  780MOL0     H 5266  -0.345   5.428   2.930  1.2005  1.5225 -0.9497
  780MOL0     H 5267  -0.270   5.379   2.773 -0.7258 -1.7682 -1.3256
  780MOL0     H 5268  -0.455   5.239   2.721 -1.2250 -0.8167  0.0758
  780MOL0     H 5269  -0.526   5.252   2.878 -1.5197  2.0855  0.3215
  780MOL0     H 5270  -0.486   5.486   2.684  1.3360 -1.5704 -0.6619
  780MOL0     H 5271  -0.559   5.501   2.844 -1.8246 -1.6517  0.0398
  780MOL0     H 5272  -0.673   5.394   2.578 -2.1361 -1.0269 -0.2516
  780MOL0     H 5273  -0.741   5.324   2.729 -1.3130  0.6018 -0.7097
  780MOL0     H 5274  -0.747   5.600   2.644  2.6216 -1.4966  0.2099
  780MOL0     H 5275  -0.765   5.558   2.817  1.2293  0.2555  0.2596
  780MOL0     H 5276  -0.956   5.419   2.762  1.1504  1.1784  0.3428
  780MOL0     H 5277  -0.965   5.591   2.689  1.8145  2.0682 -0.5214
  780MOL0     H 5278  -1.062   5.412   2.548  0.9171  3.2681 -4.4993
  780MOL0     H 5279  -0.915   5.313   2.572  0.0168 -0.4419 -2.5346
  780MOL0     H 5280  -0.974   5.455   2.354  0.6154  0.6356 -1.0669
  780MOL0     H 5281  -0.807   5.470   2.408 -0.4722 -1.1131 -0.4024
  780MOL0     H 5282  -0.057   5.146   3.039 -2.7833 -1.6646  1.9150
  780MOL0     H 5283   0.111   4.991   2.948  1.8526  0.1136 -2.2074
  780MOL0     H 5284   0.144   4.676   2.572  1.2769 -4.3353 -1.5650
  780MOL0     H 5285   0.256   4.517   2.451  1.5033 -0.3205 -0.1851
  780MOL0     H 5286   1.841   3.924   1.793  0.0951 -1.3205 -0.1519
  780MOL0     H 5287   1.883   3.878   1.556 -0.2998 -0.9456 -0.4115
  780MOL0     H 5288   2.072   3.944   1.191 -1.1738 -1.8484  0.5875
  780MOL0     H 5289   2.125   3.908   0.962  0.2333 -1.1917  0.1459
  780MOL0     H 5290   2.537   3.834   0.875 -0.1357 -0.1842  1.0998
  780MOL0     H 5291   2.474   3.674   0.833 -0.5962  0.7500  4.6516
  780MOL0     H 5292   2.443   3.913   0.652 -0.8951 -0.3488  2.1112
  780MOL0     H 5293   2.403   3.755   0.602 -0.5560  0.8587 -0.0247
  780MOL0     H 5294   2.610   3.761   0.502 -0.2897 -3.2595  1.0298
  780MOL0     H 5295   2.660   3.687   0.656 -0.0517 -0.9091 -0.2871
  780MOL0     H 5296   2.725   3.917   0.737 -0.0419  0.5816 -0.5126
  780MOL0     H 5297   2.670   3.983   0.572 -0.4853  0.1473 -0.6930
  780MOL0     H 5298   3.058   3.798   0.500 -0.2248  0.4509  2.3635
  780MOL0     H 5299   2.493   3.706   1.079 -0.7647 -0.5505  0.0743
  780MOL0     H 5300   2.417   3.713   1.297  3.1204 -0.6000 -2.4919
  781MOL0     O 5301   0.691   9.165   8.896  0.4490 -0.2998 -0.3274
  781MOL0     C 5302   0.733   9.164   8.776  0.7096  0.3332 -1.2043
  781MOL0     O 5303   0.674   9.087   8.669 -0.3122 -0.3762  0.3879
  781MOL0     C 5304   0.558   9.031   8.699 -0.2433 -0.2859 -0.0883
  781MOL0     C 5305   0.544   8.888   8.704 -0.3819  0.3513  0.9683
  781MOL0     C 5306   0.425   8.820   8.733  0.3578 -0.2010 -0.3007
  781MOL0     C 5307   0.313   8.891   8.768 -0.6282  0.1072  0.1266
  781MOL0     O 5308   0.199   8.820   8.808 -0.2059  0.0857  0.0702
  781MOL0     C 5309   0.078   8.896   8.820 -0.3037 -0.1041 -0.3589
  781MOL0     C 5310  -0.027   8.808   8.883  0.4949  0.6379  0.1254
  781MOL0     C 5311  -0.168   8.862   8.886 -0.1866  1.3029 -0.9267
  781MOL0     C 5312  -0.260   8.769   8.969 -0.1280  0.4849  0.0697
  781MOL0     C 5313  -0.401   8.824   8.972 -0.1450  0.0859 -0.1843
  781MOL0     C 5314  -0.425   8.914   9.093 -0.4414 -0.5654 -0.2986
  781MOL0     C 5315  -0.563   8.902   9.164  0.1987 -0.4455 -0.6608
  781MOL0     C 5316  -0.668   8.965   9.070 -0.9392 -0.0527 -0.0838
  781MOL0     N 5317  -0.804   8.962   9.136 -0.1248  0.7610  0.3317
  781MOL0     C 5318  -0.904   9.039   9.100  0.1677 -0.2539  1.4988
  781MOL0     C 5319  -1.025   8.984   9.134 -0.9502 -0.7810 -0.0960
  781MOL0     C 5320  -1.162   9.037   9.111 -0.4119  0.3077 -0.6001
  781MOL0     C 5321  -1.180   9.170   9.176  0.5097 -1.1911  0.1474
  781MOL0     C 5322  -1.307   9.238   9.130  0.5630  0.7960  0.2189
  781MOL0     C 5323  -1.441   9.160   9.165  0.2378 -0.3789 -0.0253
  781MOL0     O 5324  -1.527   9.137   9.054 -0.1333  0.1901 -0.4880
  781MOL0     C 5325  -1.657   9.094   9.074 -0.4330  0.5942 -0.1061
  781MOL0     C 5326  -1.709   9.069   9.200  0.4581  0.7560  0.5189
  781MOL0     C 5327  -1.848   9.043   9.212 -0.1911 -0.1054 -0.0477
  781MOL0     C 5328  -1.901   9.045   9.352  0.4983  0.6763 -1.0797
  781MOL0     C 5329  -1.922   9.031   9.095  0.2902  0.2271 -0.2836
  781MOL0     C 5330  -2.063   8.984   9.094 -0.1524  0.3041  0.4627
  781MOL0     O 5331  -2.144   9.036   8.998 -0.0310  0.5519  0.2268
  781MOL0     C 5332  -2.276   8.985   8.979 -0.6872 -0.0284  1.0772
  781MOL0     C 5333  -2.378   9.069   9.009 -0.8743  0.0517 -0.0301
  781MOL0     C 5334  -2.507   9.015   9.018  0.0330 -0.7305  0.1128
  781MOL0     C 5335  -2.537   8.880   8.991  0.0786 -0.4871  0.0607
  781MOL0     O 5336  -2.661   8.825   9.012 -0.2279  0.0255  0.5893
  781MOL0     C 5337  -2.767   8.895   8.958  0.2961  0.1280  0.1502
  781MOL0     C 5338  -2.882   8.793   8.940 -0.3568  1.5921 -0.5813
  781MOL0     C 5339  -2.916   8.725   9.078 -0.1081 -0.3789  1.1056
  781MOL0     C 5340  -3.036   8.636   9.062  0.0831  0.0210  0.7076
  781MOL0     C 5341  -3.094   8.578   9.192  0.5084  0.0995 -0.6840
  781MOL0     C 5342  -3.159   8.698   9.275  0.2200 -0.2124  0.0762
  781MOL0     C 5343  -3.157   8.664   9.425 -0.1787  0.0408  0.4005
  781MOL0     C 5344  -3.210   8.770   9.514  0.2412  0.2510  0.3663
  781MOL0    Cl 5345  -3.111   8.922   9.506 -0.0911  0.0445 -0.2896
  781MOL0     C 5346  -2.422   8.797   8.968  0.8765 -0.4118  0.0970
  781MOL0     C 5347  -2.297   8.850   8.960  0.1650  0.7493  0.0173
  781MOL0     O 5348  -2.097   8.916   9.195 -0.2768  0.3595  0.3141
  781MOL0     C 5349  -1.861   9.051   8.968  0.1764  0.3784  0.0718
  781MOL0     C 5350  -1.728   9.086   8.952  1.1316 -0.1938 -0.5608
  781MOL0     N 5351  -0.991   8.884   9.222 -0.2326  0.6376  0.7974
  781MOL0     N 5352  -0.863   8.874   9.228  0.5570  0.1731  0.3108
  781MOL0     C 5353   0.322   9.035   8.761 -0.0804 -0.1745  0.1382
  781MOL0     C 5354   0.440   9.102   8.716  0.6813 -0.3506 -1.0096
  781MOL0     C 5355   0.857   9.244   8.740 -0.3660  0.5704  0.1109
  781MOL0     C 5356   0.903   9.257   8.602  0.7112 -0.3395 -0.7859
  781MOL0     C 5357   1.010   9.341   8.573  0.2422  0.2607 -0.2818
  781MOL0     C 5358   1.079   9.408   8.673  0.1400 -0.1286  0.1623
  781MOL0     O 5359   1.192   9.477   8.635 -0.0184  0.5166  0.2144
  781MOL0     C 5360   1.298   9.473   8.732  0.6034 -0.0684  0.0699
  781MOL0     C 5361   1.339   9.336   8.772 -0.8925  0.5335  0.2422
  781MOL0     C 5362   1.390   9.238   8.677  1.5169  0.1147  0.1997
  781MOL0     C 5363   1.546   9.233   8.682  0.2287 -0.1496 -0.7238
  781MOL0     C 5364   1.612   9.340   8.611  0.5419  0.2953  0.3701
  781MOL0     C 5365   1.662   9.426   8.542 -0.3993 -0.4353  0.1140
  781MOL0     C 5366   1.037   9.394   8.805 -0.1017 -0.4895 -0.9927
  781MOL0     C 5367   0.925   9.312   8.841 -1.0461  0.5528  1.2825
  781MOL0     H 5368   0.635   8.841   8.668 -0.8569  0.4895 -0.4854
  781MOL0     H 5369   0.415   8.714   8.712 -0.9288  0.1902 -1.9145
  781MOL0     H 5370   0.097   8.986   8.879 -0.4146  1.5735 -2.7420
  781MOL0     H 5371   0.047   8.925   8.719  1.2788 -0.2471 -0.9080
  781MOL0     H 5372  -0.037   8.724   8.814  3.1788 -0.0770  0.5009
  781MOL0     H 5373   0.007   8.766   8.978 -1.8003 -0.1785  0.6327
  781MOL0     H 5374  -0.169   8.964   8.924 -3.1402  1.1095 -0.1769
  781MOL0     H 5375  -0.205   8.875   8.784 -0.2185  0.2711 -1.0600
  781MOL0     H 5376  -0.284   8.680   8.911  2.4777 -0.2539 -0.0044
  781MOL0     H 5377  -0.224   8.737   9.067  2.3876 -0.8555 -1.2109
  781MOL0     H 5378  -0.414   8.889   8.885  1.3835  0.8337  0.1213
  781MOL0     H 5379  -0.479   8.746   8.968 -2.2362  2.0844 -0.4750
  781MOL0     H 5380  -0.354   8.900   9.175  0.2132 -1.1350 -0.9479
  781MOL0     H 5381  -0.410   9.021   9.074  1.4491 -0.7218  0.1934
  781MOL0     H 5382  -0.573   8.795   9.183  0.3354 -0.4526 -0.6276
  781MOL0     H 5383  -0.563   8.961   9.256  1.9878 -0.1898 -0.7930
  781MOL0     H 5384  -0.665   8.923   8.969  1.6053  0.1117 -0.1357
  781MOL0     H 5385  -0.642   9.072   9.068 -2.3419  0.3155  0.0830
  781MOL0     H 5386  -0.894   9.127   9.037 -0.5168 -0.7279  0.7132
  781MOL0     H 5387  -1.189   9.034   9.005 -2.1482 -0.6017 -0.1641
  781MOL0     H 5388  -1.221   8.963   9.167  1.8332 -0.3957  0.9823
  781MOL0     H 5389  -1.097   9.229   9.136  0.7364 -2.3213 -1.1154
  781MOL0     H 5390  -1.168   9.160   9.285  0.6193  0.8038  0.3558
  781MOL0     H 5391  -1.292   9.248   9.022 -0.0724 -0.8648 -0.0644
  781MOL0     H 5392  -1.324   9.338   9.169 -0.6731  1.0434 -0.8618
  781MOL0     H 5393  -1.488   9.219   9.244 -2.3916 -1.3663 -0.7566
  781MOL0     H 5394  -1.408   9.064   9.206  1.7120 -0.1265 -0.5660
  781MOL0     H 5395  -1.647   9.098   9.284  0.6660 -0.1578  0.6981
  781MOL0     H 5396  -1.900   8.944   9.394  0.4908  0.8229 -0.7264
  781MOL0     H 5397  -1.826   9.100   9.408 -0.0485 -0.5714  0.9579
  781MOL0     H 5398  -1.996   9.100   9.360  0.9873  1.2729  1.1691
  781MOL0     H 5399  -2.348   9.171   9.033  3.7644 -0.9008 -0.8423
  781MOL0     H 5400  -2.585   9.075   9.065  0.4928 -1.2600  1.6035
  781MOL0     H 5401  -2.793   8.978   9.025  3.1436 -1.6015  3.7752
  781MOL0     H 5402  -2.730   8.941   8.866  1.6362  0.1009  0.6542
  781MOL0     H 5403  -2.963   8.857   8.906 -1.6959  0.6319  0.6538
  781MOL0     H 5404  -2.856   8.715   8.868  0.7266 -1.5084  2.8044
  781MOL0     H 5405  -2.934   8.806   9.148  1.0200  0.5159  0.4029
  781MOL0     H 5406  -2.837   8.658   9.113 -0.2305 -0.5167  1.1185
  781MOL0     H 5407  -3.105   8.690   8.998 -1.0973 -2.2027  0.0099
  781MOL0     H 5408  -3.009   8.551   8.998 -1.0654  0.7190 -0.7615
  781MOL0     H 5409  -3.016   8.536   9.256  1.1251  1.0098 -0.8169
  781MOL0     H 5410  -3.161   8.494   9.177  2.5220 -1.5944 -0.6736
  781MOL0     H 5411  -3.111   8.794   9.256 -1.1332  0.2536 -1.1097
  781MOL0     H 5412  -3.263   8.724   9.254 -0.3885 -2.4143  0.0702
  781MOL0     H 5413  -3.054   8.641   9.453 -0.0834  1.9787  1.8545
  781MOL0     H 5414  -3.222   8.577   9.443 -1.2382 -0.2093 -3.6967
  781MOL0     H 5415  -3.184   8.742   9.617 -0.2517  0.9460  0.6906
  781MOL0     H 5416  -3.319   8.780   9.506 -0.1182 -2.3199  0.9959
  781MOL0     H 5417  -2.444   8.691   8.969 -1.7808  0.0596 -0.6137
  781MOL0     H 5418  -2.210   8.787   8.951  3.0602  4.1877  1.6188
  781MOL0     H 5419  -1.922   9.044   8.879  1.2813  0.8875 -0.7524
  781MOL0     H 5420  -1.678   9.104   8.857  0.3815 -0.6768 -1.0577
  781MOL0     H 5421   0.238   9.103   8.777 -1.3831 -1.0447 -2.4710
  781MOL0     H 5422   0.442   9.209   8.728 -1.1324 -0.4250  0.4291
  781MOL0     H 5423   0.855   9.216   8.513 -1.2510  1.2077 -0.5165
  781MOL0     H 5424   1.036   9.344   8.468 -0.5596  0.7918 -0.4756
  781MOL0     H 5425   1.384   9.513   8.677  0.2495 -0.6357 -0.9184
  781MOL0     H 5426   1.276   9.537   8.819  1.5678 -0.6528  0.7621
  781MOL0     H 5427   1.253   9.282   8.812 -1.1655 -0.2742 -1.3236
  781MOL0     H 5428   1.415   9.350   8.850 -1.0489 -1.3829  0.7920
  781MOL0     H 5429   1.360   9.258   8.574 -0.3361  1.4776  0.9470
  781MOL0     H 5430   1.343   9.140   8.693 -0.3142  1.0866  1.2392
  781MOL0     H 5431   1.583   9.137   8.644 -0.4385 -1.6202  2.0834
  781MOL0     H 5432   1.570   9.238   8.788 -0.8636  0.2704 -0.4767
  781MOL0     H 5433   1.687   9.506   8.476 -2.0577  0.1339  0.1076
  781MOL0     H 5434   1.088   9.434   8.892 -1.6511  0.8187 -0.6409
  781MOL0     H 5435   0.907   9.289   8.945  1.0997  2.0845  2.0559
  782MOL0     O 5436   7.937   0.491   5.861 -0.1006  0.2641 -0.5715
  782MOL0     C 5437   7.998   0.509   5.967  0.4552 -0.3193  0.6964
  782MOL0     O 5438   7.950   0.493   6.086 -0.4145 -0.7223  0.1275
  782MOL0     C 5439   7.828   0.435   6.092  0.3621  0.7065 -0.0371
  782MOL0     C 5440   7.704   0.499   6.073  0.0487  0.5526  0.2863
  782MOL0     C 5441   7.580   0.441   6.118  0.2252 -1.3384 -0.0523
  782MOL0     C 5442   7.580   0.315   6.175 -0.4719 -1.0817 -0.0029
  782MOL0     O 5443   7.480   0.260   6.247  0.3004  0.7582 -0.1526
  782MOL0     C 5444   7.354   0.331   6.258  0.0389  0.2593 -0.3144
  782MOL0     C 5445   7.254   0.239   6.318 -0.2086  0.7812  0.3851
  782MOL0     C 5446   7.216   0.112   6.224 -0.2227 -1.0296 -0.5123
  782MOL0     C 5447   7.105   0.028   6.291 -0.3257 -0.7181  0.5509
  782MOL0     C 5448   7.068  -0.083   6.189 -1.2038  0.7885  0.1555
  782MOL0     C 5449   6.969  -0.183   6.249 -0.0003  0.1755 -0.3330
  782MOL0     C 5450   7.039  -0.276   6.354  0.4565  0.3952 -0.9936
  782MOL0     C 5451   7.162  -0.349   6.293  0.1287 -0.3244 -0.1072
  782MOL0     N 5452   7.288  -0.281   6.316 -0.2476 -0.7245 -0.2289
  782MOL0     C 5453   7.381  -0.250   6.218  0.0832  0.1382 -0.4108
  782MOL0     C 5454   7.490  -0.207   6.287 -0.8480 -0.0278  1.0416
  782MOL0     C 5455   7.623  -0.175   6.215 -1.7405 -0.4019 -0.2194
  782MOL0     C 5456   7.737  -0.134   6.310 -0.4205 -0.1580 -0.0812
  782MOL0     C 5457   7.878  -0.149   6.248  0.1935  0.0199  0.3603
  782MOL0     C 5458   7.991  -0.109   6.344  0.1879  0.3617  0.4104
  782MOL0     O 5459   7.981   0.032   6.393  0.5965 -0.6067 -0.4544
  782MOL0     C 5460   8.094   0.111   6.378  0.4030 -0.0119  0.5727
  782MOL0     C 5461   8.084   0.251   6.407 -0.6001 -0.5057  1.7191
  782MOL0     C 5462   8.188   0.336   6.419  0.2218 -0.3475  0.4564
  782MOL0     C 5463   8.148   0.480   6.427 -0.2668  0.3064  0.9535
  782MOL0     C 5464   8.320   0.283   6.395  0.3322 -0.1557  0.1007
  782MOL0     C 5465   8.441   0.372   6.389  0.1860 -0.1531  0.0864
  782MOL0     O 5466   8.444   0.468   6.480  0.1682 -0.1997  0.0384
  782MOL0     C 5467   8.560   0.538   6.492 -0.1196  0.2608 -0.3604
  782MOL0     C 5468   8.661   0.505   6.586 -0.1073  0.8770  0.5605
  782MOL0     C 5469   8.787   0.567   6.589 -0.1017 -0.7424  0.0079
  782MOL0     C 5470   8.810   0.677   6.496 -0.3651  0.8777  0.1250
  782MOL0     O 5471   8.919   0.757   6.512  0.0160 -0.0426 -0.2449
  782MOL0     C 5472   9.047   0.705   6.553 -0.0374  1.1720 -0.6770
  782MOL0     C 5473   9.137   0.706   6.431  0.2443  1.0349  0.5082
  782MOL0     C 5474   9.205   0.840   6.410  0.8880 -1.0377 -0.4097
  782MOL0     C 5475   9.330   0.863   6.497 -0.0219 -0.5723 -0.9158
  782MOL0     C 5476   9.398   0.996   6.469  0.2473  0.0828 -0.1344
  782MOL0     C 5477   9.509   1.038   6.562  0.0021  0.9370  0.1245
  782MOL0     C 5478   9.619   0.925   6.597  0.4158  0.1747  0.7421
  782MOL0     C 5479   9.720   0.953   6.712  0.4817 -0.5237  0.4783
  782MOL0    Cl 5480   9.820   1.100   6.680 -0.0774  0.0519 -0.0415
  782MOL0     C 5481   8.707   0.705   6.405 -0.0613 -0.0943  0.9592
  782MOL0     C 5482   8.582   0.642   6.404 -0.6023  0.3911  0.0380
  782MOL0     O 5483   8.527   0.341   6.312 -0.3296  0.8623 -0.4414
  782MOL0     C 5484   8.339   0.147   6.370 -0.0448 -0.6536  0.1570
  782MOL0     C 5485   8.230   0.062   6.368 -0.2938 -0.6750 -0.3393
  782MOL0     N 5486   7.464  -0.210   6.423  0.4128  0.4253 -0.7365
  782MOL0     N 5487   7.344  -0.255   6.437 -0.3080 -0.2375 -0.4568
  782MOL0     C 5488   7.700   0.253   6.197  0.6991  0.2543 -0.6657
  782MOL0     C 5489   7.816   0.307   6.149 -0.2117 -0.4489 -0.8187
  782MOL0     C 5490   8.134   0.556   5.952  0.6458 -0.4074  0.2572
  782MOL0     C 5491   8.229   0.540   6.059 -0.9741 -1.1283  0.2047
  782MOL0     C 5492   8.351   0.609   6.064 -0.7866  0.6013  0.6321
  782MOL0     C 5493   8.395   0.679   5.952  0.1095  0.5673  0.2421
  782MOL0     O 5494   8.513   0.745   5.940 -0.0119  0.9377  1.0273
  782MOL0     C 5495   8.604   0.771   6.042  0.1001 -0.8943  0.3292
  782MOL0     C 5496   8.723   0.857   5.992  0.0182 -0.5412 -0.3416
  782MOL0     C 5497   8.803   0.782   5.881  0.1700 -0.5027 -0.1782
  782MOL0     C 5498   8.915   0.870   5.819 -0.6487  0.2888  0.2590
  782MOL0     C 5499   9.021   0.893   5.920 -0.3014  0.1295  0.1144
  782MOL0     C 5500   9.110   0.889   6.004 -0.6472 -0.4460  0.2166
  782MOL0     C 5501   8.318   0.685   5.837  0.5351  0.0528  0.2970
  782MOL0     C 5502   8.182   0.625   5.831 -0.3022  0.5117 -0.6030
  782MOL0     H 5503   7.712   0.602   6.040  2.5252  0.6021  0.8676
  782MOL0     H 5504   7.493   0.503   6.100  1.6529  0.2289 -2.0164
  782MOL0     H 5505   7.356   0.420   6.321 -3.6605  1.8169 -2.0847
  782MOL0     H 5506   7.320   0.353   6.156 -0.6142  1.0382  0.0653
  782MOL0     H 5507   7.292   0.189   6.407 -0.6360  1.8895  1.2278
  782MOL0     H 5508   7.164   0.293   6.352 -0.9748  0.1508 -0.5872
  782MOL0     H 5509   7.192   0.153   6.126  2.3642  0.2467 -0.7109
  782MOL0     H 5510   7.302   0.045   6.219 -2.7157 -4.3786 -1.4573
  782MOL0     H 5511   7.153  -0.008   6.383  0.9706  2.7586  1.4199
  782MOL0     H 5512   7.015   0.089   6.303 -2.3994 -3.3327 -0.8887
  782MOL0     H 5513   7.021  -0.042   6.100 -0.5505 -1.0042 -1.0765
  782MOL0     H 5514   7.153  -0.139   6.149 -1.9551 -2.2493  2.3952
  782MOL0     H 5515   6.896  -0.122   6.302  1.5256 -0.0355  2.1847
  782MOL0     H 5516   6.929  -0.254   6.176 -1.6874 -1.9355  2.4290
  782MOL0     H 5517   7.074  -0.212   6.436  0.8150  1.9559 -2.3098
  782MOL0     H 5518   6.966  -0.348   6.392 -0.5682  2.5620  1.4485
  782MOL0     H 5519   7.142  -0.362   6.186  1.1100 -1.3693 -0.1875
  782MOL0     H 5520   7.168  -0.445   6.346 -0.8593  1.3150  3.2857
  782MOL0     H 5521   7.375  -0.273   6.112  1.2881 -1.8820 -0.1018
  782MOL0     H 5522   7.651  -0.259   6.152 -0.1081 -1.4122  1.7671
  782MOL0     H 5523   7.619  -0.087   6.149  2.3186  0.1214 -0.0052
  782MOL0     H 5524   7.735  -0.194   6.401  1.9991  0.2216  0.2736
  782MOL0     H 5525   7.724  -0.027   6.333  1.0950 -0.0903  0.5227
  782MOL0     H 5526   7.878  -0.088   6.157 -1.3306 -0.5689 -0.0616
  782MOL0     H 5527   7.900  -0.255   6.229  1.4867  0.2460  0.4745
  782MOL0     H 5528   8.088  -0.128   6.299  0.4940  1.8043  0.4174
  782MOL0     H 5529   7.984  -0.173   6.432  0.4789  1.5979  1.3532
  782MOL0     H 5530   7.980   0.280   6.419 -0.3645  0.7727  0.9208
  782MOL0     H 5531   8.225   0.551   6.394 -0.5823  0.6027  0.8441
  782MOL0     H 5532   8.069   0.504   6.355  0.5569 -1.5962 -0.6645
  782MOL0     H 5533   8.114   0.503   6.529  0.9106  0.9552  1.2204
  782MOL0     H 5534   8.639   0.432   6.663 -0.8319  0.1715 -0.2885
  782MOL0     H 5535   8.851   0.544   6.673 -0.3947  1.2714  0.8375
  782MOL0     H 5536   9.087   0.774   6.628  0.9213 -0.2834  0.1966
  782MOL0     H 5537   9.035   0.606   6.597 -2.8644  1.1352 -1.3419
  782MOL0     H 5538   9.216   0.631   6.446  1.5500  1.9359 -1.4249
  782MOL0     H 5539   9.089   0.685   6.335 -0.4009  0.4066  0.9670
  782MOL0     H 5540   9.131   0.915   6.441  1.1277 -0.0441 -2.1339
  782MOL0     H 5541   9.232   0.850   6.305 -0.5644  2.0791 -0.5934
  782MOL0     H 5542   9.302   0.872   6.603  0.3658 -0.7766 -0.7947
  782MOL0     H 5543   9.406   0.785   6.487  0.4536 -0.1122 -0.9274
  782MOL0     H 5544   9.335   1.085   6.475  0.2737  0.0307  1.2975
  782MOL0     H 5545   9.437   0.996   6.366 -1.1259 -1.1565 -0.6807
  782MOL0     H 5546   9.561   1.123   6.517  0.2540 -0.1009 -1.6449
  782MOL0     H 5547   9.466   1.080   6.653  1.2707 -0.5756  1.4834
  782MOL0     H 5548   9.675   0.914   6.504 -1.4214  2.3423 -0.7242
  782MOL0     H 5549   9.568   0.835   6.634  1.1196 -0.6009 -0.1338
  782MOL0     H 5550   9.780   0.862   6.715 -1.5711 -2.1290 -2.3240
  782MOL0     H 5551   9.669   0.967   6.808 -0.9268 -5.1333  0.6169
  782MOL0     H 5552   8.733   0.794   6.349  2.6880 -0.5032  1.4349
  782MOL0     H 5553   8.510   0.673   6.328  0.2268  1.3620 -0.3816
  782MOL0     H 5554   8.436   0.103   6.349  0.3998 -0.0682  0.9490
  782MOL0     H 5555   8.253  -0.043   6.372 -3.6203 -1.5037  2.2348
  782MOL0     H 5556   7.695   0.163   6.257  0.3684 -0.7422 -2.1203
  782MOL0     H 5557   7.906   0.250   6.168  1.4545  1.5882 -1.9970
  782MOL0     H 5558   8.200   0.498   6.155  2.6928 -0.3321  1.8432
  782MOL0     H 5559   8.402   0.581   6.155  1.5205  0.3332 -0.6887
  782MOL0     H 5560   8.558   0.810   6.134 -1.3631  0.3579 -0.8749
  782MOL0     H 5561   8.646   0.678   6.080  0.2694 -0.0172  2.4622
  782MOL0     H 5562   8.775   0.877   6.085 -1.3838 -1.8255  0.7774
  782MOL0     H 5563   8.687   0.950   5.947 -2.4934 -2.3455 -2.3850
  782MOL0     H 5564   8.733   0.760   5.799 -1.5516 -4.1161  2.0170
  782MOL0     H 5565   8.850   0.692   5.921  1.7867 -1.1063 -3.0911
  782MOL0     H 5566   8.864   0.957   5.776 -1.3584  0.4171  1.3204
  782MOL0     H 5567   8.965   0.821   5.736 -1.5058 -0.6508  0.2742
  782MOL0     H 5568   9.184   0.867   6.078  0.8248 -0.4824 -1.2018
  782MOL0     H 5569   8.358   0.743   5.754 -1.5841  2.4030  0.7919
  782MOL0     H 5570   8.106   0.626   5.754 -1.4240  1.0378  0.4758
  783MOL0     O 5571   4.418   1.741  10.616 -0.3246 -0.1441  1.0966
  783MOL0     C 5572   4.506   1.724  10.700 -0.3499 -0.6034 -0.9176
  783MOL0     O 5573   4.484   1.679  10.822 -0.4566  1.0815 -0.0136
  783MOL0     C 5574   4.354   1.648  10.854 -0.3688 -0.1864  0.0363
  783MOL0     C 5575   4.274   1.563  10.783 -0.0710  0.1234 -0.0849
  783MOL0     C 5576   4.152   1.529  10.838 -0.0845 -0.4002  0.4851
  783MOL0     C 5577   4.100   1.584  10.960 -0.3268 -0.6340 -0.2837
  783MOL0     O 5578   3.970   1.567  10.991  0.3340 -0.2449  0.1479
  783MOL0     C 5579   3.908   1.652  11.080 -0.0319  0.1213  0.2437
  783MOL0     C 5580   3.765   1.603  11.067  0.0015  0.3568  0.0349
  783MOL0     C 5581   3.675   1.669  11.173  0.2213  0.7455 -0.1988
  783MOL0     C 5582   3.524   1.637  11.136 -0.4135  0.0544 -0.5498
  783MOL0     C 5583   3.425   1.718  11.209  0.0637 -0.5504 -0.2741
  783MOL0     C 5584   3.296   1.736  11.114  0.1792  0.1649  0.2091
  783MOL0     C 5585   3.174   1.741  11.201  0.0364  0.8184 -1.0856
  783MOL0     C 5586   3.165   1.877  11.282  0.0363 -0.5827 -0.2017
  783MOL0     N 5587   3.161   1.861  11.437  0.4782 -0.8963  0.3679
  783MOL0     C 5588   3.275   1.856  11.514  0.2079  0.4300 -1.2727
  783MOL0     C 5589   3.229   1.808  11.637 -0.3376  0.8747 -0.4589
  783MOL0     C 5590   3.311   1.769  11.756 -0.2346  0.0072  0.5888
  783MOL0     C 5591   3.355   1.889  11.842 -0.3060  0.5679  0.1481
  783MOL0     C 5592   3.234   1.967  11.898 -0.1117 -0.7074  0.3881
  783MOL0     C 5593   3.203   1.922  12.037  0.1672  0.5388  0.2271
  783MOL0     O 5594   3.122   2.024  12.096 -0.1782  1.3234 -0.5553
  783MOL0     C 5595   2.989   2.043  12.071 -0.7229 -0.7204 -0.1139
  783MOL0     C 5596   2.940   2.164  12.111  0.5392  0.4049  0.2182
  783MOL0     C 5597   2.822   2.212  12.070  0.2891  1.1151 -0.0335
  783MOL0     C 5598   2.807   2.361  12.096 -0.7557 -0.6860  0.2337
  783MOL0     C 5599   2.727   2.120  12.005  0.0557 -0.8853 -0.3142
  783MOL0     C 5600   2.586   2.159  11.962 -0.2492  0.2686  0.2925
  783MOL0     O 5601   2.513   2.068  11.889  0.4770  0.2038 -0.4982
  783MOL0     C 5602   2.388   2.103  11.836  0.5173 -0.6881  0.2230
  783MOL0     C 5603   2.369   2.099  11.698 -0.0182 -0.1038  0.4730
  783MOL0     C 5604   2.251   2.136  11.640  0.7348 -0.1958  0.4314
  783MOL0     C 5605   2.135   2.171  11.719 -0.6544  0.0659  0.0159
  783MOL0     O 5606   2.009   2.212  11.690 -0.1488 -0.1543  0.8371
  783MOL0     C 5607   1.966   2.191  11.562 -0.9048 -0.1443 -0.0515
  783MOL0     C 5608   1.821   2.223  11.541 -0.1726  0.5577 -0.3835
  783MOL0     C 5609   1.721   2.142  11.625 -0.4024 -0.2390  0.3683
  783MOL0     C 5610   1.583   2.215  11.606  0.4945  0.9002 -0.4169
  783MOL0     C 5611   1.470   2.144  11.676  0.5027 -0.5452 -0.5064
  783MOL0     C 5612   1.361   2.249  11.702 -0.8809 -0.1255 -0.8566
  783MOL0     C 5613   1.241   2.194  11.782 -0.1926 -0.3182  0.5535
  783MOL0     C 5614   1.142   2.309  11.798 -0.5583  0.2298 -0.5851
  783MOL0    Cl 5615   1.207   2.451  11.895  0.0342  0.0763 -0.3041
  783MOL0     C 5616   2.150   2.172  11.858  0.7066  0.9096  0.4250
  783MOL0     C 5617   2.278   2.144  11.912 -0.0466 -0.7186 -0.7918
  783MOL0     O 5618   2.543   2.262  12.016  0.3987 -0.3374  0.1850
  783MOL0     C 5619   2.777   1.992  11.964 -0.2767  0.4374 -0.1115
  783MOL0     C 5620   2.905   1.954  12.004 -0.2529 -0.4718 -0.5995
  783MOL0     N 5621   3.091   1.778  11.623 -0.0494 -0.0231  0.4133
  783MOL0     N 5622   3.052   1.817  11.503 -0.2813 -0.3622  0.2301
  783MOL0     C 5623   4.196   1.654  11.036 -0.5612  0.4609  0.2288
  783MOL0     C 5624   4.322   1.686  10.986  0.2425 -0.0888  0.3712
  783MOL0     C 5625   4.647   1.755  10.660  0.3916 -0.9647  0.0996
  783MOL0     C 5626   4.750   1.767  10.757  0.6939 -0.0624 -0.0287
  783MOL0     C 5627   4.881   1.790  10.726 -0.7085  0.5023  1.0251
  783MOL0     C 5628   4.911   1.807  10.595  0.0212  0.5451 -0.3604
  783MOL0     O 5629   5.038   1.836  10.541 -0.1225  0.3927  0.1837
  783MOL0     C 5630   5.151   1.819  10.624  0.2988  0.6709 -0.5700
  783MOL0     C 5631   5.272   1.845  10.538  0.3653 -0.0471 -0.1373
  783MOL0     C 5632   5.400   1.833  10.624 -0.7658 -0.2060 -0.3031
  783MOL0     C 5633   5.532   1.860  10.537  1.3211  0.3329  0.0824
  783MOL0     C 5634   5.567   1.747  10.451  0.4009  0.5132  0.6236
  783MOL0     C 5635   5.598   1.651  10.383  1.2405 -0.1504  0.7008
  783MOL0     C 5636   4.816   1.798  10.493 -0.1580  0.4981 -0.1229
  783MOL0     C 5637   4.679   1.771  10.526  0.5789  0.2982 -0.0423
  783MOL0     H 5638   4.291   1.525  10.683 -1.9034 -1.9787  0.3147
  783MOL0     H 5639   4.079   1.469  10.784  1.4210 -1.6582 -0.2349
  783MOL0     H 5640   3.952   1.639  11.179  1.0676 -0.1222 -0.2501
  783MOL0     H 5641   3.918   1.751  11.034 -0.0130 -1.3701 -3.2571
  783MOL0     H 5642   3.720   1.628  10.970 -0.5999  2.0422  0.7062
  783MOL0     H 5643   3.757   1.496  11.090  0.4297 -0.0434 -1.5970
  783MOL0     H 5644   3.695   1.628  11.272  1.5423 -3.4285 -1.9560
  783MOL0     H 5645   3.688   1.777  11.179  4.6133  0.3224  1.1185
  783MOL0     H 5646   3.531   1.656  11.028  3.1842 -0.1687 -0.4702
  783MOL0     H 5647   3.503   1.532  11.161 -0.3121  0.5364  1.7087
  783MOL0     H 5648   3.389   1.676  11.304 -1.2384 -1.6871 -1.2198
  783MOL0     H 5649   3.455   1.821  11.227 -2.5840 -0.1926  3.0480
  783MOL0     H 5650   3.303   1.819  11.044 -0.0958 -0.5677 -0.7018
  783MOL0     H 5651   3.292   1.647  11.050 -0.2386 -0.6266  1.3008
  783MOL0     H 5652   3.087   1.718  11.140  1.2887 -0.5152 -2.4550
  783MOL0     H 5653   3.186   1.662  11.277  0.0150  2.9286  1.2359
  783MOL0     H 5654   3.077   1.927  11.240  1.3087  2.0681  0.0583
  783MOL0     H 5655   3.248   1.946  11.262 -2.3014  2.3472 -0.5336
  783MOL0     H 5656   3.374   1.880  11.475  1.4979 -0.3430  1.3022
  783MOL0     H 5657   3.246   1.706  11.816 -1.7417  0.8483 -0.0999
  783MOL0     H 5658   3.400   1.711  11.731 -0.6832  0.0870 -1.4328
  783MOL0     H 5659   3.418   1.953  11.780  2.1912 -0.1466  1.8019
  783MOL0     H 5660   3.427   1.856  11.918 -1.0524  0.0127  0.6229
  783MOL0     H 5661   3.152   1.954  11.826 -1.0079 -0.8482  1.3968
  783MOL0     H 5662   3.258   2.073  11.903 -3.7586  0.3928 -1.3451
  783MOL0     H 5663   3.293   1.921  12.099 -1.1063 -0.8141  2.1932
  783MOL0     H 5664   3.163   1.820  12.029  2.8188 -0.9149  3.3091
  783MOL0     H 5665   3.008   2.225  12.170  0.7755  1.8930 -1.5042
  783MOL0     H 5666   2.757   2.407  12.011  2.8049  0.5222 -1.4279
  783MOL0     H 5667   2.755   2.370  12.192  0.6684  1.3867  0.8880
  783MOL0     H 5668   2.901   2.417  12.104 -0.9093 -0.4353  0.2838
  783MOL0     H 5669   2.452   2.084  11.630  1.4080 -0.2339  2.1723
  783MOL0     H 5670   2.242   2.144  11.532  1.9578 -0.7920  0.2711
  783MOL0     H 5671   2.020   2.246  11.485 -2.0095 -0.1080 -0.8165
  783MOL0     H 5672   1.980   2.085  11.539 -1.6493 -0.2993  0.1810
  783MOL0     H 5673   1.803   2.330  11.555 -5.1029 -0.1531  0.3546
  783MOL0     H 5674   1.806   2.197  11.436  0.8385 -1.5853 -0.0555
  783MOL0     H 5675   1.743   2.143  11.732 -1.0439  0.1825  0.5032
  783MOL0     H 5676   1.704   2.040  11.589  0.4960 -0.2932  0.0916
  783MOL0     H 5677   1.597   2.310  11.658 -1.5747  0.3036  1.3463
  783MOL0     H 5678   1.567   2.236  11.499  1.5006  1.5942 -0.4465
  783MOL0     H 5679   1.490   2.103  11.775  1.2888  3.2820  1.1104
  783MOL0     H 5680   1.429   2.064  11.613 -1.8884  0.0815  0.1740
  783MOL0     H 5681   1.417   2.331  11.747  1.6723 -2.0004 -0.4057
  783MOL0     H 5682   1.324   2.289  11.607  0.9525 -1.0806 -2.0243
  783MOL0     H 5683   1.276   2.163  11.881  1.2026  2.4406  1.0338
  783MOL0     H 5684   1.192   2.112  11.729  0.1431 -0.7195  0.8600
  783MOL0     H 5685   1.057   2.270  11.854  0.0050 -2.9085 -1.6983
  783MOL0     H 5686   1.102   2.348  11.704  1.1759 -0.7164 -1.7742
  783MOL0     H 5687   2.070   2.196  11.927  1.3505 -0.1872  1.5962
  783MOL0     H 5688   2.291   2.154  12.019  0.4430  0.1888 -0.9246
  783MOL0     H 5689   2.722   1.910  11.919  1.7339 -1.2265  0.2895
  783MOL0     H 5690   2.939   1.853  11.982  1.2735 -1.2280  4.1901
  783MOL0     H 5691   4.173   1.696  11.133 -2.7347  2.6678 -1.1107
  783MOL0     H 5692   4.391   1.734  11.054 -1.6929 -2.3467  4.2638
  783MOL0     H 5693   4.723   1.751  10.861 -1.1381 -1.1744 -0.6364
  783MOL0     H 5694   4.958   1.792  10.802  1.7296  1.3398 -1.3065
  783MOL0     H 5695   5.144   1.878  10.716 -2.0259 -0.5754  0.1230
  783MOL0     H 5696   5.155   1.719  10.668  0.8890  1.7861  2.1262
  783MOL0     H 5697   5.272   1.948  10.502 -0.6921  0.1420  0.3844
  783MOL0     H 5698   5.279   1.789  10.444 -0.6902  0.3419 -0.4568
  783MOL0     H 5699   5.422   1.735  10.668  5.5596  1.2619  0.6767
  783MOL0     H 5700   5.389   1.894  10.714 -3.4470 -0.6475 -0.2449
  783MOL0     H 5701   5.620   1.867  10.601  1.8160 -3.2904 -0.0248
  783MOL0     H 5702   5.516   1.953  10.481  1.9262  0.4795  0.1523
  783MOL0     H 5703   5.628   1.559  10.336  0.6524  0.0527 -0.0888
  783MOL0     H 5704   4.849   1.797  10.389 -1.1056 -0.7857 -0.4385
  783MOL0     H 5705   4.609   1.761  10.443  0.8990  1.5558 -0.4870
  784MOL0     O 5706   2.455   8.295   1.970 -0.2170  0.2559  0.1184
  784MOL0     C 5707   2.521   8.390   2.012 -0.2410 -0.2546  0.5460
  784MOL0     O 5708   2.475   8.512   2.043 -0.1248 -0.2958 -0.3332
  784MOL0     C 5709   2.347   8.533   2.011  0.2155 -0.1951  0.0114
  784MOL0     C 5710   2.304   8.550   1.871  0.7364 -0.9686 -0.8899
  784MOL0     C 5711   2.173   8.588   1.847 -0.9084 -0.3603  0.5574
  784MOL0     C 5712   2.072   8.602   1.948 -0.6152  0.6494  0.6848
  784MOL0     O 5713   1.941   8.630   1.915  0.0110 -0.3478  0.5842
  784MOL0     C 5714   1.879   8.734   1.986  0.0231 -0.1434  0.6518
  784MOL0     C 5715   1.871   8.864   1.906  0.1559  0.1881 -0.8216
  784MOL0     C 5716   1.745   8.892   1.823 -0.5643  0.3434 -0.4382
  784MOL0     C 5717   1.726   8.788   1.710 -0.5930  0.3693 -0.1945
  784MOL0     C 5718   1.602   8.824   1.616 -0.1066 -0.0481 -0.8289
  784MOL0     C 5719   1.469   8.856   1.685 -0.0940  0.4076  0.1868
  784MOL0     C 5720   1.361   8.878   1.584 -1.0101 -0.0106 -0.2358
  784MOL0     C 5721   1.223   8.902   1.653 -0.4791  0.2273 -0.8059
  784MOL0     N 5722   1.103   8.899   1.563 -0.6521  0.6308  1.3300
  784MOL0     C 5723   1.008   8.990   1.552  0.8392 -0.2190 -0.4539
  784MOL0     C 5724   0.914   8.947   1.468 -0.2212 -0.1192  0.5532
  784MOL0     C 5725   0.782   9.006   1.434 -0.1024 -0.5412 -0.0999
  784MOL0     C 5726   0.667   8.909   1.467 -0.1189  0.8235 -0.7054
  784MOL0     C 5727   0.523   8.972   1.446  0.1150 -0.2001 -0.7562
  784MOL0     C 5728   0.497   9.027   1.308  0.2074  0.3104  0.7142
  784MOL0     O 5729   0.388   9.113   1.291  0.3321  0.1911  0.1353
  784MOL0     C 5730   0.258   9.076   1.312 -0.4760 -0.6805 -0.2789
  784MOL0     C 5731   0.209   8.948   1.338 -0.4487 -0.2007  0.2659
  784MOL0     C 5732   0.070   8.941   1.355  0.3034 -0.2065  0.6804
  784MOL0     C 5733   0.011   8.805   1.357 -0.2736  0.8341  0.3212
  784MOL0     C 5734  -0.018   9.045   1.329  0.1160 -0.3249 -0.3196
  784MOL0     C 5735  -0.170   9.043   1.321 -0.0294  0.5210 -1.0424
  784MOL0     O 5736  -0.230   9.165   1.304 -0.4982 -0.2425  0.4100
  784MOL0     C 5737  -0.367   9.174   1.303 -1.0173 -0.3711  0.8319
  784MOL0     C 5738  -0.414   9.199   1.434  0.8352 -1.0137  0.6584
  784MOL0     C 5739  -0.546   9.226   1.449 -0.1509 -0.3380 -0.0385
  784MOL0     C 5740  -0.640   9.230   1.343 -0.0996 -0.2948 -0.1028
  784MOL0     O 5741  -0.779   9.255   1.363 -1.5828  0.3324 -0.0389
  784MOL0     C 5742  -0.829   9.287   1.492  0.3913 -0.4314  0.3234
  784MOL0     C 5743  -0.977   9.313   1.474 -0.4988 -0.3597 -0.1220
  784MOL0     C 5744  -1.020   9.405   1.361 -0.4148  0.3395  0.3137
  784MOL0     C 5745  -1.177   9.435   1.348 -0.7320  0.2034 -0.0542
  784MOL0     C 5746  -1.220   9.482   1.212  0.8908  0.5019 -0.4081
  784MOL0     C 5747  -1.371   9.466   1.194 -0.4245 -0.0498 -0.1756
  784MOL0     C 5748  -1.409   9.489   1.053 -0.3167  0.7415  0.5149
  784MOL0     C 5749  -1.557   9.459   1.036 -0.1889 -0.3086  0.9177
  784MOL0    Cl 5750  -1.666   9.559   1.134 -0.3410 -0.2668 -0.3151
  784MOL0     C 5751  -0.589   9.216   1.215 -0.1565 -0.2334  0.7961
  784MOL0     C 5752  -0.452   9.180   1.195 -0.2686  0.9608  0.0429
  784MOL0     O 5753  -0.227   8.937   1.321  0.2032  0.1164  0.5890
  784MOL0     C 5754   0.036   9.163   1.294  0.2547 -0.7760 -0.9614
  784MOL0     C 5755   0.164   9.182   1.289 -0.5252 -0.5791 -0.8911
  784MOL0     N 5756   0.952   8.819   1.436  0.2208  0.4005 -0.0612
  784MOL0     N 5757   1.060   8.787   1.491 -0.3959  0.6565 -0.3451
  784MOL0     C 5758   2.114   8.578   2.075 -0.1524 -0.9359  0.3888
  784MOL0     C 5759   2.251   8.550   2.109 -0.4128 -0.5730  0.8329
  784MOL0     C 5760   2.676   8.357   2.023  0.0318 -0.3964  0.3230
  784MOL0     C 5761   2.722   8.225   2.020 -1.0417 -0.8515  0.2423
  784MOL0     C 5762   2.861   8.202   2.043 -0.0869  0.1805  0.3316
  784MOL0     C 5763   2.953   8.301   2.083  0.4913  0.7426  0.1869
  784MOL0     O 5764   3.092   8.289   2.100  0.1220 -0.5056  0.2695
  784MOL0     C 5765   3.148   8.162   2.146  0.5844  0.4895 -0.1907
  784MOL0     C 5766   3.295   8.181   2.183 -0.1103  0.1682  0.3125
  784MOL0     C 5767   3.349   8.041   2.234 -0.3840  0.2413 -0.3658
  784MOL0     C 5768   3.503   8.035   2.217 -0.8435  0.2541 -0.1069
  784MOL0     C 5769   3.579   8.025   2.342  0.2673  0.1913  0.6288
  784MOL0     C 5770   3.649   8.007   2.434  1.0397 -0.0619 -0.1712
  784MOL0     C 5771   2.903   8.430   2.088 -0.5735 -0.2613 -0.5565
  784MOL0     C 5772   2.767   8.462   2.060  0.0105  0.5814  0.2896
  784MOL0     H 5773   2.364   8.535   1.782  1.1263 -1.4131 -0.5549
  784MOL0     H 5774   2.138   8.612   1.747 -1.1185 -0.3964  0.6216
  784MOL0     H 5775   1.780   8.700   2.018  0.1309 -0.8219  0.2712
  784MOL0     H 5776   1.937   8.755   2.076  1.6842 -1.3114 -0.1025
  784MOL0     H 5777   1.876   8.935   1.988 -1.5370 -2.5061  1.8178
  784MOL0     H 5778   1.961   8.883   1.846  1.0831  2.3888  1.1134
  784MOL0     H 5779   1.658   8.892   1.889 -0.2830 -0.4002 -0.0597
  784MOL0     H 5780   1.745   8.993   1.780 -2.9057 -0.7791 -3.4549
  784MOL0     H 5781   1.818   8.779   1.652  0.6447  1.3411  1.5203
  784MOL0     H 5782   1.706   8.689   1.752 -1.1911  1.2373  1.7232
  784MOL0     H 5783   1.623   8.908   1.550 -1.0536  0.3842 -0.5937
  784MOL0     H 5784   1.582   8.729   1.566 -1.8955  0.5219 -1.2623
  784MOL0     H 5785   1.431   8.783   1.757  3.0230  1.1828  2.8277
  784MOL0     H 5786   1.489   8.951   1.735 -0.1443  0.4229  0.1787
  784MOL0     H 5787   1.395   8.959   1.520  1.0214 -2.4040 -2.4025
  784MOL0     H 5788   1.342   8.790   1.523 -0.2950  1.4882 -2.7526
  784MOL0     H 5789   1.226   9.001   1.700 -1.0608  1.3823 -3.0831
  784MOL0     H 5790   1.207   8.821   1.725  1.1131  1.9589  1.6820
  784MOL0     H 5791   0.994   9.078   1.615 -1.4021 -2.3480  2.3207
  784MOL0     H 5792   0.770   9.105   1.479 -2.8800 -0.9377  0.2371
  784MOL0     H 5793   0.782   9.024   1.326  1.7435  0.1319 -0.0181
  784MOL0     H 5794   0.674   8.889   1.574  1.2164  2.6403 -0.4211
  784MOL0     H 5795   0.689   8.823   1.403 -1.2603  0.0410 -0.0835
  784MOL0     H 5796   0.500   9.050   1.519  2.3452  1.7505 -2.0178
  784MOL0     H 5797   0.460   8.885   1.466  0.0821 -0.4449 -1.8514
  784MOL0     H 5798   0.481   8.946   1.236 -1.8123  0.7893  0.5845
  784MOL0     H 5799   0.582   9.086   1.273 -0.9236  1.0616 -0.8437
  784MOL0     H 5800   0.281   8.868   1.350 -0.9087 -0.3715  2.2949
  784MOL0     H 5801  -0.040   8.773   1.266 -0.0582  1.4369 -0.0140
  784MOL0     H 5802   0.093   8.736   1.379  0.0052  1.1356  0.2304
  784MOL0     H 5803  -0.067   8.804   1.434  0.4682 -0.3751  1.0930
  784MOL0     H 5804  -0.353   9.194   1.524  0.3557 -0.1977  1.0410
  784MOL0     H 5805  -0.585   9.242   1.549  0.5083 -1.2361  0.3676
  784MOL0     H 5806  -0.815   9.200   1.557  1.8904 -0.4883 -0.0540
  784MOL0     H 5807  -0.784   9.378   1.534  2.6236 -2.1938  1.9883
  784MOL0     H 5808  -1.029   9.220   1.449 -1.1614 -0.3733  1.2141
  784MOL0     H 5809  -1.013   9.342   1.573 -0.0953  2.1539 -0.6304
  784MOL0     H 5810  -1.008   9.347   1.269  0.7263 -0.3974  0.9007
  784MOL0     H 5811  -0.973   9.501   1.341 -1.8556  0.4425 -3.3661
  784MOL0     H 5812  -1.239   9.347   1.368 -0.5906 -0.2353 -1.4562
  784MOL0     H 5813  -1.200   9.519   1.415 -1.0151 -0.5509  0.8108
  784MOL0     H 5814  -1.175   9.424   1.131  1.2445  1.7681 -1.1445
  784MOL0     H 5815  -1.200   9.590   1.208 -1.2498  1.2026  3.0660
  784MOL0     H 5816  -1.405   9.368   1.230 -2.1067  1.0437  1.4163
  784MOL0     H 5817  -1.415   9.547   1.252 -0.3704  0.0872 -0.3249
  784MOL0     H 5818  -1.353   9.418   0.991 -0.6388  0.8121  0.1391
  784MOL0     H 5819  -1.391   9.590   1.013 -1.5028 -0.0129 -2.1623
  784MOL0     H 5820  -1.584   9.356   1.059  0.9379 -0.6720  0.6519
  784MOL0     H 5821  -1.565   9.479   0.929  2.9980 -2.3475  0.1829
  784MOL0     H 5822  -0.654   9.214   1.128 -1.7416  2.3495  1.7930
  784MOL0     H 5823  -0.418   9.157   1.095  1.2054 -1.9891  1.0948
  784MOL0     H 5824  -0.011   9.259   1.277  3.2671  1.0626  0.3198
  784MOL0     H 5825   0.206   9.278   1.261  0.4851 -0.8293 -0.2523
  784MOL0     H 5826   2.057   8.592   2.167  0.7395  0.4892  0.7608
  784MOL0     H 5827   2.290   8.534   2.209  1.3741  0.2198  0.2978
  784MOL0     H 5828   2.664   8.137   1.991 -0.1278 -0.9919 -1.2412
  784MOL0     H 5829   2.898   8.100   2.049  0.7027  0.5283  1.7932
  784MOL0     H 5830   3.087   8.131   2.231 -1.3392 -0.5787 -1.8480
  784MOL0     H 5831   3.131   8.085   2.069  1.0280 -0.1532  0.3462
  784MOL0     H 5832   3.313   8.255   2.262  1.0167  0.3846 -0.1228
  784MOL0     H 5833   3.349   8.210   2.092 -1.9798 -1.4643 -1.3975
  784MOL0     H 5834   3.302   7.955   2.186 -2.6172  0.5017  1.1614
  784MOL0     H 5835   3.311   8.031   2.336  0.2681  0.1938 -0.1273
  784MOL0     H 5836   3.524   8.132   2.172 -2.0130  1.0299  0.9353
  784MOL0     H 5837   3.531   7.965   2.139 -1.3908  0.2611 -0.3142
  784MOL0     H 5838   3.723   7.984   2.508  0.0820  1.0007  1.1797
  784MOL0     H 5839   2.958   8.520   2.110 -2.7071  1.1704 -0.7516
  784MOL0     H 5840   2.746   8.566   2.040  2.4733  0.9187 -0.8810
  785MOL0     O 5841   7.667   1.308  11.183 -0.5859  0.5633 -0.1612
  785MOL0     C 5842   7.728   1.205  11.147 -0.7866 -0.1091  0.4930
  785MOL0     O 5843   7.690   1.126  11.037 -0.1633  0.3327 -0.9107
  785MOL0     C 5844   7.576   1.151  10.968  0.5408 -0.1721  0.0872
  785MOL0     C 5845   7.472   1.072  10.992  0.1419  0.7612 -0.8367
  785MOL0     C 5846   7.350   1.075  10.918 -0.3978 -0.2350  0.5349
  785MOL0     C 5847   7.334   1.176  10.824 -0.1982 -1.3959 -0.1678
  785MOL0     O 5848   7.222   1.189  10.746  0.6785  0.5796  0.0029
  785MOL0     C 5849   7.158   1.068  10.701  0.4917 -0.6183 -0.6874
  785MOL0     C 5850   7.069   1.114  10.584 -1.1938 -0.2331  0.3891
  785MOL0     C 5851   7.004   1.003  10.508  0.2203 -0.3120  0.1596
  785MOL0     C 5852   6.863   0.986  10.556 -0.5259  0.0727 -0.4689
  785MOL0     C 5853   6.772   0.900  10.474  0.0616  0.2077 -0.8783
  785MOL0     C 5854   6.664   0.837  10.560  0.0278  0.5758  0.5368
  785MOL0     C 5855   6.583   0.722  10.501  0.5590  1.2848 -0.5168
  785MOL0     C 5856   6.448   0.695  10.581 -1.2489 -0.2786  1.0518
  785MOL0     N 5857   6.381   0.577  10.524  0.2464  0.2585  0.1000
  785MOL0     C 5858   6.273   0.591  10.433  0.0678  0.1850 -0.0563
  785MOL0     C 5859   6.238   0.461  10.419  0.0242  0.0220 -0.8555
  785MOL0     C 5860   6.134   0.415  10.322 -0.6549  0.7872  0.5323
  785MOL0     C 5861   5.994   0.436  10.381  0.1465  1.4127 -0.2278
  785MOL0     C 5862   5.893   0.354  10.292  0.8723 -0.7017 -0.2434
  785MOL0     C 5863   5.753   0.389  10.347 -0.9105 -0.3162 -0.6940
  785MOL0     O 5864   5.660   0.299  10.295  0.0452  0.5920 -1.0097
  785MOL0     C 5865   5.527   0.322  10.275 -1.0405  0.6348  0.5281
  785MOL0     C 5866   5.459   0.428  10.327 -0.3560  0.1275  0.1702
  785MOL0     C 5867   5.313   0.441  10.320  0.0270  0.3094 -0.3213
  785MOL0     C 5868   5.249   0.566  10.372  0.3644  0.7533  0.0179
  785MOL0     C 5869   5.242   0.327  10.256 -0.8933 -0.3524 -0.6625
  785MOL0     C 5870   5.094   0.325  10.237 -0.2023 -0.0882  0.4164
  785MOL0     O 5871   5.034   0.431  10.297 -0.2300 -0.2099  0.3940
  785MOL0     C 5872   4.899   0.464  10.294  0.4095 -0.3046  0.7184
  785MOL0     C 5873   4.845   0.505  10.420  0.0573 -1.0524 -0.4971
  785MOL0     C 5874   4.704   0.527  10.427 -0.6598  0.0360 -0.7067
  785MOL0     C 5875   4.623   0.497  10.314 -0.2692  0.3132  0.0826
  785MOL0     O 5876   4.487   0.508  10.337 -0.0205 -0.6047  0.6584
  785MOL0     C 5877   4.416   0.385  10.333 -0.2353 -0.1075  0.3035
  785MOL0     C 5878   4.329   0.363  10.459 -0.1367  0.2789  0.1213
  785MOL0     C 5879   4.246   0.481  10.510 -1.0478 -0.9879  0.1498
  785MOL0     C 5880   4.158   0.423  10.618 -0.3373 -0.0866  0.2048
  785MOL0     C 5881   4.040   0.517  10.651  0.8018  0.2416  0.1665
  785MOL0     C 5882   3.981   0.456  10.784  0.7528 -0.9231 -0.4548
  785MOL0     C 5883   3.861   0.544  10.816  0.6203 -0.3519  0.2468
  785MOL0     C 5884   3.791   0.495  10.945 -0.0267 -0.2477 -0.4947
  785MOL0    Cl 5885   3.631   0.578  10.974  0.0112 -0.0049  0.1689
  785MOL0     C 5886   4.674   0.456  10.192  0.3918 -0.6753 -0.7724
  785MOL0     C 5887   4.815   0.433  10.185  0.4472 -0.6667  0.3172
  785MOL0     O 5888   5.038   0.232  10.179 -0.2897 -0.2599  0.4229
  785MOL0     C 5889   5.317   0.224  10.198 -0.4287  0.3358 -0.0611
  785MOL0     C 5890   5.459   0.214  10.215  1.3600 -0.1246 -1.1175
  785MOL0     N 5891   6.308   0.384  10.507 -0.7310  0.5410  0.0698
  785MOL0     N 5892   6.404   0.448  10.560 -0.0380  0.1139 -0.2923
  785MOL0     C 5893   7.442   1.265  10.805  0.1451 -0.9667 -0.4122
  785MOL0     C 5894   7.567   1.254  10.873  0.1263 -0.2383  0.7653
  785MOL0     C 5895   7.861   1.191  11.206  0.0558  0.1194  0.5015
  785MOL0     C 5896   7.903   1.277  11.310 -0.3137  0.4332  0.0249
  785MOL0     C 5897   8.034   1.276  11.352  0.5970 -0.9733  0.3757
  785MOL0     C 5898   8.133   1.195  11.284  0.5178 -0.7215 -0.3101
  785MOL0     O 5899   8.268   1.196  11.315 -0.2812  0.5800  0.0794
  785MOL0     C 5900   8.326   1.323  11.333 -0.1485  0.0589 -0.3896
  785MOL0     C 5901   8.475   1.324  11.347 -0.1636  0.0539 -0.0348
  785MOL0     C 5902   8.563   1.224  11.266 -0.0042 -0.0711 -0.1862
  785MOL0     C 5903   8.705   1.185  11.316 -0.4240  0.3562 -0.1352
  785MOL0     C 5904   8.786   1.309  11.328  1.8496  0.0955 -0.5115
  785MOL0     C 5905   8.869   1.395  11.333 -0.0006  1.0829  0.8744
  785MOL0     C 5906   8.093   1.105  11.187 -0.3444  0.3854 -0.0773
  785MOL0     C 5907   7.962   1.107  11.150  0.5846  0.2444 -0.2338
  785MOL0     H 5908   7.482   0.986  11.058 -0.6987  2.0656  1.0755
  785MOL0     H 5909   7.274   0.998  10.930 -0.4479  0.0005  2.0087
  785MOL0     H 5910   7.219   0.985  10.663 -2.5770 -2.4940 -1.9154
  785MOL0     H 5911   7.092   1.032  10.781 -0.6526 -0.0375 -1.3359
  785MOL0     H 5912   6.997   1.186  10.624 -0.9343 -0.5120  1.3825
  785MOL0     H 5913   7.133   1.168  10.513 -0.7008 -1.9798 -0.5357
  785MOL0     H 5914   7.001   1.033  10.403  0.7143  1.3493  0.5819
  785MOL0     H 5915   7.059   0.909  10.508 -0.7166 -0.8667 -0.2927
  785MOL0     H 5916   6.861   0.961  10.663  1.1267 -3.6009 -1.1608
  785MOL0     H 5917   6.815   1.084  10.557  0.8588  0.7953  0.5713
  785MOL0     H 5918   6.725   0.962  10.397  0.8438  0.7497 -0.9358
  785MOL0     H 5919   6.832   0.824  10.424  0.4138  0.6269 -1.0953
  785MOL0     H 5920   6.715   0.793  10.646  0.0750  1.1150  0.7884
  785MOL0     H 5921   6.597   0.919  10.585 -0.3705 -0.3045  2.5816
  785MOL0     H 5922   6.551   0.744  10.399  2.7554 -0.5950 -1.6947
  785MOL0     H 5923   6.643   0.631  10.501 -2.5316 -0.9034 -0.6562
  785MOL0     H 5924   6.390   0.787  10.593 -1.1195 -0.0980  0.3247
  785MOL0     H 5925   6.478   0.661  10.681 -0.2438 -0.8069  0.5792
  785MOL0     H 5926   6.224   0.683  10.401 -0.5996 -0.3653 -0.6653
  785MOL0     H 5927   6.132   0.454  10.220  1.3816  0.0456  0.1689
  785MOL0     H 5928   6.163   0.310  10.311  1.6984  1.2790  1.4660
  785MOL0     H 5929   5.969   0.542  10.381 -0.4883  1.3269 -2.8503
  785MOL0     H 5930   6.006   0.394  10.482  1.7484 -0.2789 -1.0589
  785MOL0     H 5931   5.915   0.247  10.285  0.4696 -0.6928 -2.2478
  785MOL0     H 5932   5.907   0.407  10.197  1.7801  0.6126  0.5991
  785MOL0     H 5933   5.727   0.488  10.309  1.6009 -0.3715 -2.8248
  785MOL0     H 5934   5.755   0.396  10.456  2.7628  2.2944 -0.7458
  785MOL0     H 5935   5.509   0.510  10.377 -1.2444  0.9684 -0.2764
  785MOL0     H 5936   5.186   0.539  10.458  0.4578  1.0906  0.1912
  785MOL0     H 5937   5.324   0.637  10.406 -1.0492  2.1581  0.3242
  785MOL0     H 5938   5.191   0.617  10.294  1.0100  2.2612  0.4871
  785MOL0     H 5939   4.911   0.539  10.499 -1.0526  0.5861 -0.2367
  785MOL0     H 5940   4.662   0.576  10.514 -2.4030 -0.2307 -1.3753
  785MOL0     H 5941   4.352   0.385  10.245  1.7514  0.9499 -1.2035
  785MOL0     H 5942   4.494   0.309  10.320  1.2582  1.1584  1.4840
  785MOL0     H 5943   4.267   0.277  10.433  2.4371 -1.3188 -1.1363
  785MOL0     H 5944   4.404   0.319  10.526  0.3829 -2.7043 -2.2155
  785MOL0     H 5945   4.188   0.513  10.424 -1.0899 -1.5904 -0.0528
  785MOL0     H 5946   4.310   0.565  10.539 -0.0688 -1.9444  0.8628
  785MOL0     H 5947   4.116   0.327  10.590 -3.0311  0.8413  0.8063
  785MOL0     H 5948   4.222   0.413  10.707  4.0519  4.4117 -1.8902
  785MOL0     H 5949   3.964   0.531  10.574  0.0122  0.4917  0.9752
  785MOL0     H 5950   4.080   0.618  10.663 -2.1413  2.5340 -5.5180
  785MOL0     H 5951   3.952   0.351  10.775  0.4303 -0.9644  0.7954
  785MOL0     H 5952   4.057   0.469  10.861  0.6746 -2.4707 -0.0904
  785MOL0     H 5953   3.785   0.536  10.739  1.3963  0.2996 -0.6073
  785MOL0     H 5954   3.906   0.644  10.825  0.2157 -0.2048  0.6614
  785MOL0     H 5955   3.856   0.525  11.028 -1.2943 -3.8088  2.0568
  785MOL0     H 5956   3.776   0.387  10.950 -2.9592  0.0600 -1.0486
  785MOL0     H 5957   4.601   0.438  10.114 -0.8054  3.7171 -0.9551
  785MOL0     H 5958   4.850   0.391  10.092  4.4871  0.5243  1.0945
  785MOL0     H 5959   5.265   0.143  10.148 -0.2530  0.9510 -1.2706
  785MOL0     H 5960   5.520   0.129  10.188  2.5703  0.2669  0.2889
  785MOL0     H 5961   7.436   1.330  10.719 -0.1127  2.5923  2.0765
  785MOL0     H 5962   7.652   1.305  10.830 -0.2172 -1.4050 -1.4349
  785MOL0     H 5963   7.828   1.344  11.352 -2.4199 -0.9177 -1.3455
  785MOL0     H 5964   8.059   1.345  11.432  2.0761 -1.8443  0.7081
  785MOL0     H 5965   8.298   1.378  11.243 -3.2697 -0.3102  0.2628
  785MOL0     H 5966   8.283   1.379  11.416  1.3555  1.6429 -0.6170
  785MOL0     H 5967   8.497   1.304  11.453  3.1239  2.4049 -0.1310
  785MOL0     H 5968   8.506   1.428  11.335 -1.0236  0.8691  3.5073
  785MOL0     H 5969   8.576   1.263  11.165 -1.3922 -1.0759 -0.7987
  785MOL0     H 5970   8.499   1.135  11.256 -1.4745  0.7595  1.3895
  785MOL0     H 5971   8.756   1.121  11.244 -0.7957 -1.6585  1.3263
  785MOL0     H 5972   8.703   1.124  11.406  0.9619  0.3229 -0.1063
  785MOL0     H 5973   8.949   1.465  11.324  0.7115  0.1836 -0.1445
  785MOL0     H 5974   8.174   1.042  11.151 -0.3027 -0.4520  1.3877
  785MOL0     H 5975   7.935   1.038  11.071 -1.7320 -1.4096  1.8072
  786MOL0     O 5976   0.886   4.640   1.879 -0.1997 -0.6593  0.1978
  786MOL0     C 5977   0.903   4.524   1.853  0.2654 -0.1707  0.5535
  786MOL0     O 5978   0.807   4.435   1.835  0.2158  0.1801  0.2382
  786MOL0     C 5979   0.674   4.457   1.833 -0.1930 -0.2225 -0.2108
  786MOL0     C 5980   0.587   4.339   1.843 -0.0117  0.8570  0.1128
  786MOL0     C 5981   0.447   4.350   1.843 -0.6903 -0.2466  0.3881
  786MOL0     C 5982   0.388   4.473   1.833 -0.6616  0.2959  0.8076
  786MOL0     O 5983   0.251   4.468   1.827 -0.2981 -0.4849 -0.2879
  786MOL0     C 5984   0.177   4.595   1.832  0.3869  0.2112 -0.0722
  786MOL0     C 5985   0.173   4.655   1.975  0.2584  0.7334  0.6324
  786MOL0     C 5986   0.089   4.573   2.076 -0.6121  0.2333 -0.7851
  786MOL0     C 5987  -0.060   4.599   2.041  0.3196  0.9666  0.4008
  786MOL0     C 5988  -0.104   4.717   2.121 -0.7599 -0.2111  0.0809
  786MOL0     C 5989  -0.257   4.729   2.096  0.8562  0.0714  0.6061
  786MOL0     C 5990  -0.320   4.840   2.179  0.0116  0.9431 -0.3994
  786MOL0     C 5991  -0.343   4.796   2.327 -0.2969 -0.2680 -0.6003
  786MOL0     N 5992  -0.429   4.895   2.395 -0.0638 -0.5915 -0.7532
  786MOL0     C 5993  -0.564   4.897   2.385  0.2466  0.0517  0.3817
  786MOL0     C 5994  -0.606   5.003   2.464  0.0498 -0.1711  0.1327
  786MOL0     C 5995  -0.739   5.071   2.464 -0.1682  0.0213  0.0737
  786MOL0     C 5996  -0.776   5.169   2.359 -0.5557  0.0093  0.2397
  786MOL0     C 5997  -0.759   5.106   2.219  0.7956  0.8229  0.6676
  786MOL0     C 5998  -0.836   5.187   2.120 -0.1071  0.6094 -0.3147
  786MOL0     O 5999  -0.813   5.330   2.124 -0.0765 -0.6071 -0.3448
  786MOL0     C 6000  -0.905   5.411   2.064  0.5751 -1.3144 -0.3112
  786MOL0     C 6001  -0.907   5.552   2.101 -0.3425  0.1874 -0.2471
  786MOL0     C 6002  -0.996   5.646   2.049 -0.5285  0.1451  0.2743
  786MOL0     C 6003  -0.966   5.795   2.086  0.5313  0.3874  0.1436
  786MOL0     C 6004  -1.097   5.601   1.959 -0.1246  0.6398 -0.1270
  786MOL0     C 6005  -1.203   5.681   1.898  0.1533  0.3725 -0.4212
  786MOL0     O 6006  -1.293   5.619   1.818  0.4097 -0.4409  0.2474
  786MOL0     C 6007  -1.398   5.698   1.766  0.0404  0.5851 -0.5500
  786MOL0     C 6008  -1.437   5.667   1.639  0.8751 -0.7165  0.2633
  786MOL0     C 6009  -1.562   5.719   1.586 -0.6291  0.7932 -0.2736
  786MOL0     C 6010  -1.633   5.816   1.660  0.4086 -0.4491 -0.0567
  786MOL0     O 6011  -1.744   5.882   1.615 -0.4564 -0.5625  0.6315
  786MOL0     C 6012  -1.836   5.805   1.526 -0.2118 -1.3310 -0.5918
  786MOL0     C 6013  -1.977   5.874   1.542  0.0586 -0.5177 -0.4242
  786MOL0     C 6014  -2.035   5.852   1.686  0.2065  0.7175  0.7863
  786MOL0     C 6015  -2.168   5.932   1.705 -0.0468 -0.9695  0.8385
  786MOL0     C 6016  -2.288   5.859   1.645 -0.1684  0.3827 -0.0798
  786MOL0     C 6017  -2.404   5.958   1.641 -0.2556  0.8861 -0.0444
  786MOL0     C 6018  -2.527   5.890   1.583  0.2254  0.6660 -1.1884
  786MOL0     C 6019  -2.661   5.956   1.603  0.6120  0.5579 -0.2700
  786MOL0    Cl 6020  -2.648   6.122   1.544  0.1192  0.0708  0.5883
  786MOL0     C 6021  -1.600   5.836   1.797 -0.2914 -0.0880  0.6595
  786MOL0     C 6022  -1.481   5.781   1.844  0.1086  0.7897  0.3908
  786MOL0     O 6023  -1.207   5.800   1.928 -0.1673 -0.3012 -0.6174
  786MOL0     C 6024  -1.095   5.462   1.933  0.4226 -0.3773 -0.3471
  786MOL0     C 6025  -1.001   5.368   1.974 -0.9870 -0.2714  0.4440
  786MOL0     N 6026  -0.488   5.048   2.532  0.1863  0.2997 -0.9756
  786MOL0     N 6027  -0.382   4.999   2.478 -0.0266  0.5535  0.0133
  786MOL0     C 6028   0.465   4.591   1.831  0.0907 -0.8188  0.0545
  786MOL0     C 6029   0.603   4.584   1.830  0.2163  0.8618 -0.3828
  786MOL0     C 6030   1.045   4.483   1.869  0.0549  0.2750 -0.0215
  786MOL0     C 6031   1.077   4.343   1.884 -0.8277  0.3406  0.3318
  786MOL0     C 6032   1.208   4.309   1.898  0.0249 -0.5402 -0.3792
  786MOL0     C 6033   1.319   4.397   1.897  0.7594 -0.0427  0.5391
  786MOL0     O 6034   1.442   4.345   1.918  0.6511 -0.6792 -0.1242
  786MOL0     C 6035   1.558   4.434   1.915 -1.2305 -0.0724 -0.4910
  786MOL0     C 6036   1.682   4.371   1.982 -0.0576  0.2929  0.0139
  786MOL0     C 6037   1.819   4.452   1.962 -0.0770  0.1720  0.4130
  786MOL0     C 6038   1.825   4.582   2.039  0.3840  0.3151 -0.0479
  786MOL0     C 6039   1.962   4.643   2.035  0.5057  0.5645 -0.5551
  786MOL0     C 6040   2.080   4.676   2.037 -0.0482 -0.1572 -0.5042
  786MOL0     C 6041   1.285   4.531   1.874  0.3564 -0.7388  0.3761
  786MOL0     C 6042   1.151   4.574   1.870  0.5760  0.1936  0.1338
  786MOL0     H 6043   0.619   4.236   1.853  0.3573  0.8575 -1.0022
  786MOL0     H 6044   0.385   4.261   1.850 -1.0773 -0.0955 -0.7841
  786MOL0     H 6045   0.227   4.662   1.762  1.2521 -1.4942 -1.1700
  786MOL0     H 6046   0.077   4.563   1.801  0.2140 -0.1407  0.7984
  786MOL0     H 6047   0.277   4.653   2.009  1.7258 -4.6946 -2.9040
  786MOL0     H 6048   0.137   4.758   1.968  1.0240  0.9606 -0.2755
  786MOL0     H 6049   0.121   4.468   2.078  0.7385  0.6213 -0.7634
  786MOL0     H 6050   0.125   4.614   2.171 -0.0267  2.4831 -1.8899
  786MOL0     H 6051  -0.072   4.627   1.936 -0.9795  3.6568  1.1766
  786MOL0     H 6052  -0.117   4.509   2.067  1.4861 -0.3722 -1.4622
  786MOL0     H 6053  -0.083   4.714   2.229 -0.9687  3.2681  0.3527
  786MOL0     H 6054  -0.053   4.807   2.085  2.5350 -1.5692  1.0618
  786MOL0     H 6055  -0.279   4.756   1.993 -0.3064  1.4746  1.1837
  786MOL0     H 6056  -0.306   4.633   2.115 -1.2949  1.0602  0.3897
  786MOL0     H 6057  -0.263   4.933   2.188  1.6020 -0.1979  2.4515
  786MOL0     H 6058  -0.422   4.863   2.145  0.3300  2.0798 -0.6223
  786MOL0     H 6059  -0.247   4.778   2.377 -1.6523 -1.7561  1.6626
  786MOL0     H 6060  -0.401   4.704   2.336 -0.3168 -0.2730 -0.7973
  786MOL0     H 6061  -0.628   4.841   2.316 -0.4670  0.4763  0.6854
  786MOL0     H 6062  -0.810   4.990   2.450  1.0282 -0.9082 -0.8556
  786MOL0     H 6063  -0.754   5.121   2.560 -0.0105 -3.7031  2.2165
  786MOL0     H 6064  -0.722   5.264   2.359 -0.9460  0.2541 -0.9200
  786MOL0     H 6065  -0.882   5.195   2.373 -0.3747  0.5279  0.6698
  786MOL0     H 6066  -0.818   5.014   2.224  1.9198 -0.2725 -3.2517
  786MOL0     H 6067  -0.658   5.080   2.187 -0.4501 -1.7782 -1.4956
  786MOL0     H 6068  -0.944   5.170   2.135 -0.2772  1.5239 -0.4495
  786MOL0     H 6069  -0.796   5.149   2.026  0.6968  1.9439 -0.5300
  786MOL0     H 6070  -0.822   5.579   2.164 -1.4626  0.5630  1.1635
  786MOL0     H 6071  -0.897   5.785   2.171  0.8962 -0.8247 -0.2779
  786MOL0     H 6072  -0.929   5.859   2.006 -3.6989  0.3998 -2.0901
  786MOL0     H 6073  -1.058   5.837   2.127  0.6893  1.1084 -0.2229
  786MOL0     H 6074  -1.368   5.613   1.575 -0.2151  0.0281 -1.6519
  786MOL0     H 6075  -1.582   5.697   1.482 -1.4451  0.8425 -0.1342
  786MOL0     H 6076  -1.797   5.814   1.424 -1.6366  3.4709 -0.9892
  786MOL0     H 6077  -1.828   5.700   1.557  0.4937 -1.5937 -1.6258
  786MOL0     H 6078  -1.984   5.982   1.530 -2.5408 -0.3143  1.9468
  786MOL0     H 6079  -2.045   5.823   1.473 -2.3827  2.3952 -0.3780
  786MOL0     H 6080  -1.954   5.880   1.755 -0.5611 -0.8300  2.3845
  786MOL0     H 6081  -2.055   5.745   1.689  2.5657  0.1834 -0.6510
  786MOL0     H 6082  -2.178   5.950   1.812  3.3311  0.4472  1.0214
  786MOL0     H 6083  -2.165   6.034   1.665  0.2399 -2.4096 -3.2404
  786MOL0     H 6084  -2.310   5.765   1.697  0.8840 -0.1598 -0.5699
  786MOL0     H 6085  -2.254   5.823   1.547  1.8628 -3.6937  1.8491
  786MOL0     H 6086  -2.426   5.994   1.741 -2.9006  0.7888 -0.5143
  786MOL0     H 6087  -2.389   6.047   1.579  1.8898  0.7308  0.1954
  786MOL0     H 6088  -2.535   5.791   1.630  0.9031  1.4428  0.6363
  786MOL0     H 6089  -2.525   5.880   1.474 -1.0671  0.7357 -1.2363
  786MOL0     H 6090  -2.701   5.958   1.705  2.1220 -0.2357  0.3614
  786MOL0     H 6091  -2.733   5.903   1.540  1.1925 -2.0642  1.1173
  786MOL0     H 6092  -1.658   5.910   1.851 -0.9799  0.5317 -0.8695
  786MOL0     H 6093  -1.464   5.798   1.949 -1.7769  1.7112  0.5824
  786MOL0     H 6094  -1.168   5.417   1.867 -0.7793 -0.9188  1.2875
  786MOL0     H 6095  -1.004   5.269   1.930  0.7788  0.0270 -0.4414
  786MOL0     H 6096   0.415   4.687   1.824  1.5087 -0.0879 -0.2843
  786MOL0     H 6097   0.654   4.680   1.820  0.2788  1.0286  1.2220
  786MOL0     H 6098   1.003   4.264   1.880 -3.6596  2.8298 -0.7805
  786MOL0     H 6099   1.238   4.205   1.902  0.7792 -0.3440 -0.8131
  786MOL0     H 6100   1.589   4.448   1.811 -0.2144  2.6333  0.0736
  786MOL0     H 6101   1.531   4.532   1.957 -1.4863 -0.8146  1.1572
  786MOL0     H 6102   1.700   4.278   1.927 -2.2153 -0.0129 -0.2723
  786MOL0     H 6103   1.667   4.350   2.088  2.7647  0.5453  0.5323
  786MOL0     H 6104   1.838   4.470   1.856  0.8980 -0.0862  0.5344
  786MOL0     H 6105   1.892   4.379   1.998 -1.6853 -1.3914  0.6682
  786MOL0     H 6106   1.798   4.561   2.142 -0.6126  0.7783 -0.2016
  786MOL0     H 6107   1.747   4.637   1.986  1.1169 -1.2477 -2.9947
  786MOL0     H 6108   2.184   4.705   2.034 -0.4607  1.7060  1.2198
  786MOL0     H 6109   1.371   4.596   1.861  0.0138 -0.7788 -3.0147
  786MOL0     H 6110   1.129   4.678   1.847 -1.9436 -0.0172  1.2102
  787MOL0     O 6111   0.464   7.604   9.625  0.7163 -0.1756  0.1543
  787MOL0     C 6112   0.513   7.601   9.517  0.0826  0.0489 -0.2043
  787MOL0     O 6113   0.451   7.583   9.392  0.2494  0.3144  0.4130
  787MOL0     C 6114   0.316   7.573   9.394 -0.0239  1.0713 -0.8892
  787MOL0     C 6115   0.241   7.653   9.305 -0.2014 -0.4329 -0.1985
  787MOL0     C 6116   0.106   7.642   9.291  0.7251  0.4133 -0.6080
  787MOL0     C 6117   0.038   7.536   9.351 -0.5677  0.2160 -0.1260
  787MOL0     O 6118  -0.095   7.523   9.315 -0.1643  0.5022 -0.1571
  787MOL0     C 6119  -0.115   7.424   9.215 -0.1131  0.4473  0.4000
  787MOL0     C 6120  -0.261   7.369   9.229  0.0193  0.5436  0.9906
  787MOL0     C 6121  -0.367   7.478   9.225  0.0801 -0.6873 -0.3905
  787MOL0     C 6122  -0.505   7.412   9.233  0.2663 -0.8560  0.0858
  787MOL0     C 6123  -0.616   7.521   9.226  0.1374  0.3431  0.2346
  787MOL0     C 6124  -0.744   7.436   9.196 -0.2372 -0.0807  0.0359
  787MOL0     C 6125  -0.876   7.511   9.226 -0.2415 -0.0191 -0.1300
  787MOL0     C 6126  -0.991   7.425   9.229 -0.2677  0.7610  0.0424
  787MOL0     N 6127  -1.118   7.488   9.249  0.4444 -0.4451 -0.4172
  787MOL0     C 6128  -1.173   7.548   9.363 -0.7661  1.1547  0.3847
  787MOL0     C 6129  -1.301   7.587   9.327 -0.6859  0.4401 -0.2265
  787MOL0     C 6130  -1.409   7.646   9.427 -0.9130  0.8306 -1.1580
  787MOL0     C 6131  -1.531   7.714   9.356  0.2499 -1.1420 -0.2123
  787MOL0     C 6132  -1.604   7.804   9.461  0.7243 -0.5017 -0.3243
  787MOL0     C 6133  -1.724   7.881   9.396  0.4673 -0.5281 -0.3979
  787MOL0     O 6134  -1.833   7.795   9.370  0.6385 -0.1733 -0.0067
  787MOL0     C 6135  -1.951   7.847   9.310 -0.9989 -1.2480 -0.2456
  787MOL0     C 6136  -1.965   7.982   9.284 -0.1563  0.2490  0.2970
  787MOL0     C 6137  -2.071   8.028   9.209  0.6459  0.0492  0.4488
  787MOL0     C 6138  -2.060   8.170   9.172  0.0565  0.8298 -0.9965
  787MOL0     C 6139  -2.176   7.941   9.166  0.1485  0.2660 -1.1906
  787MOL0     C 6140  -2.303   7.983   9.097  1.0563  1.1014  0.5436
  787MOL0     O 6141  -2.362   7.872   9.047  0.1097  0.1412 -0.1045
  787MOL0     C 6142  -2.496   7.883   9.012  0.7619  0.5973 -0.7294
  787MOL0     C 6143  -2.593   7.905   9.113 -0.0221 -0.1112  0.8462
  787MOL0     C 6144  -2.726   7.899   9.066  0.2585  0.0181  0.3763
  787MOL0     C 6145  -2.764   7.891   8.928 -0.2801 -0.2821 -0.3856
  787MOL0     O 6146  -2.892   7.909   8.883 -0.1264 -0.2596 -0.8278
  787MOL0     C 6147  -3.008   7.900   8.971 -0.1743  0.1906 -0.9728
  787MOL0     C 6148  -3.140   7.856   8.903 -0.4708 -0.8508  1.0904
  787MOL0     C 6149  -3.252   7.806   8.995 -0.2391  1.0469 -0.0587
  787MOL0     C 6150  -3.385   7.814   8.919  0.4929  0.2909  0.4040
  787MOL0     C 6151  -3.492   7.734   9.000  0.3236 -0.5982  0.7140
  787MOL0     C 6152  -3.628   7.727   8.932  0.7438 -0.0756 -0.1696
  787MOL0     C 6153  -3.722   7.652   9.021 -0.3410  0.2331 -0.4948
  787MOL0     C 6154  -3.842   7.584   8.953 -0.4771 -0.2611  0.1345
  787MOL0    Cl 6155  -3.775   7.457   8.844  0.1117  0.2046  0.0220
  787MOL0     C 6156  -2.662   7.852   8.842  0.3287 -0.2392  0.3291
  787MOL0     C 6157  -2.530   7.849   8.879 -0.6461  0.1583  0.3146
  787MOL0     O 6158  -2.335   8.095   9.065  0.3698  0.2841 -0.4919
  787MOL0     C 6159  -2.174   7.809   9.222  0.2842  0.2562  0.6263
  787MOL0     C 6160  -2.058   7.761   9.284 -0.1342  0.5305 -0.5975
  787MOL0     N 6161  -1.317   7.567   9.193 -0.1964 -0.2386  0.1621
  787MOL0     N 6162  -1.209   7.506   9.153  0.5399  0.3576 -0.2132
  787MOL0     C 6163   0.114   7.445   9.436 -0.3498  0.6463 -0.2080
  787MOL0     C 6164   0.251   7.468   9.452 -0.2479 -0.4773 -0.3399
  787MOL0     C 6165   0.658   7.613   9.514  0.2917  0.6191 -0.4006
  787MOL0     C 6166   0.726   7.627   9.394 -0.8283 -0.0864  0.0747
  787MOL0     C 6167   0.862   7.631   9.388  0.1282  0.2918  0.3401
  787MOL0     C 6168   0.943   7.610   9.498 -0.8376  0.4106  0.0955
  787MOL0     O 6169   1.084   7.614   9.477  0.2781 -0.0953  0.2679
  787MOL0     C 6170   1.186   7.617   9.583  1.2518  0.0285  1.0206
  787MOL0     C 6171   1.327   7.598   9.524 -0.6343  0.1374 -0.1930
  787MOL0     C 6172   1.381   7.724   9.463 -0.7755  0.2604  0.7501
  787MOL0     C 6173   1.504   7.693   9.378 -0.8856  0.6012  0.5472
  787MOL0     C 6174   1.621   7.708   9.455 -0.3893  0.5484  0.0936
  787MOL0     C 6175   1.725   7.689   9.509 -0.2443 -1.3785  0.0306
  787MOL0     C 6176   0.878   7.599   9.623 -0.0979  0.9646  0.2310
  787MOL0     C 6177   0.736   7.598   9.632  0.0458 -0.1980 -0.0451
  787MOL0     H 6178   0.303   7.719   9.245 -0.0535 -2.8504 -2.8502
  787MOL0     H 6179   0.050   7.707   9.223  0.3955  0.2539 -0.4885
  787MOL0     H 6180  -0.089   7.453   9.113  5.0946 -0.6693  1.1149
  787MOL0     H 6181  -0.044   7.343   9.235 -0.2276  0.0974 -0.5510
  787MOL0     H 6182  -0.271   7.302   9.143  1.5366  3.3011 -1.5335
  787MOL0     H 6183  -0.262   7.303   9.316 -0.3745 -3.4093 -1.7238
  787MOL0     H 6184  -0.344   7.553   9.301  0.7137  1.3972 -2.4933
  787MOL0     H 6185  -0.353   7.529   9.129  0.5819  0.5561  0.3294
  787MOL0     H 6186  -0.521   7.330   9.162 -0.6580 -0.9163  0.3526
  787MOL0     H 6187  -0.505   7.362   9.330 -2.6285  0.9163  1.1257
  787MOL0     H 6188  -0.613   7.573   9.322  0.4215  0.6735  0.0466
  787MOL0     H 6189  -0.596   7.593   9.147  1.9981  1.7519  1.8798
  787MOL0     H 6190  -0.745   7.389   9.097 -1.1432 -1.3594  0.6252
  787MOL0     H 6191  -0.747   7.350   9.264  0.1849 -1.9474 -2.1981
  787MOL0     H 6192  -0.862   7.567   9.319 -1.7298  1.0198 -0.5063
  787MOL0     H 6193  -0.892   7.583   9.145  0.1211 -0.1347 -0.3086
  787MOL0     H 6194  -0.973   7.365   9.319  0.8784  2.7089  1.1796
  787MOL0     H 6195  -0.985   7.355   9.145  1.5598 -4.5354  3.9899
  787MOL0     H 6196  -1.126   7.554   9.461  1.5628  1.2382 -0.6974
  787MOL0     H 6197  -1.437   7.558   9.484  1.3313  0.4437 -0.5633
  787MOL0     H 6198  -1.357   7.710   9.500 -1.3791 -0.5713  0.4679
  787MOL0     H 6199  -1.602   7.645   9.310 -1.6942  1.1460 -0.8647
  787MOL0     H 6200  -1.498   7.786   9.280  2.6971  0.6425  2.3123
  787MOL0     H 6201  -1.536   7.878   9.504  2.2427 -2.1296  0.1917
  787MOL0     H 6202  -1.644   7.746   9.545  1.5483  1.0466  1.2068
  787MOL0     H 6203  -1.694   7.924   9.300 -3.7673  1.7592 -0.9656
  787MOL0     H 6204  -1.750   7.968   9.457  0.7721 -1.1499  0.6447
  787MOL0     H 6205  -1.891   8.049   9.325 -3.5355  3.8200  1.2397
  787MOL0     H 6206  -2.017   8.224   9.257 -1.6651 -1.0766  1.2077
  787MOL0     H 6207  -2.001   8.181   9.080 -0.0017 -0.9118 -1.2766
  787MOL0     H 6208  -2.153   8.221   9.149  0.0877  2.7164  2.4792
  787MOL0     H 6209  -2.581   7.939   9.215  0.3319 -1.5528  1.3054
  787MOL0     H 6210  -2.806   7.921   9.137 -0.6453  0.8344 -0.8397
  787MOL0     H 6211  -2.988   7.838   9.059  2.7394  0.8116 -1.1094
  787MOL0     H 6212  -3.040   7.997   9.009  0.0131 -0.3433  0.6504
  787MOL0     H 6213  -3.177   7.941   8.844  0.2542  0.5062  2.5160
  787MOL0     H 6214  -3.116   7.776   8.833  1.0640  0.8398 -0.4248
  787MOL0     H 6215  -3.260   7.855   9.092 -0.4498 -0.0795  0.5136
  787MOL0     H 6216  -3.236   7.702   9.025 -0.5874  0.8724 -0.4627
  787MOL0     H 6217  -3.412   7.920   8.915  0.1096  0.2395  1.5245
  787MOL0     H 6218  -3.380   7.771   8.818  0.2652 -1.6953  1.1944
  787MOL0     H 6219  -3.497   7.787   9.095  0.4124 -1.0276  0.9599
  787MOL0     H 6220  -3.453   7.634   9.021  0.4904 -0.3599  1.5522
  787MOL0     H 6221  -3.672   7.827   8.923  0.3816  0.2368  3.4707
  787MOL0     H 6222  -3.615   7.685   8.832 -1.1808 -0.4249 -0.3201
  787MOL0     H 6223  -3.774   7.715   9.094 -1.6329  2.0577 -2.8307
  787MOL0     H 6224  -3.667   7.575   9.074  1.8338  0.9190 -1.6266
  787MOL0     H 6225  -3.883   7.665   8.892 -0.9225  1.1503  2.1988
  787MOL0     H 6226  -3.914   7.552   9.028  1.9602  0.2922  2.8742
  787MOL0     H 6227  -2.695   7.831   8.741 -1.6888 -0.3108  0.9569
  787MOL0     H 6228  -2.454   7.813   8.811 -1.0357 -1.1314  0.5386
  787MOL0     H 6229  -2.256   7.743   9.194  1.4590 -1.2572  0.6493
  787MOL0     H 6230  -2.047   7.659   9.319 -2.7322 -0.1464 -1.5514
  787MOL0     H 6231   0.075   7.366   9.501  3.2810 -0.2271  1.1222
  787MOL0     H 6232   0.298   7.401   9.523  2.3754  0.3227 -1.1902
  787MOL0     H 6233   0.660   7.635   9.308 -0.3696 -3.6927 -0.7792
  787MOL0     H 6234   0.893   7.653   9.286  0.5394 -2.2033 -0.1304
  787MOL0     H 6235   1.169   7.701   9.650 -2.8632 -0.7071  1.1681
  787MOL0     H 6236   1.173   7.533   9.653 -0.4160  0.6227  1.4689
  787MOL0     H 6237   1.334   7.509   9.461 -1.6876  0.2116 -0.4357
  787MOL0     H 6238   1.407   7.580   9.596  0.0185 -0.1148 -0.9625
  787MOL0     H 6239   1.392   7.807   9.534  0.1242  2.1365 -1.4745
  787MOL0     H 6240   1.310   7.763   9.390  2.2530  2.5420 -1.2371
  787MOL0     H 6241   1.504   7.757   9.289  0.1763 -2.1222 -1.5622
  787MOL0     H 6242   1.491   7.593   9.334 -1.8675  0.5958  0.8159
  787MOL0     H 6243   1.823   7.676   9.550  0.5806  1.4070 -0.7986
  787MOL0     H 6244   0.934   7.589   9.715  2.1125  0.2435 -1.1170
  787MOL0     H 6245   0.697   7.575   9.730 -0.3009 -0.5042 -0.2532
  788MOL0     O 6246  10.131   0.013  10.954 -0.3946  0.0135  0.3623
  788MOL0     C 6247  10.180  -0.031  10.851 -0.1551  0.0420 -0.4568
  788MOL0     O 6248  10.131  -0.137  10.780  0.1103  0.2031 -0.3012
  788MOL0     C 6249  10.025  -0.209  10.824  0.0923  0.3863  0.3085
  788MOL0     C 6250  10.046  -0.322  10.898 -0.6880 -1.2057 -0.7260
  788MOL0     C 6251   9.942  -0.405  10.931 -0.6284  0.1320  0.2967
  788MOL0     C 6252   9.809  -0.377  10.905 -0.5702  0.3503  0.1020
  788MOL0     O 6253   9.714  -0.476  10.944 -0.7288 -0.4628 -0.1171
  788MOL0     C 6254   9.585  -0.431  10.965 -0.2820  0.1621  0.8434
  788MOL0     C 6255   9.485  -0.538  11.024  0.1951 -0.5099 -0.2615
  788MOL0     C 6256   9.362  -0.464  11.088 -0.5362  0.3233  0.3273
  788MOL0     C 6257   9.271  -0.573  11.149 -0.6506  0.6044 -0.0918
  788MOL0     C 6258   9.148  -0.497  11.203  0.0945 -1.0768  0.1105
  788MOL0     C 6259   9.032  -0.594  11.207  0.3354 -0.5772  0.5612
  788MOL0     C 6260   8.896  -0.529  11.244  0.4504 -0.3145 -0.0521
  788MOL0     C 6261   8.836  -0.459  11.124 -0.1040  0.2580  0.1111
  788MOL0     N 6262   8.692  -0.438  11.149 -0.4402 -0.2644 -0.3447
  788MOL0     C 6263   8.620  -0.341  11.235 -0.2829  0.1750  0.3486
  788MOL0     C 6264   8.486  -0.384  11.232  1.1642 -0.5422  0.5077
  788MOL0     C 6265   8.363  -0.312  11.286 -0.2724  0.1206 -0.3835
  788MOL0     C 6266   8.297  -0.224  11.180  0.3128  0.2248  0.0350
  788MOL0     C 6267   8.377  -0.098  11.141 -0.4973  0.3164  0.4522
  788MOL0     C 6268   8.284  -0.005  11.061 -0.9835 -0.4883  0.0557
  788MOL0     O 6269   8.182   0.052  11.140 -0.5318  0.4745  0.0241
  788MOL0     C 6270   8.071   0.095  11.072  0.6519  0.1733 -0.4428
  788MOL0     C 6271   8.004   0.197  11.137 -0.5221  0.8631  0.2103
  788MOL0     C 6272   7.887   0.253  11.077  0.2271  0.4175  0.1638
  788MOL0     C 6273   7.811   0.348  11.154 -0.5516  0.0438  1.0530
  788MOL0     C 6274   7.847   0.217  10.947 -0.2166  0.2640 -0.1092
  788MOL0     C 6275   7.722   0.269  10.888 -0.2454  0.7060  0.3141
  788MOL0     O 6276   7.730   0.291  10.748  0.0321 -0.5433  0.1954
  788MOL0     C 6277   7.618   0.264  10.670  0.9341  0.4175 -0.5286
  788MOL0     C 6278   7.525   0.359  10.612 -1.2816 -0.0748  0.7775
  788MOL0     C 6279   7.423   0.311  10.542  0.1534 -0.4420 -0.1307
  788MOL0     C 6280   7.388   0.178  10.522  0.2818  0.4034 -0.0781
  788MOL0     O 6281   7.282   0.122  10.458 -0.8315 -0.1735 -0.3907
  788MOL0     C 6282   7.174   0.210  10.418 -0.1446  0.0971  0.8077
  788MOL0     C 6283   7.076   0.143  10.322  0.1685  0.8550  0.1464
  788MOL0     C 6284   7.162   0.108  10.191 -0.2655 -0.4517 -0.6435
  788MOL0     C 6285   7.073   0.071  10.079 -0.2209 -0.2583 -0.6319
  788MOL0     C 6286   6.960  -0.023  10.123 -0.7167 -0.9287  0.5190
  788MOL0     C 6287   6.873  -0.039   9.997 -0.2442  0.8329 -0.0207
  788MOL0     C 6288   6.743  -0.125  10.023 -1.0099  1.0210 -0.6310
  788MOL0     C 6289   6.787  -0.277  10.045  0.1475  0.2794 -1.1046
  788MOL0    Cl 6290   6.632  -0.365  10.087 -0.7157 -0.1313 -0.0586
  788MOL0     C 6291   7.483   0.087  10.572 -0.1907 -0.4904 -0.3212
  788MOL0     C 6292   7.600   0.132  10.635 -0.4467 -1.5967 -0.7027
  788MOL0     O 6293   7.617   0.265  10.954  0.0644 -0.5404 -0.1517
  788MOL0     C 6294   7.922   0.118  10.882  0.1950 -0.2286  0.5625
  788MOL0     C 6295   8.025   0.046  10.945 -0.3268  0.3980  0.3126
  788MOL0     N 6296   8.486  -0.504  11.163 -0.3726  0.4802  0.0894
  788MOL0     N 6297   8.603  -0.537  11.119 -0.2332 -0.1053  0.6303
  788MOL0     C 6298   9.777  -0.263  10.829 -0.6687 -1.0388 -0.5487
  788MOL0     C 6299   9.890  -0.180  10.788  0.8703 -0.6214 -0.8622
  788MOL0     C 6300  10.297   0.031  10.787  0.0434  0.3632  0.5074
  788MOL0     C 6301  10.376   0.100  10.878 -0.0030  0.3025  0.2467
  788MOL0     C 6302  10.491   0.167  10.836 -0.3628  0.3791 -0.8869
  788MOL0     C 6303  10.523   0.165  10.700  0.1210  0.0841 -0.0855
  788MOL0     O 6304  10.624   0.234  10.640 -0.0505  0.1374  0.0074
  788MOL0     C 6305  10.733   0.285  10.712  0.1975 -0.2576  0.1912
  788MOL0     C 6306  10.852   0.292  10.607 -0.2860 -0.5155  1.0171
  788MOL0     C 6307  10.984   0.322  10.681  0.2275 -0.7685  0.1222
  788MOL0     C 6308  11.108   0.321  10.585 -0.0523 -0.4407 -0.0889
  788MOL0     C 6309  11.230   0.309  10.663 -0.7075 -0.3569 -0.7138
  788MOL0     C 6310  11.333   0.305  10.734  0.0622  0.6524 -0.5172
  788MOL0     C 6311  10.451   0.088  10.606  0.2642  0.4607 -0.4118
  788MOL0     C 6312  10.336   0.020  10.656  0.0669 -0.2086  0.0310
  788MOL0     H 6313  10.142  -0.330  10.947  0.4835  2.0583 -2.2536
  788MOL0     H 6314   9.967  -0.503  10.971 -0.6333  0.2834  0.6740
  788MOL0     H 6315   9.598  -0.342  11.026 -0.7908 -1.2395  3.1071
  788MOL0     H 6316   9.549  -0.402  10.866  0.4648 -0.0048  0.5133
  788MOL0     H 6317   9.457  -0.612  10.948 -1.1082 -0.3479  0.0510
  788MOL0     H 6318   9.542  -0.589  11.103 -0.3294 -0.0095  0.4449
  788MOL0     H 6319   9.393  -0.393  11.165  0.2131  0.1291  0.2046
  788MOL0     H 6320   9.311  -0.406  11.011  1.7081  0.5839 -1.0400
  788MOL0     H 6321   9.230  -0.645  11.078  3.5782 -2.5710  0.3278
  788MOL0     H 6322   9.324  -0.631  11.224 -0.4617 -1.4000 -1.6993
  788MOL0     H 6323   9.160  -0.456  11.304 -2.4973  0.5007 -0.1205
  788MOL0     H 6324   9.134  -0.409  11.139  2.8081  0.4715  1.4768
  788MOL0     H 6325   9.020  -0.647  11.112  0.9902  1.9924 -1.0508
  788MOL0     H 6326   9.055  -0.679  11.273 -0.9172 -2.1821 -0.9547
  788MOL0     H 6327   8.827  -0.606  11.281 -3.0395  2.6026 -0.0072
  788MOL0     H 6328   8.902  -0.458  11.326 -2.2722 -0.5637  0.4590
  788MOL0     H 6329   8.853  -0.516  11.032 -0.2515 -1.2632  0.9874
  788MOL0     H 6330   8.898  -0.370  11.109  0.1622  0.1911  0.7570
  788MOL0     H 6331   8.665  -0.260  11.290  2.0442  0.6173 -2.0681
  788MOL0     H 6332   8.303  -0.396  11.322  0.9304  0.4975  2.9024
  788MOL0     H 6333   8.384  -0.259  11.379  0.0855 -2.6684  1.2504
  788MOL0     H 6334   8.203  -0.189  11.225 -0.0742 -0.1357 -0.4806
  788MOL0     H 6335   8.269  -0.283  11.093 -1.2154 -3.2480  2.6113
  788MOL0     H 6336   8.462  -0.115  11.074  0.3267  1.2846  1.2089
  788MOL0     H 6337   8.414  -0.044  11.229  1.9718  0.3533 -0.5447
  788MOL0     H 6338   8.243  -0.053  10.971 -3.6643 -0.1699  1.0192
  788MOL0     H 6339   8.345   0.078  11.025 -2.3125  0.6997  0.4331
  788MOL0     H 6340   8.025   0.237  11.236 -1.2691 -1.2522  1.2945
  788MOL0     H 6341   7.781   0.438  11.099  1.0000  0.7028  1.2317
  788MOL0     H 6342   7.725   0.292  11.193 -0.1662 -1.1346  0.2735
  788MOL0     H 6343   7.867   0.393  11.237  0.1020  3.4811 -1.0273
  788MOL0     H 6344   7.527   0.466  10.632 -2.5015  0.4527 -1.5762
  788MOL0     H 6345   7.355   0.390  10.514  1.6068  2.5027  3.7017
  788MOL0     H 6346   7.126   0.239  10.511 -2.1772 -2.5586  0.7237
  788MOL0     H 6347   7.222   0.291  10.363  0.5407 -0.9976 -0.2888
  788MOL0     H 6348   7.025   0.062  10.375 -0.0184  0.2546 -0.9343
  788MOL0     H 6349   7.006   0.222  10.294  0.1486  0.1919 -1.8077
  788MOL0     H 6350   7.238   0.031  10.209  1.1040  0.8311 -0.6837
  788MOL0     H 6351   7.206   0.202  10.158  0.3299 -0.4078  0.2195
  788MOL0     H 6352   7.035   0.170  10.053 -0.5774 -0.1151  0.3873
  788MOL0     H 6353   7.132   0.044   9.991  1.0248 -1.2445  0.4790
  788MOL0     H 6354   6.896   0.028  10.196 -1.7213 -0.2516 -0.7764
  788MOL0     H 6355   6.990  -0.116  10.172  0.3453 -0.9267 -0.0999
  788MOL0     H 6356   6.846   0.061   9.963  0.2195  1.4207  1.2493
  788MOL0     H 6357   6.924  -0.097   9.920 -0.8563  1.2083 -0.7184
  788MOL0     H 6358   6.687  -0.124   9.929  2.0250 -2.4382 -2.7304
  788MOL0     H 6359   6.701  -0.070  10.108 -0.1842 -0.4205  0.7523
  788MOL0     H 6360   6.864  -0.292  10.122  1.0927 -2.2960 -2.4481
  788MOL0     H 6361   6.820  -0.331   9.956  0.4877 -1.0711 -0.1949
  788MOL0     H 6362   7.472  -0.017  10.545 -0.5079 -0.8977  1.2741
  788MOL0     H 6363   7.688   0.076  10.668  0.4348 -0.1216 -0.4742
  788MOL0     H 6364   7.877   0.094  10.786 -1.2232  0.3672  1.0522
  788MOL0     H 6365   8.063  -0.045  10.901  0.5974  0.1989  1.4695
  788MOL0     H 6366   9.673  -0.243  10.805 -0.7988 -2.8336 -1.6771
  788MOL0     H 6367   9.861  -0.089  10.736  0.4846 -0.7419 -0.8565
  788MOL0     H 6368  10.335   0.132  10.973 -2.7470  0.2103 -0.8086
  788MOL0     H 6369  10.556   0.210  10.912 -0.6262 -1.8769  0.7288
  788MOL0     H 6370  10.711   0.386  10.749  1.7732 -0.1880  1.0491
  788MOL0     H 6371  10.761   0.227  10.800 -0.4782  1.4060  1.5579
  788MOL0     H 6372  10.831   0.366  10.529  1.2937 -0.7124  0.3618
  788MOL0     H 6373  10.850   0.197  10.553  1.5496 -0.7766  1.3395
  788MOL0     H 6374  11.000   0.251  10.763  1.8408  2.7112  3.1091
  788MOL0     H 6375  10.971   0.421  10.725  0.0033  0.4457 -2.4779
  788MOL0     H 6376  11.118   0.420  10.539 -0.7804  0.1761  1.0240
  788MOL0     H 6377  11.094   0.246  10.506 -1.1273 -2.7942  2.1772
  788MOL0     H 6378  11.431   0.293  10.776 -0.1206 -1.9008 -0.7066
  788MOL0     H 6379  10.456   0.091  10.498 -1.4178 -0.6492 -0.5493
  788MOL0     H 6380  10.271  -0.034  10.589 -1.6760  2.4298 -0.5679
  789MOL0     O 6381   3.074   4.003   8.161  0.1882 -0.0278 -0.0228
  789MOL0     C 6382   3.137   4.103   8.206 -0.0049 -0.3577 -0.0567
  789MOL0     O 6383   3.082   4.228   8.251  0.4146  0.2446  0.4342
  789MOL0     C 6384   2.947   4.230   8.262 -0.6586 -0.1621 -0.1376
  789MOL0     C 6385   2.887   4.243   8.387 -0.3727 -0.7664 -0.3324
  789MOL0     C 6386   2.751   4.267   8.391  0.7695 -0.5688  0.6915
  789MOL0     C 6387   2.659   4.268   8.282 -0.4841  0.2269 -0.2674
  789MOL0     O 6388   2.518   4.265   8.284 -0.1205  0.1413 -0.0473
  789MOL0     C 6389   2.447   4.282   8.406 -0.2260  0.2880  0.2517
  789MOL0     C 6390   2.379   4.421   8.412  0.0709  0.0172 -0.2918
  789MOL0     C 6391   2.302   4.465   8.283  0.0107  1.0453 -0.2234
  789MOL0     C 6392   2.212   4.352   8.228  0.1153 -0.4033  0.3031
  789MOL0     C 6393   2.110   4.403   8.121  0.1097  1.0235  0.4776
  789MOL0     C 6394   1.993   4.479   8.190 -0.1603 -0.5628  0.5309
  789MOL0     C 6395   1.873   4.489   8.100  0.1302 -0.1997  0.3850
  789MOL0     C 6396   1.760   4.561   8.164 -0.4095  0.2623 -0.1749
  789MOL0     N 6397   1.647   4.472   8.190  0.2895 -0.2876 -0.4099
  789MOL0     C 6398   1.570   4.385   8.103 -0.3742 -0.8958 -0.5070
  789MOL0     C 6399   1.464   4.361   8.174  0.0277  0.2189  0.7528
  789MOL0     C 6400   1.369   4.248   8.136  0.1335  1.1169  0.0338
  789MOL0     C 6401   1.294   4.287   8.004  0.1402  0.2856 -0.7196
  789MOL0     C 6402   1.154   4.325   8.028  0.2397 -1.6177  0.0131
  789MOL0     C 6403   1.074   4.357   7.904 -0.4080  0.2412 -0.4606
  789MOL0     O 6404   0.938   4.327   7.914  1.1126  0.1668 -0.2167
  789MOL0     C 6405   0.853   4.416   7.971 -0.2555  0.2187  0.1574
  789MOL0     C 6406   0.866   4.557   7.997  0.1856 -0.0914  0.4025
  789MOL0     C 6407   0.756   4.634   8.043  0.3729 -0.2600 -0.7444
  789MOL0     C 6408   0.777   4.783   8.075 -0.0613 -0.0302  0.1907
  789MOL0     C 6409   0.634   4.569   8.085 -0.2085  0.4315 -0.0367
  789MOL0     C 6410   0.506   4.619   8.147  0.0653  0.1868  0.1611
  789MOL0     O 6411   0.396   4.545   8.160  0.6225 -0.4272  0.2842
  789MOL0     C 6412   0.284   4.605   8.211 -0.3680  0.1745 -0.6539
  789MOL0     C 6413   0.179   4.652   8.130 -0.3240  0.2321  0.3829
  789MOL0     C 6414   0.059   4.685   8.183 -0.4812  0.2257  0.6700
  789MOL0     C 6415   0.044   4.697   8.323  0.6835 -0.2941 -0.3302
  789MOL0     O 6416  -0.067   4.733   8.393 -0.1766 -0.1903  0.3703
  789MOL0     C 6417  -0.194   4.720   8.338 -0.4685 -0.1594 -0.1302
  789MOL0     C 6418  -0.295   4.786   8.426  0.1433  0.2804 -0.2874
  789MOL0     C 6419  -0.437   4.778   8.364  0.3623  0.5517 -0.0665
  789MOL0     C 6420  -0.541   4.874   8.434 -0.3396  0.5791 -0.3081
  789MOL0     C 6421  -0.671   4.858   8.360 -0.1810 -0.1228 -0.1759
  789MOL0     C 6422  -0.789   4.937   8.437 -0.0178  0.5982  0.3808
  789MOL0     C 6423  -0.779   5.095   8.443  0.3112 -0.3103  0.0512
  789MOL0     C 6424  -0.780   5.142   8.307  0.1886 -0.6867 -0.3677
  789MOL0    Cl 6425  -0.941   5.124   8.228 -0.0829  0.1574  0.1029
  789MOL0     C 6426   0.154   4.659   8.403  0.8077 -0.5725  0.0343
  789MOL0     C 6427   0.272   4.616   8.348 -0.2648 -0.4368  0.6248
  789MOL0     O 6428   0.522   4.730   8.190  0.3384 -0.7269 -0.9407
  789MOL0     C 6429   0.632   4.430   8.067 -0.1758  0.3732  0.3330
  789MOL0     C 6430   0.734   4.359   8.017 -0.1678 -0.2042  0.8331
  789MOL0     N 6431   1.463   4.422   8.297 -0.8935 -0.8583 -0.2452
  789MOL0     N 6432   1.574   4.489   8.308 -0.3078  0.6345 -0.0728
  789MOL0     C 6433   2.724   4.255   8.152  0.8717  0.9285  0.4227
  789MOL0     C 6434   2.861   4.237   8.147 -0.8847  0.0399  0.0811
  789MOL0     C 6435   3.279   4.078   8.223 -0.2062 -1.3165  0.3538
  789MOL0     C 6436   3.331   3.951   8.211 -0.1408  0.0750  0.0454
  789MOL0     C 6437   3.464   3.930   8.230  0.2285  0.0250 -0.2198
  789MOL0     C 6438   3.552   4.037   8.255  0.3386 -0.0326  0.3725
  789MOL0     O 6439   3.686   4.031   8.282 -0.0319  0.3993  0.3441
  789MOL0     C 6440   3.753   3.908   8.288 -0.0974  1.1709  0.1503
  789MOL0     C 6441   3.791   3.867   8.143 -0.1853 -0.5134 -1.0545
  789MOL0     C 6442   3.886   3.744   8.121 -0.1821  1.0366  0.9597
  789MOL0     C 6443   3.822   3.606   8.156 -0.1669  0.7766  0.2424
  789MOL0     C 6444   3.696   3.564   8.091 -0.1560  0.1774 -0.1353
  789MOL0     C 6445   3.592   3.534   8.035 -0.3236 -0.3661 -0.0374
  789MOL0     C 6446   3.493   4.171   8.260  0.4111  0.0031 -0.7098
  789MOL0     C 6447   3.356   4.196   8.243 -0.4117  0.8749 -0.3713
  789MOL0     H 6448   2.945   4.237   8.479 -0.7692  1.4302  0.1293
  789MOL0     H 6449   2.701   4.267   8.487 -2.5542 -0.4879 -0.8947
  789MOL0     H 6450   2.365   4.211   8.416 -0.8395  0.9140 -0.2135
  789MOL0     H 6451   2.509   4.282   8.496  0.7351  1.0428 -0.3808
  789MOL0     H 6452   2.306   4.433   8.492  0.5420  1.0565 -0.0031
  789MOL0     H 6453   2.459   4.494   8.428  1.7624 -1.1332 -2.8142
  789MOL0     H 6454   2.253   4.561   8.303  0.2931  1.7413 -2.5455
  789MOL0     H 6455   2.370   4.492   8.202 -1.0136  0.6958 -1.2246
  789MOL0     H 6456   2.270   4.275   8.178 -0.7283  0.9550 -3.0273
  789MOL0     H 6457   2.156   4.319   8.316 -4.0216  4.4069 -0.0204
  789MOL0     H 6458   2.157   4.471   8.050 -3.1413  1.0506 -1.8962
  789MOL0     H 6459   2.070   4.316   8.067  1.6407  0.5126  0.1238
  789MOL0     H 6460   1.966   4.425   8.281  0.1400  2.0582  2.2788
  789MOL0     H 6461   2.014   4.582   8.217 -0.3491  0.0237 -1.4111
  789MOL0     H 6462   1.894   4.554   8.014 -1.2452  5.5547  3.8356
  789MOL0     H 6463   1.843   4.388   8.072 -1.0001  0.0800  0.5370
  789MOL0     H 6464   1.717   4.641   8.103 -3.5795 -0.0733  1.4298
  789MOL0     H 6465   1.794   4.608   8.256  0.2677 -0.1914 -0.1861
  789MOL0     H 6466   1.593   4.349   8.003  0.6975  2.7801 -1.7479
  789MOL0     H 6467   1.424   4.154   8.129 -1.6895  0.1221 -2.8260
  789MOL0     H 6468   1.301   4.249   8.222  3.0848  0.4443  2.5117
  789MOL0     H 6469   1.298   4.206   7.931 -0.5122 -0.3051 -0.1127
  789MOL0     H 6470   1.348   4.371   7.957 -2.0343  3.2473  1.6629
  789MOL0     H 6471   1.135   4.395   8.110 -0.8069  0.1453 -1.6488
  789MOL0     H 6472   1.098   4.242   8.072 -0.9332  0.8927  3.7689
  789MOL0     H 6473   1.116   4.304   7.818 -0.1844 -0.2007 -0.0851
  789MOL0     H 6474   1.095   4.461   7.879  0.3750 -0.1351 -1.4582
  789MOL0     H 6475   0.959   4.603   7.968 -0.1109 -0.9155 -2.1682
  789MOL0     H 6476   0.869   4.793   8.133  0.5705  2.8344 -1.1272
  789MOL0     H 6477   0.797   4.827   7.977 -1.8285  1.3910  0.4317
  789MOL0     H 6478   0.705   4.853   8.116  1.6578  1.7523  0.3134
  789MOL0     H 6479   0.188   4.647   8.022  1.6792  1.5704  0.4394
  789MOL0     H 6480  -0.021   4.706   8.113 -1.5095  2.5383  2.4096
  789MOL0     H 6481  -0.192   4.770   8.241  0.3272 -1.0906 -0.6188
  789MOL0     H 6482  -0.223   4.615   8.325  0.5521 -0.4964  0.1816
  789MOL0     H 6483  -0.303   4.733   8.521 -1.5062  1.3852  0.2434
  789MOL0     H 6484  -0.264   4.891   8.432  2.5178 -0.2551 -1.9508
  789MOL0     H 6485  -0.473   4.674   8.356  1.4182  0.1304  0.5569
  789MOL0     H 6486  -0.428   4.819   8.263  4.0364  0.5049  0.1073
  789MOL0     H 6487  -0.553   4.846   8.539  0.4577  3.5853  0.6660
  789MOL0     H 6488  -0.503   4.976   8.439 -0.7128  0.7235 -0.3724
  789MOL0     H 6489  -0.702   4.754   8.348 -1.2379 -0.3729  3.5565
  789MOL0     H 6490  -0.650   4.899   8.260  1.9877  1.7950  0.9692
  789MOL0     H 6491  -0.881   4.905   8.387 -0.5742 -0.5136  2.0430
  789MOL0     H 6492  -0.798   4.902   8.540 -2.1985 -0.4765 -0.1170
  789MOL0     H 6493  -0.702   5.132   8.511 -3.1992  4.3664  2.0489
  789MOL0     H 6494  -0.873   5.120   8.494 -0.1020 -1.0252 -0.3415
  789MOL0     H 6495  -0.708   5.090   8.243  0.7481 -1.6589  1.0027
  789MOL0     H 6496  -0.766   5.251   8.301  0.6417 -0.7522 -0.5668
  789MOL0     H 6497   0.138   4.666   8.510  2.4241  3.9341  0.1949
  789MOL0     H 6498   0.364   4.592   8.399  1.1980 -0.7302 -2.0005
  789MOL0     H 6499   0.545   4.373   8.098  1.8274 -2.6430  0.8082
  789MOL0     H 6500   0.737   4.251   8.001  1.7866  0.0120 -0.7362
  789MOL0     H 6501   2.661   4.264   8.064 -2.4077 -0.3557  2.4261
  789MOL0     H 6502   2.923   4.226   8.059  2.7381 -0.1100  2.4246
  789MOL0     H 6503   3.266   3.865   8.198 -1.6735  1.2974 -0.7099
  789MOL0     H 6504   3.505   3.831   8.215 -1.3312 -0.9446  1.5141
  789MOL0     H 6505   3.844   3.926   8.346 -0.4322  0.7297  0.8272
  789MOL0     H 6506   3.694   3.824   8.326  0.1010  1.5300  1.2699
  789MOL0     H 6507   3.853   3.949   8.105  0.1292 -0.3155 -0.1346
  789MOL0     H 6508   3.700   3.861   8.083 -1.1268 -2.5485  0.4401
  789MOL0     H 6509   3.976   3.760   8.181  1.8414 -3.2891 -0.5509
  789MOL0     H 6510   3.914   3.728   8.016 -2.4273 -1.3623  0.6215
  789MOL0     H 6511   3.805   3.618   8.264  0.9968 -1.6964  0.7694
  789MOL0     H 6512   3.898   3.529   8.140  1.3296  1.6624  2.5285
  789MOL0     H 6513   3.510   3.511   7.970 -0.1735 -1.0675  0.0203
  789MOL0     H 6514   3.560   4.257   8.267  0.7462 -0.1133 -2.0496
  789MOL0     H 6515   3.322   4.299   8.239  0.2096  1.0485 -2.8265
  790MOL0     O 6516   0.814   3.598   8.040 -0.7629  0.9784 -0.1758
  790MOL0     C 6517   0.692   3.591   8.025 -0.5979  0.2023 -0.0040
  790MOL0     O 6518   0.621   3.481   8.005 -0.4461 -0.3560  0.1630
  790MOL0     C 6519   0.689   3.362   8.002 -0.1423  0.2085  0.7472
  790MOL0     C 6520   0.789   3.334   7.908 -0.6615  0.3949  0.6930
  790MOL0     C 6521   0.837   3.202   7.895  0.6198  0.1601 -0.5904
  790MOL0     C 6522   0.795   3.098   7.981 -0.2205 -0.6376  0.4803
  790MOL0     O 6523   0.823   2.973   7.936 -0.6133  0.0481  0.4195
  790MOL0     C 6524   0.793   2.866   8.028 -1.0623  0.0412 -0.5280
  790MOL0     C 6525   0.673   2.783   7.975  0.1953 -0.0903  0.1976
  790MOL0     C 6526   0.544   2.846   8.014  0.4846 -1.4927  0.5593
  790MOL0     C 6527   0.433   2.760   7.962  0.6509  0.2111  0.0451
  790MOL0     C 6528   0.311   2.817   8.025  0.1611 -1.1924  0.4483
  790MOL0     C 6529   0.248   2.922   7.933 -0.0790 -0.1457 -0.1168
  790MOL0     C 6530   0.100   2.950   7.965  0.5154 -0.7642 -0.4836
  790MOL0     C 6531   0.016   3.023   7.858  0.1714 -0.0634 -0.4498
  790MOL0     N 6532  -0.120   3.069   7.899  0.6228 -0.0490  0.0089
  790MOL0     C 6533  -0.183   3.170   7.834  0.1267 -0.8042 -0.4006
  790MOL0     C 6534  -0.310   3.158   7.887  0.6686 -0.8087  1.0054
  790MOL0     C 6535  -0.426   3.254   7.871 -0.7975 -0.2097  0.1537
  790MOL0     C 6536  -0.468   3.249   7.726  0.1454 -0.2364 -0.4669
  790MOL0     C 6537  -0.594   3.319   7.683  0.0520  0.9236  0.1072
  790MOL0     C 6538  -0.725   3.275   7.762 -0.4306  0.6372  0.2921
  790MOL0     O 6539  -0.834   3.334   7.690 -0.3819 -0.4581 -0.1139
  790MOL0     C 6540  -0.943   3.252   7.645 -0.2565  0.3531 -0.3087
  790MOL0     C 6541  -0.996   3.157   7.722  0.7848 -0.5028  0.2253
  790MOL0     C 6542  -1.111   3.079   7.686  0.6320  0.0597  0.2606
  790MOL0     C 6543  -1.177   2.994   7.791 -0.1259  0.2831  0.7350
  790MOL0     C 6544  -1.169   3.109   7.558  0.0173  0.2604  0.7992
  790MOL0     C 6545  -1.297   3.066   7.521 -0.9979  0.7365 -0.5937
  790MOL0     O 6546  -1.367   3.153   7.444  0.7975  0.3105  0.2068
  790MOL0     C 6547  -1.492   3.125   7.385  0.0008  0.9855 -0.1032
  790MOL0     C 6548  -1.599   3.074   7.467 -0.4703  0.7185  0.2160
  790MOL0     C 6549  -1.728   3.055   7.412  0.6653 -0.5823  0.2673
  790MOL0     C 6550  -1.768   3.105   7.287  0.2180 -0.1348 -0.9540
  790MOL0     O 6551  -1.898   3.092   7.240  0.1284 -0.5887 -0.9666
  790MOL0     C 6552  -1.909   3.085   7.101  0.0817  0.0613  0.1533
  790MOL0     C 6553  -1.969   3.209   7.048 -1.4023  0.2145  0.3195
  790MOL0     C 6554  -1.992   3.196   6.892 -0.4744 -0.1313  0.6218
  790MOL0     C 6555  -2.061   3.315   6.834  0.4708 -0.5999  0.3395
  790MOL0     C 6556  -2.207   3.333   6.890  0.3437 -0.1844  0.5855
  790MOL0     C 6557  -2.275   3.453   6.822 -0.5010  0.0768 -0.8642
  790MOL0     C 6558  -2.427   3.473   6.874  0.0647 -0.6029  0.4893
  790MOL0     C 6559  -2.486   3.590   6.795 -0.5322 -0.4062 -0.0682
  790MOL0    Cl 6560  -2.641   3.644   6.856  0.0601  0.0698  0.0153
  790MOL0     C 6561  -1.664   3.169   7.215 -0.1350  0.1456 -0.0620
  790MOL0     C 6562  -1.527   3.176   7.263  0.6833  0.1379 -0.0722
  790MOL0     O 6563  -1.334   2.952   7.556 -0.2137  0.4763  0.1170
  790MOL0     C 6564  -1.106   3.211   7.479  0.3503 -0.9265 -0.1128
  790MOL0     C 6565  -0.990   3.278   7.519 -0.1467  0.1638 -0.5872
  790MOL0     N 6566  -0.311   3.058   7.981  0.3198  1.0306  0.5527
  790MOL0     N 6567  -0.192   3.003   7.993  0.5173 -0.2833 -0.2102
  790MOL0     C 6568   0.709   3.134   8.092 -0.1756 -0.3594 -0.4597
  790MOL0     C 6569   0.654   3.262   8.094  0.2287  0.5080  0.2545
  790MOL0     C 6570   0.614   3.717   8.031  0.5628  0.1584  0.3595
  790MOL0     C 6571   0.673   3.822   8.086 -0.9424 -1.0403 -0.4696
  790MOL0     C 6572   0.609   3.948   8.092 -0.7393 -0.1957  0.9095
  790MOL0     C 6573   0.482   3.961   8.038  0.6413 -0.6757  0.0168
  790MOL0     O 6574   0.421   4.082   8.035  0.2117  0.4761  0.5209
  790MOL0     C 6575   0.278   4.090   8.011 -0.0776  0.4518  0.2030
  790MOL0     C 6576   0.223   4.203   8.086  0.0829 -0.1362  0.7714
  790MOL0     C 6577   0.092   4.254   8.027  0.1149 -0.1907  0.1754
  790MOL0     C 6578  -0.003   4.338   8.123  0.0796 -0.8095  0.4124
  790MOL0     C 6579  -0.110   4.400   8.042 -0.1777 -0.7822  0.3886
  790MOL0     C 6580  -0.207   4.456   7.993 -0.5407 -0.0872 -0.4000
  790MOL0     C 6581   0.422   3.844   7.981 -0.1063  0.4805  0.0726
  790MOL0     C 6582   0.490   3.726   7.982 -0.1948  0.0803  0.7354
  790MOL0     H 6583   0.823   3.411   7.840 -3.1829 -0.1810 -1.3794
  790MOL0     H 6584   0.912   3.178   7.820 -0.2673  0.0397 -1.4531
  790MOL0     H 6585   0.883   2.804   8.027 -0.4711  0.8565  0.1940
  790MOL0     H 6586   0.789   2.890   8.135  3.4174 -2.6089  0.5006
  790MOL0     H 6587   0.688   2.778   7.866 -1.9851  0.8737 -0.1978
  790MOL0     H 6588   0.677   2.686   8.026  1.0923  0.6922  1.6696
  790MOL0     H 6589   0.533   2.853   8.122  1.1866  1.3562  0.5082
  790MOL0     H 6590   0.538   2.945   7.968  0.8420 -1.4910  0.5117
  790MOL0     H 6591   0.432   2.770   7.853 -2.2849 -3.4248 -0.5020
  790MOL0     H 6592   0.440   2.652   7.982 -0.5661 -0.1475 -1.2462
  790MOL0     H 6593   0.240   2.734   8.034 -1.9362 -0.0250 -3.4108
  790MOL0     H 6594   0.334   2.853   8.126 -2.2446 -2.2868  1.4626
  790MOL0     H 6595   0.304   3.015   7.942  0.1727 -0.4694  3.1276
  790MOL0     H 6596   0.238   2.894   7.828  0.6588 -2.7862  0.4242
  790MOL0     H 6597   0.044   2.857   7.984  0.6952 -0.8746 -0.4945
  790MOL0     H 6598   0.099   3.013   8.055 -0.7237 -2.1198  0.5133
  790MOL0     H 6599   0.017   2.958   7.769  0.5848 -0.4951 -0.1356
  790MOL0     H 6600   0.069   3.113   7.826  0.3656 -0.6716 -1.9325
  790MOL0     H 6601  -0.143   3.246   7.767 -1.1726  0.3072  0.0392
  790MOL0     H 6602  -0.510   3.214   7.930 -1.9486 -2.9725 -3.0134
  790MOL0     H 6603  -0.395   3.352   7.908  2.6506 -1.8470  2.0989
  790MOL0     H 6604  -0.479   3.144   7.698 -0.8011 -0.3329  0.2099
  790MOL0     H 6605  -0.385   3.291   7.668  0.9541 -1.1288  0.0200
  790MOL0     H 6606  -0.625   3.298   7.580 -0.7594 -2.4737  0.9162
  790MOL0     H 6607  -0.574   3.425   7.702  1.2509  0.4314  1.9015
  790MOL0     H 6608  -0.718   3.296   7.869  1.2346 -1.9615  0.7796
  790MOL0     H 6609  -0.723   3.166   7.767 -0.2194  0.6132 -0.1844
  790MOL0     H 6610  -0.956   3.165   7.822  4.0536  0.0219 -0.9884
  790MOL0     H 6611  -1.284   3.017   7.795 -0.2136  0.0684 -0.2265
  790MOL0     H 6612  -1.161   2.890   7.761 -0.0747  0.3670  0.4729
  790MOL0     H 6613  -1.123   3.006   7.886  1.7763 -0.3259 -0.2280
  790MOL0     H 6614  -1.576   3.045   7.570  2.0964  1.9834  0.0774
  790MOL0     H 6615  -1.804   3.009   7.476 -0.9051 -0.2317 -1.2700
  790MOL0     H 6616  -1.821   3.044   7.050  0.0177  0.2560 -0.1208
  790MOL0     H 6617  -1.973   2.996   7.096  3.1023 -2.2573 -0.4754
  790MOL0     H 6618  -2.059   3.235   7.106 -1.3249  0.2135  0.4404
  790MOL0     H 6619  -1.904   3.294   7.068 -2.3795  1.1863 -0.5129
  790MOL0     H 6620  -2.054   3.110   6.864  1.6003 -1.7380  0.6753
  790MOL0     H 6621  -1.896   3.173   6.846 -0.0575 -2.5029  2.4718
  790MOL0     H 6622  -2.002   3.407   6.840 -1.6972  1.3152 -3.8555
  790MOL0     H 6623  -2.076   3.301   6.726  0.8813  1.6294 -0.0428
  790MOL0     H 6624  -2.202   3.350   6.998 -0.1810 -0.8499  0.7202
  790MOL0     H 6625  -2.264   3.242   6.870 -1.0023  0.8039 -0.3009
  790MOL0     H 6626  -2.223   3.546   6.846  0.3570 -0.7347  0.5170
  790MOL0     H 6627  -2.285   3.446   6.713 -0.0942  1.7603 -1.0447
  790MOL0     H 6628  -2.422   3.493   6.982  2.6072 -1.2303  0.5584
  790MOL0     H 6629  -2.472   3.377   6.844  0.3633 -0.8841  0.9283
  790MOL0     H 6630  -2.496   3.557   6.691 -2.1662 -1.8948  0.5117
  790MOL0     H 6631  -2.420   3.677   6.801  1.7474 -2.0708  0.4576
  790MOL0     H 6632  -1.687   3.210   7.117 -0.5821 -1.9591 -0.8911
  790MOL0     H 6633  -1.464   3.234   7.197 -1.9278 -0.5248 -3.4399
  790MOL0     H 6634  -1.150   3.242   7.385 -0.3224 -1.6392 -0.0373
  790MOL0     H 6635  -0.936   3.350   7.458  0.3241  0.4140  0.1176
  790MOL0     H 6636   0.669   3.071   8.171  2.2157 -2.9241 -1.1674
  790MOL0     H 6637   0.595   3.302   8.175 -0.9375  3.6735 -1.9382
  790MOL0     H 6638   0.772   3.822   8.130 -0.3416  2.3289 -1.5199
  790MOL0     H 6639   0.660   4.037   8.126  1.1868 -0.1335 -1.7521
  790MOL0     H 6640   0.267   4.107   7.903 -1.8170 -0.7591  0.1615
  790MOL0     H 6641   0.217   4.006   8.044 -0.0448  0.0321 -0.7611
  790MOL0     H 6642   0.289   4.289   8.101  0.1236  0.0787 -0.5480
  790MOL0     H 6643   0.195   4.172   8.187  3.4789 -0.0938  1.8467
  790MOL0     H 6644   0.023   4.173   8.004 -1.0386  0.2900  1.7609
  790MOL0     H 6645   0.121   4.314   7.940  0.5510  0.1340  0.5378
  790MOL0     H 6646   0.060   4.414   8.168  2.6774 -3.5304  1.7028
  790MOL0     H 6647  -0.052   4.277   8.200 -0.1649 -0.3609  0.6176
  790MOL0     H 6648  -0.299   4.496   7.955  0.1436  2.8389  0.7841
  790MOL0     H 6649   0.331   3.852   7.923 -1.1303 -3.7535  0.7857
  790MOL0     H 6650   0.447   3.641   7.931  2.2183 -1.1432  0.5925
  791MOL0     O 6651   8.831   1.724   1.177  0.3618  0.0597 -0.0352
  791MOL0     C 6652   8.793   1.685   1.066  0.8565  0.0571  0.3738
  791MOL0     O 6653   8.870   1.619   0.979  0.0994 -0.0471  0.2225
  791MOL0     C 6654   9.005   1.626   0.992 -0.2932 -0.2257 -0.1869
  791MOL0     C 6655   9.064   1.563   1.102 -0.5221  0.0774  0.4564
  791MOL0     C 6656   9.209   1.554   1.114  1.1296 -0.4449 -0.7690
  791MOL0     C 6657   9.289   1.625   1.015  0.8146  1.0373  0.0595
  791MOL0     O 6658   9.425   1.646   1.025 -0.3531 -0.1009  0.1818
  791MOL0     C 6659   9.458   1.766   1.103  0.4669  0.6219  0.2563
  791MOL0     C 6660   9.593   1.748   1.182 -0.1157 -0.5415 -0.4266
  791MOL0     C 6661   9.581   1.659   1.308 -0.0944 -0.2063 -0.3275
  791MOL0     C 6662   9.707   1.655   1.390  0.5184 -1.2783  0.2624
  791MOL0     C 6663   9.796   1.541   1.345 -0.5534  0.0330 -0.5353
  791MOL0     C 6664   9.926   1.522   1.431 -0.7263  0.3980  0.1012
  791MOL0     C 6665   9.994   1.388   1.393  1.6289  0.2138  0.5193
  791MOL0     C 6666  10.029   1.372   1.242 -0.1103 -0.0573 -0.5308
  791MOL0     N 6667  10.124   1.476   1.207 -0.7126 -0.3032  0.1130
  791MOL0     C 6668  10.100   1.607   1.171  0.1959 -0.1991  0.8600
  791MOL0     C 6669  10.227   1.650   1.136 -0.0582  0.1275 -0.1067
  791MOL0     C 6670  10.278   1.786   1.089  0.3427 -0.0202 -0.3219
  791MOL0     C 6671  10.157   1.884   1.074 -0.7183 -0.1664  0.4763
  791MOL0     C 6672  10.069   1.843   0.951  0.1306 -0.1283  0.1262
  791MOL0     C 6673   9.932   1.912   0.967  0.0936 -0.0546  0.7609
  791MOL0     O 6674   9.854   1.882   0.848 -0.4499  0.5409  0.3888
  791MOL0     C 6675   9.733   1.944   0.830  0.0432 -0.1900 -0.7368
  791MOL0     C 6676   9.662   2.022   0.918 -0.0847 -0.9009  0.5689
  791MOL0     C 6677   9.530   2.074   0.894 -0.3256  0.0721  0.1828
  791MOL0     C 6678   9.474   2.165   1.006 -0.5751 -0.1239  0.3942
  791MOL0     C 6679   9.462   2.030   0.780 -0.9390 -0.3093 -0.4431
  791MOL0     C 6680   9.329   2.072   0.740  0.4775 -0.4284  0.0124
  791MOL0     O 6681   9.262   1.979   0.664 -0.1137 -0.3941 -0.6135
  791MOL0     C 6682   9.166   2.033   0.586  0.5266 -0.9393 -0.7605
  791MOL0     C 6683   9.188   2.116   0.471  0.2753  0.0203 -0.0906
  791MOL0     C 6684   9.080   2.167   0.394 -0.1893 -0.1462  0.1089
  791MOL0     C 6685   8.945   2.129   0.419  0.0274 -0.1458  0.8448
  791MOL0     O 6686   8.830   2.171   0.341  0.1151  0.3818  0.2779
  791MOL0     C 6687   8.821   2.315   0.312  0.3064  0.0183 -0.7407
  791MOL0     C 6688   8.673   2.339   0.318  0.6486  0.1323 -0.4710
  791MOL0     C 6689   8.597   2.301   0.197 -0.1609  0.4612  0.2218
  791MOL0     C 6690   8.450   2.342   0.214 -0.6030 -0.4432  0.4819
  791MOL0     C 6691   8.360   2.260   0.120 -0.8105  0.0394  0.3170
  791MOL0     C 6692   8.210   2.264   0.152 -0.2346 -1.0667 -0.4052
  791MOL0     C 6693   8.113   2.211   0.043 -0.4730  0.7064  0.3126
  791MOL0     C 6694   7.968   2.228   0.063 -1.2773  0.8998 -0.4060
  791MOL0    Cl 6695   7.931   2.405   0.084  0.2745 -0.0180 -0.0375
  791MOL0     C 6696   8.927   2.053   0.531  0.5107  0.2850  0.5059
  791MOL0     C 6697   9.029   1.999   0.611  0.0689 -0.1947 -0.4138
  791MOL0     O 6698   9.279   2.169   0.794 -0.2046 -0.4651 -0.0397
  791MOL0     C 6699   9.528   1.944   0.695  0.2724  2.1586  0.6198
  791MOL0     C 6700   9.665   1.908   0.717 -0.1097  0.8329 -0.6145
  791MOL0     N 6701  10.326   1.553   1.163 -0.3853  0.0713 -0.7902
  791MOL0     N 6702  10.257   1.449   1.204  1.2904  0.9803 -0.6971
  791MOL0     C 6703   9.222   1.688   0.910  0.6448 -0.2699 -0.0563
  791MOL0     C 6704   9.084   1.697   0.895 -0.6005 -0.2868  1.0322
  791MOL0     C 6705   8.655   1.706   1.031 -0.3366  0.1765  0.2234
  791MOL0     C 6706   8.600   1.663   0.903  0.0881 -0.3534 -0.1458
  791MOL0     C 6707   8.468   1.692   0.878  0.0113 -0.1074  0.3675
  791MOL0     C 6708   8.390   1.759   0.963  0.4212 -0.0495 -0.2108
  791MOL0     O 6709   8.256   1.784   0.937  0.0746 -0.0343  0.3156
  791MOL0     C 6710   8.188   1.728   0.826 -0.1622  0.1498  0.3544
  791MOL0     C 6711   8.042   1.761   0.833 -0.3967  0.5532 -0.1861
  791MOL0     C 6712   8.012   1.911   0.824  0.4867 -0.5656 -0.1048
  791MOL0     C 6713   7.863   1.935   0.873  0.2173  0.2599  0.3259
  791MOL0     C 6714   7.775   1.875   0.768  0.0648  0.5675  0.7756
  791MOL0     C 6715   7.703   1.809   0.692 -0.3709 -0.4483 -0.0021
  791MOL0     C 6716   8.433   1.797   1.085 -0.8813  0.2121 -0.1041
  791MOL0     C 6717   8.566   1.777   1.121 -0.2480  0.0067 -0.4544
  791MOL0     H 6718   9.008   1.522   1.186  1.7633 -2.5294  0.8619
  791MOL0     H 6719   9.251   1.496   1.196 -0.5256  2.7358  2.6396
  791MOL0     H 6720   9.463   1.850   1.033  0.6131 -0.4421 -1.0543
  791MOL0     H 6721   9.382   1.792   1.177 -1.1724  1.5129 -1.6366
  791MOL0     H 6722   9.664   1.709   1.108  0.9271  0.9634 -0.2679
  791MOL0     H 6723   9.628   1.846   1.215  0.7304 -1.0757  0.2952
  791MOL0     H 6724   9.500   1.703   1.367 -0.7302 -0.2479 -1.1469
  791MOL0     H 6725   9.537   1.561   1.285 -0.8651  0.3114 -1.1381
  791MOL0     H 6726   9.768   1.745   1.386  0.1600 -1.0788 -2.0881
  791MOL0     H 6727   9.674   1.632   1.492 -1.1587 -0.2458 -0.0064
  791MOL0     H 6728   9.739   1.447   1.348 -0.5228  0.0330  0.7313
  791MOL0     H 6729   9.832   1.561   1.244 -0.0284  0.3814 -0.2799
  791MOL0     H 6730   9.993   1.608   1.425 -0.9027  0.6937  1.7882
  791MOL0     H 6731   9.894   1.514   1.535  3.4984  1.3596  1.6608
  791MOL0     H 6732  10.089   1.377   1.447  1.9465 -3.0560 -0.4787
  791MOL0     H 6733   9.918   1.314   1.420 -0.3121  0.5859 -3.2415
  791MOL0     H 6734   9.941   1.377   1.178  0.4867  1.8590 -1.2666
  791MOL0     H 6735  10.078   1.274   1.234  0.4037  0.1658 -0.1447
  791MOL0     H 6736  10.003   1.656   1.171 -0.1169 -0.7881  1.6160
  791MOL0     H 6737  10.355   1.826   1.156  1.0050  1.9136 -2.1550
  791MOL0     H 6738  10.323   1.772   0.990  0.1482 -0.6024 -0.3335
  791MOL0     H 6739  10.181   1.990   1.063 -1.9913  0.0977  0.0662
  791MOL0     H 6740  10.092   1.887   1.162 -1.6717 -1.9789 -0.1298
  791MOL0     H 6741  10.058   1.734   0.948 -1.5490  0.0127 -2.8919
  791MOL0     H 6742  10.109   1.872   0.853 -2.0604 -0.7326 -1.0206
  791MOL0     H 6743   9.934   2.022   0.972 -0.8199 -0.0273  0.6374
  791MOL0     H 6744   9.883   1.881   1.059  0.5590  0.6040  1.2447
  791MOL0     H 6745   9.709   2.052   1.011 -2.4853  0.0721  1.5511
  791MOL0     H 6746   9.538   2.163   1.094  1.9079  2.8756 -1.1517
  791MOL0     H 6747   9.468   2.270   0.977 -3.1956 -0.0621  0.9810
  791MOL0     H 6748   9.375   2.125   1.026 -0.3066 -0.9266  0.1743
  791MOL0     H 6749   9.287   2.141   0.435  0.8778 -2.7622 -0.5474
  791MOL0     H 6750   9.099   2.235   0.312  2.7460  0.4324  1.1603
  791MOL0     H 6751   8.872   2.377   0.386  0.5271 -1.6195  0.5339
  791MOL0     H 6752   8.858   2.349   0.215 -0.1312  1.9430 -0.2713
  791MOL0     H 6753   8.635   2.291   0.409 -3.0200  3.6783  0.1754
  791MOL0     H 6754   8.660   2.444   0.344  2.6939  0.3932 -0.3433
  791MOL0     H 6755   8.606   2.193   0.181  2.2958  0.1889  2.7554
  791MOL0     H 6756   8.640   2.347   0.107 -1.7543  0.0181 -0.8238
  791MOL0     H 6757   8.417   2.319   0.316 -1.2992 -1.5515  0.0240
  791MOL0     H 6758   8.434   2.450   0.206  0.1100 -0.3948 -0.3412
  791MOL0     H 6759   8.391   2.155   0.120 -0.6066  0.0855 -0.6346
  791MOL0     H 6760   8.373   2.307   0.022  1.6681  2.7057  1.7806
  791MOL0     H 6761   8.197   2.219   0.251 -1.3654 -0.3570 -0.2093
  791MOL0     H 6762   8.199   2.371   0.172  2.2302 -0.8913  0.3744
  791MOL0     H 6763   8.131   2.103   0.043 -0.5090  0.6462 -2.0278
  791MOL0     H 6764   8.141   2.257  -0.052 -0.0929 -1.7995 -0.8630
  791MOL0     H 6765   7.938   2.178   0.155 -0.0367  1.1184  0.1332
  791MOL0     H 6766   7.915   2.191  -0.026 -0.7548  0.1019 -0.3931
  791MOL0     H 6767   8.828   2.018   0.559  0.8863  0.8096  2.7503
  791MOL0     H 6768   9.000   1.937   0.695 -0.3961  0.9554  0.3154
  791MOL0     H 6769   9.485   1.907   0.603  0.0937  1.8316  0.8320
  791MOL0     H 6770   9.707   1.839   0.644 -0.3022  1.3726 -1.2438
  791MOL0     H 6771   9.289   1.736   0.839  0.7748 -0.5307 -0.1095
  791MOL0     H 6772   9.039   1.754   0.815 -2.9444  0.3535  2.7044
  791MOL0     H 6773   8.654   1.608   0.826  0.1275 -0.0029 -0.3658
  791MOL0     H 6774   8.429   1.666   0.780  0.4134 -0.2584  0.2457
  791MOL0     H 6775   8.231   1.762   0.732  1.6433  2.6120  1.9552
  791MOL0     H 6776   8.205   1.620   0.828 -3.7712 -0.6433 -2.1288
  791MOL0     H 6777   8.003   1.720   0.927 -1.5786 -0.9038 -1.2593
  791MOL0     H 6778   7.992   1.713   0.748 -0.8123  0.0800  0.3167
  791MOL0     H 6779   8.029   1.955   0.726  1.4577 -1.2678 -0.2651
  791MOL0     H 6780   8.078   1.968   0.890  0.0307  0.0957 -0.2156
  791MOL0     H 6781   7.838   2.040   0.891 -0.0729 -0.2711  3.4878
  791MOL0     H 6782   7.851   1.884   0.969  0.6880 -3.0625 -1.2364
  791MOL0     H 6783   7.637   1.768   0.618 -0.5519  1.1794 -0.7914
  791MOL0     H 6784   8.376   1.865   1.147 -0.6068 -1.0036  1.5491
  791MOL0     H 6785   8.600   1.811   1.219 -0.6320 -1.4807  0.2298
  792MOL0     O 6786   0.307  11.214   5.725 -0.5136  0.7736  0.2745
  792MOL0     C 6787   0.280  11.256   5.612  0.5317 -0.4625 -0.0698
  792MOL0     O 6788   0.153  11.294   5.577 -0.3033  0.7699 -0.5186
  792MOL0     C 6789   0.053  11.258   5.666 -0.1248 -0.5985 -0.0712
  792MOL0     C 6790   0.009  11.128   5.673 -0.4485 -0.4269 -0.3919
  792MOL0     C 6791  -0.097  11.098   5.756  0.6085 -0.5234 -0.3487
  792MOL0     C 6792  -0.156  11.198   5.834  0.0188  0.1349 -0.5000
  792MOL0     O 6793  -0.246  11.161   5.927 -0.7135 -0.7653  0.2941
  792MOL0     C 6794  -0.371  11.105   5.879 -0.0591 -0.9157  0.6031
  792MOL0     C 6795  -0.459  11.220   5.811  0.7975 -0.1342  0.0803
  792MOL0     C 6796  -0.608  11.173   5.787 -0.3330 -0.6621 -0.0299
  792MOL0     C 6797  -0.680  11.169   5.923 -0.4025  0.3715 -0.8494
  792MOL0     C 6798  -0.830  11.160   5.889 -0.2515  0.8802 -0.2236
  792MOL0     C 6799  -0.885  11.040   5.800 -0.0417  0.5215  0.0103
  792MOL0     C 6800  -1.035  11.058   5.779  0.0748  0.0339  0.0301
  792MOL0     C 6801  -1.113  11.006   5.903  0.1735  0.0404  0.0750
  792MOL0     N 6802  -1.259  11.031   5.890 -0.8322  0.2178  0.1852
  792MOL0     C 6803  -1.345  11.090   5.985  0.3140  0.2712 -0.3716
  792MOL0     C 6804  -1.468  11.061   5.939  0.0271  0.0098  0.7545
  792MOL0     C 6805  -1.597  11.084   6.014  0.0146  0.4368 -0.0118
  792MOL0     C 6806  -1.719  11.002   5.960  0.6509  0.4052 -0.5053
  792MOL0     C 6807  -1.857  11.051   6.008 -0.2088  0.9837  0.0351
  792MOL0     C 6808  -1.979  10.977   5.946  0.2579  0.1853  0.0181
  792MOL0     O 6809  -2.015  10.865   6.025  0.1904  0.1184  0.7732
  792MOL0     C 6810  -2.154  10.837   6.035 -0.2319 -0.2426  0.3651
  792MOL0     C 6811  -2.179  10.767   6.141  0.4304 -0.0039 -0.9467
  792MOL0     C 6812  -2.320  10.732   6.170 -0.6307 -0.6847 -0.4159
  792MOL0     C 6813  -2.339  10.661   6.306  0.4822  0.0531  0.1303
  792MOL0     C 6814  -2.418  10.759   6.074 -0.6278 -0.7760  0.3053
  792MOL0     C 6815  -2.559  10.710   6.095 -1.0493 -1.0000 -0.2343
  792MOL0     O 6816  -2.612  10.652   5.986 -0.5986 -0.1669 -0.2002
  792MOL0     C 6817  -2.745  10.596   5.987 -0.1335 -0.1911 -0.0326
  792MOL0     C 6818  -2.813  10.541   6.098  0.2484  0.5490 -0.4205
  792MOL0     C 6819  -2.941  10.476   6.075 -0.1765  0.1644 -0.4249
  792MOL0     C 6820  -3.001  10.481   5.950 -0.6525 -0.4584  0.2620
  792MOL0     O 6821  -3.123  10.422   5.937  0.3325  0.2513 -0.1568
  792MOL0     C 6822  -3.162  10.328   5.835 -0.8549  0.7138  0.1031
  792MOL0     C 6823  -3.315  10.308   5.848  0.1716 -0.3200  0.3851
  792MOL0     C 6824  -3.393  10.425   5.794  0.4514  0.5113 -0.5242
  792MOL0     C 6825  -3.547  10.399   5.813 -0.0461  0.4095 -0.8676
  792MOL0     C 6826  -3.634  10.515   5.754 -0.4605  0.2940  0.2375
  792MOL0     C 6827  -3.782  10.507   5.777 -0.0300  0.5458 -0.5513
  792MOL0     C 6828  -3.843  10.395   5.695 -0.3663 -0.1254  0.8717
  792MOL0     C 6829  -3.963  10.326   5.758 -0.4500  0.1751 -0.2163
  792MOL0    Cl 6830  -3.919  10.247   5.909 -0.3024  0.6563 -0.1315
  792MOL0     C 6831  -2.938  10.538   5.839  0.7222  1.2384  0.6484
  792MOL0     C 6832  -2.810  10.598   5.860  1.1421 -0.2854 -0.4391
  792MOL0     O 6833  -2.618  10.743   6.192  0.0220 -0.1732  0.0747
  792MOL0     C 6834  -2.380  10.823   5.962  0.4866  0.0847  0.0999
  792MOL0     C 6835  -2.251  10.873   5.941  0.1866  0.2688  0.4141
  792MOL0     N 6836  -1.461  10.994   5.819  0.3654  0.3735 -0.1842
  792MOL0     N 6837  -1.335  10.976   5.791 -0.2273  0.3741  0.8869
  792MOL0     C 6838  -0.109  11.334   5.832 -0.6576  0.8787 -0.7198
  792MOL0     C 6839  -0.006  11.364   5.739  0.2860 -0.2471  0.1706
  792MOL0     C 6840   0.389  11.271   5.515  0.8277 -0.4647  0.0833
  792MOL0     C 6841   0.523  11.259   5.564 -0.1580 -0.5973 -0.2976
  792MOL0     C 6842   0.621  11.242   5.466 -0.3311 -0.4845  0.2025
  792MOL0     C 6843   0.595  11.257   5.325  0.9969  0.1841 -0.9549
  792MOL0     O 6844   0.706  11.248   5.247 -0.0917  0.2775  0.1578
  792MOL0     C 6845   0.706  11.261   5.105  0.6095 -0.2580  0.4018
  792MOL0     C 6846   0.846  11.258   5.048 -0.8744 -0.2904  0.2517
  792MOL0     C 6847   0.900  11.110   5.032  1.2386 -0.2175 -0.1105
  792MOL0     C 6848   1.050  11.109   5.028  0.1783  0.2169 -0.6883
  792MOL0     C 6849   1.104  11.081   4.893  1.0691 -0.0470 -0.6760
  792MOL0     C 6850   1.143  11.054   4.786 -0.7422  0.6663  0.1510
  792MOL0     C 6851   0.463  11.270   5.275 -0.6909 -0.3010  0.6401
  792MOL0     C 6852   0.358  11.282   5.372 -0.2421  0.0668  0.2768
  792MOL0     H 6853   0.043  11.051   5.603 -2.0228 -0.6204 -0.9896
  792MOL0     H 6854  -0.141  10.999   5.749  0.9898 -0.5794 -2.4053
  792MOL0     H 6855  -0.345  11.022   5.812  1.0114 -0.1303  0.0110
  792MOL0     H 6856  -0.421  11.063   5.966 -1.4728  0.6786  0.5933
  792MOL0     H 6857  -0.453  11.307   5.876 -0.1807  0.9253 -1.1852
  792MOL0     H 6858  -0.408  11.248   5.718 -0.3875 -1.2675 -0.9603
  792MOL0     H 6859  -0.649  11.254   5.726  2.7204  1.4248  0.4574
  792MOL0     H 6860  -0.617  11.079   5.732  2.4757 -1.0640  0.0802
  792MOL0     H 6861  -0.642  11.078   5.970 -1.5857  0.0830 -0.4122
  792MOL0     H 6862  -0.661  11.260   5.981  0.5988  0.2838 -1.0160
  792MOL0     H 6863  -0.878  11.147   5.986  0.3069 -0.4682 -0.0943
  792MOL0     H 6864  -0.864  11.255   5.849  2.4231  2.1459  0.2461
  792MOL0     H 6865  -0.831  11.035   5.705 -0.6921  0.6843 -0.3700
  792MOL0     H 6866  -0.871  10.946   5.854 -0.0188 -0.2912 -1.3589
  792MOL0     H 6867  -1.061  11.163   5.762  0.1860  0.3726  1.7950
  792MOL0     H 6868  -1.071  10.998   5.694  0.6816 -0.3106  0.0071
  792MOL0     H 6869  -1.063  11.054   5.988 -1.0045  0.4815  0.5360
  792MOL0     H 6870  -1.080  10.902   5.914  3.8040  1.0482  0.1747
  792MOL0     H 6871  -1.311  11.133   6.079 -2.0716  1.5485 -0.0255
  792MOL0     H 6872  -1.584  11.058   6.120 -2.7439  3.0070  1.0885
  792MOL0     H 6873  -1.616  11.191   6.002 -1.5466  0.1028 -0.6426
  792MOL0     H 6874  -1.702  10.896   5.981 -1.4097 -0.3831 -2.3884
  792MOL0     H 6875  -1.724  10.994   5.851  0.3839  3.0138 -0.7507
  792MOL0     H 6876  -1.857  11.152   5.965  1.3315  0.6981 -0.7000
  792MOL0     H 6877  -1.851  11.059   6.117  0.1261 -1.5352  0.2616
  792MOL0     H 6878  -1.948  10.939   5.848 -0.6970 -0.0502 -0.2049
  792MOL0     H 6879  -2.059  11.051   5.937 -1.7819 -1.9636 -0.4895
  792MOL0     H 6880  -2.106  10.739   6.217 -1.9543 -0.0835  1.4792
  792MOL0     H 6881  -2.249  10.610   6.342 -1.1714 -0.0613  4.7623
  792MOL0     H 6882  -2.364  10.741   6.375  1.0740 -0.3747  0.8544
  792MOL0     H 6883  -2.415  10.583   6.294  1.7093 -1.2329  0.3465
  792MOL0     H 6884  -2.762  10.545   6.193 -0.8302  3.1266  0.1156
  792MOL0     H 6885  -2.990  10.428   6.159  2.1188  1.7647  1.9569
  792MOL0     H 6886  -3.142  10.362   5.733 -1.5439  0.9634  0.0475
  792MOL0     H 6887  -3.114  10.231   5.851 -0.8501  0.5499 -0.8630
  792MOL0     H 6888  -3.342  10.225   5.783 -2.9511  0.7173  0.1767
  792MOL0     H 6889  -3.350  10.286   5.950 -0.7353 -0.2136  0.1020
  792MOL0     H 6890  -3.372  10.442   5.688  1.2523  2.5355 -0.0884
  792MOL0     H 6891  -3.362  10.518   5.844 -0.5837 -0.3782  1.9440
  792MOL0     H 6892  -3.579  10.306   5.767 -1.1982 -0.2920  1.2058
  792MOL0     H 6893  -3.565  10.388   5.920  0.7571 -1.1698 -0.8839
  792MOL0     H 6894  -3.617  10.536   5.648 -1.4995 -0.9807 -0.2082
  792MOL0     H 6895  -3.595  10.600   5.810  2.7231 -0.5555 -0.4927
  792MOL0     H 6896  -3.797  10.487   5.883 -1.2211 -0.0250 -0.8109
  792MOL0     H 6897  -3.833  10.599   5.746 -0.9900  0.0745 -0.4171
  792MOL0     H 6898  -3.761  10.327   5.667 -0.6323  0.9850 -3.2150
  792MOL0     H 6899  -3.877  10.443   5.603  1.6595  1.1262  0.7076
  792MOL0     H 6900  -4.004  10.257   5.683 -0.3243 -1.1956  0.9452
  792MOL0     H 6901  -4.039  10.402   5.781  1.3383  1.0092  3.7116
  792MOL0     H 6902  -2.992  10.525   5.746 -2.3934 -1.1482  2.5728
  792MOL0     H 6903  -2.757  10.637   5.774 -1.1551  0.6120 -1.5348
  792MOL0     H 6904  -2.453  10.845   5.885  0.1128  1.1301  0.7381
  792MOL0     H 6905  -2.230  10.932   5.852 -0.1320  1.3862  1.0529
  792MOL0     H 6906  -0.151  11.412   5.894 -1.4520 -0.4875  0.5429
  792MOL0     H 6907   0.025  11.466   5.724  0.7684 -0.4194 -0.0233
  792MOL0     H 6908   0.546  11.259   5.670 -0.9007 -1.6650 -0.1130
  792MOL0     H 6909   0.724  11.213   5.486 -0.2874  0.3207  1.2319
  792MOL0     H 6910   0.639  11.189   5.057 -2.0573  2.5370 -0.3247
  792MOL0     H 6911   0.662  11.353   5.067  1.0780 -0.4848 -0.7423
  792MOL0     H 6912   0.895  11.316   5.127  0.9079 -2.5603  0.9546
  792MOL0     H 6913   0.851  11.308   4.952  1.5393 -1.2510 -0.2063
  792MOL0     H 6914   0.850  11.059   4.949 -1.4192  0.0211  1.2385
  792MOL0     H 6915   0.873  11.054   5.122 -0.0802  1.0582  0.3262
  792MOL0     H 6916   1.068  11.017   5.084  0.1579  0.5680 -0.0957
  792MOL0     H 6917   1.103  11.193   5.074  1.0003  0.5175 -2.1232
  792MOL0     H 6918   1.187  11.018   4.695 -0.1977 -0.6622  0.9054
  792MOL0     H 6919   0.433  11.263   5.171  0.1189  0.0321  0.3735
  792MOL0     H 6920   0.255  11.297   5.342 -1.0477 -3.8409  0.5372
  793MOL0     O 6921   9.276   4.551   1.513  0.5578 -0.1022  0.3588
  793MOL0     C 6922   9.282   4.529   1.638 -0.6503  0.4438 -0.0553
  793MOL0     O 6923   9.175   4.490   1.720 -0.6937 -0.0677  0.4833
  793MOL0     C 6924   9.056   4.474   1.664 -0.1691 -0.9525  0.4053
  793MOL0     C 6925   9.023   4.375   1.563  0.6290  0.0813  0.1682
  793MOL0     C 6926   8.890   4.362   1.518  0.6882  0.9030 -0.4058
  793MOL0     C 6927   8.794   4.450   1.558 -0.1052  1.1810  1.1561
  793MOL0     O 6928   8.663   4.438   1.534  0.2110  0.1376  0.9870
  793MOL0     C 6929   8.614   4.322   1.468 -0.2347 -0.6992 -0.0668
  793MOL0     C 6930   8.462   4.314   1.470  0.2469 -0.3412  0.8050
  793MOL0     C 6931   8.400   4.429   1.398  0.5741 -0.5932 -0.5131
  793MOL0     C 6932   8.253   4.409   1.370 -0.0118  1.2081  0.3337
  793MOL0     C 6933   8.173   4.397   1.493 -0.3317 -0.0500  0.0987
  793MOL0     C 6934   8.024   4.357   1.464 -0.3237  0.6131 -0.2008
  793MOL0     C 6935   7.926   4.469   1.426  0.7269  0.1606 -0.2021
  793MOL0     C 6936   7.771   4.429   1.441  0.5522  0.1361  0.7519
  793MOL0     N 6937   7.697   4.505   1.342  0.2417  0.0118 -0.1216
  793MOL0     C 6938   7.577   4.574   1.358 -0.3101 -0.7577  0.2510
  793MOL0     C 6939   7.539   4.608   1.230 -0.7021  0.0372  0.7909
  793MOL0     C 6940   7.420   4.699   1.203  0.0585  0.2403  0.2613
  793MOL0     C 6941   7.280   4.628   1.225  0.1856 -0.2360 -0.4023
  793MOL0     C 6942   7.256   4.511   1.124 -0.5182 -0.1665  0.2772
  793MOL0     C 6943   7.111   4.460   1.131 -1.2021  0.1197 -0.4527
  793MOL0     O 6944   7.030   4.567   1.084  0.4767  0.2021 -0.3034
  793MOL0     C 6945   6.892   4.546   1.083 -1.1349 -0.6780  0.1648
  793MOL0     C 6946   6.815   4.669   1.060  0.0179  0.5975  1.0791
  793MOL0     C 6947   6.673   4.653   1.069 -0.9627  0.0941  0.1303
  793MOL0     C 6948   6.612   4.782   1.043  0.0025 -0.3566 -0.6852
  793MOL0     C 6949   6.611   4.528   1.112  0.3228 -0.7089 -0.3773
  793MOL0     C 6950   6.462   4.524   1.149  0.3603  0.3907  0.3637
  793MOL0     O 6951   6.410   4.402   1.157 -0.0431  0.5919 -0.1135
  793MOL0     C 6952   6.274   4.385   1.175 -0.0207  0.3092 -0.6206
  793MOL0     C 6953   6.198   4.440   1.277  0.6992  0.5101 -0.3260
  793MOL0     C 6954   6.058   4.434   1.278 -0.5123 -0.1850 -0.0315
  793MOL0     C 6955   5.988   4.359   1.184  0.4904 -0.4219  0.2019
  793MOL0     O 6956   5.849   4.357   1.192 -0.1471  0.4527 -0.4827
  793MOL0     C 6957   5.788   4.335   1.067  0.5618  0.5217  0.8440
  793MOL0     C 6958   5.653   4.418   1.061  0.7509 -0.1375  0.5388
  793MOL0     C 6959   5.555   4.413   1.175 -0.7953  0.0104  0.0675
  793MOL0     C 6960   5.449   4.514   1.162  0.2461  0.8377  0.1958
  793MOL0     C 6961   5.347   4.511   1.278  0.4869 -1.0109 -0.1148
  793MOL0     C 6962   5.268   4.647   1.265  1.1696  0.6522 -0.9412
  793MOL0     C 6963   5.164   4.665   1.382 -1.0284 -0.4859  0.0235
  793MOL0     C 6964   5.086   4.795   1.361  0.2440  0.1454  0.4522
  793MOL0    Cl 6965   4.963   4.811   1.479  0.2032  0.1574  0.2325
  793MOL0     C 6966   6.066   4.299   1.076 -0.3029  0.8569 -0.3266
  793MOL0     C 6967   6.206   4.323   1.073  0.4495 -0.6549 -0.1106
  793MOL0     O 6968   6.401   4.632   1.169 -0.1198 -0.7069 -0.3559
  793MOL0     C 6969   6.687   4.416   1.135 -0.1850 -0.1119 -1.0399
  793MOL0     C 6970   6.829   4.426   1.114  0.2358 -0.1730  0.7187
  793MOL0     N 6971   7.633   4.560   1.141 -0.4615 -0.3441 -0.0735
  793MOL0     N 6972   7.723   4.493   1.212 -0.6177 -1.3865  0.0479
  793MOL0     C 6973   8.833   4.536   1.665  0.2266  0.2541 -0.2007
  793MOL0     C 6974   8.957   4.553   1.715 -0.4441  0.1645  0.7172
  793MOL0     C 6975   9.420   4.549   1.699 -0.1990 -0.1303  0.4164
  793MOL0     C 6976   9.448   4.608   1.821 -0.9307 -0.6807 -0.9706
  793MOL0     C 6977   9.579   4.609   1.884  0.0938  0.1059 -0.3360
  793MOL0     C 6978   9.682   4.541   1.823  0.9325  0.6630 -0.4987
  793MOL0     O 6979   9.811   4.530   1.862  0.6466 -0.0285 -0.2117
  793MOL0     C 6980   9.847   4.529   2.002 -0.1662  0.1767 -0.6259
  793MOL0     C 6981  10.003   4.538   1.997  0.3723 -0.4248  0.4051
  793MOL0     C 6982  10.068   4.449   2.099  0.3681  0.1327 -0.4558
  793MOL0     C 6983  10.226   4.446   2.071 -0.5985  0.3145 -0.8587
  793MOL0     C 6984  10.253   4.392   1.940 -0.0855  0.4484 -0.4704
  793MOL0     C 6985  10.276   4.339   1.831 -0.6682 -0.0617 -0.2789
  793MOL0     C 6986   9.661   4.484   1.693  0.0435  0.4688  0.0102
  793MOL0     C 6987   9.530   4.504   1.631 -0.9375  0.4565 -1.1041
  793MOL0     H 6988   9.082   4.289   1.533  0.3703 -0.3335  0.8270
  793MOL0     H 6989   8.860   4.284   1.449 -1.6657  3.5567 -2.6437
  793MOL0     H 6990   8.642   4.324   1.362  0.7151 -1.4425  0.1644
  793MOL0     H 6991   8.659   4.236   1.518  0.3938  0.3778  1.2852
  793MOL0     H 6992   8.438   4.218   1.423  2.8251 -0.1286 -1.1871
  793MOL0     H 6993   8.428   4.318   1.574 -2.0416 -2.1140  0.2008
  793MOL0     H 6994   8.411   4.516   1.464 -1.4867  0.4156 -1.4241
  793MOL0     H 6995   8.445   4.443   1.300  0.9709 -2.5439 -0.6541
  793MOL0     H 6996   8.210   4.485   1.304  1.2438 -1.2379 -3.6245
  793MOL0     H 6997   8.243   4.311   1.323 -1.1394  1.7968 -0.7041
  793MOL0     H 6998   8.213   4.313   1.550 -2.1194 -1.4201 -0.5541
  793MOL0     H 6999   8.176   4.494   1.543 -2.2941  0.9032 -1.4852
  793MOL0     H 7000   8.022   4.272   1.396  3.5042 -0.2972  0.5744
  793MOL0     H 7001   7.980   4.320   1.557 -0.0692  1.5525  0.3060
  793MOL0     H 7002   7.948   4.555   1.490 -1.6197  2.7014 -2.5467
  793MOL0     H 7003   7.943   4.506   1.325  0.5272 -1.8436 -1.0072
  793MOL0     H 7004   7.733   4.447   1.542  1.7009 -1.8621  1.5905
  793MOL0     H 7005   7.767   4.322   1.418  0.6102  0.2025  0.4121
  793MOL0     H 7006   7.539   4.601   1.456 -0.8321  1.2757 -0.4698
  793MOL0     H 7007   7.428   4.785   1.270 -1.7078  0.2587  0.5029
  793MOL0     H 7008   7.441   4.723   1.098  0.3034 -2.2317 -0.3114
  793MOL0     H 7009   7.204   4.706   1.209 -1.6233 -0.9612  3.5415
  793MOL0     H 7010   7.272   4.595   1.329  0.1064  1.5134  0.1816
  793MOL0     H 7011   7.327   4.431   1.146 -2.3810 -2.2292 -0.8294
  793MOL0     H 7012   7.280   4.539   1.021 -1.1833  0.1195  0.1917
  793MOL0     H 7013   7.070   4.436   1.230 -4.6017  2.1947 -1.1849
  793MOL0     H 7014   7.106   4.372   1.067 -0.1461  0.9141 -1.6824
  793MOL0     H 7015   6.868   4.764   1.056  0.5179  0.3371  1.3396
  793MOL0     H 7016   6.510   4.765   1.007  0.7208  0.7599 -3.4569
  793MOL0     H 7017   6.630   4.841   1.133 -2.3455  0.6210 -0.7823
  793MOL0     H 7018   6.652   4.836   0.957 -1.3441 -0.4035 -1.3732
  793MOL0     H 7019   6.249   4.491   1.358 -1.1285 -1.3007  2.1192
  793MOL0     H 7020   6.014   4.473   1.369 -0.0981 -1.7792  0.8958
  793MOL0     H 7021   5.841   4.359   0.974 -3.0781 -2.5617 -2.3571
  793MOL0     H 7022   5.776   4.227   1.059 -0.8686  0.8239 -3.8140
  793MOL0     H 7023   5.695   4.519   1.059  0.0985  0.1392  0.7416
  793MOL0     H 7024   5.601   4.409   0.966  0.9978  2.1680  0.1327
  793MOL0     H 7025   5.610   4.424   1.269 -0.5750  1.2896 -0.1957
  793MOL0     H 7026   5.511   4.313   1.178 -0.1445 -0.2622  2.1003
  793MOL0     H 7027   5.487   4.615   1.144 -1.4101  1.2938 -0.9608
  793MOL0     H 7028   5.385   4.485   1.079  2.2001 -3.4764 -0.0874
  793MOL0     H 7029   5.391   4.506   1.378  2.2396 -2.4493 -0.8971
  793MOL0     H 7030   5.272   4.433   1.268 -1.5699  0.4336  2.7247
  793MOL0     H 7031   5.346   4.723   1.271  0.6953  1.1759 -1.3708
  793MOL0     H 7032   5.222   4.646   1.166  1.8052 -3.0414 -1.3748
  793MOL0     H 7033   5.212   4.660   1.480 -0.7812 -1.5033 -0.1283
  793MOL0     H 7034   5.092   4.584   1.396 -0.4552 -0.9836  0.1549
  793MOL0     H 7035   5.042   4.794   1.261 -2.0008  1.9947  1.3318
  793MOL0     H 7036   5.143   4.888   1.356 -0.4798  0.5926  0.5013
  793MOL0     H 7037   6.025   4.244   0.992  2.0063 -1.5477 -0.0225
  793MOL0     H 7038   6.265   4.294   0.986  1.0705 -1.5131  0.5799
  793MOL0     H 7039   6.646   4.320   1.165  0.3707  0.2472  1.0661
  793MOL0     H 7040   6.879   4.331   1.131  0.4914  0.0011  0.9536
  793MOL0     H 7041   8.759   4.597   1.715 -0.0674  1.3092 -1.8633
  793MOL0     H 7042   8.978   4.619   1.798  0.5608 -0.0379  0.6391
  793MOL0     H 7043   9.380   4.680   1.865  2.3072  1.8178  0.4435
  793MOL0     H 7044   9.607   4.661   1.975 -0.9997 -0.3077  0.2585
  793MOL0     H 7045   9.803   4.615   2.052 -0.3492  0.6383 -1.5480
  793MOL0     H 7046   9.809   4.442   2.056 -2.9148  0.1289 -2.4501
  793MOL0     H 7047  10.031   4.640   2.024  0.1227 -0.7149  1.8363
  793MOL0     H 7048  10.029   4.509   1.894  0.3765 -2.3481  0.9013
  793MOL0     H 7049  10.022   4.350   2.098  0.5689  0.0231 -2.4996
  793MOL0     H 7050  10.065   4.480   2.204 -0.3140 -1.5741  0.0627
  793MOL0     H 7051  10.271   4.379   2.144 -3.1192 -0.1420  0.3801
  793MOL0     H 7052  10.269   4.547   2.081 -2.3054  0.9470  0.7833
  793MOL0     H 7053  10.298   4.284   1.741 -0.7424  0.8902 -0.8889
  793MOL0     H 7054   9.743   4.438   1.638 -1.1127  0.5479 -1.8611
  793MOL0     H 7055   9.523   4.457   1.533 -0.0445 -0.4266 -0.7673
  794MOL0     O 7056   7.706   8.737   4.974  0.3891 -0.1132  0.0620
  794MOL0     C 7057   7.747   8.727   5.092 -0.2752 -0.4082  0.0371
  794MOL0     O 7058   7.667   8.738   5.195 -0.8337 -0.5065  0.2097
  794MOL0     C 7059   7.539   8.778   5.186 -0.0272  0.4564 -0.6979
  794MOL0     C 7060   7.494   8.857   5.297 -0.0658 -0.0069  0.4102
  794MOL0     C 7061   7.369   8.913   5.292  0.6128  0.4788 -0.3431
  794MOL0     C 7062   7.290   8.906   5.181  0.5610  0.0580  0.6574
  794MOL0     O 7063   7.177   8.985   5.169  0.4761  0.6843 -0.1808
  794MOL0     C 7064   7.165   9.098   5.254  0.2178  0.2990 -0.2063
  794MOL0     C 7065   7.062   9.195   5.198 -0.7670  0.1480 -0.0488
  794MOL0     C 7066   6.931   9.119   5.173 -0.5490  0.0647 -0.9009
  794MOL0     C 7067   6.803   9.206   5.197 -0.6019  0.1188 -0.4508
  794MOL0     C 7068   6.686   9.128   5.235 -0.0820  0.1117 -0.5540
  794MOL0     C 7069   6.565   9.215   5.239 -0.1164 -0.7559 -0.2266
  794MOL0     C 7070   6.449   9.139   5.276 -0.0167  0.4434  0.6141
  794MOL0     C 7071   6.318   9.221   5.250  0.6060 -0.1398 -0.2865
  794MOL0     N 7072   6.191   9.143   5.266  0.4499 -0.1660 -0.0930
  794MOL0     C 7073   6.142   9.058   5.173  0.5092  0.1301 -0.0675
  794MOL0     C 7074   6.021   9.010   5.224  0.2569 -0.5512 -0.8515
  794MOL0     C 7075   5.924   8.915   5.162 -0.2273  0.1349  0.5759
  794MOL0     C 7076   5.784   8.966   5.193 -0.7773  0.1364  0.3421
  794MOL0     C 7077   5.688   8.871   5.109 -0.1179 -0.3846  0.6833
  794MOL0     C 7078   5.550   8.931   5.123  0.0971 -0.6379  0.5105
  794MOL0     O 7079   5.473   8.834   5.053  0.0856  0.5333  0.4436
  794MOL0     C 7080   5.342   8.826   5.078  0.0453  0.8936  0.3245
  794MOL0     C 7081   5.275   8.731   5.008  0.5267  0.3608 -0.7216
  794MOL0     C 7082   5.144   8.690   5.029 -0.4223  0.7061  0.7448
  794MOL0     C 7083   5.094   8.586   4.923  0.2211  0.1863  1.1642
  794MOL0     C 7084   5.061   8.753   5.122  0.4391  0.1819 -0.3127
  794MOL0     C 7085   4.917   8.722   5.159 -0.7035  0.4407  0.4894
  794MOL0     O 7086   4.871   8.814   5.253 -0.2712  0.6380 -0.2732
  794MOL0     C 7087   4.729   8.819   5.257 -0.3702  0.5496  0.2465
  794MOL0     C 7088   4.652   8.836   5.142  1.3282  0.0887 -0.0668
  794MOL0     C 7089   4.516   8.859   5.159  0.2205  0.0734  0.7341
  794MOL0     C 7090   4.448   8.819   5.276 -0.1190 -0.4162  0.7665
  794MOL0     O 7091   4.311   8.822   5.291  0.6349  0.0125 -0.0529
  794MOL0     C 7092   4.248   8.747   5.189 -0.6231 -0.1481 -0.8765
  794MOL0     C 7093   4.158   8.842   5.117 -0.3280  0.1436 -0.3671
  794MOL0     C 7094   4.041   8.900   5.208 -0.1280 -0.4831 -0.4221
  794MOL0     C 7095   3.943   8.979   5.118  0.1720  0.1649  0.1309
  794MOL0     C 7096   3.820   9.036   5.192 -0.2121  0.2772  0.0736
  794MOL0     C 7097   3.836   9.171   5.264  0.0375  0.0001  0.0183
  794MOL0     C 7098   3.699   9.222   5.306  0.2903 -0.1730 -0.2989
  794MOL0     C 7099   3.692   9.364   5.356 -0.4339 -0.2526  0.1466
  794MOL0    Cl 7100   3.527   9.409   5.403 -0.2878 -0.2944  0.1712
  794MOL0     C 7101   4.530   8.790   5.379 -0.0066  0.3962  0.0694
  794MOL0     C 7102   4.668   8.802   5.381 -0.2004  0.7121 -0.4676
  794MOL0     O 7103   4.855   8.628   5.112  0.3155  0.4730  0.4598
  794MOL0     C 7104   5.121   8.861   5.187  0.4923 -0.7114  0.2794
  794MOL0     C 7105   5.261   8.896   5.161  0.1077 -0.4371  0.2499
  794MOL0     N 7106   6.013   9.060   5.354 -0.3150  0.0018 -0.2573
  794MOL0     N 7107   6.107   9.149   5.375 -0.1426 -0.0055 -0.2291
  794MOL0     C 7108   7.329   8.827   5.073  0.1584  0.2144  0.4119
  794MOL0     C 7109   7.457   8.760   5.080  0.4633  0.8974  0.1992
  794MOL0     C 7110   7.884   8.703   5.127 -0.5939 -0.0350 -0.1626
  794MOL0     C 7111   7.924   8.688   5.263  0.2467  1.1135 -0.1729
  794MOL0     C 7112   8.046   8.660   5.296  0.0671  0.2133  0.0510
  794MOL0     C 7113   8.146   8.640   5.199  1.0656 -0.6060  0.0774
  794MOL0     O 7114   8.272   8.600   5.246 -0.1274  0.5603 -0.4232
  794MOL0     C 7115   8.342   8.493   5.181  0.0240 -0.7071 -0.3328
  794MOL0     C 7116   8.468   8.468   5.250  0.1184  0.2934  0.4078
  794MOL0     C 7117   8.466   8.325   5.306 -0.2112  0.0825  0.1721
  794MOL0     C 7118   8.586   8.296   5.392 -0.0337 -0.3006  0.8431
  794MOL0     C 7119   8.545   8.304   5.531  0.5828 -0.3468 -0.6471
  794MOL0     C 7120   8.515   8.285   5.648  0.3292 -0.8700  0.2654
  794MOL0     C 7121   8.110   8.657   5.068 -0.7120 -0.6796  0.3977
  794MOL0     C 7122   7.981   8.696   5.027 -0.1713  0.2134 -0.5191
  794MOL0     H 7123   7.561   8.874   5.381 -0.5705  2.9991  0.3236
  794MOL0     H 7124   7.331   8.956   5.384  0.0434 -0.7483  0.0113
  794MOL0     H 7125   7.137   9.066   5.355  0.8345 -0.6259 -0.3196
  794MOL0     H 7126   7.261   9.149   5.267  0.4188  0.0897 -0.8436
  794MOL0     H 7127   7.056   9.284   5.260 -3.8634 -0.3750  0.5590
  794MOL0     H 7128   7.096   9.235   5.102  0.1972 -2.7656 -1.0478
  794MOL0     H 7129   6.929   9.094   5.066  0.0427  0.6334 -1.0505
  794MOL0     H 7130   6.928   9.031   5.237  0.4104  1.2498  0.8365
  794MOL0     H 7131   6.810   9.267   5.288  0.7399 -4.0717  2.5854
  794MOL0     H 7132   6.794   9.268   5.108 -0.7165 -1.5050 -1.6246
  794MOL0     H 7133   6.679   9.040   5.170  2.1657 -1.4131  1.1425
  794MOL0     H 7134   6.712   9.087   5.333  2.3481 -4.0529 -2.6685
  794MOL0     H 7135   6.562   9.311   5.291  0.7624 -0.2987 -1.0028
  794MOL0     H 7136   6.555   9.237   5.132 -1.7789  0.5356  0.1517
  794MOL0     H 7137   6.450   9.051   5.211  2.2109  2.3644 -2.2332
  794MOL0     H 7138   6.456   9.113   5.382  2.6374 -0.6060  0.2550
  794MOL0     H 7139   6.328   9.266   5.150 -2.5113  1.8375  0.1255
  794MOL0     H 7140   6.313   9.305   5.321  2.9815 -1.4652  1.5916
  794MOL0     H 7141   6.195   9.041   5.080 -0.0541  3.3428 -1.0875
  794MOL0     H 7142   5.959   8.914   5.059 -0.2424 -2.1913  0.5400
  794MOL0     H 7143   5.937   8.811   5.193 -3.7738 -0.5827  0.0714
  794MOL0     H 7144   5.781   9.072   5.165  0.1324  0.0411 -0.1693
  794MOL0     H 7145   5.756   8.951   5.297 -1.8338 -2.7195 -0.2716
  794MOL0     H 7146   5.702   8.768   5.144 -1.2896 -1.2109 -1.0867
  794MOL0     H 7147   5.707   8.859   5.002 -0.3638 -0.7620  0.6795
  794MOL0     H 7148   5.542   9.018   5.058 -0.8587 -0.0154  1.4197
  794MOL0     H 7149   5.518   8.958   5.224  1.2073 -1.5134  1.1253
  794MOL0     H 7150   5.345   8.682   4.942  1.7609 -0.4151  1.0949
  794MOL0     H 7151   5.013   8.521   4.956 -1.9227  0.2865 -3.1096
  794MOL0     H 7152   5.044   8.649   4.848 -0.2464 -0.8806  0.5623
  794MOL0     H 7153   5.176   8.534   4.872 -2.1415 -0.4570 -2.3039
  794MOL0     H 7154   4.703   8.838   5.046  1.5988  2.5270  0.0583
  794MOL0     H 7155   4.460   8.891   5.072  2.7541  2.5976 -0.1322
  794MOL0     H 7156   4.314   8.716   5.109  0.0491 -0.1736 -0.3193
  794MOL0     H 7157   4.183   8.666   5.226  2.3077 -2.1833  0.2027
  794MOL0     H 7158   4.216   8.924   5.072  2.0180 -1.2133  0.0429
  794MOL0     H 7159   4.111   8.783   5.037 -0.2024  0.4645 -0.6824
  794MOL0     H 7160   4.079   8.954   5.296  1.1187  0.4426 -1.4738
  794MOL0     H 7161   3.985   8.814   5.245 -0.2583  0.2778  1.2382
  794MOL0     H 7162   4.001   9.055   5.065 -2.2826  0.1134 -2.9140
  794MOL0     H 7163   3.892   8.909   5.051 -1.0846 -0.2985  1.5066
  794MOL0     H 7164   3.791   8.967   5.272  0.8659  0.0606  0.2909
  794MOL0     H 7165   3.741   9.050   5.117 -1.5015  0.5808  1.4355
  794MOL0     H 7166   3.914   9.172   5.341  2.3375  1.0423 -2.1833
  794MOL0     H 7167   3.873   9.245   5.192 -1.2064  0.9724  0.3359
  794MOL0     H 7168   3.659   9.171   5.393  1.2068  0.6069  0.6001
  794MOL0     H 7169   3.630   9.208   5.222 -2.7891 -1.2133  2.2087
  794MOL0     H 7170   3.723   9.427   5.272  0.9709  1.4966  1.8723
  794MOL0     H 7171   3.765   9.387   5.434  1.5066 -1.4943 -1.2368
  794MOL0     H 7172   4.483   8.740   5.464 -0.0005  0.3656  0.0547
  794MOL0     H 7173   4.718   8.767   5.471  0.7827 -0.0860 -1.2916
  794MOL0     H 7174   5.071   8.908   5.271  1.2058 -2.8515  2.0026
  794MOL0     H 7175   5.301   8.978   5.221 -0.6993 -2.0065  3.1052
  794MOL0     H 7176   7.266   8.832   4.984  0.8358  0.6310 -0.0538
  794MOL0     H 7177   7.476   8.702   4.990 -0.2518  1.3975 -0.2835
  794MOL0     H 7178   7.847   8.693   5.340 -0.0303  0.1262 -0.3818
  794MOL0     H 7179   8.076   8.633   5.397  0.6717 -2.8531 -0.8482
  794MOL0     H 7180   8.277   8.406   5.166 -0.2231 -0.1863 -2.5038
  794MOL0     H 7181   8.376   8.533   5.086 -0.2293  3.9471  1.2666
  794MOL0     H 7182   8.493   8.546   5.322  2.5285  0.3661 -0.3867
  794MOL0     H 7183   8.554   8.470   5.182  1.1479 -2.8191  1.4433
  794MOL0     H 7184   8.450   8.256   5.223 -1.7422  0.0224  0.4823
  794MOL0     H 7185   8.378   8.314   5.371 -0.0989 -0.2954  0.2634
  794MOL0     H 7186   8.673   8.358   5.367 -1.1049  0.6818 -0.6147
  794MOL0     H 7187   8.620   8.195   5.370  2.8327  0.9488 -1.1991
  794MOL0     H 7188   8.486   8.265   5.749 -0.1565 -0.4712  0.2068
  794MOL0     H 7189   8.187   8.641   4.993  1.1368  1.4430  1.6997
  794MOL0     H 7190   7.956   8.702   4.922 -0.7560 -0.4525 -0.4276
  795MOL0     O 7191   0.158   7.073   5.715 -0.0709 -0.3334  1.0197
  795MOL0     C 7192   0.161   7.108   5.598 -0.4291 -0.7224 -0.0625
  795MOL0     O 7193   0.055   7.137   5.515 -0.2943  0.0581  0.5784
  795MOL0     C 7194  -0.077   7.096   5.554 -0.4965  0.1968 -0.2138
  795MOL0     C 7195  -0.134   7.118   5.687  0.5141  0.6019 -0.1746
  795MOL0     C 7196  -0.267   7.080   5.706  0.5830 -0.4580  0.3895
  795MOL0     C 7197  -0.347   7.024   5.604 -0.4527  1.0176 -0.4738
  795MOL0     O 7198  -0.478   6.990   5.618 -0.2801 -0.6251  0.7548
  795MOL0     C 7199  -0.556   7.062   5.703  0.6301  0.4192  0.2532
  795MOL0     C 7200  -0.702   7.029   5.674  0.0564 -0.5412 -0.7580
  795MOL0     C 7201  -0.797   7.106   5.765 -0.8369  1.1833 -0.2545
  795MOL0     C 7202  -0.937   7.073   5.709  0.4792  0.7055  0.3936
  795MOL0     C 7203  -1.044   7.101   5.812  1.0534 -0.0696 -0.2840
  795MOL0     C 7204  -1.063   6.991   5.922  0.8121  0.3602 -0.0776
  795MOL0     C 7205  -1.186   7.020   6.012 -0.1609  0.4722 -0.6340
  795MOL0     C 7206  -1.237   6.895   6.083  0.3471  0.1872 -0.0270
  795MOL0     N 7207  -1.353   6.934   6.165 -0.1927  0.4309  0.3803
  795MOL0     C 7208  -1.352   7.011   6.279 -0.2817 -0.8756 -0.6938
  795MOL0     C 7209  -1.479   7.022   6.317  1.3487  0.6984  0.2744
  795MOL0     C 7210  -1.545   7.092   6.439  0.9848 -0.0976  0.2564
  795MOL0     C 7211  -1.567   6.977   6.547 -0.2122 -0.1114  0.2711
  795MOL0     C 7212  -1.697   6.897   6.509 -1.0456  0.0214  0.0450
  795MOL0     C 7213  -1.729   6.808   6.628 -0.1786 -0.0422 -0.6179
  795MOL0     O 7214  -1.786   6.881   6.738 -0.7125 -0.1328  0.5956
  795MOL0     C 7215  -1.924   6.882   6.748 -0.0123 -0.6014  0.7335
  795MOL0     C 7216  -1.997   6.997   6.709 -0.4253  0.6283  0.4137
  795MOL0     C 7217  -2.140   6.998   6.726 -0.3185 -0.5398 -0.5885
  795MOL0     C 7218  -2.205   7.131   6.693 -0.4444  0.0134  1.1338
  795MOL0     C 7219  -2.208   6.890   6.791  0.1570  0.5003 -0.0186
  795MOL0     C 7220  -2.352   6.879   6.824  0.5408 -0.1901  0.8674
  795MOL0     O 7221  -2.388   6.805   6.933  0.1369 -0.3204 -0.5019
  795MOL0     C 7222  -2.512   6.738   6.937 -0.6104  0.0413  0.0446
  795MOL0     C 7223  -2.588   6.760   7.054 -0.1845  0.1050  0.1689
  795MOL0     C 7224  -2.711   6.690   7.063  0.9041 -1.0282 -0.4625
  795MOL0     C 7225  -2.777   6.610   6.963  0.0606  0.4415  0.5416
  795MOL0     O 7226  -2.906   6.571   6.954  0.0588  0.8781 -0.5032
  795MOL0     C 7227  -2.985   6.561   7.074  0.2634 -0.2685  0.3350
  795MOL0     C 7228  -3.094   6.456   7.056  0.4318 -0.0414 -0.0984
  795MOL0     C 7229  -3.206   6.491   7.151 -0.3096 -0.1479  0.3788
  795MOL0     C 7230  -3.336   6.436   7.104 -0.3605 -0.2135 -0.4640
  795MOL0     C 7231  -3.444   6.519   7.172  0.6345  0.3381  0.4090
  795MOL0     C 7232  -3.582   6.453   7.142 -0.1657 -0.1423  0.8036
  795MOL0     C 7233  -3.699   6.537   7.191 -0.5470 -0.9040 -0.4405
  795MOL0     C 7234  -3.826   6.464   7.164  0.0609  0.2304  0.2367
  795MOL0    Cl 7235  -3.842   6.317   7.272  0.1706  0.1836 -0.7790
  795MOL0     C 7236  -2.685   6.592   6.851  0.0240 -0.4451 -0.5673
  795MOL0     C 7237  -2.557   6.648   6.839 -0.0327 -0.1438 -0.1101
  795MOL0     O 7238  -2.436   6.932   6.746  0.6716 -0.2104 -0.1328
  795MOL0     C 7239  -2.130   6.774   6.823 -0.2557 -0.2130 -0.0566
  795MOL0     C 7240  -1.991   6.772   6.796  0.2182 -0.5744  0.6113
  795MOL0     N 7241  -1.548   6.939   6.228  0.7071 -0.7925  0.7130
  795MOL0     N 7242  -1.477   6.892   6.140  0.3526 -0.1961  0.7048
  795MOL0     C 7243  -0.286   7.000   5.476 -0.6203 -0.7741  0.1264
  795MOL0     C 7244  -0.153   7.035   5.452 -0.2840  0.4486  0.0444
  795MOL0     C 7245   0.304   7.143   5.545 -1.3154 -0.8079 -0.6821
  795MOL0     C 7246   0.330   7.230   5.439 -0.3347  0.0106  1.0755
  795MOL0     C 7247   0.462   7.260   5.405 -0.5748  0.7687  0.9452
  795MOL0     C 7248   0.573   7.197   5.464 -0.8939 -0.4550  0.0741
  795MOL0     O 7249   0.707   7.213   5.428  0.1670 -0.8901  0.0907
  795MOL0     C 7250   0.729   7.293   5.310  0.7451  0.2666  0.4066
  795MOL0     C 7251   0.884   7.293   5.287  0.1070  0.3295 -0.3451
  795MOL0     C 7252   0.933   7.354   5.156 -0.2681 -0.2205 -0.2094
  795MOL0     C 7253   0.885   7.501   5.144  1.1541  0.0536 -0.1903
  795MOL0     C 7254   0.976   7.594   5.076 -0.1997 -0.7758 -0.2475
  795MOL0     C 7255   1.052   7.669   5.019  0.2616  0.2322 -0.1048
  795MOL0     C 7256   0.553   7.124   5.586  0.9153  0.6407  1.1030
  795MOL0     C 7257   0.419   7.093   5.615  0.2336 -0.3530 -0.2549
  795MOL0     H 7258  -0.084   7.174   5.764  1.2308 -1.1553  0.6899
  795MOL0     H 7259  -0.311   7.097   5.804  1.4041 -1.9625  1.0601
  795MOL0     H 7260  -0.534   7.044   5.808 -0.4348 -2.9522  0.0159
  795MOL0     H 7261  -0.545   7.168   5.678  0.7291  0.1980 -0.6994
  795MOL0     H 7262  -0.723   7.055   5.570 -0.3040  1.3853 -0.2468
  795MOL0     H 7263  -0.717   6.921   5.682 -2.5802 -0.3091 -1.6559
  795MOL0     H 7264  -0.789   7.090   5.873  0.5790  0.7927 -0.4018
  795MOL0     H 7265  -0.776   7.213   5.754  2.4895  0.8081  1.3849
  795MOL0     H 7266  -0.949   7.123   5.613  0.4520  0.6920  0.3901
  795MOL0     H 7267  -0.938   6.966   5.686  1.7721  0.4774  1.3069
  795MOL0     H 7268  -1.034   7.202   5.855 -1.1157 -0.2663  0.8227
  795MOL0     H 7269  -1.139   7.111   5.759  0.4769 -1.1875  0.5022
  795MOL0     H 7270  -1.089   6.896   5.876 -1.3726  0.4988  0.7040
  795MOL0     H 7271  -0.984   6.979   5.996 -1.1389 -1.8001  1.8359
  795MOL0     H 7272  -1.152   7.098   6.081  1.8346  0.8921 -2.0150
  795MOL0     H 7273  -1.266   7.057   5.949 -1.4356 -1.7556 -0.4394
  795MOL0     H 7274  -1.152   6.866   6.145  0.0528  0.2429  0.4072
  795MOL0     H 7275  -1.260   6.810   6.017  3.2593  0.9150 -2.1715
  795MOL0     H 7276  -1.262   7.061   6.312 -1.0619  0.9738 -1.2270
  795MOL0     H 7277  -1.475   7.173   6.464 -0.3861  2.9648 -4.4940
  795MOL0     H 7278  -1.634   7.150   6.413  0.8915  0.4558  1.6895
  795MOL0     H 7279  -1.571   7.022   6.647  0.4993  2.0643 -0.6077
  795MOL0     H 7280  -1.478   6.914   6.556  0.0431  0.4250  1.8920
  795MOL0     H 7281  -1.688   6.831   6.422 -3.9215 -2.4645  1.4321
  795MOL0     H 7282  -1.780   6.962   6.480 -0.1128 -0.4070 -4.3905
  795MOL0     H 7283  -1.636   6.759   6.659  0.5977  0.0256 -2.6767
  795MOL0     H 7284  -1.798   6.731   6.593 -0.6589 -0.3238  0.8715
  795MOL0     H 7285  -1.938   7.081   6.675  0.4180 -0.5641 -1.1752
  795MOL0     H 7286  -2.188   7.156   6.588  0.2770  1.0946  1.4865
  795MOL0     H 7287  -2.312   7.126   6.717 -0.8475  0.0865 -0.5394
  795MOL0     H 7288  -2.158   7.207   6.757  0.9127  0.1192  0.0677
  795MOL0     H 7289  -2.541   6.831   7.121  2.0774  1.7673 -2.8903
  795MOL0     H 7290  -2.770   6.723   7.147  3.3552  1.0884  0.5472
  795MOL0     H 7291  -2.923   6.522   7.154 -0.1770 -0.7528  0.4480
  795MOL0     H 7292  -3.018   6.661   7.104 -1.5143 -0.5873 -0.4295
  795MOL0     H 7293  -3.120   6.453   6.950  0.5262  2.5070 -0.2568
  795MOL0     H 7294  -3.054   6.356   7.075  0.1518 -0.1591 -0.1278
  795MOL0     H 7295  -3.209   6.601   7.152  2.1895 -0.0140  0.8175
  795MOL0     H 7296  -3.187   6.473   7.257 -0.8098  0.7583  0.6324
  795MOL0     H 7297  -3.346   6.444   6.996 -2.1297 -0.8030 -0.3678
  795MOL0     H 7298  -3.345   6.330   7.131 -1.4600  0.4569  2.0474
  795MOL0     H 7299  -3.437   6.621   7.134 -0.2278  0.4317  0.4821
  795MOL0     H 7300  -3.430   6.522   7.280  1.6192  1.7305  0.2694
  795MOL0     H 7301  -3.596   6.456   7.033 -0.2493  4.3094  0.7579
  795MOL0     H 7302  -3.588   6.349   7.176 -2.3836 -0.5262 -0.5767
  795MOL0     H 7303  -3.677   6.637   7.152  2.7878  0.2231  3.5927
  795MOL0     H 7304  -3.688   6.553   7.298 -0.4976 -2.9183 -0.1155
  795MOL0     H 7305  -3.826   6.426   7.061  1.4527 -0.7521  0.5675
  795MOL0     H 7306  -3.913   6.524   7.191 -0.2860 -0.9340  1.8819
  795MOL0     H 7307  -2.721   6.523   6.775  0.4428 -1.7081  0.3554
  795MOL0     H 7308  -2.489   6.625   6.757  0.4322  2.6481 -0.6075
  795MOL0     H 7309  -2.165   6.687   6.878  2.2860 -1.5106 -0.3541
  795MOL0     H 7310  -1.929   6.688   6.826  0.6400 -0.9148 -1.0969
  795MOL0     H 7311  -0.350   6.967   5.395 -3.2487  1.8887  0.9095
  795MOL0     H 7312  -0.119   7.025   5.350 -1.0835 -3.1039  0.0062
  795MOL0     H 7313   0.252   7.279   5.380  0.7480  0.7388  0.1995
  795MOL0     H 7314   0.477   7.321   5.317 -1.5156  1.1122  1.0216
  795MOL0     H 7315   0.677   7.249   5.224  0.5964  0.2992  0.4808
  795MOL0     H 7316   0.691   7.394   5.326  0.4358  0.5127 -1.5416
  795MOL0     H 7317   0.911   7.187   5.283  0.6449  0.3857  1.2294
  795MOL0     H 7318   0.940   7.328   5.373  1.0204 -0.8349 -0.4357
  795MOL0     H 7319   0.904   7.288   5.073 -0.0070  0.2778 -0.7022
  795MOL0     H 7320   1.042   7.360   5.163 -0.2262 -1.1264  0.0084
  795MOL0     H 7321   0.859   7.537   5.244  0.2646 -2.4447  0.5485
  795MOL0     H 7322   0.785   7.491   5.101  0.8182 -3.5883  1.0550
  795MOL0     H 7323   1.109   7.739   4.962  0.9262  0.2062  0.5245
  795MOL0     H 7324   0.635   7.085   5.646  1.3859  1.6220  1.1225
  795MOL0     H 7325   0.394   7.042   5.708  2.9439 -1.4864 -0.0417
  796MOL0     O 7326   7.750   3.548   7.078  0.6713 -0.2638  0.8109
  796MOL0     C 7327   7.746   3.550   7.201  0.1270  0.5387 -0.5443
  796MOL0     O 7328   7.635   3.550   7.281  0.0805  0.1248  0.0959
  796MOL0     C 7329   7.523   3.506   7.211  0.1123  0.1226 -0.5414
  796MOL0     C 7330   7.436   3.605   7.173  0.5684 -0.4264 -0.5137
  796MOL0     C 7331   7.319   3.568   7.106  0.3527  0.0794 -0.8943
  796MOL0     C 7332   7.296   3.431   7.088  0.0946  0.9073 -0.6219
  796MOL0     O 7333   7.189   3.381   7.026 -0.3927  0.3783  0.2066
  796MOL0     C 7334   7.074   3.460   6.986  0.0637  1.1698  0.9095
  796MOL0     C 7335   6.991   3.368   6.888  0.5178 -0.4974  0.0243
  796MOL0     C 7336   6.848   3.430   6.887  0.4501 -0.6614  0.4841
  796MOL0     C 7337   6.737   3.360   6.802  0.2352 -0.3152  0.0843
  796MOL0     C 7338   6.596   3.420   6.809 -1.0789 -0.1606 -0.2741
  796MOL0     C 7339   6.527   3.376   6.934  0.2096 -0.4496  0.5162
  796MOL0     C 7340   6.390   3.441   6.953 -0.1854 -0.4725 -0.8642
  796MOL0     C 7341   6.361   3.419   7.108  0.1390  0.3475 -0.5675
  796MOL0     N 7342   6.219   3.459   7.139 -0.3987  0.4089  0.0965
  796MOL0     C 7343   6.114   3.375   7.184 -0.1952  0.1504  1.2316
  796MOL0     C 7344   6.021   3.455   7.246  0.0684 -0.2744  0.4260
  796MOL0     C 7345   5.890   3.411   7.311  0.2630  0.5117 -0.1773
  796MOL0     C 7346   5.791   3.527   7.342  0.4246 -0.9171  0.0289
  796MOL0     C 7347   5.660   3.482   7.395 -1.1514  0.2873  0.0763
  796MOL0     C 7348   5.536   3.551   7.329  0.1807 -0.2061  0.1983
  796MOL0     O 7349   5.429   3.471   7.401 -0.6541  0.6299  0.1819
  796MOL0     C 7350   5.296   3.479   7.369  0.1153  0.2810 -0.5509
  796MOL0     C 7351   5.201   3.421   7.457  0.2055 -0.8253 -0.0802
  796MOL0     C 7352   5.064   3.419   7.422  0.3580  0.3313  0.4864
  796MOL0     C 7353   4.968   3.324   7.489 -0.5336  0.0022  0.8843
  796MOL0     C 7354   5.015   3.500   7.311 -0.9792 -0.1579  0.0118
  796MOL0     C 7355   4.873   3.517   7.281  0.7161  0.2758 -0.5321
  796MOL0     O 7356   4.852   3.563   7.156  0.0960 -0.0481 -0.3082
  796MOL0     C 7357   4.721   3.591   7.132 -0.1580 -0.5365  0.3024
  796MOL0     C 7358   4.643   3.492   7.066  0.8085 -0.0674  0.1971
  796MOL0     C 7359   4.512   3.520   7.035  0.0412 -0.7127  0.4709
  796MOL0     C 7360   4.448   3.643   7.062  0.2465  0.1737  0.2069
  796MOL0     O 7361   4.316   3.661   7.035 -0.5374  0.0218  0.7175
  796MOL0     C 7362   4.236   3.770   7.093 -0.3923 -0.5728 -0.3468
  796MOL0     C 7363   4.092   3.735   7.072  0.0613 -0.4157 -0.1022
  796MOL0     C 7364   3.980   3.847   7.105  0.2697  0.4991 -0.1197
  796MOL0     C 7365   3.856   3.792   7.051  0.0672  0.3791  0.9441
  796MOL0     C 7366   3.733   3.878   7.093 -0.5687 -0.9084 -0.8001
  796MOL0     C 7367   3.594   3.826   7.058  0.2518  0.6380 -0.0744
  796MOL0     C 7368   3.572   3.814   6.911  0.9251  0.7369 -0.4908
  796MOL0     C 7369   3.441   3.743   6.871  0.6296 -0.3775  0.2901
  796MOL0    Cl 7370   3.309   3.833   6.961  0.1794  0.3905  0.0351
  796MOL0     C 7371   4.530   3.747   7.117  1.1018  0.3790 -0.0429
  796MOL0     C 7372   4.665   3.721   7.150  0.0556 -0.0590  0.5414
  796MOL0     O 7373   4.788   3.488   7.358  0.8783  0.2532 -0.4245
  796MOL0     C 7374   5.118   3.571   7.239 -0.0747 -0.0070  0.2144
  796MOL0     C 7375   5.256   3.554   7.259 -0.4364  0.5589 -0.4441
  796MOL0     N 7376   6.069   3.581   7.224  0.7203  0.3466  0.4020
  796MOL0     N 7377   6.192   3.590   7.166  0.7184  0.4027 -0.5004
  796MOL0     C 7378   7.391   3.334   7.114 -0.1471 -0.3615  0.2399
  796MOL0     C 7379   7.501   3.373   7.185  0.2876  0.8095  0.0373
  796MOL0     C 7380   7.882   3.556   7.268 -0.1241 -0.1316 -0.4509
  796MOL0     C 7381   7.898   3.480   7.387 -1.0068  0.2803  0.1170
  796MOL0     C 7382   8.022   3.480   7.457 -0.1132  0.7883  0.4601
  796MOL0     C 7383   8.126   3.559   7.400  0.5785 -0.1463  0.2823
  796MOL0     O 7384   8.243   3.567   7.473 -0.7672 -0.4649  0.2993
  796MOL0     C 7385   8.304   3.697   7.494  1.1337 -0.2434 -1.0038
  796MOL0     C 7386   8.219   3.781   7.600  0.4282  0.8392 -0.0282
  796MOL0     C 7387   8.273   3.928   7.624  0.0184 -0.3774  0.4795
  796MOL0     C 7388   8.383   3.940   7.730 -0.4835 -0.0997  0.2232
  796MOL0     C 7389   8.449   4.070   7.720  0.0563 -0.2951  0.3170
  796MOL0     C 7390   8.501   4.177   7.701  0.3508  0.5387  0.1322
  796MOL0     C 7391   8.113   3.637   7.288  0.0548  0.1705  0.9970
  796MOL0     C 7392   7.987   3.632   7.221  0.5279  0.3482 -0.7799
  796MOL0     H 7393   7.458   3.703   7.213  0.8564 -1.0784  0.9982
  796MOL0     H 7394   7.242   3.642   7.087 -1.5204 -2.1047 -2.4252
  796MOL0     H 7395   7.010   3.482   7.072 -1.8103 -2.5480  0.6878
  796MOL0     H 7396   7.103   3.555   6.940 -4.0256  0.5431 -3.8964
  796MOL0     H 7397   7.044   3.364   6.792  0.6725  2.1039 -0.0805
  796MOL0     H 7398   6.982   3.270   6.937  1.0563 -1.3115 -1.4343
  796MOL0     H 7399   6.808   3.451   6.987  0.6350  1.0931  0.2352
  796MOL0     H 7400   6.860   3.525   6.834 -1.7644  1.0480  2.7646
  796MOL0     H 7401   6.778   3.361   6.701  0.7795 -2.9758  0.2048
  796MOL0     H 7402   6.733   3.258   6.841 -1.9411 -0.2117  0.2785
  796MOL0     H 7403   6.590   3.529   6.804  0.5752 -0.0723 -1.1100
  796MOL0     H 7404   6.532   3.382   6.728 -1.6591  1.6321 -0.6972
  796MOL0     H 7405   6.502   3.269   6.932  1.0741 -0.7453  2.6632
  796MOL0     H 7406   6.588   3.403   7.021  0.6069 -0.7855  0.3495
  796MOL0     H 7407   6.388   3.547   6.926 -1.8216 -0.1239  0.4266
  796MOL0     H 7408   6.312   3.406   6.884  1.0561 -1.7041 -1.7026
  796MOL0     H 7409   6.423   3.487   7.168  0.2088  0.5287 -0.8458
  796MOL0     H 7410   6.382   3.316   7.140  2.9041  0.9169 -0.2803
  796MOL0     H 7411   6.116   3.267   7.187 -0.8286  0.0160 -1.0973
  796MOL0     H 7412   5.834   3.339   7.251  0.1849  1.8170 -1.7244
  796MOL0     H 7413   5.919   3.371   7.409  0.7935 -0.0999 -0.5790
  796MOL0     H 7414   5.775   3.587   7.251  0.1304 -0.3069  0.4736
  796MOL0     H 7415   5.840   3.592   7.415 -2.5691  0.5317  0.9267
  796MOL0     H 7416   5.650   3.481   7.504  1.4083  0.9013  0.3773
  796MOL0     H 7417   5.650   3.375   7.377 -0.2370 -0.0273  1.2743
  796MOL0     H 7418   5.539   3.536   7.221 -0.6584  0.6785  0.0345
  796MOL0     H 7419   5.541   3.658   7.352  0.8915 -0.2730  0.3898
  796MOL0     H 7420   5.233   3.377   7.551  0.9039 -0.9595 -0.3758
  796MOL0     H 7421   4.894   3.287   7.418 -1.7561 -3.8337  3.8105
  796MOL0     H 7422   5.019   3.235   7.527 -0.1555  0.4577  1.4785
  796MOL0     H 7423   4.912   3.369   7.572  0.1365 -1.5776  2.2375
  796MOL0     H 7424   4.691   3.397   7.046  1.7710  0.1853  1.1912
  796MOL0     H 7425   4.455   3.442   6.985  1.3360 -0.9752 -0.6518
  796MOL0     H 7426   4.253   3.794   7.198  1.3874  1.5969 -1.0663
  796MOL0     H 7427   4.252   3.859   7.033 -1.2678 -0.6002 -0.6347
  796MOL0     H 7428   4.070   3.701   6.970  0.1906  1.6062 -0.8529
  796MOL0     H 7429   4.080   3.644   7.132  1.6583 -1.2225 -0.9283
  796MOL0     H 7430   4.006   3.943   7.059 -0.8448  0.2283 -1.3816
  796MOL0     H 7431   3.964   3.849   7.213  0.2985 -1.6944 -0.0295
  796MOL0     H 7432   3.854   3.785   6.942  0.5301  2.1927  0.7824
  796MOL0     H 7433   3.854   3.695   7.101 -1.3165 -0.9792 -1.5290
  796MOL0     H 7434   3.738   3.977   7.047 -0.8989 -0.4588  0.0887
  796MOL0     H 7435   3.739   3.894   7.201 -0.1455  2.2754 -1.2056
  796MOL0     H 7436   3.591   3.725   7.100  1.0696  0.8274  0.4719
  796MOL0     H 7437   3.524   3.884   7.118 -0.8263 -1.6656  0.9883
  796MOL0     H 7438   3.648   3.754   6.860  0.2861  0.8681 -1.6516
  796MOL0     H 7439   3.574   3.916   6.871 -0.2797  0.7635 -0.5326
  796MOL0     H 7440   3.443   3.636   6.894  2.2194 -0.9317 -2.0398
  796MOL0     H 7441   3.435   3.750   6.762  1.5042 -1.5413  0.1424
  796MOL0     H 7442   4.482   3.842   7.135  0.5629  0.1868 -0.4271
  796MOL0     H 7443   4.716   3.802   7.201  0.3698 -0.2752  0.5771
  796MOL0     H 7444   5.079   3.643   7.167 -0.4826  2.1859  2.5109
  796MOL0     H 7445   5.327   3.612   7.201  1.2671 -0.0305  0.9445
  796MOL0     H 7446   7.381   3.230   7.083 -0.2341 -0.0748 -0.6981
  796MOL0     H 7447   7.571   3.293   7.208 -0.5422 -0.6205 -2.0944
  796MOL0     H 7448   7.810   3.435   7.431 -2.6400  1.2708 -1.9410
  796MOL0     H 7449   8.029   3.426   7.551  1.6737  0.2142  0.0318
  796MOL0     H 7450   8.402   3.679   7.540  0.7944  1.1074  0.3415
  796MOL0     H 7451   8.313   3.756   7.403  1.4022 -1.7373 -1.9814
  796MOL0     H 7452   8.220   3.720   7.691  0.6475 -0.7304 -1.0509
  796MOL0     H 7453   8.118   3.788   7.561  0.8101  2.6721 -0.8205
  796MOL0     H 7454   8.189   3.992   7.650  1.2142  0.6497  2.0074
  796MOL0     H 7455   8.301   3.972   7.527  2.8506 -0.1177  1.3077
  796MOL0     H 7456   8.459   3.862   7.723 -1.2101 -1.0474  2.2638
  796MOL0     H 7457   8.329   3.938   7.825 -0.4740  0.1359  0.2342
  796MOL0     H 7458   8.562   4.264   7.687 -0.4492  0.8719 -1.5178
  796MOL0     H 7459   8.195   3.683   7.234 -1.0325 -0.8921 -1.7620
  796MOL0     H 7460   7.980   3.665   7.118  2.6884  1.4162 -0.6446
  797MOL0     O 7461  10.566  10.786   7.322 -0.5947  0.1979  0.9514
  797MOL0     C 7462  10.534  10.685   7.261 -0.1643  0.7660  0.5511
  797MOL0     O 7463  10.408  10.624   7.253 -0.6795  0.1427 -0.6312
  797MOL0     C 7464  10.294  10.681   7.308  0.5051 -0.2853  0.5674
  797MOL0     C 7465  10.180  10.633   7.253  0.3764  1.3639 -0.0874
  797MOL0     C 7466  10.054  10.681   7.292  0.7455 -0.2117  0.1752
  797MOL0     C 7467  10.036  10.777   7.396 -0.1448  0.5995  0.2859
  797MOL0     O 7468   9.904  10.811   7.414 -0.0751 -0.0606  0.0833
  797MOL0     C 7469   9.866  10.880   7.530  0.1198 -0.6056  0.9343
  797MOL0     C 7470   9.824  10.787   7.645  0.1419  0.3719 -0.8406
  797MOL0     C 7471   9.787  10.883   7.771 -0.2831  0.4817  0.9865
  797MOL0     C 7472   9.757  10.823   7.909 -0.6039 -0.4822  0.0464
  797MOL0     C 7473   9.614  10.778   7.918 -0.3646 -0.5513  0.0574
  797MOL0     C 7474   9.603  10.700   8.052  1.4916 -0.2730  0.5015
  797MOL0     C 7475   9.453  10.661   8.069 -0.0296 -0.8781 -0.1612
  797MOL0     C 7476   9.419  10.621   8.205 -0.4632  0.1391  0.4212
  797MOL0     N 7477   9.278  10.595   8.228 -0.3748 -0.3681 -0.0224
  797MOL0     C 7478   9.166  10.675   8.191  0.2997  0.4408  0.0025
  797MOL0     C 7479   9.057  10.609   8.237 -1.1070  0.2635  0.3367
  797MOL0     C 7480   8.914  10.663   8.231 -1.1973 -0.2214  1.4877
  797MOL0     C 7481   8.878  10.724   8.368  0.2064 -0.3885 -0.0629
  797MOL0     C 7482   8.737  10.775   8.364  0.4334  0.1428  0.4226
  797MOL0     C 7483   8.695  10.835   8.500 -0.0177 -0.0141  0.0477
  797MOL0     O 7484   8.679  10.731   8.607  0.4708 -0.3141  0.5088
  797MOL0     C 7485   8.598  10.768   8.712  0.4757  1.0465 -0.1431
  797MOL0     C 7486   8.566  10.670   8.802 -0.4779  0.0483 -0.6860
  797MOL0     C 7487   8.462  10.688   8.899  0.3810 -0.9933  0.0354
  797MOL0     C 7488   8.415  10.570   8.981  0.3013  0.1336 -0.3231
  797MOL0     C 7489   8.402  10.817   8.924 -0.1584  0.4626 -0.6261
  797MOL0     C 7490   8.302  10.856   9.025  0.2070  0.5203  0.7999
  797MOL0     O 7491   8.224  10.958   8.997 -0.7171 -0.1986  0.8274
  797MOL0     C 7492   8.143  10.999   9.092 -0.3018  0.6349  0.4755
  797MOL0     C 7493   8.180  11.107   9.169 -0.4472 -0.5720 -0.4043
  797MOL0     C 7494   8.101  11.146   9.283 -0.4901  0.5841 -0.4279
  797MOL0     C 7495   7.985  11.076   9.310 -0.1587 -0.0536 -0.0471
  797MOL0     O 7496   7.915  11.118   9.423 -0.3411 -0.1607 -0.1783
  797MOL0     C 7497   7.790  11.052   9.458 -0.4297  0.5384 -0.3314
  797MOL0     C 7498   7.722  11.121   9.586  0.5686 -0.1124  0.4931
  797MOL0     C 7499   7.613  11.027   9.631 -0.2094 -0.7385  0.3578
  797MOL0     C 7500   7.523  11.075   9.735  0.5475 -0.1364 -0.5323
  797MOL0     C 7501   7.431  10.968   9.796  0.4918 -0.7539 -0.7319
  797MOL0     C 7502   7.341  11.007   9.923 -0.2338  1.2717  0.2157
  797MOL0     C 7503   7.230  10.898   9.949  0.0350 -0.3467  0.1759
  797MOL0     C 7504   7.161  10.932  10.088 -0.4227  0.3348 -0.0384
  797MOL0    Cl 7505   7.086  10.783  10.156 -0.0864  0.4423 -0.0199
  797MOL0     C 7506   7.936  10.969   9.238 -0.8437  0.0385 -0.0168
  797MOL0     C 7507   8.020  10.930   9.124  0.8953 -0.4476 -0.2330
  797MOL0     O 7508   8.295  10.787   9.125  0.2292  0.4124  0.4889
  797MOL0     C 7509   8.447  10.925   8.842 -0.3834  0.2832 -0.0175
  797MOL0     C 7510   8.540  10.889   8.735 -0.1215 -0.5461 -0.2554
  797MOL0     N 7511   9.101  10.491   8.290 -0.0874  1.1685 -0.8126
  797MOL0     N 7512   9.231  10.489   8.293 -0.2957 -0.0996 -0.1366
  797MOL0     C 7513  10.155  10.826   7.453  0.2072  0.2491 -0.5387
  797MOL0     C 7514  10.283  10.782   7.403  0.6071  0.5295 -0.6511
  797MOL0     C 7515  10.635  10.615   7.188 -0.1266 -0.1288 -0.6650
  797MOL0     C 7516  10.614  10.499   7.111  0.1891 -0.7092 -0.0027
  797MOL0     C 7517  10.719  10.438   7.050  0.3102 -0.0647 -0.4160
  797MOL0     C 7518  10.852  10.472   7.080  0.5469 -0.4784  0.5762
  797MOL0     O 7519  10.949  10.403   7.013  0.5748 -0.1306  0.2889
  797MOL0     C 7520  11.082  10.416   7.057 -1.2638 -0.6666  0.0827
  797MOL0     C 7521  11.192  10.352   6.968 -0.0740 -0.4114  0.5522
  797MOL0     C 7522  11.206  10.433   6.842 -0.0977 -0.4280 -0.7668
  797MOL0     C 7523  11.328  10.395   6.749  0.4187 -0.6311 -0.5684
  797MOL0     C 7524  11.459  10.398   6.826  1.0167 -0.3862  0.5568
  797MOL0     C 7525  11.560  10.400   6.898  0.0603  0.3020  0.2570
  797MOL0     C 7526  10.876  10.575   7.167 -0.3867 -1.1592 -1.1326
  797MOL0     C 7527  10.768  10.649   7.218 -0.6225  0.9059  0.4550
  797MOL0     H 7528  10.177  10.543   7.192  0.5552  0.5137  1.1137
  797MOL0     H 7529   9.971  10.646   7.232  0.6401  0.5020 -0.1064
  797MOL0     H 7530   9.940  10.952   7.567 -2.2405  1.3917  2.1448
  797MOL0     H 7531   9.787  10.941   7.486  0.2311 -2.2207 -1.7414
  797MOL0     H 7532   9.735  10.732   7.614  0.0112 -0.6634  1.1643
  797MOL0     H 7533   9.908  10.725   7.676  0.2491  0.9151 -0.0068
  797MOL0     H 7534   9.875  10.948   7.781  0.3991 -0.2494 -0.0881
  797MOL0     H 7535   9.699  10.939   7.740 -1.3523 -0.3031  2.4808
  797MOL0     H 7536   9.825  10.737   7.911  0.5174  0.4054  0.9770
  797MOL0     H 7537   9.785  10.890   7.991  3.2184 -2.7951  0.8974
  797MOL0     H 7538   9.544  10.861   7.909  1.0946  0.7338 -0.0527
  797MOL0     H 7539   9.594  10.710   7.835  1.7755 -0.3763 -0.6871
  797MOL0     H 7540   9.666  10.611   8.057  0.7285 -1.1514 -3.0463
  797MOL0     H 7541   9.630  10.767   8.134  0.5017 -0.8036  1.2783
  797MOL0     H 7542   9.397  10.751   8.041  2.9669  1.8107  1.6703
  797MOL0     H 7543   9.441  10.584   7.993 -0.3643  1.1508 -2.2875
  797MOL0     H 7544   9.437  10.707   8.270 -3.8112 -0.2160  2.0378
  797MOL0     H 7545   9.479  10.534   8.232 -0.3381  0.1018  0.0307
  797MOL0     H 7546   9.164  10.770   8.138 -0.0162 -0.3581 -1.4728
  797MOL0     H 7547   8.914  10.740   8.154 -0.2722 -0.7211  0.9630
  797MOL0     H 7548   8.842  10.586   8.201 -0.7034  0.2131 -1.0532
  797MOL0     H 7549   8.946  10.802   8.403  2.8053 -1.7730 -1.7159
  797MOL0     H 7550   8.882  10.633   8.430 -1.9018 -1.4447 -1.3961
  797MOL0     H 7551   8.673  10.698   8.321  0.2716  0.7313 -0.4058
  797MOL0     H 7552   8.744  10.863   8.299  2.1759  0.8345  1.4625
  797MOL0     H 7553   8.598  10.883   8.482  1.0411  1.4719 -2.0611
  797MOL0     H 7554   8.761  10.914   8.536  1.1733 -0.5027 -1.0237
  797MOL0     H 7555   8.614  10.575   8.781  0.5743  0.6686 -1.1232
  797MOL0     H 7556   8.472  10.486   8.939  0.3485 -0.8838  1.6839
  797MOL0     H 7557   8.438  10.586   9.087 -0.5390  1.1303 -0.2757
  797MOL0     H 7558   8.309  10.543   8.977  0.0671  0.9375  0.1724
  797MOL0     H 7559   8.268  11.167   9.148  1.5823 -3.6294 -1.3082
  797MOL0     H 7560   8.132  11.230   9.345 -3.1315 -0.9067  3.2603
  797MOL0     H 7561   7.719  11.048   9.375  0.3209  0.2246 -0.9818
  797MOL0     H 7562   7.793  10.945   9.480 -1.3648  0.2334 -1.5682
  797MOL0     H 7563   7.802  11.142   9.657  0.0118  2.1016  0.5314
  797MOL0     H 7564   7.683  11.211   9.538 -0.9002 -0.6556  0.6155
  797MOL0     H 7565   7.663  10.936   9.664 -4.0853 -3.0412  0.5616
  797MOL0     H 7566   7.556  10.996   9.542  1.0865 -2.3000  0.0126
  797MOL0     H 7567   7.589  11.121   9.809  1.4649  1.2035 -2.0982
  797MOL0     H 7568   7.474  11.162   9.691  0.4793  2.0115  3.3492
  797MOL0     H 7569   7.488  10.882   9.831 -0.3284 -1.1357 -0.3006
  797MOL0     H 7570   7.366  10.954   9.710  0.6920  2.4808 -1.5370
  797MOL0     H 7571   7.415  11.007  10.003 -0.1581 -0.6361  0.1830
  797MOL0     H 7572   7.286  11.101   9.928  0.0028  1.3502  1.7506
  797MOL0     H 7573   7.259  10.792   9.955  0.6325 -0.2102 -0.3027
  797MOL0     H 7574   7.157  10.910   9.868  0.0717  1.4220  0.3686
  797MOL0     H 7575   7.085  11.009  10.073 -0.9845 -0.4633 -1.5415
  797MOL0     H 7576   7.225  10.970  10.168 -0.0288 -1.2200  0.4003
  797MOL0     H 7577   7.840  10.924   9.257 -0.1421 -1.1972  0.7593
  797MOL0     H 7578   7.990  10.852   9.055  0.5854  1.1711 -2.0120
  797MOL0     H 7579   8.433  11.029   8.869  2.8208  0.7970  0.0167
  797MOL0     H 7580   8.576  10.972   8.676 -2.2498 -0.0067 -0.8827
  797MOL0     H 7581  10.152  10.904   7.528 -2.0497 -1.0226  0.8071
  797MOL0     H 7582  10.368  10.826   7.455 -0.8202  1.2491  1.1916
  797MOL0     H 7583  10.519  10.447   7.103  0.6167 -2.4847  4.0348
  797MOL0     H 7584  10.696  10.351   6.989 -0.9032 -1.5483  2.0187
  797MOL0     H 7585  11.104  10.522   7.073  1.9960 -1.2014 -0.1815
  797MOL0     H 7586  11.075  10.375   7.158 -4.3832 -1.5428 -0.3900
  797MOL0     H 7587  11.159  10.250   6.947  0.3670 -1.4164  4.0921
  797MOL0     H 7588  11.288  10.344   7.019  1.3271  1.8143 -1.5125
  797MOL0     H 7589  11.208  10.539   6.869 -0.7194 -1.2753  3.1550
  797MOL0     H 7590  11.122  10.407   6.777 -1.1268  0.5391  0.1392
  797MOL0     H 7591  11.330  10.469   6.669 -1.7631 -2.2923 -2.2963
  797MOL0     H 7592  11.320  10.295   6.705  1.2851 -0.9202 -0.0869
  797MOL0     H 7593  11.652  10.404   6.953 -1.0246  0.0127  2.2016
  797MOL0     H 7594  10.978  10.593   7.201 -0.5465 -1.9061 -0.2121
  797MOL0     H 7595  10.799  10.732   7.281 -2.6734  2.5226 -0.5420
  798MOL0     O 7596   8.749  10.067   0.041 -0.9424 -0.0290 -0.1777
  798MOL0     C 7597   8.809  10.153   0.114 -0.4095  0.1636  1.0525
  798MOL0     O 7598   8.769  10.187   0.241  0.2209  0.0891  0.1608
  798MOL0     C 7599   8.654  10.139   0.299 -0.5201 -0.3993  0.1059
  798MOL0     C 7600   8.659  10.115   0.436 -0.7218 -0.5260 -1.1057
  798MOL0     C 7601   8.552  10.061   0.519  0.2635  0.0369 -0.2590
  798MOL0     C 7602   8.425  10.039   0.457  0.6047  0.3790 -0.9507
  798MOL0     O 7603   8.311  10.010   0.527  0.3729  0.1533  0.0838
  798MOL0     C 7604   8.228   9.909   0.473  0.4078  1.0158 -0.2189
  798MOL0     C 7605   8.086   9.930   0.531 -0.3243 -0.2945  0.4599
  798MOL0     C 7606   8.029  10.067   0.492  0.5628  0.6323 -0.4988
  798MOL0     C 7607   7.891  10.085   0.561  0.8473  0.9456  0.5239
  798MOL0     C 7608   7.870  10.225   0.604  0.2726 -0.6858 -0.1219
  798MOL0     C 7609   7.859  10.334   0.494  0.6791  0.1876 -0.3736
  798MOL0     C 7610   7.859  10.483   0.555  0.7675 -0.8773 -0.3527
  798MOL0     C 7611   7.724  10.509   0.623  0.5005 -1.2642 -0.4384
  798MOL0     N 7612   7.626  10.554   0.519  1.3162  0.5702  0.3795
  798MOL0     C 7613   7.635  10.668   0.449 -0.1172 -0.2905  1.8976
  798MOL0     C 7614   7.543  10.655   0.347 -0.7151  0.1380  0.1387
  798MOL0     C 7615   7.516  10.745   0.228  0.1239  0.3829 -0.5976
  798MOL0     C 7616   7.363  10.794   0.232 -0.2561  0.3153  0.1196
  798MOL0     C 7617   7.277  10.706   0.132 -0.0692  1.2700  0.3063
  798MOL0     C 7618   7.284  10.762  -0.009  0.6639  0.2841 -0.5723
  798MOL0     O 7619   7.263  10.902  -0.016 -0.2544  0.4604 -0.3629
  798MOL0     C 7620   7.138  10.954   0.010  0.0974  0.2839 -0.2962
  798MOL0     C 7621   7.135  11.084   0.054 -0.9967 -0.3874 -0.2126
  798MOL0     C 7622   7.014  11.158   0.083 -0.7418 -0.6637 -0.3163
  798MOL0     C 7623   7.038  11.297   0.145  0.2783 -0.6544  0.4916
  798MOL0     C 7624   6.888  11.094   0.057 -0.2244 -0.2325  0.3741
  798MOL0     C 7625   6.750  11.157   0.074 -0.7572  0.1899 -0.6328
  798MOL0     O 7626   6.658  11.096   0.003 -0.0761 -0.1437 -0.1163
  798MOL0     C 7627   6.527  11.121   0.019  0.2101 -0.7831 -0.3936
  798MOL0     C 7628   6.431  11.019   0.007  0.7331 -1.3036  0.2667
  798MOL0     C 7629   6.296  11.047  -0.009  0.1542  0.0739 -0.1632
  798MOL0     C 7630   6.251  11.175  -0.001 -0.3396 -0.0360 -0.2124
  798MOL0     O 7631   6.116  11.210  -0.006 -1.1608 -0.1878 -0.2283
  798MOL0     C 7632   6.020  11.101  -0.019 -0.2320 -0.3675  0.5583
  798MOL0     C 7633   5.901  11.173  -0.066 -0.5336 -0.4430 -0.5581
  798MOL0     C 7634   5.763  11.105  -0.052 -0.7851  0.1677  0.2387
  798MOL0     C 7635   5.649  11.199  -0.093 -0.5790 -0.2230  0.4055
  798MOL0     C 7636   5.508  11.132  -0.097  1.0210  0.1336  0.4655
  798MOL0     C 7637   5.405  11.233  -0.100 -0.4680 -0.3371  0.0398
  798MOL0     C 7638   5.270  11.168  -0.116 -0.1825  0.2639  0.2288
  798MOL0     C 7639   5.166  11.259  -0.058 -0.1542  0.2796 -0.2599
  798MOL0    Cl 7640   5.173  11.411  -0.156  0.0358 -0.1476 -0.2817
  798MOL0     C 7641   6.339  11.279   0.003 -0.1157  0.1762  0.0467
  798MOL0     C 7642   6.475  11.252   0.021  0.3245  0.1386  0.1216
  798MOL0     O 7643   6.737  11.255   0.143 -0.3040  0.1655 -0.5370
  798MOL0     C 7644   6.889  10.958   0.021  0.3023 -0.4930  0.8445
  798MOL0     C 7645   7.010  10.894  -0.007 -0.4532 -0.2215  0.0021
  798MOL0     N 7646   7.478  10.541   0.369  0.4462 -0.3364 -0.1199
  798MOL0     N 7647   7.525  10.477   0.472 -0.3054 -0.4870 -0.2842
  798MOL0     C 7648   8.422  10.060   0.315  0.6317 -0.5543 -0.7986
  798MOL0     C 7649   8.528  10.112   0.242  0.0886 -0.6782 -0.4893
  798MOL0     C 7650   8.937  10.203   0.062 -0.3055  0.0926 -0.0226
  798MOL0     C 7651   9.016  10.285   0.142 -0.0229  0.9419  0.1984
  798MOL0     C 7652   9.143  10.309   0.104 -1.0496 -0.2611  0.2121
  798MOL0     C 7653   9.204  10.247  -0.012 -0.3159  0.2318 -0.1308
  798MOL0     O 7654   9.340  10.262  -0.042  0.2503  0.7531 -0.6782
  798MOL0     C 7655   9.362  10.307  -0.181 -0.7468  0.2345  0.3293
  798MOL0     C 7656   9.490  10.397  -0.189  0.1414 -0.9048  0.2730
  798MOL0     C 7657   9.609  10.317  -0.142 -0.6787  0.1243 -0.1305
  798MOL0     C 7658   9.740  10.407  -0.124 -0.4184 -0.2905 -0.2009
  798MOL0     C 7659   9.785  10.453  -0.256  0.4951 -0.3230  0.2925
  798MOL0     C 7660   9.815  10.503  -0.366  0.1409  0.6188 -0.4511
  798MOL0     C 7661   9.120  10.182  -0.098  0.0527  0.4280 -0.1050
  798MOL0     C 7662   8.984  10.160  -0.063  0.2072 -0.7829 -0.2329
  798MOL0     H 7663   8.753  10.138   0.486 -1.7823 -0.3048  0.8762
  798MOL0     H 7664   8.567  10.034   0.623 -1.0952 -0.4574 -0.1737
  798MOL0     H 7665   8.220   9.902   0.364 -0.6735  0.4450 -0.1215
  798MOL0     H 7666   8.280   9.821   0.511  0.4856  1.7856  1.5854
  798MOL0     H 7667   8.015   9.855   0.494 -3.0465  2.6253 -0.6040
  798MOL0     H 7668   8.092   9.932   0.640 -1.6145  0.5312  0.5334
  798MOL0     H 7669   8.085  10.151   0.534 -2.2756  1.7811  1.3192
  798MOL0     H 7670   8.022  10.071   0.383 -2.8433 -0.5940 -0.4471
  798MOL0     H 7671   7.817  10.052   0.487  2.8397 -1.6319 -0.4644
  798MOL0     H 7672   7.880  10.019   0.648 -0.7360 -1.4953 -1.3924
  798MOL0     H 7673   7.772  10.229   0.651  0.8525 -0.2410  1.1175
  798MOL0     H 7674   7.949  10.256   0.674 -2.1597  1.5303  1.8252
  798MOL0     H 7675   7.947  10.321   0.431  1.3286 -1.0657  0.7567
  798MOL0     H 7676   7.769  10.308   0.437 -0.0843  1.5632  0.1451
  798MOL0     H 7677   7.928  10.494   0.640 -0.4473  2.3939  0.3948
  798MOL0     H 7678   7.886  10.564   0.487  2.1611  0.5686  1.7884
  798MOL0     H 7679   7.737  10.594   0.691  0.2652 -1.3887 -0.2380
  798MOL0     H 7680   7.697  10.425   0.687 -2.1732 -1.2304 -1.3967
  798MOL0     H 7681   7.711  10.742   0.468  1.0648 -0.0457 -2.6050
  798MOL0     H 7682   7.588  10.827   0.232  0.8150 -0.2552  0.9928
  798MOL0     H 7683   7.539  10.697   0.133 -0.2377  0.1166 -0.5503
  798MOL0     H 7684   7.352  10.901   0.213 -1.2847  0.2588  0.3449
  798MOL0     H 7685   7.331  10.782   0.336  1.9059  0.3932  0.8575
  798MOL0     H 7686   7.172  10.715   0.163 -1.4290 -1.8395 -2.7429
  798MOL0     H 7687   7.289  10.597   0.136  0.1944  1.3186  0.8393
  798MOL0     H 7688   7.223  10.709  -0.083  3.0767 -0.1910 -2.3585
  798MOL0     H 7689   7.384  10.753  -0.052 -0.6469 -0.7945 -3.6885
  798MOL0     H 7690   7.232  11.130   0.066 -1.0530 -0.8284  2.4717
  798MOL0     H 7691   7.143  11.313   0.169  0.3895  0.1032 -0.4272
  798MOL0     H 7692   7.015  11.372   0.068  0.5975 -1.1035 -0.0457
  798MOL0     H 7693   6.978  11.327   0.232 -0.8192  3.4248 -1.4267
  798MOL0     H 7694   6.473  10.919   0.002 -0.3969 -1.7914  0.2369
  798MOL0     H 7695   6.234  10.958  -0.015 -0.1147  0.2661 -0.2735
  798MOL0     H 7696   6.047  11.036  -0.103 -0.8128  1.1434 -0.8479
  798MOL0     H 7697   5.996  11.057   0.078  4.4645 -2.8123  0.9338
  798MOL0     H 7698   5.897  11.267  -0.012 -0.9066 -1.9130  2.1569
  798MOL0     H 7699   5.920  11.193  -0.172 -0.0842 -0.9479 -0.5749
  798MOL0     H 7700   5.762  11.060   0.048  0.0338 -2.1063 -0.7078
  798MOL0     H 7701   5.766  11.024  -0.124  0.5507  1.5210 -1.3202
  798MOL0     H 7702   5.665  11.279  -0.021  1.2886 -0.0826 -0.1242
  798MOL0     H 7703   5.667  11.244  -0.191 -3.0842 -1.5090 -0.7422
  798MOL0     H 7704   5.487  11.077  -0.004 -1.3589  1.3189  0.7027
  798MOL0     H 7705   5.497  11.057  -0.176  1.4633 -0.9299  1.3743
  798MOL0     H 7706   5.413  11.274   0.001 -0.0056 -2.3342  0.8647
  798MOL0     H 7707   5.432  11.309  -0.174  1.9428 -1.0844  0.0457
  798MOL0     H 7708   5.266  11.074  -0.062  2.0843  0.3352  0.6019
  798MOL0     H 7709   5.249  11.147  -0.222 -1.0329 -0.4453  0.5333
  798MOL0     H 7710   5.192  11.279   0.046 -0.3567  0.9845 -0.3435
  798MOL0     H 7711   5.074  11.202  -0.074  0.0402  0.2184 -1.2498
  798MOL0     H 7712   6.301  11.378  -0.018 -0.3829  0.5194  2.0073
  798MOL0     H 7713   6.537  11.341   0.031  0.4725 -0.2150  3.4260
  798MOL0     H 7714   6.801  10.896   0.006 -0.8998  1.3647 -0.1620
  798MOL0     H 7715   7.008  10.794  -0.048 -1.3534  0.9291 -2.9997
  798MOL0     H 7716   8.327  10.040   0.267 -0.1584  2.7505 -0.8324
  798MOL0     H 7717   8.524  10.100   0.135  0.9763  1.0344 -0.7468
  798MOL0     H 7718   8.975  10.331   0.232  0.1923 -0.1452  0.8747
  798MOL0     H 7719   9.206  10.380   0.157 -1.2069  3.2487 -3.7719
  798MOL0     H 7720   9.364  10.223  -0.250 -2.7418  0.4305 -0.0137
  798MOL0     H 7721   9.284  10.375  -0.216 -0.6824  0.4980  0.6917
  798MOL0     H 7722   9.487  10.494  -0.138 -0.2806  1.9757 -4.6205
  798MOL0     H 7723   9.493  10.430  -0.293 -1.1319 -1.5635  0.0082
  798MOL0     H 7724   9.633  10.239  -0.215  2.0128 -1.2999  2.0656
  798MOL0     H 7725   9.588  10.258  -0.052 -2.4888  1.1999  0.2027
  798MOL0     H 7726   9.826  10.369  -0.067 -0.6138 -0.6546 -0.1456
  798MOL0     H 7727   9.698  10.487  -0.064 -3.1871 -2.0512  0.3732
  798MOL0     H 7728   9.836  10.541  -0.464  1.9127  1.8183  0.3487
  798MOL0     H 7729   9.156  10.160  -0.197 -0.9049  2.0386 -0.8604
  798MOL0     H 7730   8.919  10.102  -0.127 -0.6832 -1.4782  1.2494
  799MOL0     O 7731   2.683   5.918   5.090  0.0419  0.2486  0.8233
  799MOL0     C 7732   2.711   6.011   5.161 -0.2611 -0.3202  0.1222
  799MOL0     O 7733   2.641   6.121   5.175  0.8081  0.5401  0.9293
  799MOL0     C 7734   2.535   6.155   5.084 -0.8314 -0.9095  0.0259
  799MOL0     C 7735   2.554   6.148   4.945 -0.1316 -0.1069 -0.7320
  799MOL0     C 7736   2.452   6.174   4.861 -0.0331  0.0376  0.2838
  799MOL0     C 7737   2.333   6.219   4.916  0.0813 -0.0412 -0.2039
  799MOL0     O 7738   2.226   6.247   4.829  0.0857  0.2430  0.4350
  799MOL0     C 7739   2.139   6.353   4.862  0.1791 -0.6391 -0.2280
  799MOL0     C 7740   2.039   6.372   4.745 -0.0364  0.7067 -0.1783
  799MOL0     C 7741   1.923   6.459   4.793  1.4449 -0.4921  0.0130
  799MOL0     C 7742   1.826   6.483   4.678 -0.4371  0.0090  0.7753
  799MOL0     C 7743   1.727   6.596   4.709 -0.0923  0.1948 -0.5056
  799MOL0     C 7744   1.644   6.647   4.600 -0.0867 -0.4059 -0.1003
  799MOL0     C 7745   1.564   6.542   4.517  0.4001  0.5490 -0.3889
  799MOL0     C 7746   1.478   6.457   4.612 -0.0770 -0.1255  0.8035
  799MOL0     N 7747   1.375   6.371   4.543 -0.2382  0.0669 -0.5069
  799MOL0     C 7748   1.371   6.235   4.559 -0.0073 -0.0996  0.0702
  799MOL0     C 7749   1.284   6.189   4.466  0.2461 -0.5345  0.5628
  799MOL0     C 7750   1.247   6.049   4.429  0.5203 -0.3794 -0.3809
  799MOL0     C 7751   1.157   5.990   4.537  0.3758 -0.1716  0.4287
  799MOL0     C 7752   1.104   5.847   4.503 -0.2331  0.4449  0.0951
  799MOL0     C 7753   1.016   5.838   4.386  0.2373 -0.6055 -0.8033
  799MOL0     O 7754   1.091   5.808   4.267  0.3146 -0.4036  0.3636
  799MOL0     C 7755   1.039   5.843   4.150 -0.7588 -0.0323 -0.0497
  799MOL0     C 7756   1.136   5.866   4.056 -0.3725  0.2497  0.2005
  799MOL0     C 7757   1.103   5.904   3.928 -0.4853 -0.0352  1.1942
  799MOL0     C 7758   1.213   5.922   3.823  0.4285  0.7627 -0.2687
  799MOL0     C 7759   0.965   5.900   3.888 -0.7272 -0.0397  0.7763
  799MOL0     C 7760   0.912   5.901   3.744  0.3084  0.0268 -0.1382
  799MOL0     O 7761   0.780   5.864   3.725 -0.3769 -0.5859 -0.3559
  799MOL0     C 7762   0.737   5.860   3.595 -0.0304 -0.4750 -0.0349
  799MOL0     C 7763   0.738   5.978   3.525  0.2643  0.1818  0.4556
  799MOL0     C 7764   0.702   5.981   3.388  0.1747 -0.0494 -0.4464
  799MOL0     C 7765   0.661   5.869   3.320  0.1910  0.7935 -0.2042
  799MOL0     O 7766   0.591   5.877   3.202  0.0625  0.8650 -0.1746
  799MOL0     C 7767   0.671   5.918   3.095 -0.8845  0.8134  0.2921
  799MOL0     C 7768   0.573   5.936   2.983 -0.5245  1.1020  1.0433
  799MOL0     C 7769   0.456   6.039   3.003 -0.4196 -0.0246  0.1061
  799MOL0     C 7770   0.333   6.007   2.926 -0.5408  0.3846  0.1019
  799MOL0     C 7771   0.237   6.126   2.939 -0.3752  0.7470  0.4152
  799MOL0     C 7772   0.110   6.093   2.855  0.7238 -0.4012 -1.2985
  799MOL0     C 7773   0.011   6.204   2.873 -0.3314 -0.0958  0.1976
  799MOL0     C 7774  -0.121   6.166   2.938 -0.2359  0.2940  0.2105
  799MOL0    Cl 7775  -0.121   6.138   3.111 -0.0383  0.3148  0.0409
  799MOL0     C 7776   0.663   5.745   3.397 -0.2380 -0.5856 -0.3536
  799MOL0     C 7777   0.703   5.741   3.531 -0.8883 -0.2858  0.4705
  799MOL0     O 7778   0.993   5.926   3.653  0.4133  0.1572  0.1626
  799MOL0     C 7779   0.867   5.881   3.983 -0.0422 -0.6030 -0.0673
  799MOL0     C 7780   0.904   5.854   4.121 -0.1410  1.4453 -0.4883
  799MOL0     N 7781   1.236   6.290   4.395 -0.7867 -0.8583 -0.0844
  799MOL0     N 7782   1.294   6.401   4.437  0.0203 -0.1481  0.2849
  799MOL0     C 7783   2.313   6.227   5.057  1.1171  0.5156  0.1342
  799MOL0     C 7784   2.411   6.201   5.137  0.4672  0.4298 -0.0300
  799MOL0     C 7785   2.824   6.001   5.254 -0.0325 -0.1343 -0.1966
  799MOL0     C 7786   2.899   5.883   5.269 -1.2511  0.0633  0.3158
  799MOL0     C 7787   3.012   5.877   5.351  0.1501 -0.2890 -0.6449
  799MOL0     C 7788   3.053   5.994   5.416 -0.6373 -0.1563 -0.3726
  799MOL0     O 7789   3.166   5.988   5.498 -0.4160  0.3819 -0.1003
  799MOL0     C 7790   3.224   6.109   5.558 -0.0163 -0.3073  0.0386
  799MOL0     C 7791   3.373   6.089   5.593 -0.7886  0.1270  0.0697
  799MOL0     C 7792   3.447   6.105   5.461 -0.0147 -0.4867 -0.1193
  799MOL0     C 7793   3.599   6.103   5.479  0.0161 -0.7923 -0.2196
  799MOL0     C 7794   3.673   6.121   5.356  0.3594 -0.0301 -0.3077
  799MOL0     C 7795   3.740   6.139   5.255 -0.0894  0.1723 -0.5578
  799MOL0     C 7796   2.981   6.116   5.395  0.0171  0.1629  0.3224
  799MOL0     C 7797   2.867   6.117   5.314 -0.3925  0.7895  0.0264
  799MOL0     H 7798   2.651   6.125   4.904  1.4021  1.9644  1.4220
  799MOL0     H 7799   2.466   6.161   4.754  1.8145  2.3228  0.1701
  799MOL0     H 7800   2.093   6.346   4.961  3.1341 -1.0013  1.2428
  799MOL0     H 7801   2.186   6.452   4.860  0.9505 -1.0100 -0.9953
  799MOL0     H 7802   2.097   6.413   4.662  0.0553 -2.2822 -1.7395
  799MOL0     H 7803   2.012   6.271   4.712 -0.4212  1.4853 -2.4067
  799MOL0     H 7804   1.867   6.409   4.872  0.1361  2.3641  1.0286
  799MOL0     H 7805   1.951   6.550   4.846 -0.1387  0.1023 -0.1076
  799MOL0     H 7806   1.882   6.520   4.592 -1.9998  2.9185  0.8743
  799MOL0     H 7807   1.773   6.391   4.651 -2.2186  0.8153  1.3769
  799MOL0     H 7808   1.656   6.564   4.786 -1.0889  0.4367 -1.2988
  799MOL0     H 7809   1.792   6.678   4.742  0.3881 -0.6135  0.5891
  799MOL0     H 7810   1.581   6.720   4.651 -1.7207 -2.2389  0.6457
  799MOL0     H 7811   1.714   6.692   4.529 -1.4808  1.6500 -0.2481
  799MOL0     H 7812   1.504   6.575   4.432  0.5497 -2.2713 -1.7113
  799MOL0     H 7813   1.629   6.468   4.469  1.9273  1.4234  0.2642
  799MOL0     H 7814   1.420   6.518   4.682 -0.2558 -1.5618  1.9461
  799MOL0     H 7815   1.544   6.399   4.677 -1.1039 -1.3561  0.7633
  799MOL0     H 7816   1.412   6.176   4.641 -1.1790 -0.2556  0.5673
  799MOL0     H 7817   1.187   6.052   4.338 -1.7235 -0.4502  1.0018
  799MOL0     H 7818   1.334   5.987   4.407 -0.1868 -2.6380  2.4913
  799MOL0     H 7819   1.072   6.059   4.532 -0.5973 -1.3991 -0.9159
  799MOL0     H 7820   1.209   5.996   4.633  2.2859 -1.8103 -0.4187
  799MOL0     H 7821   1.053   5.794   4.584  0.0776  0.6282  0.4135
  799MOL0     H 7822   1.190   5.783   4.479 -1.0569 -1.6193  2.2592
  799MOL0     H 7823   0.950   5.923   4.367  1.7065  1.0434  1.0937
  799MOL0     H 7824   0.944   5.756   4.400 -1.7323  1.1926  0.2028
  799MOL0     H 7825   1.239   5.878   4.088  0.0109  1.3206 -1.3477
  799MOL0     H 7826   1.311   5.924   3.873  0.4969 -0.9583 -0.2535
  799MOL0     H 7827   1.209   5.834   3.759  0.1958 -1.9203  3.1340
  799MOL0     H 7828   1.191   6.012   3.766 -2.0849  0.7035  0.5270
  799MOL0     H 7829   0.754   6.067   3.586 -2.1318  1.2747 -0.3870
  799MOL0     H 7830   0.693   6.072   3.328 -0.4472 -0.6226 -1.2387
  799MOL0     H 7831   0.717   6.017   3.103  1.3658 -0.2139  0.9200
  799MOL0     H 7832   0.746   5.840   3.077 -1.2564  0.1569  1.4763
  799MOL0     H 7833   0.633   5.966   2.896  0.3788  0.2083  1.3385
  799MOL0     H 7834   0.534   5.836   2.964  3.1619 -0.5977  1.5810
  799MOL0     H 7835   0.494   6.141   2.988  1.8780 -0.5681  1.6037
  799MOL0     H 7836   0.417   6.033   3.105  0.4418  0.4473  0.4765
  799MOL0     H 7837   0.366   6.003   2.821  1.2216  3.1290  0.4685
  799MOL0     H 7838   0.291   5.911   2.958  2.0953 -0.4909  1.2168
  799MOL0     H 7839   0.272   6.224   2.905  0.5800 -0.0796 -1.0997
  799MOL0     H 7840   0.203   6.138   3.042  0.1000 -0.3576  0.7131
  799MOL0     H 7841   0.143   6.087   2.750  0.3164  0.9759 -1.5284
  799MOL0     H 7842   0.074   5.995   2.887 -0.0598  0.5974  1.0805
  799MOL0     H 7843  -0.021   6.242   2.776 -1.5086  2.6929  1.5458
  799MOL0     H 7844   0.041   6.289   2.935 -2.3838  1.9276 -1.4057
  799MOL0     H 7845  -0.158   6.067   2.912 -1.3223  0.7689 -0.1111
  799MOL0     H 7846  -0.199   6.240   2.914 -1.5392 -0.6483  1.3332
  799MOL0     H 7847   0.633   5.646   3.366  1.1978 -2.7594  4.2992
  799MOL0     H 7848   0.692   5.655   3.597  1.0605 -0.2111  0.9588
  799MOL0     H 7849   0.760   5.891   3.969  0.0571 -3.2558 -4.0677
  799MOL0     H 7850   0.829   5.832   4.195 -0.1302 -0.4125 -0.9790
  799MOL0     H 7851   2.221   6.260   5.103  0.4860 -1.9871  0.8152
  799MOL0     H 7852   2.389   6.206   5.244 -2.1707  0.6665 -0.5218
  799MOL0     H 7853   2.868   5.793   5.217  1.0387 -0.0334 -1.0198
  799MOL0     H 7854   3.073   5.789   5.369  0.9693  0.8830  3.2286
  799MOL0     H 7855   3.208   6.207   5.511 -3.3288 -0.6303  0.2910
  799MOL0     H 7856   3.179   6.126   5.656 -0.9757 -1.1724 -0.2402
  799MOL0     H 7857   3.390   5.985   5.621  2.6639  0.1769 -1.3070
  799MOL0     H 7858   3.410   6.158   5.669 -0.0095 -0.3242  0.1077
  799MOL0     H 7859   3.412   6.205   5.434 -0.8930 -1.2530 -1.9429
  799MOL0     H 7860   3.417   6.026   5.392 -0.0764  0.3757 -1.1062
  799MOL0     H 7861   3.627   6.004   5.515  0.6132 -1.2176 -1.7902
  799MOL0     H 7862   3.626   6.181   5.552  2.2083 -2.0885  0.4524
  799MOL0     H 7863   3.791   6.155   5.162  1.4236 -0.2078  0.1609
  799MOL0     H 7864   2.999   6.214   5.438 -0.5020 -0.8899  3.1382
  799MOL0     H 7865   2.809   6.208   5.300 -0.6716  0.6834  0.4613
  800MOL0     O 7866   2.544   2.644   6.891  0.0167  0.6404  0.0314
  800MOL0     C 7867   2.532   2.751   6.948 -0.4968  0.5212 -0.0656
  800MOL0     O 7868   2.437   2.840   6.935 -0.0999 -1.3948  0.0433
  800MOL0     C 7869   2.344   2.818   6.835 -0.7155 -1.1852  0.2593
  800MOL0     C 7870   2.210   2.825   6.875  0.8959 -0.9165 -0.0304
  800MOL0     C 7871   2.105   2.794   6.780  0.4042  0.0829  0.5335
  800MOL0     C 7872   2.137   2.751   6.650  0.3337 -0.6658 -0.9492
  800MOL0     O 7873   2.029   2.700   6.578  0.0028  0.2512 -0.2661
  800MOL0     C 7874   2.060   2.589   6.495 -0.0494  0.6642  0.3373
  800MOL0     C 7875   1.919   2.536   6.461 -0.1789 -0.1271  0.1649
  800MOL0     C 7876   1.842   2.631   6.361 -0.6695  0.5916  0.3059
  800MOL0     C 7877   1.693   2.603   6.373 -0.0524 -0.1810  0.2661
  800MOL0     C 7878   1.620   2.668   6.263 -0.4874 -0.3778 -0.0864
  800MOL0     C 7879   1.477   2.623   6.281  0.0986 -0.3591  0.9836
  800MOL0     C 7880   1.385   2.708   6.196 -0.0230 -0.2840 -0.2241
  800MOL0     C 7881   1.244   2.660   6.192 -0.2874 -0.0039 -0.1368
  800MOL0     N 7882   1.165   2.777   6.144  0.4739  0.4735 -0.2259
  800MOL0     C 7883   1.132   2.796   6.014 -1.2357  0.3313  0.2910
  800MOL0     C 7884   1.061   2.907   6.009  0.0254  0.0761  0.6669
  800MOL0     C 7885   1.011   2.983   5.886  0.1581 -0.6187 -0.0601
  800MOL0     C 7886   1.107   3.096   5.844  0.3272 -0.6715  1.2309
  800MOL0     C 7887   1.099   3.220   5.936 -0.6577 -0.5489 -0.8880
  800MOL0     C 7888   0.965   3.295   5.950 -0.2478  0.1655  0.0453
  800MOL0     O 7889   0.912   3.314   5.820  0.0300  0.9073  0.0036
  800MOL0     C 7890   0.786   3.374   5.838 -0.1658  0.1787 -0.3908
  800MOL0     C 7891   0.756   3.486   5.918 -0.1802 -0.3404  0.4510
  800MOL0     C 7892   0.631   3.550   5.917 -0.4762 -0.5294  0.0444
  800MOL0     C 7893   0.619   3.671   6.011 -0.1473  0.1694  0.2023
  800MOL0     C 7894   0.524   3.486   5.846  0.0469 -0.0274 -0.4125
  800MOL0     C 7895   0.383   3.544   5.839  0.2035 -0.2409  0.8494
  800MOL0     O 7896   0.296   3.484   5.747 -0.1206  0.4066 -0.9330
  800MOL0     C 7897   0.170   3.531   5.751 -0.1286  0.1903 -0.1427
  800MOL0     C 7898   0.071   3.438   5.774 -0.8044 -0.8472 -1.0086
  800MOL0     C 7899  -0.059   3.475   5.776  0.4852 -1.0528 -0.1979
  800MOL0     C 7900  -0.098   3.602   5.734 -0.1718  0.6996 -0.7966
  800MOL0     O 7901  -0.232   3.624   5.725 -0.4494 -0.0590 -0.1453
  800MOL0     C 7902  -0.282   3.731   5.634  1.4951 -0.9945 -0.6420
  800MOL0     C 7903  -0.268   3.702   5.489  0.1370 -0.7276  0.5103
  800MOL0     C 7904  -0.401   3.680   5.417 -0.1317 -0.1200  0.7845
  800MOL0     C 7905  -0.473   3.552   5.460 -0.2263 -0.3591 -0.3213
  800MOL0     C 7906  -0.401   3.422   5.403  1.4374 -0.2317  0.7745
  800MOL0     C 7907  -0.462   3.287   5.452 -0.3677  0.1950  0.9494
  800MOL0     C 7908  -0.402   3.253   5.584 -0.5913 -0.0361  0.6334
  800MOL0     C 7909  -0.429   3.104   5.616 -0.6750 -0.0734 -0.1282
  800MOL0    Cl 7910  -0.599   3.076   5.660  0.1192 -0.3146 -0.4818
  800MOL0     C 7911   0.007   3.686   5.705  0.1196 -0.0526 -0.3749
  800MOL0     C 7912   0.141   3.659   5.716 -0.2248 -0.4213 -0.1182
  800MOL0     O 7913   0.344   3.630   5.909 -0.1350  0.5310  0.2820
  800MOL0     C 7914   0.541   3.364   5.790 -0.4343  0.2064  0.4228
  800MOL0     C 7915   0.672   3.307   5.782  0.4002 -0.9430 -0.8560
  800MOL0     N 7916   1.057   2.956   6.136  0.6987 -0.7661  0.1781
  800MOL0     N 7917   1.118   2.881   6.216  0.0941 -0.2163  0.3253
  800MOL0     C 7918   2.274   2.747   6.613  0.5735  0.1181  0.8362
  800MOL0     C 7919   2.374   2.771   6.708 -0.6075  0.0905 -0.3365
  800MOL0     C 7920   2.645   2.788   7.040  0.8147  0.4425  0.6025
  800MOL0     C 7921   2.766   2.716   7.033 -0.4470 -0.8959 -0.2509
  800MOL0     C 7922   2.869   2.743   7.126 -0.7910 -0.2867 -0.3190
  800MOL0     C 7923   2.862   2.847   7.214  1.0454 -0.3658 -0.6883
  800MOL0     O 7924   2.961   2.875   7.313  0.1031  0.2530 -0.5345
  800MOL0     C 7925   3.064   2.773   7.336 -0.1288 -0.3001 -0.2999
  800MOL0     C 7926   3.138   2.805   7.463  0.4869  0.3399  0.0312
  800MOL0     C 7927   3.260   2.716   7.490  0.1913 -0.0054  0.3090
  800MOL0     C 7928   3.337   2.752   7.616  0.3241 -0.3580 -0.4241
  800MOL0     C 7929   3.427   2.864   7.592 -0.3253  0.6706 -0.5327
  800MOL0     C 7930   3.499   2.955   7.563  0.1722 -0.5118  0.1062
  800MOL0     C 7931   2.734   2.907   7.232 -0.0104  1.0102  0.4780
  800MOL0     C 7932   2.631   2.877   7.143  0.0454 -0.1055 -0.1240
  800MOL0     H 7933   2.186   2.859   6.975 -0.1993 -0.4408 -0.4365
  800MOL0     H 7934   2.001   2.807   6.808  0.4583 -0.4442  1.0036
  800MOL0     H 7935   2.118   2.606   6.404  1.6245 -4.3174  0.1596
  800MOL0     H 7936   2.105   2.504   6.548 -2.6471 -1.0570 -0.0519
  800MOL0     H 7937   1.930   2.438   6.413 -0.6461 -0.0956 -0.0135
  800MOL0     H 7938   1.865   2.520   6.554  0.9184 -3.2097  0.3788
  800MOL0     H 7939   1.849   2.733   6.398 -2.6694  1.4523 -1.4978
  800MOL0     H 7940   1.874   2.627   6.257 -3.2526 -0.2335 -0.5151
  800MOL0     H 7941   1.673   2.497   6.354 -2.4065  0.1033  0.8845
  800MOL0     H 7942   1.655   2.633   6.470 -0.1012  0.4021  0.0695
  800MOL0     H 7943   1.618   2.777   6.270 -0.9725 -0.2623 -1.5152
  800MOL0     H 7944   1.660   2.635   6.166  1.6876 -2.4052  1.4049
  800MOL0     H 7945   1.475   2.520   6.244 -1.2883 -0.6124  1.7263
  800MOL0     H 7946   1.441   2.635   6.383  0.5883 -1.2021  1.2705
  800MOL0     H 7947   1.399   2.811   6.231 -2.1769  0.0009 -0.0764
  800MOL0     H 7948   1.424   2.702   6.093  1.0494 -1.6834  0.2404
  800MOL0     H 7949   1.210   2.646   6.295 -0.5271  1.7162  0.0396
  800MOL0     H 7950   1.223   2.567   6.138 -2.8980  2.3376 -3.6296
  800MOL0     H 7951   1.165   2.728   5.937 -2.3131  0.9383 -0.7331
  800MOL0     H 7952   1.007   2.911   5.804  0.6772  0.3007 -0.9050
  800MOL0     H 7953   0.911   3.022   5.905  0.7812  0.6852  0.6951
  800MOL0     H 7954   1.081   3.127   5.742 -1.2950 -2.5306  1.0263
  800MOL0     H 7955   1.204   3.046   5.845 -1.3748 -4.3264 -0.4471
  800MOL0     H 7956   1.175   3.286   5.893 -1.2005  0.5654 -0.1895
  800MOL0     H 7957   1.129   3.190   6.036  0.1095 -1.5426 -1.3947
  800MOL0     H 7958   0.982   3.394   5.993 -1.4230  1.1946 -1.7339
  800MOL0     H 7959   0.899   3.244   6.022  0.0690 -1.2138 -0.6038
  800MOL0     H 7960   0.831   3.535   5.979 -1.7239 -0.0454  2.1983
  800MOL0     H 7961   0.577   3.644   6.108 -0.7460  2.6699  0.7038
  800MOL0     H 7962   0.715   3.721   6.026 -0.1290  0.2873 -0.2836
  800MOL0     H 7963   0.548   3.741   5.966 -0.1006 -0.8317 -1.5384
  800MOL0     H 7964   0.091   3.336   5.803 -0.7978 -0.5883 -0.0607
  800MOL0     H 7965  -0.130   3.399   5.806  0.2421 -0.5180  0.6077
  800MOL0     H 7966  -0.389   3.735   5.654  1.6505 -1.3783  0.3665
  800MOL0     H 7967  -0.254   3.829   5.673 -2.5427  0.5532 -1.1792
  800MOL0     H 7968  -0.219   3.793   5.452  1.0263 -2.1426 -1.9920
  800MOL0     H 7969  -0.207   3.614   5.469  0.8240  0.0956 -1.1964
  800MOL0     H 7970  -0.379   3.677   5.310  2.5164 -1.3893  1.2603
  800MOL0     H 7971  -0.470   3.762   5.436 -0.6682 -0.1652 -0.7979
  800MOL0     H 7972  -0.459   3.549   5.568  1.3867  1.7456 -0.3991
  800MOL0     H 7973  -0.578   3.553   5.428 -0.2784  2.1532 -0.2889
  800MOL0     H 7974  -0.293   3.426   5.420  1.3235  3.4425  1.6366
  800MOL0     H 7975  -0.420   3.422   5.295  1.7680  1.7677  0.6698
  800MOL0     H 7976  -0.571   3.297   5.448 -0.2540  1.6001 -3.3885
  800MOL0     H 7977  -0.445   3.212   5.374  0.0803  0.5583  0.6964
  800MOL0     H 7978  -0.437   3.321   5.662  0.0819  0.0553  0.8561
  800MOL0     H 7979  -0.294   3.267   5.582 -0.5694 -0.1589  0.9325
  800MOL0     H 7980  -0.372   3.082   5.707  0.5899  0.6604 -0.7190
  800MOL0     H 7981  -0.403   3.041   5.530  1.0369 -0.7859  0.8531
  800MOL0     H 7982  -0.023   3.785   5.671 -2.8273 -0.9454 -0.5990
  800MOL0     H 7983   0.222   3.729   5.701 -2.5075  1.9100 -2.5040
  800MOL0     H 7984   0.463   3.302   5.745  0.2310 -0.0020 -0.4754
  800MOL0     H 7985   0.689   3.205   5.749  0.1057 -1.3446  0.1898
  800MOL0     H 7986   2.298   2.708   6.515 -0.3934 -0.9436  0.9993
  800MOL0     H 7987   2.476   2.754   6.673 -0.5881 -1.1694  0.2642
  800MOL0     H 7988   2.770   2.637   6.959 -1.2860 -1.3770  0.2096
  800MOL0     H 7989   2.965   2.691   7.123 -1.2036 -1.0018 -1.6005
  800MOL0     H 7990   3.028   2.671   7.355  0.5449 -0.4986 -0.0526
  800MOL0     H 7991   3.135   2.773   7.253  0.3460 -1.1637  0.0868
  800MOL0     H 7992   3.068   2.801   7.546  0.9472  0.2291  0.4159
  800MOL0     H 7993   3.169   2.910   7.459 -1.5936  0.9606 -2.4604
  800MOL0     H 7994   3.330   2.730   7.407  1.5743  2.1568  1.7229
  800MOL0     H 7995   3.222   2.614   7.493 -2.9729  1.0326 -0.1835
  800MOL0     H 7996   3.401   2.670   7.650  3.0851  2.5202  1.9842
  800MOL0     H 7997   3.268   2.773   7.698 -2.2636  0.8407 -2.7591
  800MOL0     H 7998   3.555   3.043   7.537  3.1334 -1.7213  1.8669
  800MOL0     H 7999   2.723   2.986   7.305 -3.8235  1.8035 -0.7280
  800MOL0     H 8000   2.538   2.929   7.164  0.4962  0.1003  1.5963
  801MOL0     O 8001   1.132   6.232   2.775  0.3776  0.2939  0.0678
  801MOL0     C 8002   1.106   6.123   2.834  0.6127  0.3480  0.6587
  801MOL0     O 8003   0.979   6.075   2.848 -0.1093 -0.8594  0.2371
  801MOL0     C 8004   0.876   6.162   2.820  1.1410  0.2115  0.4791
  801MOL0     C 8005   0.833   6.246   2.928  0.4083  0.2829 -0.1043
  801MOL0     C 8006   0.730   6.334   2.917 -0.5483  0.8829 -0.1891
  801MOL0     C 8007   0.674   6.348   2.782 -0.5046 -0.6743  0.2502
  801MOL0     O 8008   0.568   6.428   2.755  0.2357 -0.7058  0.0650
  801MOL0     C 8009   0.484   6.470   2.866  0.2012  0.7290  0.5031
  801MOL0     C 8010   0.359   6.536   2.821  0.3737 -0.2856  0.5724
  801MOL0     C 8011   0.379   6.653   2.736 -0.1075 -0.4847  0.0840
  801MOL0     C 8012   0.250   6.726   2.708  0.6126  0.5834 -0.1990
  801MOL0     C 8013   0.269   6.856   2.632  0.3708 -0.9546 -0.3968
  801MOL0     C 8014   0.134   6.903   2.563 -0.5253 -0.9943 -0.1644
  801MOL0     C 8015   0.166   7.025   2.470 -0.3810  0.8908  0.1041
  801MOL0     C 8016   0.041   7.036   2.380 -0.7035 -1.3996 -0.4508
  801MOL0     N 8017  -0.074   7.082   2.459  0.3881  0.8620 -0.3635
  801MOL0     C 8018  -0.084   7.200   2.532  0.3772  0.5378  0.5306
  801MOL0     C 8019  -0.200   7.186   2.601 -0.6748 -0.0560  0.2030
  801MOL0     C 8020  -0.269   7.294   2.676 -0.4383 -0.1061 -0.4972
  801MOL0     C 8021  -0.223   7.281   2.819 -0.6263 -0.1239  0.8904
  801MOL0     C 8022  -0.258   7.387   2.929 -0.3262 -0.0965  0.6269
  801MOL0     C 8023  -0.409   7.381   2.960 -1.3740  0.7743 -0.6180
  801MOL0     O 8024  -0.448   7.497   3.038  0.3123  0.4962  0.5717
  801MOL0     C 8025  -0.581   7.529   3.046 -0.1151  0.1689  0.2413
  801MOL0     C 8026  -0.683   7.436   3.006 -0.0692  0.4312  0.2879
  801MOL0     C 8027  -0.815   7.467   3.018  0.6762  0.1092  0.5869
  801MOL0     C 8028  -0.910   7.358   2.981  0.8199  1.0778 -0.6748
  801MOL0     C 8029  -0.863   7.592   3.060 -0.6855  0.1832 -0.3030
  801MOL0     C 8030  -0.993   7.630   3.090  0.9070 -0.2596  0.0980
  801MOL0     O 8031  -1.005   7.766   3.125  0.3049 -0.5305 -0.6162
  801MOL0     C 8032  -1.122   7.818   3.181  0.5287  0.3415 -0.9708
  801MOL0     C 8033  -1.151   7.766   3.310  0.3930  0.7818 -0.4127
  801MOL0     C 8034  -1.267   7.823   3.370  0.2360  0.0282 -0.3832
  801MOL0     C 8035  -1.344   7.921   3.304 -0.6974  0.0800  0.6136
  801MOL0     O 8036  -1.467   7.951   3.359  0.0415 -0.4484 -0.5368
  801MOL0     C 8037  -1.523   8.081   3.326 -0.0422 -0.1148 -0.5920
  801MOL0     C 8038  -1.641   8.101   3.414  0.7942 -0.2829  0.0845
  801MOL0     C 8039  -1.687   8.244   3.408 -0.1074  0.3654  0.3941
  801MOL0     C 8040  -1.800   8.257   3.504  0.3453  0.3038  0.1206
  801MOL0     C 8041  -1.863   8.392   3.504  0.5092  1.0493 -0.0801
  801MOL0     C 8042  -1.768   8.498   3.563  0.1062 -0.7838  0.5144
  801MOL0     C 8043  -1.841   8.640   3.555  0.3016 -0.0858  0.3288
  801MOL0     C 8044  -1.789   8.734   3.662 -0.4608 -0.1286 -0.2619
  801MOL0    Cl 8045  -1.887   8.893   3.671  0.0318  0.1871  0.2239
  801MOL0     C 8046  -1.307   7.960   3.173  0.3172 -0.0750  0.2465
  801MOL0     C 8047  -1.193   7.920   3.120  0.1159 -0.2581 -0.2411
  801MOL0     O 8048  -1.091   7.558   3.093  0.2637  0.4975 -0.1806
  801MOL0     C 8049  -0.758   7.685   3.081 -0.4500  0.1225 -0.0588
  801MOL0     C 8050  -0.622   7.658   3.081  0.4672  0.8166  0.1468
  801MOL0     N 8051  -0.248   7.060   2.576  0.7869 -0.2212  0.2648
  801MOL0     N 8052  -0.174   7.001   2.495 -0.0340 -0.3427  0.3387
  801MOL0     C 8053   0.721   6.278   2.672 -0.7662 -0.8591 -0.5264
  801MOL0     C 8054   0.824   6.186   2.692 -0.2449  0.0133  1.0983
  801MOL0     C 8055   1.220   6.046   2.880  0.0453  0.2685 -0.1443
  801MOL0     C 8056   1.347   6.060   2.823  0.5442  0.4492 -0.2810
  801MOL0     C 8057   1.458   5.988   2.859  0.5701  0.0541  0.0388
  801MOL0     C 8058   1.446   5.882   2.956  0.4828  0.1785  0.0922
  801MOL0     O 8059   1.547   5.804   3.002  0.6755  0.0861 -0.4537
  801MOL0     C 8060   1.677   5.807   2.943  1.3596 -0.9044  0.8096
  801MOL0     C 8061   1.776   5.724   3.024  1.2121 -0.1493  0.9120
  801MOL0     C 8062   1.818   5.798   3.157  0.9236  0.5893 -0.8407
  801MOL0     C 8063   1.721   5.807   3.278  0.6566 -0.2992 -0.1936
  801MOL0     C 8064   1.802   5.825   3.401  0.0310  0.1559 -1.0030
  801MOL0     C 8065   1.851   5.831   3.513 -0.5271 -0.7154 -0.1986
  801MOL0     C 8066   1.322   5.853   3.011  1.0303  0.3444 -0.0098
  801MOL0     C 8067   1.209   5.931   2.969  1.1702  0.5529 -0.3052
  801MOL0     H 8068   0.887   6.253   3.022  0.5636 -1.1143 -0.0698
  801MOL0     H 8069   0.697   6.385   3.007 -2.5599 -0.1680 -0.2631
  801MOL0     H 8070   0.445   6.389   2.928 -0.6928  0.1829 -0.7427
  801MOL0     H 8071   0.547   6.544   2.917  2.5213 -1.2677  0.7346
  801MOL0     H 8072   0.300   6.465   2.762  3.5056 -0.2356 -2.9637
  801MOL0     H 8073   0.297   6.559   2.908 -2.6451 -1.1570 -1.2287
  801MOL0     H 8074   0.443   6.732   2.775 -1.5830  2.0063 -2.2167
  801MOL0     H 8075   0.421   6.621   2.640 -2.3181  0.4402 -1.3068
  801MOL0     H 8076   0.190   6.659   2.646  0.3797  0.0455  0.5908
  801MOL0     H 8077   0.190   6.746   2.798 -0.8019  2.1101 -1.4278
  801MOL0     H 8078   0.314   6.933   2.697  0.3325 -0.8624 -0.4796
  801MOL0     H 8079   0.337   6.846   2.547  1.2980 -3.0747  0.5083
  801MOL0     H 8080   0.080   6.820   2.516 -3.8543  1.7214 -1.5724
  801MOL0     H 8081   0.077   6.945   2.645  1.7941  1.4929  0.3106
  801MOL0     H 8082   0.180   7.121   2.521  1.9108  0.4600  0.4030
  801MOL0     H 8083   0.262   7.012   2.418 -0.9952  2.0266 -1.4185
  801MOL0     H 8084   0.018   6.946   2.323  2.4601 -2.5077 -0.1644
  801MOL0     H 8085   0.051   7.121   2.311 -1.1551  0.2160  1.3770
  801MOL0     H 8086  -0.025   7.291   2.526  1.7194 -0.3376 -0.2247
  801MOL0     H 8087  -0.237   7.392   2.639 -1.1796 -0.6893 -2.8719
  801MOL0     H 8088  -0.377   7.281   2.668 -0.5062 -2.3287  2.5652
  801MOL0     H 8089  -0.115   7.266   2.825 -0.6891 -0.1191  2.7442
  801MOL0     H 8090  -0.246   7.181   2.855 -0.0874 -1.7731 -2.9452
  801MOL0     H 8091  -0.230   7.485   2.887 -4.3037  1.5070  1.2867
  801MOL0     H 8092  -0.195   7.368   3.017 -1.5219  0.7296  1.6932
  801MOL0     H 8093  -0.419   7.290   3.021  0.1079  0.8586 -0.2124
  801MOL0     H 8094  -0.477   7.374   2.874 -1.7456 -4.7794 -0.2468
  801MOL0     H 8095  -0.653   7.334   2.980  1.3815  1.0209 -0.4585
  801MOL0     H 8096  -0.983   7.338   3.059  1.7210 -2.3432 -0.5599
  801MOL0     H 8097  -0.957   7.373   2.883  0.3570  0.1380 -0.6017
  801MOL0     H 8098  -0.863   7.260   2.976  0.2195  0.8281 -2.1428
  801MOL0     H 8099  -1.089   7.699   3.369  0.5869  1.3598  0.0420
  801MOL0     H 8100  -1.293   7.791   3.471  4.4385  1.8872  1.5431
  801MOL0     H 8101  -1.441   8.153   3.324 -0.3965  0.4614  2.2412
  801MOL0     H 8102  -1.558   8.072   3.223  0.9775  1.3857 -1.1024
  801MOL0     H 8103  -1.723   8.034   3.388  0.8352 -0.9421  1.5526
  801MOL0     H 8104  -1.622   8.079   3.520  2.8382 -0.2976 -0.2418
  801MOL0     H 8105  -1.717   8.271   3.307 -1.0662  1.9017  1.0602
  801MOL0     H 8106  -1.602   8.307   3.437 -0.2317  1.2685 -1.1237
  801MOL0     H 8107  -1.878   8.191   3.462 -0.6191  1.2241  0.4332
  801MOL0     H 8108  -1.772   8.213   3.600 -2.2844 -2.6035 -0.2638
  801MOL0     H 8109  -1.958   8.385   3.557  1.0299  0.4215  0.7793
  801MOL0     H 8110  -1.897   8.426   3.405  0.7887 -0.8407 -0.8588
  801MOL0     H 8111  -1.746   8.476   3.668  1.7568 -0.2721  0.3065
  801MOL0     H 8112  -1.663   8.505   3.531 -0.6653  0.6848 -1.8523
  801MOL0     H 8113  -1.948   8.627   3.570  0.1724 -1.5633 -1.4972
  801MOL0     H 8114  -1.832   8.679   3.453  1.1822  1.5814  1.0050
  801MOL0     H 8115  -1.689   8.768   3.633 -1.1402  1.3424 -0.9478
  801MOL0     H 8116  -1.782   8.666   3.748  1.9573  1.3663  0.8263
  801MOL0     H 8117  -1.363   8.041   3.127  2.3167  1.5603  0.5391
  801MOL0     H 8118  -1.152   7.942   3.022 -1.1257 -1.7179 -1.1364
  801MOL0     H 8119  -0.775   7.788   3.112  0.6029 -0.2719  2.0338
  801MOL0     H 8120  -0.545   7.729   3.111  1.5278 -1.0789  2.2595
  801MOL0     H 8121   0.697   6.302   2.569  3.2780 -0.0777 -1.5014
  801MOL0     H 8122   0.871   6.146   2.603  0.3511  1.3669  0.7831
  801MOL0     H 8123   1.365   6.137   2.749  1.7936  0.3416 -0.1106
  801MOL0     H 8124   1.556   6.013   2.820  1.6613  0.2691  2.6908
  801MOL0     H 8125   1.675   5.778   2.837  0.5381 -0.6301  0.7439
  801MOL0     H 8126   1.701   5.913   2.941 -0.2365 -0.3677  3.7012
  801MOL0     H 8127   1.860   5.712   2.954  1.8120  1.2535  1.3583
  801MOL0     H 8128   1.729   5.631   3.057 -1.0058  0.6838  0.2520
  801MOL0     H 8129   1.848   5.900   3.131 -2.4376  1.4785 -1.7666
  801MOL0     H 8130   1.898   5.734   3.194  0.7493  1.4909  1.2508
  801MOL0     H 8131   1.657   5.719   3.284 -0.3153  0.4752  2.0719
  801MOL0     H 8132   1.652   5.892   3.269 -0.0105 -0.9009 -0.8484
  801MOL0     H 8133   1.886   5.847   3.613 -1.3221  0.4925 -0.0903
  801MOL0     H 8134   1.298   5.778   3.085  0.9813  0.7493  0.3957
  801MOL0     H 8135   1.113   5.891   2.998  1.1685 -0.3382 -1.4565
  802MOL0     O 8136   3.348   8.603   0.105  0.7609 -0.8501  0.1010
  802MOL0     C 8137   3.383   8.560   0.218 -0.1524  0.5273 -0.0649
  802MOL0     O 8138   3.302   8.512   0.315  0.3163  0.1141  0.4879
  802MOL0     C 8139   3.165   8.514   0.301  0.0733 -0.4780  0.9914
  802MOL0     C 8140   3.086   8.556   0.409 -0.1077 -0.0727  0.1577
  802MOL0     C 8141   2.947   8.551   0.408 -0.7320  0.2065 -0.6661
  802MOL0     C 8142   2.883   8.527   0.287 -0.1595 -0.4879  0.4268
  802MOL0     O 8143   2.749   8.536   0.262  0.2661  0.6554 -0.6438
  802MOL0     C 8144   2.664   8.518   0.387  0.2797 -0.5221  1.4175
  802MOL0     C 8145   2.539   8.459   0.346  0.4545 -0.5044  0.6195
  802MOL0     C 8146   2.457   8.558   0.250 -0.2594  1.1653 -0.3033
  802MOL0     C 8147   2.316   8.516   0.248 -0.0815  0.4480 -0.2382
  802MOL0     C 8148   2.237   8.628   0.170  0.2239  0.2459 -0.0621
  802MOL0     C 8149   2.156   8.570   0.053  0.0454  0.3364  0.2146
  802MOL0     C 8150   2.093   8.681  -0.024 -0.1031 -0.1694  0.9661
  802MOL0     C 8151   1.953   8.695   0.017  0.2590  0.0403 -0.4736
  802MOL0     N 8152   1.877   8.794  -0.058  0.5821  0.5350 -0.0992
  802MOL0     C 8153   1.738   8.797  -0.069 -1.2287 -0.0568 -0.5792
  802MOL0     C 8154   1.705   8.919  -0.112 -0.1763  0.4203  0.0060
  802MOL0     C 8155   1.569   8.960  -0.150  0.4682 -0.3977 -0.7590
  802MOL0     C 8156   1.505   8.895  -0.266 -0.0142  1.1285  1.0200
  802MOL0     C 8157   1.364   8.941  -0.291  0.0777  0.3074 -0.7588
  802MOL0     C 8158   1.303   8.847  -0.400 -0.3349  0.0046  0.1661
  802MOL0     O 8159   1.158   8.838  -0.374  0.5133  0.2310 -0.3349
  802MOL0     C 8160   1.076   8.937  -0.427 -0.6288  0.2773  0.1739
  802MOL0     C 8161   0.939   8.921  -0.413  0.5677 -0.6389 -0.2270
  802MOL0     C 8162   0.844   9.015  -0.460 -0.1642 -0.0667 -0.4757
  802MOL0     C 8163   0.705   8.996  -0.440 -0.5864  0.4270 -0.1076
  802MOL0     C 8164   0.895   9.125  -0.529  0.4685 -0.8927  0.1960
  802MOL0     C 8165   0.805   9.227  -0.592 -0.7778  0.4038  0.1483
  802MOL0     O 8166   0.831   9.353  -0.541  0.0464  0.0396 -0.0084
  802MOL0     C 8167   0.730   9.447  -0.552 -0.7342 -0.1325 -0.2222
  802MOL0     C 8168   0.750   9.574  -0.616  0.1284 -0.6017 -0.2166
  802MOL0     C 8169   0.636   9.669  -0.623 -0.2392  0.2491 -0.2690
  802MOL0     C 8170   0.509   9.640  -0.576 -0.3860  0.0274  0.3448
  802MOL0     O 8171   0.416   9.730  -0.603  0.1898 -0.0185 -0.5271
  802MOL0     C 8172   0.274   9.697  -0.579  0.1776 -0.2693  0.5168
  802MOL0     C 8173   0.213   9.727  -0.440  0.3733 -0.6019  0.1211
  802MOL0     C 8174   0.064   9.679  -0.430  0.7248  0.2890 -0.8142
  802MOL0     C 8175  -0.002   9.696  -0.300  0.0299  0.1750 -0.2511
  802MOL0     C 8176  -0.145   9.644  -0.310  0.2515 -0.0877 -0.6471
  802MOL0     C 8177  -0.211   9.662  -0.170  0.1291 -0.4984 -0.4681
  802MOL0     C 8178  -0.362   9.610  -0.175  0.5209 -0.2238  0.4875
  802MOL0     C 8179  -0.381   9.458  -0.189  0.7808 -0.2596 -0.3535
  802MOL0    Cl 8180  -0.549   9.422  -0.180  0.2532 -0.0858  0.7540
  802MOL0     C 8181   0.495   9.518  -0.502  0.3728 -0.0574  0.1599
  802MOL0     C 8182   0.595   9.425  -0.494  0.4337 -1.0282 -0.2352
  802MOL0     O 8183   0.711   9.190  -0.651  0.0900  0.6934  0.0841
  802MOL0     C 8184   1.031   9.152  -0.543  0.0225 -0.1526 -0.5171
  802MOL0     C 8185   1.121   9.055  -0.499  0.1934 -0.6798 -1.0741
  802MOL0     N 8186   1.820   8.993  -0.120  0.2599  0.0147 -0.1937
  802MOL0     N 8187   1.923   8.920  -0.095  0.4810  0.7684 -0.8035
  802MOL0     C 8188   2.955   8.480   0.173 -0.0706 -0.7646 -0.0535
  802MOL0     C 8189   3.092   8.474   0.179  0.4039 -0.0791 -0.8443
  802MOL0     C 8190   3.520   8.579   0.262 -0.5762  0.1623 -0.0248
  802MOL0     C 8191   3.595   8.672   0.197 -0.0449  1.2614  0.3085
  802MOL0     C 8192   3.736   8.679   0.225 -0.2862 -0.2150 -1.2853
  802MOL0     C 8193   3.788   8.602   0.329  0.3899  0.1744  1.2387
  802MOL0     O 8194   3.916   8.614   0.371 -0.0501 -0.3962 -0.4612
  802MOL0     C 8195   3.986   8.738   0.343 -0.3257 -0.1579  0.4547
  802MOL0     C 8196   3.947   8.856   0.434  0.2782  0.0059 -0.1391
  802MOL0     C 8197   3.953   8.822   0.576 -0.1644  0.6694  0.1182
  802MOL0     C 8198   4.094   8.858   0.635  0.0380 -0.0943  0.3916
  802MOL0     C 8199   4.216   8.805   0.576  0.5715 -0.2936  0.7210
  802MOL0     C 8200   4.316   8.751   0.537 -0.1728  0.5557 -0.2928
  802MOL0     C 8201   3.710   8.495   0.389  0.0325 -0.0832 -0.4153
  802MOL0     C 8202   3.584   8.480   0.347  0.1019 -0.1927  0.0106
  802MOL0     H 8203   3.140   8.579   0.501 -0.2131 -2.3963  0.8546
  802MOL0     H 8204   2.905   8.567   0.507 -0.2312 -1.1545 -0.2082
  802MOL0     H 8205   2.720   8.454   0.455  0.2094 -1.9774  0.1717
  802MOL0     H 8206   2.644   8.620   0.421  1.5570  0.8873 -1.6813
  802MOL0     H 8207   2.558   8.368   0.288 -0.9450  0.1872 -1.0156
  802MOL0     H 8208   2.487   8.432   0.438  0.4640  0.0371  0.7850
  802MOL0     H 8209   2.459   8.656   0.299  0.6998  0.2182  1.6426
  802MOL0     H 8210   2.508   8.557   0.153  1.6079 -1.3091  0.6185
  802MOL0     H 8211   2.320   8.417   0.201  1.3721  0.9820 -1.3336
  802MOL0     H 8212   2.266   8.489   0.341  0.0336 -1.9685 -0.8079
  802MOL0     H 8213   2.172   8.660   0.251 -0.2783 -0.4410 -0.1865
  802MOL0     H 8214   2.303   8.709   0.137  0.0896 -0.4683 -2.2445
  802MOL0     H 8215   2.235   8.519  -0.003  2.3515  2.6137  1.1939
  802MOL0     H 8216   2.087   8.490   0.082  0.6719 -1.2623 -2.3279
  802MOL0     H 8217   2.149   8.775  -0.021 -2.3894  1.3692 -0.8699
  802MOL0     H 8218   2.086   8.650  -0.128 -1.7961 -1.1098  1.3261
  802MOL0     H 8219   1.942   8.714   0.124  1.4596  0.9449 -0.4935
  802MOL0     H 8220   1.922   8.593  -0.009  0.1098 -0.8340  2.7621
  802MOL0     H 8221   1.669   8.714  -0.055 -0.3165 -0.5682  1.0014
  802MOL0     H 8222   1.500   8.941  -0.067 -0.5456  0.5031 -1.3746
  802MOL0     H 8223   1.566   9.069  -0.158 -2.1946 -0.2768  0.5958
  802MOL0     H 8224   1.508   8.788  -0.246  0.2371  1.2368  1.5851
  802MOL0     H 8225   1.567   8.917  -0.353 -1.6524  0.8375 -0.2750
  802MOL0     H 8226   1.367   9.048  -0.312  0.2678  1.1012  2.7347
  802MOL0     H 8227   1.306   8.915  -0.202  0.0886 -2.1060 -1.3830
  802MOL0     H 8228   1.318   8.740  -0.386 -5.0482 -0.7602  0.8898
  802MOL0     H 8229   1.320   8.884  -0.501 -3.4199  0.8674 -0.1219
  802MOL0     H 8230   0.906   8.846  -0.342 -0.9293  1.5765  1.5341
  802MOL0     H 8231   0.663   9.082  -0.386 -0.2609 -0.6166  1.9214
  802MOL0     H 8232   0.661   8.989  -0.539 -0.8536 -1.9061  0.1227
  802MOL0     H 8233   0.694   8.906  -0.378  4.8463  0.4231  1.3392
  802MOL0     H 8234   0.848   9.595  -0.657  1.2078 -2.6040  1.1609
  802MOL0     H 8235   0.644   9.761  -0.681 -3.9664 -1.1844 -3.5240
  802MOL0     H 8236   0.225   9.760  -0.654  0.4243 -1.0054 -0.2782
  802MOL0     H 8237   0.239   9.598  -0.611 -1.4347  0.2746  0.5416
  802MOL0     H 8238   0.268   9.689  -0.353  1.4607 -1.8638 -1.0675
  802MOL0     H 8239   0.216   9.835  -0.429 -0.2910 -0.7658  2.5658
  802MOL0     H 8240   0.069   9.570  -0.440 -0.2599 -0.3690  3.5596
  802MOL0     H 8241   0.011   9.724  -0.514 -0.4810  1.4675  0.5364
  802MOL0     H 8242   0.053   9.644  -0.220  1.1953 -0.2563 -1.2983
  802MOL0     H 8243   0.001   9.799  -0.264  0.8192  0.4468 -1.0488
  802MOL0     H 8244  -0.130   9.541  -0.344 -0.3366  0.0671 -1.4096
  802MOL0     H 8245  -0.207   9.691  -0.387  0.0121 -0.6135 -0.7784
  802MOL0     H 8246  -0.163   9.624  -0.080 -2.0061  0.7087  1.2805
  802MOL0     H 8247  -0.209   9.768  -0.143  0.6668 -0.3875 -0.9345
  802MOL0     H 8248  -0.409   9.671  -0.253  1.8625  2.0140  1.3160
  802MOL0     H 8249  -0.419   9.651  -0.092 -0.2698 -0.5660  0.1203
  802MOL0     H 8250  -0.333   9.408  -0.104 -1.9867 -2.5704  0.0098
  802MOL0     H 8251  -0.342   9.427  -0.286  1.8708  0.2746 -0.1066
  802MOL0     H 8252   0.399   9.489  -0.461  0.8287 -0.3270  1.0602
  802MOL0     H 8253   0.577   9.329  -0.447  1.0387 -1.9366 -1.7846
  802MOL0     H 8254   1.070   9.236  -0.598 -0.4997  0.9245  0.7089
  802MOL0     H 8255   1.227   9.074  -0.516  0.6983 -2.3835 -0.0494
  802MOL0     H 8256   2.898   8.451   0.085 -0.3782  0.1203 -0.1588
  802MOL0     H 8257   3.147   8.442   0.090  0.6672 -0.8119 -0.4313
  802MOL0     H 8258   3.539   8.733   0.127 -1.4395 -1.1324 -0.7884
  802MOL0     H 8259   3.790   8.746   0.159 -1.8745  2.4676 -0.0233
  802MOL0     H 8260   4.093   8.718   0.357 -0.5829 -1.5995  0.5520
  802MOL0     H 8261   3.985   8.766   0.238 -0.3250 -2.7815 -0.3101
  802MOL0     H 8262   3.842   8.886   0.418 -0.1261 -0.6583  1.1724
  802MOL0     H 8263   4.010   8.938   0.398  0.3686  1.0746  2.2518
  802MOL0     H 8264   3.935   8.715   0.590  1.0668  0.4087 -0.1204
  802MOL0     H 8265   3.869   8.871   0.625 -0.7939  1.2486 -1.4863
  802MOL0     H 8266   4.095   8.819   0.737 -0.0809  0.8514  0.7673
  802MOL0     H 8267   4.098   8.967   0.644  1.0102 -0.1143  0.4057
  802MOL0     H 8268   4.404   8.703   0.499 -0.4200  1.5524 -2.3028
  802MOL0     H 8269   3.753   8.420   0.455  0.2027  1.0954  0.8563
  802MOL0     H 8270   3.517   8.401   0.377 -0.1805 -0.7336 -1.9005
  803MOL0     O 8271   0.640   2.166   0.995  0.6873  0.0871  0.0914
  803MOL0     C 8272   0.728   2.099   1.054  0.8336  0.7112 -0.4745
  803MOL0     O 8273   0.707   2.017   1.164 -0.0409 -0.0056 -0.0289
  803MOL0     C 8274   0.581   2.011   1.206 -0.2221  0.0691  0.4560
  803MOL0     C 8275   0.550   1.875   1.236  0.1211  0.3198 -0.1467
  803MOL0     C 8276   0.430   1.853   1.306 -0.0864  0.5255 -0.3776
  803MOL0     C 8277   0.337   1.957   1.346 -0.2687  0.0844 -0.1500
  803MOL0     O 8278   0.223   1.948   1.434 -0.5381  0.3013 -0.0087
  803MOL0     C 8279   0.171   1.811   1.444 -1.2865  0.9324 -0.4074
  803MOL0     C 8280   0.040   1.821   1.520 -0.5252 -0.9246 -0.0472
  803MOL0     C 8281   0.050   1.875   1.665  0.4755 -0.2028  0.3057
  803MOL0     C 8282  -0.086   1.859   1.749 -0.4588 -0.0848  0.4611
  803MOL0     C 8283  -0.074   1.935   1.880  0.3652 -0.4729 -0.4085
  803MOL0     C 8284  -0.175   1.885   1.988 -0.0076  0.1279 -0.2602
  803MOL0     C 8285  -0.165   1.736   2.029  0.6412 -0.3337  0.2014
  803MOL0     C 8286  -0.229   1.723   2.162  0.9957  0.0963 -0.2184
  803MOL0     N 8287  -0.372   1.775   2.161 -0.0419  0.5932 -0.1762
  803MOL0     C 8288  -0.475   1.745   2.074 -0.3286 -0.0055  0.5253
  803MOL0     C 8289  -0.572   1.832   2.092 -0.1059 -0.5343 -0.3955
  803MOL0     C 8290  -0.710   1.835   2.031  0.2395  0.7203  0.2381
  803MOL0     C 8291  -0.791   1.734   2.105  0.4190 -0.7228 -0.1819
  803MOL0     C 8292  -0.930   1.711   2.031  0.8989 -0.1044  0.6909
  803MOL0     C 8293  -1.037   1.777   2.112 -0.8215 -0.2008  0.8970
  803MOL0     O 8294  -1.153   1.805   2.026  0.0833  0.1540 -0.2795
  803MOL0     C 8295  -1.273   1.836   2.089  0.1137 -0.2967 -0.3691
  803MOL0     C 8296  -1.299   1.846   2.225 -0.1943 -0.3116 -0.0140
  803MOL0     C 8297  -1.426   1.865   2.278  0.3291 -0.1662 -0.1751
  803MOL0     C 8298  -1.439   1.873   2.425 -0.0554  0.4487  0.0076
  803MOL0     C 8299  -1.534   1.882   2.191 -0.1812  0.5022 -0.2909
  803MOL0     C 8300  -1.679   1.893   2.243 -0.0760  0.3267 -0.1760
  803MOL0     O 8301  -1.780   1.861   2.147 -0.0093  0.1196  0.0330
  803MOL0     C 8302  -1.913   1.871   2.161 -0.2305 -0.5609 -0.4036
  803MOL0     C 8303  -1.976   1.953   2.258  0.2571  0.1338 -0.2474
  803MOL0     C 8304  -2.118   1.969   2.241 -0.2718 -0.1528  0.5204
  803MOL0     C 8305  -2.195   1.910   2.140  1.1286 -0.2314 -0.0298
  803MOL0     O 8306  -2.336   1.928   2.132 -0.1453 -0.4968 -0.3401
  803MOL0     C 8307  -2.398   1.910   2.000  0.1612 -0.3789 -0.2646
  803MOL0     C 8308  -2.528   1.994   2.012  0.5733 -0.3246 -0.1605
  803MOL0     C 8309  -2.640   1.920   2.090 -0.0390 -0.9614  0.1665
  803MOL0     C 8310  -2.768   2.003   2.111  0.1569 -0.0660 -0.6527
  803MOL0     C 8311  -2.881   1.917   2.173 -0.8814 -0.2507  0.2619
  803MOL0     C 8312  -3.008   1.994   2.206 -0.5411  0.1028 -0.3011
  803MOL0     C 8313  -3.079   1.925   2.320  0.2244  0.2677 -0.4766
  803MOL0     C 8314  -3.075   1.983   2.459  0.3692  0.3076  0.1812
  803MOL0    Cl 8315  -3.131   2.148   2.442 -0.2682 -0.2225  0.0579
  803MOL0     C 8316  -2.127   1.836   2.043  0.5797 -0.9286  0.2675
  803MOL0     C 8317  -1.992   1.816   2.054 -0.0703 -0.0009 -0.1037
  803MOL0     O 8318  -1.707   1.928   2.356 -0.0484 -0.1591 -0.0577
  803MOL0     C 8319  -1.508   1.894   2.053  0.2129 -0.4366 -0.3093
  803MOL0     C 8320  -1.381   1.871   2.006 -0.1102  0.2883 -0.0220
  803MOL0     N 8321  -0.534   1.910   2.201  0.3202  0.6939 -0.1866
  803MOL0     N 8322  -0.413   1.883   2.237  0.0672 -0.4194  0.4581
  803MOL0     C 8323   0.382   2.090   1.316 -0.4480  0.9841  0.2610
  803MOL0     C 8324   0.499   2.117   1.240 -0.0254  0.7712  0.0172
  803MOL0     C 8325   0.871   2.103   1.008 -0.6624  0.2821 -0.8330
  803MOL0     C 8326   0.973   2.016   1.062 -0.5989 -0.0528 -0.5547
  803MOL0     C 8327   1.095   2.020   1.000 -0.5258  0.0021  0.1567
  803MOL0     C 8328   1.133   2.109   0.906 -0.5582 -0.0139  0.1671
  803MOL0     O 8329   1.262   2.112   0.861  0.0269 -0.4312  1.2332
  803MOL0     C 8330   1.373   2.095   0.955 -1.1879 -0.2471 -0.3113
  803MOL0     C 8331   1.431   2.236   0.963  0.4878  0.7571  0.6625
  803MOL0     C 8332   1.506   2.273   0.833  0.3181  0.4240 -0.1273
  803MOL0     C 8333   1.603   2.177   0.780 -0.1264 -0.4019  0.2720
  803MOL0     C 8334   1.700   2.136   0.880  0.5828  0.8789 -0.4573
  803MOL0     C 8335   1.781   2.122   0.968 -0.8062  0.0114 -0.7921
  803MOL0     C 8336   1.038   2.200   0.861 -0.6654  0.0155 -0.4135
  803MOL0     C 8337   0.902   2.197   0.908 -0.4377  0.1269 -0.0809
  803MOL0     H 8338   0.623   1.795   1.225 -0.5411 -0.7250  2.3275
  803MOL0     H 8339   0.414   1.749   1.332  0.8124  0.4847  0.0232
  803MOL0     H 8340   0.154   1.770   1.345  0.1121  0.5316 -0.4976
  803MOL0     H 8341   0.247   1.745   1.487 -1.7397  1.1747  0.8026
  803MOL0     H 8342  -0.020   1.895   1.464  0.7257  0.9783  1.0141
  803MOL0     H 8343  -0.023   1.732   1.522 -1.3169 -0.3628  0.5370
  803MOL0     H 8344   0.130   1.818   1.714  0.3761  1.4333  2.4973
  803MOL0     H 8345   0.093   1.975   1.671 -0.7907  0.5893 -2.2752
  803MOL0     H 8346  -0.172   1.897   1.692  0.8368 -0.2757 -1.7155
  803MOL0     H 8347  -0.101   1.750   1.758  1.5733 -0.3652  0.9353
  803MOL0     H 8348   0.028   1.927   1.920  0.1868  0.5845  0.2890
  803MOL0     H 8349  -0.095   2.038   1.851 -1.7101 -0.9999 -0.9819
  803MOL0     H 8350  -0.164   1.943   2.080 -1.5161 -0.8189  0.5548
  803MOL0     H 8351  -0.274   1.887   1.942  0.3361  2.6958 -1.0718
  803MOL0     H 8352  -0.214   1.667   1.959  1.2194 -1.6072  1.0365
  803MOL0     H 8353  -0.059   1.714   2.045  0.3785 -0.4396  1.9324
  803MOL0     H 8354  -0.176   1.777   2.241 -0.0127  0.7204  0.0615
  803MOL0     H 8355  -0.218   1.618   2.190  1.7360 -0.2569 -1.7927
  803MOL0     H 8356  -0.475   1.665   2.000  3.9772 -1.2769  1.5910
  803MOL0     H 8357  -0.746   1.938   2.029  0.3421  0.7487 -0.8791
  803MOL0     H 8358  -0.704   1.796   1.929  1.0123  0.1636  0.4811
  803MOL0     H 8359  -0.805   1.775   2.205 -0.9970  0.2443 -0.7445
  803MOL0     H 8360  -0.741   1.637   2.103 -0.5347 -1.2223 -0.5686
  803MOL0     H 8361  -0.950   1.604   2.031 -3.1289  0.4825 -0.8204
  803MOL0     H 8362  -0.927   1.745   1.927 -4.0592 -2.4294 -0.4690
  803MOL0     H 8363  -0.988   1.869   2.146  4.1683 -0.2494 -4.4991
  803MOL0     H 8364  -1.062   1.710   2.195 -2.2831 -0.9633 -0.1123
  803MOL0     H 8365  -1.216   1.852   2.295 -1.0768  1.4931  0.9377
  803MOL0     H 8366  -1.463   1.975   2.453 -0.7294  0.1641  0.4973
  803MOL0     H 8367  -1.510   1.798   2.461  1.3120 -0.8701  0.0986
  803MOL0     H 8368  -1.347   1.857   2.482 -1.0989  0.2032  1.6841
  803MOL0     H 8369  -1.920   1.999   2.339  0.9115  2.2619 -1.8354
  803MOL0     H 8370  -2.161   2.035   2.315 -0.2545 -1.5331  1.8248
  803MOL0     H 8371  -2.338   1.953   1.920  0.3928 -0.9217 -0.3882
  803MOL0     H 8372  -2.424   1.804   1.985 -1.9196 -0.0834  0.7992
  803MOL0     H 8373  -2.509   2.084   2.071  2.8000  0.5384 -2.0268
  803MOL0     H 8374  -2.572   2.019   1.914 -0.6113 -0.2681  0.3652
  803MOL0     H 8375  -2.601   1.893   2.188 -0.2886  0.5597  0.7033
  803MOL0     H 8376  -2.649   1.822   2.043  0.5512 -1.6173  1.3755
  803MOL0     H 8377  -2.748   2.094   2.168 -2.1385 -0.9339  1.7421
  803MOL0     H 8378  -2.804   2.044   2.016  2.8787  2.6259 -0.6782
  803MOL0     H 8379  -2.841   1.868   2.262  0.3715 -1.1863 -0.7752
  803MOL0     H 8380  -2.897   1.837   2.100 -0.5404  0.9255 -1.1708
  803MOL0     H 8381  -2.982   2.096   2.234 -0.9817 -0.2820  1.6622
  803MOL0     H 8382  -3.078   1.993   2.122  0.1745  0.0887 -0.9113
  803MOL0     H 8383  -3.051   1.819   2.319 -1.2820 -0.1504 -0.3935
  803MOL0     H 8384  -3.185   1.927   2.292  0.5901 -1.3545 -2.1563
  803MOL0     H 8385  -2.973   1.973   2.499  1.9569  1.4571 -3.1904
  803MOL0     H 8386  -3.152   1.929   2.514 -0.8017  0.3676 -1.3452
  803MOL0     H 8387  -2.187   1.794   1.962 -1.2703  0.9609  0.5565
  803MOL0     H 8388  -1.930   1.764   1.982  1.0429 -1.9716  2.1264
  803MOL0     H 8389  -1.595   1.921   1.994  0.2837  2.3239  0.6934
  803MOL0     H 8390  -1.375   1.862   1.898 -3.5786  1.9320 -0.4817
  803MOL0     H 8391   0.323   2.173   1.351 -0.2168  1.0144  0.5853
  803MOL0     H 8392   0.511   2.222   1.219 -1.7606  0.8457 -0.8324
  803MOL0     H 8393   0.945   1.954   1.146  0.0480 -0.2662 -0.4889
  803MOL0     H 8394   1.175   1.951   1.025 -0.4061  0.9135  2.5807
  803MOL0     H 8395   1.347   2.069   1.058 -2.8533 -2.7448 -1.2551
  803MOL0     H 8396   1.445   2.021   0.918  0.4756  0.4200  1.4311
  803MOL0     H 8397   1.505   2.227   1.043  1.1322 -3.1674 -0.1816
  803MOL0     H 8398   1.353   2.311   0.980 -0.1881  1.1332 -3.1328
  803MOL0     H 8399   1.557   2.368   0.851  0.7687 -0.1777  2.0766
  803MOL0     H 8400   1.430   2.294   0.757  0.7402 -0.1618 -0.7275
  803MOL0     H 8401   1.652   2.225   0.694 -0.8596 -0.6797 -0.3043
  803MOL0     H 8402   1.554   2.086   0.745 -0.2708  0.2337 -1.2362
  803MOL0     H 8403   1.871   2.105   1.024 -2.4712 -2.0429  1.4454
  803MOL0     H 8404   1.092   2.270   0.798 -0.5198 -0.2433 -0.5809
  803MOL0     H 8405   0.829   2.264   0.864 -2.1465 -0.3419  1.8646
  804MOL0     O 8406   0.757   3.164   4.640  0.3762  0.4982 -0.4296
  804MOL0     C 8407   0.720   3.089   4.727 -0.3255  0.2119 -0.0135
  804MOL0     O 8408   0.591   3.057   4.763 -0.6532  0.1838  0.2187
  804MOL0     C 8409   0.486   3.111   4.695 -0.4967  0.5168  0.4159
  804MOL0     C 8410   0.382   3.152   4.771  0.3694 -0.6617  0.2292
  804MOL0     C 8411   0.269   3.210   4.714 -0.3991 -0.0907  0.3421
  804MOL0     C 8412   0.262   3.230   4.570  0.0835  0.6394  0.3615
  804MOL0     O 8413   0.167   3.299   4.510 -0.1865 -0.2414 -0.4199
  804MOL0     C 8414   0.101   3.399   4.590 -0.0343 -0.1808  0.1427
  804MOL0     C 8415   0.003   3.493   4.512 -0.3907  0.1553 -0.2281
  804MOL0     C 8416  -0.100   3.413   4.431 -0.2478 -0.4471  0.1976
  804MOL0     C 8417  -0.228   3.486   4.400  0.4953  0.2411  0.0371
  804MOL0     C 8418  -0.331   3.398   4.319  0.0232  0.6560  0.7313
  804MOL0     C 8419  -0.475   3.452   4.320 -0.5224  0.7873  0.5066
  804MOL0     C 8420  -0.571   3.376   4.236  0.7341  0.1430  0.0271
  804MOL0     C 8421  -0.712   3.435   4.257 -0.2991 -0.2594  0.5502
  804MOL0     N 8422  -0.808   3.332   4.213  0.6170  0.0056  0.2694
  804MOL0     C 8423  -0.860   3.238   4.299  0.2196  0.2744 -0.3295
  804MOL0     C 8424  -0.929   3.158   4.221 -0.1197  1.2506  0.2899
  804MOL0     C 8425  -0.997   3.030   4.261  0.2406  0.1174  0.1358
  804MOL0     C 8426  -1.118   3.058   4.355 -0.2059 -0.2427  0.4395
  804MOL0     C 8427  -1.227   3.149   4.299 -0.4876  0.1892  0.7562
  804MOL0     C 8428  -1.351   3.147   4.386  0.0094  0.3619  1.0977
  804MOL0     O 8429  -1.453   3.213   4.314  0.6647 -0.2185  0.1865
  804MOL0     C 8430  -1.580   3.173   4.315  0.7448 -0.2534  0.1368
  804MOL0     C 8431  -1.654   3.127   4.429  0.3471 -2.0296  0.0167
  804MOL0     C 8432  -1.796   3.114   4.440  0.0022  0.5475  0.3082
  804MOL0     C 8433  -1.837   3.051   4.572 -0.2886  0.0824  0.0553
  804MOL0     C 8434  -1.872   3.160   4.323 -0.9780  0.5338 -0.7051
  804MOL0     C 8435  -2.017   3.169   4.323  0.3962  0.3607  0.0312
  804MOL0     O 8436  -2.079   3.200   4.203 -0.7979 -0.2199 -0.2025
  804MOL0     C 8437  -2.208   3.245   4.201  0.4854  0.3996 -0.1414
  804MOL0     C 8438  -2.283   3.197   4.087  0.2166 -0.2057 -0.0560
  804MOL0     C 8439  -2.415   3.233   4.063  0.5831  0.3111  0.3278
  804MOL0     C 8440  -2.471   3.320   4.159  0.5714 -0.0152  1.1897
  804MOL0     O 8441  -2.607   3.340   4.132 -0.9877  0.1819 -0.8953
  804MOL0     C 8442  -2.701   3.391   4.231 -0.0876 -0.2799 -0.2366
  804MOL0     C 8443  -2.783   3.511   4.181 -0.9566 -0.0281 -0.9573
  804MOL0     C 8444  -2.891   3.558   4.277 -0.6723 -0.7200 -0.1868
  804MOL0     C 8445  -2.900   3.707   4.258 -0.4750 -0.4518  0.8497
  804MOL0     C 8446  -3.044   3.762   4.288  0.3733 -0.2156  0.5161
  804MOL0     C 8447  -3.153   3.694   4.190 -0.8542 -0.1625  0.2440
  804MOL0     C 8448  -3.276   3.775   4.215 -0.4755  0.1686  0.8756
  804MOL0     C 8449  -3.395   3.710   4.144 -0.2659  0.4646  0.0490
  804MOL0    Cl 8450  -3.539   3.815   4.179 -0.0741  0.0717  0.5111
  804MOL0     C 8451  -2.400   3.369   4.275  0.6730 -0.5396  0.1508
  804MOL0     C 8452  -2.268   3.329   4.291  0.9649 -0.4430  0.7432
  804MOL0     O 8453  -2.080   3.129   4.420  0.5121 -0.1922  0.1288
  804MOL0     C 8454  -1.796   3.198   4.203 -0.2077  0.2744 -0.3008
  804MOL0     C 8455  -1.659   3.211   4.196 -0.0132 -0.3108  0.0120
  804MOL0     N 8456  -0.925   3.196   4.088 -0.4186 -0.1737  0.1436
  804MOL0     N 8457  -0.850   3.300   4.087 -0.4771 -0.2078  0.3069
  804MOL0     C 8458   0.364   3.176   4.492 -0.4236 -0.7094  0.4041
  804MOL0     C 8459   0.476   3.116   4.560 -0.5789  1.0480 -0.5057
  804MOL0     C 8460   0.827   3.021   4.800 -0.3677 -0.1802 -0.4799
  804MOL0     C 8461   0.801   2.893   4.850  0.0621  0.2486 -1.1404
  804MOL0     C 8462   0.888   2.815   4.943 -0.6640 -1.0163 -0.0224
  804MOL0     C 8463   1.017   2.877   4.968  0.6937 -0.5579  0.5038
  804MOL0     O 8464   1.114   2.805   5.036  0.2411  0.1924  0.0408
  804MOL0     C 8465   1.248   2.836   5.034 -1.0746 -0.4176  0.0123
  804MOL0     C 8466   1.322   2.708   5.083 -0.1538 -0.2082 -0.2192
  804MOL0     C 8467   1.473   2.727   5.088 -0.5224 -0.4366 -0.1220
  804MOL0     C 8468   1.520   2.800   5.222 -0.2573  0.0583 -0.4552
  804MOL0     C 8469   1.669   2.809   5.219  1.1871 -0.8347  0.2204
  804MOL0     C 8470   1.792   2.813   5.221 -0.2977  0.0299  0.1965
  804MOL0     C 8471   1.044   3.006   4.907  0.2854  0.9671 -0.6200
  804MOL0     C 8472   0.951   3.072   4.822 -0.0671 -0.0855  0.0321
  804MOL0     H 8473   0.393   3.149   4.879  0.8099 -0.9755  0.1783
  804MOL0     H 8474   0.190   3.221   4.787 -0.5868 -0.3387  0.1759
  804MOL0     H 8475   0.053   3.355   4.679  1.0210 -2.2594 -0.2367
  804MOL0     H 8476   0.180   3.463   4.629  0.1588  0.4003 -1.1859
  804MOL0     H 8477  -0.045   3.559   4.585  1.8678  0.4935  1.0424
  804MOL0     H 8478   0.056   3.566   4.451 -2.9962  1.2761 -1.3343
  804MOL0     H 8479  -0.050   3.391   4.337 -2.4581 -1.9479 -0.6913
  804MOL0     H 8480  -0.125   3.316   4.476  1.6987 -1.8092 -1.4562
  804MOL0     H 8481  -0.279   3.523   4.489 -2.1328  3.2856 -2.4581
  804MOL0     H 8482  -0.222   3.578   4.341 -3.5566  1.1403  0.7279
  804MOL0     H 8483  -0.295   3.401   4.216 -2.0541  1.7046 -0.0169
  804MOL0     H 8484  -0.333   3.295   4.357  1.4438  0.4166  0.2354
  804MOL0     H 8485  -0.514   3.462   4.422 -1.3526  0.8336  0.1930
  804MOL0     H 8486  -0.470   3.553   4.280  1.8106  0.6222  0.2445
  804MOL0     H 8487  -0.552   3.395   4.130 -0.4247  2.6202  0.1813
  804MOL0     H 8488  -0.573   3.270   4.265 -0.4546  0.3932  0.9709
  804MOL0     H 8489  -0.723   3.536   4.216  1.9707  1.1152  3.0140
  804MOL0     H 8490  -0.744   3.444   4.361 -2.6235 -2.3434  0.1093
  804MOL0     H 8491  -0.832   3.226   4.403 -0.5393  0.9147 -0.0384
  804MOL0     H 8492  -1.037   2.980   4.173  1.1956 -0.8592  0.2272
  804MOL0     H 8493  -0.921   2.967   4.309 -0.5007 -2.6917 -2.1325
  804MOL0     H 8494  -1.091   3.102   4.452  1.5443 -0.0987 -0.0756
  804MOL0     H 8495  -1.162   2.960   4.374  1.4431 -1.7089 -2.4554
  804MOL0     H 8496  -1.255   3.125   4.196  2.3223  3.9795 -1.1549
  804MOL0     H 8497  -1.199   3.253   4.278 -0.9927  0.1826  0.0094
  804MOL0     H 8498  -1.336   3.195   4.483 -1.7270 -0.2363  1.7066
  804MOL0     H 8499  -1.377   3.042   4.405  0.7912 -0.2044 -0.7730
  804MOL0     H 8500  -1.588   3.115   4.514  1.7576 -3.1376 -1.1766
  804MOL0     H 8501  -1.769   2.966   4.581  1.8235  1.8264  1.6914
  804MOL0     H 8502  -1.815   3.118   4.656  1.7405  0.0342 -0.3722
  804MOL0     H 8503  -1.941   3.019   4.579 -1.1800  2.9198  1.0681
  804MOL0     H 8504  -2.224   3.118   4.040  2.9062  0.2561  2.2423
  804MOL0     H 8505  -2.480   3.194   3.986  1.3038  0.1191 -0.1893
  804MOL0     H 8506  -2.770   3.316   4.271  0.9407 -0.0662  2.1286
  804MOL0     H 8507  -2.653   3.428   4.322  0.8679 -3.7170  0.8012
  804MOL0     H 8508  -2.706   3.589   4.184 -2.3444  1.4083 -1.0807
  804MOL0     H 8509  -2.823   3.503   4.079 -0.5178  2.1213 -1.3490
  804MOL0     H 8510  -2.866   3.552   4.384 -2.6269 -0.7846  0.3073
  804MOL0     H 8511  -2.985   3.506   4.259 -1.3272 -0.2205  1.5884
  804MOL0     H 8512  -2.827   3.762   4.319 -1.0657  0.5447  0.6862
  804MOL0     H 8513  -2.873   3.738   4.157 -0.4831 -0.7613  0.7524
  804MOL0     H 8514  -3.046   3.871   4.287  0.7818 -0.1867 -1.1227
  804MOL0     H 8515  -3.083   3.738   4.387 -3.4899 -1.0039 -1.0270
  804MOL0     H 8516  -3.103   3.706   4.093  0.6632 -1.0068  0.8816
  804MOL0     H 8517  -3.159   3.585   4.195  4.2012 -0.7997 -1.2660
  804MOL0     H 8518  -3.268   3.878   4.178  0.6431 -0.3368 -0.3570
  804MOL0     H 8519  -3.303   3.784   4.320 -2.9501 -0.7645  0.3819
  804MOL0     H 8520  -3.407   3.613   4.193  2.6597  0.9710  2.0696
  804MOL0     H 8521  -3.388   3.690   4.037  1.7921  0.2501  0.1806
  804MOL0     H 8522  -2.449   3.435   4.346  0.7079  2.3729 -2.3125
  804MOL0     H 8523  -2.208   3.371   4.371  0.1978 -0.3916  1.2950
  804MOL0     H 8524  -1.842   3.223   4.109 -0.2345  0.6140 -0.1983
  804MOL0     H 8525  -1.610   3.265   4.115 -3.0296  0.5802 -1.3496
  804MOL0     H 8526   0.339   3.181   4.386 -1.3915 -1.8674  0.5547
  804MOL0     H 8527   0.564   3.077   4.509  0.6376 -1.4796  3.1218
  804MOL0     H 8528   0.706   2.842   4.837  1.9725 -3.4896 -1.9072
  804MOL0     H 8529   0.863   2.714   4.973  0.0687 -0.9375  0.9340
  804MOL0     H 8530   1.275   2.857   4.930 -0.3428  0.3751  0.3531
  804MOL0     H 8531   1.268   2.925   5.095 -1.0995 -0.6939  0.4215
  804MOL0     H 8532   1.296   2.630   5.011  1.3231  0.1299 -1.1589
  804MOL0     H 8533   1.286   2.671   5.180 -0.7538 -3.4154 -1.5470
  804MOL0     H 8534   1.510   2.782   5.001  0.8387 -1.8804 -0.5172
  804MOL0     H 8535   1.530   2.633   5.085  0.2909  0.0641 -2.9815
  804MOL0     H 8536   1.491   2.745   5.312  0.5369  1.8592  0.9439
  804MOL0     H 8537   1.474   2.899   5.225  1.8512  1.0549  2.3854
  804MOL0     H 8538   1.899   2.818   5.215 -0.1589  0.8934  2.4918
  804MOL0     H 8539   1.140   3.051   4.930  1.4013 -1.5155 -0.1014
  804MOL0     H 8540   0.984   3.165   4.776  0.8123  0.1198  1.0417
  805MOL0     O 8541  10.058  10.583   2.336 -1.0284 -0.8278 -0.4621
  805MOL0     C 8542  10.102  10.522   2.243 -0.2534  0.1531 -0.0831
  805MOL0     O 8543  10.036  10.486   2.129 -0.0591 -0.8227  0.3825
  805MOL0     C 8544   9.893  10.510   2.124 -0.2333  0.4257 -0.0320
  805MOL0     C 8545   9.791  10.418   2.166 -0.5438 -0.3337 -0.0779
  805MOL0     C 8546   9.657  10.455   2.178  0.6781 -0.0584  0.7698
  805MOL0     C 8547   9.617  10.588   2.147 -0.1007  0.0175 -0.2147
  805MOL0     O 8548   9.485  10.638   2.143 -0.4479 -0.1746 -0.5900
  805MOL0     C 8549   9.375  10.548   2.179 -0.7822  0.2708  0.2369
  805MOL0     C 8550   9.255  10.644   2.184  1.0687 -0.6204 -0.0710
  805MOL0     C 8551   9.131  10.549   2.168 -0.3246 -0.4063  0.3561
  805MOL0     C 8552   9.013  10.636   2.220  0.2133  0.4626 -0.1532
  805MOL0     C 8553   8.874  10.570   2.187 -0.3826  0.0565 -0.1421
  805MOL0     C 8554   8.837  10.461   2.286  0.0431  0.0297 -0.4558
  805MOL0     C 8555   8.690  10.442   2.296  0.1863 -0.3610 -0.4707
  805MOL0     C 8556   8.640  10.393   2.162 -1.1979 -0.3314  1.1969
  805MOL0     N 8557   8.498  10.353   2.166  0.1296  0.1977  0.0186
  805MOL0     C 8558   8.444  10.242   2.120 -0.0051  0.3706  0.6345
  805MOL0     C 8559   8.314  10.248   2.143  0.0869 -0.1837 -0.3952
  805MOL0     C 8560   8.212  10.165   2.075  0.4794 -0.3041 -0.1819
  805MOL0     C 8561   8.071  10.152   2.149 -0.3283 -0.7459  0.7425
  805MOL0     C 8562   8.102  10.083   2.285 -0.1862 -0.4490 -0.2319
  805MOL0     C 8563   7.979  10.030   2.354  0.4243 -0.6154 -0.6763
  805MOL0     O 8564   7.856  10.107   2.335  0.0543  0.4556 -0.0838
  805MOL0     C 8565   7.735  10.066   2.387 -0.4818  0.1260  0.7716
  805MOL0     C 8566   7.631  10.143   2.338 -0.2458 -0.7979 -0.5586
  805MOL0     C 8567   7.501  10.108   2.364  0.3772  0.4926 -0.3293
  805MOL0     C 8568   7.387  10.208   2.330  0.2432  0.1215  0.7308
  805MOL0     C 8569   7.469   9.992   2.447 -0.0830 -0.0402 -0.4312
  805MOL0     C 8570   7.330   9.945   2.486 -0.1489  0.1080  0.2295
  805MOL0     O 8571   7.329   9.834   2.564 -0.0951  0.0587 -0.1808
  805MOL0     C 8572   7.218   9.762   2.569  0.1108  0.3069  0.2437
  805MOL0     C 8573   7.101   9.805   2.636  0.8108 -0.3674 -0.6689
  805MOL0     C 8574   6.986   9.730   2.621 -0.3382  0.3278 -0.2698
  805MOL0     C 8575   6.976   9.616   2.535 -0.1457 -0.2827  0.2650
  805MOL0     O 8576   6.850   9.548   2.529  0.6484 -0.5433 -0.2343
  805MOL0     C 8577   6.852   9.436   2.442 -0.2024 -0.1243 -0.2929
  805MOL0     C 8578   6.709   9.376   2.436  0.1965 -0.0745 -0.2688
  805MOL0     C 8579   6.615   9.479   2.388 -0.4122  0.8047 -0.0382
  805MOL0     C 8580   6.476   9.420   2.398 -0.0285 -0.2930 -0.1011
  805MOL0     C 8581   6.426   9.408   2.543  1.0676  1.1824  0.0084
  805MOL0     C 8582   6.276   9.377   2.536 -0.0996 -0.4632 -0.1727
  805MOL0     C 8583   6.239   9.236   2.501 -0.2953 -0.4356  0.5312
  805MOL0     C 8584   6.090   9.209   2.478  0.2479 -0.0275 -0.4674
  805MOL0    Cl 8585   6.060   9.040   2.421 -0.4174 -0.7201  0.1116
  805MOL0     C 8586   7.096   9.576   2.470 -0.2784  0.0486 -0.1658
  805MOL0     C 8587   7.214   9.650   2.484 -0.4743 -0.4040 -0.8059
  805MOL0     O 8588   7.231   9.989   2.419 -0.2040 -0.7020  0.3834
  805MOL0     C 8589   7.575   9.912   2.490  0.2297  0.3580  0.2891
  805MOL0     C 8590   7.704   9.955   2.459 -0.1394 -0.0729 -0.9832
  805MOL0     N 8591   8.283  10.360   2.220  0.1544 -0.0007 -0.5736
  805MOL0     N 8592   8.402  10.418   2.236 -0.8869  0.8260  0.7007
  805MOL0     C 8593   9.715  10.677   2.094 -0.0759  0.0824 -0.9155
  805MOL0     C 8594   9.852  10.639   2.084 -0.5345  0.9005  0.2183
  805MOL0     C 8595  10.248  10.497   2.239  0.2090 -0.4300  0.1451
  805MOL0     C 8596  10.306  10.432   2.131  0.0248 -0.0088  0.4886
  805MOL0     C 8597  10.447  10.404   2.129  0.6932  0.0686  0.0549
  805MOL0     C 8598  10.528  10.430   2.240  1.1011  0.3057 -0.7523
  805MOL0     O 8599  10.665  10.394   2.227  0.4633 -0.1242 -0.0487
  805MOL0     C 8600  10.751  10.451   2.324 -0.2458  0.9785 -0.2020
  805MOL0     C 8601  10.898  10.447   2.287  0.2459 -0.2460 -0.7034
  805MOL0     C 8602  10.931  10.507   2.151 -0.1225  0.1967  0.1943
  805MOL0     C 8603  11.074  10.477   2.099  0.7598 -1.0516 -0.2982
  805MOL0     C 8604  11.177  10.543   2.182  1.0050  0.3366  0.6229
  805MOL0     C 8605  11.243  10.613   2.259  0.1774  0.0584  0.6897
  805MOL0     C 8606  10.473  10.501   2.345 -0.3825 -0.0063  0.0722
  805MOL0     C 8607  10.336  10.527   2.344 -0.7668  0.0736 -0.1355
  805MOL0     H 8608   9.819  10.317   2.192  4.6751  0.5057 -1.3179
  805MOL0     H 8609   9.575  10.388   2.202  0.9896 -1.3466 -1.5585
  805MOL0     H 8610   9.346  10.477   2.101 -0.0251 -0.6907  0.8114
  805MOL0     H 8611   9.395  10.491   2.270 -1.7277  0.2901  0.4674
  805MOL0     H 8612   9.252  10.700   2.278 -1.3063 -0.9959  0.1452
  805MOL0     H 8613   9.251  10.713   2.099 -3.2184  0.1367  0.5064
  805MOL0     H 8614   9.115  10.541   2.060  1.2950  2.9297 -0.2906
  805MOL0     H 8615   9.130  10.460   2.231 -2.3558 -1.6730 -1.3526
  805MOL0     H 8616   9.018  10.656   2.328 -1.7576 -1.1714  0.3074
  805MOL0     H 8617   9.015  10.734   2.171 -0.3108 -0.1636 -1.4795
  805MOL0     H 8618   8.802  10.651   2.195 -0.6818 -0.1997 -0.2392
  805MOL0     H 8619   8.875  10.526   2.087 -3.4672 -1.4514  0.3813
  805MOL0     H 8620   8.884  10.366   2.258 -0.6884 -2.2315  4.7676
  805MOL0     H 8621   8.882  10.493   2.381  0.7727  1.8170 -1.3511
  805MOL0     H 8622   8.676  10.371   2.378  1.9871 -0.2756 -0.0416
  805MOL0     H 8623   8.645  10.540   2.315  1.7977  0.9145 -2.6316
  805MOL0     H 8624   8.703  10.317   2.115 -0.7392  1.2416 -0.8522
  805MOL0     H 8625   8.634  10.482   2.099 -2.5757 -1.7233 -0.7344
  805MOL0     H 8626   8.493  10.168   2.056 -2.0374 -0.4741 -0.0366
  805MOL0     H 8627   8.195  10.202   1.973 -0.2381 -1.0191 -0.3315
  805MOL0     H 8628   8.257  10.066   2.064 -0.6341 -0.8874  0.3315
  805MOL0     H 8629   8.000  10.100   2.083  0.9284 -1.4871 -0.0605
  805MOL0     H 8630   8.029  10.250   2.170  1.2383  0.5262 -1.5852
  805MOL0     H 8631   8.156  10.146   2.355  0.7159 -2.6969  1.1890
  805MOL0     H 8632   8.160   9.994   2.260  1.1664  0.0762  0.9361
  805MOL0     H 8633   7.989  10.029   2.463 -2.1837  0.5781 -0.3510
  805MOL0     H 8634   7.964   9.925   2.327  0.0608 -0.7409 -0.0227
  805MOL0     H 8635   7.645  10.226   2.269 -5.0407 -0.5963 -1.6512
  805MOL0     H 8636   7.313  10.222   2.409 -0.2046 -1.5227  0.6308
  805MOL0     H 8637   7.428  10.304   2.299 -0.5550  0.2698  0.0803
  805MOL0     H 8638   7.335  10.169   2.242  1.3342  0.6174 -0.1596
  805MOL0     H 8639   7.108   9.889   2.704 -1.1958 -2.1734  1.9825
  805MOL0     H 8640   6.911   9.773   2.686  0.8438 -0.5379  1.7977
  805MOL0     H 8641   6.883   9.471   2.343  4.0004  2.3920  1.6465
  805MOL0     H 8642   6.920   9.355   2.471  1.1763  0.5577 -1.4808
  805MOL0     H 8643   6.708   9.292   2.366  1.5230 -1.4649  1.2881
  805MOL0     H 8644   6.680   9.330   2.530 -0.4312  1.6584  0.4264
  805MOL0     H 8645   6.633   9.513   2.286 -2.3037  1.1880 -0.2732
  805MOL0     H 8646   6.622   9.563   2.457  0.7363  1.1504 -0.5553
  805MOL0     H 8647   6.405   9.495   2.363 -1.6752 -0.9303  1.6753
  805MOL0     H 8648   6.456   9.332   2.336 -1.6791 -0.8096  1.0865
  805MOL0     H 8649   6.438   9.492   2.612 -1.2792 -0.0055  2.0448
  805MOL0     H 8650   6.466   9.318   2.590  1.4801  1.7993  0.8488
  805MOL0     H 8651   6.226   9.388   2.633 -3.0307 -1.3472 -1.4596
  805MOL0     H 8652   6.225   9.452   2.475  1.5135  1.6931  0.9860
  805MOL0     H 8653   6.277   9.167   2.577 -0.2000  0.8975  1.7397
  805MOL0     H 8654   6.283   9.197   2.409  0.2253 -1.1489  1.0722
  805MOL0     H 8655   6.042   9.278   2.407 -0.2736 -0.2898 -0.3802
  805MOL0     H 8656   6.035   9.218   2.572  0.9123  1.5507 -0.2140
  805MOL0     H 8657   7.105   9.485   2.412  1.8972  0.6041 -0.7857
  805MOL0     H 8658   7.306   9.610   2.442  0.1002 -0.1895  0.2129
  805MOL0     H 8659   7.564   9.823   2.551 -0.2833  1.0079  1.1623
  805MOL0     H 8660   7.779   9.879   2.481 -2.1123 -2.0509 -0.8095
  805MOL0     H 8661   9.693  10.778   2.059  3.6405  0.5256 -2.5101
  805MOL0     H 8662   9.929  10.703   2.041 -0.4109 -0.1639 -1.2323
  805MOL0     H 8663  10.244  10.401   2.048  0.4396 -1.6475  0.7548
  805MOL0     H 8664  10.493  10.373   2.036  0.0353 -3.1888  0.6666
  805MOL0     H 8665  10.737  10.555   2.356  2.1333  0.8620  1.4599
  805MOL0     H 8666  10.742  10.392   2.417  0.5977 -1.1570 -1.3987
  805MOL0     H 8667  10.936  10.346   2.302  1.5835  0.7111  4.0097
  805MOL0     H 8668  10.947  10.505   2.365 -0.4201  0.8947 -1.0917
  805MOL0     H 8669  10.920  10.615   2.140 -0.8327  0.0972 -0.1422
  805MOL0     H 8670  10.859  10.449   2.091 -0.4881 -1.6436  2.2893
  805MOL0     H 8671  11.092  10.504   1.994  3.2219 -3.5875 -0.6416
  805MOL0     H 8672  11.091  10.369   2.103 -1.2353 -1.4329 -0.9536
  805MOL0     H 8673  11.312  10.670   2.318  0.2834 -0.6881  1.3073
  805MOL0     H 8674  10.530  10.530   2.433 -0.7139 -3.0684  1.4321
  805MOL0     H 8675  10.298  10.591   2.424  1.1119  2.7074 -1.2131
  806MOL0     O 8676   0.881   5.505   6.305  0.5110 -0.3860  0.2536
  806MOL0     C 8677   0.895   5.388   6.335 -0.1525  0.0263 -0.0263
  806MOL0     O 8678   0.800   5.306   6.386 -0.0349  0.1063 -0.0593
  806MOL0     C 8679   0.665   5.343   6.395 -0.2733  0.1313  0.6322
  806MOL0     C 8680   0.587   5.299   6.496 -0.3317 -0.0091 -0.2581
  806MOL0     C 8681   0.450   5.309   6.498  0.6679 -0.1431 -0.0790
  806MOL0     C 8682   0.382   5.371   6.391 -0.1645  0.1083  0.1625
  806MOL0     O 8683   0.245   5.399   6.389 -0.3169 -0.2013  0.2871
  806MOL0     C 8684   0.173   5.414   6.503 -0.2658 -0.0785 -0.6700
  806MOL0     C 8685   0.024   5.448   6.472  0.6948  0.7358  0.0594
  806MOL0     C 8686  -0.052   5.490   6.594 -0.1549  0.0146 -0.1835
  806MOL0     C 8687  -0.202   5.522   6.556 -0.6283  0.2248  0.0365
  806MOL0     C 8688  -0.281   5.612   6.655 -0.0089 -0.0093 -0.6199
  806MOL0     C 8689  -0.240   5.762   6.646  0.4781  0.0213  0.0733
  806MOL0     C 8690  -0.341   5.857   6.723  0.0064 -0.0600 -0.2096
  806MOL0     C 8691  -0.489   5.849   6.669  0.9434  0.2181  0.5076
  806MOL0     N 8692  -0.565   5.970   6.695 -0.2936  0.8130  0.5156
  806MOL0     C 8693  -0.615   6.007   6.820  0.5168  0.0274 -0.1678
  806MOL0     C 8694  -0.678   6.124   6.800  0.0871  0.3017 -0.8163
  806MOL0     C 8695  -0.757   6.193   6.909 -0.5473  0.9305  0.0380
  806MOL0     C 8696  -0.904   6.142   6.924 -0.6870  0.0098  0.1729
  806MOL0     C 8697  -0.972   6.246   7.019 -0.5866  0.0013 -0.4898
  806MOL0     C 8698  -1.123   6.222   7.022 -0.4539  0.6086 -0.5095
  806MOL0     O 8699  -1.154   6.116   7.117 -0.0625  0.6415 -0.1864
  806MOL0     C 8700  -1.285   6.081   7.128 -1.4157 -0.4891  0.2080
  806MOL0     C 8701  -1.306   5.968   7.192  1.1229  0.2820 -0.0757
  806MOL0     C 8702  -1.437   5.928   7.229  0.1457 -0.3526 -0.4175
  806MOL0     C 8703  -1.451   5.808   7.312 -0.5322 -0.3466 -0.9191
  806MOL0     C 8704  -1.549   5.995   7.177 -0.6698 -0.3456  0.2879
  806MOL0     C 8705  -1.688   5.951   7.194 -0.1111  0.2650  0.1101
  806MOL0     O 8706  -1.723   5.818   7.170  0.1666  0.1089  0.6345
  806MOL0     C 8707  -1.834   5.776   7.231 -0.7141  0.1653  0.5619
  806MOL0     C 8708  -1.962   5.804   7.177  0.1865 -0.7916 -0.1933
  806MOL0     C 8709  -2.073   5.767   7.250  0.5165  0.3170 -0.0397
  806MOL0     C 8710  -2.067   5.694   7.367  0.8002 -0.2519 -0.7858
  806MOL0     O 8711  -2.187   5.650   7.429 -0.9349 -0.1265 -0.5010
  806MOL0     C 8712  -2.251   5.554   7.345  0.9943 -0.3653  0.0866
  806MOL0     C 8713  -2.305   5.452   7.443 -0.5390 -0.5062  0.0139
  806MOL0     C 8714  -2.199   5.366   7.516 -0.3520 -0.4583  0.5292
  806MOL0     C 8715  -2.243   5.295   7.640  0.1425 -0.3756  0.3043
  806MOL0     C 8716  -2.163   5.170   7.673  0.3184  0.2110  0.5560
  806MOL0     C 8717  -2.014   5.185   7.700  0.8140 -0.0960 -0.3791
  806MOL0     C 8718  -1.987   5.294   7.809 -0.8198 -0.7999 -0.5710
  806MOL0     C 8719  -2.032   5.258   7.950  0.3934 -0.0105  0.0729
  806MOL0    Cl 8720  -1.954   5.103   7.991 -0.2426  0.0321 -0.1034
  806MOL0     C 8721  -1.939   5.670   7.418  0.4752  0.0408 -0.1856
  806MOL0     C 8722  -1.824   5.708   7.347  0.7055  0.2856  0.6413
  806MOL0     O 8723  -1.765   6.041   7.224 -0.3425 -0.7743  0.9031
  806MOL0     C 8724  -1.521   6.118   7.111 -0.0132  0.2246 -0.7189
  806MOL0     C 8725  -1.392   6.157   7.088  0.2889 -0.5932  0.1757
  806MOL0     N 8726  -0.668   6.165   6.674  0.4807 -0.1488  0.2352
  806MOL0     N 8727  -0.600   6.068   6.608 -0.4791 -0.6348 -0.2438
  806MOL0     C 8728   0.462   5.424   6.296 -0.7561  0.5255  0.2451
  806MOL0     C 8729   0.598   5.413   6.297  0.3911 -0.3132 -0.6895
  806MOL0     C 8730   1.034   5.341   6.335 -0.4882 -0.4220 -0.5617
  806MOL0     C 8731   1.055   5.203   6.352 -0.1633  0.2044  0.3742
  806MOL0     C 8732   1.184   5.154   6.343 -0.1288  0.5751 -0.3648
  806MOL0     C 8733   1.288   5.239   6.314 -0.5371  0.0750 -0.5227
  806MOL0     O 8734   1.420   5.183   6.303  0.2168 -0.5449  0.0092
  806MOL0     C 8735   1.513   5.246   6.219  0.7821 -0.1079  0.5067
  806MOL0     C 8736   1.612   5.147   6.159 -0.0456  1.1980  0.2160
  806MOL0     C 8737   1.742   5.152   6.242  0.3959  0.4647 -0.3467
  806MOL0     C 8738   1.724   5.091   6.379  0.2424 -0.0495 -0.1774
  806MOL0     C 8739   1.854   5.073   6.436 -0.2945  0.0039  0.5395
  806MOL0     C 8740   1.965   5.029   6.474 -0.1573  0.2221 -0.0696
  806MOL0     C 8741   1.269   5.375   6.290  0.5757 -0.7742  0.9848
  806MOL0     C 8742   1.139   5.420   6.300 -0.6104 -0.6156  0.6452
  806MOL0     H 8743   0.641   5.248   6.576 -0.6027 -3.6482 -2.1847
  806MOL0     H 8744   0.385   5.265   6.573 -0.6280 -1.5380 -1.9342
  806MOL0     H 8745   0.180   5.319   6.557  1.5322  0.0064 -0.6793
  806MOL0     H 8746   0.218   5.488   6.570  0.2552 -1.7508  0.8988
  806MOL0     H 8747   0.016   5.525   6.394 -1.2697  0.8480  0.3163
  806MOL0     H 8748  -0.020   5.357   6.430 -1.2121  1.1290  1.0638
  806MOL0     H 8749  -0.035   5.416   6.672  2.8952  1.7367  0.9894
  806MOL0     H 8750  -0.014   5.589   6.620 -2.7924  0.9883  0.3442
  806MOL0     H 8751  -0.216   5.558   6.454  0.5702 -1.1554 -0.6603
  806MOL0     H 8752  -0.250   5.423   6.559  2.3737 -1.4502 -2.2834
  806MOL0     H 8753  -0.384   5.606   6.618 -0.3605  1.7555 -0.0127
  806MOL0     H 8754  -0.280   5.575   6.758 -2.8692 -0.1731 -0.5457
  806MOL0     H 8755  -0.138   5.780   6.681  0.7615  0.0313 -0.7405
  806MOL0     H 8756  -0.245   5.802   6.544 -1.2499 -2.9048 -1.1059
  806MOL0     H 8757  -0.351   5.851   6.832 -2.3821  0.3954 -0.3401
  806MOL0     H 8758  -0.297   5.958   6.720 -0.1809  0.1304  1.9987
  806MOL0     H 8759  -0.535   5.758   6.709 -0.7195 -0.1330 -2.0272
  806MOL0     H 8760  -0.490   5.833   6.561 -1.9296 -0.1146  0.5253
  806MOL0     H 8761  -0.621   5.950   6.912 -0.3092 -0.7915 -0.7079
  806MOL0     H 8762  -0.693   6.186   6.998  0.0159 -0.8611 -0.4459
  806MOL0     H 8763  -0.761   6.300   6.886  0.5443  0.8353 -0.6791
  806MOL0     H 8764  -0.896   6.039   6.961 -1.0154  0.0387  0.3315
  806MOL0     H 8765  -0.948   6.134   6.824  0.7468 -3.9405 -0.3215
  806MOL0     H 8766  -0.955   6.347   6.978  3.3666  0.3453  1.5192
  806MOL0     H 8767  -0.922   6.243   7.116  2.7480 -0.7947 -2.0731
  806MOL0     H 8768  -1.166   6.211   6.922 -0.4230 -0.4510 -0.4206
  806MOL0     H 8769  -1.170   6.312   7.063  0.3720  0.8412 -0.0360
  806MOL0     H 8770  -1.223   5.914   7.238 -0.7294 -2.6063  0.1397
  806MOL0     H 8771  -1.551   5.809   7.356 -0.5392 -1.5870 -0.8687
  806MOL0     H 8772  -1.448   5.716   7.253 -1.1180  1.3779 -3.8272
  806MOL0     H 8773  -1.380   5.805   7.395 -2.1000 -3.1759  0.4710
  806MOL0     H 8774  -1.969   5.856   7.082  2.6213 -3.2136 -1.8723
  806MOL0     H 8775  -2.170   5.783   7.205 -0.2117 -1.3074  0.8541
  806MOL0     H 8776  -2.339   5.603   7.302 -2.0064 -3.6148  1.9540
  806MOL0     H 8777  -2.188   5.493   7.280  0.4306 -1.0635  0.1793
  806MOL0     H 8778  -2.350   5.502   7.530  2.9073 -2.9797  3.5369
  806MOL0     H 8779  -2.382   5.397   7.388 -0.2399 -1.4865  0.5646
  806MOL0     H 8780  -2.106   5.420   7.538  1.2742 -3.0530  0.5936
  806MOL0     H 8781  -2.180   5.281   7.450 -4.0948 -1.8206  0.9587
  806MOL0     H 8782  -2.259   5.361   7.726 -3.4997 -1.9405  1.0254
  806MOL0     H 8783  -2.347   5.270   7.613 -0.5669  1.4503  1.1927
  806MOL0     H 8784  -2.177   5.095   7.594 -0.4688 -0.1205  1.0015
  806MOL0     H 8785  -2.208   5.123   7.762 -1.2364 -0.7366 -0.6687
  806MOL0     H 8786  -1.978   5.086   7.728 -1.1343 -2.0690 -4.1045
  806MOL0     H 8787  -1.978   5.210   7.600 -1.2003  1.8420 -0.7076
  806MOL0     H 8788  -2.021   5.393   7.779  2.3585  0.8304  0.6924
  806MOL0     H 8789  -1.880   5.313   7.820 -1.6609  5.2517  0.5614
  806MOL0     H 8790  -2.140   5.255   7.959  0.3794  1.6965  1.0111
  806MOL0     H 8791  -2.005   5.336   8.022 -0.7693 -0.3468  0.8841
  806MOL0     H 8792  -1.930   5.638   7.521 -0.4824  0.0791 -0.0786
  806MOL0     H 8793  -1.724   5.708   7.390  3.1623  0.6073 -4.3147
  806MOL0     H 8794  -1.597   6.190   7.081  0.2446  0.9719  0.3787
  806MOL0     H 8795  -1.369   6.251   7.039 -3.1702  0.1083 -0.3561
  806MOL0     H 8796   0.420   5.481   6.213 -2.2280  1.1681  1.3972
  806MOL0     H 8797   0.648   5.468   6.218 -0.2146  1.3801  0.0707
  806MOL0     H 8798   0.970   5.138   6.368 -0.6195  0.5726 -0.4936
  806MOL0     H 8799   1.195   5.047   6.360 -1.9684  0.4317  0.0893
  806MOL0     H 8800   1.457   5.287   6.135 -2.3111 -0.9999  1.9835
  806MOL0     H 8801   1.565   5.333   6.262  0.0435  1.0269 -0.8235
  806MOL0     H 8802   1.633   5.186   6.059  2.5576 -1.1505 -0.2657
  806MOL0     H 8803   1.570   5.046   6.162  0.0567  1.1741  1.0902
  806MOL0     H 8804   1.775   5.257   6.249  0.2670  0.6897 -2.3663
  806MOL0     H 8805   1.812   5.093   6.182 -1.7283  0.1743 -2.6901
  806MOL0     H 8806   1.661   5.003   6.367  3.0455 -2.2351  0.1763
  806MOL0     H 8807   1.667   5.150   6.451  3.0067  1.3183  1.0431
  806MOL0     H 8808   2.050   4.980   6.517  1.3092 -0.3385 -3.2604
  806MOL0     H 8809   1.348   5.447   6.275  1.8617 -1.5204  3.5935
  806MOL0     H 8810   1.129   5.527   6.285 -1.0607 -0.7936 -0.3898
  807MOL0     O 8811   7.162   7.682   7.501 -0.0689  1.0295  0.1296
  807MOL0     C 8812   7.149   7.666   7.621 -0.4995 -0.4120 -0.3536
  807MOL0     O 8813   7.031   7.637   7.681  0.1877 -0.6644 -0.1351
  807MOL0     C 8814   6.916   7.598   7.615 -0.1968 -0.4903  0.1426
  807MOL0     C 8815   6.888   7.608   7.478  0.4588 -0.7445 -0.0642
  807MOL0     C 8816   6.779   7.561   7.413  0.4289  1.1831 -0.8024
  807MOL0     C 8817   6.678   7.503   7.492  0.9762 -0.7595  0.7936
  807MOL0     O 8818   6.554   7.464   7.447 -0.1217 -0.7439  0.5313
  807MOL0     C 8819   6.528   7.447   7.301 -0.6713 -0.5391  0.1534
  807MOL0     C 8820   6.508   7.582   7.218  0.0161 -0.4025 -0.1797
  807MOL0     C 8821   6.503   7.552   7.075 -0.6127  0.3802  1.0726
  807MOL0     C 8822   6.356   7.519   7.017 -0.4149  0.8784  0.1471
  807MOL0     C 8823   6.273   7.628   6.962  0.0827 -0.2572 -0.4472
  807MOL0     C 8824   6.141   7.586   6.897 -0.1993 -0.7700  0.9542
  807MOL0     C 8825   6.034   7.527   6.982  0.4385  0.7462 -0.4590
  807MOL0     C 8826   5.896   7.500   6.907  0.3689  0.4653  0.0035
  807MOL0     N 8827   5.841   7.622   6.855 -0.2763 -0.6325 -0.3721
  807MOL0     C 8828   5.804   7.645   6.723  0.5308 -1.1175 -0.0414
  807MOL0     C 8829   5.732   7.762   6.738 -0.5127 -0.0870  0.4421
  807MOL0     C 8830   5.643   7.818   6.626 -0.1261  1.4885  0.2355
  807MOL0     C 8831   5.536   7.908   6.679  0.2876  0.9646 -0.5319
  807MOL0     C 8832   5.474   7.981   6.569  0.7143 -0.3542  0.0515
  807MOL0     C 8833   5.402   8.104   6.624 -0.4958  0.2508 -0.6433
  807MOL0     O 8834   5.299   8.068   6.720  0.2209 -0.1717 -0.6765
  807MOL0     C 8835   5.236   8.178   6.779 -0.0609 -0.0719 -0.3305
  807MOL0     C 8836   5.273   8.315   6.769 -0.3341  0.0460 -0.9904
  807MOL0     C 8837   5.208   8.413   6.842 -1.2055 -0.3289 -0.2673
  807MOL0     C 8838   5.267   8.552   6.826  0.3733  0.6305  0.2267
  807MOL0     C 8839   5.097   8.381   6.929 -0.6195 -0.0924  0.1468
  807MOL0     C 8840   5.025   8.474   7.021 -0.1978 -0.3919 -0.1062
  807MOL0     O 8841   4.923   8.428   7.102 -0.3523 -0.0336 -0.4110
  807MOL0     C 8842   4.848   8.517   7.164 -0.0808  0.5005  0.7811
  807MOL0     C 8843   4.764   8.607   7.107  0.5359  0.1230 -0.4894
  807MOL0     C 8844   4.678   8.683   7.190  1.0421  0.2293 -0.4522
  807MOL0     C 8845   4.697   8.688   7.328  0.7028  0.5096  0.1928
  807MOL0     O 8846   4.622   8.770   7.417 -0.2677  0.0704 -0.4146
  807MOL0     C 8847   4.543   8.881   7.371  0.2500  0.0485  0.0775
  807MOL0     C 8848   4.447   8.926   7.486  0.6256 -0.2972  0.0602
  807MOL0     C 8849   4.357   8.807   7.537 -0.2246 -0.5083 -0.0428
  807MOL0     C 8850   4.254   8.871   7.635  0.7234  0.8422 -0.2613
  807MOL0     C 8851   4.156   8.973   7.587 -0.3112 -0.2053 -0.7907
  807MOL0     C 8852   4.064   9.009   7.706 -0.0199 -0.5063  0.1033
  807MOL0     C 8853   3.955   9.110   7.653 -0.7069 -0.3672  0.4643
  807MOL0     C 8854   3.873   9.155   7.777 -0.2843 -1.0177 -0.2323
  807MOL0    Cl 8855   3.757   9.023   7.796 -0.0989  0.0679  0.5002
  807MOL0     C 8856   4.778   8.588   7.387 -0.3610 -0.4873  0.0685
  807MOL0     C 8857   4.838   8.496   7.299 -0.1722  0.1296 -0.0378
  807MOL0     O 8858   5.048   8.596   7.002 -0.6983  0.7827 -0.4318
  807MOL0     C 8859   5.054   8.249   6.924 -0.0578  0.0996  0.2467
  807MOL0     C 8860   5.119   8.151   6.853  0.2882  0.0322 -0.0827
  807MOL0     N 8861   5.727   7.797   6.870  0.3261  0.3260  0.0892
  807MOL0     N 8862   5.791   7.714   6.943 -0.2385  0.0722 -0.0242
  807MOL0     C 8863   6.700   7.497   7.632  0.6974 -0.4592  0.1138
  807MOL0     C 8864   6.826   7.537   7.694 -0.3527  1.1677  0.4212
  807MOL0     C 8865   7.273   7.676   7.706  0.2057 -0.1843  0.6145
  807MOL0     C 8866   7.271   7.634   7.841 -0.2117  0.5425 -1.2548
  807MOL0     C 8867   7.383   7.661   7.922  0.2352 -1.0297  0.6523
  807MOL0     C 8868   7.498   7.704   7.861 -0.3260 -0.9142  0.0566
  807MOL0     O 8869   7.601   7.712   7.949  0.4026 -0.0947 -0.0722
  807MOL0     C 8870   7.734   7.734   7.905  0.6531  0.5779 -0.0923
  807MOL0     C 8871   7.815   7.763   8.023 -0.9633  0.4325 -0.2654
  807MOL0     C 8872   7.965   7.746   8.003 -0.2668  0.2742 -0.4549
  807MOL0     C 8873   8.050   7.788   8.118  0.6899  0.8635 -0.3608
  807MOL0     C 8874   8.191   7.784   8.102 -0.0018  0.2068  0.7282
  807MOL0     C 8875   8.315   7.788   8.108  0.2291 -0.0065  0.4595
  807MOL0     C 8876   7.504   7.746   7.724 -0.1159  0.6697  0.9791
  807MOL0     C 8877   7.391   7.730   7.651  0.1494  0.8726  0.1464
  807MOL0     H 8878   6.961   7.660   7.416 -0.6315 -0.3423 -1.0428
  807MOL0     H 8879   6.771   7.578   7.306  1.0741 -2.4347 -1.5339
  807MOL0     H 8880   6.607   7.392   7.249 -1.4194 -3.2203  1.7036
  807MOL0     H 8881   6.441   7.382   7.287 -0.5861 -0.9936  1.6293
  807MOL0     H 8882   6.416   7.635   7.246  0.4588  0.3045 -0.0317
  807MOL0     H 8883   6.580   7.660   7.245 -0.8590  0.3019  0.1434
  807MOL0     H 8884   6.534   7.638   7.015 -1.2696 -1.1004 -1.5284
  807MOL0     H 8885   6.573   7.475   7.041 -0.8979  2.0061 -4.0722
  807MOL0     H 8886   6.358   7.445   6.936 -3.1418  2.0742 -1.1381
  807MOL0     H 8887   6.302   7.475   7.101  0.7929  0.4124  0.7083
  807MOL0     H 8888   6.236   7.698   7.037 -3.0103 -2.6483  0.4352
  807MOL0     H 8889   6.331   7.683   6.887  1.7317  1.1654  1.7374
  807MOL0     H 8890   6.102   7.676   6.850 -2.0574 -1.9038  0.1888
  807MOL0     H 8891   6.162   7.518   6.814  1.8264  0.7814  0.1126
  807MOL0     H 8892   6.076   7.437   7.029  2.2245  1.4997 -0.5540
  807MOL0     H 8893   6.008   7.604   7.055 -2.3037 -1.7649  1.4615
  807MOL0     H 8894   5.834   7.450   6.982  2.3929  0.9138  2.0973
  807MOL0     H 8895   5.922   7.431   6.827 -0.3155  0.5427 -0.2864
  807MOL0     H 8896   5.814   7.572   6.643  2.7268 -0.6172 -0.2928
  807MOL0     H 8897   5.699   7.874   6.551  2.4854  1.3994  1.9907
  807MOL0     H 8898   5.599   7.727   6.585  0.2298  1.0890  0.7193
  807MOL0     H 8899   5.590   7.981   6.741 -1.7397  2.3954 -0.3622
  807MOL0     H 8900   5.461   7.848   6.731  1.5871 -2.2308 -2.0983
  807MOL0     H 8901   5.401   7.928   6.507  0.4465 -0.0312  0.0878
  807MOL0     H 8902   5.546   8.008   6.491  1.5743 -0.7297  0.6973
  807MOL0     H 8903   5.366   8.153   6.533 -0.3052  1.4265 -0.1031
  807MOL0     H 8904   5.477   8.158   6.683 -1.2640  0.1607  0.4445
  807MOL0     H 8905   5.351   8.343   6.699 -0.0028  0.5028 -0.4446
  807MOL0     H 8906   5.362   8.537   6.773  0.5762 -1.1788  1.0382
  807MOL0     H 8907   5.194   8.603   6.762 -0.5027  1.6520  1.9855
  807MOL0     H 8908   5.282   8.600   6.923  0.5817  0.8117  0.1071
  807MOL0     H 8909   4.761   8.621   7.000 -0.0333  0.6451 -0.4130
  807MOL0     H 8910   4.607   8.753   7.146 -0.5428 -1.5923 -0.9101
  807MOL0     H 8911   4.615   8.960   7.348  0.1025  1.1908  3.0433
  807MOL0     H 8912   4.479   8.844   7.291  0.6095 -1.5915  0.5021
  807MOL0     H 8913   4.505   8.971   7.567  2.4302 -1.3608 -0.5522
  807MOL0     H 8914   4.384   9.001   7.437  2.1157  0.0415 -1.4351
  807MOL0     H 8915   4.418   8.732   7.588 -1.0074 -0.8468  0.3972
  807MOL0     H 8916   4.301   8.757   7.458  0.4580 -3.4346  1.2086
  807MOL0     H 8917   4.190   8.793   7.677 -1.0377  0.7932 -2.8110
  807MOL0     H 8918   4.301   8.918   7.722 -1.7473  2.8991  0.0458
  807MOL0     H 8919   4.105   8.926   7.502  1.9403  0.2544 -2.5031
  807MOL0     H 8920   4.208   9.064   7.554 -0.4299  0.9590  1.9614
  807MOL0     H 8921   4.006   8.922   7.738 -1.3662  0.0403 -0.7267
  807MOL0     H 8922   4.125   9.050   7.787 -2.3319  3.2984  0.1562
  807MOL0     H 8923   3.892   9.047   7.590  1.8423 -0.9451 -1.6962
  807MOL0     H 8924   4.004   9.196   7.606 -0.7794 -0.4096  0.3126
  807MOL0     H 8925   3.826   9.252   7.760  0.5223 -0.2900  1.4939
  807MOL0     H 8926   3.937   9.161   7.866 -0.8832 -1.7185  0.2538
  807MOL0     H 8927   4.772   8.577   7.495 -3.8599  1.5148  0.2396
  807MOL0     H 8928   4.890   8.414   7.348 -0.3112  0.0509 -0.0185
  807MOL0     H 8929   4.964   8.221   6.978 -0.7488 -1.3965 -1.5864
  807MOL0     H 8930   5.084   8.048   6.863  2.2494 -0.6476  0.1510
  807MOL0     H 8931   6.620   7.445   7.684  0.4256  0.3468  0.5158
  807MOL0     H 8932   6.852   7.511   7.795  1.8908  1.4057 -0.0562
  807MOL0     H 8933   7.178   7.598   7.884  0.3165 -0.7305 -1.1381
  807MOL0     H 8934   7.376   7.654   8.030 -0.8846  0.4318  0.6983
  807MOL0     H 8935   7.766   7.643   7.854 -1.3933  1.5145 -3.3609
  807MOL0     H 8936   7.756   7.807   7.827  3.1533  1.9239  1.7167
  807MOL0     H 8937   7.791   7.693   8.104  0.6320 -1.8110 -1.5991
  807MOL0     H 8938   7.785   7.861   8.058  0.5433 -0.2385  3.2885
  807MOL0     H 8939   7.992   7.793   7.907  0.6307  1.8466  0.5243
  807MOL0     H 8940   7.984   7.638   7.996  0.7073  0.3794  0.3188
  807MOL0     H 8941   8.029   7.722   8.202  2.4684  0.7652  0.0336
  807MOL0     H 8942   8.023   7.893   8.137  2.7983  1.1533  1.3698
  807MOL0     H 8943   8.418   7.811   8.127  0.3436  0.1705 -0.3399
  807MOL0     H 8944   7.592   7.789   7.678 -2.1112  0.2893 -3.7539
  807MOL0     H 8945   7.380   7.749   7.544  0.1950 -1.6194 -0.3541
  808MOL0     O 8946  11.106   0.534   2.023 -0.3060  0.4488 -0.2662
  808MOL0     C 8947  11.087   0.655   2.030  0.3996 -0.6276  0.3788
  808MOL0     O 8948  10.966   0.716   2.042  0.3259 -1.0285  0.1442
  808MOL0     C 8949  10.863   0.631   2.049  1.2690 -0.4989 -0.0852
  808MOL0     C 8950  10.818   0.567   2.163 -0.4596  0.2795  0.9429
  808MOL0     C 8951  10.695   0.489   2.157 -0.5347  0.7256 -0.2899
  808MOL0     C 8952  10.619   0.480   2.046  0.1708 -0.2644 -0.6322
  808MOL0     O 8953  10.500   0.407   2.058  0.7187  0.0304 -0.7058
  808MOL0     C 8954  10.535   0.267   2.030 -0.3331 -0.8299  0.6462
  808MOL0     C 8955  10.464   0.222   1.902  0.6650 -0.0401  0.0226
  808MOL0     C 8956  10.500   0.073   1.875 -0.4068  0.1088  0.1953
  808MOL0     C 8957  10.446  -0.019   1.987 -0.1350 -0.5292 -0.3579
  808MOL0     C 8958  10.421  -0.164   1.945  0.3782 -0.3951  0.4962
  808MOL0     C 8959  10.357  -0.243   2.057 -0.0213  0.6681  0.4771
  808MOL0     C 8960  10.308  -0.384   2.006  0.4130  0.2588 -0.1940
  808MOL0     C 8961  10.269  -0.477   2.124 -0.5636 -0.8186  0.6708
  808MOL0     N 8962  10.200  -0.419   2.242  0.0960  0.2474 -0.3123
  808MOL0     C 8963  10.084  -0.354   2.242 -0.4521 -0.6411  0.5664
  808MOL0     C 8964  10.048  -0.336   2.373 -0.4001  0.2061 -0.7505
  808MOL0     C 8965   9.923  -0.274   2.424  0.9719 -0.6662 -0.1358
  808MOL0     C 8966   9.810  -0.374   2.440 -0.5410 -0.9099  0.4581
  808MOL0     C 8967   9.848  -0.489   2.540  0.3748 -0.1399 -0.4276
  808MOL0     C 8968   9.737  -0.599   2.545 -1.1924 -0.2637 -0.2719
  808MOL0     O 8969   9.615  -0.528   2.554  0.3785  0.1782  1.1614
  808MOL0     C 8970   9.498  -0.599   2.547  0.1310 -0.7702 -1.1381
  808MOL0     C 8971   9.391  -0.515   2.539  0.6905 -0.0459 -0.2532
  808MOL0     C 8972   9.260  -0.561   2.546  0.3462 -0.7979 -0.4382
  808MOL0     C 8973   9.145  -0.465   2.552  0.1345  0.9171 -0.1303
  808MOL0     C 8974   9.242  -0.702   2.560  0.0645  0.0542 -0.1793
  808MOL0     C 8975   9.114  -0.765   2.588 -0.0970 -0.2631 -0.3940
  808MOL0     O 8976   9.029  -0.691   2.679  0.1840  0.2390  0.6329
  808MOL0     C 8977   8.890  -0.706   2.678  0.3244 -0.8987 -0.1299
  808MOL0     C 8978   8.829  -0.831   2.662 -0.2539  0.4820  0.1834
  808MOL0     C 8979   8.689  -0.845   2.651 -1.0685 -0.6379 -0.8852
  808MOL0     C 8980   8.609  -0.733   2.665  0.5361  0.3774 -0.2765
  808MOL0     O 8981   8.471  -0.734   2.659  0.3692 -0.6535 -0.6380
  808MOL0     C 8982   8.408  -0.845   2.594 -0.1541  0.7554 -0.7171
  808MOL0     C 8983   8.255  -0.827   2.569  1.1037  0.1231 -0.1664
  808MOL0     C 8984   8.219  -0.678   2.540 -0.2956 -0.2858  1.0948
  808MOL0     C 8985   8.281  -0.621   2.403  0.1472 -0.1826 -0.6283
  808MOL0     C 8986   8.279  -0.466   2.392 -0.3372  0.5464 -1.0944
  808MOL0     C 8987   8.399  -0.402   2.461 -0.2744 -0.9831  0.4362
  808MOL0     C 8988   8.431  -0.264   2.405 -0.4042 -0.2295 -0.6044
  808MOL0     C 8989   8.522  -0.180   2.496  0.0131  0.3834 -0.7330
  808MOL0    Cl 8990   8.669  -0.274   2.562  0.1580 -0.5749  0.1214
  808MOL0     C 8991   8.671  -0.611   2.680 -0.4037 -0.5543 -0.3874
  808MOL0     C 8992   8.808  -0.596   2.672  0.2413 -0.8220  0.0996
  808MOL0     O 8993   9.090  -0.875   2.534  0.3342 -0.0005  0.6355
  808MOL0     C 8994   9.349  -0.787   2.529  0.0846 -0.4841 -0.0139
  808MOL0     C 8995   9.483  -0.733   2.529  0.2409 -0.2887 -0.3736
  808MOL0     N 8996  10.149  -0.399   2.443  0.1306 -0.5122  0.1954
  808MOL0     N 8997  10.230  -0.458   2.363 -0.0333 -0.4823  0.1544
  808MOL0     C 8998  10.658   0.547   1.940  0.8839 -0.1023 -0.2261
  808MOL0     C 8999  10.779   0.613   1.938 -0.2833  0.0949  0.8591
  808MOL0     C 9000  11.207   0.747   2.029 -0.5476  0.0499  0.7150
  808MOL0     C 9001  11.341   0.705   2.006 -1.0244 -0.1664 -0.5262
  808MOL0     C 9002  11.454   0.787   2.022 -0.1113  0.2760 -0.8716
  808MOL0     C 9003  11.439   0.917   2.073 -0.4155  0.5479  0.3445
  808MOL0     O 9004  11.546   1.008   2.084 -0.2453  0.8671 -0.6884
  808MOL0     C 9005  11.633   0.975   2.189  0.2433 -0.3272 -0.5838
  808MOL0     C 9006  11.768   0.916   2.137 -0.4855 -0.1694  0.0508
  808MOL0     C 9007  11.869   1.011   2.073  0.7494 -0.2321 -0.8086
  808MOL0     C 9008  11.830   1.060   1.936 -0.3507 -0.2511 -0.0298
  808MOL0     C 9009  11.950   1.095   1.859  0.1894 -0.3744  0.3106
  808MOL0     C 9010  12.050   1.116   1.799  1.0879  0.3071 -0.1080
  808MOL0     C 9011  11.309   0.968   2.081  1.2311  0.0861 -0.1793
  808MOL0     C 9012  11.197   0.882   2.080  0.4326 -0.5961 -0.0257
  808MOL0     H 9013  10.874   0.595   2.253 -1.1622  1.1230  1.1363
  808MOL0     H 9014  10.677   0.435   2.250  2.0549 -0.7428 -0.5473
  808MOL0     H 9015  10.643   0.249   2.022 -0.8248 -4.0017 -0.0471
  808MOL0     H 9016  10.498   0.216   2.119  2.0509 -1.6290  1.2392
  808MOL0     H 9017  10.355   0.225   1.907  0.5344 -0.4745 -1.7555
  808MOL0     H 9018  10.498   0.277   1.814  1.6169 -1.7256 -0.7247
  808MOL0     H 9019  10.452   0.027   1.788  1.0010 -2.4026  0.6668
  808MOL0     H 9020  10.608   0.056   1.866  0.2986  2.9646  1.8944
  808MOL0     H 9021  10.516  -0.019   2.071  0.3829  0.7617 -0.7729
  808MOL0     H 9022  10.353   0.020   2.030  0.7996 -0.6237  1.8679
  808MOL0     H 9023  10.359  -0.159   1.854  2.5627  1.6258 -0.9964
  808MOL0     H 9024  10.511  -0.210   1.904  0.4615 -0.8644  1.1978
  808MOL0     H 9025  10.427  -0.260   2.139  1.5259  1.4319 -0.6352
  808MOL0     H 9026  10.265  -0.195   2.093 -0.7307 -1.2035  1.3187
  808MOL0     H 9027  10.228  -0.362   1.935 -0.4238 -1.2692  0.2272
  808MOL0     H 9028  10.396  -0.422   1.953  0.7826  2.3304 -1.1517
  808MOL0     H 9029  10.364  -0.522   2.153  1.3086 -0.4342 -3.9638
  808MOL0     H 9030  10.204  -0.548   2.072  0.2871 -0.5247 -0.8630
  808MOL0     H 9031  10.028  -0.314   2.158  0.9592  1.3415  0.4935
  808MOL0     H 9032   9.938  -0.218   2.516  0.3220 -0.6409 -0.0359
  808MOL0     H 9033   9.878  -0.196   2.362 -1.1265  0.8569  3.0562
  808MOL0     H 9034   9.796  -0.420   2.342  0.2241  0.4339 -0.3159
  808MOL0     H 9035   9.720  -0.322   2.473  0.2606  0.5762  0.3819
  808MOL0     H 9036   9.861  -0.447   2.640 -0.1109  0.5777 -0.6525
  808MOL0     H 9037   9.944  -0.538   2.523  1.8590  0.6774  4.2649
  808MOL0     H 9038   9.740  -0.669   2.629 -2.7334  0.3219  0.3047
  808MOL0     H 9039   9.750  -0.653   2.450 -1.7331  0.3391 -0.6990
  808MOL0     H 9040   9.406  -0.407   2.541 -2.2900  0.4457  0.8100
  808MOL0     H 9041   9.159  -0.375   2.491 -2.9555  0.1151 -2.3202
  808MOL0     H 9042   9.054  -0.513   2.515  1.8710 -3.6174  0.8394
  808MOL0     H 9043   9.127  -0.455   2.660 -0.6326 -2.8123  0.2140
  808MOL0     H 9044   8.890  -0.921   2.666  0.7538  1.1893  1.9259
  808MOL0     H 9045   8.649  -0.945   2.632  1.3572 -1.4183 -2.2419
  808MOL0     H 9046   8.447  -0.866   2.494  1.5992 -1.0926  0.2967
  808MOL0     H 9047   8.431  -0.932   2.655  1.8186  2.2532  0.8178
  808MOL0     H 9048   8.217  -0.898   2.495 -1.6615 -2.8688  3.6943
  808MOL0     H 9049   8.201  -0.859   2.659  1.0538 -1.6079 -0.7766
  808MOL0     H 9050   8.264  -0.617   2.618  0.0113  1.3420 -0.3073
  808MOL0     H 9051   8.115  -0.653   2.520  0.1863 -0.2877 -1.9190
  808MOL0     H 9052   8.381  -0.658   2.382 -1.7665 -3.9842 -4.5518
  808MOL0     H 9053   8.218  -0.645   2.317 -1.0411 -0.5514  0.3038
  808MOL0     H 9054   8.186  -0.423   2.430  0.0271  0.4538 -0.0696
  808MOL0     H 9055   8.292  -0.446   2.285 -3.3801  0.0355 -1.6616
  808MOL0     H 9056   8.394  -0.396   2.570  4.4508 -0.3236  0.8481
  808MOL0     H 9057   8.483  -0.470   2.441 -0.8003 -2.1278  1.9545
  808MOL0     H 9058   8.336  -0.210   2.392 -0.1098  0.4221 -0.0924
  808MOL0     H 9059   8.473  -0.273   2.305  0.1532  0.2524 -0.4217
  808MOL0     H 9060   8.471  -0.152   2.589  1.8071 -0.1150  0.4443
  808MOL0     H 9061   8.571  -0.095   2.447  2.1014  0.2652  1.0237
  808MOL0     H 9062   8.607  -0.527   2.704 -1.1990 -1.2893  0.1210
  808MOL0     H 9063   8.846  -0.496   2.686 -0.7802 -0.4150  0.0780
  808MOL0     H 9064   9.327  -0.891   2.505  0.0151  0.0700 -2.6102
  808MOL0     H 9065   9.566  -0.801   2.510  0.0146 -0.6182 -0.1893
  808MOL0     H 9066  10.593   0.539   1.853  2.7496 -3.0419 -1.5139
  808MOL0     H 9067  10.808   0.675   1.855  2.0025  0.5710  1.9198
  808MOL0     H 9068  11.353   0.613   1.951  0.4020 -2.0239  2.6588
  808MOL0     H 9069  11.547   0.757   1.974 -0.6511 -1.2261 -0.9996
  808MOL0     H 9070  11.646   1.062   2.254 -3.6417  0.3672 -0.5050
  808MOL0     H 9071  11.590   0.897   2.252  1.9677 -1.4030 -0.6771
  808MOL0     H 9072  11.744   0.838   2.063  3.1075 -0.1269 -1.3813
  808MOL0     H 9073  11.825   0.861   2.212 -0.2688 -0.5411 -0.3761
  808MOL0     H 9074  11.964   0.958   2.070  1.7599  1.3259  1.2471
  808MOL0     H 9075  11.881   1.100   2.136 -2.5543  0.5373 -1.0645
  808MOL0     H 9076  11.765   1.148   1.939 -0.0094 -0.0201  0.8853
  808MOL0     H 9077  11.779   0.977   1.887 -3.4454  0.5285  1.5974
  808MOL0     H 9078  12.137   1.150   1.747  0.3511  0.5551 -1.2170
  808MOL0     H 9079  11.295   1.073   2.103  0.9168 -0.3421  1.8872
  808MOL0     H 9080  11.105   0.919   2.125  0.5648 -1.7973  1.3269
  809MOL0     O 9081   8.366   1.964   5.984  0.0966 -0.1117  0.2305
  809MOL0     C 9082   8.447   1.926   5.903 -0.1103  0.0881 -0.6808
  809MOL0     O 9083   8.417   1.838   5.810  0.5080  0.2643  0.4072
  809MOL0     C 9084   8.286   1.813   5.783 -0.8215 -0.2308 -0.7011
  809MOL0     C 9085   8.254   1.690   5.726 -0.6023 -0.9461 -0.1856
  809MOL0     C 9086   8.131   1.642   5.691  0.6599  0.7337  0.3899
  809MOL0     C 9087   8.015   1.731   5.702 -0.2085  0.2649  0.1346
  809MOL0     O 9088   7.879   1.699   5.677  0.4951  0.6787 -0.4320
  809MOL0     C 9089   7.852   1.555   5.677 -0.4541 -0.0004 -1.2817
  809MOL0     C 9090   7.709   1.517   5.640  0.1536  0.1415  0.5993
  809MOL0     C 9091   7.708   1.497   5.491  0.1564  0.1293 -0.1997
  809MOL0     C 9092   7.557   1.463   5.445 -0.6344 -0.6598 -0.7440
  809MOL0     C 9093   7.536   1.318   5.456  0.6790  0.2331  0.2715
  809MOL0     C 9094   7.396   1.270   5.410 -0.2331  0.2415  0.4282
  809MOL0     C 9095   7.385   1.259   5.256  0.3778  0.4506  0.9718
  809MOL0     C 9096   7.247   1.194   5.221 -0.6378 -0.4827 -0.7601
  809MOL0     N 9097   7.127   1.283   5.237  0.6733  0.9169  0.2423
  809MOL0     C 9098   6.998   1.227   5.228 -0.4343  0.8629 -0.8158
  809MOL0     C 9099   6.921   1.321   5.271 -0.0830 -0.3719 -1.0100
  809MOL0     C 9100   6.778   1.310   5.295  0.0429  0.2790 -0.7573
  809MOL0     C 9101   6.707   1.439   5.268 -0.6310 -0.3739 -0.5489
  809MOL0     C 9102   6.553   1.417   5.295 -0.6981 -0.5497 -0.3047
  809MOL0     C 9103   6.487   1.550   5.310 -0.0148  0.6301  0.2664
  809MOL0     O 9104   6.344   1.526   5.296 -0.6884 -0.8435  0.1645
  809MOL0     C 9105   6.253   1.620   5.346 -0.4516  0.7321 -0.1226
  809MOL0     C 9106   6.120   1.610   5.291  0.6389 -0.8111 -0.6879
  809MOL0     C 9107   6.033   1.715   5.309  0.8482 -0.0290 -0.2232
  809MOL0     C 9108   5.917   1.725   5.214  0.1034  0.3696 -0.2783
  809MOL0     C 9109   6.059   1.807   5.415 -0.0478  0.0260  0.0754
  809MOL0     C 9110   5.957   1.909   5.466 -0.1747 -0.2023 -0.7294
  809MOL0     O 9111   5.822   1.879   5.465 -0.0947 -0.2770 -0.2104
  809MOL0     C 9112   5.732   1.951   5.531 -0.3281  0.8895 -0.7113
  809MOL0     C 9113   5.753   1.976   5.672  0.3530 -0.6345 -0.4365
  809MOL0     C 9114   5.647   2.057   5.735 -0.3978 -0.3036 -0.6649
  809MOL0     C 9115   5.524   2.086   5.668 -0.6997 -0.3059 -0.1978
  809MOL0     O 9116   5.411   2.121   5.734 -0.5022  0.1678 -0.0424
  809MOL0     C 9117   5.355   2.032   5.838  0.3219 -1.1788  0.4627
  809MOL0     C 9118   5.233   2.092   5.885 -0.1840  0.2926  0.8098
  809MOL0     C 9119   5.184   2.017   6.013 -0.3145 -0.4196 -1.3886
  809MOL0     C 9120   5.057   2.086   6.075  0.2661 -0.1125 -0.8671
  809MOL0     C 9121   5.021   2.014   6.210  0.2396  0.2598  0.0800
  809MOL0     C 9122   4.918   2.093   6.299 -0.5824  0.4259 -0.0680
  809MOL0     C 9123   4.901   2.019   6.444  0.0834  0.1332 -0.1502
  809MOL0     C 9124   4.804   2.098   6.536  0.3383  0.3003  0.0744
  809MOL0    Cl 9125   4.904   2.216   6.631  0.1216  0.2829 -0.0091
  809MOL0     C 9126   5.518   2.076   5.535 -0.6295  0.0249  0.2125
  809MOL0     C 9127   5.625   2.009   5.463 -0.7032  0.0454 -0.3057
  809MOL0     O 9128   6.003   2.008   5.516  0.2772  0.7477 -0.0460
  809MOL0     C 9129   6.185   1.807   5.480 -0.4037  0.1229 -0.0349
  809MOL0     C 9130   6.285   1.714   5.443  0.3104 -0.1917 -0.1640
  809MOL0     N 9131   7.003   1.434   5.302 -0.3588 -0.0615  0.8603
  809MOL0     N 9132   7.124   1.407   5.278  0.2137  0.0564 -0.5895
  809MOL0     C 9133   8.037   1.852   5.756 -0.3308  0.8252 -0.3667
  809MOL0     C 9134   8.171   1.897   5.794 -0.6237 -0.2273 -0.5663
  809MOL0     C 9135   8.584   1.965   5.929 -0.0175 -0.0075 -0.3422
  809MOL0     C 9136   8.694   1.885   5.883 -0.6762 -1.2894  0.7361
  809MOL0     C 9137   8.826   1.911   5.909  0.0407  0.6834 -1.1598
  809MOL0     C 9138   8.859   2.032   5.978  0.1807  0.2501  0.4966
  809MOL0     O 9139   8.991   2.067   6.006  0.0491 -0.6056 -0.3569
  809MOL0     C 9140   9.027   2.035   6.146  0.0084 -0.0429  0.8665
  809MOL0     C 9141   9.169   2.003   6.134  0.1077  0.0616  0.7334
  809MOL0     C 9142   9.258   2.100   6.052 -0.1969  0.4126 -0.0597
  809MOL0     C 9143   9.403   2.055   6.053  0.4217  0.3630 -0.0904
  809MOL0     C 9144   9.499   2.161   6.015 -0.1371  0.4332 -0.4371
  809MOL0     C 9145   9.578   2.246   5.981 -0.1739 -0.0861  0.0099
  809MOL0     C 9146   8.754   2.102   6.034 -0.1494  0.3893 -0.2995
  809MOL0     C 9147   8.615   2.074   6.012  0.4967  0.4701  0.4628
  809MOL0     H 9148   8.344   1.634   5.702 -0.0408 -0.3789  0.5442
  809MOL0     H 9149   8.118   1.547   5.639 -1.1606  1.9254 -1.5094
  809MOL0     H 9150   7.922   1.498   5.614 -0.0433 -1.3009  0.2761
  809MOL0     H 9151   7.885   1.521   5.776 -0.0090  0.0467 -1.4106
  809MOL0     H 9152   7.702   1.416   5.683  2.2599 -0.2480  0.1323
  809MOL0     H 9153   7.638   1.594   5.672 -0.0868 -0.1810  0.8415
  809MOL0     H 9154   7.759   1.583   5.446  3.1777 -1.5823 -0.3102
  809MOL0     H 9155   7.776   1.415   5.466  1.5274  1.3749 -0.7735
  809MOL0     H 9156   7.485   1.505   5.517 -0.1632  1.2209 -1.3257
  809MOL0     H 9157   7.544   1.496   5.342 -1.2363 -2.9474 -1.4763
  809MOL0     H 9158   7.613   1.277   5.391  0.5577 -0.8180  0.7605
  809MOL0     H 9159   7.551   1.288   5.560 -1.4435  3.5756  1.7446
  809MOL0     H 9160   7.373   1.176   5.461 -1.6922 -0.3684 -1.2879
  809MOL0     H 9161   7.317   1.331   5.455 -0.6630 -0.4214  0.5864
  809MOL0     H 9162   7.397   1.358   5.212 -1.3216  1.0177  1.7023
  809MOL0     H 9163   7.462   1.188   5.225  1.0882  0.2832  2.9260
  809MOL0     H 9164   7.224   1.117   5.295 -1.3616  0.7322  0.3285
  809MOL0     H 9165   7.252   1.156   5.119  2.0425 -0.9254 -0.5443
  809MOL0     H 9166   6.967   1.130   5.193 -0.1497  0.8740 -1.1047
  809MOL0     H 9167   6.743   1.231   5.228  1.3656  0.1988 -1.3873
  809MOL0     H 9168   6.756   1.289   5.400 -0.3855  0.6616 -0.7664
  809MOL0     H 9169   6.743   1.463   5.168  0.1166  3.2068  0.4238
  809MOL0     H 9170   6.745   1.525   5.325 -0.5940  1.1101 -2.6832
  809MOL0     H 9171   6.543   1.351   5.381  0.1620 -0.7180 -0.3165
  809MOL0     H 9172   6.501   1.379   5.207 -2.0852  3.3568 -1.3793
  809MOL0     H 9173   6.519   1.604   5.221  0.6961 -1.2147 -0.6562
  809MOL0     H 9174   6.517   1.607   5.399  0.8349  0.2071  0.2581
  809MOL0     H 9175   6.088   1.532   5.222 -3.0764 -1.9200  1.9471
  809MOL0     H 9176   5.854   1.636   5.222  2.2968 -1.1104  2.0271
  809MOL0     H 9177   5.854   1.813   5.230  2.1233  2.2459 -2.0892
  809MOL0     H 9178   5.961   1.733   5.115  1.7170  0.4745  0.4185
  809MOL0     H 9179   5.841   1.935   5.719  1.1208  1.3772  0.0083
  809MOL0     H 9180   5.651   2.074   5.842  2.8841  3.4755 -1.1691
  809MOL0     H 9181   5.323   1.935   5.800  0.4152 -0.3023 -2.0807
  809MOL0     H 9182   5.424   2.032   5.923  0.0976  1.8690  0.7610
  809MOL0     H 9183   5.247   2.197   5.911 -2.4659  0.7438  0.4022
  809MOL0     H 9184   5.151   2.090   5.813  0.5919  0.1877 -0.0893
  809MOL0     H 9185   5.263   2.021   6.088 -0.0150 -1.8072 -1.6077
  809MOL0     H 9186   5.157   1.912   5.998 -3.2566 -0.6516  3.5477
  809MOL0     H 9187   5.089   2.189   6.090  2.2252 -0.4615 -2.2263
  809MOL0     H 9188   4.969   2.092   6.010 -0.7755 -0.8366  0.4403
  809MOL0     H 9189   5.115   1.995   6.264 -0.7443 -2.2515  1.0365
  809MOL0     H 9190   4.984   1.912   6.198 -2.9529  1.1615  1.2065
  809MOL0     H 9191   4.952   2.194   6.323 -1.7074  0.4799  1.5285
  809MOL0     H 9192   4.828   2.097   6.237 -0.6065 -1.2843 -0.1877
  809MOL0     H 9193   4.999   2.016   6.491  0.6663  0.3757 -1.3034
  809MOL0     H 9194   4.868   1.919   6.416 -0.3874  0.3500 -0.3784
  809MOL0     H 9195   4.750   2.037   6.610 -1.0948 -0.2815 -1.3803
  809MOL0     H 9196   4.728   2.146   6.474  0.3079  2.1647  1.4675
  809MOL0     H 9197   5.429   2.113   5.484 -0.5470 -0.7277 -0.5007
  809MOL0     H 9198   5.607   2.001   5.356 -2.6849 -1.0454  0.0487
  809MOL0     H 9199   6.215   1.888   5.546  1.4850  1.3405 -2.2350
  809MOL0     H 9200   6.384   1.732   5.483  1.0844  2.6128 -2.8926
  809MOL0     H 9201   7.961   1.929   5.759  2.1093  3.4813 -1.7880
  809MOL0     H 9202   8.181   2.002   5.817 -3.6109  0.2982 -1.3231
  809MOL0     H 9203   8.672   1.797   5.823  1.4123 -0.2106 -1.8041
  809MOL0     H 9204   8.897   1.839   5.868  1.5727 -0.5623  3.1390
  809MOL0     H 9205   9.016   2.122   6.212  1.3138  2.4053 -1.8720
  809MOL0     H 9206   8.975   1.953   6.196 -0.4953 -0.8986 -0.9698
  809MOL0     H 9207   9.172   1.902   6.094 -1.5777 -0.3194  1.4829
  809MOL0     H 9208   9.212   2.000   6.235 -0.3995 -0.0841  0.9491
  809MOL0     H 9209   9.252   2.201   6.096 -0.0021  0.3760  0.0536
  809MOL0     H 9210   9.230   2.107   5.947 -0.5027 -0.6620 -0.0617
  809MOL0     H 9211   9.408   1.968   5.987 -1.0968  1.3443 -1.5999
  809MOL0     H 9212   9.430   2.021   6.153 -2.2203  0.1313  0.6109
  809MOL0     H 9213   9.653   2.316   5.950 -0.1634  0.3707  1.0157
  809MOL0     H 9214   8.787   2.188   6.092 -1.3728  0.4449  0.3346
  809MOL0     H 9215   8.535   2.135   6.054 -1.0219 -1.8813  1.2337
  810MOL0     O 9216   2.722   0.967   8.996 -0.1945  0.1482  0.7885
  810MOL0     C 9217   2.828   0.977   8.934 -0.4676  0.3583 -0.2623
  810MOL0     O 9218   2.898   1.094   8.911 -0.2453  0.2216 -0.3393
  810MOL0     C 9219   2.855   1.221   8.941  0.1842  0.2129 -0.5025
  810MOL0     C 9220   2.944   1.310   9.008  0.4748  0.6620 -0.2582
  810MOL0     C 9221   2.890   1.436   9.044  0.7432  0.2661 -0.5465
  810MOL0     C 9222   2.761   1.478   9.003  0.4941  0.8784  0.0297
  810MOL0     O 9223   2.718   1.605   9.046 -0.3935 -0.3541 -0.0111
  810MOL0     C 9224   2.585   1.650   9.018 -0.5450  0.1368 -0.5588
  810MOL0     C 9225   2.566   1.795   9.061 -0.0358  0.0928  0.7782
  810MOL0     C 9226   2.418   1.835   9.044 -0.0014 -0.2111  0.0697
  810MOL0     C 9227   2.403   1.892   8.908  0.2147  0.3837  0.0206
  810MOL0     C 9228   2.262   1.928   8.869 -0.2549 -0.1348  0.0123
  810MOL0     C 9229   2.264   2.026   8.751  0.2674  0.6683  0.1915
  810MOL0     C 9230   2.118   2.069   8.723 -0.8976  0.1473  0.0925
  810MOL0     C 9231   2.115   2.172   8.607  0.5477  0.2464 -0.0290
  810MOL0     N 9232   1.986   2.245   8.599  0.5800  0.5486  0.0457
  810MOL0     C 9233   1.949   2.373   8.636  0.6949 -0.5051 -0.4042
  810MOL0     C 9234   1.831   2.396   8.573  0.1401 -0.3930 -0.2770
  810MOL0     C 9235   1.750   2.528   8.574  0.3312  0.1651 -0.7515
  810MOL0     C 9236   1.604   2.512   8.541 -0.3530 -0.4998  1.7305
  810MOL0     C 9237   1.528   2.420   8.636 -0.2675 -0.5780 -0.4043
  810MOL0     C 9238   1.382   2.418   8.604 -0.1528  0.9210 -0.3527
  810MOL0     O 9239   1.318   2.307   8.666  0.1050  0.2972 -0.0667
  810MOL0     C 9240   1.190   2.273   8.641 -1.1515  0.0420 -0.1481
  810MOL0     C 9241   1.148   2.144   8.684  0.2170 -1.0744  0.1890
  810MOL0     C 9242   1.021   2.097   8.644  0.3422  0.8331  0.1532
  810MOL0     C 9243   0.980   1.950   8.655 -1.1041  0.0183  0.7596
  810MOL0     C 9244   0.928   2.183   8.587 -0.4468  0.3047  0.0900
  810MOL0     C 9245   0.793   2.140   8.554 -0.4284  0.1808 -0.4937
  810MOL0     O 9246   0.739   2.180   8.439 -0.2132  0.4665 -0.0487
  810MOL0     C 9247   0.618   2.122   8.399  0.5109 -0.4752 -0.9869
  810MOL0     C 9248   0.504   2.203   8.380  0.9982 -0.3748 -0.4774
  810MOL0     C 9249   0.381   2.154   8.336  0.2294  1.0878  0.3922
  810MOL0     C 9250   0.357   2.016   8.328  0.7769 -0.6915 -0.3679
  810MOL0     O 9251   0.242   1.954   8.289  0.2213 -0.0785 -0.3691
  810MOL0     C 9252   0.139   2.046   8.235  0.5285 -0.0312 -0.9682
  810MOL0     C 9253   0.027   1.956   8.179 -0.1939  0.2851  0.1754
  810MOL0     C 9254  -0.056   1.876   8.289 -0.4828 -0.7577  0.3337
  810MOL0     C 9255  -0.155   1.782   8.228  0.3787  0.1495 -0.9440
  810MOL0     C 9256  -0.277   1.757   8.324 -0.3142  0.4406 -0.2732
  810MOL0     C 9257  -0.236   1.705   8.459 -0.3937 -0.4184 -0.3019
  810MOL0     C 9258  -0.342   1.643   8.550 -0.9841  0.2387 -0.1542
  810MOL0     C 9259  -0.438   1.755   8.597 -0.0552  0.3029 -0.9021
  810MOL0    Cl 9260  -0.346   1.891   8.671  0.2472 -0.0465  0.8869
  810MOL0     C 9261   0.474   1.937   8.334 -0.0871  0.1434  0.0004
  810MOL0     C 9262   0.595   1.983   8.373 -0.2819  0.6476 -0.4566
  810MOL0     O 9263   0.736   2.075   8.642 -0.3803 -0.1806 -0.4488
  810MOL0     C 9264   0.970   2.307   8.550  0.3863  0.4421  1.0183
  810MOL0     C 9265   1.098   2.354   8.566 -0.0833 -0.3072  0.1257
  810MOL0     N 9266   1.791   2.284   8.512 -0.1431 -0.3578 -0.7847
  810MOL0     N 9267   1.885   2.193   8.525 -0.2597  0.3712 -0.0542
  810MOL0     C 9268   2.678   1.387   8.937 -0.0968  0.0265  0.1695
  810MOL0     C 9269   2.726   1.265   8.906 -0.4819  0.2465 -0.2341
  810MOL0     C 9270   2.895   0.858   8.887 -0.3415 -0.2176  0.7253
  810MOL0     C 9271   3.012   0.859   8.810  0.2633  0.0692  0.4974
  810MOL0     C 9272   3.068   0.736   8.769  0.9533 -0.7338 -0.0552
  810MOL0     C 9273   3.014   0.615   8.808 -0.1969  0.8942 -0.1994
  810MOL0     O 9274   3.076   0.503   8.753  0.5680 -0.7782  0.2507
  810MOL0     C 9275   3.017   0.376   8.747  0.0894 -0.1432 -0.0070
  810MOL0     C 9276   3.109   0.256   8.738 -0.4870  0.6877 -0.1922
  810MOL0     C 9277   3.196   0.249   8.612  0.5828 -0.1818  0.6106
  810MOL0     C 9278   3.264   0.113   8.583  0.3144  0.4945  0.5804
  810MOL0     C 9279   3.371   0.086   8.687 -0.4124 -0.1647  0.3338
  810MOL0     C 9280   3.472   0.076   8.750  0.6093 -0.7682 -0.3580
  810MOL0     C 9281   2.892   0.619   8.872 -0.2292 -0.1642 -0.3128
  810MOL0     C 9282   2.840   0.734   8.915  0.2615 -0.3881  1.4232
  810MOL0     H 9283   3.045   1.279   9.028  1.2468  2.4031 -1.2111
  810MOL0     H 9284   2.942   1.503   9.111 -2.2378  0.1574  2.1469
  810MOL0     H 9285   2.570   1.647   8.909 -1.2179  1.0351 -0.4984
  810MOL0     H 9286   2.511   1.591   9.073  1.1104 -0.1007  1.5398
  810MOL0     H 9287   2.591   1.800   9.167  1.7472 -1.7750  0.5108
  810MOL0     H 9288   2.641   1.859   9.013  0.3166 -0.0447  1.1439
  810MOL0     H 9289   2.346   1.758   9.071 -2.5892  0.8214 -3.1661
  810MOL0     H 9290   2.398   1.919   9.112 -0.3875  0.3580 -0.7382
  810MOL0     H 9291   2.459   1.985   8.918 -3.2522  2.6349  0.4215
  810MOL0     H 9292   2.434   1.825   8.827  1.6654  0.2595  0.6403
  810MOL0     H 9293   2.211   1.842   8.823 -0.0268  0.8800 -2.2807
  810MOL0     H 9294   2.212   1.971   8.956 -0.0893  0.5769 -0.2413
  810MOL0     H 9295   2.333   2.110   8.763 -0.3427  1.3070 -0.6200
  810MOL0     H 9296   2.299   1.979   8.658  0.8159 -0.1480  0.7983
  810MOL0     H 9297   2.061   1.982   8.689 -0.6775 -0.4784  1.2807
  810MOL0     H 9298   2.080   2.122   8.811  2.2405 -0.2893  1.8442
  810MOL0     H 9299   2.116   2.107   8.518 -1.6595 -1.8906  1.3847
  810MOL0     H 9300   2.199   2.241   8.594  0.3754  0.1479 -2.0405
  810MOL0     H 9301   2.004   2.439   8.703  0.3589 -0.7774  0.1487
  810MOL0     H 9302   1.757   2.574   8.673  2.8388 -1.8159  0.1004
  810MOL0     H 9303   1.789   2.590   8.493  1.0751  0.6160 -0.0589
  810MOL0     H 9304   1.586   2.477   8.439 -0.6255 -1.2498  2.0291
  810MOL0     H 9305   1.569   2.616   8.549 -2.3564 -0.9315 -0.2792
  810MOL0     H 9306   1.538   2.449   8.741 -0.9249 -1.8247  0.0166
  810MOL0     H 9307   1.564   2.322   8.606 -0.9010 -0.1627 -2.6650
  810MOL0     H 9308   1.365   2.409   8.496  1.1604  0.8183 -0.5709
  810MOL0     H 9309   1.339   2.512   8.641 -3.1015 -0.2180 -0.5807
  810MOL0     H 9310   1.228   2.088   8.732  0.8493  0.6445  1.2415
  810MOL0     H 9311   0.947   1.906   8.560  0.2172 -0.5826  0.5697
  810MOL0     H 9312   1.059   1.883   8.690  0.6907  1.3425 -0.6050
  810MOL0     H 9313   0.907   1.932   8.735 -0.5910  0.2248  1.2751
  810MOL0     H 9314   0.519   2.309   8.398 -1.6727 -0.2347  1.5756
  810MOL0     H 9315   0.305   2.227   8.310  1.8251  2.2078 -1.4415
  810MOL0     H 9316   0.088   2.106   8.312 -2.4009  1.8507 -4.1008
  810MOL0     H 9317   0.188   2.112   8.163 -3.1325  1.5970 -2.2235
  810MOL0     H 9318  -0.036   2.030   8.129  1.3092  3.4371  2.6116
  810MOL0     H 9319   0.070   1.896   8.099  0.9624 -0.0551  1.0201
  810MOL0     H 9320  -0.117   1.949   8.344  0.5797 -0.8399  1.6741
  810MOL0     H 9321   0.016   1.837   8.362  1.6207 -0.7229 -1.5959
  810MOL0     H 9322  -0.198   1.819   8.134 -2.2455 -1.2191 -0.3800
  810MOL0     H 9323  -0.114   1.681   8.218  0.8329  0.0392  1.3532
  810MOL0     H 9324  -0.345   1.693   8.267 -2.5354  4.2231 -2.2815
  810MOL0     H 9325  -0.332   1.849   8.346 -0.4928  0.5590 -1.1957
  810MOL0     H 9326  -0.173   1.620   8.430 -0.4418  0.0280 -1.8036
  810MOL0     H 9327  -0.178   1.788   8.500 -2.0119  0.7824 -0.3523
  810MOL0     H 9328  -0.286   1.588   8.626  1.4292  1.8978 -0.6157
  810MOL0     H 9329  -0.401   1.570   8.494  1.4722 -1.8320 -0.2284
  810MOL0     H 9330  -0.506   1.713   8.672 -1.8039 -0.6381 -2.9148
  810MOL0     H 9331  -0.503   1.790   8.517 -3.0606  0.2688  1.3530
  810MOL0     H 9332   0.465   1.829   8.322  1.3500  0.0305 -0.3085
  810MOL0     H 9333   0.674   1.909   8.381 -0.0261  0.9817  0.2478
  810MOL0     H 9334   0.900   2.372   8.499 -0.5478 -1.9171 -0.8655
  810MOL0     H 9335   1.121   2.446   8.513 -1.1979  0.2633  0.6006
  810MOL0     H 9336   2.579   1.420   8.908  0.4709  1.1585 -0.5859
  810MOL0     H 9337   2.669   1.198   8.842 -1.1575  1.6794 -1.1833
  810MOL0     H 9338   3.073   0.937   8.766  2.7966 -1.9157  0.2241
  810MOL0     H 9339   3.161   0.742   8.714 -0.3043 -1.5068 -2.4030
  810MOL0     H 9340   2.969   0.362   8.844  0.6046 -0.2972  0.2268
  810MOL0     H 9341   2.946   0.377   8.663  2.2305 -3.9115 -2.1476
  810MOL0     H 9342   3.048   0.166   8.748  1.6299 -0.7341  0.7308
  810MOL0     H 9343   3.175   0.253   8.826 -0.1615 -1.2976 -0.4512
  810MOL0     H 9344   3.275   0.324   8.615  2.2213 -1.7937 -0.1899
  810MOL0     H 9345   3.133   0.276   8.527 -1.7583 -2.0332  1.6569
  810MOL0     H 9346   3.298   0.110   8.479 -2.3632  0.4800 -0.3677
  810MOL0     H 9347   3.183   0.040   8.574  2.2104 -1.5702 -0.9081
  810MOL0     H 9348   3.574   0.086   8.780  0.9341 -0.2107 -1.5704
  810MOL0     H 9349   2.826   0.533   8.883  0.9490 -1.3853 -2.1534
  810MOL0     H 9350   2.745   0.728   8.967 -0.9802  3.3476 -0.0501
  811MOL0     O 9351   6.470   4.568  11.077 -0.3047  0.1121 -0.2478
  811MOL0     C 9352   6.516   4.645  11.158  0.3974 -0.0391  0.3478
  811MOL0     O 9353   6.442   4.735  11.229  0.6366  0.4831  0.8452
  811MOL0     C 9354   6.305   4.742  11.216  0.4838 -0.8253  0.6375
  811MOL0     C 9355   6.219   4.658  11.281 -0.7274 -0.3942 -0.0576
  811MOL0     C 9356   6.083   4.675  11.277  0.3042 -0.3565  0.1656
  811MOL0     C 9357   6.023   4.787  11.211  0.0825  0.6433 -0.4942
  811MOL0     O 9358   5.893   4.796  11.220  0.4550  0.4820 -0.2111
  811MOL0     C 9359   5.834   4.858  11.106  0.5511 -0.6510  0.5123
  811MOL0     C 9360   5.687   4.831  11.105 -0.2256  0.4371 -0.3645
  811MOL0     C 9361   5.616   4.955  11.051  0.2535 -0.1027 -0.4301
  811MOL0     C 9362   5.470   4.926  11.030  1.0869 -0.6562 -0.6880
  811MOL0     C 9363   5.373   5.042  10.980 -0.2426  0.7581 -0.0955
  811MOL0     C 9364   5.422   5.108  10.856  0.6889  0.0918 -0.8441
  811MOL0     C 9365   5.310   5.206  10.807 -0.1125 -0.1339  0.0657
  811MOL0     C 9366   5.201   5.128  10.728  0.2598 -0.0759 -0.2406
  811MOL0     N 9367   5.138   5.208  10.624  0.1463 -0.0562  0.1142
  811MOL0     C 9368   5.008   5.273  10.622 -0.7045  0.1356 -0.6403
  811MOL0     C 9369   4.996   5.320  10.497  0.6082  0.2797  0.2263
  811MOL0     C 9370   4.903   5.442  10.466 -1.0938  1.0240 -0.3228
  811MOL0     C 9371   4.766   5.405  10.520  0.3875  0.1041 -0.2014
  811MOL0     C 9372   4.677   5.323  10.433 -0.3164 -0.2694  0.0500
  811MOL0     C 9373   4.539   5.290  10.493  0.3966  0.4050  0.5526
  811MOL0     O 9374   4.463   5.408  10.511 -0.4048 -0.3589 -0.6005
  811MOL0     C 9375   4.336   5.401  10.556  0.6624  0.3101  0.7191
  811MOL0     C 9376   4.237   5.394  10.459  0.8151  0.2197  0.0224
  811MOL0     C 9377   4.098   5.374  10.480 -0.2663  0.4627  0.1111
  811MOL0     C 9378   4.014   5.376  10.364  0.1069  0.4791  0.2988
  811MOL0     C 9379   4.053   5.363  10.616 -0.2607  0.0359 -0.1989
  811MOL0     C 9380   3.914   5.363  10.657 -0.3459  0.0784 -0.6794
  811MOL0     O 9381   3.807   5.361  10.571  0.1405 -0.4866  0.0599
  811MOL0     C 9382   3.681   5.379  10.620 -0.8993 -0.3920  0.2623
  811MOL0     C 9383   3.628   5.284  10.707  0.0966 -0.0115  0.2190
  811MOL0     C 9384   3.495   5.302  10.753  0.2684 -0.2627  0.0304
  811MOL0     C 9385   3.414   5.414  10.722 -0.3630  0.2975  0.7805
  811MOL0     O 9386   3.276   5.425  10.765 -0.3031  0.1296  0.0426
  811MOL0     C 9387   3.240   5.332  10.864 -0.0170 -0.1520  0.1246
  811MOL0     C 9388   3.104   5.344  10.921  0.0573  0.4282 -0.3681
  811MOL0     C 9389   3.070   5.230  11.018  0.3940 -0.2420  0.4679
  811MOL0     C 9390   2.919   5.229  11.056 -0.4083  0.3088 -0.5565
  811MOL0     C 9391   2.875   5.126  11.170  0.1306  0.1460  0.9848
  811MOL0     C 9392   2.725   5.146  11.205  0.1964 -0.6794 -0.3111
  811MOL0     C 9393   2.697   5.263  11.301 -0.2835  0.2964  0.0155
  811MOL0     C 9394   2.559   5.269  11.368  0.5090 -0.3438  0.6530
  811MOL0    Cl 9395   2.445   5.336  11.241 -0.1774  0.4269 -0.4343
  811MOL0     C 9396   3.468   5.501  10.635 -0.3770  0.0242  0.8167
  811MOL0     C 9397   3.600   5.493  10.590 -0.1111 -0.5009 -0.5986
  811MOL0     O 9398   3.903   5.378  10.778 -0.9215  0.3334 -0.5398
  811MOL0     C 9399   4.162   5.366  10.722 -0.1209  1.0157 -0.1316
  811MOL0     C 9400   4.299   5.376  10.689  0.4635 -0.4909 -0.2394
  811MOL0     N 9401   5.105   5.276  10.422  0.3124 -0.2913 -0.3594
  811MOL0     N 9402   5.183   5.206  10.499  0.5829  0.5878 -1.3572
  811MOL0     C 9403   6.112   4.877  11.147  0.6830 -0.5424 -0.3906
  811MOL0     C 9404   6.250   4.852  11.143  0.2840  0.5492  0.1956
  811MOL0     C 9405   6.664   4.656  11.165 -0.6478  0.3921 -0.0758
  811MOL0     C 9406   6.751   4.589  11.080 -0.0942  0.9269  0.3907
  811MOL0     C 9407   6.884   4.569  11.112  0.6860 -0.4717  0.4396
  811MOL0     C 9408   6.943   4.630  11.220 -0.7193  0.8686  0.3020
  811MOL0     O 9409   7.076   4.633  11.260  0.3652  0.0620  0.2243
  811MOL0     C 9410   7.164   4.528  11.201 -1.2412  0.1267 -0.4932
  811MOL0     C 9411   7.291   4.484  11.292  0.3682  0.0036 -0.2188
  811MOL0     C 9412   7.227   4.442  11.431  0.5456 -0.5256  0.2824
  811MOL0     C 9413   7.330   4.412  11.538 -0.4972  0.0308 -0.3568
  811MOL0     C 9414   7.264   4.410  11.676  0.5695 -0.3700  0.2856
  811MOL0     C 9415   7.218   4.417  11.793 -1.2746 -0.6629 -0.3072
  811MOL0     C 9416   6.856   4.704  11.294 -1.0362  0.6119  0.1233
  811MOL0     C 9417   6.719   4.724  11.275  0.7812  0.6401 -0.2942
  811MOL0     H 9418   6.269   4.574  11.328  1.1380  1.2472  1.0769
  811MOL0     H 9419   6.021   4.607  11.334 -1.2270  1.4560  0.7840
  811MOL0     H 9420   5.853   4.962  11.137  3.2921 -0.0114 -2.6945
  811MOL0     H 9421   5.883   4.843  11.009 -0.6056  0.7960 -0.3434
  811MOL0     H 9422   5.660   4.743  11.045  0.1928 -0.1971  0.3567
  811MOL0     H 9423   5.649   4.825  11.207  0.8935  1.5663  0.1466
  811MOL0     H 9424   5.626   5.047  11.109 -0.8818 -0.5384  0.5067
  811MOL0     H 9425   5.659   4.981  10.954  2.2374 -0.0694  0.4158
  811MOL0     H 9426   5.463   4.859  10.944  1.9547 -0.0714 -1.2401
  811MOL0     H 9427   5.428   4.875  11.117 -0.8800 -0.1355 -1.2840
  811MOL0     H 9428   5.275   4.996  10.963 -0.6567  0.7532  2.0047
  811MOL0     H 9429   5.357   5.113  11.062  1.0984  1.0660 -0.0757
  811MOL0     H 9430   5.505   5.172  10.887  1.4918 -0.5538 -1.6122
  811MOL0     H 9431   5.458   5.033  10.784 -1.1914 -1.1073 -0.5997
  811MOL0     H 9432   5.272   5.271  10.886 -2.2968 -0.2328 -0.8171
  811MOL0     H 9433   5.361   5.279  10.743  0.8173  0.2754  1.2297
  811MOL0     H 9434   5.122   5.092  10.795 -1.7188  0.7467 -2.0256
  811MOL0     H 9435   5.249   5.041  10.683  1.8124  0.1603  0.8740
  811MOL0     H 9436   4.956   5.301  10.713 -0.7735 -1.2492 -0.2420
  811MOL0     H 9437   4.952   5.523  10.520 -0.7784 -0.4812  1.8070
  811MOL0     H 9438   4.898   5.469  10.361  1.4138  1.8381 -0.2944
  811MOL0     H 9439   4.710   5.499  10.530 -1.2488 -0.6856 -1.4276
  811MOL0     H 9440   4.764   5.355  10.617 -0.9865 -1.0672 -0.7884
  811MOL0     H 9441   4.731   5.227  10.424  1.2680  0.5423  0.4451
  811MOL0     H 9442   4.681   5.377  10.339  1.9494  1.4038  1.0092
  811MOL0     H 9443   4.547   5.229  10.583 -2.0436  0.2494  0.7115
  811MOL0     H 9444   4.478   5.242  10.416 -1.1611  0.0796  1.9373
  811MOL0     H 9445   4.284   5.397  10.361  0.1284 -0.7148 -0.3422
  811MOL0     H 9446   3.946   5.290  10.364 -0.9738  0.8658 -5.5951
  811MOL0     H 9447   3.962   5.471  10.349 -1.1572 -0.4536 -1.6530
  811MOL0     H 9448   4.077   5.359  10.276 -3.3599 -0.8796 -2.1565
  811MOL0     H 9449   3.682   5.193  10.731  1.3289 -0.2671 -3.0957
  811MOL0     H 9450   3.461   5.220  10.815 -1.4527  0.2636 -0.1424
  811MOL0     H 9451   3.227   5.237  10.812 -0.6366  0.6486 -1.2471
  811MOL0     H 9452   3.315   5.327  10.944 -1.7115  1.0768  1.8741
  811MOL0     H 9453   3.097   5.442  10.970  1.1304  1.4436 -2.1575
  811MOL0     H 9454   3.034   5.347  10.837  1.0842  0.9050 -1.2261
  811MOL0     H 9455   3.133   5.232  11.107  0.1325  0.4930  0.6368
  811MOL0     H 9456   3.088   5.132  10.971  0.3342  0.3389 -0.8114
  811MOL0     H 9457   2.892   5.327  11.097 -0.4866 -0.4608  1.3778
  811MOL0     H 9458   2.865   5.208  10.963  0.3659 -3.5974 -0.3014
  811MOL0     H 9459   2.928   5.138  11.265  0.3696  0.9551  0.7587
  811MOL0     H 9460   2.885   5.025  11.130 -0.7978 -0.5672  2.4606
  811MOL0     H 9461   2.667   5.168  11.115 -2.5550  1.6031  1.8674
  811MOL0     H 9462   2.684   5.056  11.252 -4.6165  1.6910  0.6317
  811MOL0     H 9463   2.716   5.364  11.264 -0.7376  1.6401  3.1142
  811MOL0     H 9464   2.779   5.254  11.374 -0.0304  0.0767 -0.2875
  811MOL0     H 9465   2.568   5.341  11.450  3.3929 -0.9770  1.0174
  811MOL0     H 9466   2.526   5.173  11.408  1.5178 -1.9335 -2.0762
  811MOL0     H 9467   3.411   5.589  10.609  2.6123  1.8241 -0.2308
  811MOL0     H 9468   3.636   5.589  10.555 -0.3073  0.9266  2.7428
  811MOL0     H 9469   4.138   5.366  10.828  1.2677 -2.7942  0.3610
  811MOL0     H 9470   4.375   5.388  10.765  0.5544 -0.4274 -0.3398
  811MOL0     H 9471   6.076   4.971  11.106  1.0196 -0.7459 -1.1804
  811MOL0     H 9472   6.321   4.920  11.096  0.8775  1.4783  2.2711
  811MOL0     H 9473   6.707   4.527  11.002  0.3429  0.0236  0.8426
  811MOL0     H 9474   6.942   4.498  11.054 -2.6014 -2.6246 -0.5090
  811MOL0     H 9475   7.102   4.438  11.191  0.9774 -1.4158 -1.2219
  811MOL0     H 9476   7.199   4.540  11.098 -0.5079 -3.1333 -0.7225
  811MOL0     H 9477   7.367   4.561  11.307  0.3954  0.0071 -0.3755
  811MOL0     H 9478   7.345   4.401  11.247 -0.4876 -0.3413 -0.6290
  811MOL0     H 9479   7.167   4.352  11.411  2.8438 -1.8443 -1.0620
  811MOL0     H 9480   7.157   4.521  11.460  0.6705  1.3966 -3.9437
  811MOL0     H 9481   7.394   4.500  11.545 -1.4939  0.6310  2.8542
  811MOL0     H 9482   7.390   4.324  11.513 -1.0520  0.1715 -2.3095
  811MOL0     H 9483   7.180   4.427  11.892 -0.3458  1.6043 -0.1215
  811MOL0     H 9484   6.903   4.748  11.381 -1.2316 -2.1387  1.7310
  811MOL0     H 9485   6.660   4.781  11.346  3.2252  4.6820 -1.2508
  812MOL0     O 9486   5.406   0.862   3.273 -0.1098 -0.0835 -0.3530
  812MOL0     C 9487   5.420   0.747   3.236 -0.1034  0.3440  0.8991
  812MOL0     O 9488   5.335   0.681   3.144  0.5702  0.4802 -0.6789
  812MOL0     C 9489   5.224   0.750   3.105 -0.3237  1.5338 -0.6106
  812MOL0     C 9490   5.233   0.870   3.042  0.1631 -0.1248 -0.1035
  812MOL0     C 9491   5.118   0.944   3.005  1.0155  0.4115  0.0227
  812MOL0     C 9492   4.988   0.886   3.037  0.2771  0.0767 -0.0243
  812MOL0     O 9493   4.873   0.946   3.006  0.9546  0.0324 -0.7085
  812MOL0     C 9494   4.877   1.059   2.921  0.9583  0.4743  0.8437
  812MOL0     C 9495   4.734   1.094   2.887  0.2700  0.6255 -0.4019
  812MOL0     C 9496   4.725   1.161   2.742 -0.0240 -0.4635 -0.0899
  812MOL0     C 9497   4.584   1.242   2.729 -0.0369  0.3163  0.2274
  812MOL0     C 9498   4.480   1.161   2.652 -0.2303  0.4570  0.4445
  812MOL0     C 9499   4.356   1.247   2.633 -0.0811  0.0335  0.0265
  812MOL0     C 9500   4.294   1.301   2.761  0.7911 -0.2036  0.0769
  812MOL0     C 9501   4.274   1.198   2.867 -0.2561  0.5719 -1.0113
  812MOL0     N 9502   4.201   1.075   2.830  0.3284 -0.0592  0.1985
  812MOL0     C 9503   4.104   1.061   2.723  0.4861 -0.9120 -0.4004
  812MOL0     C 9504   4.086   0.923   2.701 -1.5475 -1.0821 -0.7748
  812MOL0     C 9505   3.982   0.873   2.603 -0.0580  0.3860 -0.0251
  812MOL0     C 9506   3.985   0.716   2.598  0.0058 -0.6995 -0.5794
  812MOL0     C 9507   3.882   0.651   2.504  0.0541 -0.5230 -0.0580
  812MOL0     C 9508   3.740   0.679   2.559 -0.1033  1.3435  0.2607
  812MOL0     O 9509   3.650   0.584   2.491 -0.5945  0.0254  0.8194
  812MOL0     C 9510   3.518   0.593   2.521 -0.5231 -0.1028  0.1926
  812MOL0     C 9511   3.429   0.505   2.457  0.2628 -0.2434  0.1178
  812MOL0     C 9512   3.288   0.504   2.477 -0.1023 -0.5987  0.0281
  812MOL0     C 9513   3.209   0.403   2.397  0.1105  0.6499  0.2892
  812MOL0     C 9514   3.229   0.603   2.564 -0.6208 -0.5230  0.2072
  812MOL0     C 9515   3.081   0.625   2.571 -0.8203  0.1402 -0.4520
  812MOL0     O 9516   3.015   0.538   2.650 -0.3396  0.1492  0.2486
  812MOL0     C 9517   2.879   0.560   2.658  0.1687  1.1101 -0.2947
  812MOL0     C 9518   2.822   0.658   2.740 -0.1327  0.5748  0.5267
  812MOL0     C 9519   2.697   0.711   2.719 -0.3450  0.3966  0.0892
  812MOL0     C 9520   2.619   0.637   2.627  0.1032 -0.3250 -1.0492
  812MOL0     O 9521   2.489   0.661   2.605 -0.1537 -0.1452  0.8762
  812MOL0     C 9522   2.406   0.745   2.685  0.4788  0.4271 -0.7918
  812MOL0     C 9523   2.265   0.753   2.631 -0.5917 -0.1513 -0.2159
  812MOL0     C 9524   2.175   0.866   2.684  0.0052  0.5892 -0.2371
  812MOL0     C 9525   2.032   0.863   2.628  0.2050  0.5429  0.8222
  812MOL0     C 9526   1.944   0.943   2.723 -0.5028  0.0376  0.1048
  812MOL0     C 9527   1.964   1.096   2.739  0.3766 -0.9068  0.0963
  812MOL0     C 9528   1.902   1.158   2.608 -0.9772  0.1231  0.1402
  812MOL0     C 9529   1.896   1.310   2.608 -0.2955  0.0055  0.3504
  812MOL0    Cl 9530   2.060   1.379   2.622  0.3103 -0.3230 -0.0250
  812MOL0     C 9531   2.672   0.529   2.556  0.6370  1.1568  0.4153
  812MOL0     C 9532   2.802   0.491   2.564  0.5336  0.0112  0.7269
  812MOL0     O 9533   3.035   0.707   2.500 -0.2580  0.2875  0.0399
  812MOL0     C 9534   3.312   0.693   2.631 -0.0585 -1.0984  0.7220
  812MOL0     C 9535   3.455   0.682   2.612 -0.2343  0.1020 -0.1231
  812MOL0     N 9536   4.171   0.856   2.793  0.1723  0.3012 -0.1328
  812MOL0     N 9537   4.248   0.945   2.857 -0.3215 -0.1299  0.1221
  812MOL0     C 9538   4.982   0.761   3.089 -0.5338  0.0780 -0.3283
  812MOL0     C 9539   5.100   0.696   3.117  0.0388 -1.2385  0.0029
  812MOL0     C 9540   5.535   0.669   3.279 -1.0991  0.3809 -0.2529
  812MOL0     C 9541   5.559   0.532   3.248 -0.0837 -0.3919  0.0785
  812MOL0     C 9542   5.652   0.455   3.308  0.4051 -0.4637 -0.4977
  812MOL0     C 9543   5.744   0.504   3.389  1.3113 -0.6449 -0.9704
  812MOL0     O 9544   5.828   0.409   3.444 -0.5744  1.0901 -0.0625
  812MOL0     C 9545   5.945   0.448   3.514 -0.7323 -0.8553  0.5336
  812MOL0     C 9546   6.050   0.335   3.498  0.3154  0.6412  0.1201
  812MOL0     C 9547   6.186   0.367   3.574 -0.7339 -0.9460 -0.4961
  812MOL0     C 9548   6.283   0.250   3.574  0.6731 -0.5082 -0.4418
  812MOL0     C 9549   6.324   0.233   3.429  0.5603 -0.6084 -0.5653
  812MOL0     C 9550   6.350   0.221   3.310  0.1405  0.2502  0.5718
  812MOL0     C 9551   5.742   0.644   3.422  0.0577  1.2037  0.7988
  812MOL0     C 9552   5.633   0.716   3.368  0.6867 -0.1589 -0.7932
  812MOL0     H 9553   5.333   0.907   3.022  1.4506 -2.6843  1.1045
  812MOL0     H 9554   5.126   1.031   2.942 -0.9004 -0.2018 -1.1318
  812MOL0     H 9555   4.939   1.139   2.962  1.7885  0.0131  0.5058
  812MOL0     H 9556   4.928   1.036   2.827 -0.1422  1.3761  0.0064
  812MOL0     H 9557   4.668   1.007   2.896  0.4970  0.5963  1.4886
  812MOL0     H 9558   4.706   1.177   2.953  1.3363  0.9592 -0.3523
  812MOL0     H 9559   4.804   1.237   2.736 -0.2957 -0.1357  0.4155
  812MOL0     H 9560   4.726   1.087   2.662 -0.3017 -0.3605 -0.1899
  812MOL0     H 9561   4.541   1.260   2.828 -2.9866 -0.7731 -0.7439
  812MOL0     H 9562   4.600   1.339   2.681 -0.3588  1.1386  1.7120
  812MOL0     H 9563   4.505   1.130   2.550 -1.2771 -1.1007  0.6200
  812MOL0     H 9564   4.452   1.066   2.700  3.3158 -0.8203  0.2787
  812MOL0     H 9565   4.376   1.331   2.566 -2.3666  2.8189  2.5126
  812MOL0     H 9566   4.277   1.183   2.593  0.0644 -1.9558  2.6204
  812MOL0     H 9567   4.347   1.386   2.805 -0.8844  0.4037  1.0159
  812MOL0     H 9568   4.198   1.343   2.727  0.2652 -1.3833  0.0587
  812MOL0     H 9569   4.222   1.246   2.950  0.1393 -0.8004  0.0616
  812MOL0     H 9570   4.369   1.156   2.902 -2.1403 -3.1914  0.1569
  812MOL0     H 9571   4.053   1.147   2.682  2.7121  0.3546 -0.6679
  812MOL0     H 9572   3.884   0.903   2.642 -0.2675 -1.8940  1.4005
  812MOL0     H 9573   4.005   0.919   2.506  1.0879  0.7803  0.4247
  812MOL0     H 9574   3.973   0.679   2.700 -2.1876 -0.8957 -0.8589
  812MOL0     H 9575   4.082   0.676   2.568  0.3487 -0.8502  0.6872
  812MOL0     H 9576   3.892   0.542   2.498  2.6491 -0.3739  0.5464
  812MOL0     H 9577   3.889   0.697   2.405 -0.4317  2.7802  1.3095
  812MOL0     H 9578   3.704   0.780   2.540 -1.2524  0.4065 -3.3653
  812MOL0     H 9579   3.733   0.661   2.667 -1.6383 -0.5510 -0.0857
  812MOL0     H 9580   3.474   0.447   2.376  1.5874 -0.6862  1.1514
  812MOL0     H 9581   3.109   0.435   2.369 -0.2564 -2.3693 -2.4917
  812MOL0     H 9582   3.264   0.381   2.304  1.8599 -1.3402  1.6976
  812MOL0     H 9583   3.195   0.304   2.441 -0.8263 -0.1410 -1.6541
  812MOL0     H 9584   2.899   0.714   2.792 -0.4286  0.6393  0.9049
  812MOL0     H 9585   2.656   0.796   2.772 -2.9361 -0.6517 -0.0885
  812MOL0     H 9586   2.414   0.728   2.792  0.7487 -1.7428 -1.1253
  812MOL0     H 9587   2.438   0.848   2.665 -1.8987  1.1536 -1.3106
  812MOL0     H 9588   2.272   0.755   2.522 -3.9724  1.3714 -0.5299
  812MOL0     H 9589   2.208   0.664   2.658  1.1611 -1.5959 -1.0757
  812MOL0     H 9590   2.219   0.964   2.668  1.2605 -0.1127 -1.2284
  812MOL0     H 9591   2.175   0.858   2.794  0.0868  4.6742  0.2223
  812MOL0     H 9592   2.028   0.915   2.532  1.4217 -0.9552 -0.0754
  812MOL0     H 9593   1.991   0.767   2.598  1.2075  1.3207 -3.8676
  812MOL0     H 9594   1.968   0.911   2.825  1.4351  2.7430  0.6185
  812MOL0     H 9595   1.837   0.928   2.709 -1.0481  2.1750  1.4742
  812MOL0     H 9596   1.905   1.136   2.822  0.8210  0.5103 -0.2563
  812MOL0     H 9597   2.070   1.118   2.754  0.4961 -1.5938  0.3070
  812MOL0     H 9598   1.808   1.105   2.595  0.7177 -2.8188 -1.2207
  812MOL0     H 9599   1.963   1.129   2.522  1.4119  2.7245  0.7880
  812MOL0     H 9600   1.839   1.340   2.696  0.6544  1.1109  0.5982
  812MOL0     H 9601   1.850   1.338   2.513  1.2930 -1.5455 -0.9537
  812MOL0     H 9602   2.603   0.473   2.493  0.2315 -1.3782  2.9363
  812MOL0     H 9603   2.838   0.409   2.502  0.5393 -1.1707  2.2227
  812MOL0     H 9604   3.272   0.767   2.699 -2.2872 -0.3340 -1.2608
  812MOL0     H 9605   3.518   0.749   2.670 -0.6976 -0.2192  0.7790
  812MOL0     H 9606   4.886   0.711   3.100 -0.7700  0.6834  0.4468
  812MOL0     H 9607   5.091   0.594   3.155 -2.9461 -0.0239  3.0101
  812MOL0     H 9608   5.484   0.495   3.178  0.0544  0.4612 -0.5296
  812MOL0     H 9609   5.660   0.352   3.277  0.1673 -0.9295  0.9093
  812MOL0     H 9610   5.985   0.540   3.472 -0.4712 -1.4634 -0.5863
  812MOL0     H 9611   5.933   0.460   3.623 -1.1792  3.1025  0.1823
  812MOL0     H 9612   6.059   0.319   3.390  0.6754  0.6105  0.1552
  812MOL0     H 9613   6.015   0.245   3.549 -2.9280  2.1246  0.8355
  812MOL0     H 9614   6.169   0.396   3.678  2.7519  0.5024 -0.1952
  812MOL0     H 9615   6.238   0.448   3.521 -0.1006  0.0917  1.5987
  812MOL0     H 9616   6.242   0.155   3.610  0.3593  0.1270  0.9644
  812MOL0     H 9617   6.363   0.284   3.640  0.6360  0.3948 -0.8581
  812MOL0     H 9618   6.361   0.215   3.204 -0.6849  3.4946  0.1718
  812MOL0     H 9619   5.822   0.694   3.476  1.0638 -1.8982  2.4112
  812MOL0     H 9620   5.637   0.821   3.395  2.1706  0.1130 -1.9469
  813MOL0     O 9621   3.908   4.454   5.663 -0.3082  0.3111 -0.1397
  813MOL0     C 9622   3.987   4.361   5.654 -0.0203 -0.7804  0.2451
  813MOL0     O 9623   3.960   4.234   5.626 -0.6908 -0.2877  0.9063
  813MOL0     C 9624   3.831   4.188   5.630 -0.6637 -0.2200 -0.3944
  813MOL0     C 9625   3.759   4.152   5.517 -0.6358 -0.0253  0.2042
  813MOL0     C 9626   3.622   4.128   5.525  1.0197 -0.3251 -0.0451
  813MOL0     C 9627   3.557   4.124   5.647 -0.9003 -0.8192 -0.6049
  813MOL0     O 9628   3.423   4.112   5.661  0.2438 -0.1559 -0.1629
  813MOL0     C 9629   3.364   4.029   5.559  0.0261  0.5865  0.2563
  813MOL0     C 9630   3.225   3.987   5.597 -0.4545  0.9478  0.7030
  813MOL0     C 9631   3.213   3.874   5.698  0.7838 -0.8086 -1.1979
  813MOL0     C 9632   3.066   3.847   5.737  0.5617  0.4925  0.6171
  813MOL0     C 9633   3.058   3.692   5.765 -0.0863  0.8316 -1.1668
  813MOL0     C 9634   3.140   3.632   5.887 -0.5478  0.3310  0.2281
  813MOL0     C 9635   3.092   3.685   6.028 -0.3062  0.0601 -0.6676
  813MOL0     C 9636   2.945   3.653   6.058 -0.1948 -0.0328  0.0921
  813MOL0     N 9637   2.926   3.670   6.204  0.0011 -0.0211 -0.2861
  813MOL0     C 9638   2.834   3.757   6.263 -0.4145  1.0022  0.1742
  813MOL0     C 9639   2.845   3.738   6.392 -0.1061 -0.3064 -0.2074
  813MOL0     C 9640   2.763   3.800   6.510 -0.2013 -0.0795  0.2133
  813MOL0     C 9641   2.622   3.734   6.507  0.4742 -0.4250 -0.1353
  813MOL0     C 9642   2.529   3.805   6.604 -0.4644 -0.3184  0.1933
  813MOL0     C 9643   2.390   3.745   6.580  0.0425 -0.0541 -0.8192
  813MOL0     O 9644   2.383   3.605   6.601 -0.3543  0.8343 -1.2018
  813MOL0     C 9645   2.259   3.544   6.579  0.1692 -0.4607 -0.6030
  813MOL0     C 9646   2.175   3.590   6.473 -0.8594  0.5491 -0.0187
  813MOL0     C 9647   2.047   3.540   6.447  0.2072 -0.2390 -0.4678
  813MOL0     C 9648   1.963   3.627   6.352 -0.9897 -0.5969  1.0904
  813MOL0     C 9649   1.997   3.433   6.527 -0.6437 -0.1860  0.3013
  813MOL0     C 9650   1.865   3.371   6.508 -0.3087 -1.1366 -1.0132
  813MOL0     O 9651   1.860   3.236   6.555 -0.0059 -0.3109  0.3204
  813MOL0     C 9652   1.749   3.153   6.546  0.0874 -0.3223 -0.3409
  813MOL0     C 9653   1.627   3.194   6.576 -0.1322 -0.0002 -0.1570
  813MOL0     C 9654   1.520   3.096   6.596  0.5940 -0.2040  0.2884
  813MOL0     C 9655   1.548   2.958   6.572  0.6933 -0.5967 -0.1223
  813MOL0     O 9656   1.449   2.864   6.592  0.5071 -0.5253 -0.1963
  813MOL0     C 9657   1.444   2.832   6.734 -0.7175  0.6440  0.5658
  813MOL0     C 9658   1.332   2.725   6.757 -0.1253 -0.4478 -0.4310
  813MOL0     C 9659   1.202   2.770   6.683 -0.4862 -0.3916 -0.0272
  813MOL0     C 9660   1.075   2.701   6.734  0.0524  1.5422 -0.2544
  813MOL0     C 9661   0.964   2.770   6.668  0.6116 -0.2700 -0.1585
  813MOL0     C 9662   0.833   2.703   6.709 -0.2746  0.5196 -0.9027
  813MOL0     C 9663   0.712   2.738   6.625 -0.0654 -0.1058 -1.1734
  813MOL0     C 9664   0.583   2.731   6.700  0.6078  0.8480 -0.2443
  813MOL0    Cl 9665   0.549   2.546   6.745  0.2121  0.0326 -0.0276
  813MOL0     C 9666   1.674   2.922   6.528 -0.2629  0.8638 -0.0038
  813MOL0     C 9667   1.775   3.023   6.533  0.4680 -0.4354  0.4765
  813MOL0     O 9668   1.774   3.428   6.450 -0.2031 -0.1197 -0.1390
  813MOL0     C 9669   2.088   3.378   6.620 -0.1343 -0.3273 -0.3423
  813MOL0     C 9670   2.211   3.433   6.648 -0.4076 -0.7508  0.5426
  813MOL0     N 9671   2.951   3.647   6.417 -0.0096 -0.4670  0.9528
  813MOL0     N 9672   2.996   3.612   6.300  0.0713 -0.0644 -0.5499
  813MOL0     C 9673   3.634   4.150   5.759 -0.3532 -0.0497 -0.1808
  813MOL0     C 9674   3.772   4.178   5.758  0.5550  0.1096  0.3158
  813MOL0     C 9675   4.132   4.391   5.671  0.1766  0.4206  0.6077
  813MOL0     C 9676   4.165   4.509   5.729 -0.7772 -0.1878 -0.3907
  813MOL0     C 9677   4.298   4.557   5.739 -0.0681  0.2650  0.1964
  813MOL0     C 9678   4.404   4.479   5.681  0.0933  0.8612 -0.1199
  813MOL0     O 9679   4.535   4.521   5.700 -0.2926  0.4373 -0.1225
  813MOL0     C 9680   4.643   4.433   5.657  0.7194  0.0438  0.3942
  813MOL0     C 9681   4.769   4.518   5.656 -0.6946 -0.7842 -0.1864
  813MOL0     C 9682   4.886   4.459   5.581  0.5663  0.2225 -0.5002
  813MOL0     C 9683   5.019   4.530   5.617 -0.3294 -0.3180 -1.1725
  813MOL0     C 9684   5.132   4.439   5.636 -0.6464  0.0416 -0.3836
  813MOL0     C 9685   5.243   4.380   5.638  0.4449  0.7026 -0.1189
  813MOL0     C 9686   4.371   4.346   5.635  0.8143  0.1082  0.1199
  813MOL0     C 9687   4.238   4.302   5.634 -1.0786 -0.0795 -0.3542
  813MOL0     H 9688   3.814   4.159   5.424  1.4732  1.8390  1.4689
  813MOL0     H 9689   3.579   4.106   5.428  0.8013  2.3463 -0.6302
  813MOL0     H 9690   3.365   4.088   5.467  0.7369  0.5662  0.2461
  813MOL0     H 9691   3.425   3.943   5.531  0.2179 -0.0235  2.3880
  813MOL0     H 9692   3.169   4.071   5.638  0.9331  0.7998  3.1639
  813MOL0     H 9693   3.170   3.952   5.510 -0.0895 -1.7860  1.4594
  813MOL0     H 9694   3.265   3.784   5.664  2.7415 -0.2267  0.0839
  813MOL0     H 9695   3.269   3.898   5.789  0.9700 -3.1260 -0.6525
  813MOL0     H 9696   3.036   3.890   5.833 -1.9711 -0.6330  0.3962
  813MOL0     H 9697   2.998   3.881   5.658  1.1541 -1.9519 -1.0480
  813MOL0     H 9698   2.951   3.675   5.776  0.1654  0.1989  0.7645
  813MOL0     H 9699   3.088   3.642   5.672  0.3430 -0.1384 -0.5253
  813MOL0     H 9700   3.121   3.524   5.878 -2.3491  0.5861  0.5715
  813MOL0     H 9701   3.248   3.640   5.874 -0.4714 -2.5856 -1.9744
  813MOL0     H 9702   3.151   3.621   6.094 -0.3920  0.5335 -0.1341
  813MOL0     H 9703   3.121   3.789   6.048  3.3503 -1.2421  1.7020
  813MOL0     H 9704   2.917   3.561   6.005  0.5910  0.4475 -1.2316
  813MOL0     H 9705   2.896   3.738   6.010  1.8307  0.5500 -1.0817
  813MOL0     H 9706   2.756   3.815   6.215  2.0506  2.4914 -2.2932
  813MOL0     H 9707   2.818   3.783   6.603 -1.9278  1.8792  1.6894
  813MOL0     H 9708   2.747   3.907   6.496 -0.6222 -0.4195 -2.2899
  813MOL0     H 9709   2.619   3.629   6.538  0.6863 -0.0902  1.0341
  813MOL0     H 9710   2.575   3.746   6.408 -3.0915 -2.0877  1.2049
  813MOL0     H 9711   2.530   3.912   6.580 -1.6156 -0.1309  0.9115
  813MOL0     H 9712   2.561   3.783   6.706  1.6043  0.9032 -0.1316
  813MOL0     H 9713   2.366   3.757   6.474  0.2722 -1.6419 -1.0696
  813MOL0     H 9714   2.318   3.796   6.645 -0.8063 -2.5922  0.3465
  813MOL0     H 9715   2.202   3.663   6.397 -3.0414  0.1277 -1.2852
  813MOL0     H 9716   1.885   3.578   6.293 -0.5847 -0.4940  0.4662
  813MOL0     H 9717   1.918   3.710   6.408  0.7767  0.3743  1.1511
  813MOL0     H 9718   2.036   3.678   6.289 -1.6384  0.3733  1.0986
  813MOL0     H 9719   1.607   3.300   6.574  1.2834  0.4235  2.9474
  813MOL0     H 9720   1.424   3.117   6.642  1.2458 -1.7966  2.5833
  813MOL0     H 9721   1.538   2.783   6.758 -0.8914 -0.6599 -1.1751
  813MOL0     H 9722   1.417   2.909   6.807 -1.2123 -0.9267  2.1315
  813MOL0     H 9723   1.350   2.621   6.730  0.8139 -0.2838 -0.4711
  813MOL0     H 9724   1.314   2.722   6.865  0.8401 -0.1543 -0.2463
  813MOL0     H 9725   1.219   2.747   6.577 -2.1085  1.6517 -0.8047
  813MOL0     H 9726   1.186   2.877   6.697 -1.2678 -0.4271 -0.5815
  813MOL0     H 9727   1.073   2.595   6.706  0.4725  2.1069 -2.5978
  813MOL0     H 9728   1.077   2.708   6.843 -1.2696  1.1934 -0.1898
  813MOL0     H 9729   0.977   2.766   6.559 -1.4158 -3.7498 -0.4000
  813MOL0     H 9730   0.970   2.873   6.704  2.0047 -0.7834  1.1550
  813MOL0     H 9731   0.844   2.594   6.706 -0.5008  0.5102 -1.5535
  813MOL0     H 9732   0.822   2.732   6.814  1.0439  1.5754 -1.0333
  813MOL0     H 9733   0.701   2.665   6.544 -1.5857 -0.5754 -0.5728
  813MOL0     H 9734   0.718   2.841   6.590 -0.7582  0.4301  0.2351
  813MOL0     H 9735   0.494   2.767   6.646  0.5408  0.8489 -0.1340
  813MOL0     H 9736   0.592   2.791   6.792 -1.8810  2.8672 -1.1764
  813MOL0     H 9737   1.703   2.818   6.522  0.2758  0.9685  0.6207
  813MOL0     H 9738   1.873   2.992   6.499  0.8482  0.0814  1.0816
  813MOL0     H 9739   2.062   3.293   6.682  0.8371 -0.6440 -0.3495
  813MOL0     H 9740   2.272   3.387   6.725 -1.9850  0.7089  2.7784
  813MOL0     H 9741   3.582   4.149   5.855 -3.3697 -0.1276 -1.7146
  813MOL0     H 9742   3.825   4.196   5.851 -0.2305 -1.3570  1.0771
  813MOL0     H 9743   4.088   4.579   5.762 -0.4188  0.5361 -1.0326
  813MOL0     H 9744   4.325   4.657   5.771  1.5147  0.0754 -0.4701
  813MOL0     H 9745   4.644   4.345   5.722 -1.8587 -0.2130  0.1816
  813MOL0     H 9746   4.626   4.397   5.555 -6.0713 -0.1063  1.1654
  813MOL0     H 9747   4.788   4.538   5.762 -0.7389  3.7406 -0.8334
  813MOL0     H 9748   4.744   4.616   5.614  0.4695 -0.5144 -0.2638
  813MOL0     H 9749   4.866   4.452   5.474 -0.4128 -1.3185 -0.2459
  813MOL0     H 9750   4.888   4.357   5.620  0.0373  0.5160  0.3312
  813MOL0     H 9751   4.998   4.577   5.714  1.5350 -1.3759 -0.1817
  813MOL0     H 9752   5.036   4.613   5.549 -1.5796  0.4144 -0.6241
  813MOL0     H 9753   5.337   4.332   5.621  0.8839  0.8904  1.5817
  813MOL0     H 9754   4.450   4.277   5.609  1.1246 -0.0434  1.4051
  813MOL0     H 9755   4.222   4.197   5.613  1.6424 -0.9368  1.3826
  814MOL0     O 9756   8.622   2.373   5.253  1.2326 -0.0331 -0.2875
  814MOL0     C 9757   8.608   2.498   5.279  0.4290  0.2901 -0.0347
  814MOL0     O 9758   8.494   2.569   5.244 -0.0940 -0.0905  0.3310
  814MOL0     C 9759   8.397   2.493   5.176 -0.3743 -0.1355  0.9427
  814MOL0     C 9760   8.431   2.413   5.061  0.2345 -0.1246 -0.6579
  814MOL0     C 9761   8.320   2.345   4.999  0.5350  0.1080 -0.0347
  814MOL0     C 9762   8.189   2.341   5.050 -0.2970 -0.0188  1.4296
  814MOL0     O 9763   8.097   2.266   4.970  0.2027  0.3786 -0.5577
  814MOL0     C 9764   7.957   2.299   4.982 -0.7934  0.6108  0.1990
  814MOL0     C 9765   7.881   2.205   4.880 -0.3387 -0.0884  0.3614
  814MOL0     C 9766   7.740   2.178   4.926 -0.0849  0.0049 -0.5361
  814MOL0     C 9767   7.640   2.166   4.810 -0.1480  0.0077 -0.4333
  814MOL0     C 9768   7.495   2.180   4.852 -0.3239 -0.5658 -0.1639
  814MOL0     C 9769   7.386   2.178   4.745  0.1036 -0.4910  0.1134
  814MOL0     C 9770   7.238   2.148   4.794 -0.8381 -0.0976 -0.1635
  814MOL0     C 9771   7.131   2.196   4.698  0.4336  0.8999  0.3625
  814MOL0     N 9772   6.994   2.137   4.725  0.2716  0.3136  0.5851
  814MOL0     C 9773   6.965   1.997   4.747  0.3640  0.2635  0.6209
  814MOL0     C 9774   6.831   1.986   4.739  0.2815  0.4968 -0.1413
  814MOL0     C 9775   6.757   1.855   4.765 -0.4957  0.6548 -0.2366
  814MOL0     C 9776   6.750   1.770   4.638  0.4043 -0.4696 -0.0193
  814MOL0     C 9777   6.624   1.796   4.561 -0.0519  0.6059  0.3900
  814MOL0     C 9778   6.608   1.714   4.429  0.4551  0.4994 -0.0829
  814MOL0     O 9779   6.586   1.573   4.462 -0.1126 -0.4215 -0.3485
  814MOL0     C 9780   6.457   1.525   4.490 -0.6665 -0.3469  0.1072
  814MOL0     C 9781   6.454   1.392   4.525  0.2963  0.0769 -1.2153
  814MOL0     C 9782   6.332   1.323   4.548  0.3503 -0.3614 -0.0813
  814MOL0     C 9783   6.339   1.179   4.589  0.3490 -1.1387 -0.1623
  814MOL0     C 9784   6.209   1.395   4.530  0.9965 -0.4999 -0.0373
  814MOL0     C 9785   6.072   1.351   4.575  0.7738  1.2424 -0.1351
  814MOL0     O 9786   5.985   1.439   4.634  1.0267 -0.2812 -0.0417
  814MOL0     C 9787   5.856   1.383   4.664 -0.0562 -0.3647 -0.5715
  814MOL0     C 9788   5.744   1.446   4.603 -0.1341 -0.4835  0.5245
  814MOL0     C 9789   5.606   1.413   4.626 -0.1149 -0.5422 -0.4404
  814MOL0     C 9790   5.582   1.317   4.732 -0.2743 -0.7629 -0.2993
  814MOL0     O 9791   5.467   1.288   4.804 -0.3794 -0.7064  0.0179
  814MOL0     C 9792   5.353   1.358   4.759 -0.5245 -0.3751  0.3312
  814MOL0     C 9793   5.237   1.319   4.852  0.0976 -0.4271 -0.2496
  814MOL0     C 9794   5.117   1.392   4.804  0.0063 -0.5938 -0.2207
  814MOL0     C 9795   5.010   1.403   4.917 -0.3019  0.2204 -0.0220
  814MOL0     C 9796   4.880   1.454   4.864  0.0588 -0.1876 -0.4741
  814MOL0     C 9797   4.874   1.605   4.855  0.2205  0.6608  0.1585
  814MOL0     C 9798   4.766   1.662   4.769  0.1673  0.4575 -0.1841
  814MOL0     C 9799   4.776   1.637   4.622  0.3533 -0.7471  0.8343
  814MOL0    Cl 9800   4.944   1.656   4.565 -0.3024 -0.0960 -0.1119
  814MOL0     C 9801   5.694   1.253   4.786 -0.3698  0.2974  0.2091
  814MOL0     C 9802   5.831   1.285   4.753  0.1964 -0.3199 -0.8973
  814MOL0     O 9803   6.048   1.229   4.567  0.5270 -0.1809 -0.2843
  814MOL0     C 9804   6.213   1.538   4.496  0.2576 -0.3881  0.1256
  814MOL0     C 9805   6.338   1.601   4.472  0.5273  0.1152  0.5304
  814MOL0     N 9806   6.785   2.109   4.698  0.2638  0.0270 -0.0471
  814MOL0     N 9807   6.881   2.196   4.683 -0.7685 -0.5156 -0.2179
  814MOL0     C 9808   8.164   2.425   5.162  0.3777  0.0519  0.0099
  814MOL0     C 9809   8.266   2.502   5.221  0.6644  0.1838  0.0003
  814MOL0     C 9810   8.711   2.562   5.350  0.3190 -0.2021  0.5782
  814MOL0     C 9811   8.686   2.687   5.420 -0.2469  0.0449 -0.4132
  814MOL0     C 9812   8.793   2.762   5.475 -1.1561  0.2870  0.4748
  814MOL0     C 9813   8.924   2.719   5.478 -0.3744  0.2872 -1.2535
  814MOL0     O 9814   9.027   2.795   5.535  0.1412 -0.1657  0.1445
  814MOL0     C 9815   9.162   2.810   5.487 -0.5417 -0.0902  0.1816
  814MOL0     C 9816   9.187   2.923   5.388  0.1522  1.3176  0.5957
  814MOL0     C 9817   9.108   3.050   5.424  0.5469 -0.2313  0.2906
  814MOL0     C 9818   9.202   3.123   5.517  0.6310 -0.0585  0.0071
  814MOL0     C 9819   9.300   3.205   5.450  0.2798  0.2758  0.5147
  814MOL0     C 9820   9.383   3.271   5.389  0.5810  0.1000  0.1593
  814MOL0     C 9821   8.949   2.599   5.426 -0.6947  1.1731  0.7134
  814MOL0     C 9822   8.851   2.515   5.359  0.5755  0.1223 -0.5926
  814MOL0     H 9823   8.529   2.422   5.015 -0.3071  0.0404 -1.7953
  814MOL0     H 9824   8.338   2.272   4.920 -0.5135 -0.7855  0.5325
  814MOL0     H 9825   7.929   2.283   5.086  2.3784  3.4542  1.6880
  814MOL0     H 9826   7.940   2.404   4.956  0.6516  1.0666  0.9918
  814MOL0     H 9827   7.886   2.262   4.787 -0.4444  1.5374  1.3056
  814MOL0     H 9828   7.939   2.113   4.870 -2.3029 -1.2033 -2.1469
  814MOL0     H 9829   7.744   2.084   4.982  0.0544  0.6413  0.5535
  814MOL0     H 9830   7.700   2.253   4.995 -4.2011 -1.6740 -0.8516
  814MOL0     H 9831   7.667   2.234   4.728  2.0033 -0.0101  0.1955
  814MOL0     H 9832   7.655   2.066   4.769 -0.5528 -0.6027  0.8630
  814MOL0     H 9833   7.469   2.108   4.930 -0.3314 -2.4660 -1.8441
  814MOL0     H 9834   7.481   2.277   4.900  0.1506  0.0208 -1.1662
  814MOL0     H 9835   7.392   2.275   4.694  1.0212  2.2301  4.8281
  814MOL0     H 9836   7.415   2.104   4.669 -1.4364  1.1209 -2.1702
  814MOL0     H 9837   7.234   2.039   4.801 -0.6332 -0.1344 -0.6058
  814MOL0     H 9838   7.221   2.195   4.892  3.4304  1.4866  0.0530
  814MOL0     H 9839   7.163   2.178   4.595  1.5927 -0.5959  0.9399
  814MOL0     H 9840   7.125   2.305   4.706 -2.3013  0.8158  0.3627
  814MOL0     H 9841   7.041   1.922   4.763  2.1820  1.9330  0.1650
  814MOL0     H 9842   6.815   1.804   4.843  1.2235 -1.4166 -2.7015
  814MOL0     H 9843   6.658   1.875   4.808 -1.8987  0.5188 -3.1777
  814MOL0     H 9844   6.763   1.664   4.660  2.2051 -0.2740  0.0354
  814MOL0     H 9845   6.838   1.792   4.577  0.7708 -1.2132  0.2366
  814MOL0     H 9846   6.604   1.901   4.537  1.4120  0.9949  0.7760
  814MOL0     H 9847   6.552   1.775   4.641  1.0721  2.7776  2.1087
  814MOL0     H 9848   6.702   1.715   4.374  0.5088  0.8534  0.0136
  814MOL0     H 9849   6.521   1.747   4.371 -1.0169 -2.4919  0.2359
  814MOL0     H 9850   6.555   1.353   4.538  0.9037  2.2835  1.4278
  814MOL0     H 9851   6.312   1.119   4.501  0.6286 -0.6737 -0.5665
  814MOL0     H 9852   6.441   1.164   4.624  1.1713  1.1727 -1.3816
  814MOL0     H 9853   6.276   1.154   4.675 -0.8675  2.7120  0.2716
  814MOL0     H 9854   5.772   1.520   4.529 -0.0185  1.6987  2.6304
  814MOL0     H 9855   5.540   1.475   4.567  2.7417  2.5075 -0.7553
  814MOL0     H 9856   5.366   1.466   4.753  0.4373 -0.5053 -0.0307
  814MOL0     H 9857   5.333   1.324   4.657 -1.6159 -0.1896  0.4650
  814MOL0     H 9858   5.226   1.212   4.830  0.6301 -0.7311  0.8597
  814MOL0     H 9859   5.266   1.339   4.956 -1.3896  2.3949 -0.2921
  814MOL0     H 9860   5.062   1.347   4.722 -2.8458 -0.1723  1.3196
  814MOL0     H 9861   5.140   1.496   4.777  1.2318 -0.7218  0.2384
  814MOL0     H 9862   4.995   1.305   4.964 -1.2808  1.3379  2.1084
  814MOL0     H 9863   5.055   1.468   4.992  0.3997  2.4110 -2.2033
  814MOL0     H 9864   4.799   1.420   4.928  0.8922  0.4494  0.9704
  814MOL0     H 9865   4.861   1.414   4.764  0.1643  0.6264 -0.8297
  814MOL0     H 9866   4.851   1.639   4.956  1.2791 -0.3811  0.7709
  814MOL0     H 9867   4.974   1.644   4.831  0.6659 -0.8128 -0.4769
  814MOL0     H 9868   4.777   1.770   4.778 -3.0540  0.8959 -0.5117
  814MOL0     H 9869   4.664   1.642   4.802 -0.5615  2.4397 -1.1178
  814MOL0     H 9870   4.718   1.708   4.563  0.6328 -0.6154  0.7171
  814MOL0     H 9871   4.742   1.540   4.584 -0.6630  0.1530 -0.6442
  814MOL0     H 9872   5.683   1.181   4.866  0.4970 -0.1408 -0.0493
  814MOL0     H 9873   5.912   1.236   4.806 -2.4287 -0.2334  3.7321
  814MOL0     H 9874   6.123   1.598   4.485 -0.3709 -0.4047  3.8865
  814MOL0     H 9875   6.326   1.701   4.433 -0.5840 -1.6988 -4.6833
  814MOL0     H 9876   8.066   2.449   5.202  0.7401 -1.6644  2.1004
  814MOL0     H 9877   8.241   2.566   5.305  0.0422  0.6184 -0.5038
  814MOL0     H 9878   8.584   2.724   5.425  0.6511  3.7386 -3.7724
  814MOL0     H 9879   8.761   2.856   5.520 -0.1207  0.9994 -0.2393
  814MOL0     H 9880   9.218   2.826   5.580 -1.2007  0.1234  0.5481
  814MOL0     H 9881   9.198   2.718   5.439 -2.8044 -1.2871  0.6389
  814MOL0     H 9882   9.151   2.883   5.292 -0.2662  1.1302  0.8282
  814MOL0     H 9883   9.295   2.936   5.385  0.4737 -0.4874  2.2082
  814MOL0     H 9884   9.015   3.035   5.480  0.9658 -0.2441  0.9925
  814MOL0     H 9885   9.074   3.108   5.337  1.6257  1.0648  0.7087
  814MOL0     H 9886   9.245   3.054   5.590 -1.7676 -1.5329  0.1482
  814MOL0     H 9887   9.138   3.187   5.579 -1.1604 -1.6961 -0.0712
  814MOL0     H 9888   9.456   3.327   5.334 -2.3122  1.6993 -2.4017
  814MOL0     H 9889   9.049   2.557   5.419 -1.0328  0.6881 -2.4091
  814MOL0     H 9890   8.898   2.422   5.327 -0.0726 -0.9982  1.5014
  815MOL0     O 9891   8.479   3.865   5.123 -0.3337  0.0772  0.0211
  815MOL0     C 9892   8.566   3.803   5.188 -0.4511 -0.2489  0.2736
  815MOL0     O 9893   8.556   3.678   5.248  0.8641  0.4335  0.2950
  815MOL0     C 9894   8.428   3.629   5.256  0.4631 -0.0734  0.2411
  815MOL0     C 9895   8.363   3.553   5.160  0.0584 -0.8140 -0.3935
  815MOL0     C 9896   8.228   3.517   5.170 -0.5204  0.3143 -0.1652
  815MOL0     C 9897   8.148   3.543   5.282  0.6090  0.6329  0.3368
  815MOL0     O 9898   8.014   3.519   5.298 -0.0413  0.4481 -0.0722
  815MOL0     C 9899   7.940   3.474   5.182  0.2593 -0.6090 -1.3222
  815MOL0     C 9900   7.787   3.485   5.208 -0.6926  0.4308  0.4156
  815MOL0     C 9901   7.748   3.370   5.303  0.3646  1.5105  0.0367
  815MOL0     C 9902   7.589   3.365   5.308  0.0181 -0.3815  0.5126
  815MOL0     C 9903   7.540   3.276   5.195 -0.5176  0.5108  0.0753
  815MOL0     C 9904   7.545   3.125   5.230 -0.0165 -0.2623 -0.2049
  815MOL0     C 9905   7.473   3.033   5.129  0.0989 -0.1564  0.6078
  815MOL0     C 9906   7.547   3.000   5.006  0.4709  0.1315  0.1929
  815MOL0     N 9907   7.458   2.939   4.905 -0.3218 -0.2395 -0.4960
  815MOL0     C 9908   7.435   2.804   4.895  0.2380 -0.5515 -0.8507
  815MOL0     C 9909   7.331   2.796   4.808  0.4227  0.5786  0.1155
  815MOL0     C 9910   7.264   2.674   4.774 -0.6171 -0.7361  0.4119
  815MOL0     C 9911   7.145   2.655   4.878  0.3441 -0.4733  0.6060
  815MOL0     C 9912   7.077   2.522   4.851  0.0877 -0.6753  0.5436
  815MOL0     C 9913   6.936   2.510   4.909  0.2507  0.1299  0.0140
  815MOL0     O 9914   6.940   2.528   5.048  0.5574 -0.3103 -0.0604
  815MOL0     C 9915   6.830   2.497   5.131 -0.0870  0.0009  0.2746
  815MOL0     C 9916   6.710   2.462   5.072  0.2790  0.0507 -0.3424
  815MOL0     C 9917   6.589   2.475   5.139  0.9358 -0.0289 -0.4847
  815MOL0     C 9918   6.451   2.487   5.062  0.1312  0.4891 -0.8568
  815MOL0     C 9919   6.594   2.514   5.275  0.2511 -0.1968 -0.5469
  815MOL0     C 9920   6.478   2.534   5.354  0.0509 -0.4744  0.2460
  815MOL0     O 9921   6.389   2.431   5.356 -0.2485  0.0876  0.3268
  815MOL0     C 9922   6.257   2.459   5.408 -0.0357  0.6591  0.1495
  815MOL0     C 9923   6.186   2.577   5.392  0.1965  0.0770 -0.2722
  815MOL0     C 9924   6.048   2.590   5.437 -0.6631 -0.2626 -0.3351
  815MOL0     C 9925   5.987   2.485   5.510 -0.2593 -0.6344 -0.2591
  815MOL0     O 9926   5.866   2.519   5.556  0.3438 -0.0430 -0.5907
  815MOL0     C 9927   5.794   2.403   5.612  0.0406 -0.2570 -0.0905
  815MOL0     C 9928   5.662   2.455   5.689 -0.2558  0.6100  0.4108
  815MOL0     C 9929   5.559   2.531   5.609 -0.2418 -0.3991 -0.4746
  815MOL0     C 9930   5.420   2.536   5.669 -0.5010  0.7502 -0.3341
  815MOL0     C 9931   5.426   2.632   5.791  0.5823  0.3952 -0.5742
  815MOL0     C 9932   5.286   2.641   5.865  0.6434 -0.5523 -0.4694
  815MOL0     C 9933   5.237   2.500   5.918  0.1796 -0.0901  0.1429
  815MOL0     C 9934   5.145   2.499   6.037  0.7102 -0.9588 -0.0541
  815MOL0    Cl 9935   4.972   2.516   5.990  0.0631  1.0068 -0.2234
  815MOL0     C 9936   6.064   2.367   5.525  0.5840 -0.7510  0.8295
  815MOL0     C 9937   6.194   2.351   5.467 -0.4801 -0.4496  0.2750
  815MOL0     O 9938   6.475   2.637   5.422  0.0261  0.0984 -0.0103
  815MOL0     C 9939   6.718   2.526   5.337 -0.2648 -0.7211  0.5001
  815MOL0     C 9940   6.842   2.519   5.267  0.3063 -0.0511 -0.0647
  815MOL0     N 9941   7.285   2.918   4.771  0.1251  0.4118  0.4018
  815MOL0     N 9942   7.364   3.001   4.830 -0.1215 -0.8083  0.2398
  815MOL0     C 9943   8.217   3.618   5.379 -0.1680  0.0992 -0.7267
  815MOL0     C 9944   8.347   3.660   5.367  0.4285 -0.2173  0.0346
  815MOL0     C 9945   8.701   3.859   5.179  0.0891 -0.3166 -0.9468
  815MOL0     C 9946   8.804   3.799   5.257 -0.3190 -1.6717 -0.6418
  815MOL0     C 9947   8.936   3.849   5.251 -0.3814 -0.2903 -0.4803
  815MOL0     C 9948   8.971   3.965   5.181  0.5844 -0.3106  0.2191
  815MOL0     O 9949   9.092   4.024   5.172 -0.7930 -0.6420  0.0927
  815MOL0     C 9950   9.214   3.969   5.241  0.8861 -0.3181  0.0011
  815MOL0     C 9951   9.272   3.856   5.158 -0.2716 -0.0423  0.0739
  815MOL0     C 9952   9.383   3.782   5.235 -0.4784  0.1798  0.4531
  815MOL0     C 9953   9.512   3.868   5.242 -0.9574 -0.3082  0.4901
  815MOL0     C 9954   9.641   3.790   5.260 -0.5761 -0.1529 -0.7788
  815MOL0     C 9955   9.746   3.735   5.292  0.2249 -0.6616  0.8281
  815MOL0     C 9956   8.869   4.028   5.112  0.2592  0.1239  0.5642
  815MOL0     C 9957   8.736   3.983   5.110  0.0257 -0.3994  0.1452
  815MOL0     H 9958   8.410   3.523   5.067 -2.3821  0.5704 -2.2051
  815MOL0     H 9959   8.189   3.455   5.090 -0.2626  0.7975 -0.6705
  815MOL0     H 9960   7.963   3.529   5.091  1.8559 -0.0313 -0.6108
  815MOL0     H 9961   7.954   3.366   5.166 -0.5053 -0.7295 -1.1977
  815MOL0     H 9962   7.747   3.577   5.253 -1.2681 -0.1027  1.0282
  815MOL0     H 9963   7.740   3.474   5.110  1.3786  0.1877 -0.5847
  815MOL0     H 9964   7.783   3.276   5.258  1.1017  0.2327  3.0446
  815MOL0     H 9965   7.800   3.369   5.399  1.5224 -0.0988 -0.5643
  815MOL0     H 9966   7.551   3.314   5.397 -2.8135  1.9115  0.7611
  815MOL0     H 9967   7.536   3.461   5.308  0.1410 -0.3041  1.0902
  815MOL0     H 9968   7.435   3.305   5.191 -0.1678  1.7185 -1.1428
  815MOL0     H 9969   7.586   3.297   5.098 -1.0016  0.8537 -0.0777
  815MOL0     H 9970   7.644   3.082   5.248 -1.3539 -2.6223  2.1148
  815MOL0     H 9971   7.490   3.107   5.323  3.1569 -1.6467  1.5918
  815MOL0     H 9972   7.450   2.938   5.179 -2.6936 -0.5881 -1.2863
  815MOL0     H 9973   7.390   3.095   5.095  0.3792  0.2227  0.6064
  815MOL0     H 9974   7.617   2.921   5.035  0.5816  0.6454  1.3803
  815MOL0     H 9975   7.599   3.089   4.969  1.7155 -0.6371  0.0179
  815MOL0     H 9976   7.489   2.719   4.935 -0.0953 -0.7811 -0.8816
  815MOL0     H 9977   7.238   2.673   4.668  1.3399  0.8644 -0.1463
  815MOL0     H 9978   7.337   2.593   4.785  0.4863  0.2492  0.4893
  815MOL0     H 9979   7.070   2.734   4.877  1.2267  0.3876 -0.3645
  815MOL0     H 9980   7.186   2.663   4.980  0.7924 -2.3159  0.5980
  815MOL0     H 9981   7.141   2.448   4.900  0.0602 -0.9958  0.0992
  815MOL0     H 9982   7.081   2.501   4.743 -0.6048 -1.6418  0.6930
  815MOL0     H 9983   6.911   2.407   4.882  3.7493 -0.0578 -3.2873
  815MOL0     H 9984   6.871   2.585   4.863  0.5578 -0.4563 -1.4245
  815MOL0     H 9985   6.709   2.430   4.968  2.1991 -1.7547  0.1196
  815MOL0     H 9986   6.414   2.589   5.070  1.2587  0.7835  3.3199
  815MOL0     H 9987   6.479   2.470   4.957 -0.5456  3.5698 -1.6243
  815MOL0     H 9988   6.380   2.414   5.101  1.6693 -0.3102  0.6050
  815MOL0     H 9989   6.222   2.661   5.334 -0.6161 -0.3903 -1.5003
  815MOL0     H 9990   5.999   2.684   5.414  0.7829  0.8253  0.8462
  815MOL0     H 9991   5.754   2.356   5.523 -0.2005 -0.1151 -0.0588
  815MOL0     H 9992   5.857   2.336   5.671  0.2066 -0.2271 -0.2359
  815MOL0     H 9993   5.604   2.379   5.742 -1.2275 -0.1613 -1.6418
  815MOL0     H 9994   5.688   2.535   5.759 -2.5536  1.9739 -0.1843
  815MOL0     H 9995   5.551   2.492   5.507 -0.0638 -0.4827 -0.4567
  815MOL0     H 9996   5.598   2.633   5.599  0.5317 -0.6446 -0.0243
  815MOL0     H 9997   5.352   2.582   5.596 -0.2329  0.3267 -0.8558
  815MOL0     H 9998   5.387   2.435   5.695  3.3386 -0.3812  0.7945
  815MOL0     H 9999   5.469   2.727   5.759  1.5090 -0.0251 -0.6128
  815MOL0     H10000   5.487   2.590   5.871 -1.4852 -2.0577 -0.1340
  815MOL0     H10001   5.290   2.708   5.951  1.8824  0.6086 -1.3991
  815MOL0     H10002   5.208   2.688   5.804 -1.8341 -1.7898  1.5104
  815MOL0     H10003   5.322   2.450   5.966  0.1725  0.2462  0.5106
  815MOL0     H10004   5.200   2.449   5.828  0.2069  0.4556 -0.1833
  815MOL0     H10005   5.178   2.577   6.108  0.5943  0.1193 -1.1497
  815MOL0     H10006   5.151   2.407   6.095  0.8092 -0.1729  1.2310
  815MOL0     H10007   6.035   2.284   5.590  0.4412  0.9758  3.1025
  815MOL0     H10008   6.249   2.257   5.465  1.9793  0.9006  0.7281
  815MOL0     H10009   6.722   2.553   5.442 -2.2756  2.7990 -0.2001
  815MOL0     H10010   6.942   2.535   5.307  1.2051 -2.7787 -1.0329
  815MOL0     H10011   8.168   3.656   5.469 -2.8857 -0.4761 -1.8534
  815MOL0     H10012   8.388   3.714   5.452  1.8454 -1.8913  0.4547
  815MOL0     H10013   8.776   3.715   5.319  1.0499 -1.5514  0.1775
  815MOL0     H10014   9.008   3.802   5.317  0.7870  2.8616  0.6700
  815MOL0     H10015   9.284   4.052   5.257  0.0105 -0.0460  2.9096
  815MOL0     H10016   9.186   3.929   5.338  0.4424  0.9352  0.4106
  815MOL0     H10017   9.304   3.890   5.058  0.1658 -3.3407 -1.0206
  815MOL0     H10018   9.186   3.789   5.145 -2.6315  2.8460 -0.4003
  815MOL0     H10019   9.405   3.693   5.177 -0.7273  0.2723  0.2112
  815MOL0     H10020   9.340   3.747   5.329 -1.1437  0.1505  0.1445
  815MOL0     H10021   9.506   3.947   5.318  1.2650  0.9499 -0.5560
  815MOL0     H10022   9.538   3.914   5.147  5.8833  0.6761  2.3100
  815MOL0     H10023   9.829   3.672   5.316  0.1122 -1.4619 -0.7491
  815MOL0     H10024   8.896   4.124   5.069 -3.7641  0.9634 -0.4675
  815MOL0     H10025   8.661   4.038   5.053 -0.0783  0.6210  1.2356
  816MOL0     O10026   4.651   7.067   4.015  0.4468  0.2930 -0.4570
  816MOL0     C10027   4.657   7.137   4.118 -0.0267 -0.2055 -0.0108
  816MOL0     O10028   4.571   7.238   4.149  0.3733 -0.4384  0.9343
  816MOL0     C10029   4.474   7.298   4.067  0.5159 -0.0425 -0.3555
  816MOL0     C10030   4.492   7.306   3.927 -0.4283 -0.5772  0.0546
  816MOL0     C10031   4.395   7.381   3.850  0.0174 -0.2973  0.9734
  816MOL0     C10032   4.273   7.422   3.904 -0.6599  1.8658  0.1339
  816MOL0     O10033   4.180   7.494   3.834  0.1758 -0.5095 -0.4762
  816MOL0     C10034   4.161   7.464   3.699 -0.4826  0.2731  0.6536
  816MOL0     C10035   4.048   7.542   3.643  0.2878  0.4942 -0.3150
  816MOL0     C10036   4.035   7.519   3.498 -0.0460 -0.2291 -0.4255
  816MOL0     C10037   3.918   7.592   3.428  0.9317 -0.1231  0.0994
  816MOL0     C10038   3.778   7.609   3.491  0.1425 -0.3273  0.2141
  816MOL0     C10039   3.714   7.481   3.544 -0.4821  0.2926 -0.8113
  816MOL0     C10040   3.595   7.503   3.628 -0.2425 -0.1063  0.3030
  816MOL0     C10041   3.480   7.555   3.547 -0.1804 -0.0052 -0.2249
  816MOL0     N10042   3.444   7.461   3.441 -0.0498 -0.0319  0.3799
  816MOL0     C10043   3.363   7.358   3.461  0.2419  1.2623 -0.1724
  816MOL0     C10044   3.330   7.307   3.335 -0.6188  0.0218  0.1465
  816MOL0     C10045   3.258   7.178   3.316 -0.5100  0.1415  0.1789
  816MOL0     C10046   3.113   7.197   3.259 -0.1443 -0.0368 -0.4382
  816MOL0     C10047   3.018   7.201   3.381 -0.7228  0.2805  0.4051
  816MOL0     C10048   2.874   7.220   3.329 -0.0602 -0.1242  0.1452
  816MOL0     O10049   2.780   7.177   3.427 -0.7443  0.4518  0.6982
  816MOL0     C10050   2.644   7.184   3.413  0.0134 -0.2263  0.2245
  816MOL0     C10051   2.574   7.109   3.506  0.8936 -0.2089  0.1566
  816MOL0     C10052   2.433   7.110   3.512 -0.4556  0.2820  0.3607
  816MOL0     C10053   2.367   7.027   3.627  0.3977 -0.3193 -0.3346
  816MOL0     C10054   2.362   7.179   3.415  0.1640 -0.1344 -0.0666
  816MOL0     C10055   2.210   7.174   3.419 -0.0758 -0.4285 -0.0944
  816MOL0     O10056   2.156   7.245   3.315 -0.0200 -0.5891  0.0336
  816MOL0     C10057   2.018   7.266   3.331 -0.3611 -0.1337 -0.3116
  816MOL0     C10058   1.989   7.392   3.391 -0.0221 -0.3631 -0.0373
  816MOL0     C10059   1.859   7.431   3.422  0.9219 -0.0758 -0.4381
  816MOL0     C10060   1.751   7.347   3.398  0.5495  1.1216 -0.1756
  816MOL0     O10061   1.628   7.390   3.437  0.1887 -0.4889 -0.9948
  816MOL0     C10062   1.531   7.288   3.470  0.3645 -0.2404  0.4569
  816MOL0     C10063   1.436   7.351   3.574  0.3472  0.8773 -0.1413
  816MOL0     C10064   1.318   7.261   3.607  0.1488  0.3616 -0.0105
  816MOL0     C10065   1.349   7.117   3.661 -0.4090  0.5219  0.5303
  816MOL0     C10066   1.265   7.054   3.770  1.4825 -0.8456 -0.3452
  816MOL0     C10067   1.121   7.035   3.730  0.0191  0.4362  0.1801
  816MOL0     C10068   1.038   6.940   3.827 -0.0537 -0.2204  0.0337
  816MOL0     C10069   0.895   6.930   3.779 -0.7345 -0.0830  0.5042
  816MOL0    Cl10070   0.878   6.778   3.684 -0.1072  0.1164 -0.2363
  816MOL0     C10071   1.781   7.220   3.337  0.0150 -0.3013  0.4148
  816MOL0     C10072   1.915   7.188   3.300  0.9103 -0.7069  0.2943
  816MOL0     O10073   2.148   7.122   3.510 -0.3539 -0.3930  0.8808
  816MOL0     C10074   2.430   7.257   3.322  0.3153  0.6414 -0.2082
  816MOL0     C10075   2.569   7.251   3.313  0.3755 -0.7544  0.3489
  816MOL0     N10076   3.391   7.388   3.247  0.8395 -0.9336  0.4047
  816MOL0     N10077   3.471   7.474   3.307  1.1040 -1.0184  0.4150
  816MOL0     C10078   4.251   7.406   4.040 -0.8010  0.8970  0.0526
  816MOL0     C10079   4.349   7.335   4.123  0.0208  0.2660 -0.0161
  816MOL0     C10080   4.787   7.128   4.198 -0.3782 -0.5221  0.1639
  816MOL0     C10081   4.904   7.071   4.136  0.2781 -0.9343  0.3609
  816MOL0     C10082   5.019   7.057   4.207 -0.3043  1.3455  0.7418
  816MOL0     C10083   5.025   7.091   4.348 -0.1742 -0.2544  0.3720
  816MOL0     O10084   5.141   7.082   4.428  0.0715  0.2631  0.0177
  816MOL0     C10085   5.269   7.058   4.365  0.6287  0.2605  0.5275
  816MOL0     C10086   5.374   7.055   4.472 -0.8095  1.1325 -0.7803
  816MOL0     C10087   5.513   7.065   4.400  0.0017 -0.8291  0.0076
  816MOL0     C10088   5.547   6.947   4.313 -0.2216 -0.0089  0.4418
  816MOL0     C10089   5.692   6.953   4.281 -0.4682  0.5124 -0.7266
  816MOL0     C10090   5.817   6.954   4.267 -0.2195 -0.4304  0.9038
  816MOL0     C10091   4.915   7.155   4.397  0.5157 -0.6172  0.3291
  816MOL0     C10092   4.791   7.175   4.331  0.0858  0.7148 -0.3437
  816MOL0     H10093   4.586   7.265   3.891  0.4971 -0.2365  1.9764
  816MOL0     H10094   4.424   7.397   3.747 -0.9180 -1.9164  0.4258
  816MOL0     H10095   4.251   7.482   3.640  2.4190 -5.6467  2.4778
  816MOL0     H10096   4.157   7.356   3.686 -0.1111  0.2365  0.8102
  816MOL0     H10097   3.961   7.517   3.703  0.9336  2.0366  1.3560
  816MOL0     H10098   4.069   7.647   3.664  2.1548 -0.1169  1.1760
  816MOL0     H10099   4.118   7.546   3.432 -0.5004 -1.3143 -1.4764
  816MOL0     H10100   4.026   7.412   3.478 -0.0519 -0.3076 -0.0045
  816MOL0     H10101   3.956   7.693   3.410 -0.5577  0.3389 -0.5944
  816MOL0     H10102   3.897   7.546   3.332 -1.3197  2.0610 -0.5518
  816MOL0     H10103   3.779   7.673   3.580 -1.4348 -1.0910  0.8245
  816MOL0     H10104   3.718   7.663   3.418  1.3226  1.1708  0.3055
  816MOL0     H10105   3.689   7.416   3.460 -0.6267 -0.5774 -0.1081
  816MOL0     H10106   3.791   7.422   3.596 -0.8843  1.4303  1.1485
  816MOL0     H10107   3.581   7.401   3.667  1.0388 -1.8125 -3.2889
  816MOL0     H10108   3.616   7.567   3.714 -0.4666  2.5401 -1.5082
  816MOL0     H10109   3.503   7.652   3.501  0.3604  0.1646  0.3897
  816MOL0     H10110   3.393   7.567   3.613  0.1059  0.1505  0.1296
  816MOL0     H10111   3.337   7.317   3.558 -1.8464  0.2469 -1.0954
  816MOL0     H10112   3.327   7.119   3.256  1.0847  2.5001 -0.4617
  816MOL0     H10113   3.261   7.129   3.414 -0.7794 -0.7662 -0.2569
  816MOL0     H10114   3.081   7.113   3.197 -0.3634 -2.9035  3.2105
  816MOL0     H10115   3.103   7.290   3.203 -0.4784 -0.3964 -0.9821
  816MOL0     H10116   3.057   7.282   3.444  1.6233  0.4856 -1.2010
  816MOL0     H10117   3.032   7.108   3.436  0.9467 -0.2552 -0.8349
  816MOL0     H10118   2.863   7.157   3.240  1.2504  1.0533 -0.8923
  816MOL0     H10119   2.864   7.323   3.295  1.0241  1.0609  3.0840
  816MOL0     H10120   2.639   7.052   3.571  2.1283  0.1933 -0.6875
  816MOL0     H10121   2.442   6.981   3.692  3.4801 -0.7142 -3.7701
  816MOL0     H10122   2.306   7.094   3.688  2.1659  1.5539 -0.4752
  816MOL0     H10123   2.299   6.951   3.587  0.6873  0.2885 -2.1018
  816MOL0     H10124   2.071   7.456   3.421 -1.7254  1.2823  1.3411
  816MOL0     H10125   1.835   7.522   3.475 -1.3526 -0.0137 -1.4628
  816MOL0     H10126   1.482   7.267   3.374  0.2794  2.3654 -0.1549
  816MOL0     H10127   1.578   7.202   3.518 -2.0045 -0.2490  3.0406
  816MOL0     H10128   1.479   7.376   3.672  0.7361 -0.5291  0.0684
  816MOL0     H10129   1.395   7.448   3.546  2.0869  1.9497  0.8148
  816MOL0     H10130   1.246   7.261   3.525  0.2829  3.9384 -0.3017
  816MOL0     H10131   1.247   7.290   3.685 -3.2123 -1.4416 -2.1533
  816MOL0     H10132   1.349   7.046   3.578  0.3404  0.0492  0.9181
  816MOL0     H10133   1.449   7.119   3.706 -0.5666 -1.6631  1.0783
  816MOL0     H10134   1.271   7.113   3.862  0.2049 -0.2802 -0.5983
  816MOL0     H10135   1.307   6.956   3.798  0.0422 -0.9998  1.4996
  816MOL0     H10136   1.065   7.129   3.719 -1.4799 -0.2310  1.6646
  816MOL0     H10137   1.119   6.995   3.628 -0.2175 -0.3695  0.4937
  816MOL0     H10138   1.032   6.982   3.928 -2.6467 -0.7284  0.1446
  816MOL0     H10139   1.077   6.838   3.830 -0.7944 -0.6536 -2.5971
  816MOL0     H10140   0.863   7.016   3.719 -1.4153 -1.3242 -1.0064
  816MOL0     H10141   0.827   6.917   3.864 -1.6874  2.6732  0.2707
  816MOL0     H10142   1.706   7.144   3.315 -0.1604 -0.2048  0.6796
  816MOL0     H10143   1.942   7.089   3.265 -1.2079 -0.8071 -1.3016
  816MOL0     H10144   2.376   7.316   3.248 -0.0725  0.1522 -0.3241
  816MOL0     H10145   2.616   7.298   3.226  0.7353 -3.6799 -1.1467
  816MOL0     H10146   4.166   7.460   4.080  1.1836  3.9527  0.5247
  816MOL0     H10147   4.328   7.333   4.229  2.5047  2.2513  0.6232
  816MOL0     H10148   4.891   7.046   4.031  2.7089 -1.2408  0.0719
  816MOL0     H10149   5.108   7.023   4.156 -0.7277  1.4273 -0.0555
  816MOL0     H10150   5.262   6.959   4.320 -0.9306  0.4566  0.2876
  816MOL0     H10151   5.307   7.129   4.292  0.4286  1.9455  1.9762
  816MOL0     H10152   5.365   6.961   4.527 -1.8126  0.5459 -1.8775
  816MOL0     H10153   5.371   7.139   4.543  1.5854  2.1903 -1.8334
  816MOL0     H10154   5.586   7.071   4.481  1.8902 -0.7749 -1.6137
  816MOL0     H10155   5.510   7.159   4.344  0.7536 -0.4161  0.6317
  816MOL0     H10156   5.491   6.945   4.219  1.1157 -1.1165 -0.3601
  816MOL0     H10157   5.524   6.861   4.377 -0.2802  0.1892  0.6910
  816MOL0     H10158   5.923   6.949   4.254 -0.4750  0.1761 -1.9772
  816MOL0     H10159   4.923   7.186   4.500 -1.0483  0.5426  0.1278
  816MOL0     H10160   4.704   7.224   4.375 -2.0349 -0.5909 -2.8636
  817MOL0     O10161   6.039   7.652   9.477  0.3537 -0.8015 -0.0724
  817MOL0     C10162   6.113   7.688   9.391 -0.3037  0.1640  0.3565
  817MOL0     O10163   6.082   7.687   9.257  0.1817  1.1267  0.6428
  817MOL0     C10164   5.975   7.614   9.214 -0.0813  0.8137  0.1396
  817MOL0     C10165   6.003   7.548   9.088  0.2132 -0.8993 -0.0927
  817MOL0     C10166   5.903   7.467   9.030 -0.2045 -0.3421 -0.5849
  817MOL0     C10167   5.777   7.466   9.087  0.6778 -0.3408 -0.7186
  817MOL0     O10168   5.674   7.401   9.024 -0.4980 -0.4191 -0.0857
  817MOL0     C10169   5.700   7.311   8.927  0.5041  0.7313 -0.1688
  817MOL0     C10170   5.583   7.216   8.927 -0.5840 -0.3076  0.5353
  817MOL0     C10171   5.560   7.149   9.057  0.1956  0.4052 -0.0057
  817MOL0     C10172   5.671   7.047   9.091  0.0912 -0.8888 -0.0889
  817MOL0     C10173   5.703   7.036   9.245 -0.0738  0.1491 -0.0559
  817MOL0     C10174   5.590   6.977   9.330  0.1291 -0.4214  0.7608
  817MOL0     C10175   5.592   7.013   9.479  0.0460 -0.1265  0.3247
  817MOL0     C10176   5.699   6.939   9.550  0.1854 -0.5309  0.5842
  817MOL0     N10177   5.828   7.021   9.549  0.1836  1.0124 -0.0379
  817MOL0     C10178   5.842   7.155   9.582 -0.3401  0.3134 -0.1139
  817MOL0     C10179   5.974   7.180   9.574 -1.1085 -0.0952 -0.3881
  817MOL0     C10180   6.029   7.323   9.582  0.3711  0.4721  0.5177
  817MOL0     C10181   6.030   7.394   9.718  1.3424 -0.3598 -0.4373
  817MOL0     C10182   5.898   7.418   9.789 -0.0098  0.6084  0.1778
  817MOL0     C10183   5.817   7.527   9.723  0.0806  0.2554 -0.3938
  817MOL0     O10184   5.715   7.602   9.794  0.4289  0.3858  0.2424
  817MOL0     C10185   5.598   7.533   9.799  0.2470 -0.3928 -0.4427
  817MOL0     C10186   5.566   7.442   9.903 -1.0004 -0.0190 -1.1932
  817MOL0     C10187   5.444   7.383   9.919  0.2440  0.0516  0.3537
  817MOL0     C10188   5.422   7.305  10.047  0.2158  0.6283  0.0454
  817MOL0     C10189   5.346   7.408   9.824 -0.0032 -0.1767 -0.3278
  817MOL0     C10190   5.210   7.362   9.837  0.0902  0.1274  0.0316
  817MOL0     O10191   5.141   7.366   9.720 -0.5448 -0.7752  0.0879
  817MOL0     C10192   5.010   7.343   9.720  0.2457 -0.3845 -0.1623
  817MOL0     C10193   4.929   7.433   9.792  0.1449 -0.1777 -0.8485
  817MOL0     C10194   4.794   7.415   9.780 -0.6730 -0.5154 -0.3041
  817MOL0     C10195   4.734   7.305   9.707 -0.1782  0.1200 -0.0436
  817MOL0     O10196   4.599   7.292   9.694 -0.6849 -0.1078 -0.3987
  817MOL0     C10197   4.543   7.283   9.568  0.1013  0.6092  0.1235
  817MOL0     C10198   4.394   7.276   9.579  0.2135 -0.1754 -0.7990
  817MOL0     C10199   4.346   7.145   9.626 -0.6030 -0.8081  0.2267
  817MOL0     C10200   4.202   7.118   9.592  0.4080 -0.4960 -0.1758
  817MOL0     C10201   4.157   6.979   9.642  0.4443 -0.1793 -0.0014
  817MOL0     C10202   4.016   6.946   9.587  0.4606  0.1865 -0.5142
  817MOL0     C10203   3.973   6.802   9.630  0.1952 -0.1512 -1.1675
  817MOL0     C10204   3.822   6.779   9.624  0.2188 -0.0172  0.6925
  817MOL0    Cl10205   3.770   6.799   9.455  0.0128  0.0355 -0.0836
  817MOL0     C10206   4.821   7.218   9.639 -0.4362  0.3949 -0.2212
  817MOL0     C10207   4.955   7.239   9.651  0.5655 -0.0209  0.5078
  817MOL0     O10208   5.160   7.334   9.944  0.0335  0.2252 -0.3444
  817MOL0     C10209   5.373   7.500   9.719 -0.5188  0.7416 -0.2787
  817MOL0     C10210   5.498   7.555   9.704  0.1481 -1.2146 -0.6009
  817MOL0     N10211   6.048   7.074   9.528 -0.2255  0.4748 -0.4630
  817MOL0     N10212   5.956   6.988   9.505  0.0608  1.1747  0.0633
  817MOL0     C10213   5.752   7.531   9.208  0.1322 -0.8521  0.2657
  817MOL0     C10214   5.849   7.615   9.271 -0.4040  0.6989 -0.2276
  817MOL0     C10215   6.237   7.766   9.427 -0.4833 -0.4027  0.2984
  817MOL0     C10216   6.256   7.822   9.557 -0.3527  0.2319  0.4967
  817MOL0     C10217   6.370   7.883   9.594 -0.5645 -0.2528  0.2235
  817MOL0     C10218   6.470   7.911   9.495  0.1118 -0.2821 -0.2956
  817MOL0     O10219   6.573   7.992   9.519  0.4817  0.7403  0.1712
  817MOL0     C10220   6.699   7.941   9.471  0.5294  0.4907  0.4836
  817MOL0     C10221   6.810   7.999   9.560  0.6357 -0.5514  0.2881
  817MOL0     C10222   6.829   8.146   9.550 -0.0068 -0.1923 -0.0007
  817MOL0     C10223   6.942   8.203   9.642 -0.0173  0.0152  0.4219
  817MOL0     C10224   7.078   8.166   9.599  0.7153 -0.3345  0.0737
  817MOL0     C10225   7.194   8.140   9.577  0.8006 -0.1044  1.6555
  817MOL0     C10226   6.459   7.843   9.369  0.5401 -0.5639 -0.0601
  817MOL0     C10227   6.348   7.771   9.333 -0.3428  0.3477  0.6449
  817MOL0     H10228   6.098   7.549   9.036  1.2497 -2.1190  1.6529
  817MOL0     H10229   5.923   7.439   8.927  1.3452  0.6412 -0.5838
  817MOL0     H10230   5.695   7.360   8.829 -0.8844  1.0059  0.0153
  817MOL0     H10231   5.798   7.266   8.946  1.5125  2.1355 -1.7481
  817MOL0     H10232   5.495   7.276   8.902 -0.0327 -0.0664 -0.9776
  817MOL0     H10233   5.604   7.144   8.847 -3.1367  0.0258 -0.5433
  817MOL0     H10234   5.544   7.218   9.141  0.0861 -0.3348  0.5895
  817MOL0     H10235   5.463   7.099   9.055 -0.1600  1.0672 -2.1187
  817MOL0     H10236   5.625   6.957   9.048 -0.2835 -0.9823  0.4960
  817MOL0     H10237   5.756   7.083   9.032 -1.8183  2.1019 -1.2662
  817MOL0     H10238   5.790   6.970   9.247 -0.0278  0.1714 -0.8229
  817MOL0     H10239   5.743   7.135   9.270 -0.3480  0.0757  0.6862
  817MOL0     H10240   5.502   7.024   9.284  1.8496  1.0627 -1.2088
  817MOL0     H10241   5.583   6.870   9.312  0.5071 -0.4417  0.7409
  817MOL0     H10242   5.597   7.121   9.497  0.3872  0.0237 -0.6479
  817MOL0     H10243   5.498   6.978   9.525 -0.6900  2.9926  1.4553
  817MOL0     H10244   5.725   6.839   9.514  0.8104  0.2082 -1.1136
  817MOL0     H10245   5.682   6.929   9.657  0.7537 -2.7509  0.5084
  817MOL0     H10246   5.767   7.231   9.599 -0.4440  0.3852 -0.8673
  817MOL0     H10247   6.131   7.324   9.542 -1.1995  0.7945 -4.1134
  817MOL0     H10248   5.969   7.376   9.508 -0.4013 -2.7236 -1.3472
  817MOL0     H10249   6.087   7.487   9.707 -1.6266  1.6440 -0.1592
  817MOL0     H10250   6.080   7.329   9.789 -0.7510  0.8701  2.3494
  817MOL0     H10251   5.936   7.459   9.883 -2.0173 -0.9376  1.7595
  817MOL0     H10252   5.845   7.328   9.822  0.0476  0.6400  0.3577
  817MOL0     H10253   5.782   7.483   9.629 -0.5619 -3.8805  1.5571
  817MOL0     H10254   5.885   7.596   9.673  0.0502  1.2740  0.9149
  817MOL0     H10255   5.644   7.416   9.974 -2.6908  0.4171  0.9312
  817MOL0     H10256   5.367   7.211  10.038  0.1325  0.1876  3.7008
  817MOL0     H10257   5.515   7.275  10.096  0.9031 -0.9733 -2.0767
  817MOL0     H10258   5.368   7.370  10.116  0.3717  3.0021 -1.9585
  817MOL0     H10259   4.970   7.516   9.849 -0.7551  0.7511 -1.5116
  817MOL0     H10260   4.725   7.481   9.831 -0.1407 -1.7259  2.1550
  817MOL0     H10261   4.574   7.372   9.511 -0.4326 -0.1513 -1.4257
  817MOL0     H10262   4.573   7.189   9.521  0.5618  0.1584  1.2949
  817MOL0     H10263   4.356   7.339   9.660  1.5288 -1.1546  0.6456
  817MOL0     H10264   4.347   7.288   9.482 -1.1172 -2.0920 -0.4519
  817MOL0     H10265   4.369   7.132   9.732 -0.9181 -1.0610  0.2651
  817MOL0     H10266   4.412   7.080   9.569 -0.8976 -0.3779 -0.6234
  817MOL0     H10267   4.133   7.194   9.629 -0.3695 -0.9651 -0.6416
  817MOL0     H10268   4.185   7.121   9.484 -4.6630 -0.8691  0.3931
  817MOL0     H10269   4.162   6.968   9.750 -1.9389 -1.1494  0.0643
  817MOL0     H10270   4.228   6.908   9.598 -0.3665  0.2603 -2.1833
  817MOL0     H10271   3.951   7.031   9.615 -1.6607 -0.6555 -2.5621
  817MOL0     H10272   4.032   6.945   9.479  0.3448  1.0070 -0.5478
  817MOL0     H10273   3.999   6.767   9.730 -1.0424 -5.6175 -2.4287
  817MOL0     H10274   4.029   6.734   9.565 -0.3644 -1.0368 -0.7319
  817MOL0     H10275   3.776   6.849   9.694 -1.2111  0.2182 -0.4276
  817MOL0     H10276   3.793   6.680   9.660  0.7015 -1.5715 -2.7365
  817MOL0     H10277   4.782   7.136   9.580 -1.2845  0.4303  0.2694
  817MOL0     H10278   5.022   7.170   9.600 -1.6846 -1.0599 -1.2279
  817MOL0     H10279   5.300   7.516   9.640 -0.6282  0.8806 -0.1490
  817MOL0     H10280   5.513   7.625   9.622 -0.3813  1.1918  1.2356
  817MOL0     H10281   5.650   7.540   9.245 -0.7552 -4.3469 -0.9206
  817MOL0     H10282   5.822   7.670   9.360 -1.5792 -0.5837  0.2374
  817MOL0     H10283   6.172   7.814   9.625 -1.3290 -0.5632 -0.7587
  817MOL0     H10284   6.379   7.920   9.695 -0.3621 -0.1392  0.1647
  817MOL0     H10285   6.707   7.834   9.494 -0.7692  1.0336  3.9541
  817MOL0     H10286   6.717   7.955   9.364 -0.5195 -0.6977  0.1280
  817MOL0     H10287   6.904   7.950   9.534  1.6709  0.5522  1.8150
  817MOL0     H10288   6.782   7.962   9.659  1.9970 -2.3871  0.0269
  817MOL0     H10289   6.735   8.196   9.574  0.3227  0.6091 -0.3318
  817MOL0     H10290   6.851   8.173   9.446 -0.9488  0.7333  0.0327
  817MOL0     H10291   6.926   8.172   9.746  0.4932 -0.2433  0.4209
  817MOL0     H10292   6.944   8.313   9.641 -0.7080  0.1255  2.9986
  817MOL0     H10293   7.296   8.120   9.551  0.0653  0.5235 -2.4115
  817MOL0     H10294   6.533   7.859   9.291 -0.3197  3.8916 -0.2380
  817MOL0     H10295   6.342   7.727   9.234  0.4392  2.2392 -0.2886
  818MOL0     O10296   6.106  11.014   2.204 -0.5342  0.4462  0.2456
  818MOL0     C10297   6.171  11.107   2.162 -0.3014  0.2489 -0.1619
  818MOL0     O10298   6.115  11.236   2.129 -0.5232  0.1701  0.0023
  818MOL0     C10299   5.983  11.248   2.155  0.4131 -0.3363 -0.0845
  818MOL0     C10300   5.934  11.323   2.259  0.6950 -1.1519  0.0206
  818MOL0     C10301   5.793  11.347   2.269 -0.2793  0.1247 -0.0621
  818MOL0     C10302   5.694  11.293   2.181 -0.8898  0.2573  0.1542
  818MOL0     O10303   5.569  11.327   2.198  0.0714  0.0301  0.0715
  818MOL0     C10304   5.464  11.252   2.129  0.0905 -0.1096  0.0367
  818MOL0     C10305   5.335  11.330   2.147 -0.5292 -0.2948 -0.4669
  818MOL0     C10306   5.230  11.258   2.078  0.4273 -0.4663  0.0382
  818MOL0     C10307   5.087  11.304   2.107 -0.5009 -0.1401 -0.1566
  818MOL0     C10308   5.037  11.249   2.237  0.1719 -0.3102 -0.4987
  818MOL0     C10309   4.885  11.290   2.266  0.3194 -0.0454  0.1291
  818MOL0     C10310   4.782  11.218   2.179 -0.7503  0.6223 -0.3743
  818MOL0     C10311   4.638  11.252   2.218 -0.4304  0.7662  0.5870
  818MOL0     N10312   4.537  11.156   2.172  0.3345 -0.0467  0.0174
  818MOL0     C10313   4.468  11.064   2.249 -0.1918  0.8562 -0.8163
  818MOL0     C10314   4.386  10.999   2.165 -0.9843 -0.9151 -0.7479
  818MOL0     C10315   4.282  10.906   2.195  0.3640  0.1349 -0.5516
  818MOL0     C10316   4.152  10.982   2.217 -0.1097  0.0288  0.2687
  818MOL0     C10317   4.049  10.877   2.235 -0.1737  0.2094  0.4753
  818MOL0     C10318   3.921  10.916   2.309 -0.6185 -0.0666 -0.1264
  818MOL0     O10319   3.869  11.024   2.239  0.5288 -0.5262  1.2626
  818MOL0     C10320   3.760  11.094   2.287 -0.0117  0.2827  0.0000
  818MOL0     C10321   3.769  11.233   2.267  0.6019  1.1121  0.1638
  818MOL0     C10322   3.661  11.322   2.287 -0.8128  0.8015 -0.5617
  818MOL0     C10323   3.673  11.463   2.246 -0.2294 -0.8268  0.5639
  818MOL0     C10324   3.533  11.259   2.319 -1.1124 -0.3469 -0.2165
  818MOL0     C10325   3.402  11.324   2.336 -0.1529 -0.0893  0.3100
  818MOL0     O10326   3.304  11.242   2.363 -0.5534  0.8920  0.1280
  818MOL0     C10327   3.174  11.285   2.369  0.2956 -0.2120 -0.0127
  818MOL0     C10328   3.124  11.324   2.490 -0.2902 -0.1122 -0.1437
  818MOL0     C10329   2.987  11.349   2.505  1.2581  0.4953  0.4111
  818MOL0     C10330   2.899  11.344   2.396  0.0540  0.1444 -0.1240
  818MOL0     O10331   2.772  11.387   2.431 -0.5694  0.2801 -0.0061
  818MOL0     C10332   2.682  11.362   2.325 -0.1014 -0.2497 -0.3183
  818MOL0     C10333   2.537  11.370   2.381 -0.2157  0.0525 -0.0109
  818MOL0     C10334   2.490  11.253   2.485 -0.5578 -0.8332 -0.5748
  818MOL0     C10335   2.335  11.276   2.522 -0.3367  0.0162  0.1903
  818MOL0     C10336   2.272  11.172   2.622  0.2796  0.7159 -0.0431
  818MOL0     C10337   2.344  11.168   2.756 -0.2161 -0.1113 -0.1370
  818MOL0     C10338   2.265  11.091   2.867 -0.5838  0.3055  0.4082
  818MOL0     C10339   2.332  11.095   3.006 -0.1227  0.7546  0.4656
  818MOL0    Cl10340   2.302  11.254   3.089 -0.4106 -0.3743  0.1087
  818MOL0     C10341   2.950  11.290   2.281 -0.7687  0.3879  0.0448
  818MOL0     C10342   3.088  11.258   2.270  0.9219  0.0111 -0.1356
  818MOL0     O10343   3.386  11.451   2.313 -0.4098 -0.1420 -0.4073
  818MOL0     C10344   3.536  11.124   2.357  0.1204 -0.4754 -0.2521
  818MOL0     C10345   3.649  11.042   2.349 -0.3518 -0.8062 -0.4257
  818MOL0     N10346   4.405  11.052   2.040 -0.7533  0.3543 -0.5764
  818MOL0     N10347   4.495  11.143   2.043  0.1979  0.5449 -0.0642
  818MOL0     C10348   5.756  11.209   2.081  0.0108 -0.6168  0.6759
  818MOL0     C10349   5.894  11.187   2.067 -0.5342 -0.3509  0.4461
  818MOL0     C10350   6.316  11.109   2.166 -0.8093  0.6875  0.6384
  818MOL0     C10351   6.391  11.219   2.130  0.7057  0.0477 -0.0534
  818MOL0     C10352   6.531  11.221   2.133  0.3115 -0.1357 -0.1208
  818MOL0     C10353   6.603  11.102   2.174 -0.0725 -0.1334 -0.2125
  818MOL0     O10354   6.741  11.091   2.197 -0.1699  0.3230 -0.9708
  818MOL0     C10355   6.819  11.206   2.172  0.0197 -1.0874  0.1251
  818MOL0     C10356   6.955  11.192   2.247  0.0760  0.3164  0.3494
  818MOL0     C10357   7.050  11.084   2.177  0.9023  0.2157 -1.0343
  818MOL0     C10358   7.179  11.067   2.256 -0.0480  0.4303  0.5076
  818MOL0     C10359   7.274  11.184   2.236 -0.3069  1.3352 -0.3573
  818MOL0     C10360   7.363  11.263   2.209 -0.8731  0.8484 -0.7883
  818MOL0     C10361   6.528  10.992   2.208  0.3359 -0.5569 -0.2188
  818MOL0     C10362   6.390  10.991   2.197 -0.1131 -0.7322 -0.5753
  818MOL0     H10363   6.002  11.368   2.331  0.3153 -0.7836  0.1525
  818MOL0     H10364   5.750  11.397   2.355 -1.2918 -0.0872 -0.4264
  818MOL0     H10365   5.486  11.236   2.023 -2.3904  0.2971 -0.5945
  818MOL0     H10366   5.463  11.151   2.171 -1.1340 -1.2123 -2.4291
  818MOL0     H10367   5.318  11.334   2.255 -0.8808 -1.1317 -0.4781
  818MOL0     H10368   5.342  11.427   2.099 -0.6120 -0.3209 -0.5317
  818MOL0     H10369   5.244  11.274   1.970  2.3755 -0.6987  0.2210
  818MOL0     H10370   5.229  11.149   2.091 -0.4873 -0.2056  2.7742
  818MOL0     H10371   5.088  11.414   2.101 -1.7317 -0.1896 -2.3493
  818MOL0     H10372   5.026  11.277   2.020 -0.0358  0.9237 -0.8370
  818MOL0     H10373   5.033  11.139   2.231  0.0806 -0.4085  0.9764
  818MOL0     H10374   5.109  11.277   2.314 -1.4589 -0.9912  1.3649
  818MOL0     H10375   4.869  11.261   2.370  1.6211 -2.3354 -0.2386
  818MOL0     H10376   4.868  11.398   2.263  0.2643 -0.0334  0.7649
  818MOL0     H10377   4.800  11.233   2.072 -1.1723  1.4913 -0.3313
  818MOL0     H10378   4.805  11.113   2.199  1.8189  0.6696 -2.5275
  818MOL0     H10379   4.619  11.354   2.183  1.5432  1.5790  1.7330
  818MOL0     H10380   4.645  11.261   2.327 -0.7748  4.0293  0.4299
  818MOL0     H10381   4.471  11.054   2.357 -2.4049 -0.2222 -0.8002
  818MOL0     H10382   4.258  10.842   2.109 -2.9724  0.2806  0.1233
  818MOL0     H10383   4.314  10.842   2.277  1.0494  1.1111 -0.0454
  818MOL0     H10384   4.136  11.043   2.127 -0.4682 -1.3026 -0.6002
  818MOL0     H10385   4.158  11.047   2.305  0.0233 -0.5017  0.6581
  818MOL0     H10386   4.086  10.789   2.288 -2.3990 -1.0932  0.0203
  818MOL0     H10387   4.016  10.835   2.140  0.9570 -1.9478  0.9687
  818MOL0     H10388   3.945  10.950   2.410  1.6037  0.7232 -0.8756
  818MOL0     H10389   3.848  10.834   2.309 -2.8909  1.8431  0.4587
  818MOL0     H10390   3.868  11.254   2.227  1.8009 -2.2045  0.9939
  818MOL0     H10391   3.610  11.492   2.161 -1.1457  2.5152  2.2302
  818MOL0     H10392   3.625  11.521   2.325 -1.3079  1.6182 -1.7335
  818MOL0     H10393   3.778  11.485   2.225 -0.7688  2.5858  0.8734
  818MOL0     H10394   3.193  11.323   2.573  0.5055  0.9258 -0.7755
  818MOL0     H10395   2.950  11.374   2.604 -0.3083 -2.4066  0.6591
  818MOL0     H10396   2.699  11.441   2.252  2.4465 -0.0874  0.3686
  818MOL0     H10397   2.692  11.261   2.284  1.8531 -0.6003  0.8796
  818MOL0     H10398   2.516  11.470   2.420 -0.8025 -0.4714  1.0701
  818MOL0     H10399   2.480  11.365   2.288  0.8973 -2.0404 -0.6599
  818MOL0     H10400   2.552  11.239   2.574  0.4256 -0.7082 -1.2276
  818MOL0     H10401   2.479  11.160   2.428 -1.3796 -0.0945 -1.6654
  818MOL0     H10402   2.318  11.373   2.570 -2.4893 -1.1597  1.9937
  818MOL0     H10403   2.269  11.272   2.435  0.9574  1.5107 -0.9233
  818MOL0     H10404   2.270  11.071   2.581 -0.1962  0.5461  0.3829
  818MOL0     H10405   2.171  11.194   2.657  0.0687  0.9398 -0.7964
  818MOL0     H10406   2.439  11.123   2.726 -0.3413  0.7323 -1.8894
  818MOL0     H10407   2.367  11.269   2.791 -2.5538  0.5542 -0.3584
  818MOL0     H10408   2.252  10.987   2.838  1.5233 -0.4152  1.7658
  818MOL0     H10409   2.165  11.132   2.884 -1.8985 -3.2797  2.5391
  818MOL0     H10410   2.441  11.079   3.005 -0.3606 -1.0439 -1.3149
  818MOL0     H10411   2.292  11.009   3.060 -0.8356 -0.0813 -1.3291
  818MOL0     H10412   2.893  11.286   2.188  0.6269  1.7937 -0.9239
  818MOL0     H10413   3.138  11.227   2.178  1.0121  1.6008 -0.6622
  818MOL0     H10414   3.442  11.074   2.380 -0.1749  0.6680  1.1767
  818MOL0     H10415   3.638  10.938   2.379  0.9553 -0.8566 -0.0389
  818MOL0     H10416   5.679  11.156   2.025  0.6033 -0.6862 -0.1063
  818MOL0     H10417   5.941  11.120   1.997  1.4666  0.4327  0.9719
  818MOL0     H10418   6.343  11.313   2.107  0.4847  0.0107  0.2502
  818MOL0     H10419   6.583  11.310   2.099  3.6276 -2.3029 -1.2141
  818MOL0     H10420   6.839  11.222   2.065 -0.9143  1.4588  0.2449
  818MOL0     H10421   6.778  11.297   2.217  2.9859 -0.8081  2.5067
  818MOL0     H10422   6.928  11.164   2.350 -1.1494 -1.1693 -0.3443
  818MOL0     H10423   7.015  11.282   2.264  2.2613 -1.4872  3.2470
  818MOL0     H10424   7.076  11.106   2.073  5.2220 -0.6370 -0.3078
  818MOL0     H10425   6.995  10.989   2.174 -0.2334  0.7248  1.2539
  818MOL0     H10426   7.223  10.977   2.212 -2.1863 -0.6336  0.4307
  818MOL0     H10427   7.155  11.059   2.362 -1.1171 -0.3945  0.2192
  818MOL0     H10428   7.453  11.315   2.183  0.1185 -1.5726 -2.5646
  818MOL0     H10429   6.582  10.906   2.245 -0.6982 -1.6248 -1.1350
  818MOL0     H10430   6.336  10.900   2.219 -0.6029 -1.0083 -2.6336
  819MOL0     O10431   8.434   6.706   9.992 -0.0051 -0.0132  0.6079
  819MOL0     C10432   8.413   6.825   9.973  0.3776  0.9815  0.0099
  819MOL0     O10433   8.298   6.879   9.930 -0.0771 -0.5058 -0.1409
  819MOL0     C10434   8.191   6.791   9.908 -0.4897  0.7110 -0.2623
  819MOL0     C10435   8.190   6.708   9.800  0.2082  0.6654  0.0858
  819MOL0     C10436   8.077   6.630   9.778  0.5111  0.0122 -0.4145
  819MOL0     C10437   7.960   6.643   9.854 -1.0424  0.2017  0.0973
  819MOL0     O10438   7.849   6.569   9.830 -0.5118 -0.1119 -0.2514
  819MOL0     C10439   7.790   6.543   9.701 -0.8918  0.0665  0.1332
  819MOL0     C10440   7.837   6.405   9.647  0.7847 -0.7252  0.3036
  819MOL0     C10441   7.765   6.276   9.708 -0.4382  0.4298  0.1074
  819MOL0     C10442   7.780   6.260   9.862 -0.3626 -0.1076  0.2625
  819MOL0     C10443   7.817   6.124   9.912 -0.1732 -0.8164 -0.3786
  819MOL0     C10444   7.711   6.019   9.885  0.1940  0.6008 -0.8506
  819MOL0     C10445   7.580   6.057   9.965  0.1194  0.6512 -0.1133
  819MOL0     C10446   7.497   5.928   9.986 -0.1178  0.1732  0.7192
  819MOL0     N10447   7.370   5.949  10.051  0.0161  0.1963 -0.1834
  819MOL0     C10448   7.348   5.990  10.183  0.1793 -0.1820 -0.2422
  819MOL0     C10449   7.211   5.986  10.197 -0.7470  0.2200 -0.6203
  819MOL0     C10450   7.126   6.002  10.323 -0.9213 -0.0568 -0.0344
  819MOL0     C10451   7.074   6.143  10.372 -0.4317  0.0498 -0.3411
  819MOL0     C10452   6.944   6.185  10.313 -0.2430  0.3241 -0.6482
  819MOL0     C10453   6.823   6.110  10.367 -0.5764 -0.4319  0.2428
  819MOL0     O10454   6.785   6.145  10.500 -0.4335 -0.3793  0.7253
  819MOL0     C10455   6.648   6.158  10.528 -0.1479  0.7277 -1.2197
  819MOL0     C10456   6.538   6.101  10.450 -1.6032  0.3559 -0.6567
  819MOL0     C10457   6.410   6.128  10.491 -0.7646  0.7731 -0.3461
  819MOL0     C10458   6.303   6.076  10.404 -0.0851 -0.7771 -0.6582
  819MOL0     C10459   6.387   6.197  10.616 -0.1293  1.0561 -0.5881
  819MOL0     C10460   6.250   6.235  10.667  0.3700 -0.7288  0.3093
  819MOL0     O10461   6.143   6.158  10.624 -0.0920  0.7765 -0.0434
  819MOL0     C10462   6.009   6.192  10.634  0.6231  0.0351 -0.3143
  819MOL0     C10463   5.952   6.250  10.747 -0.0088 -0.0999  0.9502
  819MOL0     C10464   5.819   6.291  10.749 -0.2122 -0.0505  0.2749
  819MOL0     C10465   5.730   6.250  10.651  0.0422  0.4124  0.3404
  819MOL0     O10466   5.599   6.272  10.665  0.3155  0.4808 -0.3073
  819MOL0     C10467   5.560   6.407  10.704  0.6803  1.0131  0.4844
  819MOL0     C10468   5.432   6.456  10.636  0.2241 -0.1455  0.7951
  819MOL0     C10469   5.299   6.371  10.655  0.5383 -0.8487  0.5349
  819MOL0     C10470   5.275   6.228  10.601  0.0871  0.0122 -0.2946
  819MOL0     C10471   5.127   6.191  10.642 -0.5395  0.0941 -0.9206
  819MOL0     C10472   5.096   6.051  10.585 -0.2423 -0.2270 -0.5785
  819MOL0     C10473   4.967   5.993  10.646 -0.0063  0.4159 -0.3894
  819MOL0     C10474   4.926   5.864  10.573  0.3719 -0.3491 -0.7535
  819MOL0    Cl10475   4.780   5.793  10.643  0.5148 -0.3938  0.0669
  819MOL0     C10476   5.784   6.178  10.542  0.7646 -0.6795  0.4379
  819MOL0     C10477   5.919   6.166  10.523 -1.2937 -0.2284 -0.1590
  819MOL0     O10478   6.238   6.321  10.756  0.0207 -0.0756  0.3101
  819MOL0     C10479   6.494   6.236  10.695 -0.7897 -0.5772  0.1330
  819MOL0     C10480   6.620   6.224  10.645 -0.0807  0.6129  0.6549
  819MOL0     N10481   7.160   5.966  10.069  0.1909  0.3766 -0.5303
  819MOL0     N10482   7.251   5.942   9.987 -0.4798  0.6269 -0.4183
  819MOL0     C10483   7.966   6.725   9.971 -0.1998  0.2637  1.4074
  819MOL0     C10484   8.081   6.797   9.994  0.3819  0.0458  0.2070
  819MOL0     C10485   8.527   6.920   9.986 -0.0782 -0.2333 -0.0189
  819MOL0     C10486   8.520   7.053   9.949  0.3611  0.4764  0.5421
  819MOL0     C10487   8.621   7.146   9.975 -0.3016  0.3956  0.1203
  819MOL0     C10488   8.745   7.099  10.011  0.0618 -0.5705  0.0873
  819MOL0     O10489   8.857   7.175  10.040 -0.1051 -0.1454 -0.4553
  819MOL0     C10490   8.855   7.314   9.987 -0.4075 -0.1782 -0.5041
  819MOL0     C10491   8.989   7.392  10.019  0.8527  0.3323 -0.6554
  819MOL0     C10492   8.995   7.427  10.175 -0.2520 -0.5820 -0.0003
  819MOL0     C10493   9.122   7.513  10.193  0.1981  0.1929 -0.3798
  819MOL0     C10494   9.102   7.649  10.145  0.8901 -0.0843 -0.4236
  819MOL0     C10495   9.080   7.757  10.090  0.2061 -0.8405  0.3556
  819MOL0     C10496   8.766   6.961  10.015  0.4137 -0.6479 -0.5568
  819MOL0     C10497   8.653   6.868  10.010 -0.1769  0.1244 -0.2027
  819MOL0     H10498   8.275   6.705   9.733 -0.7908 -0.0989 -1.1956
  819MOL0     H10499   8.077   6.569   9.688  3.6063  2.1585 -2.0290
  819MOL0     H10500   7.682   6.537   9.718 -0.5360  0.6260  3.0712
  819MOL0     H10501   7.818   6.619   9.627 -1.2716  1.3795  1.2909
  819MOL0     H10502   7.808   6.411   9.542  0.7287 -0.6181  0.3247
  819MOL0     H10503   7.946   6.405   9.654  0.7415  1.2905  2.3360
  819MOL0     H10504   7.662   6.271   9.670 -0.2443 -0.1521 -0.3600
  819MOL0     H10505   7.824   6.195   9.664  1.5753  0.7015  2.1399
  819MOL0     H10506   7.858   6.330   9.894  1.1383  0.5000 -4.1012
  819MOL0     H10507   7.686   6.289   9.910 -1.4220 -0.5726 -1.4297
  819MOL0     H10508   7.915   6.104   9.869  0.9914  1.7016  0.8604
  819MOL0     H10509   7.839   6.147  10.017  0.1316 -1.3544 -0.3245
  819MOL0     H10510   7.687   6.014   9.779 -0.2417 -1.8053 -0.6960
  819MOL0     H10511   7.745   5.924   9.927 -0.4640  0.3598 -0.8666
  819MOL0     H10512   7.611   6.101  10.061  0.9644  0.3994 -0.2617
  819MOL0     H10513   7.528   6.131   9.905 -0.2004 -1.1632 -2.1867
  819MOL0     H10514   7.554   5.855  10.043 -0.4960 -0.9596 -0.3160
  819MOL0     H10515   7.475   5.889   9.886  0.4506  1.2371  0.1606
  819MOL0     H10516   7.428   6.008  10.254 -0.7268 -1.6786  1.2414
  819MOL0     H10517   7.047   5.929  10.306  0.7144 -1.9207 -0.0356
  819MOL0     H10518   7.187   5.970  10.409  1.3885  1.1558 -1.1173
  819MOL0     H10519   7.153   6.215  10.345 -2.0654  1.0844 -2.7104
  819MOL0     H10520   7.059   6.146  10.480 -0.2018 -1.9964 -0.2262
  819MOL0     H10521   6.954   6.172  10.205  1.0526  1.4210 -0.6853
  819MOL0     H10522   6.934   6.293  10.324 -1.2330  0.2192 -0.4464
  819MOL0     H10523   6.845   6.004  10.361 -1.4152 -0.7167  1.6431
  819MOL0     H10524   6.746   6.135  10.293  1.4181  1.8560 -1.2140
  819MOL0     H10525   6.556   6.033  10.367 -0.0687 -0.7676  0.5392
  819MOL0     H10526   6.208   6.131  10.410  0.0347 -0.7499  3.1751
  819MOL0     H10527   6.332   6.064  10.299 -0.3070  1.9677 -1.1052
  819MOL0     H10528   6.282   5.975  10.439  0.7735 -1.0295 -0.8416
  819MOL0     H10529   6.007   6.268  10.839 -1.3750  0.3492  1.6978
  819MOL0     H10530   5.781   6.347  10.834 -0.0563  1.5738 -0.6980
  819MOL0     H10531   5.538   6.404  10.811 -1.5119 -0.6168  0.0573
  819MOL0     H10532   5.645   6.475  10.701  1.9069 -0.4621  0.1043
  819MOL0     H10533   5.420   6.562  10.661  2.3653  0.6704 -1.2498
  819MOL0     H10534   5.453   6.457  10.528  0.1625  0.1861  0.7848
  819MOL0     H10535   5.220   6.437  10.620 -0.5876 -1.7270  1.3502
  819MOL0     H10536   5.293   6.356  10.764  1.4132  0.9983  0.8731
  819MOL0     H10537   5.282   6.219  10.492 -1.6305 -0.4251 -0.3988
  819MOL0     H10538   5.341   6.159  10.655 -1.5062 -0.7411  0.7850
  819MOL0     H10539   5.049   6.256  10.600 -2.1548 -0.8904  0.4413
  819MOL0     H10540   5.117   6.200  10.751 -0.4207 -1.8893 -0.7096
  819MOL0     H10541   5.077   6.060  10.477 -4.8417 -3.6635 -0.3709
  819MOL0     H10542   5.180   5.984  10.606 -0.2253  0.4016  1.6654
  819MOL0     H10543   4.879   6.057  10.656 -0.9807 -1.0948  1.3920
  819MOL0     H10544   4.978   5.965  10.751 -0.7979  0.8353 -0.1825
  819MOL0     H10545   5.017   5.803  10.563  1.6524  1.2782  0.3668
  819MOL0     H10546   4.896   5.892  10.472  2.8962 -0.1966 -1.5383
  819MOL0     H10547   5.710   6.138  10.474  1.5444 -0.5630 -0.5044
  819MOL0     H10548   5.956   6.133  10.427  1.3694  2.6654 -0.2725
  819MOL0     H10549   6.493   6.301  10.782 -0.4703  0.9204 -0.9338
  819MOL0     H10550   6.716   6.254  10.685  1.1854 -3.0326  0.7288
  819MOL0     H10551   7.887   6.719  10.045 -1.9749 -0.5603 -0.4261
  819MOL0     H10552   8.090   6.858  10.083  1.2504 -0.1227  0.2454
  819MOL0     H10553   8.428   7.096   9.912  1.0846  0.2256 -1.7462
  819MOL0     H10554   8.595   7.248   9.950 -0.9416 -0.0593 -1.1516
  819MOL0     H10555   8.851   7.329   9.878  0.1900  4.5354 -0.0931
  819MOL0     H10556   8.769   7.368  10.028  0.5516  2.1293 -1.4015
  819MOL0     H10557   8.986   7.479   9.953  0.1179  0.8319  0.0179
  819MOL0     H10558   9.071   7.322  10.000  1.0407  0.9783 -2.4360
  819MOL0     H10559   9.007   7.336  10.234  3.5093 -1.1585 -1.3504
  819MOL0     H10560   8.906   7.486  10.200  1.2486  1.4859  0.7820
  819MOL0     H10561   9.207   7.469  10.141  0.6030  0.7307 -0.1760
  819MOL0     H10562   9.142   7.520  10.301 -1.1219 -1.5599  0.0347
  819MOL0     H10563   9.076   7.840  10.023  1.0127 -1.8368 -0.9799
  819MOL0     H10564   8.870   6.930  10.022  0.7158  0.1163 -1.4524
  819MOL0     H10565   8.673   6.762  10.016  4.1966  0.8335  2.3671
  820MOL0     O10566  10.007  11.025   6.540 -0.4240  0.4352  0.5808
  820MOL0     C10567  10.030  11.079   6.435  1.0324  0.7776 -0.4349
  820MOL0     O10568   9.942  11.104   6.337  1.2442 -0.2337  0.6169
  820MOL0     C10569   9.805  11.099   6.372 -0.5455 -0.1504  0.7830
  820MOL0     C10570   9.733  11.221   6.349 -0.1788 -0.2317 -0.1231
  820MOL0     C10571   9.593  11.217   6.361 -0.1822 -0.2215 -0.1851
  820MOL0     C10572   9.525  11.104   6.387  0.1187 -0.8894 -0.4138
  820MOL0     O10573   9.393  11.115   6.412  0.6929 -0.5946  0.2625
  820MOL0     C10574   9.307  11.003   6.388 -0.3230  0.1661  0.1714
  820MOL0     C10575   9.170  11.065   6.371 -0.0561  0.5564  0.1552
  820MOL0     C10576   9.153  11.156   6.246 -0.6378  1.4047 -0.5524
  820MOL0     C10577   9.014  11.137   6.178 -0.2460 -0.2946 -0.8311
  820MOL0     C10578   8.915  11.229   6.257 -0.5971  0.8702 -0.1957
  820MOL0     C10579   8.772  11.209   6.227 -0.4229 -0.0509  0.6634
  820MOL0     C10580   8.720  11.075   6.281 -0.4243 -0.0514 -0.3343
  820MOL0     C10581   8.578  11.087   6.345  0.0211 -0.0787  0.2468
  820MOL0     N10582   8.480  11.069   6.239 -0.3065  0.3349 -0.1853
  820MOL0     C10583   8.432  10.946   6.198  0.6220 -0.6703 -0.5197
  820MOL0     C10584   8.324  10.974   6.118 -0.1277 -0.0892 -0.2761
  820MOL0     C10585   8.224  10.865   6.071 -0.0863  0.0595 -0.6256
  820MOL0     C10586   8.111  10.819   6.166  0.4259  0.5224  0.1088
  820MOL0     C10587   8.005  10.762   6.066  0.7373 -1.0921  0.1264
  820MOL0     C10588   7.890  10.681   6.125  0.3104  0.6158 -0.4803
  820MOL0     O10589   7.807  10.757   6.215  0.8891 -0.4690 -0.5182
  820MOL0     C10590   7.701  10.691   6.273 -0.9172  0.4037 -0.4852
  820MOL0     C10591   7.668  10.563   6.267  0.7734  0.2894  0.4122
  820MOL0     C10592   7.546  10.500   6.318  0.3169  0.2772  0.7155
  820MOL0     C10593   7.509  10.354   6.294 -0.1829 -0.6347 -0.0948
  820MOL0     C10594   7.461  10.588   6.390 -0.7039  0.0579 -0.9121
  820MOL0     C10595   7.330  10.548   6.445  0.1811  0.6768 -0.3344
  820MOL0     O10596   7.263  10.641   6.516  0.2305  0.5379  0.5472
  820MOL0     C10597   7.147  10.611   6.578 -0.0617 -0.2728  0.2512
  820MOL0     C10598   7.136  10.566   6.716 -0.1471 -0.3462  0.5543
  820MOL0     C10599   7.018  10.539   6.773  0.1169  0.4293 -0.6116
  820MOL0     C10600   6.900  10.564   6.700  0.0945 -0.7913  0.0336
  820MOL0     O10601   6.777  10.562   6.763  0.5264 -0.0505  0.5769
  820MOL0     C10602   6.771  10.634   6.888 -0.3176  0.0006 -0.4315
  820MOL0     C10603   6.633  10.680   6.919 -0.3735  0.6721  0.7296
  820MOL0     C10604   6.565  10.763   6.810 -0.1682  0.0745 -0.7056
  820MOL0     C10605   6.416  10.773   6.835 -1.0564 -0.2479 -0.2417
  820MOL0     C10606   6.348  10.832   6.705  0.1325  0.0537  0.1240
  820MOL0     C10607   6.195  10.863   6.714  0.3417 -0.5033  0.1019
  820MOL0     C10608   6.172  10.960   6.827  0.2980  0.9921  0.2295
  820MOL0     C10609   6.023  10.991   6.857 -0.3009  0.4245  0.2064
  820MOL0    Cl10610   6.016  11.134   6.958  0.0617 -0.0989 -0.2011
  820MOL0     C10611   6.907  10.607   6.568 -0.3559 -0.5979  0.0282
  820MOL0     C10612   7.028  10.628   6.506  0.1648 -0.6241  0.2174
  820MOL0     O10613   7.291  10.430   6.434 -0.4145  0.0803 -0.2340
  820MOL0     C10614   7.493  10.720   6.396  0.0318 -0.3815 -0.1769
  820MOL0     C10615   7.609  10.770   6.341  0.1355 -0.1720 -0.1181
  820MOL0     N10616   8.321  11.113   6.095 -0.1304  0.2821  0.6848
  820MOL0     N10617   8.417  11.168   6.169  0.3659 -0.2806 -0.1855
  820MOL0     C10618   9.596  10.986   6.421  0.3317 -1.0858 -0.6609
  820MOL0     C10619   9.735  10.987   6.407  0.9865 -0.5667  0.5902
  820MOL0     C10620  10.164  11.116   6.404 -0.2057  0.1841  0.9001
  820MOL0     C10621  10.278  11.085   6.484 -0.3590 -0.4586  0.0894
  820MOL0     C10622  10.408  11.139   6.450 -0.4112  0.6868  0.9861
  820MOL0     C10623  10.426  11.202   6.323 -0.9453  0.5525  0.4161
  820MOL0     O10624  10.548  11.260   6.278  0.2663 -0.2146 -0.0934
  820MOL0     C10625  10.670  11.241   6.370  0.8823  0.4648 -1.0619
  820MOL0     C10626  10.793  11.281   6.294  0.2870  0.1646 -0.4490
  820MOL0     C10627  10.796  11.430   6.239 -0.4566  0.3742  0.3357
  820MOL0     C10628  10.945  11.476   6.225  0.8323  0.6555 -0.1772
  820MOL0     C10629  11.002  11.522   6.351 -0.6839  0.0117 -0.3214
  820MOL0     C10630  11.040  11.553   6.458 -0.0780 -0.2698  0.2745
  820MOL0     C10631  10.312  11.235   6.249 -0.6461  0.5843 -0.0896
  820MOL0     C10632  10.190  11.196   6.291  0.5700 -0.6345 -0.6693
  820MOL0     H10633   9.795  11.310   6.343 -1.3231  0.6664  0.9068
  820MOL0     H10634   9.530  11.305   6.366  0.5701  0.2854  0.6280
  820MOL0     H10635   9.341  10.943   6.302 -1.3927  0.5323 -0.5332
  820MOL0     H10636   9.302  10.939   6.476 -0.8405  0.0228  0.0453
  820MOL0     H10637   9.089  10.991   6.369  0.8633 -0.5053  0.9051
  820MOL0     H10638   9.155  11.116   6.466  1.9707  0.7539  0.4065
  820MOL0     H10639   9.172  11.261   6.270  1.0055  1.2712 -1.1492
  820MOL0     H10640   9.232  11.124   6.177 -2.3327 -2.7901 -0.8295
  820MOL0     H10641   9.012  11.178   6.077 -1.4640 -2.4010 -1.7445
  820MOL0     H10642   8.984  11.032   6.180  2.4605 -1.1951  2.8306
  820MOL0     H10643   8.926  11.211   6.364 -4.4093 -1.7915 -0.0353
  820MOL0     H10644   8.935  11.331   6.223  2.0216  0.3715 -0.3614
  820MOL0     H10645   8.711  11.286   6.276 -1.2230 -0.5129  0.4143
  820MOL0     H10646   8.756  11.214   6.119  1.2721  0.4782  0.4077
  820MOL0     H10647   8.723  10.995   6.207 -0.4988  0.8836 -1.3866
  820MOL0     H10648   8.779  11.044   6.368 -0.4429 -1.5748 -0.8369
  820MOL0     H10649   8.562  11.187   6.388  0.7639  0.0602  0.2134
  820MOL0     H10650   8.551  11.008   6.416 -4.8572  0.8369 -0.2285
  820MOL0     H10651   8.472  10.849   6.226  0.4712 -0.3470  0.8651
  820MOL0     H10652   8.172  10.904   5.984 -2.3166 -3.2705 -0.9562
  820MOL0     H10653   8.280  10.775   6.041  1.0342  0.6371 -0.3318
  820MOL0     H10654   8.075  10.910   6.216  0.3506  0.2237  0.6078
  820MOL0     H10655   8.146  10.745   6.239  0.4742 -1.4662 -1.8324
  820MOL0     H10656   8.053  10.697   5.993  2.0038 -2.0336  1.7277
  820MOL0     H10657   7.962  10.847   6.012  1.3461 -0.8779 -0.0218
  820MOL0     H10658   7.939  10.602   6.181 -0.7484 -1.2787 -2.1086
  820MOL0     H10659   7.833  10.629   6.047 -0.1045 -0.6746  0.6684
  820MOL0     H10660   7.723  10.494   6.203 -2.5820 -0.9325 -1.4535
  820MOL0     H10661   7.587  10.300   6.241  0.4941 -1.5211  1.7143
  820MOL0     H10662   7.496  10.304   6.391 -0.3959  1.9843  1.3220
  820MOL0     H10663   7.418  10.346   6.235 -2.7244 -0.8126  3.4889
  820MOL0     H10664   7.225  10.563   6.778 -1.3653  0.2507  2.3802
  820MOL0     H10665   7.011  10.509   6.877 -2.9118  1.2706 -0.4714
  820MOL0     H10666   6.809  10.566   6.965  0.1828 -0.9661 -1.5139
  820MOL0     H10667   6.836  10.722   6.883  1.5799 -1.3971 -1.4715
  820MOL0     H10668   6.580  10.586   6.936  3.1097 -1.5105  0.4532
  820MOL0     H10669   6.627  10.739   7.011 -0.5916  1.3365  0.2920
  820MOL0     H10670   6.578  10.708   6.717 -0.3319 -1.1351 -0.0368
  820MOL0     H10671   6.601  10.866   6.805 -0.8178  0.2841 -1.1869
  820MOL0     H10672   6.376  10.677   6.867  1.5080 -0.9686  1.0987
  820MOL0     H10673   6.414  10.850   6.913  2.8803  0.7854 -0.9134
  820MOL0     H10674   6.360  10.754   6.629 -0.0525  1.0240 -0.9495
  820MOL0     H10675   6.385  10.928   6.666 -1.4097  1.7447  2.5596
  820MOL0     H10676   6.168  10.910   6.619  1.4111 -0.0603 -0.0029
  820MOL0     H10677   6.132  10.774   6.724 -0.2981  0.1033  1.8002
  820MOL0     H10678   6.228  11.050   6.800 -0.0079  0.8847 -0.8326
  820MOL0     H10679   6.206  10.912   6.919  0.1915 -1.6844 -1.0387
  820MOL0     H10680   5.978  10.908   6.912 -2.5058  0.5938 -1.2121
  820MOL0     H10681   5.970  11.004   6.762 -1.8249  0.9946  1.0909
  820MOL0     H10682   6.810  10.613   6.520 -0.0889 -2.4389 -0.8311
  820MOL0     H10683   7.020  10.663   6.403 -4.0696 -1.6856 -0.0087
  820MOL0     H10684   7.429  10.796   6.442 -1.5821 -0.6324 -1.9045
  820MOL0     H10685   7.642  10.871   6.365  0.6831  0.6780 -3.7725
  820MOL0     H10686   9.538  10.900   6.453  1.8983 -2.6007 -1.6626
  820MOL0     H10687   9.787  10.894   6.428 -0.3825 -2.1600 -2.3939
  820MOL0     H10688  10.280  11.042   6.583 -0.9602 -2.2395 -0.6327
  820MOL0     H10689  10.492  11.128   6.517  0.7798 -0.2071 -0.5880
  820MOL0     H10690  10.665  11.298   6.464  3.5064 -1.0468  0.1067
  820MOL0     H10691  10.669  11.138   6.407  0.0725  1.1339  0.9735
  820MOL0     H10692  10.809  11.205   6.217 -0.9277 -3.6762  2.7620
  820MOL0     H10693  10.870  11.271   6.371 -1.4152 -0.2543  1.2557
  820MOL0     H10694  10.747  11.506   6.301 -1.1057  1.2010 -1.1233
  820MOL0     H10695  10.745  11.429   6.142  0.8156 -1.0114 -0.3534
  820MOL0     H10696  10.944  11.560   6.154  0.0351 -0.5721 -1.6704
  820MOL0     H10697  10.999  11.391   6.185  2.3007  2.2253 -1.6849
  820MOL0     H10698  11.085  11.567   6.555  1.3606 -1.1667 -0.2361
  820MOL0     H10699  10.318  11.298   6.161 -1.7404  1.6356  0.5528
  820MOL0     H10700  10.110  11.229   6.225  0.3603  1.4755  0.5359
  821MOL0     O10701   5.912  10.268  10.537  0.0226 -0.2957 -0.4033
  821MOL0     C10702   5.960  10.174  10.482 -0.5541 -0.1915  0.1795
  821MOL0     O10703   5.891  10.071  10.427  0.5171  0.1822 -0.4591
  821MOL0     C10704   5.750  10.074  10.410 -0.2612  0.9576 -0.6157
  821MOL0     C10705   5.708   9.962  10.351 -0.0054  0.6425  0.0375
  821MOL0     C10706   5.569   9.948  10.323  0.1045 -0.6318 -0.2809
  821MOL0     C10707   5.469  10.044  10.352  0.0797  1.3875 -0.2778
  821MOL0     O10708   5.340  10.014  10.311 -0.3783  0.1018 -0.0888
  821MOL0     C10709   5.244  10.115  10.292 -0.1699 -0.3415  0.8507
  821MOL0     C10710   5.109  10.063  10.258  0.1180  0.2679 -0.8678
  821MOL0     C10711   5.056   9.967  10.377 -0.3351 -0.2355 -0.5036
  821MOL0     C10712   4.932   9.886  10.345 -0.3810  0.6826 -0.1340
  821MOL0     C10713   4.807   9.966  10.359 -0.9102 -0.6490 -0.0655
  821MOL0     C10714   4.690   9.880  10.309 -0.1009  0.0965 -0.3081
  821MOL0     C10715   4.558   9.921  10.377 -0.4588 -0.9651 -0.6262
  821MOL0     C10716   4.514  10.055  10.314  0.3769  0.9079 -0.5685
  821MOL0     N10717   4.361  10.067  10.333 -0.2578 -0.2542 -0.5495
  821MOL0     C10718   4.288  10.055  10.445 -0.3781 -0.1317 -0.3817
  821MOL0     C10719   4.162  10.050  10.402  0.4213  0.4873 -0.0394
  821MOL0     C10720   4.043  10.020  10.491  0.4417 -0.4661  0.3923
  821MOL0     C10721   3.993  10.111  10.601 -0.6854 -0.0783  0.0992
  821MOL0     C10722   4.001  10.266  10.587  0.6021 -0.3890 -0.7552
  821MOL0     C10723   3.894  10.341  10.509  0.4347  0.0436  0.9018
  821MOL0     O10724   3.771  10.339  10.578 -0.7530 -0.1732 -0.0690
  821MOL0     C10725   3.657  10.381  10.516 -0.1368  0.9051  0.0174
  821MOL0     C10726   3.650  10.468  10.409 -0.4552 -0.5451 -0.2586
  821MOL0     C10727   3.531  10.487  10.342  0.4183  0.0184 -0.7355
  821MOL0     C10728   3.532  10.572  10.217  1.2070  0.2076  0.1167
  821MOL0     C10729   3.414  10.417  10.388 -0.3063  1.1520  0.0805
  821MOL0     C10730   3.276  10.415  10.329  0.6499 -0.0480  0.4593
  821MOL0     O10731   3.203  10.312  10.374 -0.8325 -0.0253 -0.0712
  821MOL0     C10732   3.074  10.300  10.328 -0.0510 -0.4566 -0.4987
  821MOL0     C10733   3.028  10.189  10.242 -0.7362 -0.0299  0.1880
  821MOL0     C10734   2.901  10.188  10.194  0.1319 -0.1423 -0.4964
  821MOL0     C10735   2.813  10.292  10.214 -0.7334  0.1745  0.3341
  821MOL0     O10736   2.693  10.286  10.149  0.4215 -1.1083  0.3784
  821MOL0     C10737   2.588  10.381  10.185 -0.6186  0.1970 -0.2328
  821MOL0     C10738   2.486  10.372  10.071 -1.0097 -0.1581  0.5487
  821MOL0     C10739   2.375  10.476  10.072 -0.0505 -0.1100 -0.3600
  821MOL0     C10740   2.295  10.488   9.947 -0.4278 -0.4669  1.3086
  821MOL0     C10741   2.241  10.633   9.921 -0.2399 -0.2553  0.6908
  821MOL0     C10742   2.173  10.689  10.051  0.9211 -0.6565  0.2657
  821MOL0     C10743   2.045  10.617  10.099 -0.2506 -0.1025 -0.3420
  821MOL0     C10744   1.920  10.656  10.021 -0.6966  0.0562 -0.1850
  821MOL0    Cl10745   1.879  10.820  10.073  0.3664  0.2299 -0.0336
  821MOL0     C10746   2.851  10.387  10.310  0.0501 -0.5954 -0.5953
  821MOL0     C10747   2.981  10.385  10.368 -0.2092  0.0880 -0.7224
  821MOL0     O10748   3.242  10.492  10.243 -0.6461  0.5761  0.0807
  821MOL0     C10749   3.428  10.338  10.496 -0.0554  0.5344  0.0004
  821MOL0     C10750   3.542  10.320  10.563 -0.2150  0.0041 -0.1934
  821MOL0     N10751   4.160  10.069  10.265  0.1347 -0.3091  0.1088
  821MOL0     N10752   4.282  10.081  10.221 -0.0577 -0.6318 -0.0062
  821MOL0     C10753   5.516  10.164  10.418  0.2852  0.7426 -0.2828
  821MOL0     C10754   5.657  10.175  10.445  0.2982  0.4459  0.5530
  821MOL0     C10755   6.107  10.175  10.461 -0.0539 -1.0579  0.7786
  821MOL0     C10756   6.198  10.268  10.515 -0.8433 -0.5962 -1.0941
  821MOL0     C10757   6.332  10.273  10.494 -0.6488  0.4315 -0.4327
  821MOL0     C10758   6.392  10.172  10.417  0.1350  0.8642 -0.1106
  821MOL0     O10759   6.526  10.192  10.380 -0.2244 -0.3057 -0.0634
  821MOL0     C10760   6.617  10.081  10.355  0.4186  0.9332 -0.1211
  821MOL0     C10761   6.668  10.009  10.483 -0.2162  0.0734 -0.3309
  821MOL0     C10762   6.737  10.098  10.579 -0.2627  0.0945 -0.4415
  821MOL0     C10763   6.868  10.175  10.522 -0.0497  0.2344  0.1006
  821MOL0     C10764   6.963  10.070  10.470  0.7661 -0.3900 -1.0282
  821MOL0     C10765   7.042   9.990  10.418  0.3602 -0.3730 -0.4031
  821MOL0     C10766   6.311  10.077  10.359  0.2626  0.0647  0.1872
  821MOL0     C10767   6.175  10.077  10.379  0.7603 -0.2207 -0.3030
  821MOL0     H10768   5.788   9.891  10.333 -1.1367 -0.2132 -1.8871
  821MOL0     H10769   5.530   9.857  10.278 -0.7050  0.8897 -2.8885
  821MOL0     H10770   5.234  10.167  10.388 -0.1652  1.9444 -0.2977
  821MOL0     H10771   5.270  10.187  10.214 -0.0574 -0.5478  0.6974
  821MOL0     H10772   5.046  10.151  10.241  0.9835  1.0027 -0.3727
  821MOL0     H10773   5.108  10.013  10.161  1.9884  1.5679 -1.6275
  821MOL0     H10774   5.137   9.897  10.401  1.9834  2.2888 -0.4631
  821MOL0     H10775   5.058  10.020  10.473  3.9759  0.1666 -0.6188
  821MOL0     H10776   4.941   9.845  10.244  1.2978 -0.1408  0.3267
  821MOL0     H10777   4.923   9.797  10.407 -0.9820  0.0163 -1.1370
  821MOL0     H10778   4.795   9.982  10.467  0.9873 -2.4975  0.4972
  821MOL0     H10779   4.820  10.060  10.305 -3.8849  0.1264  0.4305
  821MOL0     H10780   4.687   9.879  10.199 -0.1546  2.3769 -0.3864
  821MOL0     H10781   4.710   9.780  10.347  0.9889  0.8842  1.3294
  821MOL0     H10782   4.472   9.855  10.363 -1.0999 -0.5945  1.2895
  821MOL0     H10783   4.565   9.936  10.485 -0.3377 -0.4212 -0.7076
  821MOL0     H10784   4.536  10.050  10.207 -2.7716  0.4369 -1.2924
  821MOL0     H10785   4.555  10.142  10.367  2.6815 -0.7843  0.6181
  821MOL0     H10786   4.314  10.037  10.549 -0.7530 -1.1264 -0.4445
  821MOL0     H10787   3.961   9.998  10.421  0.7192 -0.8901  0.1957
  821MOL0     H10788   4.063   9.929  10.548 -0.4327 -1.3018 -0.5919
  821MOL0     H10789   4.049  10.095  10.694  0.3025  2.0352 -0.0539
  821MOL0     H10790   3.886  10.089  10.608 -0.9758  1.2681  0.2606
  821MOL0     H10791   4.099  10.287  10.543  1.0854 -0.0921  0.4059
  821MOL0     H10792   4.011  10.315  10.685  0.5499 -0.5907 -0.6486
  821MOL0     H10793   3.890  10.304  10.406  0.8587 -0.1234  0.9432
  821MOL0     H10794   3.934  10.441  10.491 -1.1577  1.0113  2.5256
  821MOL0     H10795   3.740  10.517  10.372 -1.9225  0.3472 -3.0115
  821MOL0     H10796   3.511  10.512  10.128  0.6767  0.3341  0.1557
  821MOL0     H10797   3.453  10.645  10.238 -0.1509 -2.0552  3.6493
  821MOL0     H10798   3.629  10.618  10.196  0.8805  0.3260 -1.2070
  821MOL0     H10799   3.108  10.117  10.226  0.6204  1.6022 -0.6989
  821MOL0     H10800   2.861  10.111  10.129 -1.6818  0.2133  0.1318
  821MOL0     H10801   2.538  10.342  10.274 -2.4077  2.9225  0.0618
  821MOL0     H10802   2.620  10.485  10.194 -2.1212  0.5320  1.9327
  821MOL0     H10803   2.541  10.381   9.977  0.8592 -0.3782  1.5634
  821MOL0     H10804   2.445  10.271  10.077  2.8641 -1.8683  1.6947
  821MOL0     H10805   2.416  10.575  10.096  1.4802 -0.6243 -0.7203
  821MOL0     H10806   2.311  10.457  10.159  1.1084  4.7811  1.9317
  821MOL0     H10807   2.352  10.467   9.856 -1.5864  1.2605  0.1086
  821MOL0     H10808   2.211  10.418   9.948  0.2351 -1.5889 -2.8016
  821MOL0     H10809   2.178  10.640   9.832  1.2601 -0.0776 -0.3976
  821MOL0     H10810   2.327  10.697   9.900  2.5612 -3.7367  0.7413
  821MOL0     H10811   2.252  10.697  10.126  1.1021  1.5925 -0.0977
  821MOL0     H10812   2.140  10.790  10.027 -0.1553 -1.2420 -0.8195
  821MOL0     H10813   2.035  10.641  10.205  0.2023 -1.2041 -0.0410
  821MOL0     H10814   2.054  10.510  10.080 -3.9689 -0.0636 -3.5722
  821MOL0     H10815   1.834  10.591  10.039  1.3516 -2.4653  1.0697
  821MOL0     H10816   1.928  10.645   9.912  0.1178 -0.9125 -0.0430
  821MOL0     H10817   2.798  10.478  10.334  1.3523  0.4135 -1.4146
  821MOL0     H10818   3.012  10.470  10.428 -1.5144  2.9846 -3.8274
  821MOL0     H10819   3.351  10.274  10.538  0.6234  1.3496  2.7118
  821MOL0     H10820   3.554  10.240  10.636  2.7987  0.9762  0.5044
  821MOL0     H10821   5.440  10.236  10.446  0.2123  0.2249  0.8924
  821MOL0     H10822   5.677  10.270  10.494  1.0406 -1.7732  5.1747
  821MOL0     H10823   6.168  10.350  10.579 -1.3627  0.1678 -2.2839
  821MOL0     H10824   6.397  10.343  10.544 -0.3741 -0.8560  1.1256
  821MOL0     H10825   6.559  10.001  10.307  1.4932 -0.3503  0.6378
  821MOL0     H10826   6.697  10.113  10.287 -1.3382  2.2240 -1.6857
  821MOL0     H10827   6.730   9.928  10.444  1.0881 -0.3918  2.4133
  821MOL0     H10828   6.581   9.969  10.535  0.6943  0.6391  1.7667
  821MOL0     H10829   6.763  10.050  10.673  2.0585  4.8235  1.6913
  821MOL0     H10830   6.669  10.172  10.623  0.5914  0.1039  0.9129
  821MOL0     H10831   6.924  10.231  10.598  1.2384 -0.4446 -0.3254
  821MOL0     H10832   6.844  10.239  10.437 -0.1857  1.0341  0.7299
  821MOL0     H10833   7.101   9.915  10.371  1.5783  1.1506 -1.3976
  821MOL0     H10834   6.351   9.996  10.299  0.8213  0.8180 -0.4762
  821MOL0     H10835   6.111  10.001  10.337  0.2819  0.6086 -1.1147
  822MOL0     O10836   7.637   6.086   8.167 -0.4202 -0.0587  0.3432
  822MOL0     C10837   7.654   6.177   8.253  0.1551  0.0142 -0.1886
  822MOL0     O10838   7.576   6.182   8.371 -0.0435  0.1441  0.1401
  822MOL0     C10839   7.466   6.106   8.399  0.0123 -0.1862 -0.4783
  822MOL0     C10840   7.431   6.112   8.542  0.6823 -0.6209 -0.2525
  822MOL0     C10841   7.322   6.032   8.580 -0.1698  1.1700 -0.9957
  822MOL0     C10842   7.249   5.956   8.497 -0.5309  0.2238  0.4210
  822MOL0     O10843   7.162   5.868   8.546  0.1508  0.0005  0.4439
  822MOL0     C10844   7.043   5.844   8.468 -0.0244 -0.2857 -0.5812
  822MOL0     C10845   6.955   5.746   8.547  0.6871 -0.3296 -0.1680
  822MOL0     C10846   6.816   5.721   8.480  0.7015  0.3971  0.0089
  822MOL0     C10847   6.706   5.818   8.529 -0.7684 -0.3928 -0.9521
  822MOL0     C10848   6.574   5.754   8.497 -0.0748  0.9436  0.0381
  822MOL0     C10849   6.471   5.822   8.581 -0.2446  0.2002  0.1421
  822MOL0     C10850   6.329   5.788   8.537 -1.1817  0.2603  0.2804
  822MOL0     C10851   6.218   5.878   8.597  0.0478 -0.5907  0.9080
  822MOL0     N10852   6.083   5.811   8.587  0.1172 -0.1638  0.0724
  822MOL0     C10853   6.046   5.696   8.655  1.1918 -0.3361  0.4600
  822MOL0     C10854   5.933   5.657   8.589 -0.5252 -0.0001 -0.0584
  822MOL0     C10855   5.867   5.530   8.645 -1.0545  0.6139 -0.2016
  822MOL0     C10856   5.726   5.563   8.673  0.3268 -0.1333 -0.5849
  822MOL0     C10857   5.641   5.441   8.711 -0.6342 -0.5223  0.1355
  822MOL0     C10858   5.493   5.459   8.689  0.1652 -0.1333  0.0980
  822MOL0     O10859   5.436   5.575   8.746  0.4023  0.0335  0.1582
  822MOL0     C10860   5.298   5.581   8.754 -0.1607 -0.3648 -0.9276
  822MOL0     C10861   5.199   5.484   8.737 -0.1211 -0.1726 -0.6295
  822MOL0     C10862   5.060   5.518   8.748  0.0301 -0.3358  0.0203
  822MOL0     C10863   4.963   5.405   8.716  1.0679  0.2754 -0.9451
  822MOL0     C10864   5.028   5.642   8.791  0.4564  0.1358 -0.3407
  822MOL0     C10865   4.891   5.691   8.826  0.9291 -0.1712 -0.5780
  822MOL0     O10866   4.774   5.612   8.805 -0.3138 -0.3062  0.4365
  822MOL0     C10867   4.654   5.659   8.840  0.0486 -0.6229  0.3014
  822MOL0     C10868   4.574   5.585   8.926 -0.1624 -0.2303 -0.7243
  822MOL0     C10869   4.434   5.611   8.942 -0.6719  0.2474  0.2743
  822MOL0     C10870   4.390   5.731   8.891 -0.3096  0.1129 -0.6987
  822MOL0     O10871   4.260   5.780   8.901 -0.0134  0.0691  0.1423
  822MOL0     C10872   4.159   5.682   8.934  0.5942  0.4780 -0.1362
  822MOL0     C10873   4.017   5.740   8.923 -0.3687  0.0317  0.7182
  822MOL0     C10874   3.904   5.642   8.925 -0.3303 -0.6610  0.0695
  822MOL0     C10875   3.763   5.695   8.907 -0.2645  0.8660  0.1232
  822MOL0     C10876   3.723   5.789   9.020 -0.1436  0.3188 -0.4231
  822MOL0     C10877   3.577   5.803   9.023 -0.3182  0.3129 -0.9630
  822MOL0     C10878   3.507   5.885   8.920 -0.6041  0.4332  0.1764
  822MOL0     C10879   3.389   5.964   8.968  0.0634 -0.0272 -0.2075
  822MOL0    Cl10880   3.272   5.853   9.025 -0.4750  0.0448 -0.3076
  822MOL0     C10881   4.471   5.807   8.805 -0.6015 -0.4770  0.2639
  822MOL0     C10882   4.605   5.776   8.782  0.8919  0.0574 -0.3288
  822MOL0     O10883   4.886   5.809   8.863 -0.5794 -0.0582  0.3438
  822MOL0     C10884   5.130   5.735   8.825 -0.6774 -0.2490 -0.2087
  822MOL0     C10885   5.265   5.708   8.799 -0.0918 -0.8660  0.2001
  822MOL0     N10886   5.913   5.743   8.481 -1.2252  0.7989  0.4878
  822MOL0     N10887   5.999   5.836   8.483 -0.4042  0.8442  0.0964
  822MOL0     C10888   7.281   5.962   8.360 -1.2849 -0.3380  0.3428
  822MOL0     C10889   7.386   6.034   8.311 -0.1164  0.3114  1.2660
  822MOL0     C10890   7.738   6.301   8.219  0.0226  1.3963 -0.5571
  822MOL0     C10891   7.824   6.306   8.106 -0.3330  0.4922 -0.0344
  822MOL0     C10892   7.906   6.423   8.090  0.5114  0.4565  0.4384
  822MOL0     C10893   7.908   6.527   8.191 -0.3975  0.4176 -0.0305
  822MOL0     O10894   7.965   6.642   8.146  0.4766  0.0574  0.4233
  822MOL0     C10895   7.984   6.750   8.238  0.0528  0.0646  0.7937
  822MOL0     C10896   8.099   6.851   8.195 -0.4837 -0.0459  0.1673
  822MOL0     C10897   8.222   6.765   8.174 -0.5492  0.3571 -0.0847
  822MOL0     C10898   8.342   6.846   8.134  0.2350 -0.3352  0.3391
  822MOL0     C10899   8.436   6.859   8.241 -1.2101  0.1468 -0.5999
  822MOL0     C10900   8.504   6.883   8.339 -0.3126  0.2695 -0.8866
  822MOL0     C10901   7.824   6.514   8.304  0.0274  0.4945  0.3847
  822MOL0     C10902   7.746   6.403   8.323 -0.0340  0.2663 -0.1876
  822MOL0     H10903   7.491   6.157   8.621  1.6337 -2.1064 -0.0731
  822MOL0     H10904   7.289   6.021   8.683 -1.1848  4.0609 -0.9446
  822MOL0     H10905   6.986   5.936   8.456  0.4365  0.2977  1.4150
  822MOL0     H10906   7.062   5.791   8.374 -0.4688 -1.4450 -0.0463
  822MOL0     H10907   7.009   5.650   8.550  1.6538  0.2197  0.8040
  822MOL0     H10908   6.950   5.773   8.652 -0.6330 -2.1437  0.2771
  822MOL0     H10909   6.827   5.726   8.371 -0.4851  0.4472 -0.1240
  822MOL0     H10910   6.792   5.622   8.520  1.8699  0.2010  0.2806
  822MOL0     H10911   6.715   5.831   8.637  0.2523 -0.4799 -1.0097
  822MOL0     H10912   6.712   5.910   8.470  0.6225 -0.9330 -1.7210
  822MOL0     H10913   6.554   5.759   8.390 -0.1287 -1.0887 -0.0841
  822MOL0     H10914   6.573   5.648   8.522  1.9618  0.3728 -1.9631
  822MOL0     H10915   6.487   5.795   8.686  0.0085  1.7518  0.5325
  822MOL0     H10916   6.478   5.931   8.576 -0.2554  0.2514  1.1043
  822MOL0     H10917   6.317   5.783   8.429  2.4827 -2.3369 -0.1929
  822MOL0     H10918   6.316   5.686   8.575  2.6870 -0.9271 -1.1545
  822MOL0     H10919   6.222   5.967   8.534 -0.3008 -0.5638  0.9205
  822MOL0     H10920   6.236   5.896   8.703  0.8315  1.4824  0.4766
  822MOL0     H10921   6.086   5.657   8.748 -0.9243 -1.2092  1.0616
  822MOL0     H10922   5.883   5.446   8.577 -2.1771  0.8658 -0.8012
  822MOL0     H10923   5.910   5.500   8.742 -3.5489  0.7576  1.0266
  822MOL0     H10924   5.682   5.581   8.574 -2.4485 -0.5994  0.4599
  822MOL0     H10925   5.715   5.654   8.733 -3.4815  1.4125 -3.1645
  822MOL0     H10926   5.669   5.404   8.810  3.6555 -2.3439 -1.5394
  822MOL0     H10927   5.673   5.362   8.643  1.1158 -0.1587  0.4906
  822MOL0     H10928   5.447   5.374   8.738  0.8930 -0.6920 -0.1712
  822MOL0     H10929   5.460   5.449   8.585 -0.4471  1.1836  0.1357
  822MOL0     H10930   5.220   5.382   8.704  0.1972 -0.3810  0.1748
  822MOL0     H10931   5.019   5.335   8.653  0.1945 -0.2791 -1.1379
  822MOL0     H10932   4.930   5.347   8.803 -0.3212  1.4705 -0.6405
  822MOL0     H10933   4.885   5.440   8.648  1.2785  2.5236 -0.0998
  822MOL0     H10934   4.614   5.497   8.975  2.6845  2.0454  1.3677
  822MOL0     H10935   4.376   5.546   9.007  0.9305 -1.6398 -0.1023
  822MOL0     H10936   4.159   5.592   8.871 -1.1792 -1.0667  1.9446
  822MOL0     H10937   4.183   5.660   9.038  2.4427  4.1282  0.3550
  822MOL0     H10938   4.003   5.794   9.016 -2.8911 -0.1376  0.5111
  822MOL0     H10939   4.006   5.804   8.835 -2.8283 -1.2184  0.0278
  822MOL0     H10940   3.906   5.588   9.020  1.3033 -1.4752 -0.3792
  822MOL0     H10941   3.927   5.565   8.850  1.5266  0.1228 -0.2347
  822MOL0     H10942   3.750   5.735   8.806 -1.4219 -2.0405 -1.0077
  822MOL0     H10943   3.702   5.604   8.919 -1.1946  1.2457 -1.4072
  822MOL0     H10944   3.766   5.890   9.018 -0.8199  0.7219  2.0439
  822MOL0     H10945   3.756   5.736   9.110  0.8732 -0.0073 -0.9738
  822MOL0     H10946   3.528   5.706   9.038  0.0863  0.2840  0.2124
  822MOL0     H10947   3.562   5.859   9.116 -0.2038 -1.3840  0.1169
  822MOL0     H10948   3.462   5.822   8.842 -0.3510  1.4788 -0.8521
  822MOL0     H10949   3.576   5.958   8.877 -0.7021 -0.3654 -1.4442
  822MOL0     H10950   3.342   6.031   8.896 -1.8995 -0.1793  0.8626
  822MOL0     H10951   3.418   6.028   9.052 -0.5572  1.1677 -0.8676
  822MOL0     H10952   4.433   5.903   8.771 -2.8304 -1.0702  0.9495
  822MOL0     H10953   4.668   5.838   8.719  0.4364 -0.1763 -1.0308
  822MOL0     H10954   5.117   5.834   8.866  2.5148 -0.0873  0.6526
  822MOL0     H10955   5.343   5.780   8.823  0.3501 -0.7623 -1.4220
  822MOL0     H10956   7.227   5.892   8.298 -2.1376  1.0131 -0.4847
  822MOL0     H10957   7.406   6.027   8.205 -0.9145  0.9982  1.0594
  822MOL0     H10958   7.822   6.222   8.038  0.8607 -1.4475  2.1616
  822MOL0     H10959   7.975   6.433   8.007  1.3271 -0.2742  1.0078
  822MOL0     H10960   7.895   6.813   8.235 -1.3291 -1.7996  0.7794
  822MOL0     H10961   7.990   6.720   8.343  2.1967  0.2290  0.7659
  822MOL0     H10962   8.121   6.932   8.266 -2.3797  1.3721 -0.7690
  822MOL0     H10963   8.070   6.905   8.104 -1.2717 -1.2913 -0.3415
  822MOL0     H10964   8.204   6.690   8.097 -1.5861  1.4163 -0.9113
  822MOL0     H10965   8.238   6.711   8.268 -0.3609  0.8782  0.1838
  822MOL0     H10966   8.313   6.943   8.092  0.0622 -0.8818 -0.8256
  822MOL0     H10967   8.394   6.809   8.045 -0.2730 -0.9196  0.2773
  822MOL0     H10968   8.572   6.889   8.421  2.7533 -4.0999 -2.7179
  822MOL0     H10969   7.826   6.594   8.377  2.1842  2.9808 -2.1838
  822MOL0     H10970   7.693   6.382   8.416  3.5506  0.4695  2.1099
  823MOL0     O10971   1.673  10.035   7.596 -0.0868  0.4298  0.3376
  823MOL0     C10972   1.687   9.977   7.489  0.3544 -0.0454 -0.3735
  823MOL0     O10973   1.589   9.924   7.422 -0.1561 -0.2676  0.6242
  823MOL0     C10974   1.461   9.898   7.467 -0.2072 -1.1752 -0.4267
  823MOL0     C10975   1.372   9.847   7.362 -0.9455  0.0881  0.3515
  823MOL0     C10976   1.240   9.811   7.391  0.3103  0.0657  0.2941
  823MOL0     C10977   1.191   9.816   7.522  1.0185 -0.4986  0.2922
  823MOL0     O10978   1.064   9.763   7.542 -0.2810  0.5871 -0.3623
  823MOL0     C10979   1.009   9.747   7.670  0.0073 -0.1620 -0.1480
  823MOL0     C10980   0.911   9.633   7.675 -0.1056  0.0343 -0.4162
  823MOL0     C10981   0.791   9.651   7.775  0.3546 -0.3866  0.5805
  823MOL0     C10982   0.677   9.721   7.707  0.1573 -0.3188 -0.6226
  823MOL0     C10983   0.546   9.722   7.788  0.2958  0.4815  0.6885
  823MOL0     C10984   0.428   9.791   7.736  0.1192 -0.2048 -0.3085
  823MOL0     C10985   0.389   9.736   7.606  1.2426 -0.0992  0.3548
  823MOL0     C10986   0.252   9.787   7.563 -0.7253 -0.2842  0.2809
  823MOL0     N10987   0.146   9.730   7.647  0.4235  0.3215 -0.1236
  823MOL0     C10988   0.120   9.593   7.645  0.0444  0.2976  0.1344
  823MOL0     C10989   0.037   9.565   7.748  0.3716  0.7274 -0.2877
  823MOL0     C10990  -0.023   9.431   7.792  0.6161  0.7258  0.1082
  823MOL0     C10991  -0.174   9.430   7.775  0.4014 -0.1630  0.5549
  823MOL0     C10992  -0.232   9.311   7.857 -0.5291  0.0473  0.2960
  823MOL0     C10993  -0.366   9.263   7.817 -0.4933  0.5234  0.6845
  823MOL0     O10994  -0.467   9.365   7.831 -0.4956  0.2381  0.7990
  823MOL0     C10995  -0.595   9.318   7.794 -0.2215 -0.2759  0.3869
  823MOL0     C10996  -0.708   9.389   7.840  0.5092 -0.1220 -0.0524
  823MOL0     C10997  -0.837   9.349   7.804  0.0552  0.2332  0.9441
  823MOL0     C10998  -0.943   9.444   7.862  0.2694 -0.7913 -0.7254
  823MOL0     C10999  -0.856   9.248   7.707 -0.2705 -0.1324  0.7966
  823MOL0     C11000  -0.986   9.224   7.640  0.2540 -0.7876  0.4523
  823MOL0     O11001  -1.100   9.288   7.680 -0.6673 -0.3646 -0.1569
  823MOL0     C11002  -1.226   9.283   7.617 -0.7103  0.2521 -0.2048
  823MOL0     C11003  -1.333   9.343   7.690  0.6493  0.5244  0.6355
  823MOL0     C11004  -1.463   9.348   7.639  0.4391  0.4767 -0.2070
  823MOL0     C11005  -1.492   9.297   7.513 -0.7501 -0.1912  0.0934
  823MOL0     O11006  -1.621   9.300   7.465  0.0613 -0.1636  0.2602
  823MOL0     C11007  -1.639   9.289   7.320 -0.2728 -0.9656 -0.7176
  823MOL0     C11008  -1.774   9.359   7.273  0.1906 -0.0207  0.2822
  823MOL0     C11009  -1.897   9.334   7.357  0.7162  0.5080  0.0693
  823MOL0     C11010  -2.025   9.399   7.312  0.1398 -0.4609 -0.5764
  823MOL0     C11011  -2.139   9.323   7.382  0.7847 -0.3314  0.3725
  823MOL0     C11012  -2.269   9.382   7.328 -0.3972  0.6049 -0.4541
  823MOL0     C11013  -2.289   9.390   7.182 -0.7450  0.7371  0.7528
  823MOL0     C11014  -2.273   9.248   7.111 -0.0316  0.5539  0.3579
  823MOL0    Cl11015  -2.340   9.246   6.939  0.3829 -0.0526 -0.0388
  823MOL0     C11016  -1.382   9.242   7.441  0.4829 -1.0678 -0.3021
  823MOL0     C11017  -1.255   9.231   7.490 -0.3979  0.0264 -0.2516
  823MOL0     O11018  -0.986   9.155   7.540 -0.3840 -0.4177 -0.0191
  823MOL0     C11019  -0.746   9.163   7.675 -0.0000 -0.8405  0.2622
  823MOL0     C11020  -0.617   9.203   7.711  0.6160  0.3705  0.3727
  823MOL0     N11021   0.010   9.680   7.815 -0.9045 -0.4538 -0.3732
  823MOL0     N11022   0.084   9.775   7.760  0.0172 -0.5584 -0.0765
  823MOL0     C11023   1.280   9.866   7.624 -0.2742  0.4042 -0.1410
  823MOL0     C11024   1.408   9.907   7.592  0.4435  0.0710 -0.5344
  823MOL0     C11025   1.823   9.979   7.432  0.0015  0.1444 -0.8941
  823MOL0     C11026   1.844   9.929   7.308 -1.0226  0.0297  0.1676
  823MOL0     C11027   1.965   9.954   7.243  0.4616 -0.1229  0.0817
  823MOL0     C11028   2.078  10.006   7.313 -0.3701 -0.2543  0.4581
  823MOL0     O11029   2.209  10.024   7.259 -0.2884 -0.5880  0.0627
  823MOL0     C11030   2.243   9.992   7.124 -0.2998 -0.5104  0.3996
  823MOL0     C11031   2.244   9.839   7.105  0.0834  0.1496 -1.0282
  823MOL0     C11032   2.326   9.758   7.208  0.0855  0.2730 -0.1085
  823MOL0     C11033   2.465   9.809   7.228 -0.7808 -0.4011  0.5162
  823MOL0     C11034   2.555   9.812   7.115 -0.2135  0.0939 -0.1633
  823MOL0     C11035   2.623   9.828   7.017 -1.2710  0.0226  0.1276
  823MOL0     C11036   2.055  10.038   7.446 -0.1389  0.3700  0.6590
  823MOL0     C11037   1.933  10.024   7.510  0.6428 -0.5804  0.6234
  823MOL0     H11038   1.411   9.837   7.262 -1.1894 -1.3488  0.3712
  823MOL0     H11039   1.183   9.763   7.312  1.2314 -0.7612  0.1113
  823MOL0     H11040   1.082   9.717   7.746 -0.0555  0.3368  0.1156
  823MOL0     H11041   0.959   9.842   7.696 -2.1326 -1.0582 -0.7381
  823MOL0     H11042   0.875   9.610   7.574  2.2275 -4.6026 -0.4662
  823MOL0     H11043   0.974   9.546   7.695  2.3562  2.1541  1.7826
  823MOL0     H11044   0.757   9.555   7.815 -1.1509  0.4068  1.2927
  823MOL0     H11045   0.812   9.716   7.860  1.9539  2.3314 -1.7088
  823MOL0     H11046   0.705   9.822   7.674  0.3733 -0.3599 -0.5661
  823MOL0     H11047   0.651   9.658   7.621 -1.6587 -0.6428  0.1273
  823MOL0     H11048   0.529   9.616   7.811  2.6997  0.0266  0.7084
  823MOL0     H11049   0.574   9.768   7.883 -0.5888  1.0974  0.6641
  823MOL0     H11050   0.346   9.770   7.805 -0.5267 -1.4969 -1.4343
  823MOL0     H11051   0.460   9.896   7.732 -0.9253  0.1293 -0.2369
  823MOL0     H11052   0.458   9.755   7.524 -1.2149 -0.9549 -2.0688
  823MOL0     H11053   0.376   9.628   7.617 -1.2069  0.2398  1.4839
  823MOL0     H11054   0.232   9.771   7.457 -1.8885  2.4724  0.0103
  823MOL0     H11055   0.256   9.895   7.576  3.1120 -0.4450  1.9962
  823MOL0     H11056   0.157   9.518   7.575 -1.7863 -0.8844  0.3832
  823MOL0     H11057   0.021   9.355   7.728  1.3260  0.8291  0.4551
  823MOL0     H11058   0.007   9.417   7.896 -3.0531  0.2977  1.2683
  823MOL0     H11059  -0.202   9.433   7.669  0.4735  1.5936  0.5611
  823MOL0     H11060  -0.208   9.523   7.821  0.2333  0.2259 -0.3375
  823MOL0     H11061  -0.237   9.338   7.963  1.2151 -1.7255  0.9037
  823MOL0     H11062  -0.167   9.227   7.828 -0.8436 -0.4087  0.8833
  823MOL0     H11063  -0.392   9.177   7.879  1.1231 -0.1577  0.4611
  823MOL0     H11064  -0.356   9.224   7.716 -0.2339  0.7230  0.6341
  823MOL0     H11065  -0.695   9.476   7.905 -1.4473  1.9371 -2.1987
  823MOL0     H11066  -0.896   9.502   7.942  1.7568 -1.7335 -0.8827
  823MOL0     H11067  -0.999   9.506   7.791  0.5703  1.8587  1.2252
  823MOL0     H11068  -1.017   9.379   7.909 -1.0305 -0.9805 -2.8808
  823MOL0     H11069  -1.315   9.398   7.782  2.0361  3.7205 -1.3756
  823MOL0     H11070  -1.547   9.384   7.699 -1.3978  0.0174 -2.3754
  823MOL0     H11071  -1.553   9.337   7.273  0.9264 -1.4457  0.9335
  823MOL0     H11072  -1.639   9.188   7.278  0.4497 -1.5565  0.6444
  823MOL0     H11073  -1.756   9.467   7.269 -1.0682  0.1908 -0.4133
  823MOL0     H11074  -1.800   9.330   7.170  2.2027 -2.5638  0.3845
  823MOL0     H11075  -1.884   9.350   7.465 -0.2101 -3.1850  0.8471
  823MOL0     H11076  -1.916   9.227   7.349 -0.0734  0.7068 -0.9044
  823MOL0     H11077  -2.023   9.502   7.348 -0.0544 -0.2210 -1.2400
  823MOL0     H11078  -2.019   9.404   7.203  0.8265 -3.0112 -0.7275
  823MOL0     H11079  -2.139   9.318   7.491 -2.0779  0.0927  0.4654
  823MOL0     H11080  -2.134   9.220   7.345  0.6405 -0.5869  1.0504
  823MOL0     H11081  -2.352   9.325   7.371  1.5590 -3.0249 -1.1173
  823MOL0     H11082  -2.274   9.482   7.373 -1.4446  0.7989 -0.9705
  823MOL0     H11083  -2.229   9.467   7.133 -0.7889  1.2864  1.5421
  823MOL0     H11084  -2.393   9.423   7.179 -0.3078  2.0622 -1.0373
  823MOL0     H11085  -2.318   9.171   7.173  0.1655 -0.6452 -0.9424
  823MOL0     H11086  -2.165   9.236   7.102  0.2014  1.7033  1.3472
  823MOL0     H11087  -1.404   9.202   7.342 -1.1323 -0.9015 -0.0361
  823MOL0     H11088  -1.191   9.180   7.419 -1.5381 -0.7855 -0.7232
  823MOL0     H11089  -0.763   9.082   7.604 -0.6658 -0.4369 -0.0477
  823MOL0     H11090  -0.545   9.132   7.670 -0.6787 -0.8037  0.0480
  823MOL0     H11091   1.244   9.873   7.726  2.6065 -1.7287  1.1715
  823MOL0     H11092   1.473   9.947   7.670 -0.3265  1.5347 -0.6214
  823MOL0     H11093   1.765   9.882   7.249  0.3210 -0.3317 -1.4208
  823MOL0     H11094   1.955   9.945   7.136  0.1106 -1.9723  0.2491
  823MOL0     H11095   2.168  10.020   7.050 -2.0826 -2.1780  1.4748
  823MOL0     H11096   2.340  10.034   7.095  0.0367 -2.2596 -1.2245
  823MOL0     H11097   2.268   9.822   6.999  0.8073 -0.2722 -0.8016
  823MOL0     H11098   2.141   9.801   7.104  0.9990 -2.8650  1.7172
  823MOL0     H11099   2.332   9.656   7.170 -2.3825  0.5165 -1.3339
  823MOL0     H11100   2.267   9.758   7.299 -0.7724  2.9137 -0.5851
  823MOL0     H11101   2.515   9.752   7.306 -0.8647 -4.5524 -2.1638
  823MOL0     H11102   2.459   9.915   7.255  0.6801  0.9759 -3.7186
  823MOL0     H11103   2.681   9.851   6.929 -0.1507  0.3798  0.9386
  823MOL0     H11104   2.133  10.078   7.509 -0.4843 -2.5923  3.1879
  823MOL0     H11105   1.927  10.045   7.617 -0.7768 -1.8116  0.8228
  824MOL0     O11106   3.051   4.322   5.664  0.0897 -0.6661 -0.2922
  824MOL0     C11107   3.157   4.340   5.593  0.2437 -0.7843 -0.1503
  824MOL0     O11108   3.183   4.294   5.469 -0.0374 -0.6930  0.8124
  824MOL0     C11109   3.075   4.270   5.388 -0.3226 -0.3321 -0.0992
  824MOL0     C11110   2.953   4.332   5.387  0.2577 -0.1751  0.7552
  824MOL0     C11111   2.858   4.294   5.299  0.7525  0.3454  0.2145
  824MOL0     C11112   2.884   4.191   5.197 -0.2880  0.7039  0.1079
  824MOL0     O11113   2.789   4.157   5.107 -0.4859  0.2158  0.0182
  824MOL0     C11114   2.657   4.209   5.111  0.5728 -0.5410 -0.4349
  824MOL0     C11115   2.570   4.137   5.004 -0.1247  0.1716 -0.3402
  824MOL0     C11116   2.429   4.182   5.011 -0.2367 -0.6010  0.5838
  824MOL0     C11117   2.349   4.170   5.142 -0.2657  0.3880 -0.5946
  824MOL0     C11118   2.197   4.166   5.127 -0.0636  0.2029 -0.3926
  824MOL0     C11119   2.130   4.129   5.264  0.1592 -0.3152  0.2278
  824MOL0     C11120   2.107   4.249   5.365 -0.1452 -0.6753  0.2707
  824MOL0     C11121   2.014   4.194   5.476  0.5060 -0.4852 -0.9881
  824MOL0     N11122   1.889   4.140   5.427 -0.7133 -0.1670  0.3127
  824MOL0     C11123   1.800   4.201   5.355 -0.3098  0.0664  1.0389
  824MOL0     C11124   1.683   4.126   5.371 -0.0401 -0.7481  0.1309
  824MOL0     C11125   1.539   4.147   5.319  0.8478  0.0761 -0.1458
  824MOL0     C11126   1.448   4.163   5.437 -0.8896 -0.7625 -0.7325
  824MOL0     C11127   1.309   4.191   5.392  0.0448  0.0571 -0.2824
  824MOL0     C11128   1.199   4.195   5.503 -0.7517 -0.4555  0.4722
  824MOL0     O11129   1.072   4.138   5.466  0.4170  0.1417 -0.1463
  824MOL0     C11130   0.989   4.219   5.395 -0.0518 -0.1972  0.3190
  824MOL0     C11131   1.017   4.345   5.337 -0.7578 -0.5568  0.0857
  824MOL0     C11132   0.911   4.420   5.275  0.8060 -0.0163  0.4330
  824MOL0     C11133   0.953   4.557   5.223  0.4543  0.3595  0.1620
  824MOL0     C11134   0.786   4.364   5.249  0.3358 -0.2156 -0.1270
  824MOL0     C11135   0.683   4.424   5.154 -0.0987 -0.7423 -0.3780
  824MOL0     O11136   0.565   4.355   5.159  0.2869  0.2974  0.6118
  824MOL0     C11137   0.473   4.365   5.059 -0.2598  0.0740  0.9312
  824MOL0     C11138   0.503   4.333   4.921  0.3123 -0.7366 -1.2042
  824MOL0     C11139   0.409   4.328   4.815  0.8128 -0.6325  0.6832
  824MOL0     C11140   0.274   4.358   4.847 -0.0526 -0.6623 -0.8456
  824MOL0     O11141   0.187   4.349   4.745  0.1983 -0.0675 -0.3249
  824MOL0     C11142   0.046   4.340   4.781  0.7820  0.5983  0.2063
  824MOL0     C11143  -0.044   4.314   4.659 -0.3103 -0.0162  0.3248
  824MOL0     C11144  -0.186   4.305   4.709 -0.0789 -0.4991  0.6364
  824MOL0     C11145  -0.284   4.262   4.596 -1.0917 -1.0988  0.0297
  824MOL0     C11146  -0.430   4.285   4.635  0.6260  0.6336 -0.7529
  824MOL0     C11147  -0.523   4.269   4.513 -0.1726 -0.4271  0.0891
  824MOL0     C11148  -0.667   4.291   4.553 -0.3398  0.2554  0.1315
  824MOL0     C11149  -0.760   4.272   4.435  0.6180  0.8813 -0.7236
  824MOL0    Cl11150  -0.923   4.314   4.488  0.1835 -0.1062  0.0560
  824MOL0     C11151   0.237   4.394   4.976  0.4615  0.9348 -0.2657
  824MOL0     C11152   0.335   4.385   5.082  0.7713 -0.0290  0.0747
  824MOL0     O11153   0.720   4.496   5.056  0.0867  0.5470 -0.2355
  824MOL0     C11154   0.759   4.244   5.309 -0.3348  0.0782 -0.2273
  824MOL0     C11155   0.864   4.172   5.374  0.2600  0.1603  0.4734
  824MOL0     N11156   1.709   4.023   5.463  0.8328 -0.5550 -0.5722
  824MOL0     N11157   1.833   4.037   5.490  0.2427  0.1453  0.0997
  824MOL0     C11158   3.006   4.129   5.198 -0.7846  0.2696 -0.3867
  824MOL0     C11159   3.102   4.170   5.292  0.4280  0.2401 -0.1200
  824MOL0     C11160   3.263   4.417   5.662 -0.1240  0.6458 -0.1534
  824MOL0     C11161   3.243   4.481   5.782 -0.3173 -0.1500 -0.0009
  824MOL0     C11162   3.338   4.558   5.849  0.5628  0.9409 -0.7148
  824MOL0     C11163   3.460   4.582   5.785 -0.6352 -0.5839 -0.2292
  824MOL0     O11164   3.537   4.682   5.851  0.2352  0.1846  0.0421
  824MOL0     C11165   3.673   4.697   5.812 -0.3324  0.3121 -0.3341
  824MOL0     C11166   3.731   4.807   5.900  0.7194  0.4091  0.7316
  824MOL0     C11167   3.765   4.750   6.037 -0.6569  0.2573 -0.4938
  824MOL0     C11168   3.841   4.860   6.119  0.6947 -0.2817 -0.5662
  824MOL0     C11169   3.764   4.989   6.133 -0.0125 -0.4508 -0.4406
  824MOL0     C11170   3.705   5.091   6.112 -0.3954 -0.7585  0.7606
  824MOL0     C11171   3.493   4.512   5.667 -0.5011 -0.3780 -0.1739
  824MOL0     C11172   3.387   4.440   5.609  0.2070  0.2978  0.3754
  824MOL0     H11173   2.941   4.418   5.452  3.8229  1.3392 -0.3473
  824MOL0     H11174   2.771   4.355   5.276  1.0195 -0.0332 -2.0394
  824MOL0     H11175   2.608   4.192   5.208  0.3985 -2.1570 -0.7942
  824MOL0     H11176   2.654   4.315   5.081  0.8877  0.2235  1.9802
  824MOL0     H11177   2.614   4.152   4.905 -2.0535 -0.3031 -1.3152
  824MOL0     H11178   2.578   4.030   5.027 -0.7676 -0.7499 -3.7801
  824MOL0     H11179   2.419   4.287   4.984 -3.4947 -0.0753  3.2224
  824MOL0     H11180   2.372   4.124   4.938 -0.4465  0.6899 -0.2920
  824MOL0     H11181   2.379   4.078   5.194 -1.6105 -0.1982 -0.7974
  824MOL0     H11182   2.382   4.258   5.198  0.5457  1.4594 -2.6500
  824MOL0     H11183   2.163   4.264   5.091 -0.3863 -0.4594 -1.9608
  824MOL0     H11184   2.170   4.092   5.051 -2.3180 -0.7059  1.2196
  824MOL0     H11185   2.035   4.090   5.227  1.8930 -1.2696 -3.8495
  824MOL0     H11186   2.191   4.049   5.306 -0.6230 -1.9437 -1.5693
  824MOL0     H11187   2.200   4.289   5.405  1.0506 -2.0457 -0.9862
  824MOL0     H11188   2.072   4.338   5.313  0.6753 -0.4221  0.1376
  824MOL0     H11189   1.988   4.273   5.546 -0.6901 -2.2035  0.6124
  824MOL0     H11190   2.068   4.120   5.536 -0.2875  0.5644  1.1276
  824MOL0     H11191   1.817   4.279   5.281  1.8007 -3.2192 -2.3373
  824MOL0     H11192   1.534   4.234   5.252  0.7074 -0.5062 -0.9118
  824MOL0     H11193   1.502   4.060   5.264  0.4365 -0.0097  0.2629
  824MOL0     H11194   1.475   4.256   5.489 -1.8627 -0.7619 -0.1961
  824MOL0     H11195   1.452   4.092   5.520  0.0649  0.2361  0.1043
  824MOL0     H11196   1.268   4.113   5.328 -0.3448 -2.4005  2.7270
  824MOL0     H11197   1.315   4.287   5.339  1.2527  0.4388  0.4996
  824MOL0     H11198   1.188   4.297   5.539  0.4349  0.6102 -1.9935
  824MOL0     H11199   1.228   4.135   5.590 -1.6457  0.1238  1.1831
  824MOL0     H11200   1.112   4.397   5.325 -0.8061 -1.0702 -4.4795
  824MOL0     H11201   0.954   4.581   5.116 -2.6148  2.7962  0.5319
  824MOL0     H11202   0.876   4.625   5.259 -0.8592 -2.5732  3.3871
  824MOL0     H11203   1.046   4.587   5.271 -0.4806  0.2389  2.1235
  824MOL0     H11204   0.607   4.330   4.890  0.9989  0.4032  0.7615
  824MOL0     H11205   0.432   4.296   4.714  3.5604  2.1443  0.3034
  824MOL0     H11206   0.016   4.272   4.861 -1.3619  1.0557 -0.1515
  824MOL0     H11207   0.017   4.438   4.822  1.6412  0.2216  1.8048
  824MOL0     H11208  -0.031   4.398   4.591  1.2613 -1.4134 -1.2006
  824MOL0     H11209  -0.014   4.232   4.593  0.2978 -2.3799  3.2805
  824MOL0     H11210  -0.207   4.398   4.762  3.7286  0.0345  1.5124
  824MOL0     H11211  -0.196   4.222   4.779 -0.3638 -1.2196 -0.2271
  824MOL0     H11212  -0.253   4.331   4.517 -0.7189 -0.6092  0.5960
  824MOL0     H11213  -0.272   4.157   4.571 -1.9760 -1.5900  1.5122
  824MOL0     H11214  -0.458   4.378   4.685 -2.9074 -0.4233 -0.4699
  824MOL0     H11215  -0.448   4.205   4.707 -1.7971 -0.2019 -2.1892
  824MOL0     H11216  -0.497   4.342   4.435 -4.5879  1.8927  0.4979
  824MOL0     H11217  -0.518   4.171   4.465 -0.6421 -0.3716 -0.0762
  824MOL0     H11218  -0.677   4.396   4.583 -3.2335  0.8335 -2.4094
  824MOL0     H11219  -0.694   4.236   4.644  0.1974  3.4450  2.4093
  824MOL0     H11220  -0.760   4.165   4.410 -0.5127  0.7439 -0.1484
  824MOL0     H11221  -0.739   4.336   4.348 -1.7482  0.2810 -1.8177
  824MOL0     H11222   0.132   4.420   4.988 -0.1710 -0.5116 -2.1389
  824MOL0     H11223   0.298   4.404   5.182  2.4266 -0.2089  0.7562
  824MOL0     H11224   0.667   4.187   5.302  0.5075 -1.5585  1.2844
  824MOL0     H11225   0.838   4.073   5.411  0.0603 -0.2700 -0.7705
  824MOL0     H11226   3.048   4.055   5.131  1.1812  1.2228 -0.2747
  824MOL0     H11227   3.205   4.136   5.300  1.3554  2.9700  0.6116
  824MOL0     H11228   3.150   4.469   5.837  1.1244 -0.7489  2.4609
  824MOL0     H11229   3.308   4.593   5.947 -1.9523 -0.5183 -0.8764
  824MOL0     H11230   3.740   4.610   5.821 -0.6607  0.1162  0.2623
  824MOL0     H11231   3.670   4.728   5.707  0.4069  0.1702 -0.4031
  824MOL0     H11232   3.654   4.884   5.913 -0.5066 -0.5792 -0.3005
  824MOL0     H11233   3.818   4.838   5.843  0.2608 -1.4321 -1.0926
  824MOL0     H11234   3.824   4.658   6.039  1.0491  1.3038  0.9360
  824MOL0     H11235   3.667   4.719   6.073 -0.2197 -1.7432 -0.9103
  824MOL0     H11236   3.938   4.884   6.074  0.2467  2.3338 -0.3413
  824MOL0     H11237   3.853   4.819   6.220 -1.0321 -0.2345 -0.3132
  824MOL0     H11238   3.651   5.181   6.091  0.3751 -0.9125 -2.4593
  824MOL0     H11239   3.588   4.524   5.615 -1.5310 -0.1713 -2.1017
  824MOL0     H11240   3.415   4.400   5.512 -0.2257  1.0818 -0.0900
  825MOL0     O11241  10.200   0.791   3.538  0.4161  0.1755  0.1240
  825MOL0     C11242  10.224   0.861   3.629  0.0840 -0.1288 -0.0610
  825MOL0     O11243  10.145   0.955   3.692 -0.1763 -0.5226 -0.2426
  825MOL0     C11244  10.032   1.006   3.626  0.2451  0.3579 -0.8305
  825MOL0     C11245  10.033   1.059   3.504  0.3194  0.5942  0.3165
  825MOL0     C11246   9.912   1.094   3.449  0.2974  0.1042 -0.6090
  825MOL0     C11247   9.789   1.075   3.520  0.4711  0.0412  0.5783
  825MOL0     O11248   9.673   1.128   3.460  0.0400 -0.3827 -0.0173
  825MOL0     C11249   9.545   1.118   3.532  0.0333 -0.5899 -0.5131
  825MOL0     C11250   9.425   1.130   3.434  0.3602 -1.4385 -0.6393
  825MOL0     C11251   9.293   1.152   3.511  1.6729  0.8409  0.3016
  825MOL0     C11252   9.172   1.101   3.422 -0.1931 -0.1626 -0.7600
  825MOL0     C11253   9.167   0.949   3.435 -0.1978  0.5618  0.1305
  825MOL0     C11254   9.044   0.896   3.362  0.4929 -0.6116  0.5451
  825MOL0     C11255   9.050   0.752   3.346  0.0696 -0.0229  0.0108
  825MOL0     C11256   9.046   0.669   3.479  0.3057 -0.9070  0.6878
  825MOL0     N11257   8.921   0.677   3.559  0.3317 -0.1121 -0.2176
  825MOL0     C11258   8.796   0.628   3.530  0.1113  0.1233  0.1343
  825MOL0     C11259   8.710   0.672   3.634  0.4002  0.1647  0.2904
  825MOL0     C11260   8.556   0.671   3.649  0.0844 -0.2659  0.0113
  825MOL0     C11261   8.511   0.585   3.771 -0.1497 -0.2305 -0.2115
  825MOL0     C11262   8.371   0.527   3.761  0.2952 -0.2559  0.3342
  825MOL0     C11263   8.337   0.443   3.882  0.8360  0.4995 -0.6076
  825MOL0     O11264   8.236   0.353   3.833 -0.2514  0.8686 -0.0373
  825MOL0     C11265   8.102   0.389   3.824 -0.9579 -0.8165 -0.1319
  825MOL0     C11266   8.012   0.285   3.794 -0.1231  0.1239 -0.2996
  825MOL0     C11267   7.872   0.307   3.774 -0.1211  0.0818 -0.5184
  825MOL0     C11268   7.779   0.186   3.750  0.9705 -0.1102 -0.9730
  825MOL0     C11269   7.827   0.444   3.771  0.6697 -0.0056 -0.6638
  825MOL0     C11270   7.684   0.482   3.726 -0.8677  0.8383 -0.5286
  825MOL0     O11271   7.654   0.602   3.781 -0.6538  0.2374  0.0336
  825MOL0     C11272   7.532   0.648   3.748 -0.9093 -0.4142  0.1572
  825MOL0     C11273   7.417   0.595   3.805  0.1157 -0.2968  0.0805
  825MOL0     C11274   7.295   0.657   3.772 -0.8686 -0.0604  0.7885
  825MOL0     C11275   7.279   0.760   3.681 -0.3279 -0.4567  1.2754
  825MOL0     O11276   7.150   0.797   3.649  0.6356 -0.5526 -0.7025
  825MOL0     C11277   7.124   0.873   3.531 -0.1370  0.6810 -0.1333
  825MOL0     C11278   6.975   0.847   3.494  0.1499  0.0317  0.5169
  825MOL0     C11279   6.949   0.897   3.351 -0.4043  0.1458 -0.3391
  825MOL0     C11280   6.805   0.857   3.303 -0.3434  0.3624  0.0283
  825MOL0     C11281   6.746   0.940   3.188 -0.9227 -0.3481 -0.8108
  825MOL0     C11282   6.813   0.917   3.060  0.6732 -0.2035 -0.3694
  825MOL0     C11283   6.778   1.007   2.943 -0.2227  0.7064 -0.3985
  825MOL0     C11284   6.697   0.940   2.830 -0.9897 -0.1016 -0.7174
  825MOL0    Cl11285   6.668   1.070   2.717  0.1564 -0.1118 -0.1397
  825MOL0     C11286   7.401   0.804   3.625  0.3177  0.0768  1.3588
  825MOL0     C11287   7.524   0.760   3.667 -0.2550 -0.0671 -0.3933
  825MOL0     O11288   7.610   0.407   3.654 -0.0516 -0.1998  0.0234
  825MOL0     C11289   7.921   0.544   3.804 -0.3141 -0.1958  0.6491
  825MOL0     C11290   8.052   0.518   3.839 -0.2329  0.0369  0.2498
  825MOL0     N11291   8.784   0.744   3.722 -0.4995 -0.3033  0.4997
  825MOL0     N11292   8.907   0.745   3.679 -0.0044 -0.7336 -0.3469
  825MOL0     C11293   9.793   1.021   3.649  0.0185 -0.6658 -0.0316
  825MOL0     C11294   9.915   0.989   3.702 -0.7455  0.3551 -0.5144
  825MOL0     C11295  10.369   0.866   3.681  0.1036 -0.4125 -0.0029
  825MOL0     C11296  10.464   0.776   3.615 -0.9684 -0.1790 -1.0816
  825MOL0     C11297  10.598   0.787   3.655 -0.0659  1.0044  0.4609
  825MOL0     C11298  10.649   0.880   3.743  0.2188  0.9913  0.9683
  825MOL0     O11299  10.778   0.891   3.785 -0.6127  1.0148  0.5799
  825MOL0     C11300  10.867   0.796   3.718 -0.1433  0.7385 -0.3492
  825MOL0     C11301  11.014   0.809   3.764  0.7086  0.7226  0.0246
  825MOL0     C11302  11.071   0.952   3.747 -0.5576  1.0352  0.4207
  825MOL0     C11303  11.219   0.949   3.726 -0.0827 -0.3737  0.0222
  825MOL0     C11304  11.296   0.870   3.822  0.3281 -0.1268  0.0426
  825MOL0     C11305  11.365   0.800   3.903 -0.7538 -0.2122  0.1159
  825MOL0     C11306  10.554   0.963   3.795  0.6010 -0.1386 -0.2119
  825MOL0     C11307  10.414   0.966   3.769 -0.6851  0.4531 -0.1973
  825MOL0     H11308  10.126   1.080   3.452  0.7659  2.4693  1.7522
  825MOL0     H11309   9.919   1.140   3.351 -0.4666  2.8734  0.5537
  825MOL0     H11310   9.541   1.029   3.595 -2.2396  1.9356  3.3325
  825MOL0     H11311   9.521   1.195   3.606 -3.2765 -2.4517  0.5987
  825MOL0     H11312   9.441   1.222   3.377 -0.2699  0.7274  2.4146
  825MOL0     H11313   9.417   1.047   3.364  1.4776 -0.5582 -1.8751
  825MOL0     H11314   9.294   1.086   3.598  1.9217 -0.8441 -0.9443
  825MOL0     H11315   9.279   1.257   3.539 -3.0453  0.4975  0.1382
  825MOL0     H11316   9.078   1.147   3.453  1.2254  3.1937 -0.9267
  825MOL0     H11317   9.192   1.133   3.319  4.6203 -0.9613 -0.2900
  825MOL0     H11318   9.252   0.897   3.391  0.2843  0.6017  0.9820
  825MOL0     H11319   9.165   0.914   3.539  1.6089  2.1266  0.7519
  825MOL0     H11320   8.949   0.923   3.409 -0.7374 -0.6155 -1.7770
  825MOL0     H11321   9.053   0.935   3.260 -2.4236 -1.8699 -0.2806
  825MOL0     H11322   8.968   0.730   3.277  0.3322 -1.2610  0.0757
  825MOL0     H11323   9.148   0.724   3.306  1.2998  2.5078  1.0601
  825MOL0     H11324   9.129   0.699   3.544 -0.0072  0.7002  0.4050
  825MOL0     H11325   9.042   0.563   3.453 -1.2185 -0.5229 -0.8573
  825MOL0     H11326   8.768   0.570   3.443  0.4552 -0.8623  0.6661
  825MOL0     H11327   8.511   0.767   3.675 -1.7066 -0.7452 -1.0690
  825MOL0     H11328   8.520   0.650   3.548 -1.3437  2.8076 -0.2301
  825MOL0     H11329   8.531   0.640   3.863  0.6389  0.1013 -0.5708
  825MOL0     H11330   8.582   0.503   3.764 -0.7925 -1.2978  3.6079
  825MOL0     H11331   8.370   0.478   3.664  2.6057 -1.4559  0.8557
  825MOL0     H11332   8.296   0.607   3.754 -0.7161 -1.3209 -1.7299
  825MOL0     H11333   8.294   0.493   3.970 -1.3409 -3.3314  0.7968
  825MOL0     H11334   8.419   0.382   3.920  0.4618  0.2615 -0.1533
  825MOL0     H11335   8.051   0.184   3.790 -0.7566 -0.1126 -0.5930
  825MOL0     H11336   7.765   0.177   3.642  0.4398  1.7698 -1.0919
  825MOL0     H11337   7.834   0.102   3.793 -0.5154 -0.4697  0.2797
  825MOL0     H11338   7.682   0.195   3.799  0.7257 -4.6343 -0.2312
  825MOL0     H11339   7.425   0.510   3.872 -0.1941 -0.8489 -0.5724
  825MOL0     H11340   7.200   0.613   3.802 -0.6412 -1.5639 -0.5492
  825MOL0     H11341   7.151   0.979   3.533  1.9277  0.2019  0.7479
  825MOL0     H11342   7.186   0.834   3.450  1.1277  2.8795 -0.3176
  825MOL0     H11343   6.943   0.742   3.496 -1.3145  0.3588 -1.6035
  825MOL0     H11344   6.908   0.893   3.567 -0.6767 -1.9637  1.0848
  825MOL0     H11345   7.025   0.856   3.283 -0.3833 -0.3315 -0.0291
  825MOL0     H11346   6.958   1.006   3.353 -0.7559  0.1891 -0.7874
  825MOL0     H11347   6.804   0.753   3.269  1.4370  1.1609 -2.7450
  825MOL0     H11348   6.734   0.861   3.387 -0.9251  0.2148 -0.4524
  825MOL0     H11349   6.744   1.046   3.213 -1.8736  0.6064 -4.3579
  825MOL0     H11350   6.644   0.905   3.170 -1.1610 -0.2401  0.2455
  825MOL0     H11351   6.921   0.930   3.073  0.5429 -0.6755  1.3626
  825MOL0     H11352   6.801   0.812   3.033 -1.2800  0.0517 -0.6243
  825MOL0     H11353   6.876   1.034   2.903  0.3398 -1.9897 -1.0532
  825MOL0     H11354   6.723   1.096   2.973 -0.1547  0.9879 -1.0770
  825MOL0     H11355   6.604   0.910   2.879  0.4528 -0.8963  1.7141
  825MOL0     H11356   6.744   0.856   2.777  0.7430  0.9495 -0.9137
  825MOL0     H11357   7.400   0.891   3.559 -0.7154 -0.3797  0.7384
  825MOL0     H11358   7.611   0.808   3.622 -0.1954 -0.1835 -0.4014
  825MOL0     H11359   7.882   0.645   3.806  0.4473  0.1003  2.4321
  825MOL0     H11360   8.113   0.601   3.874  0.2518 -0.6233  1.0158
  825MOL0     H11361   9.710   1.005   3.717 -1.6794  0.4286 -1.7277
  825MOL0     H11362   9.916   0.958   3.806 -0.2051  2.3182  0.1266
  825MOL0     H11363  10.432   0.702   3.542  0.7190 -1.4618 -0.5711
  825MOL0     H11364  10.663   0.709   3.615 -0.7354 -1.4770  3.7181
  825MOL0     H11365  10.826   0.695   3.726  2.3232 -0.5977 -2.6997
  825MOL0     H11366  10.866   0.823   3.612  1.7420 -1.1819 -0.9108
  825MOL0     H11367  11.077   0.739   3.707  2.4450  1.9416  0.3621
  825MOL0     H11368  11.030   0.769   3.864 -0.5251 -1.2327 -0.4957
  825MOL0     H11369  11.054   1.007   3.840 -3.4836  1.2571 -0.1500
  825MOL0     H11370  11.035   1.008   3.659  2.6462  3.1660  0.3009
  825MOL0     H11371  11.245   1.055   3.733 -3.6632  0.5283  3.3198
  825MOL0     H11372  11.261   0.914   3.631  0.1290  1.0228 -0.4190
  825MOL0     H11373  11.434   0.753   3.970  2.4286  1.1966 -1.9335
  825MOL0     H11374  10.593   1.039   3.862  1.0051  1.5602 -2.2566
  825MOL0     H11375  10.355   1.043   3.817  1.7862  0.5614  3.0342
  826MOL0     O11376   9.486   0.780   9.273 -0.0900  1.0852 -0.1939
  826MOL0     C11377   9.478   0.821   9.389 -0.3616 -0.4336  0.0844
  826MOL0     O11378   9.369   0.804   9.477  0.3074  0.5302 -0.0043
  826MOL0     C11379   9.248   0.749   9.438 -0.1416  0.1960  0.3872
  826MOL0     C11380   9.194   0.781   9.311 -0.0279  0.4553 -1.1482
  826MOL0     C11381   9.069   0.726   9.285  1.1075 -0.4712  0.4034
  826MOL0     C11382   8.987   0.659   9.380  0.2567  0.4897  0.4852
  826MOL0     O11383   8.862   0.614   9.339 -0.4638  0.4284  0.0472
  826MOL0     C11384   8.748   0.688   9.396  0.0169 -0.5727  0.6690
  826MOL0     C11385   8.625   0.641   9.316  0.2154  0.2377 -0.1023
  826MOL0     C11386   8.505   0.727   9.341 -0.5256  0.0497  0.1940
  826MOL0     C11387   8.432   0.726   9.478  1.2659  0.0457 -0.0011
  826MOL0     C11388   8.293   0.767   9.463 -0.5957 -0.2003 -0.1688
  826MOL0     C11389   8.236   0.801   9.596  0.4470  0.5207  0.9816
  826MOL0     C11390   8.074   0.814   9.588 -0.6028 -0.6519  0.7670
  826MOL0     C11391   8.032   0.942   9.509  0.0055 -0.3257 -0.3744
  826MOL0     N11392   7.891   0.964   9.527  0.3620  0.6626  0.5450
  826MOL0     C11393   7.810   0.965   9.422  0.2287 -0.2455  0.4188
  826MOL0     C11394   7.685   0.984   9.469  0.1047 -0.1847  0.0504
  826MOL0     C11395   7.558   0.978   9.403  0.0675  0.3214 -0.6773
  826MOL0     C11396   7.467   1.102   9.401  0.0072 -0.1217  0.0805
  826MOL0     C11397   7.324   1.081   9.353  0.4365 -0.5168  0.9340
  826MOL0     C11398   7.246   1.209   9.336  0.3694 -0.7280 -0.7464
  826MOL0     O11399   7.116   1.160   9.316 -0.1998  0.0152  0.3321
  826MOL0     C11400   7.006   1.246   9.305 -0.3311  0.5879 -1.3178
  826MOL0     C11401   7.014   1.384   9.318  0.2190 -0.0104  0.3180
  826MOL0     C11402   6.896   1.459   9.323 -0.5790  0.3193  0.2558
  826MOL0     C11403   6.917   1.606   9.339 -0.2462 -0.3328 -0.2820
  826MOL0     C11404   6.766   1.394   9.311 -0.4518  0.4491 -0.0545
  826MOL0     C11405   6.637   1.469   9.298 -0.4157 -0.1504 -0.3265
  826MOL0     O11406   6.527   1.398   9.276 -0.1656 -0.1671  0.3537
  826MOL0     C11407   6.410   1.469   9.265  0.2704 -0.8094 -0.0565
  826MOL0     C11408   6.364   1.513   9.143  0.1836 -0.0319 -0.4574
  826MOL0     C11409   6.239   1.576   9.132  0.2722  0.1281 -0.6189
  826MOL0     C11410   6.162   1.597   9.246 -0.0425  0.3759  0.0735
  826MOL0     O11411   6.034   1.644   9.222  0.0817 -0.5485 -0.6246
  826MOL0     C11412   5.934   1.630   9.328 -0.2574 -0.0563  0.1147
  826MOL0     C11413   5.853   1.503   9.312 -0.3680 -0.7564 -0.8768
  826MOL0     C11414   5.743   1.476   9.416  0.3211 -0.9819 -0.2147
  826MOL0     C11415   5.702   1.337   9.420 -0.2950  0.6187  0.7270
  826MOL0     C11416   5.553   1.321   9.453  0.2581 -0.1368  0.0156
  826MOL0     C11417   5.507   1.179   9.435  0.6386  0.0359 -0.3367
  826MOL0     C11418   5.370   1.133   9.483  0.5582 -1.0403 -0.9871
  826MOL0     C11419   5.356   1.141   9.640 -0.1959  0.6635  0.7069
  826MOL0    Cl11420   5.397   0.975   9.692 -0.0331 -0.0280  0.2325
  826MOL0     C11421   6.211   1.560   9.370  1.2892 -0.5293 -0.2711
  826MOL0     C11422   6.325   1.483   9.381 -0.7218 -1.0025 -0.0636
  826MOL0     O11423   6.635   1.586   9.335 -0.2484 -0.3714 -0.0492
  826MOL0     C11424   6.761   1.258   9.288  0.3141  0.4289 -0.3548
  826MOL0     C11425   6.876   1.186   9.283  0.0214 -0.0820  0.4241
  826MOL0     N11426   7.698   0.991   9.601 -0.2275  0.2804 -0.5499
  826MOL0     N11427   7.822   0.975   9.642  0.5823 -0.3114 -0.0258
  826MOL0     C11428   9.040   0.629   9.500 -0.4539  0.3124  0.4206
  826MOL0     C11429   9.172   0.670   9.529 -0.2179  1.2647  1.0986
  826MOL0     C11430   9.592   0.885   9.449  0.9492  0.9386 -0.0245
  826MOL0     C11431   9.607   0.876   9.587 -0.9126 -0.1718 -0.6016
  826MOL0     C11432   9.710   0.945   9.649 -0.4714  0.3314 -0.1723
  826MOL0     C11433   9.803   1.024   9.580 -0.2380 -0.0681 -0.2170
  826MOL0     O11434   9.912   1.074   9.650 -1.0331 -0.0724  0.2376
  826MOL0     C11435   9.998   1.163   9.573 -0.5783 -0.2045 -0.2717
  826MOL0     C11436  10.113   1.225   9.667  0.3961 -0.2783  1.0784
  826MOL0     C11437  10.225   1.301   9.594  0.6344 -0.6451 -0.3367
  826MOL0     C11438  10.323   1.212   9.510 -0.6630 -0.1516  0.4694
  826MOL0     C11439  10.436   1.292   9.456 -0.0485 -0.2831 -0.1277
  826MOL0     C11440  10.538   1.357   9.437  0.0749 -0.5090  0.7933
  826MOL0     C11441   9.792   1.037   9.439  0.1107  0.3096  0.6097
  826MOL0     C11442   9.682   0.967   9.380  0.2237 -0.3317 -0.1819
  826MOL0     H11443   9.242   0.849   9.241  0.0246 -1.3154 -2.9297
  826MOL0     H11444   9.019   0.754   9.192  1.6287 -3.4246 -0.8899
  826MOL0     H11445   8.741   0.661   9.501 -0.4779  1.4574  1.2034
  826MOL0     H11446   8.758   0.797   9.390 -1.4422 -0.4579 -0.2371
  826MOL0     H11447   8.651   0.648   9.210  1.9499  0.1017  0.2870
  826MOL0     H11448   8.604   0.537   9.343  4.1530 -0.1752  2.1542
  826MOL0     H11449   8.538   0.828   9.318 -0.8805 -0.4067 -2.8210
  826MOL0     H11450   8.439   0.707   9.255  0.3627 -0.9315 -0.2881
  826MOL0     H11451   8.445   0.633   9.534 -1.4954  0.7506  1.9915
  826MOL0     H11452   8.476   0.806   9.538 -0.3874  0.1875  1.0940
  826MOL0     H11453   8.288   0.852   9.395  1.1665  0.3502  0.3415
  826MOL0     H11454   8.231   0.689   9.418  0.8459 -1.9554  0.7131
  826MOL0     H11455   8.252   0.712   9.657 -3.6017 -1.5173 -0.5209
  826MOL0     H11456   8.280   0.895   9.631  2.7927  0.3079 -1.1122
  826MOL0     H11457   8.030   0.723   9.545  0.5183 -1.6682  1.6740
  826MOL0     H11458   8.043   0.831   9.691  0.3754 -0.9210  1.1160
  826MOL0     H11459   8.064   0.936   9.404 -1.3841  1.8002 -0.9796
  826MOL0     H11460   8.086   1.021   9.561 -0.3995 -0.0797 -0.3302
  826MOL0     H11461   7.850   0.958   9.322  0.7216 -1.0462  0.6632
  826MOL0     H11462   7.575   0.948   9.299  0.9237  0.4846 -0.5929
  826MOL0     H11463   7.507   0.901   9.462  1.7238  0.8952  1.6198
  826MOL0     H11464   7.518   1.174   9.336  1.9659 -0.0156  1.6350
  826MOL0     H11465   7.468   1.138   9.505  0.3543  2.8876 -0.8709
  826MOL0     H11466   7.275   1.004   9.414  1.3597 -0.2660  2.0238
  826MOL0     H11467   7.322   1.032   9.255 -1.6847  0.8051  0.2287
  826MOL0     H11468   7.281   1.267   9.251 -0.5338  2.0318  0.6428
  826MOL0     H11469   7.256   1.262   9.431  1.6020 -1.2742 -0.5571
  826MOL0     H11470   7.113   1.427   9.308  0.0207  0.2473 -0.6191
  826MOL0     H11471   6.870   1.655   9.253  0.6904 -1.8541 -1.7289
  826MOL0     H11472   6.865   1.639   9.429 -0.9463  0.3046 -0.9139
  826MOL0     H11473   7.020   1.639   9.353  0.0885 -1.9204  1.4512
  826MOL0     H11474   6.427   1.509   9.055  1.1297 -0.8233  0.2344
  826MOL0     H11475   6.187   1.594   9.039 -0.5002 -1.3917 -0.5136
  826MOL0     H11476   5.969   1.641   9.431 -0.6120  1.7988  0.0769
  826MOL0     H11477   5.868   1.715   9.310 -0.2334  0.0604  0.5711
  826MOL0     H11478   5.808   1.509   9.212  0.4825  1.2319 -1.1946
  826MOL0     H11479   5.924   1.421   9.301  0.9875  0.4925 -1.8528
  826MOL0     H11480   5.663   1.548   9.394  0.8955 -0.4928 -0.7291
  826MOL0     H11481   5.772   1.502   9.518 -0.7550 -1.9882  0.3760
  826MOL0     H11482   5.722   1.291   9.323  3.6048  1.9500  0.7086
  826MOL0     H11483   5.769   1.279   9.484  0.7736 -0.9482 -1.6789
  826MOL0     H11484   5.495   1.384   9.385 -0.0811 -3.2126 -2.7940
  826MOL0     H11485   5.532   1.355   9.555 -2.8280 -2.8800  0.4633
  826MOL0     H11486   5.516   1.150   9.329 -2.2734 -0.8082 -0.4472
  826MOL0     H11487   5.591   1.120   9.472  0.2492 -0.4265 -0.1754
  826MOL0     H11488   5.352   1.030   9.450 -0.2353 -1.0405 -0.5680
  826MOL0     H11489   5.295   1.205   9.450 -0.2773 -1.5489 -0.2598
  826MOL0     H11490   5.254   1.167   9.669 -1.4377 -2.2006 -0.6794
  826MOL0     H11491   5.422   1.216   9.686  1.6924  0.0124 -0.7939
  826MOL0     H11492   6.146   1.572   9.456  0.9671 -0.4616 -0.5200
  826MOL0     H11493   6.359   1.440   9.475  0.6042  0.4293  0.1643
  826MOL0     H11494   6.665   1.207   9.283  0.4083  0.0689  0.9713
  826MOL0     H11495   6.868   1.080   9.262  1.4557 -0.3250  0.9327
  826MOL0     H11496   8.980   0.581   9.577  2.8348 -0.5549  2.6353
  826MOL0     H11497   9.213   0.642   9.625 -0.5690 -0.3924  0.7883
  826MOL0     H11498   9.541   0.826   9.658 -0.7774 -0.1370 -0.4489
  826MOL0     H11499   9.719   0.948   9.758 -1.6160 -0.0562 -0.0533
  826MOL0     H11500  10.052   1.114   9.490  1.3620  0.5151  0.5143
  826MOL0     H11501   9.942   1.240   9.520 -0.4259  0.6231  0.7461
  826MOL0     H11502  10.167   1.139   9.708  1.3499  0.5834  1.6909
  826MOL0     H11503  10.068   1.284   9.747 -1.9034 -1.4374  0.7266
  826MOL0     H11504  10.284   1.345   9.674 -0.4693 -2.1499  1.3872
  826MOL0     H11505  10.188   1.381   9.529  1.6531 -2.3236 -3.1742
  826MOL0     H11506  10.284   1.167   9.418  2.5820  0.8850 -1.6222
  826MOL0     H11507  10.361   1.133   9.575  1.1180  1.1186  1.0691
  826MOL0     H11508  10.630   1.413   9.434  0.8221 -1.6277  1.7206
  826MOL0     H11509   9.857   1.083   9.366  0.0157 -0.2808  0.1458
  826MOL0     H11510   9.649   0.991   9.279  0.6544  0.4326 -0.1493
  827MOL0     O11511   1.267   1.857   9.372  0.4240 -0.1942 -0.3418
  827MOL0     C11512   1.381   1.829   9.338  0.2265  0.6259  0.2606
  827MOL0     O11513   1.410   1.773   9.214  0.0449 -0.3098  0.0999
  827MOL0     C11514   1.301   1.734   9.144 -0.4606  0.0393 -0.3923
  827MOL0     C11515   1.262   1.784   9.015  0.1088  0.2092  0.5558
  827MOL0     C11516   1.150   1.725   8.954 -1.0342 -0.2571  0.4814
  827MOL0     C11517   1.077   1.616   9.009 -0.4411 -0.2308  0.3323
  827MOL0     O11518   0.970   1.555   8.942  0.1143 -0.4221  0.2748
  827MOL0     C11519   0.875   1.638   8.879  0.4138 -0.3559  0.0960
  827MOL0     C11520   0.737   1.594   8.933  0.4981 -0.8476  0.4287
  827MOL0     C11521   0.631   1.701   8.915  0.3544 -0.2927  0.1077
  827MOL0     C11522   0.600   1.735   8.767 -0.1385 -0.1141  0.3987
  827MOL0     C11523   0.482   1.831   8.746 -0.3235 -0.0511 -0.4664
  827MOL0     C11524   0.491   1.951   8.841 -0.8170  0.4409  0.4297
  827MOL0     C11525   0.363   2.031   8.819  0.4094  0.6304  0.2156
  827MOL0     C11526   0.356   2.106   8.684  0.1567 -0.1618  0.0052
  827MOL0     N11527   0.231   2.182   8.661 -0.3440 -1.1390  0.4081
  827MOL0     C11528   0.104   2.128   8.651  0.2753  0.1630 -0.3503
  827MOL0     C11529   0.022   2.235   8.666  0.3985  0.3134 -0.6087
  827MOL0     C11530  -0.124   2.221   8.690 -0.1597  0.2992 -0.4806
  827MOL0     C11531  -0.203   2.297   8.577  0.2968  0.0985  0.2617
  827MOL0     C11532  -0.197   2.232   8.433 -0.4933 -0.0842  0.0594
  827MOL0     C11533  -0.341   2.215   8.368  0.1507  0.9945  0.0665
  827MOL0     O11534  -0.428   2.134   8.444  0.7244  0.5039  0.1699
  827MOL0     C11535  -0.556   2.120   8.402  0.7890 -0.3773  0.9279
  827MOL0     C11536  -0.610   2.149   8.274  0.6526 -0.5012  0.0214
  827MOL0     C11537  -0.741   2.106   8.226 -0.7850  0.1736  0.4634
  827MOL0     C11538  -0.788   2.140   8.082  0.2604  0.7261 -0.8223
  827MOL0     C11539  -0.814   2.027   8.317 -0.4442  0.5478  0.7185
  827MOL0     C11540  -0.951   1.985   8.288  0.2213 -0.3396  0.0598
  827MOL0     O11541  -1.014   1.936   8.398  0.4498  0.1290 -0.0659
  827MOL0     C11542  -1.141   1.882   8.384 -0.5286  0.3413  0.5898
  827MOL0     C11543  -1.238   1.931   8.299 -0.2265 -0.1724  0.0776
  827MOL0     C11544  -1.363   1.882   8.289 -0.7775  0.6747  0.0383
  827MOL0     C11545  -1.400   1.777   8.373  0.1622 -0.0194 -0.4543
  827MOL0     O11546  -1.529   1.730   8.345 -0.4260  0.4829 -0.1400
  827MOL0     C11547  -1.610   1.694   8.459 -0.4381 -0.4996  0.7687
  827MOL0     C11548  -1.684   1.817   8.516  0.6756 -0.4208 -0.1387
  827MOL0     C11549  -1.775   1.885   8.408  0.2377  0.5042 -0.7330
  827MOL0     C11550  -1.827   2.023   8.459 -0.2089 -0.8271  1.0856
  827MOL0     C11551  -1.921   2.080   8.349  0.1581  0.3935 -0.2237
  827MOL0     C11552  -2.017   2.202   8.385  0.7071  0.3566  0.1857
  827MOL0     C11553  -2.115   2.265   8.276  0.3320 -0.7938 -1.0593
  827MOL0     C11554  -2.208   2.369   8.342  0.3626 -0.1285 -1.0697
  827MOL0    Cl11555  -2.326   2.445   8.227 -0.0089 -0.4891 -0.1476
  827MOL0     C11556  -1.306   1.722   8.462 -0.4861  0.5482  0.2833
  827MOL0     C11557  -1.177   1.770   8.469  0.0048  0.6201  0.1284
  827MOL0     O11558  -0.981   1.961   8.173  0.2344 -0.9530  0.3689
  827MOL0     C11559  -0.756   1.999   8.447  0.6477  0.1331 -0.3686
  827MOL0     C11560  -0.638   2.049   8.487 -0.4571 -0.1735 -0.3451
  827MOL0     N11561   0.097   2.353   8.691 -0.3875 -0.2442 -0.3988
  827MOL0     N11562   0.220   2.320   8.677 -0.8189  1.0418  0.3172
  827MOL0     C11563   1.117   1.570   9.133  0.0997  0.1052 -0.3095
  827MOL0     C11564   1.223   1.631   9.200 -0.8340 -0.3479  0.6337
  827MOL0     C11565   1.490   1.844   9.436  0.1609  0.5027  0.9641
  827MOL0     C11566   1.619   1.804   9.407  0.2373 -1.0564 -0.2009
  827MOL0     C11567   1.731   1.816   9.496 -0.0954 -0.2375  0.1375
  827MOL0     C11568   1.706   1.875   9.620  0.7012 -0.1753  0.7078
  827MOL0     O11569   1.802   1.895   9.717  0.4598  0.0230  0.4260
  827MOL0     C11570   1.943   1.871   9.685  1.0171  0.1654 -0.0929
  827MOL0     C11571   1.976   1.719   9.700  0.5591 -1.1739  0.0107
  827MOL0     C11572   2.111   1.704   9.662 -0.3402  0.7146  0.1072
  827MOL0     C11573   2.175   1.577   9.724  0.3250 -0.6373  0.6873
  827MOL0     C11574   2.112   1.452   9.676  0.4041 -0.4198  0.6661
  827MOL0     C11575   2.049   1.351   9.648  0.1834 -0.7555 -0.3133
  827MOL0     C11576   1.573   1.906   9.643  0.3249  0.7223  0.2256
  827MOL0     C11577   1.463   1.895   9.564  0.3538  0.1761  0.4294
  827MOL0     H11578   1.315   1.869   8.973  0.3541  0.9595  2.2864
  827MOL0     H11579   1.123   1.771   8.859 -0.5665  1.9900  1.3695
  827MOL0     H11580   0.894   1.743   8.902  0.2341 -0.3046  0.0125
  827MOL0     H11581   0.885   1.613   8.773  1.1185 -2.5111  0.6095
  827MOL0     H11582   0.711   1.504   8.877  2.1481 -0.3842 -1.1737
  827MOL0     H11583   0.751   1.580   9.041  0.3429  2.3188  0.9816
  827MOL0     H11584   0.543   1.654   8.961  0.6604 -1.6248 -0.6277
  827MOL0     H11585   0.644   1.790   8.978  0.5415 -0.5307  0.4080
  827MOL0     H11586   0.686   1.794   8.734 -1.0488  0.8979 -0.2478
  827MOL0     H11587   0.588   1.650   8.699 -2.8518  1.0582 -0.7748
  827MOL0     H11588   0.475   1.868   8.644  0.6503  1.3792 -0.0544
  827MOL0     H11589   0.394   1.772   8.772  0.3537 -0.8050  0.1909
  827MOL0     H11590   0.501   1.919   8.946 -0.6867 -2.1884 -0.3181
  827MOL0     H11591   0.580   2.010   8.817 -1.5622  0.9396 -1.2180
  827MOL0     H11592   0.272   1.970   8.824  0.0322  0.9529 -1.9465
  827MOL0     H11593   0.366   2.103   8.902  0.8598  1.7675 -0.7590
  827MOL0     H11594   0.366   2.029   8.607  1.6742  2.1756 -2.3108
  827MOL0     H11595   0.441   2.175   8.683  1.4922 -1.7428  0.2266
  827MOL0     H11596   0.070   2.025   8.656 -1.3830  0.6900  0.0912
  827MOL0     H11597  -0.158   2.117   8.692 -1.6749  0.7475  1.9952
  827MOL0     H11598  -0.142   2.267   8.788  2.5074  1.0717 -0.2630
  827MOL0     H11599  -0.179   2.404   8.574  0.9699 -0.0633 -0.8967
  827MOL0     H11600  -0.306   2.288   8.610  0.4386 -2.1130  0.2425
  827MOL0     H11601  -0.158   2.131   8.449 -1.5476 -0.1629  2.6929
  827MOL0     H11602  -0.129   2.284   8.365  1.5421 -1.8058  0.6594
  827MOL0     H11603  -0.332   2.180   8.265  0.9225  0.8875  0.1647
  827MOL0     H11604  -0.394   2.311   8.363 -1.2362  0.3192  1.1300
  827MOL0     H11605  -0.553   2.210   8.204  1.4236 -1.7718 -0.4843
  827MOL0     H11606  -0.730   2.214   8.027 -0.3278  0.3666 -1.9561
  827MOL0     H11607  -0.784   2.043   8.033 -2.2427 -0.5263  1.1792
  827MOL0     H11608  -0.895   2.166   8.084  0.1318  0.2322  1.6968
  827MOL0     H11609  -1.198   2.008   8.235 -0.1550 -0.7399 -0.5754
  827MOL0     H11610  -1.421   1.924   8.208  0.5521 -0.4946 -1.6176
  827MOL0     H11611  -1.687   1.630   8.415  0.8840 -0.7712 -1.2621
  827MOL0     H11612  -1.554   1.639   8.535  0.2843  0.0750  0.6645
  827MOL0     H11613  -1.743   1.794   8.605 -1.4923  0.3331 -1.3038
  827MOL0     H11614  -1.607   1.892   8.539  3.0800 -2.5933 -0.5729
  827MOL0     H11615  -1.864   1.822   8.403  1.3903 -1.7430  3.2712
  827MOL0     H11616  -1.723   1.902   8.313  1.7955  0.4660  0.0902
  827MOL0     H11617  -1.878   2.006   8.555  0.4042 -0.5577  1.4683
  827MOL0     H11618  -1.746   2.097   8.466 -0.9118  0.4386 -2.2520
  827MOL0     H11619  -1.976   1.995   8.307  4.4179 -2.3641 -0.8233
  827MOL0     H11620  -1.873   2.112   8.256 -0.4685  1.5404 -0.1670
  827MOL0     H11621  -2.079   2.162   8.466  0.6541  1.1741  0.5606
  827MOL0     H11622  -1.952   2.280   8.425  0.2255  0.4942  0.7152
  827MOL0     H11623  -2.184   2.193   8.229 -0.0716  0.4045 -2.3848
  827MOL0     H11624  -2.052   2.319   8.205 -0.3747 -1.1383 -1.9719
  827MOL0     H11625  -2.147   2.443   8.393  1.0158 -0.1730 -1.7668
  827MOL0     H11626  -2.274   2.322   8.416  0.5049 -1.5129 -1.7848
  827MOL0     H11627  -1.336   1.633   8.517 -1.9179  0.6109 -0.3601
  827MOL0     H11628  -1.112   1.725   8.543 -0.5757 -0.8586 -0.2095
  827MOL0     H11629  -0.804   1.936   8.520  0.8312  0.1998 -0.1874
  827MOL0     H11630  -0.586   2.029   8.580  1.7513  3.3531 -0.6240
  827MOL0     H11631   1.063   1.491   9.184  0.0588  0.7459  0.6479
  827MOL0     H11632   1.244   1.588   9.297 -1.5906 -1.0496  0.4897
  827MOL0     H11633   1.640   1.755   9.313  2.2392 -0.4409 -0.1150
  827MOL0     H11634   1.825   1.778   9.458  0.1181 -0.6125  1.0116
  827MOL0     H11635   1.962   1.909   9.584 -1.1076  1.0622 -0.2090
  827MOL0     H11636   2.003   1.928   9.757 -0.2379  1.3096  0.0869
  827MOL0     H11637   1.911   1.661   9.634 -3.1246 -0.4576  2.6780
  827MOL0     H11638   1.947   1.694   9.802  0.1994  1.9710  0.7745
  827MOL0     H11639   2.170   1.792   9.690  2.8341 -0.9475 -0.7570
  827MOL0     H11640   2.128   1.711   9.554  1.1383  1.6060  0.3672
  827MOL0     H11641   2.168   1.581   9.833  0.6531  1.1573  0.6660
  827MOL0     H11642   2.280   1.575   9.692  0.4240  1.1540  0.8270
  827MOL0     H11643   1.995   1.266   9.610 -0.3537 -1.0962  1.1429
  827MOL0     H11644   1.564   1.955   9.739  3.4283  1.6577  0.1355
  827MOL0     H11645   1.365   1.922   9.602 -0.0896  0.7870 -1.0718
  828MOL0     O11646   6.425   1.572   7.449  0.3166  0.0612 -0.4675
  828MOL0     C11647   6.380   1.478   7.390  1.1653 -0.5687  0.1709
  828MOL0     O11648   6.249   1.454   7.364  0.3217  0.6656  0.1198
  828MOL0     C11649   6.154   1.543   7.391 -0.1166  0.4509  0.2611
  828MOL0     C11650   6.159   1.669   7.334  0.0035  0.1092 -0.4616
  828MOL0     C11651   6.067   1.773   7.376  0.3738 -0.3085  0.2104
  828MOL0     C11652   5.971   1.740   7.475  0.2674  0.0243 -0.6162
  828MOL0     O11653   5.892   1.844   7.523  0.0427  0.1915 -0.4718
  828MOL0     C11654   5.774   1.810   7.602 -0.8071 -0.0312  0.4091
  828MOL0     C11655   5.708   1.945   7.626  0.8156  0.5263 -0.6981
  828MOL0     C11656   5.770   2.043   7.729  0.0499 -0.2377  0.5215
  828MOL0     C11657   5.675   2.161   7.755  0.2579  0.4998 -0.0932
  828MOL0     C11658   5.726   2.255   7.869  1.0383 -0.0451 -0.1700
  828MOL0     C11659   5.848   2.337   7.834  0.0292 -0.1594 -0.2047
  828MOL0     C11660   5.904   2.427   7.943  0.2439  0.6068  0.8146
  828MOL0     C11661   5.812   2.532   8.008 -0.3235 -0.0366 -0.1959
  828MOL0     N11662   5.894   2.640   8.062  0.4300  0.2339  0.3611
  828MOL0     C11663   5.968   2.630   8.169 -0.5616 -0.1190  0.0586
  828MOL0     C11664   6.023   2.750   8.184 -0.5353 -0.7248 -0.4852
  828MOL0     C11665   6.109   2.782   8.305  0.0939  0.6037  1.2513
  828MOL0     C11666   6.026   2.824   8.425  0.4840  0.3222 -0.2207
  828MOL0     C11667   6.085   2.925   8.526 -0.5524 -0.2094 -0.1433
  828MOL0     C11668   6.214   2.870   8.591 -0.3311 -0.2576  0.2834
  828MOL0     O11669   6.325   2.910   8.506 -0.3085  0.1316  0.0741
  828MOL0     C11670   6.453   2.871   8.546  0.7587  0.1508  0.3142
  828MOL0     C11671   6.544   2.893   8.443  0.1816  0.7572 -0.8832
  828MOL0     C11672   6.673   2.847   8.457  0.1126 -0.5620  0.0437
  828MOL0     C11673   6.769   2.884   8.354 -0.1232 -0.0856  0.2107
  828MOL0     C11674   6.718   2.772   8.573  0.1585 -0.2558  0.3648
  828MOL0     C11675   6.853   2.714   8.593 -0.3274  0.8230 -0.7589
  828MOL0     O11676   6.931   2.695   8.480 -0.3081  0.0505 -0.1549
  828MOL0     C11677   7.058   2.631   8.482 -0.3187  0.0282 -0.3049
  828MOL0     C11678   7.097   2.598   8.356 -0.9225 -0.2088 -0.1785
  828MOL0     C11679   7.212   2.530   8.324  0.2895 -0.7880 -0.3262
  828MOL0     C11680   7.302   2.513   8.428  0.3388  0.0221  0.8030
  828MOL0     O11681   7.422   2.448   8.396  0.5846 -0.0814  0.6266
  828MOL0     C11682   7.443   2.319   8.463 -0.8266  0.0539 -0.2620
  828MOL0     C11683   7.577   2.250   8.439 -1.2506 -0.1431  0.1129
  828MOL0     C11684   7.706   2.334   8.469 -0.3470  0.6002 -0.4611
  828MOL0     C11685   7.829   2.249   8.436 -0.3010 -0.2349 -0.1397
  828MOL0     C11686   7.958   2.331   8.453 -0.9688  0.1086 -0.2057
  828MOL0     C11687   8.066   2.240   8.403  0.7508 -0.5660  0.6001
  828MOL0     C11688   8.202   2.297   8.432  0.6324  0.5544  0.6455
  828MOL0     C11689   8.309   2.219   8.349  0.5205  0.6447  0.0887
  828MOL0    Cl11690   8.475   2.275   8.389 -0.2069  0.1655 -0.1321
  828MOL0     C11691   7.275   2.562   8.556  0.5615 -0.2660  0.9519
  828MOL0     C11692   7.153   2.622   8.586  0.3139  0.4857  0.6949
  828MOL0     O11693   6.890   2.705   8.710 -0.3586 -0.6725  0.0730
  828MOL0     C11694   6.626   2.767   8.678  0.0269  0.8969 -1.4464
  828MOL0     C11695   6.491   2.810   8.666 -0.4492 -0.6040 -0.9450
  828MOL0     N11696   6.000   2.826   8.069  0.0592 -0.1376 -0.1979
  828MOL0     N11697   5.935   2.753   7.986 -0.5264 -0.5786  0.5193
  828MOL0     C11698   5.975   1.611   7.532 -0.4273 -0.9018 -0.0774
  828MOL0     C11699   6.063   1.521   7.488 -0.6061  0.8848  0.3518
  828MOL0     C11700   6.474   1.382   7.327  0.5847  0.1064 -0.6229
  828MOL0     C11701   6.615   1.406   7.324  0.8153 -0.1676 -0.1872
  828MOL0     C11702   6.694   1.315   7.250  0.3648 -1.0992 -0.2379
  828MOL0     C11703   6.647   1.205   7.186 -0.3847  0.5336 -0.7615
  828MOL0     O11704   6.720   1.112   7.118 -0.1492 -0.1337 -0.1637
  828MOL0     C11705   6.858   1.142   7.096  0.4825  0.2846  0.4846
  828MOL0     C11706   6.926   1.022   7.024 -0.1480  1.0880 -0.0782
  828MOL0     C11707   7.048   1.063   6.946  1.0027  0.4959  0.3683
  828MOL0     C11708   7.126   0.936   6.897 -0.2390  0.3235  0.2869
  828MOL0     C11709   7.251   0.980   6.860 -0.1755 -0.6135 -0.8451
  828MOL0     C11710   7.354   1.036   6.836  0.5979 -0.3268  0.2237
  828MOL0     C11711   6.509   1.188   7.189 -0.0489 -0.3963  1.0513
  828MOL0     C11712   6.421   1.270   7.255 -0.1636 -0.1851  0.2254
  828MOL0     H11713   6.245   1.681   7.270  1.9609 -6.0268  0.3730
  828MOL0     H11714   6.062   1.877   7.345  2.6140 -0.4378 -0.8422
  828MOL0     H11715   5.713   1.735   7.550  1.1223 -2.2602  1.1680
  828MOL0     H11716   5.806   1.771   7.699 -1.8497 -1.1398  0.3414
  828MOL0     H11717   5.706   1.989   7.526  0.5015  0.6194 -0.6543
  828MOL0     H11718   5.605   1.914   7.649  0.7779  0.1208 -1.3826
  828MOL0     H11719   5.803   1.991   7.820  2.3519  0.0100 -0.1172
  828MOL0     H11720   5.865   2.078   7.688 -1.9563  2.5454 -2.1863
  828MOL0     H11721   5.655   2.222   7.667 -1.6943 -1.5172 -1.1654
  828MOL0     H11722   5.583   2.115   7.794  1.1081 -1.0589  0.1832
  828MOL0     H11723   5.644   2.323   7.892  1.2160 -0.6213  2.5158
  828MOL0     H11724   5.740   2.194   7.959 -1.1824 -2.0329 -1.0597
  828MOL0     H11725   5.933   2.273   7.811  2.3500  2.3857  0.7813
  828MOL0     H11726   5.825   2.399   7.748 -2.9842 -0.0102  0.5870
  828MOL0     H11727   5.947   2.370   8.026  1.8540 -0.7745 -0.8746
  828MOL0     H11728   5.980   2.484   7.888 -0.7018 -1.0002 -2.4572
  828MOL0     H11729   5.758   2.489   8.093  0.6041  1.3939  1.1640
  828MOL0     H11730   5.747   2.573   7.930  0.9615  0.0031 -1.2649
  828MOL0     H11731   5.969   2.540   8.230 -0.2136 -0.1361  0.0312
  828MOL0     H11732   6.160   2.688   8.329 -1.2092 -1.1218 -2.1102
  828MOL0     H11733   6.181   2.857   8.271  0.5362 -0.8751 -1.3452
  828MOL0     H11734   5.999   2.733   8.480  0.9105  0.5614  0.3968
  828MOL0     H11735   5.930   2.858   8.384  0.3271 -1.0179 -1.0187
  828MOL0     H11736   6.014   2.924   8.609 -1.2241 -2.3099 -0.6878
  828MOL0     H11737   6.106   3.023   8.482 -0.7289  0.5949  1.4751
  828MOL0     H11738   6.213   2.761   8.589  0.7000 -0.2782  0.4978
  828MOL0     H11739   6.222   2.901   8.696  2.1202 -0.8239  0.3242
  828MOL0     H11740   6.517   2.951   8.355 -0.2487  0.9079 -0.6517
  828MOL0     H11741   6.787   2.804   8.281  0.1173 -0.5827  0.8089
  828MOL0     H11742   6.728   2.963   8.291  0.7037 -2.0325 -3.0383
  828MOL0     H11743   6.867   2.911   8.394 -0.9798  0.1368  2.2402
  828MOL0     H11744   7.044   2.628   8.266 -0.5880  0.5847 -0.1171
  828MOL0     H11745   7.220   2.501   8.220 -2.3884  1.5516 -1.3143
  828MOL0     H11746   7.446   2.337   8.571  1.0480  1.1951 -0.4440
  828MOL0     H11747   7.356   2.257   8.441 -0.8029  0.4135 -1.4751
  828MOL0     H11748   7.571   2.159   8.499 -0.1793 -0.7433 -0.6709
  828MOL0     H11749   7.579   2.209   8.337 -1.6770 -1.6094  0.6692
  828MOL0     H11750   7.701   2.373   8.571  0.8206  2.8197 -1.1765
  828MOL0     H11751   7.703   2.425   8.407 -0.5687  0.4592 -0.6567
  828MOL0     H11752   7.824   2.161   8.500 -0.3145  1.5530  2.4932
  828MOL0     H11753   7.815   2.211   8.334  2.3894 -0.4619 -0.4986
  828MOL0     H11754   7.981   2.353   8.557 -0.7074 -1.2739  0.0464
  828MOL0     H11755   7.951   2.426   8.400  1.4968  0.5514  0.1571
  828MOL0     H11756   8.066   2.147   8.460  4.4764 -0.2653  1.3400
  828MOL0     H11757   8.035   2.218   8.301 -1.5611 -3.2850  1.7445
  828MOL0     H11758   8.214   2.275   8.539  0.9848 -0.4833  0.4108
  828MOL0     H11759   8.207   2.404   8.410  2.0046  0.4942  0.5258
  828MOL0     H11760   8.293   2.229   8.242  0.2346  1.0533  0.1673
  828MOL0     H11761   8.291   2.113   8.367 -1.8293  1.3478  2.5282
  828MOL0     H11762   7.340   2.542   8.641  3.1446 -2.4492 -1.3452
  828MOL0     H11763   7.137   2.645   8.691 -1.4430 -2.8338  1.2876
  828MOL0     H11764   6.644   2.750   8.784 -0.8568  1.8277 -1.1310
  828MOL0     H11765   6.417   2.806   8.745 -1.1847  3.5182 -1.1849
  828MOL0     H11766   5.909   1.592   7.616  1.8816 -0.7222  1.8810
  828MOL0     H11767   6.061   1.417   7.521  1.2322  0.3733 -0.9942
  828MOL0     H11768   6.651   1.488   7.386 -2.5673  0.4620  1.1677
  828MOL0     H11769   6.800   1.337   7.256  0.8064 -2.9018 -0.9821
  828MOL0     H11770   6.863   1.231   7.034  1.3170  0.3322  0.6189
  828MOL0     H11771   6.883   1.166   7.200 -0.4689 -3.1029  1.6309
  828MOL0     H11772   6.855   0.984   6.950 -0.1816 -0.6761  0.8131
  828MOL0     H11773   6.945   0.940   7.094  1.1422  1.8025  0.4374
  828MOL0     H11774   7.109   1.135   7.001 -0.1056  2.1282 -0.4671
  828MOL0     H11775   7.019   1.128   6.864  0.4739 -0.8332 -0.5382
  828MOL0     H11776   7.080   0.883   6.813 -0.8959 -1.0757  1.4904
  828MOL0     H11777   7.153   0.860   6.970  2.0594 -2.0520 -2.7792
  828MOL0     H11778   7.440   1.098   6.824 -1.4966  2.4108 -1.7795
  828MOL0     H11779   6.473   1.110   7.123 -1.6797  2.2480 -1.4437
  828MOL0     H11780   6.315   1.245   7.256  0.1476 -1.5973  1.6838
  829MOL0     O11781   9.847   1.016   8.303  0.2354  0.2072  0.0348
  829MOL0     C11782   9.921   1.092   8.363 -0.8619 -0.4293 -0.1676
  829MOL0     O11783   9.889   1.209   8.437 -0.4653  0.0318 -0.1409
  829MOL0     C11784   9.766   1.223   8.476  0.2712  0.0755 -0.4167
  829MOL0     C11785   9.724   1.170   8.591 -0.6978 -0.0183 -0.6690
  829MOL0     C11786   9.591   1.181   8.637 -0.7348  0.1111  0.3321
  829MOL0     C11787   9.498   1.261   8.566 -0.4283 -0.2467  0.0653
  829MOL0     O11788   9.364   1.274   8.582  0.1907 -0.7617 -1.1642
  829MOL0     C11789   9.309   1.233   8.706  0.7314 -0.0279  0.1802
  829MOL0     C11790   9.172   1.293   8.737  1.0757 -0.0581 -0.8231
  829MOL0     C11791   9.060   1.257   8.640  0.8756 -0.6014  0.2386
  829MOL0     C11792   8.940   1.346   8.685  0.5999  0.2337  0.5381
  829MOL0     C11793   8.805   1.313   8.615  0.0387 -0.2488 -0.5206
  829MOL0     C11794   8.693   1.381   8.698 -0.9399  0.2844 -0.3593
  829MOL0     C11795   8.557   1.336   8.650  0.5140 -0.0844 -0.0865
  829MOL0     C11796   8.465   1.464   8.657 -0.3087 -0.4760  0.5744
  829MOL0     N11797   8.325   1.431   8.641  0.1604  0.2396  0.0840
  829MOL0     C11798   8.238   1.393   8.742  0.1992  0.5197  0.7435
  829MOL0     C11799   8.125   1.363   8.672  0.1205  0.1739 -0.1737
  829MOL0     C11800   8.006   1.291   8.718 -0.1420  0.1885  0.4802
  829MOL0     C11801   7.881   1.375   8.754 -0.2008  0.3991  0.3833
  829MOL0     C11802   7.835   1.478   8.649 -1.2585  0.1558  0.2520
  829MOL0     C11803   7.705   1.548   8.695 -0.6568  0.0914  0.1873
  829MOL0     O11804   7.596   1.460   8.681 -0.0554  0.3502  0.6786
  829MOL0     C11805   7.470   1.518   8.662  0.2578  0.1064  0.7141
  829MOL0     C11806   7.426   1.653   8.656  0.0968  0.1812  0.7710
  829MOL0     C11807   7.299   1.696   8.613  0.8500 -0.6688 -0.4733
  829MOL0     C11808   7.274   1.847   8.591 -0.1731  0.2713 -0.0854
  829MOL0     C11809   7.206   1.596   8.573 -1.0017  0.5957 -0.8449
  829MOL0     C11810   7.065   1.612   8.519 -0.2163 -0.6786  0.2779
  829MOL0     O11811   7.006   1.511   8.442 -0.2148 -0.1270 -0.1942
  829MOL0     C11812   6.875   1.514   8.393 -0.1020 -0.0911 -0.7134
  829MOL0     C11813   6.782   1.606   8.436  0.0946 -0.0029  0.3261
  829MOL0     C11814   6.645   1.596   8.379 -0.5230 -0.0637 -0.7168
  829MOL0     C11815   6.607   1.502   8.286 -0.7701  0.5325  0.2809
  829MOL0     O11816   6.482   1.475   8.236 -0.2049  0.6198  0.1028
  829MOL0     C11817   6.375   1.539   8.304 -0.1783  0.1096 -0.7422
  829MOL0     C11818   6.239   1.514   8.240 -0.2550 -0.5105 -0.5500
  829MOL0     C11819   6.122   1.583   8.306  0.2000 -0.5894 -0.0569
  829MOL0     C11820   5.998   1.535   8.230 -0.6393  0.0086 -0.3073
  829MOL0     C11821   5.906   1.655   8.193  0.8614 -0.0869 -0.2411
  829MOL0     C11822   5.779   1.619   8.121  0.8455 -0.2391 -0.4866
  829MOL0     C11823   5.697   1.736   8.075 -0.6105  0.0616  0.0916
  829MOL0     C11824   5.586   1.695   7.981  1.0190  0.5537  0.2042
  829MOL0    Cl11825   5.462   1.591   8.051 -0.0872 -0.1321  0.1855
  829MOL0     C11826   6.709   1.417   8.245  0.5389 -0.2469 -0.8343
  829MOL0     C11827   6.840   1.415   8.299  0.1925 -0.5262  0.0048
  829MOL0     O11828   7.011   1.721   8.549 -0.0423 -0.3715  0.0599
  829MOL0     C11829   7.249   1.457   8.578 -0.2772 -0.9038  0.2103
  829MOL0     C11830   7.379   1.425   8.625  0.0320  0.8359 -0.5573
  829MOL0     N11831   8.146   1.384   8.537  0.3468 -0.2120 -1.1139
  829MOL0     N11832   8.264   1.429   8.516  0.1342 -0.6177 -0.1150
  829MOL0     C11833   9.542   1.318   8.440 -0.0691  0.1539  0.1877
  829MOL0     C11834   9.675   1.295   8.398  0.1864 -0.5000 -0.0898
  829MOL0     C11835  10.063   1.052   8.367 -0.5843 -0.1448 -0.0675
  829MOL0     C11836  10.148   1.070   8.486 -0.5240  0.0697 -0.4374
  829MOL0     C11837  10.278   1.021   8.488 -1.1029 -0.7433 -0.3023
  829MOL0     C11838  10.330   0.956   8.379 -0.4851  0.5182  0.1306
  829MOL0     O11839  10.456   0.900   8.397 -0.4634 -0.4393 -0.1158
  829MOL0     C11840  10.570   0.988   8.384 -0.4631 -0.4265 -0.4440
  829MOL0     C11841  10.609   1.064   8.508  0.6459  0.1049 -0.1189
  829MOL0     C11842  10.748   1.124   8.509 -0.3359 -0.3207 -0.1619
  829MOL0     C11843  10.784   1.183   8.648  0.0223 -0.2433 -0.7035
  829MOL0     C11844  10.928   1.217   8.653 -0.9394 -0.0634 -0.4562
  829MOL0     C11845  11.043   1.261   8.666  0.5860 -0.0728 -0.1560
  829MOL0     C11846  10.245   0.933   8.268  0.3400 -0.1223  0.3919
  829MOL0     C11847  10.115   0.986   8.258 -0.4257  0.0218 -0.5176
  829MOL0     H11848   9.789   1.106   8.649  1.7219  2.4310 -0.4776
  829MOL0     H11849   9.566   1.127   8.727  1.5325  0.6101  1.3187
  829MOL0     H11850   9.304   1.124   8.699  2.2348 -0.0955 -0.1685
  829MOL0     H11851   9.381   1.259   8.785  2.8003  1.2311 -1.9684
  829MOL0     H11852   9.147   1.244   8.832 -0.5167 -0.6513 -1.5058
  829MOL0     H11853   9.178   1.402   8.742 -0.7802  0.0274  0.9960
  829MOL0     H11854   9.078   1.270   8.533  1.6648  1.0513  0.5481
  829MOL0     H11855   9.035   1.152   8.657 -1.3949  0.2809  3.0971
  829MOL0     H11856   8.927   1.330   8.792  2.2475  2.8497  1.2251
  829MOL0     H11857   8.965   1.452   8.673  0.1090  0.6492  2.7235
  829MOL0     H11858   8.821   1.337   8.510 -0.0410  0.8729 -0.2871
  829MOL0     H11859   8.781   1.206   8.619 -0.4937 -0.3961 -4.2884
  829MOL0     H11860   8.695   1.348   8.803  1.8461  0.7131 -0.2066
  829MOL0     H11861   8.701   1.490   8.692 -0.2180  0.3169  0.8226
  829MOL0     H11862   8.567   1.287   8.553  1.0636  0.0558 -0.1009
  829MOL0     H11863   8.512   1.260   8.715 -1.2460  1.2688  0.3542
  829MOL0     H11864   8.496   1.535   8.579 -1.0034  0.2497  0.9404
  829MOL0     H11865   8.479   1.510   8.755 -2.7654  0.4801  0.5650
  829MOL0     H11866   8.260   1.386   8.848 -1.9024 -0.5453  1.1617
  829MOL0     H11867   7.967   1.224   8.640  0.1956 -0.0582  0.5242
  829MOL0     H11868   8.034   1.235   8.807  1.3552 -0.1765 -0.1933
  829MOL0     H11869   7.905   1.428   8.846 -5.3376  2.9839  0.5880
  829MOL0     H11870   7.794   1.309   8.766 -0.8781  1.3452  0.7296
  829MOL0     H11871   7.813   1.426   8.555  1.0550 -0.2591 -0.1269
  829MOL0     H11872   7.913   1.553   8.630 -1.9920  1.0613  0.7333
  829MOL0     H11873   7.689   1.633   8.629 -0.3386 -0.6138 -0.8296
  829MOL0     H11874   7.707   1.574   8.801  2.5696  0.7387  0.0823
  829MOL0     H11875   7.487   1.730   8.702 -0.7114  0.4910  1.3509
  829MOL0     H11876   7.273   1.869   8.484  1.4655 -2.5195 -0.7889
  829MOL0     H11877   7.184   1.884   8.641 -0.4445  0.9881 -1.0687
  829MOL0     H11878   7.360   1.902   8.632 -1.1913 -0.3244  3.1432
  829MOL0     H11879   6.792   1.681   8.513 -2.2820  1.9605 -1.1190
  829MOL0     H11880   6.576   1.674   8.411  0.1890  0.8137 -1.2600
  829MOL0     H11881   6.367   1.501   8.406 -0.7017 -1.8402 -1.4522
  829MOL0     H11882   6.403   1.644   8.309 -1.8633  0.5855 -0.7248
  829MOL0     H11883   6.245   1.535   8.133  2.4730 -1.7656 -0.7315
  829MOL0     H11884   6.222   1.407   8.254  2.2105 -0.7660  1.2922
  829MOL0     H11885   6.132   1.691   8.292  2.2694 -0.4979  1.6055
  829MOL0     H11886   6.109   1.563   8.413 -0.4638 -1.1936 -0.2416
  829MOL0     H11887   6.033   1.485   8.139  0.1736  1.2610 -0.7063
  829MOL0     H11888   5.945   1.469   8.300 -0.0286 -0.4305 -0.2474
  829MOL0     H11889   5.969   1.724   8.136 -1.5490 -0.8049 -4.2192
  829MOL0     H11890   5.872   1.703   8.285  0.9407  2.5061 -1.4734
  829MOL0     H11891   5.808   1.561   8.033  0.5356 -3.3008  1.2790
  829MOL0     H11892   5.719   1.553   8.184 -2.2666  0.8226 -2.1167
  829MOL0     H11893   5.765   1.813   8.038  1.4996  0.3612  4.0414
  829MOL0     H11894   5.654   1.783   8.164 -0.8362  0.8385 -0.4188
  829MOL0     H11895   5.629   1.646   7.893 -1.9580 -1.2369 -0.3789
  829MOL0     H11896   5.539   1.788   7.947 -1.4712 -0.8766 -0.5237
  829MOL0     H11897   6.687   1.342   8.170 -1.2188 -1.3410  0.6709
  829MOL0     H11898   6.914   1.345   8.262 -0.5258 -0.5186 -1.5224
  829MOL0     H11899   7.195   1.373   8.536 -1.3822 -1.1492  2.0064
  829MOL0     H11900   7.416   1.323   8.615 -1.6755 -0.3983  3.7610
  829MOL0     H11901   9.469   1.380   8.388 -1.4970 -1.5908 -0.0099
  829MOL0     H11902   9.707   1.347   8.308 -1.2051  1.5248  0.5100
  829MOL0     H11903  10.104   1.130   8.565  0.9723 -0.1051  0.5698
  829MOL0     H11904  10.335   1.031   8.580 -1.2049  0.1223 -0.3284
  829MOL0     H11905  10.662   0.936   8.355  0.7245  2.7220 -2.8085
  829MOL0     H11906  10.554   1.070   8.313  2.1103  0.2149 -0.3719
  829MOL0     H11907  10.624   0.993   8.590  3.9391  0.0270 -0.6430
  829MOL0     H11908  10.534   1.141   8.530  1.5196  0.8829  0.2068
  829MOL0     H11909  10.770   1.197   8.430 -1.2304  0.6803  0.4919
  829MOL0     H11910  10.821   1.043   8.497 -1.8138 -1.8946  0.9706
  829MOL0     H11911  10.764   1.105   8.723 -0.7993 -1.0674 -1.7471
  829MOL0     H11912  10.720   1.267   8.676 -2.6667 -2.9290  2.1042
  829MOL0     H11913  11.143   1.296   8.680  0.4946 -0.0394  0.4293
  829MOL0     H11914  10.282   0.862   8.195 -2.1424 -0.0618 -1.0320
  829MOL0     H11915  10.066   0.961   8.164  0.5529  0.0996 -1.0673
  830MOL0     O11916   0.404   1.341   8.911  0.2934 -0.2014  0.1929
  830MOL0     C11917   0.462   1.258   8.850 -0.3259  0.4574  0.2809
  830MOL0     O11918   0.414   1.193   8.746 -0.2220  0.6491 -0.3131
  830MOL0     C11919   0.308   1.226   8.666  0.5228  0.2063  0.8224
  830MOL0     C11920   0.282   1.133   8.563  0.5824  0.1264  0.0159
  830MOL0     C11921   0.186   1.147   8.468 -0.0846  0.0907  0.8562
  830MOL0     C11922   0.088   1.256   8.480 -0.0777 -0.1164 -1.0822
  830MOL0     O11923  -0.030   1.270   8.422  0.2859 -0.0219  0.1277
  830MOL0     C11924  -0.066   1.186   8.316 -0.4298  0.1736  0.1182
  830MOL0     C11925  -0.177   1.266   8.251 -0.0332 -0.4794 -0.0017
  830MOL0     C11926  -0.212   1.216   8.112  0.0264 -0.7047  0.3138
  830MOL0     C11927  -0.346   1.268   8.068  0.0099  0.4611 -0.2886
  830MOL0     C11928  -0.373   1.259   7.921 -0.6238  0.7941  0.0823
  830MOL0     C11929  -0.527   1.279   7.904  0.5595 -0.2087 -0.4856
  830MOL0     C11930  -0.544   1.337   7.759 -0.5890  0.3676 -0.5784
  830MOL0     C11931  -0.684   1.391   7.743 -0.3935  0.5961 -0.0863
  830MOL0     N11932  -0.794   1.298   7.747  0.2629  0.0065 -0.6551
  830MOL0     C11933  -0.869   1.278   7.860 -1.4083  0.1901 -0.9136
  830MOL0     C11934  -0.926   1.160   7.841 -0.2557  0.1074 -0.0123
  830MOL0     C11935  -1.002   1.093   7.948 -0.1764  0.3221 -0.0264
  830MOL0     C11936  -1.140   1.156   7.952 -0.8210 -0.4866 -0.2001
  830MOL0     C11937  -1.234   1.105   7.843  0.3009 -0.0614  0.4448
  830MOL0     C11938  -1.376   1.169   7.834  0.3806 -0.0850 -0.0156
  830MOL0     O11939  -1.469   1.139   7.935 -0.2634  0.5358  0.0130
  830MOL0     C11940  -1.601   1.160   7.918 -0.0035  0.4415 -0.3203
  830MOL0     C11941  -1.679   1.151   8.032  0.5300  0.3514 -0.9558
  830MOL0     C11942  -1.821   1.159   8.025  0.4445 -0.1842 -0.2927
  830MOL0     C11943  -1.893   1.136   8.162  0.8168  0.0498 -0.0046
  830MOL0     C11944  -1.883   1.211   7.908  0.1669 -0.2498  1.0900
  830MOL0     C11945  -2.026   1.258   7.887  0.1144 -0.1305  0.5795
  830MOL0     O11946  -2.067   1.284   7.758  0.3241 -0.4936 -0.3892
  830MOL0     C11947  -2.197   1.319   7.747  0.5394  0.4277 -0.2707
  830MOL0     C11948  -2.282   1.212   7.741  0.5060 -0.6308  0.0267
  830MOL0     C11949  -2.423   1.243   7.728  0.7012 -0.7930  1.1941
  830MOL0     C11950  -2.467   1.380   7.711 -0.2598  0.8866 -0.6583
  830MOL0     O11951  -2.604   1.394   7.696  0.5688  0.1253  0.1266
  830MOL0     C11952  -2.661   1.511   7.647  0.2686 -0.1411  0.4019
  830MOL0     C11953  -2.803   1.479   7.620 -0.3166  0.9443 -0.1570
  830MOL0     C11954  -2.877   1.586   7.539  0.5156  0.3305  0.3381
  830MOL0     C11955  -2.994   1.529   7.463 -0.0972  0.9798 -0.4838
  830MOL0     C11956  -3.097   1.627   7.425 -0.3387  0.4953  0.6750
  830MOL0     C11957  -3.208   1.553   7.342  0.1611  0.1203 -0.0547
  830MOL0     C11958  -3.267   1.654   7.238  0.5857  0.6054  0.5206
  830MOL0     C11959  -3.368   1.592   7.153  0.1823 -0.7613 -0.0803
  830MOL0    Cl11960  -3.527   1.577   7.221  0.2965  0.4848 -0.3089
  830MOL0     C11961  -2.370   1.479   7.701  0.0864 -0.0148 -0.9672
  830MOL0     C11962  -2.233   1.446   7.720  0.5842  0.0935  0.0272
  830MOL0     O11963  -2.094   1.277   7.985 -0.1053  0.4423 -0.2596
  830MOL0     C11964  -1.801   1.225   7.796  0.0121 -0.0817 -0.3004
  830MOL0     C11965  -1.663   1.196   7.805  0.0703 -0.0459 -0.0232
  830MOL0     N11966  -0.908   1.120   7.712 -0.2141 -0.2105  0.2795
  830MOL0     N11967  -0.827   1.202   7.656  0.0565 -0.4545  0.2946
  830MOL0     C11968   0.117   1.350   8.583  0.5524  0.3825  0.0278
  830MOL0     C11969   0.224   1.338   8.671 -0.2282 -0.5100 -0.4661
  830MOL0     C11970   0.593   1.212   8.895  0.1799  0.2173 -0.4139
  830MOL0     C11971   0.664   1.115   8.819  0.1754 -0.7450  0.6896
  830MOL0     C11972   0.779   1.067   8.875 -0.3106  0.5548  0.2044
  830MOL0     C11973   0.848   1.122   8.979  0.1626 -0.7388 -0.6382
  830MOL0     O11974   0.973   1.089   9.015  0.0117 -1.0163  0.9788
  830MOL0     C11975   1.086   1.104   8.920  0.5399  0.6102  0.4834
  830MOL0     C11976   1.198   1.182   8.976  0.8403  1.1848 -0.3869
  830MOL0     C11977   1.311   1.165   8.873 -0.8710 -0.1816  0.0753
  830MOL0     C11978   1.453   1.208   8.916  0.4712  0.4031 -0.1872
  830MOL0     C11979   1.522   1.131   9.013 -0.8660  0.1853 -0.2934
  830MOL0     C11980   1.580   1.071   9.102 -0.4251 -0.1751 -0.5348
  830MOL0     C11981   0.772   1.217   9.059 -0.3699  0.2089  0.4989
  830MOL0     C11982   0.643   1.248   9.021  0.5069  0.0070  0.1631
  830MOL0     H11983   0.344   1.044   8.557  1.2144  0.6511 -2.0141
  830MOL0     H11984   0.175   1.068   8.395 -2.2353 -2.7032  3.8731
  830MOL0     H11985   0.018   1.170   8.248 -0.2242 -0.6984  0.5593
  830MOL0     H11986  -0.095   1.088   8.355 -0.8419  0.8312  1.4977
  830MOL0     H11987  -0.267   1.253   8.312  0.6044  1.1567  1.3468
  830MOL0     H11988  -0.153   1.373   8.247 -0.2514 -0.4361 -0.2273
  830MOL0     H11989  -0.135   1.238   8.038  0.3212 -1.6043  0.3366
  830MOL0     H11990  -0.203   1.107   8.104  0.1782 -0.6124 -0.9633
  830MOL0     H11991  -0.417   1.204   8.122  0.5157 -0.5598 -0.8050
  830MOL0     H11992  -0.371   1.367   8.107 -0.9285 -0.7699  2.4978
  830MOL0     H11993  -0.316   1.328   7.859  0.1548  0.7624  0.7454
  830MOL0     H11994  -0.344   1.156   7.897 -0.8272  1.1824 -1.9766
  830MOL0     H11995  -0.577   1.183   7.919  0.2293  0.2723  1.9194
  830MOL0     H11996  -0.565   1.348   7.981  2.5454 -0.4631  0.7836
  830MOL0     H11997  -0.474   1.416   7.733 -0.3144 -0.3624 -2.1627
  830MOL0     H11998  -0.524   1.252   7.693  0.1308 -0.2696  0.4347
  830MOL0     H11999  -0.689   1.439   7.645 -0.1262 -2.2533 -1.6229
  830MOL0     H12000  -0.707   1.470   7.814 -3.7466 -2.2187  2.3168
  830MOL0     H12001  -0.856   1.335   7.952  0.1894  1.1182 -1.6596
  830MOL0     H12002  -1.023   0.990   7.918  2.9498 -0.7612  1.1316
  830MOL0     H12003  -0.947   1.096   8.042 -2.6355  1.5841  1.4803
  830MOL0     H12004  -1.136   1.265   7.941 -1.0387 -0.7168 -3.3945
  830MOL0     H12005  -1.175   1.141   8.054  0.5057  2.5335  0.8165
  830MOL0     H12006  -1.250   0.998   7.857  2.4359 -0.6924 -1.3916
  830MOL0     H12007  -1.188   1.125   7.746  1.4047  2.5224  1.4152
  830MOL0     H12008  -1.426   1.119   7.750 -0.5423 -0.5456  0.7974
  830MOL0     H12009  -1.359   1.276   7.819 -2.4802  1.0890  3.6609
  830MOL0     H12010  -1.635   1.118   8.126  1.7005  1.8653 -0.9181
  830MOL0     H12011  -1.997   1.104   8.156  0.9904 -0.4063 -0.7975
  830MOL0     H12012  -1.848   1.058   8.224 -0.1858  0.2448  0.9969
  830MOL0     H12013  -1.900   1.231   8.217 -2.5155  2.2667 -3.7272
  830MOL0     H12014  -2.249   1.109   7.736 -2.7056 -1.7494 -0.7560
  830MOL0     H12015  -2.495   1.163   7.718 -0.3605 -0.4327  4.6768
  830MOL0     H12016  -2.652   1.579   7.732 -0.6672 -3.2526  3.1817
  830MOL0     H12017  -2.609   1.548   7.558 -0.3394  1.4697  0.6776
  830MOL0     H12018  -2.814   1.388   7.559  1.8928  1.3406 -1.2355
  830MOL0     H12019  -2.850   1.446   7.713  1.7036 -0.7175  0.3473
  830MOL0     H12020  -2.813   1.637   7.467 -1.9784  0.0631 -2.2592
  830MOL0     H12021  -2.918   1.659   7.609  0.9057  0.0003  0.9135
  830MOL0     H12022  -2.949   1.492   7.370 -0.8071  1.6367 -1.1044
  830MOL0     H12023  -3.051   1.448   7.511  0.8331  0.5683 -0.0517
  830MOL0     H12024  -3.044   1.708   7.374  2.1230 -0.4045  1.6653
  830MOL0     H12025  -3.149   1.675   7.509 -1.8794  1.3671 -0.7161
  830MOL0     H12026  -3.171   1.462   7.293 -0.4246 -0.6706  0.9411
  830MOL0     H12027  -3.292   1.528   7.407  1.0150 -1.5044  0.4720
  830MOL0     H12028  -3.191   1.682   7.165  0.1215  0.2991 -0.0951
  830MOL0     H12029  -3.310   1.743   7.286  0.0537 -0.9841  3.2005
  830MOL0     H12030  -3.325   1.495   7.124 -0.1856 -1.1105  0.5385
  830MOL0     H12031  -3.383   1.665   7.072 -1.7605 -0.5238  0.4612
  830MOL0     H12032  -2.397   1.582   7.680 -0.8458  0.7999  3.2485
  830MOL0     H12033  -2.155   1.521   7.712  0.9733  0.0876  2.7896
  830MOL0     H12034  -1.836   1.270   7.703  2.3959  2.7172  0.0250
  830MOL0     H12035  -1.607   1.205   7.712  0.1693 -0.0278  0.0386
  830MOL0     H12036   0.048   1.433   8.597  0.6664  0.3929  0.5235
  830MOL0     H12037   0.248   1.415   8.743  1.9736 -0.5508 -1.0918
  830MOL0     H12038   0.629   1.086   8.720 -1.5350  0.0344  1.0299
  830MOL0     H12039   0.819   0.982   8.820 -0.4584 -0.0885  1.0726
  830MOL0     H12040   1.122   1.005   8.890  1.1478  1.1247 -0.5833
  830MOL0     H12041   1.046   1.152   8.830  0.6707  0.9520  0.6052
  830MOL0     H12042   1.234   1.127   9.063  0.1535  0.1940 -0.7050
  830MOL0     H12043   1.180   1.286   9.002 -1.5979  0.5569  0.6422
  830MOL0     H12044   1.288   1.219   8.781  1.7579  3.9637  1.5392
  830MOL0     H12045   1.317   1.058   8.853 -4.5657 -0.5133  0.1517
  830MOL0     H12046   1.442   1.308   8.961 -0.0741  0.3146 -0.1167
  830MOL0     H12047   1.516   1.214   8.827  0.4348 -1.1729 -0.3488
  830MOL0     H12048   1.634   1.021   9.180 -2.6327 -0.6974  0.7232
  830MOL0     H12049   0.813   1.261   9.149 -0.5750 -3.0366  2.3193
  830MOL0     H12050   0.573   1.307   9.080 -0.8188  0.9996 -2.2673
  831MOL0     O12051   9.917   7.781  10.339 -0.1890 -0.0768 -0.2975
  831MOL0     C12052   9.935   7.660  10.319 -0.1715  1.2761  0.1670
  831MOL0     O12053   9.857   7.562  10.372  0.1753  0.2436 -0.0822
  831MOL0     C12054   9.723   7.584  10.423 -1.2574 -0.8382 -0.0895
  831MOL0     C12055   9.615   7.494  10.394 -0.7536 -0.6412  0.2156
  831MOL0     C12056   9.487   7.516  10.456  0.0927 -0.2745  0.3817
  831MOL0     C12057   9.469   7.626  10.546  0.0731  0.1240  0.2315
  831MOL0     O12058   9.347   7.638  10.608 -0.1463  0.5539 -0.3849
  831MOL0     C12059   9.301   7.769  10.641 -0.0432  0.1369  0.7441
  831MOL0     C12060   9.147   7.778  10.657  0.3335  0.6288  0.5907
  831MOL0     C12061   9.072   7.727  10.539 -0.5336 -0.0395  1.3448
  831MOL0     C12062   8.919   7.763  10.542 -0.4434  0.0419  0.5369
  831MOL0     C12063   8.841   7.688  10.440  0.9552 -0.7261  0.0192
  831MOL0     C12064   8.692   7.740  10.432  0.1282 -0.4145 -0.1896
  831MOL0     C12065   8.612   7.703  10.306  0.3838  0.1762 -1.1452
  831MOL0     C12066   8.655   7.774  10.176  0.4378 -0.6875 -0.5095
  831MOL0     N12067   8.579   7.722  10.061 -0.3586 -0.7120  0.7231
  831MOL0     C12068   8.459   7.763  10.005 -0.3196  0.4450  0.1770
  831MOL0     C12069   8.441   7.692   9.894  0.4529 -0.2334  0.8734
  831MOL0     C12070   8.317   7.703   9.804 -0.4108 -0.3792  1.1250
  831MOL0     C12071   8.341   7.665   9.653  0.1682  0.1399 -0.3381
  831MOL0     C12072   8.207   7.702   9.592 -0.0041  0.6977 -0.2784
  831MOL0     C12073   8.200   7.632   9.452 -0.2263 -0.0330  0.0228
  831MOL0     O12074   8.082   7.674   9.390 -0.2404 -0.2173 -0.0137
  831MOL0     C12075   7.968   7.599   9.414 -0.0868 -0.2111  0.1213
  831MOL0     C12076   7.957   7.502   9.516 -0.7221  0.6316 -0.3620
  831MOL0     C12077   7.842   7.426   9.538  0.5853  0.1606  0.8960
  831MOL0     C12078   7.849   7.320   9.645  0.4788 -0.0027  0.2257
  831MOL0     C12079   7.730   7.433   9.450  0.5300 -1.1306  0.9826
  831MOL0     C12080   7.593   7.375   9.481 -0.1116 -0.3367  0.4364
  831MOL0     O12081   7.523   7.333   9.375  0.8698  0.2166 -0.3478
  831MOL0     C12082   7.391   7.303   9.405  0.9243  0.8620 -0.2649
  831MOL0     C12083   7.346   7.202   9.487 -0.1744  0.1805 -1.4113
  831MOL0     C12084   7.208   7.166   9.490 -0.1213  0.5806  0.0091
  831MOL0     C12085   7.112   7.234   9.420  0.9067 -1.7999  0.9578
  831MOL0     O12086   6.979   7.199   9.408 -0.1660  0.6691  0.5166
  831MOL0     C12087   6.926   7.085   9.492  0.3243 -0.8865  0.1035
  831MOL0     C12088   6.787   7.041   9.454 -0.1384 -0.2202 -0.9885
  831MOL0     C12089   6.696   7.016   9.572  0.2318  1.0056 -0.2842
  831MOL0     C12090   6.595   6.902   9.548  0.4516  0.3394  0.8633
  831MOL0     C12091   6.492   6.924   9.433  0.8900  0.4061 -0.6339
  831MOL0     C12092   6.381   6.820   9.432  0.1038 -0.3010  0.6701
  831MOL0     C12093   6.293   6.857   9.312  0.5717 -0.2697 -0.5793
  831MOL0     C12094   6.168   6.758   9.297 -0.8750 -1.1515 -1.0812
  831MOL0    Cl12095   6.058   6.829   9.176  0.2236  0.0944  0.3122
  831MOL0     C12096   7.154   7.351   9.344 -0.2195 -0.8522 -0.1760
  831MOL0     C12097   7.288   7.379   9.335 -0.4340 -0.1402  0.8529
  831MOL0     O12098   7.565   7.351   9.599 -0.5859 -0.4255  0.2998
  831MOL0     C12099   7.736   7.546   9.360 -0.1355 -0.1600 -0.2531
  831MOL0     C12100   7.853   7.627   9.345  0.1569  0.8101  0.2018
  831MOL0     N12101   8.554   7.611   9.877 -0.0807 -0.0875 -0.1215
  831MOL0     N12102   8.630   7.636   9.979  0.4360  0.4529 -0.3445
  831MOL0     C12103   9.578   7.717  10.575 -0.3040  0.2203 -0.0133
  831MOL0     C12104   9.703   7.687  10.514 -0.5040 -0.9638 -0.3372
  831MOL0     C12105  10.039   7.612  10.221  0.4492 -0.1837 -0.5662
  831MOL0     C12106  10.129   7.709  10.182  0.3309 -1.0603 -0.7394
  831MOL0     C12107  10.222   7.690  10.083 -0.9102 -0.1537 -0.1935
  831MOL0     C12108  10.238   7.559  10.037 -1.2324 -0.1724 -0.1435
  831MOL0     O12109  10.332   7.513   9.957 -0.1121 -0.0316 -0.1679
  831MOL0     C12110  10.418   7.610   9.901 -1.0500 -0.7188  0.5256
  831MOL0     C12111  10.539   7.635   9.998 -0.6714  0.9224  0.2468
  831MOL0     C12112  10.648   7.698   9.913 -0.2156  0.2526  0.4276
  831MOL0     C12113  10.786   7.690   9.981  0.4456  0.0008  0.1282
  831MOL0     C12114  10.791   7.786  10.089 -0.2461 -0.2804 -0.4422
  831MOL0     C12115  10.771   7.849  10.188 -0.2956 -0.2362 -0.8327
  831MOL0     C12116  10.145   7.460  10.066 -0.1096  0.3296 -0.4536
  831MOL0     C12117  10.046   7.482  10.161 -0.1495  0.1159 -0.5713
  831MOL0     H12118   9.624   7.412  10.324  0.3806  1.6863 -2.5540
  831MOL0     H12119   9.411   7.442  10.434 -0.8026 -0.1098  2.6067
  831MOL0     H12120   9.340   7.801  10.738  0.6133  0.1967  0.4676
  831MOL0     H12121   9.351   7.836  10.570  0.2025  2.2084  2.7486
  831MOL0     H12122   9.134   7.713  10.744  1.6722 -0.8753 -0.2864
  831MOL0     H12123   9.120   7.882  10.679  2.4635  1.0333  1.4660
  831MOL0     H12124   9.134   7.763  10.457  2.5973  0.1897  3.6271
  831MOL0     H12125   9.080   7.619  10.525  1.1701 -0.1368  2.7294
  831MOL0     H12126   8.874   7.750  10.641  0.0793  0.9281  0.8970
  831MOL0     H12127   8.922   7.868  10.512 -2.1615 -0.3222 -1.1368
  831MOL0     H12128   8.885   7.678  10.340 -0.6552 -0.1876 -0.7667
  831MOL0     H12129   8.837   7.586  10.480 -0.6150 -0.6829  0.0461
  831MOL0     H12130   8.641   7.705  10.522  1.0535  1.3762  1.1006
  831MOL0     H12131   8.701   7.848  10.448  1.9170 -0.8983  3.0163
  831MOL0     H12132   8.620   7.599  10.271 -1.9177 -0.8521  1.0111
  831MOL0     H12133   8.507   7.728  10.322  0.4945  0.1806 -0.3582
  831MOL0     H12134   8.763   7.762  10.163  0.7377  1.3303 -0.2777
  831MOL0     H12135   8.627   7.879  10.190 -1.0468 -1.1633  0.3805
  831MOL0     H12136   8.391   7.842  10.033  0.3861  0.8074  0.8794
  831MOL0     H12137   8.253   7.622   9.842  0.3067 -0.6836  1.7045
  831MOL0     H12138   8.274   7.803   9.810 -1.9479 -1.0429  1.8255
  831MOL0     H12139   8.363   7.558   9.654  0.5333  0.2120  0.6330
  831MOL0     H12140   8.407   7.740   9.609 -1.5310  1.6253 -0.4676
  831MOL0     H12141   8.199   7.811   9.592  1.7961  0.9166  2.2996
  831MOL0     H12142   8.121   7.658   9.644  0.7908 -2.2321 -1.2658
  831MOL0     H12143   8.197   7.523   9.461 -0.4419  0.0420  0.9335
  831MOL0     H12144   8.290   7.665   9.399  0.5021 -0.6143  0.8716
  831MOL0     H12145   8.044   7.474   9.575 -0.4155 -0.1282 -1.1478
  831MOL0     H12146   7.799   7.235   9.597 -0.0033  1.4107 -1.8911
  831MOL0     H12147   7.949   7.292   9.678 -0.1315  0.0197  2.2668
  831MOL0     H12148   7.803   7.357   9.737  2.5194 -0.7522  1.6215
  831MOL0     H12149   7.424   7.142   9.533  0.5620 -0.1447 -3.0145
  831MOL0     H12150   7.178   7.081   9.549 -0.9864 -0.1476 -1.4278
  831MOL0     H12151   6.996   7.001   9.500  0.8400 -0.7182 -2.0405
  831MOL0     H12152   6.917   7.133   9.590 -0.0884  3.3831 -1.7840
  831MOL0     H12153   6.738   7.121   9.399  1.1459  0.3267 -1.3710
  831MOL0     H12154   6.800   6.959   9.383 -0.5104 -1.3201  0.1721
  831MOL0     H12155   6.648   7.108   9.606 -2.8390  0.0881 -1.7790
  831MOL0     H12156   6.759   6.981   9.653  1.2138 -0.8239 -1.7618
  831MOL0     H12157   6.652   6.815   9.514 -1.2314 -0.4459 -0.0749
  831MOL0     H12158   6.535   6.879   9.637 -0.6768  0.6473  0.2026
  831MOL0     H12159   6.543   6.931   9.336  1.3329  0.7941 -0.3773
  831MOL0     H12160   6.436   7.017   9.448  0.3654  0.1674 -1.0574
  831MOL0     H12161   6.414   6.717   9.413 -1.3981 -0.4858 -1.2333
  831MOL0     H12162   6.323   6.836   9.523 -1.5332  5.4481 -0.9944
  831MOL0     H12163   6.352   6.871   9.221  0.4451  3.0301 -0.2681
  831MOL0     H12164   6.257   6.959   9.330 -0.0307 -0.6419  0.4395
  831MOL0     H12165   6.116   6.738   9.391 -0.9425  2.4403 -0.2395
  831MOL0     H12166   6.210   6.668   9.251 -1.0445 -1.3840 -0.7869
  831MOL0     H12167   7.070   7.407   9.304 -1.1937 -3.0014 -1.3392
  831MOL0     H12168   7.336   7.458   9.278  0.9752 -1.2382  0.4513
  831MOL0     H12169   7.645   7.574   9.308  0.0951 -0.8514 -1.0646
  831MOL0     H12170   7.862   7.714   9.281 -0.1673  0.9355  0.3221
  831MOL0     H12171   9.575   7.800  10.644 -1.1102  0.2400 -0.0656
  831MOL0     H12172   9.785   7.754  10.536 -2.2527  0.9828  0.6439
  831MOL0     H12173  10.116   7.814  10.206  3.1804 -0.2472 -2.3385
  831MOL0     H12174  10.292   7.764  10.047  1.1184 -2.0722 -0.3778
  831MOL0     H12175  10.452   7.556   9.813 -0.5419 -0.3968  0.5234
  831MOL0     H12176  10.366   7.701   9.867 -1.7381 -2.0128 -2.0992
  831MOL0     H12177  10.571   7.540  10.042 -0.8756  0.3960 -0.7059
  831MOL0     H12178  10.519   7.704  10.080  2.9342  1.2696  1.0054
  831MOL0     H12179  10.631   7.802   9.885  0.8883  0.3976  0.2207
  831MOL0     H12180  10.662   7.640   9.822  0.4176  2.1620 -0.7490
  831MOL0     H12181  10.861   7.717   9.906  0.7690 -0.1843  0.3815
  831MOL0     H12182  10.812   7.589  10.016  1.1675  0.3873  0.7241
  831MOL0     H12183  10.757   7.921  10.267 -0.6980 -0.9498 -0.2420
  831MOL0     H12184  10.149   7.361  10.021  1.7506 -0.9980  2.3101
  831MOL0     H12185   9.979   7.400  10.187 -0.5481 -0.1007 -2.2012
  832MOL0     O12186   3.932   8.254   7.118 -0.4447 -0.1147  0.7794
  832MOL0     C12187   3.954   8.200   7.229  0.1293 -0.9587 -0.2644
  832MOL0     O12188   3.885   8.234   7.348  0.0020 -0.5217 -0.4330
  832MOL0     C12189   3.759   8.299   7.334 -0.0090  0.3363 -0.1829
  832MOL0     C12190   3.740   8.424   7.397  0.3708  0.0551 -0.7831
  832MOL0     C12191   3.606   8.480   7.391 -0.1554 -0.0119 -0.0421
  832MOL0     C12192   3.505   8.425   7.310 -0.1289  0.6533  0.0619
  832MOL0     O12193   3.383   8.496   7.297  0.2518 -0.3483  0.7246
  832MOL0     C12194   3.274   8.440   7.224 -0.9132 -0.3661 -0.9471
  832MOL0     C12195   3.155   8.534   7.246 -0.0002  0.6245  0.5144
  832MOL0     C12196   3.180   8.681   7.193 -0.1499 -0.1208 -0.2948
  832MOL0     C12197   3.068   8.735   7.102 -0.3662 -0.2891 -0.8372
  832MOL0     C12198   3.115   8.857   7.007  0.3863 -0.5750 -0.2503
  832MOL0     C12199   2.997   8.914   6.922 -0.2017  0.1266 -0.6131
  832MOL0     C12200   2.895   8.972   7.009 -0.3612 -0.3270 -0.1417
  832MOL0     C12201   2.799   9.059   6.922 -0.0570 -0.2910 -0.0820
  832MOL0     N12202   2.751   8.977   6.805  0.1452  0.3405 -0.4467
  832MOL0     C12203   2.690   9.036   6.694 -0.3842  0.4852  0.6170
  832MOL0     C12204   2.623   8.934   6.638  0.8311  0.6623 -0.7014
  832MOL0     C12205   2.561   8.927   6.495  0.5996  0.1971  0.6060
  832MOL0     C12206   2.424   8.861   6.488  0.6128  1.1104 -0.1429
  832MOL0     C12207   2.342   8.886   6.355  0.5408 -0.7420  0.0884
  832MOL0     C12208   2.211   8.810   6.341 -0.1836  0.1162 -0.1969
  832MOL0     O12209   2.119   8.814   6.456 -0.0481  0.6692 -0.3755
  832MOL0     C12210   1.997   8.748   6.460 -0.3925 -0.0228 -0.5577
  832MOL0     C12211   1.900   8.792   6.545  0.8260 -0.4615  0.1365
  832MOL0     C12212   1.780   8.727   6.565 -0.2200 -0.2781 -0.6131
  832MOL0     C12213   1.676   8.779   6.656  0.4016 -0.3820  0.1393
  832MOL0     C12214   1.755   8.610   6.492  0.1170  0.6098  0.0257
  832MOL0     C12215   1.627   8.531   6.506 -0.1283 -0.1052 -0.0501
  832MOL0     O12216   1.589   8.474   6.385 -0.3957  0.8029  0.0881
  832MOL0     C12217   1.461   8.431   6.366  0.1618 -0.2405  0.0898
  832MOL0     C12218   1.443   8.341   6.265  0.9629  0.7718  0.7147
  832MOL0     C12219   1.322   8.288   6.232  0.4502  0.3431  0.9700
  832MOL0     C12220   1.208   8.321   6.304 -0.4243 -0.5528 -0.0629
  832MOL0     O12221   1.080   8.281   6.279 -0.0916 -0.1633  0.0890
  832MOL0     C12222   1.066   8.157   6.210  0.2135  1.0013 -0.1774
  832MOL0     C12223   0.935   8.094   6.253  0.0638  0.1401  0.2233
  832MOL0     C12224   0.910   7.951   6.200 -0.3013  0.1326  0.3827
  832MOL0     C12225   0.764   7.907   6.225  0.0963 -0.2065  0.4776
  832MOL0     C12226   0.743   7.755   6.207 -0.2228 -0.2838 -0.0388
  832MOL0     C12227   0.591   7.725   6.210 -0.2735  0.4293 -0.1855
  832MOL0     C12228   0.575   7.574   6.219  0.1174  1.0278  0.8154
  832MOL0     C12229   0.577   7.502   6.354  0.5637  0.6330 -0.7150
  832MOL0    Cl12230   0.615   7.327   6.343 -0.0620  0.0835  0.2093
  832MOL0     C12231   1.220   8.427   6.397 -0.2201 -0.6619 -0.5191
  832MOL0     C12232   1.346   8.485   6.425  1.2124 -0.3013  0.4365
  832MOL0     O12233   1.567   8.521   6.610 -0.3677 -0.2983 -0.9621
  832MOL0     C12234   1.848   8.566   6.402  0.2212 -0.5747  0.2499
  832MOL0     C12235   1.969   8.638   6.384 -0.4168  0.4484  0.0700
  832MOL0     N12236   2.637   8.818   6.712 -0.9315  0.6517  0.3565
  832MOL0     N12237   2.700   8.851   6.819 -0.1535  0.4414 -0.6834
  832MOL0     C12238   3.523   8.302   7.240  0.4597  0.8073 -0.6051
  832MOL0     C12239   3.653   8.246   7.248 -0.5788 -0.6341  0.4527
  832MOL0     C12240   4.069   8.117   7.238 -0.4598  0.7783 -0.4089
  832MOL0     C12241   4.093   8.052   7.355 -1.5305 -0.1387  0.0761
  832MOL0     C12242   4.197   7.958   7.362 -0.6163 -0.6835 -0.2201
  832MOL0     C12243   4.289   7.942   7.260 -0.0675 -0.0438  0.4540
  832MOL0     O12244   4.385   7.849   7.273  0.4065 -0.3842 -0.5240
  832MOL0     C12245   4.366   7.725   7.208  0.4006  0.2263 -0.2696
  832MOL0     C12246   4.322   7.613   7.289  0.4393  0.1071 -0.6885
  832MOL0     C12247   4.176   7.580   7.269  0.8736  0.0061  0.7635
  832MOL0     C12248   4.153   7.433   7.218  0.0463 -0.9540  0.5971
  832MOL0     C12249   4.013   7.413   7.177 -0.0995  0.2582  1.0636
  832MOL0     C12250   3.896   7.398   7.147  0.2877  0.3482 -1.2215
  832MOL0     C12251   4.262   8.009   7.139 -0.0543 -0.4383 -0.3868
  832MOL0     C12252   4.154   8.096   7.129  0.5079 -1.3548  0.3612
  832MOL0     H12253   3.822   8.461   7.458 -2.2872  0.0981  3.1326
  832MOL0     H12254   3.577   8.572   7.440  1.1199  0.9123 -0.9603
  832MOL0     H12255   3.306   8.424   7.121  2.8539 -1.6385  0.2595
  832MOL0     H12256   3.250   8.347   7.277  2.5353  0.0981  1.8009
  832MOL0     H12257   3.065   8.488   7.203  0.2513 -0.3237  0.9920
  832MOL0     H12258   3.146   8.535   7.355  1.3040  0.0087  0.6415
  832MOL0     H12259   3.201   8.754   7.272 -1.0961  0.2414 -0.3638
  832MOL0     H12260   3.274   8.678   7.137 -0.3653 -1.5296 -0.6105
  832MOL0     H12261   3.031   8.655   7.037 -0.8945 -0.8183  0.0968
  832MOL0     H12262   2.981   8.755   7.165 -1.5893 -2.6805 -1.6481
  832MOL0     H12263   3.175   8.930   7.063  0.4093 -0.7635 -0.0281
  832MOL0     H12264   3.181   8.826   6.925 -1.0023 -2.8310 -0.5959
  832MOL0     H12265   3.029   8.982   6.842 -2.2465  2.3467  0.3381
  832MOL0     H12266   2.950   8.827   6.877  2.1318 -1.4667 -0.1645
  832MOL0     H12267   2.834   8.899   7.061  2.2854 -0.7829  2.6097
  832MOL0     H12268   2.940   9.036   7.087 -0.4498 -0.3210 -0.0955
  832MOL0     H12269   2.844   9.151   6.884 -1.2197 -0.7085 -2.7073
  832MOL0     H12270   2.714   9.086   6.985 -0.5893 -2.2856  0.1121
  832MOL0     H12271   2.691   9.137   6.653 -1.7055  0.6309  0.8838
  832MOL0     H12272   2.561   9.028   6.452 -0.9791  0.6427  1.5722
  832MOL0     H12273   2.627   8.880   6.422 -0.5668  3.4938 -2.9175
  832MOL0     H12274   2.360   8.881   6.574  1.8587 -2.5401  1.8824
  832MOL0     H12275   2.439   8.755   6.511 -2.9462  0.6634  0.7956
  832MOL0     H12276   2.415   8.859   6.278 -0.6609  1.1765 -1.8309
  832MOL0     H12277   2.310   8.987   6.328 -1.5995 -1.4198 -0.0746
  832MOL0     H12278   2.237   8.711   6.302  0.7711  1.0396 -2.0305
  832MOL0     H12279   2.150   8.858   6.264 -2.5582 -2.8064 -0.3423
  832MOL0     H12280   1.922   8.876   6.611  2.6205 -0.6705 -0.1460
  832MOL0     H12281   1.583   8.785   6.599  2.1603  1.5743 -2.7755
  832MOL0     H12282   1.674   8.717   6.746 -2.6709 -0.3379  0.1960
  832MOL0     H12283   1.695   8.881   6.691 -0.3718 -0.3802  0.5750
  832MOL0     H12284   1.530   8.314   6.206  1.4829  2.1599  0.8090
  832MOL0     H12285   1.316   8.217   6.149  3.1038 -0.4777  1.3811
  832MOL0     H12286   1.069   8.171   6.101 -3.5148 -4.2715 -1.3751
  832MOL0     H12287   1.146   8.091   6.242  0.2947  0.4624 -1.4539
  832MOL0     H12288   0.928   8.087   6.362  1.5782  1.8542  0.4695
  832MOL0     H12289   0.857   8.159   6.211  1.8795  0.6717 -2.6623
  832MOL0     H12290   0.976   7.890   6.263  0.2836 -0.3861 -0.7038
  832MOL0     H12291   0.950   7.941   6.099  1.8606 -1.9080  1.3570
  832MOL0     H12292   0.732   7.933   6.326  5.1895  2.5301  1.7258
  832MOL0     H12293   0.703   7.958   6.150 -0.9772 -2.1111 -0.0247
  832MOL0     H12294   0.792   7.710   6.294 -1.0502  1.1369  1.2134
  832MOL0     H12295   0.789   7.718   6.115  1.0892 -2.9734  1.5478
  832MOL0     H12296   0.551   7.773   6.300  0.2286  2.4797 -1.0094
  832MOL0     H12297   0.537   7.762   6.123 -1.4168 -2.7428 -0.9566
  832MOL0     H12298   0.639   7.522   6.147 -0.0863  1.0348  0.6269
  832MOL0     H12299   0.480   7.544   6.174  0.7343 -0.5030  0.4894
  832MOL0     H12300   0.476   7.507   6.397  1.6114  0.7909  1.8967
  832MOL0     H12301   0.645   7.552   6.423 -3.7208  1.5600  3.3142
  832MOL0     H12302   1.134   8.461   6.455  2.2259  1.1719  2.3528
  832MOL0     H12303   1.359   8.555   6.507  0.0993 -2.8460  2.9590
  832MOL0     H12304   1.824   8.486   6.333  0.4760  0.9782 -1.7399
  832MOL0     H12305   2.039   8.590   6.317  1.9582  3.6025  0.0961
  832MOL0     H12306   3.445   8.265   7.175 -0.1734 -0.4223  0.8140
  832MOL0     H12307   3.671   8.150   7.202 -0.9636 -0.3384 -0.3199
  832MOL0     H12308   4.024   8.047   7.439 -1.2283 -0.1122  0.3243
  832MOL0     H12309   4.205   7.900   7.453 -0.2436 -0.9705 -0.4337
  832MOL0     H12310   4.297   7.736   7.124  0.9909  0.0685 -0.7854
  832MOL0     H12311   4.465   7.700   7.169  0.5827  1.5602 -0.7152
  832MOL0     H12312   4.334   7.644   7.393  0.8448  1.2216 -1.0594
  832MOL0     H12313   4.395   7.532   7.276  0.7661  0.5023 -1.3786
  832MOL0     H12314   4.130   7.650   7.198  2.6827  1.0879  0.5821
  832MOL0     H12315   4.126   7.578   7.366  2.9020 -3.6376  1.9141
  832MOL0     H12316   4.170   7.364   7.301  0.4539 -1.9119 -0.2644
  832MOL0     H12317   4.228   7.406   7.143 -1.6944  1.1850 -2.0806
  832MOL0     H12318   3.793   7.383   7.121  0.3818  1.0997 -2.0952
  832MOL0     H12319   4.329   7.989   7.056  0.7928  1.0186 -0.1083
  832MOL0     H12320   4.139   8.157   7.041  0.0106  1.9626  2.5707
  833MOL0     O12321   7.202   5.603   1.488  0.0463 -0.1181 -0.1244
  833MOL0     C12322   7.217   5.598   1.369  0.6026  0.4931  0.3641
  833MOL0     O12323   7.115   5.581   1.276 -0.4647  0.2642  0.5671
  833MOL0     C12324   6.983   5.585   1.310  0.1949  0.7177 -0.5539
  833MOL0     C12325   6.933   5.699   1.382  0.0976  0.4520  0.1180
  833MOL0     C12326   6.796   5.696   1.418 -0.0911  0.5407  0.6525
  833MOL0     C12327   6.708   5.603   1.363 -0.2755 -0.9304  0.0984
  833MOL0     O12328   6.573   5.594   1.379  0.1220 -0.1550  0.8655
  833MOL0     C12329   6.519   5.687   1.472  1.4510 -0.0372 -0.3393
  833MOL0     C12330   6.360   5.677   1.476 -1.0828 -0.9907  0.1928
  833MOL0     C12331   6.315   5.706   1.619  0.7426 -0.2108 -0.0541
  833MOL0     C12332   6.160   5.715   1.625  0.1712  0.4161  0.0294
  833MOL0     C12333   6.087   5.576   1.626  0.1548  0.5404 -0.5832
  833MOL0     C12334   5.939   5.583   1.679 -1.0615 -0.4750  0.1412
  833MOL0     C12335   5.849   5.655   1.572 -0.5885 -0.3219 -0.3259
  833MOL0     C12336   5.702   5.679   1.610 -0.3008  0.6091  0.1594
  833MOL0     N12337   5.619   5.685   1.481 -0.0825 -0.5182  0.5013
  833MOL0     C12338   5.572   5.586   1.403 -0.2436 -0.3005  0.0043
  833MOL0     C12339   5.509   5.650   1.305  0.5737 -0.5306  0.4153
  833MOL0     C12340   5.442   5.587   1.186  0.2507 -0.3362 -0.1579
  833MOL0     C12341   5.296   5.545   1.217  0.5421  0.4598 -0.0353
  833MOL0     C12342   5.207   5.669   1.245  0.3501  0.3137 -0.0676
  833MOL0     C12343   5.172   5.734   1.118 -0.5249  0.0180 -0.1532
  833MOL0     O12344   5.071   5.836   1.122 -0.3513  0.1497 -0.0241
  833MOL0     C12345   4.934   5.810   1.116 -0.3099  1.1067  0.5135
  833MOL0     C12346   4.879   5.681   1.120 -0.5304  0.1354  0.2176
  833MOL0     C12347   4.735   5.664   1.133 -0.5904 -0.2696  0.2461
  833MOL0     C12348   4.682   5.523   1.144 -0.1372  0.2352  0.2972
  833MOL0     C12349   4.652   5.779   1.131  0.0574 -0.1764  0.0821
  833MOL0     C12350   4.509   5.780   1.154 -0.0498 -0.4631  0.7208
  833MOL0     O12351   4.450   5.877   1.088 -0.0052 -0.0567  0.1392
  833MOL0     C12352   4.304   5.871   1.079  0.2596 -0.3931  0.0551
  833MOL0     C12353   4.241   5.996   1.097  0.3283  0.3714  0.7622
  833MOL0     C12354   4.097   5.998   1.083 -0.0146 -1.1280 -0.0942
  833MOL0     C12355   4.018   5.887   1.052  0.4389 -0.2852  0.6980
  833MOL0     O12356   3.880   5.877   1.046  0.2687 -0.6673 -0.2690
  833MOL0     C12357   3.808   5.977   1.124 -0.3324 -0.4705  0.4689
  833MOL0     C12358   3.651   5.961   1.123 -0.1097  0.1960 -0.3897
  833MOL0     C12359   3.584   6.017   0.997 -0.3502 -0.0786 -0.5076
  833MOL0     C12360   3.441   6.065   1.019 -0.1173  0.3601 -0.7059
  833MOL0     C12361   3.379   6.113   0.896 -0.1537 -0.4952 -0.0024
  833MOL0     C12362   3.237   6.153   0.917  0.9914 -0.9004 -0.0323
  833MOL0     C12363   3.178   6.227   0.801  0.7054  0.1257  0.0008
  833MOL0     C12364   3.022   6.216   0.802  0.2395  0.3202 -0.3759
  833MOL0    Cl12365   2.969   6.292   0.953  0.0618 -0.2854  0.4348
  833MOL0     C12366   4.084   5.772   1.027 -0.1771 -0.2849  0.7208
  833MOL0     C12367   4.228   5.761   1.028  0.1584 -0.9527  0.2324
  833MOL0     O12368   4.463   5.686   1.222 -0.2764  0.4231 -0.3380
  833MOL0     C12369   4.711   5.909   1.117  0.0060  0.7699  0.9587
  833MOL0     C12370   4.846   5.922   1.108 -0.5221  0.0762 -0.0218
  833MOL0     N12371   5.514   5.781   1.318 -0.1087  0.6373  0.3524
  833MOL0     N12372   5.582   5.800   1.425  0.7351 -0.4475  0.3278
  833MOL0     C12373   6.761   5.499   1.288 -0.3652 -0.4666 -0.1884
  833MOL0     C12374   6.892   5.482   1.263  0.3068 -0.7404 -1.2251
  833MOL0     C12375   7.355   5.605   1.320 -0.0559  0.6759 -0.4234
  833MOL0     C12376   7.379   5.568   1.187 -0.2969 -0.4625  0.6977
  833MOL0     C12377   7.512   5.557   1.143  0.2252 -0.3481 -0.2720
  833MOL0     C12378   7.622   5.588   1.226 -0.4340 -0.8205 -0.9628
  833MOL0     O12379   7.756   5.579   1.196  0.1234  0.3663 -0.7178
  833MOL0     C12380   7.791   5.522   1.077 -0.1158 -0.2515 -0.1173
  833MOL0     C12381   7.947   5.478   1.075 -0.6994  0.0648 -0.5254
  833MOL0     C12382   8.014   5.473   1.212 -0.3146 -1.1818  0.0794
  833MOL0     C12383   8.132   5.375   1.222  0.6256  0.6550  0.4964
  833MOL0     C12384   8.249   5.426   1.142  0.2684 -0.4081  0.0263
  833MOL0     C12385   8.358   5.448   1.098 -0.0412 -0.7632  0.1260
  833MOL0     C12386   7.598   5.622   1.362  0.4748  1.2165 -0.3629
  833MOL0     C12387   7.465   5.631   1.410  0.1952  0.4999 -0.3926
  833MOL0     H12388   7.002   5.778   1.409 -0.1057  2.0143 -3.3891
  833MOL0     H12389   6.759   5.777   1.480 -0.4746  2.1977 -1.6432
  833MOL0     H12390   6.564   5.661   1.569 -0.4953 -1.1066  0.3261
  833MOL0     H12391   6.537   5.790   1.441 -2.5297  0.6866 -0.7269
  833MOL0     H12392   6.327   5.745   1.397  0.6321 -1.0569 -0.6238
  833MOL0     H12393   6.335   5.574   1.449 -1.2982 -0.8330 -0.2278
  833MOL0     H12394   6.345   5.623   1.684 -1.0484  0.9537  2.4432
  833MOL0     H12395   6.356   5.797   1.663  0.1643 -1.2158  2.7613
  833MOL0     H12396   6.129   5.768   1.716 -2.5724 -2.6219  1.0629
  833MOL0     H12397   6.126   5.783   1.547 -1.0951  0.9802  1.0234
  833MOL0     H12398   6.100   5.523   1.531 -1.6189 -0.1476 -0.4702
  833MOL0     H12399   6.139   5.516   1.702 -1.3856 -1.3581 -0.9427
  833MOL0     H12400   5.890   5.490   1.710 -1.5397  0.4604  2.4381
  833MOL0     H12401   5.942   5.644   1.770  1.1868 -0.7918  0.3420
  833MOL0     H12402   5.877   5.756   1.541 -4.0590  0.7216 -0.4830
  833MOL0     H12403   5.842   5.587   1.487  1.8047 -2.4544  1.0622
  833MOL0     H12404   5.693   5.774   1.662  0.7366  1.2570 -0.7831
  833MOL0     H12405   5.662   5.603   1.678  1.3217 -2.3360 -1.9261
  833MOL0     H12406   5.595   5.481   1.414 -2.1386 -0.7414  0.1161
  833MOL0     H12407   5.457   5.647   1.096 -1.1529 -2.8609 -2.2030
  833MOL0     H12408   5.495   5.495   1.160  0.6684 -0.1625  0.0710
  833MOL0     H12409   5.307   5.467   1.292 -0.7445 -0.8852 -1.1786
  833MOL0     H12410   5.256   5.495   1.128  3.6331  0.6101 -1.6659
  833MOL0     H12411   5.252   5.737   1.318 -0.0436 -1.0265  1.4988
  833MOL0     H12412   5.112   5.636   1.289  2.2671 -2.4061  2.4515
  833MOL0     H12413   5.151   5.658   1.042 -0.8737  0.4179 -0.4643
  833MOL0     H12414   5.258   5.793   1.085  0.2959 -0.5546  0.8872
  833MOL0     H12415   4.932   5.587   1.126 -3.8103 -1.8630  0.0798
  833MOL0     H12416   4.766   5.458   1.119 -0.6953 -0.3715 -0.0451
  833MOL0     H12417   4.629   5.501   1.237 -1.0679 -0.1988 -0.3173
  833MOL0     H12418   4.617   5.507   1.057  2.7396  1.7474 -2.3367
  833MOL0     H12419   4.299   6.087   1.099 -0.3608  0.9632 -2.1399
  833MOL0     H12420   4.049   6.094   1.102 -2.8629 -1.4833 -4.0403
  833MOL0     H12421   3.841   5.983   1.228  3.4520  0.7115 -0.6509
  833MOL0     H12422   3.840   6.076   1.090  1.4946 -1.4132 -0.6504
  833MOL0     H12423   3.639   5.852   1.122  1.6231 -0.0285 -1.3608
  833MOL0     H12424   3.608   5.997   1.216  1.0891 -0.3845  0.4240
  833MOL0     H12425   3.586   5.946   0.915  0.3392 -1.4990  0.6993
  833MOL0     H12426   3.640   6.106   0.967 -0.4831 -0.4151 -1.8300
  833MOL0     H12427   3.396   5.967   1.040 -0.5224  0.3494 -1.5833
  833MOL0     H12428   3.430   6.135   1.103 -0.1700  1.0815 -1.3051
  833MOL0     H12429   3.369   6.034   0.820 -2.0193 -0.6166  0.3250
  833MOL0     H12430   3.441   6.194   0.857  0.7360 -0.0427  2.2273
  833MOL0     H12431   3.183   6.060   0.939 -2.3134  0.5679 -1.3071
  833MOL0     H12432   3.223   6.215   1.006  0.9213 -2.2386  0.9223
  833MOL0     H12433   3.203   6.180   0.705  0.0768 -2.2050  0.9077
  833MOL0     H12434   3.210   6.332   0.805 -3.2404  1.4678  1.6633
  833MOL0     H12435   2.989   6.113   0.786  0.0122  0.1226  1.2317
  833MOL0     H12436   2.974   6.262   0.715  0.8383  0.5543 -0.5895
  833MOL0     H12437   4.018   5.689   1.001  0.5292 -0.3562 -1.0189
  833MOL0     H12438   4.264   5.660   1.012 -0.8977 -1.4081  0.6552
  833MOL0     H12439   4.655   6.002   1.122 -1.8142 -0.1445 -0.9968
  833MOL0     H12440   4.884   6.020   1.082  0.4520 -0.5922 -1.3021
  833MOL0     H12441   6.692   5.426   1.246  0.4352 -0.5341 -1.4413
  833MOL0     H12442   6.927   5.403   1.198  0.8556 -1.0808 -0.5324
  833MOL0     H12443   7.295   5.546   1.122 -1.4881  2.8590  0.9088
  833MOL0     H12444   7.525   5.528   1.039 -0.6440 -2.6799  0.1953
  833MOL0     H12445   7.746   5.423   1.066  0.8349 -0.7014  0.0342
  833MOL0     H12446   7.778   5.576   0.983 -0.6847  0.8038  0.5504
  833MOL0     H12447   8.005   5.549   1.016  0.3972  3.3195  3.9364
  833MOL0     H12448   7.951   5.378   1.031 -1.4229 -0.1109 -0.2038
  833MOL0     H12449   7.937   5.439   1.283 -1.1013  2.8167  1.4109
  833MOL0     H12450   8.029   5.573   1.253  2.5988 -2.0645  1.3575
  833MOL0     H12451   8.102   5.278   1.181 -1.6639  1.8216 -0.7602
  833MOL0     H12452   8.166   5.372   1.326  4.3796  2.2086 -0.5041
  833MOL0     H12453   8.455   5.464   1.055 -2.1985  1.5721 -4.6039
  833MOL0     H12454   7.685   5.648   1.420  1.2513  1.4591 -1.5987
  833MOL0     H12455   7.448   5.658   1.514  0.9578  0.8485 -0.3509
  834MOL0     O12456   3.460   2.525   6.913  0.2101  0.3495 -0.6173
  834MOL0     C12457   3.468   2.628   6.983  0.9851  0.2407  0.1749
  834MOL0     O12458   3.359   2.680   7.045  0.1847 -0.2926  0.6712
  834MOL0     C12459   3.241   2.608   7.029 -0.8908 -0.9922  0.0325
  834MOL0     C12460   3.173   2.614   6.908 -0.0178  0.2510  0.1339
  834MOL0     C12461   3.060   2.532   6.882 -0.6477  0.2615 -0.2317
  834MOL0     C12462   3.006   2.450   6.985  0.7446 -0.0050  0.1985
  834MOL0     O12463   2.908   2.361   6.951  0.6812  0.1219 -0.0693
  834MOL0     C12464   2.918   2.227   7.004 -0.0256 -0.0990 -0.7138
  834MOL0     C12465   2.811   2.121   6.968  0.7291 -0.1758 -0.3494
  834MOL0     C12466   2.834   2.047   6.841 -0.6744 -0.3101  0.0665
  834MOL0     C12467   2.719   1.951   6.817  0.1338 -0.1242  0.1064
  834MOL0     C12468   2.735   1.898   6.675  0.0843 -0.0326  0.4757
  834MOL0     C12469   2.613   1.818   6.638  0.3291  0.2728  0.4009
  834MOL0     C12470   2.633   1.758   6.495 -0.1047 -0.9713 -0.1811
  834MOL0     C12471   2.501   1.703   6.450  0.1798 -0.2402  0.5342
  834MOL0     N12472   2.403   1.810   6.425  0.2579  0.1668  0.3116
  834MOL0     C12473   2.425   1.936   6.379  0.2179  0.1470  0.7466
  834MOL0     C12474   2.306   1.997   6.389  0.0901 -0.1620 -0.0768
  834MOL0     C12475   2.284   2.144   6.356 -0.3040  0.3323  0.7916
  834MOL0     C12476   2.215   2.177   6.218 -0.6786  0.3824  0.5055
  834MOL0     C12477   2.199   2.326   6.199 -0.3572 -0.5786 -0.3366
  834MOL0     C12478   2.089   2.378   6.092  0.5050  1.2166  0.4990
  834MOL0     O12479   1.969   2.313   6.125  0.4521  0.1901  0.3791
  834MOL0     C12480   1.858   2.356   6.068  0.7847  0.4383 -0.2970
  834MOL0     C12481   1.744   2.292   6.112  1.2087 -0.4929  0.1178
  834MOL0     C12482   1.617   2.304   6.056 -0.4576 -0.6224 -0.4980
  834MOL0     C12483   1.496   2.238   6.132  0.0351 -0.7952 -0.4061
  834MOL0     C12484   1.611   2.412   5.960  0.3140  0.3735  0.9296
  834MOL0     C12485   1.488   2.462   5.901 -0.5618 -0.5876 -0.4451
  834MOL0     O12486   1.492   2.530   5.782  0.3415  0.0446  0.6809
  834MOL0     C12487   1.380   2.589   5.724 -0.7575  0.7115  0.2003
  834MOL0     C12488   1.411   2.705   5.655  0.0965 -0.4684 -0.5758
  834MOL0     C12489   1.313   2.786   5.595  0.4959  0.3842  0.9233
  834MOL0     C12490   1.181   2.753   5.610 -0.2163  0.1068  0.1144
  834MOL0     O12491   1.091   2.851   5.573  0.4771 -0.4738  0.7171
  834MOL0     C12492   0.952   2.816   5.578  0.1974  0.7642  0.2627
  834MOL0     C12493   0.859   2.933   5.533  0.1444  0.7492  0.0861
  834MOL0     C12494   0.722   2.920   5.590 -0.1690 -0.6360 -0.3673
  834MOL0     C12495   0.624   3.003   5.511 -1.0783 -0.2997  0.6292
  834MOL0     C12496   0.489   3.004   5.575  0.4502 -0.2515  0.4284
  834MOL0     C12497   0.387   3.057   5.471 -0.1473  0.1553 -0.1942
  834MOL0     C12498   0.252   3.091   5.547 -1.1128 -0.4860 -0.7935
  834MOL0     C12499   0.129   3.112   5.446 -1.1831 -0.6400  0.3905
  834MOL0    Cl12500  -0.024   3.093   5.528 -0.4055 -0.1382  0.2763
  834MOL0     C12501   1.148   2.626   5.667  0.6599  0.0595  0.5677
  834MOL0     C12502   1.246   2.549   5.717  0.2330 -0.1769  0.1962
  834MOL0     O12503   1.389   2.462   5.976 -0.1691  0.7517 -0.5342
  834MOL0     C12504   1.723   2.491   5.918 -0.4971 -0.5057 -0.5269
  834MOL0     C12505   1.842   2.451   5.974 -0.4226  0.6040  0.2033
  834MOL0     N12506   2.214   1.909   6.450  0.3734 -0.5783 -0.6686
  834MOL0     N12507   2.272   1.798   6.465 -0.0304 -0.0935  0.3520
  834MOL0     C12508   3.070   2.456   7.114  0.6169  0.4875  0.5954
  834MOL0     C12509   3.183   2.538   7.139  0.5447 -0.2749  0.5316
  834MOL0     C12510   3.591   2.690   7.010 -0.9537 -0.7903 -0.2431
  834MOL0     C12511   3.618   2.760   7.132  0.2680 -0.0372 -0.5292
  834MOL0     C12512   3.739   2.811   7.159 -0.9057 -0.5412 -0.6282
  834MOL0     C12513   3.846   2.807   7.067 -0.2310  0.3183 -0.5586
  834MOL0     O12514   3.965   2.870   7.100 -0.2803  0.3119 -0.0302
  834MOL0     C12515   3.979   2.997   7.038  0.1111  0.2003 -0.8883
  834MOL0     C12516   4.094   3.073   7.097 -0.0821 -0.1324 -0.1432
  834MOL0     C12517   4.130   3.176   6.996 -0.2151  0.2455 -0.2335
  834MOL0     C12518   4.200   3.293   7.063 -0.0312  0.5529 -0.0947
  834MOL0     C12519   4.333   3.269   7.124 -0.0656 -0.1825 -1.1836
  834MOL0     C12520   4.438   3.256   7.187 -0.0892 -0.3459 -0.2083
  834MOL0     C12521   3.824   2.741   6.943 -0.2510 -0.5949 -0.4061
  834MOL0     C12522   3.695   2.684   6.918  0.1293 -0.0540 -0.8084
  834MOL0     H12523   3.209   2.683   6.833 -0.6842  2.7653  1.9763
  834MOL0     H12524   3.007   2.526   6.787  1.2442  2.0499 -1.4837
  834MOL0     H12525   3.017   2.191   6.973 -0.3560 -2.2085  0.5106
  834MOL0     H12526   2.916   2.240   7.113  0.5887 -0.6810 -0.6242
  834MOL0     H12527   2.813   2.046   7.047  0.7975 -2.4206 -2.3671
  834MOL0     H12528   2.712   2.168   6.968  0.2561 -1.1391 -1.1039
  834MOL0     H12529   2.843   2.127   6.766 -1.8707 -0.1949  0.0234
  834MOL0     H12530   2.933   2.002   6.855  0.9406  3.0601  0.5627
  834MOL0     H12531   2.712   1.878   6.899 -0.2360  0.9154  1.0243
  834MOL0     H12532   2.624   2.006   6.819  0.7802  1.0896 -0.9409
  834MOL0     H12533   2.740   1.976   6.599 -1.4009 -1.9514 -1.7390
  834MOL0     H12534   2.826   1.836   6.676  0.5042  0.5611  2.2394
  834MOL0     H12535   2.592   1.739   6.711 -0.2515  0.0710  0.0173
  834MOL0     H12536   2.530   1.889   6.641 -1.3239 -1.5448 -0.0644
  834MOL0     H12537   2.675   1.826   6.421 -0.6828 -1.8767 -1.3748
  834MOL0     H12538   2.702   1.675   6.511 -0.9232 -1.6659 -0.1413
  834MOL0     H12539   2.457   1.643   6.531 -0.4271  0.2233  0.5568
  834MOL0     H12540   2.518   1.644   6.359  0.3151 -0.5573  0.7644
  834MOL0     H12541   2.522   1.973   6.345  1.0182  0.3955  3.1284
  834MOL0     H12542   2.216   2.190   6.428 -0.5354 -1.6597  1.9250
  834MOL0     H12543   2.381   2.192   6.369 -1.1889  1.8972  1.9672
  834MOL0     H12544   2.115   2.132   6.223 -0.3780 -0.7509 -2.0235
  834MOL0     H12545   2.272   2.132   6.137 -2.6105 -3.5411  1.0536
  834MOL0     H12546   2.291   2.374   6.166  0.3372 -0.0398  2.1210
  834MOL0     H12547   2.177   2.374   6.295  0.0267 -0.4879 -0.2905
  834MOL0     H12548   2.122   2.353   5.991  0.0389  2.3867  0.0527
  834MOL0     H12549   2.069   2.485   6.102 -3.6477  0.7587 -1.0101
  834MOL0     H12550   1.754   2.227   6.198  2.2971 -0.8451 -0.2632
  834MOL0     H12551   1.456   2.299   6.213 -2.1496  0.8287 -2.5557
  834MOL0     H12552   1.412   2.230   6.062  0.5608  0.1591 -1.1746
  834MOL0     H12553   1.523   2.141   6.174  1.3920 -1.2352 -2.1302
  834MOL0     H12554   1.514   2.733   5.670 -0.5342  0.1439  4.2240
  834MOL0     H12555   1.356   2.877   5.553  1.4801  0.8733  2.8775
  834MOL0     H12556   0.927   2.732   5.513 -1.6889  1.5705 -0.1119
  834MOL0     H12557   0.919   2.785   5.678 -1.0376 -0.9211 -0.6184
  834MOL0     H12558   0.909   3.021   5.574  1.6022  1.3429 -2.7049
  834MOL0     H12559   0.872   2.942   5.425 -0.1867 -2.2028 -0.2821
  834MOL0     H12560   0.704   2.973   5.684 -0.5018 -0.5536 -0.4751
  834MOL0     H12561   0.692   2.815   5.593 -0.8679 -0.4234  0.3865
  834MOL0     H12562   0.662   3.104   5.490  1.0204 -0.6862  2.2651
  834MOL0     H12563   0.620   2.951   5.415  1.1390 -1.8558  1.3228
  834MOL0     H12564   0.486   3.065   5.666  0.0848 -0.4575  0.5594
  834MOL0     H12565   0.460   2.902   5.603 -0.2066 -0.3046 -0.4032
  834MOL0     H12566   0.415   3.156   5.432 -4.0854  2.3717  2.0216
  834MOL0     H12567   0.364   2.979   5.398  0.4445 -0.8157  0.6272
  834MOL0     H12568   0.254   3.179   5.612  1.7713  0.9728 -2.6619
  834MOL0     H12569   0.235   3.002   5.609 -1.9730  1.8615  2.6279
  834MOL0     H12570   0.131   3.048   5.357  0.7397  0.3824 -0.3601
  834MOL0     H12571   0.136   3.212   5.402  0.0232 -0.9509 -0.1668
  834MOL0     H12572   1.042   2.609   5.682  0.6281  0.0334  0.3213
  834MOL0     H12573   1.215   2.463   5.774 -0.6552  1.0317  1.5958
  834MOL0     H12574   1.710   2.579   5.856  2.2203 -0.2348 -0.8618
  834MOL0     H12575   1.930   2.504   5.939 -0.9946  0.1596 -2.1020
  834MOL0     H12576   3.031   2.396   7.196  2.4221  1.6492  2.4049
  834MOL0     H12577   3.243   2.531   7.229  3.0896 -1.8247 -1.1333
  834MOL0     H12578   3.549   2.760   7.216  1.0844 -1.4160  0.1737
  834MOL0     H12579   3.756   2.864   7.252 -0.5078  0.4386 -1.2555
  834MOL0     H12580   3.998   2.988   6.930  1.4531  2.1269 -0.8661
  834MOL0     H12581   3.879   3.035   7.057 -0.8434 -2.3905 -0.2648
  834MOL0     H12582   4.182   3.013   7.121 -0.5983 -0.4085  1.1930
  834MOL0     H12583   4.060   3.120   7.190 -2.0947  2.8752 -2.2097
  834MOL0     H12584   4.038   3.211   6.948 -1.3243 -1.9322  0.1765
  834MOL0     H12585   4.191   3.128   6.919 -0.2701  0.1395 -0.2119
  834MOL0     H12586   4.116   3.318   7.129 -2.4690 -0.1240 -2.7476
  834MOL0     H12587   4.203   3.383   7.002 -0.1115 -1.4183 -3.2091
  834MOL0     H12588   4.530   3.245   7.241  1.1717  0.8932 -1.9821
  834MOL0     H12589   3.904   2.739   6.870 -0.9438  1.5810 -1.3078
  834MOL0     H12590   3.674   2.641   6.821 -0.6439  0.1154 -0.7279
  835MOL0     O12591   2.841   2.085   9.587  0.8675  0.0685  0.0213
  835MOL0     C12592   2.927   2.146   9.531  0.2086  0.7403  0.7906
  835MOL0     O12593   2.941   2.144   9.398  0.3269 -0.1691 -0.0820
  835MOL0     C12594   2.827   2.169   9.316 -0.3654 -0.1454  0.0386
  835MOL0     C12595   2.838   2.136   9.184  0.0920  0.1423  0.3136
  835MOL0     C12596   2.729   2.144   9.093 -0.7852  0.0640 -0.3802
  835MOL0     C12597   2.602   2.188   9.135 -0.1519  0.2051  0.7800
  835MOL0     O12598   2.506   2.201   9.035  0.0170  0.0631  0.5503
  835MOL0     C12599   2.365   2.223   9.052 -0.4024  1.0528  0.9059
  835MOL0     C12600   2.315   2.361   9.097 -0.7396  0.1977  0.5583
  835MOL0     C12601   2.194   2.404   9.016  0.5694 -0.8022  1.0585
  835MOL0     C12602   2.156   2.544   9.034 -0.0297  0.1290  0.2396
  835MOL0     C12603   2.075   2.598   8.914 -1.0409 -0.3462  0.2904
  835MOL0     C12604   2.080   2.743   8.914 -0.8274 -0.1901 -0.6456
  835MOL0     C12605   2.019   2.805   8.784 -0.2798  0.0295  0.3384
  835MOL0     C12606   2.117   2.838   8.668 -0.0933 -0.6308  1.1454
  835MOL0     N12607   2.133   2.733   8.571  0.0071  0.6053  0.6520
  835MOL0     C12608   2.083   2.729   8.443  0.5123 -0.1566  0.8535
  835MOL0     C12609   2.144   2.618   8.389  0.3366 -0.8704  0.2379
  835MOL0     C12610   2.124   2.578   8.248  0.6057 -0.0694  0.2202
  835MOL0     C12611   1.992   2.497   8.229 -0.4684 -0.5982  0.7489
  835MOL0     C12612   1.983   2.440   8.085 -0.0729 -0.4339 -0.7291
  835MOL0     C12613   1.843   2.400   8.054  0.0190  0.0704 -0.1165
  835MOL0     O12614   1.777   2.522   8.035  0.2793 -0.0726  0.5145
  835MOL0     C12615   1.655   2.541   8.099  0.8896  0.2481 -0.6451
  835MOL0     C12616   1.640   2.665   8.162  0.9024  0.1943  0.4254
  835MOL0     C12617   1.528   2.695   8.231  0.8179  0.4525 -0.2055
  835MOL0     C12618   1.510   2.842   8.280 -0.6177  1.2199  0.1782
  835MOL0     C12619   1.412   2.610   8.223 -0.1030  0.7258 -0.3749
  835MOL0     C12620   1.282   2.641   8.277 -0.4778  0.0155 -0.1874
  835MOL0     O12621   1.169   2.603   8.214  0.1143 -0.7678 -0.1336
  835MOL0     C12622   1.046   2.624   8.264  0.9554 -0.5111 -0.6293
  835MOL0     C12623   0.951   2.522   8.266 -0.1403 -0.6069  0.3248
  835MOL0     C12624   0.816   2.543   8.290 -0.4276  0.1268 -0.1148
  835MOL0     C12625   0.778   2.665   8.345  0.3457  0.2179 -0.6730
  835MOL0     O12626   0.653   2.683   8.406  0.2993  0.4306  0.4926
  835MOL0     C12627   0.545   2.609   8.347  0.7575 -0.1728 -0.2615
  835MOL0     C12628   0.411   2.660   8.394 -0.6089 -0.2580  0.5555
  835MOL0     C12629   0.314   2.558   8.332  0.1736 -0.2401  0.5050
  835MOL0     C12630   0.175   2.633   8.316 -0.4323  0.0483 -0.6034
  835MOL0     C12631   0.058   2.531   8.286 -0.4802  0.2547 -0.7382
  835MOL0     C12632  -0.065   2.608   8.236  0.0473 -0.1088  0.1177
  835MOL0     C12633  -0.186   2.524   8.188  1.4060 -0.9848 -0.9960
  835MOL0     C12634  -0.307   2.604   8.131  0.3407 -0.0151  0.8583
  835MOL0    Cl12635  -0.445   2.494   8.126  0.0436  0.3559  0.1722
  835MOL0     C12636   0.874   2.766   8.358  0.1750  0.0639 -0.2252
  835MOL0     C12637   1.002   2.757   8.298  0.4372  0.8980  0.2653
  835MOL0     O12638   1.278   2.681   8.392  0.0957  0.4742 -0.6819
  835MOL0     C12639   1.423   2.487   8.155 -0.4118  0.3138 -0.0747
  835MOL0     C12640   1.547   2.445   8.097  0.2331  0.3869  0.2252
  835MOL0     N12641   2.225   2.556   8.477 -1.1061 -0.0278 -0.5245
  835MOL0     N12642   2.212   2.619   8.588 -0.0316 -0.5429 -0.4502
  835MOL0     C12643   2.578   2.201   9.272 -0.5359  0.1094  1.2585
  835MOL0     C12644   2.691   2.189   9.362  0.7401 -0.0596 -0.3014
  835MOL0     C12645   3.022   2.228   9.606  0.4512 -0.3804 -0.7272
  835MOL0     C12646   3.144   2.259   9.554 -0.8809  0.5871 -0.7501
  835MOL0     C12647   3.244   2.325   9.616  0.2848 -0.8488 -0.0172
  835MOL0     C12648   3.220   2.396   9.737  0.1077 -0.1187 -0.2723
  835MOL0     O12649   3.305   2.496   9.787 -0.3203 -0.2815  0.0595
  835MOL0     C12650   3.429   2.449   9.809 -0.4534 -0.2857  0.5319
  835MOL0     C12651   3.506   2.524   9.912  0.1823 -0.3897  0.1319
  835MOL0     C12652   3.524   2.670   9.865  0.3325 -1.0536 -0.6107
  835MOL0     C12653   3.590   2.743   9.975  0.1183  0.3163 -0.7384
  835MOL0     C12654   3.638   2.881   9.944  0.3010 -0.6812 -0.7496
  835MOL0     C12655   3.666   2.998   9.934 -0.7720 -0.4325 -1.0836
  835MOL0     C12656   3.094   2.360   9.799  0.4905 -0.5281 -1.0172
  835MOL0     C12657   3.000   2.277   9.739  0.7068  0.3006  0.2429
  835MOL0     H12658   2.922   2.097   9.128 -1.2182 -0.8340 -1.0565
  835MOL0     H12659   2.739   2.120   8.988 -0.0848 -0.1913 -0.2589
  835MOL0     H12660   2.332   2.207   8.949 -1.6852  0.6127  1.3655
  835MOL0     H12661   2.325   2.141   9.113 -1.0953 -2.4845 -3.7368
  835MOL0     H12662   2.277   2.347   9.198 -2.3895 -3.7064 -0.4163
  835MOL0     H12663   2.393   2.438   9.091  0.9565 -1.4997  0.0892
  835MOL0     H12664   2.204   2.375   8.911  0.3251  1.9622  0.1923
  835MOL0     H12665   2.105   2.358   9.061 -0.8142  0.4546 -0.2775
  835MOL0     H12666   2.114   2.554   9.134 -0.5339  3.3692 -0.1890
  835MOL0     H12667   2.248   2.604   9.040  0.9452 -1.4504  2.6321
  835MOL0     H12668   2.123   2.565   8.821  1.0446 -1.7670  1.7915
  835MOL0     H12669   1.973   2.562   8.929 -0.7550 -0.6298  1.7175
  835MOL0     H12670   2.018   2.790   8.991 -0.7930 -1.8360  0.4283
  835MOL0     H12671   2.181   2.782   8.921 -0.0473 -1.5642 -2.9402
  835MOL0     H12672   1.953   2.728   8.743 -0.1745  1.1852 -2.1742
  835MOL0     H12673   1.966   2.897   8.809 -0.2527 -0.2169  1.3286
  835MOL0     H12674   2.214   2.871   8.707 -0.4446  3.8599 -1.1943
  835MOL0     H12675   2.078   2.924   8.614  1.4791 -0.6039 -0.0217
  835MOL0     H12676   2.012   2.802   8.404 -1.0813 -0.4624  3.0146
  835MOL0     H12677   2.105   2.666   8.186 -3.3976 -1.6959 -1.1857
  835MOL0     H12678   2.215   2.519   8.237  0.9788 -0.0945  2.7956
  835MOL0     H12679   1.913   2.563   8.263 -0.8978 -0.7892  0.1262
  835MOL0     H12680   1.976   2.414   8.298  0.7530 -0.6152  1.0504
  835MOL0     H12681   2.042   2.348   8.088 -2.0800 -1.7745 -0.1966
  835MOL0     H12682   2.025   2.509   8.012 -1.0264  1.6398  0.5928
  835MOL0     H12683   1.796   2.345   8.136  3.2115 -1.1986  1.0455
  835MOL0     H12684   1.846   2.344   7.960  0.9331 -0.6765  0.3451
  835MOL0     H12685   1.720   2.739   8.168 -0.3191  1.5594  0.4487
  835MOL0     H12686   1.600   2.902   8.259  0.7378 -0.8181 -0.1354
  835MOL0     H12687   1.425   2.889   8.229 -1.1086  0.9777  0.7662
  835MOL0     H12688   1.482   2.848   8.385  0.1420  1.4546  0.3748
  835MOL0     H12689   0.988   2.424   8.235 -1.0499 -0.3027 -1.9076
  835MOL0     H12690   0.748   2.460   8.272  2.4657 -2.5593  0.3242
  835MOL0     H12691   0.553   2.622   8.239  0.1105  0.7123 -0.2153
  835MOL0     H12692   0.558   2.507   8.384 -2.1960  0.5967  3.6200
  835MOL0     H12693   0.405   2.652   8.503 -0.0577 -0.4650  0.5781
  835MOL0     H12694   0.395   2.760   8.355 -3.7705 -1.9693 -3.1454
  835MOL0     H12695   0.305   2.468   8.394  0.3206  0.2191  1.2015
  835MOL0     H12696   0.358   2.530   8.236  0.8002 -1.3753  1.1047
  835MOL0     H12697   0.153   2.683   8.410 -0.7806 -3.0915  1.1452
  835MOL0     H12698   0.177   2.693   8.225 -0.6789 -1.1445 -1.4263
  835MOL0     H12699   0.036   2.481   8.381  0.3389 -0.0983 -0.7204
  835MOL0     H12700   0.080   2.452   8.214 -1.3855  0.6765 -1.4886
  835MOL0     H12701  -0.088   2.670   8.323  1.2722  4.4320 -2.4661
  835MOL0     H12702  -0.028   2.674   8.156  2.0559 -1.1857  0.1010
  835MOL0     H12703  -0.226   2.474   8.276  0.3575 -0.5401 -1.2016
  835MOL0     H12704  -0.157   2.451   8.112 -1.7548 -1.3716 -1.9689
  835MOL0     H12705  -0.296   2.649   8.032 -2.2628  1.1871  1.0134
  835MOL0     H12706  -0.334   2.680   8.206  1.5283  1.0149  0.2741
  835MOL0     H12707   0.844   2.861   8.401 -1.4730 -1.2378  1.6459
  835MOL0     H12708   1.074   2.838   8.296  4.9093 -2.6475  0.1859
  835MOL0     H12709   1.341   2.417   8.142  2.2409 -2.9774 -0.2620
  835MOL0     H12710   1.568   2.347   8.055  0.2167 -0.2806  1.7019
  835MOL0     H12711   2.479   2.229   9.308 -0.3456 -0.8281  2.6064
  835MOL0     H12712   2.673   2.208   9.467  1.0397 -2.1529  0.1745
  835MOL0     H12713   3.172   2.233   9.452  4.0211 -1.3378  0.7909
  835MOL0     H12714   3.335   2.328   9.556 -0.8649 -0.4923 -1.8167
  835MOL0     H12715   3.429   2.342   9.834  0.1992 -0.2138  0.8632
  835MOL0     H12716   3.496   2.465   9.725  2.3981 -1.9308  2.3009
  835MOL0     H12717   3.602   2.473   9.920  1.3262  1.6687  0.1802
  835MOL0     H12718   3.449   2.524  10.006  0.6169 -2.6610  0.4576
  835MOL0     H12719   3.432   2.719   9.832  0.6339  0.4281  0.6584
  835MOL0     H12720   3.597   2.674   9.783  1.9665 -1.8316  0.7453
  835MOL0     H12721   3.670   2.685  10.022  0.3337  3.0907  2.7605
  835MOL0     H12722   3.509   2.757  10.046 -0.5228 -2.5823 -0.7748
  835MOL0     H12723   3.669   3.104   9.946  2.0414 -0.5170 -0.4489
  835MOL0     H12724   3.072   2.400   9.898  1.7398 -3.0219  0.3575
  835MOL0     H12725   2.909   2.250   9.791  0.4339 -1.8773 -1.2188
  836MOL0     O12726   9.100  11.250   0.913 -0.7849 -1.2706 -0.5120
  836MOL0     C12727   9.153  11.271   1.023  0.5629  0.4235 -0.0579
  836MOL0     O12728   9.083  11.261   1.141  0.1853 -0.1058  0.2838
  836MOL0     C12729   8.946  11.256   1.129 -0.1390  0.5886 -0.6014
  836MOL0     C12730   8.884  11.138   1.144 -0.3038 -0.2150 -0.2208
  836MOL0     C12731   8.745  11.128   1.131  0.3660  0.4260  1.0792
  836MOL0     C12732   8.665  11.233   1.086 -0.9393 -0.0597 -0.5466
  836MOL0     O12733   8.529  11.223   1.080 -0.8092  0.1088 -0.2267
  836MOL0     C12734   8.471  11.104   1.039  0.8771  0.3483 -0.3891
  836MOL0     C12735   8.321  11.134   1.014 -0.4155  0.9076 -0.5809
  836MOL0     C12736   8.232  11.107   1.133  0.2879 -0.0741 -0.0079
  836MOL0     C12737   8.081  11.156   1.102 -0.0240  0.4824  0.0582
  836MOL0     C12738   7.986  11.067   1.189 -0.2070 -1.2555  0.1824
  836MOL0     C12739   7.837  11.105   1.173 -0.5528  0.0111 -0.1164
  836MOL0     C12740   7.746  11.000   1.234  0.4888  0.0394  0.2326
  836MOL0     C12741   7.599  11.044   1.204  0.0402  0.5413 -0.2911
  836MOL0     N12742   7.498  10.930   1.225 -0.4043 -0.8031 -0.0350
  836MOL0     C12743   7.484  10.817   1.151  1.0380 -0.0154 -0.8873
  836MOL0     C12744   7.381  10.749   1.223 -0.8417  0.3163  0.0399
  836MOL0     C12745   7.324  10.619   1.174 -0.1304 -0.4779 -0.4366
  836MOL0     C12746   7.384  10.491   1.234  0.5637  0.6305  0.6975
  836MOL0     C12747   7.326  10.365   1.156 -0.2458 -0.4978  0.2572
  836MOL0     C12748   7.175  10.367   1.127  0.3096 -0.4425 -0.1519
  836MOL0     O12749   7.129  10.243   1.076 -1.2910 -0.1954 -0.6809
  836MOL0     C12750   7.000  10.241   1.050 -0.0090 -1.0311 -0.3417
  836MOL0     C12751   6.922  10.344   0.989  0.4145  0.0885 -0.2330
  836MOL0     C12752   6.787  10.329   0.950  0.7439  0.5797 -0.4775
  836MOL0     C12753   6.720  10.445   0.885 -0.9835  0.0809  0.2722
  836MOL0     C12754   6.722  10.204   0.994  0.6578 -0.5134  0.0120
  836MOL0     C12755   6.583  10.168   0.977 -0.0939  0.5128 -0.1420
  836MOL0     O12756   6.526  10.077   1.062 -0.2333 -0.1113  0.0751
  836MOL0     C12757   6.392  10.048   1.072  0.1100  0.1298  0.2459
  836MOL0     C12758   6.355   9.917   1.098 -0.8129  0.7341 -0.4159
  836MOL0     C12759   6.223   9.888   1.108 -0.1800 -0.7395 -0.8591
  836MOL0     C12760   6.126   9.990   1.091  0.1390  0.2220 -0.2896
  836MOL0     O12761   5.995   9.978   1.114 -0.2147  0.1541  0.7767
  836MOL0     C12762   5.933   9.857   1.142  0.1797  0.4920 -0.2214
  836MOL0     C12763   5.791   9.866   1.101 -0.1471  0.0256 -0.2498
  836MOL0     C12764   5.713   9.749   1.156  0.2044 -0.1340 -0.1547
  836MOL0     C12765   5.578   9.751   1.083 -0.0248 -0.0924  0.7691
  836MOL0     C12766   5.485   9.628   1.112 -0.0830  0.9312  0.4176
  836MOL0     C12767   5.406   9.641   1.249  0.2687  0.2857  0.4860
  836MOL0     C12768   5.324   9.524   1.270 -0.7520 -0.6514 -0.6731
  836MOL0     C12769   5.262   9.543   1.411 -0.3461 -0.2744  0.3393
  836MOL0    Cl12770   5.134   9.667   1.393  0.2797 -0.2668 -0.4506
  836MOL0     C12771   6.168  10.113   1.064  0.3522 -0.4710  0.1585
  836MOL0     C12772   6.297  10.147   1.058 -0.3466 -0.2935 -0.2664
  836MOL0     O12773   6.522  10.238   0.897  0.2271  0.0929 -0.2772
  836MOL0     C12774   6.795  10.106   1.057  0.9667 -0.9392 -0.4387
  836MOL0     C12775   6.932  10.125   1.087 -0.2974 -0.0298  0.0304
  836MOL0     N12776   7.339  10.823   1.333  0.5658  0.2512  0.3114
  836MOL0     N12777   7.414  10.926   1.326  0.0690 -0.3383 -0.3153
  836MOL0     C12778   8.734  11.355   1.058  0.5587  0.3794 -0.8066
  836MOL0     C12779   8.873  11.371   1.081 -0.7799  0.8161  0.3749
  836MOL0     C12780   9.277  11.351   1.026 -0.6140 -0.3037  0.1448
  836MOL0     C12781   9.340  11.370   1.149 -0.1016 -0.0511  0.0315
  836MOL0     C12782   9.466  11.431   1.145  0.3351 -0.4544 -0.3864
  836MOL0     C12783   9.520  11.478   1.028 -1.0466 -0.2390 -0.5792
  836MOL0     O12784   9.638  11.546   1.041 -0.3368 -0.8551 -0.0335
  836MOL0     C12785   9.699  11.609   0.930 -0.7311 -0.2991 -0.6981
  836MOL0     C12786   9.764  11.509   0.834 -0.5008 -0.5372  0.6990
  836MOL0     C12787   9.895  11.566   0.777 -0.0436  0.0947 -0.5080
  836MOL0     C12788   9.873  11.682   0.679  0.0565  0.6965  0.0131
  836MOL0     C12789  10.008  11.734   0.646  1.0519  0.2048 -0.9237
  836MOL0     C12790  10.122  11.753   0.619  0.2015  0.2036 -0.1961
  836MOL0     C12791   9.452  11.464   0.913 -0.3410  1.0257  0.7619
  836MOL0     C12792   9.333  11.395   0.905 -0.1526 -0.3294 -0.1578
  836MOL0     H12793   8.946  11.054   1.172 -2.8585 -2.9019 -2.0582
  836MOL0     H12794   8.701  11.029   1.141  2.0362 -0.4299  0.4605
  836MOL0     H12795   8.514  11.070   0.944  0.6054  2.7539 -1.4450
  836MOL0     H12796   8.478  11.020   1.108 -1.3347  1.5661  1.4483
  836MOL0     H12797   8.309  11.236   0.978  4.7273  1.5923 -1.1699
  836MOL0     H12798   8.297  11.068   0.929  0.3050  1.4491 -1.2215
  836MOL0     H12799   8.227  10.999   1.150  2.7992 -0.4802 -1.4015
  836MOL0     H12800   8.258  11.155   1.227 -1.0033 -0.0045  0.3343
  836MOL0     H12801   8.057  11.257   1.135  1.6485  0.0716  2.8333
  836MOL0     H12802   8.055  11.126   1.000 -0.2301  0.2360  0.1836
  836MOL0     H12803   8.004  10.963   1.161 -0.7720 -1.1935 -0.4414
  836MOL0     H12804   8.002  11.073   1.297  0.1149 -2.0092  0.1816
  836MOL0     H12805   7.817  11.193   1.234 -3.2429 -1.2025  0.9177
  836MOL0     H12806   7.813  11.124   1.068 -0.8855 -1.5533 -0.3421
  836MOL0     H12807   7.759  10.901   1.188  0.2191  0.1948 -0.1886
  836MOL0     H12808   7.750  10.984   1.342  0.7512 -2.0863 -0.0469
  836MOL0     H12809   7.583  11.078   1.101  1.5817 -1.6668 -1.3363
  836MOL0     H12810   7.582  11.132   1.267  0.0261  2.8100 -3.2170
  836MOL0     H12811   7.531  10.769   1.066  1.5676 -2.0148  0.4539
  836MOL0     H12812   7.215  10.616   1.186 -0.2639 -1.5320 -1.6805
  836MOL0     H12813   7.347  10.619   1.067 -2.7811  2.2107 -1.1573
  836MOL0     H12814   7.353  10.486   1.339 -1.9996  0.4232  0.0208
  836MOL0     H12815   7.492  10.501   1.240  0.3929  1.9995  2.2821
  836MOL0     H12816   7.362  10.269   1.194  0.0041 -0.9167 -0.9775
  836MOL0     H12817   7.379  10.373   1.060  0.9167 -0.5315  0.8821
  836MOL0     H12818   7.165  10.442   1.049 -2.4445 -0.7230 -0.1839
  836MOL0     H12819   7.114  10.395   1.214  2.2382  0.8101  0.8599
  836MOL0     H12820   6.965  10.441   0.967  1.6756 -0.4160 -0.0810
  836MOL0     H12821   6.674  10.424   0.788  0.4593  2.4497 -1.0454
  836MOL0     H12822   6.639  10.460   0.957 -1.4725 -0.7459 -0.0878
  836MOL0     H12823   6.779  10.537   0.876 -2.7599  1.3192  0.7606
  836MOL0     H12824   6.428   9.836   1.104 -3.0706 -1.4132 -0.1616
  836MOL0     H12825   6.184   9.790   1.130  2.8932 -1.6528  1.1201
  836MOL0     H12826   5.971   9.768   1.092 -0.2329  0.5563 -0.6557
  836MOL0     H12827   5.947   9.829   1.247  0.4871 -1.6025 -0.7887
  836MOL0     H12828   5.743   9.957   1.137  2.2029  1.0890  0.3461
  836MOL0     H12829   5.783   9.863   0.992 -2.7574 -1.9900 -0.1187
  836MOL0     H12830   5.700   9.761   1.264 -1.9663  1.6379 -0.5512
  836MOL0     H12831   5.775   9.660   1.137  2.2995  1.3515 -0.6519
  836MOL0     H12832   5.531   9.850   1.087 -1.3782 -0.7347  1.6728
  836MOL0     H12833   5.610   9.748   0.978  0.3935  0.7189  0.8743
  836MOL0     H12834   5.548   9.538   1.107 -0.7665  0.5172 -2.3065
  836MOL0     H12835   5.407   9.608   1.038 -0.4524  2.5180  0.3590
  836MOL0     H12836   5.478   9.663   1.329  0.2703 -1.5174  1.0249
  836MOL0     H12837   5.342   9.726   1.223  0.8094  0.3564 -0.6915
  836MOL0     H12838   5.397   9.443   1.277  0.4612  0.4703  0.2360
  836MOL0     H12839   5.248   9.501   1.196  1.1469 -0.9248 -2.6429
  836MOL0     H12840   5.329   9.581   1.489 -2.7347  0.7473  1.9984
  836MOL0     H12841   5.214   9.454   1.451 -0.0580 -1.3559 -1.5808
  836MOL0     H12842   6.086  10.184   1.067 -1.8329 -2.8584  0.0912
  836MOL0     H12843   6.327  10.251   1.050 -4.0771  1.1658  1.9023
  836MOL0     H12844   6.754  10.012   1.095 -0.5986 -0.1424 -0.0823
  836MOL0     H12845   6.984  10.044   1.137 -0.2039  1.0348  1.7622
  836MOL0     H12846   8.666  11.430   1.019 -0.1834  0.6302  0.9108
  836MOL0     H12847   8.934  11.457   1.053  3.0308 -1.8597 -0.4155
  836MOL0     H12848   9.297  11.321   1.236 -1.2906 -0.1943 -0.6098
  836MOL0     H12849   9.533  11.443   1.230  1.5399 -1.7015 -1.1083
  836MOL0     H12850   9.635  11.687   0.889  1.5891  3.0964  1.6153
  836MOL0     H12851   9.775  11.665   0.985 -1.6904  0.2691  0.0884
  836MOL0     H12852   9.690  11.485   0.757 -0.5256  0.1995  0.4893
  836MOL0     H12853   9.783  11.416   0.888  0.0681 -0.4529  0.6442
  836MOL0     H12854   9.935  11.477   0.727  0.7175 -1.0038  1.9043
  836MOL0     H12855   9.958  11.603   0.858 -1.9260  0.3638  0.8739
  836MOL0     H12856   9.819  11.766   0.725  0.7342  0.6628  0.8884
  836MOL0     H12857   9.823  11.651   0.587  2.8911 -1.7157 -0.8626
  836MOL0     H12858  10.229  11.764   0.610  0.6011 -0.9509  2.2345
  836MOL0     H12859   9.492  11.504   0.820  0.1237  0.9774  0.9411
  836MOL0     H12860   9.272  11.376   0.817  1.4887 -3.4136 -0.7849
  837MOL0     O12861   3.323  10.492   5.152 -0.3919 -0.0489  0.3224
  837MOL0     C12862   3.331  10.513   5.031 -0.2851 -0.1813  0.5485
  837MOL0     O12863   3.223  10.523   4.945 -0.1642 -0.3043  0.1306
  837MOL0     C12864   3.100  10.532   4.996 -0.6558  0.7468 -1.1723
  837MOL0     C12865   3.024  10.643   4.976 -0.7073 -0.7004 -0.0586
  837MOL0     C12866   2.891  10.671   5.010 -0.8193 -0.5230 -0.7063
  837MOL0     C12867   2.835  10.574   5.094  0.7895  0.3895  0.1924
  837MOL0     O12868   2.695  10.579   5.121 -0.9712 -0.2835  0.1293
  837MOL0     C12869   2.654  10.687   5.210  0.5013  0.0652 -0.5873
  837MOL0     C12870   2.502  10.688   5.199 -0.7747 -0.4007  0.5207
  837MOL0     C12871   2.427  10.559   5.246  0.3778 -0.7969 -0.2653
  837MOL0     C12872   2.487  10.500   5.369 -0.5216  0.3973 -0.1746
  837MOL0     C12873   2.407  10.370   5.402 -0.3363  0.2573  0.2759
  837MOL0     C12874   2.480  10.279   5.507 -0.5500 -0.4917 -0.3323
  837MOL0     C12875   2.616  10.223   5.476  0.3635 -0.0795 -0.2606
  837MOL0     C12876   2.670  10.161   5.606  0.7231 -0.1951 -0.2328
  837MOL0     N12877   2.807  10.103   5.583  0.0125 -0.3709 -0.7135
  837MOL0     C12878   2.926  10.179   5.591  0.4216 -0.3707  0.2750
  837MOL0     C12879   3.022  10.094   5.536  0.0142 -0.3149 -0.1651
  837MOL0     C12880   3.168  10.107   5.517 -0.0379  0.0398  0.3167
  837MOL0     C12881   3.198  10.248   5.480  0.4467 -0.0873  0.7299
  837MOL0     C12882   3.345  10.287   5.457 -0.1636  0.4307  0.0597
  837MOL0     C12883   3.404  10.222   5.332  0.6257  0.6928 -0.1056
  837MOL0     O12884   3.470  10.097   5.366  0.0661  0.7989  0.2169
  837MOL0     C12885   3.607  10.093   5.376  0.0544  0.0761 -0.1994
  837MOL0     C12886   3.675   9.988   5.310  0.6492 -0.1682 -0.1747
  837MOL0     C12887   3.808   9.980   5.300 -0.4927 -0.5651  0.1314
  837MOL0     C12888   3.858   9.855   5.227 -0.3016 -0.0680 -0.2880
  837MOL0     C12889   3.890  10.070   5.359 -0.1354  0.2475 -0.0085
  837MOL0     C12890   4.044  10.066   5.350 -0.4289  0.4163  0.3011
  837MOL0     O12891   4.093   9.997   5.241  0.2917  0.3336 -1.2632
  837MOL0     C12892   4.220   9.937   5.237  0.6228 -0.6909  0.6937
  837MOL0     C12893   4.248   9.865   5.118  0.9400 -0.8029 -0.3554
  837MOL0     C12894   4.377   9.821   5.086  0.4551 -0.6652  0.0503
  837MOL0     C12895   4.487   9.840   5.182  0.5717 -0.0164  0.3639
  837MOL0     O12896   4.619   9.791   5.165 -0.3398  0.1811  0.0907
  837MOL0     C12897   4.649   9.715   5.051  0.5218  1.4140 -0.1978
  837MOL0     C12898   4.799   9.683   5.064 -0.8382 -0.3799  0.1772
  837MOL0     C12899   4.846   9.594   4.945 -0.8849 -0.8587  0.0758
  837MOL0     C12900   4.998   9.582   4.960 -0.1605  0.0517  0.0440
  837MOL0     C12901   5.056   9.457   4.890  0.2950 -0.1651 -0.6242
  837MOL0     C12902   5.014   9.447   4.740  0.4404 -0.5786 -0.6031
  837MOL0     C12903   5.097   9.357   4.633  0.2184  0.1484  0.0980
  837MOL0     C12904   5.027   9.336   4.498  0.4304  0.1538  0.2514
  837MOL0    Cl12905   5.111   9.210   4.411 -0.5408  0.3940  0.2932
  837MOL0     C12906   4.458   9.910   5.295  0.4195 -0.5917 -1.2382
  837MOL0     C12907   4.328   9.958   5.328 -0.0609 -0.2780  0.8329
  837MOL0     O12908   4.109  10.150   5.409 -0.6105  0.0873  0.9605
  837MOL0     C12909   3.821  10.170   5.438  0.3048  0.0058 -0.1424
  837MOL0     C12910   3.681  10.189   5.444 -0.4567 -0.1443  0.5834
  837MOL0     N12911   2.966   9.969   5.530  0.8824  0.0550 -0.0982
  837MOL0     N12912   2.839   9.971   5.557  0.3147 -0.7190  0.3684
  837MOL0     C12913   2.899  10.455   5.117  0.5139 -0.6419 -0.4814
  837MOL0     C12914   3.032  10.433   5.072 -0.8447 -0.0668  0.4622
  837MOL0     C12915   3.463  10.548   4.972  0.3897 -0.6221 -0.3923
  837MOL0     C12916   3.566  10.569   5.066 -0.7484  0.6976 -0.5147
  837MOL0     C12917   3.691  10.618   5.027  0.1609 -0.2805  0.1682
  837MOL0     C12918   3.718  10.647   4.894 -0.2855  0.6014  0.7707
  837MOL0     O12919   3.835  10.711   4.873 -0.3793  0.3916 -0.4154
  837MOL0     C12920   3.882  10.712   4.736  0.0614  0.0529 -1.0832
  837MOL0     C12921   4.040  10.701   4.743 -1.2211 -0.0438  0.4491
  837MOL0     C12922   4.104  10.838   4.725 -0.7268 -0.2544 -0.1368
  837MOL0     C12923   4.257  10.833   4.749  0.1209 -0.4162  0.2328
  837MOL0     C12924   4.323  10.963   4.733 -0.0355  0.2247  0.2609
  837MOL0     C12925   4.386  11.066   4.734  0.0468 -0.1375 -1.1538
  837MOL0     C12926   3.611  10.625   4.795 -0.5980  0.4511  0.5536
  837MOL0     C12927   3.490  10.576   4.833  0.7852 -0.1977  0.1316
  837MOL0     H12928   3.078  10.720   4.921 -0.7556 -1.8164 -1.7220
  837MOL0     H12929   2.840  10.760   4.976  3.0866  1.4818 -1.8852
  837MOL0     H12930   2.681  10.657   5.312 -1.8957  0.2357  0.1571
  837MOL0     H12931   2.704  10.777   5.173 -0.0549 -0.0512 -1.6517
  837MOL0     H12932   2.482  10.775   5.263  2.8758  0.0225  1.2742
  837MOL0     H12933   2.481  10.715   5.095 -1.6062 -2.7453  0.0299
  837MOL0     H12934   2.318  10.565   5.257  0.2408 -3.2725  0.3415
  837MOL0     H12935   2.436  10.481   5.171  1.6225 -0.6859 -0.2447
  837MOL0     H12936   2.587  10.464   5.346 -0.7783  0.2746 -1.1388
  837MOL0     H12937   2.479  10.572   5.451 -0.9301  2.9700 -2.3368
  837MOL0     H12938   2.310  10.399   5.443  0.1518  2.5032 -0.0238
  837MOL0     H12939   2.383  10.318   5.308  0.4511  1.2037 -0.4592
  837MOL0     H12940   2.492  10.343   5.595 -2.2620 -3.0876  1.9728
  837MOL0     H12941   2.411  10.199   5.535  0.4395 -1.4247 -0.4928
  837MOL0     H12942   2.603  10.155   5.391  1.1409  0.9212 -1.2212
  837MOL0     H12943   2.690  10.299   5.447  0.0401  2.3081  4.3489
  837MOL0     H12944   2.607  10.081   5.644  1.6495 -0.3951  0.9339
  837MOL0     H12945   2.679  10.240   5.681  2.9154  0.5917 -1.2354
  837MOL0     H12946   2.938  10.281   5.626 -1.8772 -0.0266  0.2154
  837MOL0     H12947   3.231  10.069   5.598  0.2119 -1.0195 -0.3502
  837MOL0     H12948   3.198  10.031   5.444  0.8242  0.5978  0.0645
  837MOL0     H12949   3.176  10.315   5.564 -0.4378 -0.9812  1.2319
  837MOL0     H12950   3.139  10.274   5.392 -2.5464 -1.5015  2.1610
  837MOL0     H12951   3.395  10.261   5.551 -1.6460  1.8538  1.3094
  837MOL0     H12952   3.357  10.396   5.458 -1.2670  0.5821 -0.9508
  837MOL0     H12953   3.474  10.294   5.289 -0.1571  1.9551  0.6674
  837MOL0     H12954   3.324  10.206   5.259  0.7368 -1.1137  0.1273
  837MOL0     H12955   3.609   9.926   5.251  0.0528  0.2480  0.0354
  837MOL0     H12956   3.952   9.825   5.274  0.1142  2.8146  0.9527
  837MOL0     H12957   3.795   9.767   5.243 -0.1109  0.3668  3.9220
  837MOL0     H12958   3.885   9.867   5.122 -0.1480  0.8400 -0.1510
  837MOL0     H12959   4.162   9.850   5.054 -0.3445 -0.5862  1.2422
  837MOL0     H12960   4.388   9.783   4.985 -1.6512  2.2001 -1.4208
  837MOL0     H12961   4.594   9.621   5.048  2.6352 -0.0534  2.1913
  837MOL0     H12962   4.637   9.780   4.964 -1.7290  0.1921 -0.8571
  837MOL0     H12963   4.852   9.778   5.051  0.9189 -1.4789 -1.0223
  837MOL0     H12964   4.814   9.640   5.164 -0.2748  0.7273  0.5814
  837MOL0     H12965   4.839   9.643   4.848  0.6075  1.6276  1.1291
  837MOL0     H12966   4.802   9.494   4.942  0.3089 -1.3808 -1.1167
  837MOL0     H12967   5.058   9.670   4.936  3.2348 -2.0141  0.2767
  837MOL0     H12968   5.020   9.554   5.063 -2.2567 -0.0630  0.5081
  837MOL0     H12969   5.024   9.365   4.941  1.9043  0.0480  0.8578
  837MOL0     H12970   5.165   9.464   4.901  0.3253 -3.3587  4.5900
  837MOL0     H12971   4.908   9.421   4.728  0.1421  0.6667 -0.8095
  837MOL0     H12972   5.009   9.549   4.701 -1.9989 -0.9321 -1.4289
  837MOL0     H12973   5.110   9.256   4.673 -0.2560  0.7000  1.7234
  837MOL0     H12974   5.197   9.401   4.627  0.0844  0.5114  0.4505
  837MOL0     H12975   5.057   9.425   4.442  0.4327  0.8943  1.3977
  837MOL0     H12976   4.919   9.318   4.496  0.3918  0.4366 -1.0868
  837MOL0     H12977   4.540   9.920   5.365 -0.1119 -3.3466 -0.1328
  837MOL0     H12978   4.316  10.013   5.420  0.3468 -0.2896  0.8962
  837MOL0     H12979   3.877  10.249   5.487 -2.2994  2.8321 -1.4259
  837MOL0     H12980   3.641  10.278   5.492  1.8552  0.6374  1.2037
  837MOL0     H12981   2.849  10.378   5.174 -0.6269 -0.7031 -1.5324
  837MOL0     H12982   3.086  10.342   5.096 -1.4060 -0.5286  0.0104
  837MOL0     H12983   3.548  10.545   5.171 -1.2465  1.4507 -0.4226
  837MOL0     H12984   3.766  10.647   5.100  2.7532 -1.5574 -1.8351
  837MOL0     H12985   3.851  10.618   4.690  3.0525 -1.6977  0.1323
  837MOL0     H12986   3.846  10.795   4.675 -0.8327 -0.8667 -1.8332
  837MOL0     H12987   4.064  10.622   4.670 -1.7388 -0.2858  0.5383
  837MOL0     H12988   4.074  10.652   4.834  2.1335  1.8274  0.3705
  837MOL0     H12989   4.042  10.906   4.785  0.0583 -0.5574  1.0642
  837MOL0     H12990   4.084  10.884   4.628 -0.4851  0.8099  0.2963
  837MOL0     H12991   4.304  10.766   4.676  3.7187 -0.0490  2.0052
  837MOL0     H12992   4.278  10.793   4.849  0.2324 -0.2373  0.2803
  837MOL0     H12993   4.445  11.154   4.744 -0.2956 -0.0533  0.2937
  837MOL0     H12994   3.621  10.664   4.694 -1.0594  3.7143  1.6374
  837MOL0     H12995   3.407  10.555   4.765 -0.6378 -1.4360  2.1541
  838MOL0     O12996  11.013   0.983   0.529 -0.5952 -0.0687  0.0700
  838MOL0     C12997  11.102   0.901   0.562  0.1436  0.0067  0.2635
  838MOL0     O12998  11.088   0.786   0.633  0.0390 -0.3812  0.2970
  838MOL0     C12999  10.983   0.767   0.714  0.2216 -0.8445  0.0644
  838MOL0     C13000  11.001   0.776   0.857 -0.6888  0.3165 -0.0804
  838MOL0     C13001  10.891   0.786   0.941  1.0867  0.5348  0.7861
  838MOL0     C13002  10.761   0.766   0.888 -0.5259 -0.5588 -0.1019
  838MOL0     O13003  10.660   0.743   0.979  0.1772 -0.2594 -0.3815
  838MOL0     C13004  10.552   0.840   0.968 -0.6290  0.2033 -0.4808
  838MOL0     C13005  10.467   0.830   1.099  1.2184  0.1279 -0.5451
  838MOL0     C13006  10.388   0.704   1.117 -0.5202 -0.1465  0.5876
  838MOL0     C13007  10.292   0.721   1.232 -0.6378  0.0879  0.5115
  838MOL0     C13008  10.231   0.582   1.278  0.2337  0.2321  0.9241
  838MOL0     C13009  10.136   0.528   1.165  0.5941 -0.2731 -0.7296
  838MOL0     C13010  10.005   0.470   1.226 -1.0490  0.5688 -0.2974
  838MOL0     C13011   9.907   0.583   1.275  0.0863  0.0849 -0.0397
  838MOL0     N13012   9.804   0.546   1.371  1.2373 -0.8757 -0.0379
  838MOL0     C13013   9.708   0.455   1.357  0.8702 -0.0584 -0.5580
  838MOL0     C13014   9.629   0.474   1.467  0.4428 -0.6760 -0.7122
  838MOL0     C13015   9.517   0.400   1.505 -0.6549  0.1698  0.0868
  838MOL0     C13016   9.389   0.455   1.431 -0.6637  0.4854 -0.2353
  838MOL0     C13017   9.349   0.596   1.484 -0.0509 -0.3046 -0.4583
  838MOL0     C13018   9.292   0.595   1.629 -0.6413  0.3561  0.2740
  838MOL0     O13019   9.212   0.479   1.657  0.0012  0.1248 -0.2492
  838MOL0     C13020   9.087   0.472   1.590 -0.0246 -0.2362  1.0204
  838MOL0     C13021   9.031   0.350   1.568  0.8168  0.2005  0.4141
  838MOL0     C13022   8.899   0.333   1.511  0.9734 -0.0810 -0.0240
  838MOL0     C13023   8.842   0.200   1.475 -0.2648 -0.2439 -0.2623
  838MOL0     C13024   8.824   0.447   1.478  0.0156 -0.5922  0.9647
  838MOL0     C13025   8.690   0.439   1.410 -0.2290 -0.6860 -0.3648
  838MOL0     O13026   8.587   0.370   1.477  0.0294 -0.1298 -0.4602
  838MOL0     C13027   8.480   0.334   1.397 -0.3210  0.6428 -0.0694
  838MOL0     C13028   8.493   0.231   1.295 -0.5970  0.4596 -0.5965
  838MOL0     C13029   8.389   0.193   1.209  0.8526  0.2755  0.3602
  838MOL0     C13030   8.262   0.256   1.235  0.2172 -0.9111 -0.4231
  838MOL0     O13031   8.157   0.228   1.156  0.3955  0.3482  0.4569
  838MOL0     C13032   8.123   0.335   1.061  0.5384  1.1376  0.0300
  838MOL0     C13033   8.085   0.272   0.927 -0.5348  0.0842 -0.4637
  838MOL0     C13034   8.207   0.227   0.850  0.2885 -0.8243  0.5538
  838MOL0     C13035   8.180   0.133   0.734 -0.2838 -0.1583  0.2153
  838MOL0     C13036   8.280   0.146   0.617 -0.3388  0.1033  0.4184
  838MOL0     C13037   8.425   0.105   0.636 -0.1249  0.1088 -0.0097
  838MOL0     C13038   8.440  -0.041   0.692 -0.3054  0.2292  0.0968
  838MOL0     C13039   8.584  -0.081   0.638  0.1876  0.1680 -0.1641
  838MOL0    Cl13040   8.710   0.027   0.702  0.2346 -0.0913 -0.0909
  838MOL0     C13041   8.247   0.349   1.345  0.2293  1.4410  0.3465
  838MOL0     C13042   8.359   0.383   1.426 -0.2496 -0.3515  0.2857
  838MOL0     O13043   8.674   0.497   1.300 -0.0020  0.2120 -0.7156
  838MOL0     C13044   8.889   0.572   1.492 -0.7553 -0.3623  0.1114
  838MOL0     C13045   9.023   0.586   1.543  0.5959  0.2506 -0.2614
  838MOL0     N13046   9.678   0.590   1.529 -0.0937 -0.4398 -0.5664
  838MOL0     N13047   9.780   0.632   1.473  0.0416 -0.3305 -0.7358
  838MOL0     C13048  10.739   0.774   0.746 -0.0118 -0.0050  0.1273
  838MOL0     C13049  10.847   0.762   0.660  0.7066  0.4367 -0.0702
  838MOL0     C13050  11.241   0.941   0.517 -0.6408 -0.6281 -0.1203
  838MOL0     C13051  11.269   1.040   0.429 -0.2942 -0.0390  0.0254
  838MOL0     C13052  11.405   1.062   0.386 -0.5688 -0.1186  0.0137
  838MOL0     C13053  11.506   0.979   0.430  0.4673  0.0907  0.6749
  838MOL0     O13054  11.635   1.007   0.399 -0.4639  0.3604 -0.0346
  838MOL0     C13055  11.653   1.023   0.262 -0.0007 -0.2193  0.8420
  838MOL0     C13056  11.798   1.024   0.236  0.3006  0.3092  0.2580
  838MOL0     C13057  11.852   1.166   0.272  0.6309 -0.2602  0.3067
  838MOL0     C13058  11.972   1.201   0.188 -0.3873 -0.3651 -0.8114
  838MOL0     C13059  12.086   1.111   0.213 -0.0167 -0.2809  0.3275
  838MOL0     C13060  12.180   1.039   0.218  0.1108 -0.8055  0.2203
  838MOL0     C13061  11.474   0.885   0.523  0.3906  0.4940 -0.1096
  838MOL0     C13062  11.344   0.863   0.563 -0.8626  0.1099  0.3765
  838MOL0     H13063  11.098   0.786   0.905  0.9035 -2.3111 -2.4277
  838MOL0     H13064  10.903   0.807   1.047 -1.3622 -0.1266  1.2648
  838MOL0     H13065  10.594   0.941   0.961  0.1450  0.0591  1.3055
  838MOL0     H13066  10.486   0.817   0.884 -0.8680  1.3346 -0.6190
  838MOL0     H13067  10.529   0.845   1.187  0.2519 -0.0023  0.1702
  838MOL0     H13068  10.388   0.905   1.089  0.3109 -0.9042 -1.4772
  838MOL0     H13069  10.331   0.668   1.030  0.6543 -0.1650 -0.2023
  838MOL0     H13070  10.455   0.620   1.137 -0.5094  0.0307  1.3008
  838MOL0     H13071  10.352   0.756   1.317  1.8682 -3.5160  0.4427
  838MOL0     H13072  10.218   0.797   1.206  2.6069  2.6154 -2.1799
  838MOL0     H13073  10.304   0.504   1.302 -1.9941 -2.0791  0.7290
  838MOL0     H13074  10.184   0.598   1.375  1.8897 -1.5990  2.0966
  838MOL0     H13075  10.114   0.607   1.093 -0.4986  1.7982  1.7360
  838MOL0     H13076  10.186   0.453   1.102  1.2187 -0.5486  0.0683
  838MOL0     H13077   9.961   0.399   1.156  1.4283 -0.6817 -0.7164
  838MOL0     H13078  10.037   0.400   1.304 -1.6962 -0.7084 -1.1507
  838MOL0     H13079   9.867   0.632   1.186  0.9348 -0.7375 -0.8873
  838MOL0     H13080   9.968   0.663   1.320 -1.4732  0.1646  2.0913
  838MOL0     H13081   9.693   0.366   1.296 -3.2867  0.3523 -0.4300
  838MOL0     H13082   9.529   0.297   1.468 -1.0307 -0.3034  1.2451
  838MOL0     H13083   9.504   0.395   1.613  0.3625  0.0813  0.2120
  838MOL0     H13084   9.310   0.379   1.430 -0.9067  0.7404 -0.9557
  838MOL0     H13085   9.406   0.471   1.324 -0.6085 -1.7161 -0.6054
  838MOL0     H13086   9.275   0.638   1.415 -0.3590 -1.3082 -0.7595
  838MOL0     H13087   9.429   0.669   1.487  0.3407 -0.4798 -3.6254
  838MOL0     H13088   9.239   0.687   1.652 -0.9465  0.3377 -0.3392
  838MOL0     H13089   9.376   0.595   1.699 -0.3463  1.9005 -0.0432
  838MOL0     H13090   9.081   0.263   1.609 -1.1739 -1.3843 -0.3120
  838MOL0     H13091   8.744   0.194   1.524 -0.0926  0.1635  0.1490
  838MOL0     H13092   8.835   0.197   1.366  0.8320  1.0946 -0.4108
  838MOL0     H13093   8.903   0.119   1.515 -1.0885 -0.5251  0.4590
  838MOL0     H13094   8.591   0.184   1.286 -1.7685 -1.9244 -1.5840
  838MOL0     H13095   8.416   0.121   1.132  1.8076  1.1916 -0.1861
  838MOL0     H13096   8.035   0.389   1.095 -1.5104 -1.4796 -0.8010
  838MOL0     H13097   8.207   0.406   1.064  2.9737 -1.5772  2.9964
  838MOL0     H13098   8.023   0.183   0.943  0.5759 -0.5854  0.2811
  838MOL0     H13099   8.029   0.348   0.872 -0.3524  0.6005  0.0585
  838MOL0     H13100   8.291   0.193   0.911  0.4434  1.8296  1.9521
  838MOL0     H13101   8.255   0.315   0.805  1.7456 -2.2252 -0.7452
  838MOL0     H13102   8.200   0.032   0.772  2.9952 -1.0700 -3.3437
  838MOL0     H13103   8.078   0.156   0.704  0.4699  1.2673 -1.4288
  838MOL0     H13104   8.289   0.253   0.597 -0.3074  0.2304  1.0861
  838MOL0     H13105   8.242   0.099   0.526  2.0584  2.9966 -2.2858
  838MOL0     H13106   8.473   0.126   0.539  0.0665  2.4401  0.5367
  838MOL0     H13107   8.478   0.178   0.697  1.6057  0.1166 -1.4199
  838MOL0     H13108   8.353  -0.106   0.682  0.6477 -1.1512  0.4947
  838MOL0     H13109   8.457  -0.032   0.800 -0.9798  0.7246  0.1668
  838MOL0     H13110   8.602  -0.078   0.531  4.5514 -0.4408  0.3751
  838MOL0     H13111   8.599  -0.185   0.668  1.2752  0.1896 -0.6118
  838MOL0     H13112   8.146   0.385   1.366 -0.6834  1.6882 -3.6431
  838MOL0     H13113   8.358   0.456   1.505 -1.1904  2.5869 -2.2344
  838MOL0     H13114   8.831   0.658   1.459  1.7472  0.0543 -4.0033
  838MOL0     H13115   9.052   0.689   1.558 -3.2614  1.0431  3.8731
  838MOL0     H13116  10.640   0.787   0.705  0.3318  1.1768 -0.3683
  838MOL0     H13117  10.835   0.741   0.554  1.4333 -0.2556 -0.0258
  838MOL0     H13118  11.189   1.102   0.391 -1.2243 -0.9541  0.4592
  838MOL0     H13119  11.432   1.154   0.335 -2.1670  0.6678  0.5256
  838MOL0     H13120  11.608   0.934   0.215 -1.8016  2.3190 -2.7380
  838MOL0     H13121  11.594   1.104   0.218 -3.1957 -2.2275  1.1367
  838MOL0     H13122  11.832   0.995   0.137  1.8701  0.6959  0.6636
  838MOL0     H13123  11.837   0.949   0.304  1.0664 -0.9649 -1.5350
  838MOL0     H13124  11.866   1.174   0.381  1.0531  1.3256  0.1626
  838MOL0     H13125  11.780   1.247   0.257 -0.9734 -0.7158  4.2515
  838MOL0     H13126  12.000   1.304   0.213 -0.6447 -0.0082 -1.9211
  838MOL0     H13127  11.949   1.195   0.081 -2.4564 -2.2087 -0.3479
  838MOL0     H13128  12.266   0.975   0.219 -0.6150 -2.0850 -3.5324
  838MOL0     H13129  11.553   0.828   0.570 -0.3236 -1.7175 -1.4272
  838MOL0     H13130  11.327   0.785   0.635 -2.9217 -0.1651 -0.3603
  839MOL0     O13131   7.549   6.618  10.402 -0.2197  0.0756 -0.1967
  839MOL0     C13132   7.662   6.605  10.438 -0.2258  0.7363  0.5827
  839MOL0     O13133   7.715   6.496  10.508 -1.4105 -0.1959 -0.2983
  839MOL0     C13134   7.630   6.390  10.533 -0.3797 -1.0639  0.6207
  839MOL0     C13135   7.559   6.318  10.437  0.3939  0.4294  0.3095
  839MOL0     C13136   7.470   6.212  10.475  0.7398  0.1402 -0.4603
  839MOL0     C13137   7.446   6.178  10.608 -0.6302 -0.1066 -0.3462
  839MOL0     O13138   7.385   6.058  10.633  0.2007  0.5166 -0.4340
  839MOL0     C13139   7.310   6.045  10.752  0.4202  0.1408  0.2270
  839MOL0     C13140   7.325   5.901  10.799  0.2591 -0.0091  0.2009
  839MOL0     C13141   7.246   5.858  10.920 -0.1886  0.2435  0.3043
  839MOL0     C13142   7.277   5.716  10.966 -0.6833 -0.7798  0.2829
  839MOL0     C13143   7.172   5.655  11.053  0.8449  0.5561  0.0797
  839MOL0     C13144   7.146   5.702  11.191  0.4016  0.6658 -0.8904
  839MOL0     C13145   7.028   5.615  11.254  0.2342  0.1057  0.5562
  839MOL0     C13146   6.968   5.679  11.380  0.2040 -0.3670 -0.4157
  839MOL0     N13147   6.880   5.590  11.463 -0.3695  0.1622  0.3977
  839MOL0     C13148   6.932   5.490  11.540  0.1943  1.0929  0.6463
  839MOL0     C13149   6.841   5.477  11.636 -0.3019  0.7794  0.2087
  839MOL0     C13150   6.855   5.392  11.761  0.1407 -0.7501  0.2131
  839MOL0     C13151   6.828   5.248  11.745 -0.0145 -0.2031  0.0170
  839MOL0     C13152   6.794   5.180  11.880 -0.4754  0.7961 -0.2285
  839MOL0     C13153   6.650   5.193  11.927  0.5832 -0.4839 -0.3546
  839MOL0     O13154   6.561   5.120  11.849 -0.0509 -0.2788  0.5524
  839MOL0     C13155   6.427   5.131  11.881 -0.4331  0.1567  0.0268
  839MOL0     C13156   6.377   5.191  11.997 -0.2651 -0.2878 -0.0702
  839MOL0     C13157   6.237   5.212  12.009  0.7456  0.0325  0.3155
  839MOL0     C13158   6.184   5.276  12.141  0.1410 -0.3588 -0.5884
  839MOL0     C13159   6.146   5.164  11.910 -0.4870 -0.2400 -0.0379
  839MOL0     C13160   6.004   5.171  11.920 -0.4084 -0.3227 -0.1809
  839MOL0     O13161   5.931   5.162  11.806 -0.0896  0.1001  0.5185
  839MOL0     C13162   5.794   5.164  11.809 -0.0771  0.5598  0.2155
  839MOL0     C13163   5.726   5.044  11.784  0.4957  0.0195 -0.3027
  839MOL0     C13164   5.587   5.047  11.783 -0.3053 -0.3571  0.1798
  839MOL0     C13165   5.514   5.171  11.799 -1.0431  0.4534  0.8131
  839MOL0     O13166   5.382   5.154  11.782 -0.2115 -0.8202 -0.6574
  839MOL0     C13167   5.295   5.266  11.813 -0.0088  0.5772  0.0690
  839MOL0     C13168   5.153   5.209  11.852 -0.3020 -1.0568  1.2821
  839MOL0     C13169   5.097   5.131  11.738 -0.3002  0.5064  0.1893
  839MOL0     C13170   4.973   5.044  11.778 -0.1694 -0.2315 -0.3209
  839MOL0     C13171   4.847   5.125  11.821 -0.4066 -0.0014  0.2842
  839MOL0     C13172   4.721   5.044  11.854 -1.0353 -0.0355 -0.2846
  839MOL0     C13173   4.714   4.998  11.999 -0.0807  0.2202  0.2789
  839MOL0     C13174   4.572   4.955  12.043 -0.7117 -1.0417 -0.1794
  839MOL0    Cl13175   4.481   4.845  11.924  0.1708  0.2009  0.0973
  839MOL0     C13176   5.591   5.286  11.836 -0.3755  0.0945  0.9297
  839MOL0     C13177   5.731   5.285  11.833 -0.2205 -0.1872  0.1082
  839MOL0     O13178   5.952   5.184  12.027 -0.2239 -0.4626  0.1513
  839MOL0     C13179   6.202   5.104  11.796  0.8628  0.3368  0.1497
  839MOL0     C13180   6.340   5.089  11.780 -0.1069  0.0341 -0.6091
  839MOL0     N13181   6.727   5.552  11.616  0.0999  0.3155 -0.1976
  839MOL0     N13182   6.761   5.619  11.506  1.4581 -0.4543 -0.1732
  839MOL0     C13183   7.518   6.255  10.702 -0.1620 -0.3584 -0.6592
  839MOL0     C13184   7.608   6.357  10.664  0.8801 -0.2902  0.3375
  839MOL0     C13185   7.763   6.705  10.393 -0.3756 -0.3480 -0.3165
  839MOL0     C13186   7.725   6.821  10.310  0.1853  0.2893  0.1565
  839MOL0     C13187   7.821   6.912  10.276  0.0479 -0.2916  0.1056
  839MOL0     C13188   7.956   6.897  10.311  0.2740 -0.7453  0.0126
  839MOL0     O13189   8.039   6.996  10.255 -0.0629  1.0288 -0.5479
  839MOL0     C13190   8.084   7.083  10.356 -1.0581 -0.1026  0.0824
  839MOL0     C13191   8.219   7.032  10.421  0.6316 -1.1847  0.0651
  839MOL0     C13192   8.332   7.006  10.315  0.8982 -0.0751  0.1022
  839MOL0     C13193   8.461   6.955  10.385  0.2023  1.5277 -0.1137
  839MOL0     C13194   8.550   7.070  10.424  0.6246 -0.6375 -0.0227
  839MOL0     C13195   8.612   7.169  10.469  1.0984  0.2630  0.4048
  839MOL0     C13196   7.992   6.797  10.396 -0.0035  0.3893 -0.2767
  839MOL0     C13197   7.899   6.693  10.433 -0.2333 -0.3017  0.0048
  839MOL0     H13198   7.565   6.336  10.330  2.5658 -2.0714 -0.0800
  839MOL0     H13199   7.419   6.154  10.398  1.1265  0.3925 -0.9177
  839MOL0     H13200   7.327   6.119  10.831  0.8111  0.6914 -0.3609
  839MOL0     H13201   7.202   6.052  10.735  0.0526 -0.9082  1.9304
  839MOL0     H13202   7.291   5.837  10.717  2.7242 -1.2078  0.0038
  839MOL0     H13203   7.433   5.888  10.808  0.7045  1.9560 -1.5256
  839MOL0     H13204   7.265   5.923  11.007  4.4253 -0.9010  0.3836
  839MOL0     H13205   7.142   5.874  10.889  1.2425  1.7994 -4.3909
  839MOL0     H13206   7.277   5.657  10.874  0.6567  1.3314 -1.1571
  839MOL0     H13207   7.375   5.713  11.013 -0.5571  0.4772  0.1202
  839MOL0     H13208   7.075   5.663  11.004 -0.0592 -3.3810  0.8499
  839MOL0     H13209   7.185   5.546  11.055 -0.3484  0.3618  3.1251
  839MOL0     H13210   7.230   5.714  11.260  0.9487 -0.1442 -1.4081
  839MOL0     H13211   7.108   5.804  11.182 -2.5433 -0.1675  0.6032
  839MOL0     H13212   6.946   5.594  11.184 -1.6306 -0.3561  2.7712
  839MOL0     H13213   7.068   5.517  11.281  2.7089  1.0132  0.4802
  839MOL0     H13214   6.917   5.771  11.352  2.1804  1.0240  0.2739
  839MOL0     H13215   7.056   5.710  11.439 -1.0491  0.2891  1.1976
  839MOL0     H13216   7.025   5.437  11.520 -0.6036  0.0787 -0.5872
  839MOL0     H13217   6.956   5.399  11.802  0.2427 -1.5884  0.1197
  839MOL0     H13218   6.786   5.445  11.828 -0.9663  0.1873 -1.5888
  839MOL0     H13219   6.917   5.196  11.710  1.5709  1.9588  0.6956
  839MOL0     H13220   6.757   5.223  11.665  0.8422  1.0311 -1.1724
  839MOL0     H13221   6.849   5.221  11.966 -2.0266 -0.0497  1.2282
  839MOL0     H13222   6.825   5.076  11.867 -1.4103  0.5686 -0.7625
  839MOL0     H13223   6.622   5.298  11.938  3.3991  0.2747  0.2283
  839MOL0     H13224   6.650   5.160  12.031 -2.2907 -1.7707 -0.6447
  839MOL0     H13225   6.438   5.229  12.079  0.2976  0.1252 -0.6639
  839MOL0     H13226   6.109   5.355  12.128  0.2409 -0.2850 -0.7319
  839MOL0     H13227   6.125   5.204  12.197 -1.6621  1.0518 -0.5749
  839MOL0     H13228   6.262   5.309  12.210  2.1056 -0.7513 -2.4945
  839MOL0     H13229   5.788   4.955  11.782 -2.2137 -2.0262  0.3698
  839MOL0     H13230   5.521   4.961  11.774 -0.7070  0.0445 -0.8457
  839MOL0     H13231   5.332   5.310  11.906 -2.8405 -0.7346  1.9566
  839MOL0     H13232   5.293   5.340  11.732 -2.2341  0.2674 -0.2398
  839MOL0     H13233   5.176   5.155  11.944  2.3505 -0.4613  1.0621
  839MOL0     H13234   5.084   5.290  11.876  1.2299 -0.0537  2.5070
  839MOL0     H13235   5.174   5.062  11.704 -1.8741 -2.1211  1.6327
  839MOL0     H13236   5.067   5.197  11.655 -0.0841 -1.2242 -1.3377
  839MOL0     H13237   4.944   4.978  11.696  0.6125  0.4142 -1.1239
  839MOL0     H13238   5.002   4.981  11.863 -1.5280 -0.1578  0.2334
  839MOL0     H13239   4.812   5.181  11.733 -2.9494  0.5806  1.5746
  839MOL0     H13240   4.864   5.198  11.900  2.0470 -1.0015  0.7475
  839MOL0     H13241   4.629   5.100  11.836 -1.4651 -0.2649  1.1225
  839MOL0     H13242   4.720   4.955  11.791 -0.1641  1.6415 -2.8181
  839MOL0     H13243   4.731   5.093  12.050  0.5453 -1.2927  3.1060
  839MOL0     H13244   4.785   4.921  12.035 -0.2372 -0.5817 -1.0686
  839MOL0     H13245   4.513   5.046  12.056 -0.5587 -1.1190  1.2861
  839MOL0     H13246   4.574   4.906  12.141 -0.2110  0.3428  0.5226
  839MOL0     H13247   5.534   5.373  11.866 -1.4889 -0.0630 -0.6279
  839MOL0     H13248   5.787   5.375  11.857  0.6963 -1.0379  1.3788
  839MOL0     H13249   6.141   5.062  11.717 -3.2337  1.4494  2.4474
  839MOL0     H13250   6.379   5.030  11.698 -2.4151 -1.9938 -0.3549
  839MOL0     H13251   7.521   6.232  10.808 -1.0604  2.4132  0.0667
  839MOL0     H13252   7.667   6.413  10.736 -0.6149  3.6857 -1.2444
  839MOL0     H13253   7.624   6.845  10.280  0.4547  1.5886  0.2281
  839MOL0     H13254   7.809   7.002  10.217  1.7642 -0.3001 -0.3037
  839MOL0     H13255   8.090   7.180  10.307  0.2945 -1.2762 -2.2506
  839MOL0     H13256   8.011   7.098  10.437  0.1061 -0.1975  1.1792
  839MOL0     H13257   8.199   6.947  10.487 -3.6439  0.5548  1.4114
  839MOL0     H13258   8.266   7.113  10.478 -0.3845  1.1012 -2.1502
  839MOL0     H13259   8.352   7.085  10.243  4.6452 -0.5704  0.3896
  839MOL0     H13260   8.295   6.917  10.262  1.2553  0.3735 -0.9141
  839MOL0     H13261   8.513   6.880  10.325  0.2514 -2.9836  4.8535
  839MOL0     H13262   8.429   6.898  10.472  1.3765  3.1834  1.4964
  839MOL0     H13263   8.665   7.248  10.519 -2.4483  1.9971  1.7405
  839MOL0     H13264   8.090   6.774  10.437 -0.4203 -1.1392 -0.0394
  839MOL0     H13265   7.931   6.608  10.493 -0.5440 -0.0536  0.5286
  840MOL0     O13266   4.089   5.870   1.956 -0.1736 -0.4070 -0.0832
  840MOL0     C13267   4.095   5.964   2.032 -0.4104  0.2080 -0.3040
  840MOL0     O13268   3.986   6.018   2.106 -0.0380  0.0271 -0.4704
  840MOL0     C13269   3.871   5.946   2.131 -0.2223  0.4862 -0.4981
  840MOL0     C13270   3.876   5.802   2.143  0.4468 -0.5760 -0.2292
  840MOL0     C13271   3.752   5.743   2.166 -0.0429 -0.2841 -1.0089
  840MOL0     C13272   3.633   5.815   2.176 -0.1773 -0.6185  0.4805
  840MOL0     O13273   3.518   5.746   2.192 -0.3096 -0.0756  0.3088
  840MOL0     C13274   3.507   5.641   2.286  0.3187  0.1775  0.2167
  840MOL0     C13275   3.371   5.568   2.271  0.0910  0.1247 -0.1303
  840MOL0     C13276   3.245   5.651   2.301  0.0811  0.2213 -0.0691
  840MOL0     C13277   3.175   5.725   2.178  0.2599  0.4223  0.2585
  840MOL0     C13278   3.032   5.774   2.208  0.3217  0.1591 -0.5354
  840MOL0     C13279   3.019   5.886   2.312  0.4200 -0.4611 -0.7134
  840MOL0     C13280   3.095   6.018   2.282  0.0692  0.3950 -0.5517
  840MOL0     C13281   3.042   6.097   2.162 -0.5512 -0.2306  0.3566
  840MOL0     N13282   2.920   6.165   2.195 -1.3208 -0.9044  0.3294
  840MOL0     C13283   2.940   6.290   2.268  0.9125  0.9829  0.6581
  840MOL0     C13284   2.811   6.339   2.288 -0.0309  0.8572  0.2570
  840MOL0     C13285   2.772   6.475   2.333  0.8806  1.0150  0.3693
  840MOL0     C13286   2.680   6.484   2.459 -0.0896  0.1902  0.1394
  840MOL0     C13287   2.632   6.628   2.493 -0.3867 -0.1220  0.1026
  840MOL0     C13288   2.507   6.665   2.410  0.0623 -0.1895  0.4541
  840MOL0     O13289   2.487   6.806   2.436  0.1496  0.7168 -0.3234
  840MOL0     C13290   2.354   6.845   2.407  0.0309 -0.3461  0.8373
  840MOL0     C13291   2.317   6.884   2.276 -1.0429 -1.0487 -0.2854
  840MOL0     C13292   2.187   6.923   2.239  0.4896  0.8965 -0.5709
  840MOL0     C13293   2.159   6.947   2.097 -1.3408 -0.7709  0.3805
  840MOL0     C13294   2.083   6.917   2.336 -0.2748  0.7253  0.2298
  840MOL0     C13295   1.939   6.960   2.317 -0.9212 -0.3448 -0.4376
  840MOL0     O13296   1.843   6.951   2.423 -0.4670 -0.0549 -0.0456
  840MOL0     C13297   1.718   7.008   2.405 -0.1060  0.8672  0.6726
  840MOL0     C13298   1.689   7.112   2.498 -0.4129  0.3824 -0.4435
  840MOL0     C13299   1.562   7.177   2.485 -0.2870  0.9387 -0.7775
  840MOL0     C13300   1.480   7.145   2.379  0.1556 -0.3229 -0.2248
  840MOL0     O13301   1.360   7.210   2.363 -0.5713 -0.2489 -0.2080
  840MOL0     C13302   1.362   7.325   2.280 -0.1094  0.1447  0.1678
  840MOL0     C13303   1.299   7.291   2.131 -0.9111 -0.1741 -0.0214
  840MOL0     C13304   1.159   7.224   2.139 -0.7217 -0.1174  0.6257
  840MOL0     C13305   1.042   7.321   2.169  0.2621 -0.7049  0.2896
  840MOL0     C13306   0.918   7.238   2.212 -0.4935  0.4270  0.3382
  840MOL0     C13307   0.808   7.336   2.206  0.5296  0.3764 -0.2536
  840MOL0     C13308   0.682   7.260   2.247 -0.1531  0.0368 -0.7534
  840MOL0     C13309   0.553   7.342   2.246 -0.5255 -0.3269  0.8551
  840MOL0    Cl13310   0.514   7.415   2.080  0.2276  0.6178 -0.0457
  840MOL0     C13311   1.500   7.034   2.294 -0.1529 -0.2476  0.0240
  840MOL0     C13312   1.619   6.964   2.313  0.3447 -0.1785 -0.2881
  840MOL0     O13313   1.909   7.006   2.204 -0.5886  0.0940 -0.0213
  840MOL0     C13314   2.121   6.871   2.467  0.7646 -0.0617  0.2893
  840MOL0     C13315   2.250   6.849   2.503 -0.0348 -0.6675 -0.5013
  840MOL0     N13316   2.717   6.246   2.228 -0.0099 -0.8559  0.3167
  840MOL0     N13317   2.785   6.141   2.184  0.4192  0.0384  0.6483
  840MOL0     C13318   3.630   5.949   2.154  0.2217  0.5242  0.1487
  840MOL0     C13319   3.749   6.017   2.143 -0.3477 -0.5501 -0.7484
  840MOL0     C13320   4.232   6.008   2.074  0.2820  0.0546  0.5541
  840MOL0     C13321   4.244   6.082   2.193 -0.1822 -0.9368  0.8305
  840MOL0     C13322   4.372   6.135   2.234 -0.5274  0.5451 -0.5683
  840MOL0     C13323   4.483   6.092   2.159 -0.1064  0.3055 -0.8999
  840MOL0     O13324   4.617   6.106   2.207  0.8326  0.3911  0.4549
  840MOL0     C13325   4.638   6.164   2.340 -0.4157  0.2871 -0.1330
  840MOL0     C13326   4.592   6.060   2.445 -0.4792  0.6141 -0.3548
  840MOL0     C13327   4.662   5.921   2.427 -0.7991 -0.4770  0.1599
  840MOL0     C13328   4.682   5.854   2.562 -0.0629 -0.1123 -0.3523
  840MOL0     C13329   4.756   5.731   2.540 -0.1097  0.8498 -0.8894
  840MOL0     C13330   4.809   5.617   2.514 -0.7736 -0.2489 -0.9892
  840MOL0     C13331   4.470   6.019   2.040 -0.7792 -0.1678 -0.3521
  840MOL0     C13332   4.348   5.972   1.997  0.0814 -0.0128  0.5357
  840MOL0     H13333   3.964   5.738   2.143  2.1942  1.5937  2.2165
  840MOL0     H13334   3.744   5.634   2.164  0.6891 -0.3899  0.6617
  840MOL0     H13335   3.588   5.568   2.272 -0.1237 -0.3143  0.1963
  840MOL0     H13336   3.512   5.678   2.389 -1.3719 -0.3294  0.5139
  840MOL0     H13337   3.358   5.534   2.168 -3.6485 -1.1404  0.6258
  840MOL0     H13338   3.394   5.489   2.343 -0.1355  0.7969  0.6974
  840MOL0     H13339   3.160   5.607   2.354  0.4174 -1.1774 -0.6304
  840MOL0     H13340   3.281   5.730   2.366  1.7193 -0.6692  0.1687
  840MOL0     H13341   3.242   5.803   2.138  2.3499 -1.8895 -1.0201
  840MOL0     H13342   3.160   5.656   2.095 -0.5132  1.6049 -0.6137
  840MOL0     H13343   2.994   5.819   2.116  1.1479  0.7503 -0.5970
  840MOL0     H13344   2.963   5.693   2.233 -0.8861  1.2686 -0.1521
  840MOL0     H13345   2.911   5.902   2.312  0.3172 -1.0955  0.0554
  840MOL0     H13346   3.048   5.853   2.413  1.1485 -0.4203 -0.9006
  840MOL0     H13347   3.111   6.086   2.367  2.1903 -0.4537 -0.1955
  840MOL0     H13348   3.196   5.987   2.253  0.7952 -0.7279  2.7100
  840MOL0     H13349   3.032   6.027   2.078  0.1425  0.5140 -0.3700
  840MOL0     H13350   3.111   6.176   2.133 -2.8824  0.9741 -2.4762
  840MOL0     H13351   3.032   6.346   2.283  2.0713 -1.0134  1.5239
  840MOL0     H13352   2.854   6.545   2.350  0.0486  1.7824  1.3990
  840MOL0     H13353   2.722   6.510   2.242 -1.8798 -1.4724  0.7472
  840MOL0     H13354   2.743   6.458   2.545  1.7761 -2.2438 -1.7914
  840MOL0     H13355   2.599   6.411   2.451  0.2437 -0.2453  0.6274
  840MOL0     H13356   2.717   6.695   2.482 -1.5950  1.3202 -0.8070
  840MOL0     H13357   2.592   6.631   2.594  1.7280  2.6908  0.9638
  840MOL0     H13358   2.414   6.614   2.436 -1.4070  1.3159 -1.5063
  840MOL0     H13359   2.514   6.649   2.302  4.2624  0.5065  0.4668
  840MOL0     H13360   2.398   6.868   2.205 -0.8167 -0.8959 -0.0632
  840MOL0     H13361   2.105   6.864   2.050 -2.2952  1.1731 -2.1659
  840MOL0     H13362   2.104   7.040   2.081 -1.2635 -1.0444 -1.6988
  840MOL0     H13363   2.251   6.975   2.044 -1.6929  0.4575  0.3916
  840MOL0     H13364   1.756   7.149   2.574 -1.0332 -0.0195  0.3156
  840MOL0     H13365   1.534   7.258   2.551  1.2463 -0.5256  1.8175
  840MOL0     H13366   1.301   7.404   2.324 -1.8872  0.0346 -1.9110
  840MOL0     H13367   1.464   7.362   2.262 -0.4410  0.3931 -1.3982
  840MOL0     H13368   1.287   7.395   2.098  1.0410  0.1659  0.1986
  840MOL0     H13369   1.376   7.242   2.071 -0.5755  0.7032 -0.3238
  840MOL0     H13370   1.166   7.152   2.221  2.0618  1.0928  1.5740
  840MOL0     H13371   1.131   7.180   2.043 -0.8889  0.2859  0.4910
  840MOL0     H13372   1.063   7.402   2.240  1.5881  0.4832 -1.3716
  840MOL0     H13373   1.014   7.376   2.079  1.0935  1.8888  1.5139
  840MOL0     H13374   0.922   7.201   2.315 -1.2351  1.1472  0.6349
  840MOL0     H13375   0.904   7.159   2.137  0.8017  0.3277  0.1684
  840MOL0     H13376   0.832   7.429   2.257 -3.4694  2.5856 -1.9216
  840MOL0     H13377   0.796   7.369   2.102  2.5337  1.0533 -0.3041
  840MOL0     H13378   0.697   7.214   2.345 -0.4453 -0.9303 -1.1431
  840MOL0     H13379   0.667   7.169   2.186 -1.5396  2.0392 -3.6407
  840MOL0     H13380   0.568   7.425   2.316  2.0038 -1.1476  1.3991
  840MOL0     H13381   0.474   7.277   2.284 -1.6630  1.0281  0.8971
  840MOL0     H13382   1.436   7.013   2.209  1.8174  5.0286 -3.2786
  840MOL0     H13383   1.645   6.873   2.259  2.1784  0.7286 -1.0361
  840MOL0     H13384   2.043   6.863   2.543 -0.0342  1.4794 -0.3043
  840MOL0     H13385   2.278   6.820   2.604  1.6315  1.1251 -0.3878
  840MOL0     H13386   3.537   6.004   2.163 -1.4307 -2.3615  3.0161
  840MOL0     H13387   3.759   6.125   2.151  1.2220 -0.8026  1.2721
  840MOL0     H13388   4.162   6.106   2.260  1.3583 -4.0215  4.1639
  840MOL0     H13389   4.374   6.194   2.325 -2.8095 -0.7761  0.4232
  840MOL0     H13390   4.744   6.189   2.353 -0.2396  1.7476 -3.4662
  840MOL0     H13391   4.591   6.263   2.348  1.0346  1.0055 -0.1873
  840MOL0     H13392   4.483   6.047   2.449 -0.5705  1.6315  1.3679
  840MOL0     H13393   4.613   6.105   2.542 -1.7793  3.8048 -1.4187
  840MOL0     H13394   4.756   5.922   2.372 -1.6231 -0.7268 -1.3080
  840MOL0     H13395   4.603   5.849   2.370  1.2506 -1.1204 -1.2453
  840MOL0     H13396   4.591   5.827   2.616 -2.3902  2.6405 -2.6186
  840MOL0     H13397   4.741   5.922   2.624  0.9658  1.2571 -2.7158
  840MOL0     H13398   4.832   5.513   2.502  0.7717  0.1674 -1.8402
  840MOL0     H13399   4.564   5.991   1.994  0.6059  0.7949  1.7182
  840MOL0     H13400   4.348   5.904   1.912 -0.2236 -1.1633  1.4252
  841MOL0     O13401  11.250   0.708   9.044 -0.3150 -0.5583  0.2089
  841MOL0     C13402  11.326   0.619   9.086 -0.4598 -0.2939  0.3120
  841MOL0     O13403  11.300   0.484   9.085  0.0302 -0.3189  0.6601
  841MOL0     C13404  11.172   0.453   9.043  0.0411 -0.2274 -0.4498
  841MOL0     C13405  11.064   0.443   9.130 -0.6167  0.1793  0.2327
  841MOL0     C13406  10.935   0.402   9.075 -0.1725  0.3147  0.2290
  841MOL0     C13407  10.925   0.392   8.933 -0.4785 -0.6569 -0.0213
  841MOL0     O13408  10.800   0.360   8.887  0.4298 -0.1743 -0.6300
  841MOL0     C13409  10.781   0.237   8.809  0.1482  0.0394  0.8324
  841MOL0     C13410  10.787   0.106   8.895 -0.0757 -0.6234  0.2905
  841MOL0     C13411  10.660   0.096   8.984 -0.1972 -0.7965  0.2692
  841MOL0     C13412  10.662  -0.025   9.074 -0.1361 -0.0759  0.0043
  841MOL0     C13413  10.626  -0.152   9.000  0.3018  0.2742  0.5576
  841MOL0     C13414  10.593  -0.274   9.096 -0.0694 -0.4148  0.1435
  841MOL0     C13415  10.459  -0.291   9.159  0.0803  0.1995 -0.1037
  841MOL0     C13416  10.341  -0.319   9.068 -0.3370  0.4816  0.5218
  841MOL0     N13417  10.227  -0.366   9.143 -0.5593 -0.1040  0.1900
  841MOL0     C13418  10.145  -0.482   9.121 -0.0788 -0.0354 -0.1948
  841MOL0     C13419  10.040  -0.466   9.210  0.0376 -0.3196 -0.0502
  841MOL0     C13420   9.925  -0.557   9.216  0.1302  0.0381 -0.1892
  841MOL0     C13421   9.844  -0.585   9.088 -0.4390 -0.6561  0.1133
  841MOL0     C13422   9.753  -0.460   9.072 -0.2010  0.4108 -0.4176
  841MOL0     C13423   9.648  -0.492   8.973 -0.2850  0.1308  1.8096
  841MOL0     O13424   9.551  -0.390   8.960 -0.0396 -0.0615 -0.7281
  841MOL0     C13425   9.467  -0.364   9.068  0.0351  1.1959 -0.4559
  841MOL0     C13426   9.434  -0.462   9.160 -0.1768 -0.3104  0.3426
  841MOL0     C13427   9.345  -0.435   9.264 -0.1622 -0.4411  0.2832
  841MOL0     C13428   9.328  -0.548   9.360  0.1897 -1.2557 -0.6215
  841MOL0     C13429   9.288  -0.311   9.282  0.5667  0.2645  0.3178
  841MOL0     C13430   9.174  -0.287   9.377 -0.4490 -0.0637 -0.8286
  841MOL0     O13431   9.182  -0.332   9.502  1.0902  0.5551  0.1459
  841MOL0     C13432   9.077  -0.355   9.591 -0.0700 -0.4089 -0.0017
  841MOL0     C13433   8.941  -0.372   9.549 -0.6290 -0.3962 -0.2727
  841MOL0     C13434   8.838  -0.380   9.641 -0.0241 -0.0303 -0.2294
  841MOL0     C13435   8.873  -0.379   9.781  0.0509 -0.3862  0.5249
  841MOL0     O13436   8.765  -0.396   9.868 -0.0045  0.1904  0.4315
  841MOL0     C13437   8.776  -0.474   9.986  0.3271  0.2317  0.2031
  841MOL0     C13438   8.726  -0.619   9.961  0.3980  0.0866 -0.3879
  841MOL0     C13439   8.577  -0.624   9.916  0.1861  0.0308  0.6692
  841MOL0     C13440   8.501  -0.747   9.968  0.4430  0.2535  0.1910
  841MOL0     C13441   8.355  -0.764   9.916  0.3740  0.1455 -0.6025
  841MOL0     C13442   8.354  -0.821   9.780 -0.2960  0.1043  0.2211
  841MOL0     C13443   8.210  -0.849   9.742 -0.5447 -0.4756  0.2785
  841MOL0     C13444   8.194  -0.921   9.609  0.1775 -0.1801  0.2308
  841MOL0    Cl13445   8.239  -0.826   9.465 -0.3235 -0.0958  0.1905
  841MOL0     C13446   9.006  -0.370   9.820 -1.0880 -0.6325 -0.6558
  841MOL0     C13447   9.101  -0.356   9.728 -0.4158 -0.0480  0.1350
  841MOL0     O13448   9.080  -0.228   9.332 -0.4617  0.7286  0.2107
  841MOL0     C13449   9.334  -0.208   9.190  0.7546  0.2001  0.3890
  841MOL0     C13450   9.426  -0.234   9.091 -0.2500 -1.0035  0.0411
  841MOL0     N13451  10.062  -0.356   9.285 -0.3664 -0.3140 -0.0193
  841MOL0     N13452  10.172  -0.299   9.246  0.9745 -0.5237  0.2932
  841MOL0     C13453  11.039   0.411   8.848  0.1547  0.4486 -0.2917
  841MOL0     C13454  11.156   0.448   8.904  0.2261  0.5747 -0.0127
  841MOL0     C13455  11.458   0.677   9.132 -0.2978  0.1094 -0.2211
  841MOL0     C13456  11.546   0.598   9.209 -0.8572  0.0853  0.8077
  841MOL0     C13457  11.665   0.654   9.256 -0.3798  0.4165 -1.0762
  841MOL0     C13458  11.697   0.789   9.232 -0.0567  1.0040 -0.0410
  841MOL0     O13459  11.811   0.832   9.296  0.1819 -0.5924  0.0566
  841MOL0     C13460  11.876   0.950   9.242  0.0196  0.8719 -0.0503
  841MOL0     C13461  12.023   0.922   9.289 -0.2296 -0.2384  0.0790
  841MOL0     C13462  12.041   0.898   9.438  0.2673  0.4941 -0.5456
  841MOL0     C13463  12.189   0.898   9.488  0.3167 -0.0338  0.5001
  841MOL0     C13464  12.263   0.770   9.458  0.2124 -0.4677 -0.3785
  841MOL0     C13465  12.327   0.671   9.439  0.6968 -0.2589  0.7871
  841MOL0     C13466  11.608   0.863   9.162  0.0395 -0.2952 -0.6849
  841MOL0     C13467  11.490   0.813   9.105 -0.4667  1.4282  0.0954
  841MOL0     H13468  11.076   0.471   9.234 -2.1057  1.0730  0.1917
  841MOL0     H13469  10.851   0.389   9.142  0.0717 -2.1015  0.1559
  841MOL0     H13470  10.685   0.235   8.756  0.4674 -2.6800  0.1986
  841MOL0     H13471  10.856   0.235   8.729 -0.6006  4.0860 -0.2100
  841MOL0     H13472  10.796   0.013   8.839  3.3501 -0.3598  0.1910
  841MOL0     H13473  10.877   0.122   8.955 -0.0861 -0.7034  0.3275
  841MOL0     H13474  10.662   0.182   9.051  0.3787  0.8199 -1.7331
  841MOL0     H13475  10.574   0.100   8.917  1.4088 -1.7147 -1.9723
  841MOL0     H13476  10.754  -0.037   9.132 -0.3449 -2.7057 -0.1108
  841MOL0     H13477  10.588   0.001   9.151 -0.7270 -2.4396  0.3090
  841MOL0     H13478  10.541  -0.123   8.937  0.3413 -1.1539 -0.1973
  841MOL0     H13479  10.713  -0.181   8.940  1.0897  0.8456  1.3986
  841MOL0     H13480  10.616  -0.366   9.042  1.2445 -0.0027 -0.0535
  841MOL0     H13481  10.662  -0.263   9.181  1.4070  0.9334 -1.1727
  841MOL0     H13482  10.473  -0.374   9.229 -0.2052  0.7608  0.6380
  841MOL0     H13483  10.436  -0.202   9.219  1.0403  1.5836 -1.6870
  841MOL0     H13484  10.373  -0.402   9.005  0.7479  0.3435  1.2234
  841MOL0     H13485  10.318  -0.243   8.993  2.7084  0.9828 -0.0292
  841MOL0     H13486  10.159  -0.563   9.050 -2.1133  0.3436 -1.0849
  841MOL0     H13487   9.965  -0.655   9.243 -4.0842 -1.1837  2.5672
  841MOL0     H13488   9.854  -0.527   9.294 -1.2488  1.7535 -2.0041
  841MOL0     H13489   9.784  -0.677   9.092 -0.4774 -0.5933  1.5773
  841MOL0     H13490   9.920  -0.575   9.010 -0.9384  2.1906 -0.1018
  841MOL0     H13491   9.810  -0.375   9.035 -0.1712  2.1155  3.1250
  841MOL0     H13492   9.714  -0.437   9.172  0.4026 -1.9514  0.4300
  841MOL0     H13493   9.602  -0.589   8.993  3.1139 -1.6922  1.4337
  841MOL0     H13494   9.699  -0.500   8.876  0.9018  1.9702  2.2387
  841MOL0     H13495   9.462  -0.566   9.146  1.3364  0.3213 -1.9523
  841MOL0     H13496   9.336  -0.510   9.463 -0.5601 -2.2781 -0.1629
  841MOL0     H13497   9.229  -0.593   9.352 -0.3346  0.1541 -2.9716
  841MOL0     H13498   9.394  -0.635   9.352 -1.0570 -2.3163  0.1395
  841MOL0     H13499   8.918  -0.391   9.444  0.2026 -1.1886 -0.3260
  841MOL0     H13500   8.735  -0.405   9.616  0.0325 -1.8444  1.1537
  841MOL0     H13501   8.883  -0.482  10.009  0.7092  2.1728 -0.6720
  841MOL0     H13502   8.731  -0.425  10.072 -1.2760  1.0954 -1.0602
  841MOL0     H13503   8.788  -0.653   9.877  1.1805 -0.7277  0.4820
  841MOL0     H13504   8.743  -0.680  10.050 -0.3947  1.5537  0.8144
  841MOL0     H13505   8.575  -0.631   9.806 -1.7081 -2.6546  0.7634
  841MOL0     H13506   8.526  -0.532   9.945 -3.2279 -1.8492  1.1073
  841MOL0     H13507   8.558  -0.839   9.952  1.1016  0.4617  1.2777
  841MOL0     H13508   8.501  -0.734  10.076  0.6472  0.8427  0.1203
  841MOL0     H13509   8.306  -0.666   9.913 -0.3528  0.0623  3.1147
  841MOL0     H13510   8.303  -0.832   9.984 -0.5045  2.8253  1.5682
  841MOL0     H13511   8.396  -0.755   9.704  3.8910 -0.2865  1.9489
  841MOL0     H13512   8.401  -0.920   9.780  1.7639  0.9225  3.8581
  841MOL0     H13513   8.154  -0.755   9.741  3.3231  2.0717  0.1629
  841MOL0     H13514   8.170  -0.919   9.816  3.3725 -3.5635 -0.1540
  841MOL0     H13515   8.088  -0.940   9.589  0.6750  0.0341 -3.4266
  841MOL0     H13516   8.239  -1.020   9.603 -0.9745 -0.6684 -0.7687
  841MOL0     H13517   9.035  -0.370   9.925 -1.3545 -2.1113 -0.5662
  841MOL0     H13518   9.202  -0.346   9.764  0.2379 -2.4669 -0.8526
  841MOL0     H13519   9.297  -0.106   9.196  1.4169  0.5941 -1.5903
  841MOL0     H13520   9.457  -0.151   9.028  2.1446 -3.1086 -1.7606
  841MOL0     H13521  11.024   0.406   8.741  3.6564  0.3767 -0.8816
  841MOL0     H13522  11.234   0.457   8.829  1.4787 -0.9091  1.0462
  841MOL0     H13523  11.527   0.494   9.233 -1.3770  0.0875  0.4196
  841MOL0     H13524  11.737   0.596   9.313 -2.6678  0.5134  2.1606
  841MOL0     H13525  11.880   0.949   9.133 -1.5541 -0.4144 -0.1300
  841MOL0     H13526  11.833   1.042   9.283 -0.7040  0.7775 -0.5983
  841MOL0     H13527  12.088   1.005   9.263 -0.2780 -0.5692 -1.1852
  841MOL0     H13528  12.062   0.838   9.230  0.7934 -1.0054  1.7702
  841MOL0     H13529  11.998   0.803   9.470 -0.6447  0.7124 -1.0842
  841MOL0     H13530  11.988   0.983   9.483 -2.7081 -0.7181 -1.5028
  841MOL0     H13531  12.194   0.931   9.592  2.5997  2.7570 -0.3784
  841MOL0     H13532  12.242   0.979   9.437  0.1248  0.5860  1.2540
  841MOL0     H13533  12.387   0.587   9.410  1.7624  0.0685  1.9725
  841MOL0     H13534  11.640   0.967   9.159  1.6168 -0.7182  0.2834
  841MOL0     H13535  11.440   0.877   9.033  1.2324 -0.9227 -3.5152
  842MOL0     O13536   2.371   9.440   7.942 -0.2323 -0.3887  0.1444
  842MOL0     C13537   2.429   9.511   7.857 -0.0327  0.0516  0.0483
  842MOL0     O13538   2.371   9.582   7.756  0.3198 -0.2753  0.1668
  842MOL0     C13539   2.237   9.590   7.730 -0.0748 -0.0214 -0.5183
  842MOL0     C13540   2.126   9.529   7.804 -0.5887 -0.7695 -0.2585
  842MOL0     C13541   2.002   9.539   7.747 -0.1252  0.9392  0.1716
  842MOL0     C13542   1.979   9.620   7.628  0.3540 -0.2449 -0.6442
  842MOL0     O13543   1.852   9.634   7.581 -0.1628 -0.4579  0.4364
  842MOL0     C13544   1.822   9.595   7.447  0.3309  1.0473  0.1397
  842MOL0     C13545   1.714   9.480   7.443  0.1575  0.2643  0.5558
  842MOL0     C13546   1.584   9.520   7.504  0.0544 -0.4164 -0.8330
  842MOL0     C13547   1.482   9.406   7.499 -0.0762 -0.2334 -0.3138
  842MOL0     C13548   1.335   9.458   7.500 -0.4043 -0.4972 -0.4671
  842MOL0     C13549   1.239   9.339   7.489  0.5903  0.6767  0.5818
  842MOL0     C13550   1.104   9.343   7.563  0.4684 -0.3780  0.1030
  842MOL0     C13551   1.020   9.222   7.525 -0.1991  0.3166  0.3203
  842MOL0     N13552   0.892   9.210   7.607  0.2948  0.8032 -0.2114
  842MOL0     C13553   0.761   9.185   7.572 -0.1859  0.0707  0.6355
  842MOL0     C13554   0.696   9.166   7.685 -0.0216  0.3453 -0.6234
  842MOL0     C13555   0.545   9.162   7.712  0.2328 -0.5227 -0.3880
  842MOL0     C13556   0.503   9.298   7.762  0.3556 -0.0736  0.2397
  842MOL0     C13557   0.352   9.322   7.793  0.2009 -0.3704 -0.4730
  842MOL0     C13558   0.304   9.240   7.911  0.4971  0.4840 -0.2843
  842MOL0     O13559   0.278   9.114   7.865  0.6700 -0.1879 -0.0167
  842MOL0     C13560   0.153   9.053   7.873  0.1174  0.2516  0.2597
  842MOL0     C13561   0.144   8.935   7.795  1.1624  0.6614  0.7999
  842MOL0     C13562   0.030   8.853   7.789 -0.0806 -0.1692 -0.7441
  842MOL0     C13563   0.040   8.722   7.713 -0.3556 -0.6657  0.2303
  842MOL0     C13564  -0.090   8.894   7.850 -0.5034  0.1744  0.3225
  842MOL0     C13565  -0.228   8.841   7.837 -0.0405  1.2406  0.3631
  842MOL0     O13566  -0.337   8.924   7.873 -0.5439  0.1647 -0.4378
  842MOL0     C13567  -0.469   8.886   7.875 -0.4603  0.8744 -0.2590
  842MOL0     C13568  -0.558   8.910   7.979  0.2435  0.8552 -0.2318
  842MOL0     C13569  -0.695   8.900   7.965 -0.4172 -0.6818  0.1510
  842MOL0     C13570  -0.756   8.862   7.840 -0.5098  0.0898 -0.7173
  842MOL0     O13571  -0.890   8.864   7.816  0.1073 -0.0367  0.2831
  842MOL0     C13572  -0.977   8.808   7.916 -0.0988  0.6410 -0.1595
  842MOL0     C13573  -1.132   8.831   7.888 -0.1754 -0.0511 -0.2790
  842MOL0     C13574  -1.168   8.805   7.743 -0.9000  0.1485 -0.2769
  842MOL0     C13575  -1.303   8.866   7.703  0.4621 -0.5648 -0.1502
  842MOL0     C13576  -1.334   8.837   7.551 -0.1123  0.4388  0.0897
  842MOL0     C13577  -1.477   8.862   7.517 -0.4745 -0.0239  0.2683
  842MOL0     C13578  -1.513   8.809   7.379 -1.3395  0.4682  0.2671
  842MOL0     C13579  -1.655   8.779   7.355  0.7824 -0.3912 -0.5456
  842MOL0    Cl13580  -1.755   8.926   7.406  0.0328  0.7165 -0.2436
  842MOL0     C13581  -0.673   8.827   7.735 -0.4560 -0.3504  0.9278
  842MOL0     C13582  -0.529   8.836   7.756  0.2772 -0.3517 -1.2182
  842MOL0     O13583  -0.241   8.727   7.793  0.4362  0.5499 -0.4702
  842MOL0     C13584  -0.073   9.008   7.936  0.4111 -0.5360 -0.2966
  842MOL0     C13585   0.043   9.081   7.949  0.6926 -0.2896  0.3288
  842MOL0     N13586   0.791   9.158   7.786  0.3762  0.5212 -0.2619
  842MOL0     N13587   0.902   9.196   7.741  0.1441 -0.4476 -0.5506
  842MOL0     C13588   2.082   9.681   7.569 -0.0064  0.1648 -0.0413
  842MOL0     C13589   2.211   9.654   7.611  0.1510 -0.7204  0.7186
  842MOL0     C13590   2.584   9.503   7.863 -0.3509  0.0298 -0.5811
  842MOL0     C13591   2.644   9.404   7.945  0.3161  0.0148 -0.5439
  842MOL0     C13592   2.787   9.407   7.962  0.6569  0.1089 -0.2178
  842MOL0     C13593   2.861   9.482   7.873 -1.3577 -0.6054  0.5273
  842MOL0     O13594   2.998   9.462   7.885  0.1888  0.2957 -0.3078
  842MOL0     C13595   3.094   9.506   7.783  0.2909  0.5020  0.4687
  842MOL0     C13596   3.218   9.425   7.798 -0.0444  0.6987 -0.0166
  842MOL0     C13597   3.330   9.443   7.705  0.9004 -0.0371  0.0079
  842MOL0     C13598   3.456   9.371   7.732 -0.0314 -0.4601  0.8489
  842MOL0     C13599   3.454   9.232   7.771 -0.5420 -0.1403 -0.2293
  842MOL0     C13600   3.452   9.115   7.789 -0.4026  0.0584 -0.3728
  842MOL0     C13601   2.809   9.569   7.776 -0.0542 -0.7275  0.1969
  842MOL0     C13602   2.674   9.579   7.777  0.9273  0.3858  1.1274
  842MOL0     H13603   2.149   9.473   7.894  0.7647 -0.5234 -0.4193
  842MOL0     H13604   1.913   9.514   7.804  0.0861 -1.3500 -0.3784
  842MOL0     H13605   1.787   9.677   7.384  2.3340  0.9250 -1.1975
  842MOL0     H13606   1.912   9.557   7.398 -0.5608 -0.9663 -0.0380
  842MOL0     H13607   1.707   9.465   7.335  0.0688  0.8323  0.4783
  842MOL0     H13608   1.750   9.389   7.493 -0.8914 -2.8435 -3.7852
  842MOL0     H13609   1.595   9.555   7.607  0.3766  1.6422 -1.5157
  842MOL0     H13610   1.542   9.602   7.444  0.6633  1.0570  0.6916
  842MOL0     H13611   1.481   9.356   7.402 -0.1723  0.0236 -0.4474
  842MOL0     H13612   1.487   9.335   7.582 -1.5065 -2.6013 -2.0959
  842MOL0     H13613   1.331   9.501   7.601  1.3585 -1.9414  0.2731
  842MOL0     H13614   1.307   9.527   7.420  0.0907 -0.7314 -0.8452
  842MOL0     H13615   1.226   9.325   7.381  0.1213  0.3708  0.6784
  842MOL0     H13616   1.290   9.249   7.524 -0.3918  0.6194  1.9059
  842MOL0     H13617   1.131   9.365   7.667  2.6212 -1.5739 -0.1546
  842MOL0     H13618   1.056   9.433   7.525  2.1676  1.0521  1.1704
  842MOL0     H13619   1.075   9.130   7.545 -0.1027  0.5408  1.1408
  842MOL0     H13620   0.993   9.210   7.420 -2.4303  0.2207  0.8613
  842MOL0     H13621   0.711   9.171   7.477 -0.3063 -3.1113  1.0614
  842MOL0     H13622   0.487   9.149   7.620 -1.5752 -5.2416  1.1079
  842MOL0     H13623   0.524   9.076   7.776 -1.4530  0.0389 -0.1218
  842MOL0     H13624   0.539   9.374   7.692  0.9137  0.5507  1.1684
  842MOL0     H13625   0.555   9.323   7.855 -1.8750  2.3711  0.9532
  842MOL0     H13626   0.296   9.305   7.700  0.1533 -1.6749 -0.2237
  842MOL0     H13627   0.346   9.426   7.824  0.3039 -0.8133  1.1406
  842MOL0     H13628   0.216   9.287   7.957  1.4774 -0.0601  2.3416
  842MOL0     H13629   0.381   9.241   7.989  0.6769 -1.6460 -0.3770
  842MOL0     H13630   0.217   8.908   7.719  0.4777  1.6182 -0.2102
  842MOL0     H13631   0.105   8.739   7.626  2.4207 -1.3087  2.0403
  842MOL0     H13632   0.091   8.642   7.769  2.3428  0.5577 -0.3157
  842MOL0     H13633  -0.054   8.689   7.666  0.1180  0.7951 -1.8825
  842MOL0     H13634  -0.518   8.948   8.072 -1.8099  0.6579  0.7950
  842MOL0     H13635  -0.749   8.923   8.056  0.9155  0.4070  0.7216
  842MOL0     H13636  -0.962   8.700   7.922 -1.2035  0.4854  0.0118
  842MOL0     H13637  -0.950   8.848   8.014  3.8199 -0.0382 -0.8074
  842MOL0     H13638  -1.178   8.772   7.967 -2.9310 -1.1296 -2.5280
  842MOL0     H13639  -1.159   8.934   7.911  0.6172 -0.0482  0.6776
  842MOL0     H13640  -1.173   8.696   7.730 -3.2952  0.1035  0.4523
  842MOL0     H13641  -1.085   8.840   7.682 -0.1866 -0.4069  0.3469
  842MOL0     H13642  -1.374   8.835   7.780 -1.0208  2.2669 -0.2218
  842MOL0     H13643  -1.303   8.974   7.720  1.0647 -0.5849 -0.0278
  842MOL0     H13644  -1.307   8.734   7.527  1.0126  0.7936 -0.2327
  842MOL0     H13645  -1.270   8.901   7.490 -2.3883  1.6312 -1.1403
  842MOL0     H13646  -1.547   8.831   7.596  0.2453  1.8776  1.7470
  842MOL0     H13647  -1.486   8.971   7.517 -2.3715 -0.0363 -3.2794
  842MOL0     H13648  -1.458   8.717   7.356  1.0493  2.1024 -0.9986
  842MOL0     H13649  -1.489   8.883   7.303 -0.8079 -2.0614 -2.1941
  842MOL0     H13650  -1.685   8.700   7.424 -0.7458  0.4219 -0.2528
  842MOL0     H13651  -1.670   8.751   7.250  2.7080  1.2161 -1.3218
  842MOL0     H13652  -0.724   8.791   7.646 -2.3695 -0.2279  1.9073
  842MOL0     H13653  -0.453   8.808   7.683  2.2871 -1.1927  1.0678
  842MOL0     H13654  -0.162   9.043   7.987  1.8477  1.4639  0.9701
  842MOL0     H13655   0.032   9.174   8.004  0.1355  0.0919 -0.4124
  842MOL0     H13656   2.066   9.747   7.483  1.6534 -0.8889 -1.2223
  842MOL0     H13657   2.287   9.695   7.546 -1.0414  0.7717  0.2079
  842MOL0     H13658   2.583   9.338   8.006 -1.6253 -0.0335 -2.4267
  842MOL0     H13659   2.827   9.344   8.041 -1.1552 -0.8285  0.0125
  842MOL0     H13660   3.057   9.479   7.684 -1.8567  0.6981  1.1597
  842MOL0     H13661   3.121   9.612   7.785 -1.5745  1.0880 -1.5689
  842MOL0     H13662   3.192   9.319   7.792  2.4252 -0.0873  1.4453
  842MOL0     H13663   3.246   9.441   7.903 -1.3525 -2.7744  1.0010
  842MOL0     H13664   3.353   9.550   7.701  1.1605 -0.1249 -2.5564
  842MOL0     H13665   3.290   9.424   7.605 -1.6266  0.3959  0.8858
  842MOL0     H13666   3.516   9.424   7.806  2.8478  0.0983 -1.6610
  842MOL0     H13667   3.525   9.377   7.647  0.9831 -1.3532  1.5695
  842MOL0     H13668   3.453   9.009   7.803 -3.1082 -0.2034 -1.5263
  842MOL0     H13669   2.858   9.634   7.704 -1.0982 -0.7663 -0.5855
  842MOL0     H13670   2.627   9.630   7.694 -1.6148 -3.3083  0.0203
  843MOL0     O13671  10.629   8.721   5.622  0.0671 -0.6545  0.1528
  843MOL0     C13672  10.665   8.836   5.636 -0.7553  0.1972 -0.0085
  843MOL0     O13673  10.593   8.945   5.591 -0.2481 -0.4899 -0.2935
  843MOL0     C13674  10.459   8.940   5.551 -0.0224 -0.9840  0.5455
  843MOL0     C13675  10.419   8.861   5.445 -0.3187 -0.0115 -0.5656
  843MOL0     C13676  10.288   8.851   5.408  0.1035  0.5001  0.9420
  843MOL0     C13677  10.192   8.934   5.456 -0.0594  0.0319  0.0375
  843MOL0     O13678  10.064   8.912   5.401  0.1742  0.0349 -0.2574
  843MOL0     C13679   9.950   8.974   5.466 -0.0194 -0.0947 -0.5793
  843MOL0     C13680   9.824   8.896   5.431  0.3021  0.1013 -0.0937
  843MOL0     C13681   9.700   8.957   5.505 -0.2766 -0.5284 -0.5920
  843MOL0     C13682   9.564   8.911   5.458 -0.9408  0.7140 -0.0584
  843MOL0     C13683   9.458   8.965   5.554 -0.0181 -0.5351  0.0179
  843MOL0     C13684   9.317   8.930   5.511  0.1594 -0.0669  0.0434
  843MOL0     C13685   9.270   8.992   5.373  0.6628 -0.2811 -0.2596
  843MOL0     C13686   9.117   8.998   5.370 -0.2863  0.0258  0.5603
  843MOL0     N13687   9.070   9.031   5.233  0.2989 -0.3634 -0.2857
  843MOL0     C13688   8.941   8.998   5.187  0.2015  0.4394 -0.1968
  843MOL0     C13689   8.942   9.032   5.056  0.0851 -0.8057 -0.4178
  843MOL0     C13690   8.819   9.025   4.961 -0.9939 -0.1883 -0.2722
  843MOL0     C13691   8.817   9.153   4.877  0.5795  0.3557  0.4739
  843MOL0     C13692   8.669   9.199   4.858 -0.8653  0.2520 -0.1645
  843MOL0     C13693   8.652   9.327   4.782  0.6004  0.3257 -0.1475
  843MOL0     O13694   8.564   9.305   4.675 -0.1128 -0.3394  0.4638
  843MOL0     C13695   8.434   9.318   4.692  0.0586 -0.0957 -1.0590
  843MOL0     C13696   8.379   9.401   4.796 -0.2755  0.7079 -1.4378
  843MOL0     C13697   8.239   9.419   4.797 -0.8586 -0.3847  0.5919
  843MOL0     C13698   8.190   9.501   4.905 -0.3997 -0.8946  0.1079
  843MOL0     C13699   8.156   9.352   4.703  0.2069 -0.4196 -0.2117
  843MOL0     C13700   8.007   9.364   4.701  0.5153  0.6358  0.1172
  843MOL0     O13701   7.944   9.340   4.584 -0.0414 -1.2667  0.0910
  843MOL0     C13702   7.810   9.366   4.577  0.6344 -0.2579  0.7055
  843MOL0     C13703   7.716   9.258   4.559  1.2764 -0.7661 -0.8395
  843MOL0     C13704   7.577   9.286   4.554  0.6367  0.6052  0.2783
  843MOL0     C13705   7.533   9.418   4.565 -0.1175 -1.3657 -0.4014
  843MOL0     O13706   7.396   9.437   4.570  0.7417 -0.1519  1.1455
  843MOL0     C13707   7.346   9.563   4.616 -0.5569 -0.1389 -0.1453
  843MOL0     C13708   7.199   9.556   4.635  0.1569 -1.2522 -0.2043
  843MOL0     C13709   7.118   9.631   4.528  0.8128 -0.8124  0.0353
  843MOL0     C13710   6.967   9.642   4.554 -0.1991  0.2083 -0.1022
  843MOL0     C13711   6.893   9.733   4.465 -0.1900 -0.0032  0.5632
  843MOL0     C13712   6.740   9.737   4.496 -0.0090  0.2097 -0.1455
  843MOL0     C13713   6.675   9.608   4.469 -0.5892  0.3249  0.5002
  843MOL0     C13714   6.526   9.619   4.422 -0.0610  0.3152  0.0928
  843MOL0    Cl13715   6.506   9.691   4.262 -0.2017 -0.0116  0.2252
  843MOL0     C13716   7.627   9.525   4.585  0.6414  0.0891 -0.2267
  843MOL0     C13717   7.759   9.492   4.605 -0.2351  0.9844  0.3624
  843MOL0     O13718   7.955   9.389   4.806  0.2256 -0.5686  0.1073
  843MOL0     C13719   8.217   9.262   4.615 -0.1174  0.5823  0.6817
  843MOL0     C13720   8.353   9.245   4.612 -0.5977 -0.0807 -0.3731
  843MOL0     N13721   9.061   9.094   5.026 -0.5103 -0.6619  1.1788
  843MOL0     N13722   9.140   9.085   5.128  0.7089 -0.3697  0.0398
  843MOL0     C13723  10.224   9.012   5.565  0.0767  0.3050 -0.0534
  843MOL0     C13724  10.356   9.024   5.606  0.1036 -0.3424  1.0725
  843MOL0     C13725  10.788   8.849   5.712  0.1162  0.1137  0.0309
  843MOL0     C13726  10.870   8.735   5.742  0.7433 -0.8408  0.1427
  843MOL0     C13727  10.985   8.749   5.810 -0.2489  0.1161  0.1073
  843MOL0     C13728  11.027   8.873   5.853  0.1217 -0.0100  0.0111
  843MOL0     O13729  11.152   8.877   5.913  0.6092 -0.1086 -0.4333
  843MOL0     C13730  11.225   9.001   5.899  0.6908 -0.1921  0.1219
  843MOL0     C13731  11.373   8.978   5.943  0.2247 -0.5903 -0.8527
  843MOL0     C13732  11.446   9.106   5.965 -0.2124 -0.8187  0.4002
  843MOL0     C13733  11.594   9.074   6.006  0.3229  0.4439  0.1636
  843MOL0     C13734  11.683   9.021   5.899  0.2810 -0.1878  0.0150
  843MOL0     C13735  11.755   8.983   5.813  0.6163 -0.4570  0.4372
  843MOL0     C13736  10.947   8.984   5.832  0.0694  0.9270 -0.2189
  843MOL0     C13737  10.835   8.972   5.751 -0.7071 -0.0672 -0.1792
  843MOL0     H13738  10.485   8.791   5.394 -1.8542 -1.3253 -0.8202
  843MOL0     H13739  10.267   8.782   5.328  0.1897  0.3979  1.0074
  843MOL0     H13740   9.955   8.973   5.576 -0.6213  0.5781 -0.5357
  843MOL0     H13741   9.934   9.081   5.445 -0.6690 -0.0210  0.2228
  843MOL0     H13742   9.803   8.906   5.325  1.2404 -2.2590 -0.5665
  843MOL0     H13743   9.828   8.787   5.443 -2.6615 -0.0202  0.7118
  843MOL0     H13744   9.705   8.947   5.614 -0.0758 -1.1974 -0.6571
  843MOL0     H13745   9.696   9.065   5.492 -1.4497 -0.5853 -0.7952
  843MOL0     H13746   9.547   8.938   5.354  0.0667 -1.1681 -0.7703
  843MOL0     H13747   9.558   8.802   5.455  0.1573  0.6403  0.1585
  843MOL0     H13748   9.482   8.927   5.653  1.9415 -2.1886 -1.0211
  843MOL0     H13749   9.472   9.073   5.557  1.2519 -0.6536 -0.8947
  843MOL0     H13750   9.313   8.821   5.496 -2.1784 -0.6820  3.7478
  843MOL0     H13751   9.254   8.971   5.591  0.5457 -0.0976  0.3690
  843MOL0     H13752   9.302   9.096   5.359 -0.2379 -0.1652 -1.7083
  843MOL0     H13753   9.309   8.942   5.284  2.9847  0.4878  0.2479
  843MOL0     H13754   9.090   9.076   5.442 -1.8099  3.0154 -2.9029
  843MOL0     H13755   9.077   8.903   5.406  0.7600 -1.5953 -2.2005
  843MOL0     H13756   8.862   8.943   5.238  0.6792  1.2906  1.5779
  843MOL0     H13757   8.823   8.941   4.890  0.6663  0.8399 -1.4914
  843MOL0     H13758   8.727   9.027   5.020 -1.2628  1.2115 -0.6913
  843MOL0     H13759   8.867   9.142   4.781  0.0118 -1.1034  0.3240
  843MOL0     H13760   8.864   9.235   4.933  0.9202  0.3675  0.1722
  843MOL0     H13761   8.620   9.209   4.956 -3.5669  0.8309 -1.4989
  843MOL0     H13762   8.624   9.117   4.801 -1.8869  0.6324  0.0646
  843MOL0     H13763   8.751   9.359   4.746  0.1736  0.3735 -1.2969
  843MOL0     H13764   8.632   9.402   4.859  0.3323 -1.2273  1.3605
  843MOL0     H13765   8.441   9.443   4.874  1.1129 -0.3685 -1.9014
  843MOL0     H13766   8.270   9.546   4.964  0.0976 -2.9454  1.1021
  843MOL0     H13767   8.125   9.583   4.876 -1.0867 -1.5295 -0.1794
  843MOL0     H13768   8.143   9.432   4.976 -2.6432  0.7586  0.3063
  843MOL0     H13769   7.758   9.159   4.544 -0.0249 -1.6031  0.7393
  843MOL0     H13770   7.493   9.216   4.556 -0.2727  1.6264 -0.8573
  843MOL0     H13771   7.383   9.572   4.718  0.9322  1.1489 -0.7555
  843MOL0     H13772   7.374   9.643   4.547  4.4073 -1.1237  0.3298
  843MOL0     H13773   7.163   9.452   4.635 -2.1421 -0.5077 -0.0756
  843MOL0     H13774   7.171   9.592   4.734  0.9697  1.8748 -1.0026
  843MOL0     H13775   7.119   9.582   4.430  0.2119 -2.1625  0.6838
  843MOL0     H13776   7.153   9.735   4.524  0.7396 -0.7861  0.0930
  843MOL0     H13777   6.923   9.541   4.550  1.2349 -0.4967  0.9807
  843MOL0     H13778   6.957   9.673   4.658  0.9881  1.9571 -0.4661
  843MOL0     H13779   6.898   9.692   4.364 -2.4014 -0.6417  0.6580
  843MOL0     H13780   6.939   9.832   4.466  0.4327 -0.2862  0.6388
  843MOL0     H13781   6.722   9.766   4.600 -0.0281  1.4550 -0.4784
  843MOL0     H13782   6.699   9.810   4.425 -0.8186 -1.8702 -1.9260
  843MOL0     H13783   6.669   9.544   4.558  0.6550  3.3021  2.9076
  843MOL0     H13784   6.718   9.551   4.387 -1.1690 -0.9377  1.0413
  843MOL0     H13785   6.468   9.687   4.484 -4.9212 -0.2888 -3.2341
  843MOL0     H13786   6.472   9.524   4.431  0.9800 -0.2134  1.0504
  843MOL0     H13787   7.592   9.625   4.605 -0.5486 -0.2123 -0.6928
  843MOL0     H13788   7.825   9.574   4.632 -1.6140  2.4576 -0.5662
  843MOL0     H13789   8.162   9.212   4.536 -1.3753 -0.5694  2.2129
  843MOL0     H13790   8.392   9.172   4.541 -0.7327  0.4278 -0.9798
  843MOL0     H13791  10.152   9.083   5.605  2.1831  1.5692  1.6650
  843MOL0     H13792  10.375   9.107   5.673  0.6463 -0.4748  1.0835
  843MOL0     H13793  10.842   8.632   5.724  2.1662 -1.3998  0.9286
  843MOL0     H13794  11.052   8.665   5.830  0.2212  1.2261  3.9165
  843MOL0     H13795  11.227   9.047   5.800  0.3883 -2.1638 -0.8473
  843MOL0     H13796  11.183   9.068   5.975  1.4274 -0.2236  0.5649
  843MOL0     H13797  11.425   8.920   5.866  1.0282 -0.7872 -0.1694
  843MOL0     H13798  11.373   8.919   6.035 -0.6413  1.1377  0.3176
  843MOL0     H13799  11.389   9.157   6.044 -1.5158  0.0072 -1.0109
  843MOL0     H13800  11.436   9.162   5.871 -0.3867  0.8808  1.3830
  843MOL0     H13801  11.593   9.009   6.094 -3.7250 -0.1025 -0.1003
  843MOL0     H13802  11.641   9.159   6.056 -2.6609  1.0055  2.2569
  843MOL0     H13803  11.810   8.958   5.724 -0.5738  0.6587 -0.6467
  843MOL0     H13804  10.974   9.081   5.872 -2.1250  1.6680 -0.4142
  843MOL0     H13805  10.789   9.067   5.727 -0.0102 -0.0519 -1.5668
  844MOL0     O13806   2.254   3.793   7.464 -0.1386  0.0620 -0.5882
  844MOL0     C13807   2.336   3.886   7.460  0.4912  0.2209  1.2610
  844MOL0     O13808   2.306   4.016   7.469  0.7017  0.0189  0.5145
  844MOL0     C13809   2.170   4.050   7.461  0.6167  0.3862  0.2030
  844MOL0     C13810   2.078   4.015   7.562  0.1238  0.9224 -0.8730
  844MOL0     C13811   1.943   4.034   7.545  0.0266 -0.0672  0.3210
  844MOL0     C13812   1.885   4.094   7.430  0.7018  0.3662 -0.8394
  844MOL0     O13813   1.755   4.124   7.414 -0.0556 -0.5588 -0.1465
  844MOL0     C13814   1.656   4.110   7.518  1.0559  0.0206 -1.1970
  844MOL0     C13815   1.515   4.114   7.454  0.2607 -0.0776 -0.4905
  844MOL0     C13816   1.503   4.002   7.353 -0.0926  0.3112  0.4991
  844MOL0     C13817   1.367   3.991   7.284 -0.5441 -1.1048  0.5685
  844MOL0     C13818   1.261   3.931   7.387 -0.7075  0.5180  0.6530
  844MOL0     C13819   1.131   3.893   7.322  0.4063  0.0467  0.9471
  844MOL0     C13820   1.086   3.971   7.196 -0.5767 -0.1562 -0.3847
  844MOL0     C13821   0.937   3.947   7.176  0.0318 -0.1804 -0.5073
  844MOL0     N13822   0.898   3.985   7.046  0.1538 -0.1488  0.1483
  844MOL0     C13823   0.775   4.041   7.017  0.5936 -0.5145  1.1487
  844MOL0     C13824   0.786   4.084   6.888 -0.2722  1.0318 -1.2459
  844MOL0     C13825   0.674   4.150   6.818  0.5986  0.1313 -0.2751
  844MOL0     C13826   0.630   4.066   6.696  0.5737 -0.7725  0.0207
  844MOL0     C13827   0.563   4.159   6.583  0.7895  0.1210  0.5047
  844MOL0     C13828   0.410   4.162   6.596  0.9755  0.3761 -0.0653
  844MOL0     O13829   0.387   4.251   6.702  0.0313 -0.3110 -0.0917
  844MOL0     C13830   0.262   4.313   6.713 -0.3057  0.5716  0.1998
  844MOL0     C13831   0.264   4.414   6.810  0.8276 -0.7882  1.0400
  844MOL0     C13832   0.152   4.502   6.824  0.4051  0.2557 -0.4756
  844MOL0     C13833   0.141   4.598   6.934  0.2886  0.0357  0.0139
  844MOL0     C13834   0.040   4.488   6.742  0.0663 -0.7323 -0.4535
  844MOL0     C13835  -0.084   4.570   6.747 -0.1164 -0.3666 -0.1620
  844MOL0     O13836  -0.059   4.697   6.773 -0.0100  0.2971  0.0719
  844MOL0     C13837  -0.164   4.770   6.812 -0.3502 -0.1280 -0.9719
  844MOL0     C13838  -0.273   4.816   6.732 -0.0795  0.4850 -0.5666
  844MOL0     C13839  -0.378   4.876   6.787  0.6456 -0.6882 -0.7509
  844MOL0     C13840  -0.391   4.914   6.926  0.2144  1.0619  0.2778
  844MOL0     O13841  -0.519   4.947   6.982 -0.4364 -0.2874 -0.0490
  844MOL0     C13842  -0.529   5.022   7.102  0.9178 -0.5962 -0.9908
  844MOL0     C13843  -0.667   5.088   7.086  0.1838 -0.6707 -0.5600
  844MOL0     C13844  -0.787   4.998   7.089  0.1672  0.2553 -0.5426
  844MOL0     C13845  -0.923   5.075   7.107 -0.1041 -0.1357 -0.9417
  844MOL0     C13846  -1.044   4.991   7.144  0.7955  0.2785 -0.2984
  844MOL0     C13847  -1.174   5.063   7.159 -0.1610  0.3244  0.8424
  844MOL0     C13848  -1.287   4.975   7.220  0.0701 -0.2627  0.1629
  844MOL0     C13849  -1.422   5.047   7.237 -0.3251 -0.4482  0.2971
  844MOL0    Cl13850  -1.480   5.020   7.399 -0.0413 -0.1990  0.0437
  844MOL0     C13851  -0.286   4.875   7.002 -0.4128  0.8935  0.9812
  844MOL0     C13852  -0.177   4.807   6.948 -0.2267 -0.2022 -0.3578
  844MOL0     O13853  -0.194   4.520   6.749  0.0995  0.1588  0.5908
  844MOL0     C13854   0.034   4.379   6.653 -0.5024  0.3303  0.4988
  844MOL0     C13855   0.146   4.285   6.638  0.1432 -0.2295  0.6845
  844MOL0     N13856   0.910   4.041   6.838 -0.2347 -0.2237 -0.2133
  844MOL0     N13857   0.977   3.987   6.934 -0.1757 -0.2052  0.6530
  844MOL0     C13858   1.988   4.131   7.337  0.8387  0.3040 -0.1060
  844MOL0     C13859   2.124   4.112   7.342  0.2561 -0.4810 -0.8324
  844MOL0     C13860   2.479   3.852   7.452 -1.2735 -0.7911 -0.8228
  844MOL0     C13861   2.575   3.949   7.476  0.3930  0.0422  0.3771
  844MOL0     C13862   2.710   3.928   7.468 -0.9215 -0.4762 -0.2749
  844MOL0     C13863   2.761   3.800   7.445  0.8319 -0.7653 -0.1832
  844MOL0     O13864   2.895   3.765   7.448  0.5138 -0.4200 -0.1166
  844MOL0     C13865   2.997   3.866   7.465  0.2163 -0.0670 -0.6380
  844MOL0     C13866   3.119   3.800   7.522 -0.1613  0.4952 -0.8505
  844MOL0     C13867   3.089   3.704   7.638  0.3814 -0.6686  0.1822
  844MOL0     C13868   3.209   3.711   7.733 -0.7209 -0.1045 -0.4344
  844MOL0     C13869   3.322   3.623   7.718  0.6218 -0.4828  1.0786
  844MOL0     C13870   3.424   3.557   7.711 -0.4615  0.3650  0.2483
  844MOL0     C13871   2.673   3.691   7.428 -1.0418  0.4788  0.3831
  844MOL0     C13872   2.535   3.724   7.431 -0.2757 -0.0482  0.2493
  844MOL0     H13873   2.113   3.971   7.655  0.9082  0.3371 -1.4270
  844MOL0     H13874   1.870   4.010   7.622 -1.7941 -2.4158 -1.9671
  844MOL0     H13875   1.673   4.012   7.565  1.0659  1.8604  3.1470
  844MOL0     H13876   1.658   4.192   7.591 -1.4178 -2.1170  1.5610
  844MOL0     H13877   1.438   4.105   7.532 -0.5360  2.8214 -0.8245
  844MOL0     H13878   1.489   4.209   7.408  0.0260 -0.1215 -0.4514
  844MOL0     H13879   1.582   4.028   7.281  1.1424  0.9297  2.0018
  844MOL0     H13880   1.519   3.909   7.408  0.7823 -1.3504 -2.3374
  844MOL0     H13881   1.335   4.088   7.246 -2.0950 -0.7074  2.7686
  844MOL0     H13882   1.376   3.921   7.200 -0.8531  0.1885 -0.5722
  844MOL0     H13883   1.302   3.838   7.428 -2.6698  0.7149  3.2980
  844MOL0     H13884   1.259   3.998   7.473  4.8819  0.5241  1.1545
  844MOL0     H13885   1.153   3.789   7.295  1.6165  0.4761  0.2066
  844MOL0     H13886   1.044   3.883   7.387 -0.5898 -2.8768 -0.6475
  844MOL0     H13887   1.112   4.077   7.204  0.0560 -0.4642  3.4218
  844MOL0     H13888   1.141   3.929   7.111 -0.4048 -0.7336  0.0091
  844MOL0     H13889   0.875   3.999   7.250 -0.0621 -3.3542  1.8748
  844MOL0     H13890   0.918   3.840   7.187  1.2206 -0.2386  1.3543
  844MOL0     H13891   0.688   4.059   7.080 -0.3950  0.7657 -0.4933
  844MOL0     H13892   0.583   4.166   6.877 -0.1669 -6.4236  1.1277
  844MOL0     H13893   0.722   4.242   6.785 -0.8130  0.2863 -2.0033
  844MOL0     H13894   0.567   3.981   6.724 -0.0121 -0.0812  0.8767
  844MOL0     H13895   0.721   4.030   6.647 -0.4255 -2.5789 -0.6223
  844MOL0     H13896   0.594   4.113   6.489 -2.7990 -2.6643  0.4577
  844MOL0     H13897   0.592   4.264   6.592  0.3712  0.1545  1.6942
  844MOL0     H13898   0.368   4.065   6.624  2.3058 -0.7112 -1.6127
  844MOL0     H13899   0.365   4.197   6.502  1.0653 -0.6260 -0.4956
  844MOL0     H13900   0.352   4.434   6.870  0.5069  1.9939  0.7286
  844MOL0     H13901   0.157   4.698   6.893 -0.9056 -1.0434 -3.4718
  844MOL0     H13902   0.046   4.597   6.987  0.8349  0.2818  1.0283
  844MOL0     H13903   0.223   4.572   7.003  1.7543 -1.4495 -2.1471
  844MOL0     H13904  -0.260   4.784   6.629  3.8543 -1.3576  0.3214
  844MOL0     H13905  -0.461   4.893   6.720  2.1649  1.4570 -2.2117
  844MOL0     H13906  -0.525   4.963   7.194 -0.3353  2.6644  1.3650
  844MOL0     H13907  -0.457   5.104   7.112  0.4248 -0.3125  0.4056
  844MOL0     H13908  -0.686   5.153   7.172 -3.5187 -0.1149 -1.6099
  844MOL0     H13909  -0.678   5.143   6.992  2.3273 -1.6200 -1.4331
  844MOL0     H13910  -0.770   4.929   7.172 -1.0935  1.2352  0.5732
  844MOL0     H13911  -0.788   4.944   6.994  2.2134  1.1480 -1.1284
  844MOL0     H13912  -0.917   5.156   7.182 -0.0337  2.3181 -3.4286
  844MOL0     H13913  -0.948   5.126   7.013 -0.5619  0.1309 -0.6816
  844MOL0     H13914  -1.028   4.938   7.239 -2.2496 -1.8970 -0.8488
  844MOL0     H13915  -1.056   4.908   7.074  2.2735 -0.5864  0.4174
  844MOL0     H13916  -1.158   5.147   7.226  1.8862  1.6610 -1.1861
  844MOL0     H13917  -1.205   5.100   7.061 -0.7955 -2.3373 -0.0549
  844MOL0     H13918  -1.264   4.945   7.322 -3.0785  1.3778  1.5044
  844MOL0     H13919  -1.307   4.888   7.157  1.4672  0.0712 -0.8066
  844MOL0     H13920  -1.489   5.009   7.160 -0.1235 -0.1599 -0.0209
  844MOL0     H13921  -1.416   5.151   7.206 -0.5008 -0.7335 -0.7219
  844MOL0     H13922  -0.298   4.893   7.109 -0.0226  0.1490  1.1558
  844MOL0     H13923  -0.094   4.800   7.018 -1.5916 -3.2996  1.1544
  844MOL0     H13924  -0.055   4.357   6.595 -1.0036 -0.6999  1.6200
  844MOL0     H13925   0.138   4.204   6.566 -1.7673  1.0893 -0.6927
  844MOL0     H13926   1.962   4.174   7.241  1.5769  0.9962 -0.0037
  844MOL0     H13927   2.187   4.150   7.263 -0.6739  0.7689 -0.9970
  844MOL0     H13928   2.548   4.053   7.494  0.0836 -0.1518  1.0184
  844MOL0     H13929   2.776   4.014   7.471 -2.2288  0.5515  2.1961
  844MOL0     H13930   3.010   3.925   7.374 -1.2999 -0.8015 -1.3732
  844MOL0     H13931   2.959   3.937   7.538  1.9288 -0.6886  0.9451
  844MOL0     H13932   3.185   3.883   7.549 -0.0536  0.5385 -1.2312
  844MOL0     H13933   3.171   3.747   7.442 -2.5611 -2.4876 -0.5805
  844MOL0     H13934   3.065   3.604   7.603  2.6557 -0.7744 -1.2704
  844MOL0     H13935   3.000   3.746   7.685  0.8254  1.9581 -1.1201
  844MOL0     H13936   3.166   3.691   7.831  0.0596 -0.4188 -0.1479
  844MOL0     H13937   3.254   3.811   7.726  1.9404 -1.2712 -1.5591
  844MOL0     H13938   3.519   3.510   7.728  0.1618  1.5864  0.2811
  844MOL0     H13939   2.695   3.585   7.419 -1.7610  0.4076 -0.7022
  844MOL0     H13940   2.468   3.641   7.413  0.2364 -0.1854 -1.1958
  845MOL0     O13941   9.584   3.819   4.784  0.0526  0.2459  0.6151
  845MOL0     C13942   9.675   3.887   4.732 -0.3111 -0.0407  0.7854
  845MOL0     O13943   9.656   3.978   4.624  0.1924  0.4362 -0.2182
  845MOL0     C13944   9.528   3.990   4.574 -0.1133  0.3615 -0.1331
  845MOL0     C13945   9.406   3.984   4.642 -0.0482  0.6924  0.1172
  845MOL0     C13946   9.285   4.003   4.579  0.4006 -0.0978 -0.0921
  845MOL0     C13947   9.272   4.040   4.443 -0.3591 -0.2196 -0.5985
  845MOL0     O13948   9.145   4.049   4.389 -0.4205 -0.1818  0.0998
  845MOL0     C13949   9.129   4.140   4.283 -0.8328  0.0191 -0.5275
  845MOL0     C13950   8.988   4.198   4.293  0.1984 -0.3894 -0.2540
  845MOL0     C13951   8.877   4.095   4.303  0.2205  0.0970 -0.1406
  845MOL0     C13952   8.738   4.160   4.315  0.6061  0.3715  0.2648
  845MOL0     C13953   8.632   4.056   4.331 -0.1581  0.4263 -0.4097
  845MOL0     C13954   8.488   4.103   4.295 -0.5258  0.3685 -0.1642
  845MOL0     C13955   8.452   4.231   4.365  0.4387  0.0794  0.3038
  845MOL0     C13956   8.413   4.212   4.517 -0.5925 -0.9813  0.3115
  845MOL0     N13957   8.281   4.163   4.527  0.9381  1.0076  0.7253
  845MOL0     C13958   8.157   4.217   4.478  0.2958  0.2992  0.4260
  845MOL0     C13959   8.070   4.119   4.514  0.6984 -0.5947  1.0847
  845MOL0     C13960   7.926   4.106   4.478 -0.2341 -0.4835  0.0065
  845MOL0     C13961   7.848   4.241   4.478  0.4124  0.9563  0.1870
  845MOL0     C13962   7.827   4.333   4.599 -0.1461 -0.3495 -0.1082
  845MOL0     C13963   7.756   4.462   4.570 -0.8907 -0.1687 -0.1048
  845MOL0     O13964   7.806   4.517   4.439  0.0279  0.7855  0.3162
  845MOL0     C13965   7.938   4.552   4.426 -0.3184 -0.7369 -0.0633
  845MOL0     C13966   8.016   4.571   4.539  0.6113  0.1513 -0.1377
  845MOL0     C13967   8.157   4.582   4.529  0.5373  0.0437 -0.0872
  845MOL0     C13968   8.233   4.602   4.657 -0.2979 -0.1770 -0.0499
  845MOL0     C13969   8.214   4.573   4.395  0.1852 -0.3608 -0.3121
  845MOL0     C13970   8.359   4.577   4.363  0.3059 -0.5758  0.3553
  845MOL0     O13971   8.449   4.572   4.467 -0.0025 -0.7244  0.0481
  845MOL0     C13972   8.581   4.590   4.459  0.0521  0.6806 -0.0046
  845MOL0     C13973   8.663   4.558   4.353  0.0748  0.1784  0.2153
  845MOL0     C13974   8.801   4.572   4.358  1.2587  0.4410  1.1827
  845MOL0     C13975   8.865   4.616   4.474  0.8815  0.5554  0.5370
  845MOL0     O13976   8.994   4.617   4.473 -0.0221  0.3811  0.4633
  845MOL0     C13977   9.060   4.636   4.598  0.2770  0.9246  0.2611
  845MOL0     C13978   9.212   4.612   4.585  0.5480  0.3128 -0.0255
  845MOL0     C13979   9.299   4.690   4.683  0.2664  0.7771 -0.1187
  845MOL0     C13980   9.448   4.672   4.650  0.0326  0.1238 -0.9025
  845MOL0     C13981   9.536   4.756   4.736  0.0972  0.2499  0.3325
  845MOL0     C13982   9.518   4.730   4.881 -0.3600 -0.1125 -0.1070
  845MOL0     C13983   9.647   4.785   4.943  0.4380  0.6548 -1.5234
  845MOL0     C13984   9.622   4.778   5.096  0.4970  0.0127 -0.0844
  845MOL0    Cl13985   9.492   4.878   5.159 -0.1094 -0.0898  0.1698
  845MOL0     C13986   8.777   4.651   4.579  0.3707  0.5746 -0.7660
  845MOL0     C13987   8.639   4.636   4.577  0.0121 -0.3506  0.4300
  845MOL0     O13988   8.388   4.608   4.252  0.0324  0.4081  0.6133
  845MOL0     C13989   8.124   4.570   4.286 -0.4721  0.3868 -0.1297
  845MOL0     C13990   7.988   4.568   4.305 -0.2665  0.3760  0.3717
  845MOL0     N13991   8.131   4.018   4.572 -0.4625  1.2886  0.1543
  845MOL0     N13992   8.257   4.037   4.580 -0.0985 -0.3338 -0.1814
  845MOL0     C13993   9.394   4.042   4.367 -0.6379  0.7125 -0.1593
  845MOL0     C13994   9.515   4.018   4.438 -0.5991 -0.7311  0.1594
  845MOL0     C13995   9.821   3.866   4.791  0.3980 -0.0262  0.7047
  845MOL0     C13996   9.924   3.952   4.754 -0.1292 -0.1278 -0.5565
  845MOL0     C13997  10.055   3.935   4.811  0.6850  0.4974 -0.2947
  845MOL0     C13998  10.089   3.822   4.881  0.5121  0.2045 -0.6142
  845MOL0     O13999  10.214   3.799   4.945  0.2500  0.2330  0.1467
  845MOL0     C14000  10.314   3.900   4.950  0.4529  1.3080 -0.1305
  845MOL0     C14001  10.292   3.983   5.076  0.1548 -0.4791  0.2575
  845MOL0     C14002  10.297   3.918   5.213  0.1931 -0.1238  0.0303
  845MOL0     C14003  10.426   3.833   5.238  0.1264  0.7722  0.4277
  845MOL0     C14004  10.444   3.787   5.376  0.0912  0.0966  0.1720
  845MOL0     C14005  10.462   3.749   5.488  0.1779 -0.6161 -1.0117
  845MOL0     C14006   9.991   3.732   4.912  0.2496 -0.1475 -0.6235
  845MOL0     C14007   9.854   3.753   4.870 -0.8947 -0.1091  0.2915
  845MOL0     H14008   9.394   3.973   4.749  1.3695  0.5890  0.2915
  845MOL0     H14009   9.198   3.970   4.634  1.1370 -0.5659  0.8253
  845MOL0     H14010   9.201   4.222   4.282  1.4054 -1.8743 -0.6503
  845MOL0     H14011   9.137   4.075   4.196  1.1739 -0.6571  0.1221
  845MOL0     H14012   8.980   4.253   4.387 -0.5376 -2.0081  0.6626
  845MOL0     H14013   8.976   4.255   4.200 -1.1190 -0.0909  0.0750
  845MOL0     H14014   8.880   4.040   4.209  0.5746  1.1698 -0.7729
  845MOL0     H14015   8.896   4.030   4.389  0.0206 -1.8628 -1.5154
  845MOL0     H14016   8.730   4.229   4.400 -3.6752 -0.4952  0.7970
  845MOL0     H14017   8.709   4.220   4.228 -2.8149 -0.9080  0.3741
  845MOL0     H14018   8.655   3.973   4.265  1.3173  0.7475 -0.3420
  845MOL0     H14019   8.642   4.014   4.432  1.9324 -0.1845 -0.8184
  845MOL0     H14020   8.499   4.120   4.187  2.6227  1.3819  0.2142
  845MOL0     H14021   8.421   4.019   4.315 -0.9972  0.5313 -1.0167
  845MOL0     H14022   8.535   4.303   4.359 -1.2419  2.0485 -0.8270
  845MOL0     H14023   8.374   4.280   4.306  2.0128 -0.1275 -2.0516
  845MOL0     H14024   8.423   4.309   4.567  0.3121 -0.0647 -1.5346
  845MOL0     H14025   8.485   4.141   4.560  0.3616  0.0239  0.4217
  845MOL0     H14026   8.141   4.304   4.416 -1.8336 -1.8166 -2.2245
  845MOL0     H14027   7.922   4.060   4.378 -0.0557  0.3116 -0.3772
  845MOL0     H14028   7.881   4.029   4.542 -0.3177 -0.0755  0.4363
  845MOL0     H14029   7.744   4.214   4.458  0.4016  2.0625 -1.4204
  845MOL0     H14030   7.886   4.295   4.390  0.1892  1.9526  0.6916
  845MOL0     H14031   7.926   4.360   4.637 -0.7360  1.9097 -0.0335
  845MOL0     H14032   7.761   4.288   4.674  0.4897 -0.5371  0.3465
  845MOL0     H14033   7.770   4.536   4.649  0.2151  0.6787 -1.0674
  845MOL0     H14034   7.649   4.440   4.564 -0.7415 -0.8270 -0.5135
  845MOL0     H14035   7.985   4.565   4.643  1.1612  0.7222  0.0683
  845MOL0     H14036   8.181   4.662   4.732  4.0837  2.4496  1.2824
  845MOL0     H14037   8.261   4.506   4.701 -3.3034  0.1439  2.9630
  845MOL0     H14038   8.324   4.660   4.640  1.2159 -2.6504 -0.9759
  845MOL0     H14039   8.623   4.507   4.267  0.2282  0.3525  0.0391
  845MOL0     H14040   8.866   4.544   4.275 -0.7963  0.1947 -0.4240
  845MOL0     H14041   9.056   4.735   4.646  3.1563 -0.1687  3.1611
  845MOL0     H14042   9.025   4.561   4.669  2.5319  1.0318  1.5957
  845MOL0     H14043   9.236   4.505   4.587 -2.5730 -0.5581  3.7537
  845MOL0     H14044   9.237   4.638   4.482 -0.8377  0.9524 -0.2164
  845MOL0     H14045   9.278   4.655   4.785  0.5621 -1.5403 -0.7801
  845MOL0     H14046   9.264   4.793   4.689 -0.8326  0.3674  1.3771
  845MOL0     H14047   9.455   4.563   4.649 -1.2789  0.0089 -0.1841
  845MOL0     H14048   9.476   4.706   4.549  3.9272  0.3799  0.1115
  845MOL0     H14049   9.509   4.860   4.713 -0.8828 -0.0845 -0.0456
  845MOL0     H14050   9.638   4.724   4.710 -0.2164 -0.4825  0.0067
  845MOL0     H14051   9.432   4.784   4.922  2.5004  1.8858  3.9082
  845MOL0     H14052   9.495   4.624   4.896  0.7619 -1.2180 -4.6861
  845MOL0     H14053   9.679   4.885   4.913 -0.2795  2.5474  3.0751
  845MOL0     H14054   9.732   4.719   4.920  0.6256 -0.1162  0.9757
  845MOL0     H14055   9.715   4.823   5.131  0.0534  0.0753  1.0680
  845MOL0     H14056   9.624   4.677   5.138  0.3434 -0.7291 -1.8058
  845MOL0     H14057   8.812   4.696   4.671 -2.5453 -1.0006  1.2848
  845MOL0     H14058   8.569   4.663   4.656 -0.7479 -0.7165 -0.1102
  845MOL0     H14059   8.158   4.564   4.183 -0.1760  0.0156 -0.0109
  845MOL0     H14060   7.927   4.553   4.217  1.0848 -1.3864 -0.3206
  845MOL0     H14061   9.398   4.057   4.260  1.4146 -1.7103 -0.5214
  845MOL0     H14062   9.615   4.013   4.396 -0.1824  0.8663  0.8846
  845MOL0     H14063   9.912   4.043   4.695  0.7830  0.6381  0.3888
  845MOL0     H14064  10.130   4.014   4.810 -0.5483  1.7713  1.6991
  845MOL0     H14065  10.408   3.844   4.951  0.4185  1.1306 -2.2212
  845MOL0     H14066  10.315   3.963   4.861 -1.4427 -1.3404 -2.2206
  845MOL0     H14067  10.194   4.029   5.060  0.6460  0.6847  0.4827
  845MOL0     H14068  10.366   4.062   5.068  1.3070 -1.6859 -2.1900
  845MOL0     H14069  10.213   3.849   5.218 -2.3059  2.7441  3.0944
  845MOL0     H14070  10.280   3.980   5.302 -0.0316 -0.0535 -0.0612
  845MOL0     H14071  10.509   3.900   5.212  1.9494 -0.9681  1.4839
  845MOL0     H14072  10.426   3.738   5.185  0.7423  0.0976  1.5987
  845MOL0     H14073  10.454   3.696   5.581  1.9753  1.7462  0.5865
  845MOL0     H14074  10.013   3.646   4.975 -1.8221 -0.5528 -0.3552
  845MOL0     H14075   9.774   3.685   4.895  0.4277 -1.6089  0.6189
  846MOL0     O14076  10.272   2.350   3.076  0.3561  0.3363  0.0946
  846MOL0     C14077  10.303   2.450   3.009  0.0354 -0.4089  0.0862
  846MOL0     O14078  10.223   2.552   2.980  0.0822 -0.0586  0.1848
  846MOL0     C14079  10.091   2.519   2.984 -0.4026 -0.0824 -0.3399
  846MOL0     C14080  10.034   2.430   2.884 -0.0272  1.0130 -0.0089
  846MOL0     C14081   9.894   2.393   2.892 -0.6361  0.5856  0.1994
  846MOL0     C14082   9.813   2.429   2.996 -0.1377  0.7045 -0.0463
  846MOL0     O14083   9.682   2.385   3.021  0.1476  0.5862 -0.2648
  846MOL0     C14084   9.614   2.303   2.922  0.5754 -0.2182  0.2306
  846MOL0     C14085   9.470   2.288   2.965  0.0704  0.5491 -0.0963
  846MOL0     C14086   9.379   2.413   2.962  0.8613 -0.4097  0.4152
  846MOL0     C14087   9.280   2.389   2.842 -0.1062  0.1496  0.4934
  846MOL0     C14088   9.191   2.511   2.818  0.5035  0.1034 -0.0000
  846MOL0     C14089   9.061   2.521   2.897  0.0427  0.1986 -0.3973
  846MOL0     C14090   8.973   2.635   2.860  0.0862 -0.3521 -0.5775
  846MOL0     C14091   8.828   2.602   2.897  0.3871  0.0021  0.5708
  846MOL0     N14092   8.733   2.715   2.892 -0.8619  0.4064 -1.0972
  846MOL0     C14093   8.707   2.778   2.775 -0.3677 -0.6988  0.0852
  846MOL0     C14094   8.613   2.869   2.803 -0.4358 -1.3336 -0.8371
  846MOL0     C14095   8.546   2.970   2.699 -0.0129 -0.8223 -0.1901
  846MOL0     C14096   8.399   2.983   2.717 -0.1898 -0.6456  0.2022
  846MOL0     C14097   8.316   2.860   2.723 -0.6760  0.6155  0.1983
  846MOL0     C14098   8.309   2.791   2.585  0.4746  0.0304  0.0436
  846MOL0     O14099   8.249   2.659   2.591  0.2420 -1.0194 -0.6485
  846MOL0     C14100   8.112   2.649   2.599  0.2168  0.3020 -0.7376
  846MOL0     C14101   8.053   2.519   2.617  0.7191 -0.2420  0.3324
  846MOL0     C14102   7.911   2.498   2.608 -0.1170  0.4209 -0.3100
  846MOL0     C14103   7.864   2.356   2.606  0.0744 -0.0708  0.4254
  846MOL0     C14104   7.825   2.610   2.595 -0.0740 -0.0490  0.0582
  846MOL0     C14105   7.678   2.611   2.619  0.4000 -0.4850  0.5586
  846MOL0     O14106   7.620   2.734   2.596  0.3747 -0.3303 -0.3351
  846MOL0     C14107   7.491   2.752   2.640  0.0535  0.1129  1.0613
  846MOL0     C14108   7.375   2.701   2.574 -0.0279 -0.0646 -0.0300
  846MOL0     C14109   7.243   2.737   2.619  0.1117  0.0991  0.5815
  846MOL0     C14110   7.229   2.814   2.728 -0.4630  0.4699  0.6108
  846MOL0     O14111   7.097   2.849   2.757 -0.0482  0.3022  0.0654
  846MOL0     C14112   7.070   2.917   2.876  0.3519  0.1279 -0.0255
  846MOL0     C14113   6.916   2.937   2.902  0.4236  0.3989 -0.3381
  846MOL0     C14114   6.835   3.013   2.789 -0.9756  0.9329 -0.0800
  846MOL0     C14115   6.696   3.026   2.837  0.1803  0.9910 -0.0495
  846MOL0     C14116   6.625   3.130   2.747  1.0737  0.3160 -0.1381
  846MOL0     C14117   6.472   3.097   2.737 -0.3152 -0.5114 -0.3175
  846MOL0     C14118   6.416   3.205   2.646  0.1992  0.1183  0.4548
  846MOL0     C14119   6.274   3.235   2.673  0.1210 -0.1235  0.0089
  846MOL0    Cl14120   6.246   3.298   2.832  0.4613  0.1882 -0.1494
  846MOL0     C14121   7.345   2.851   2.800  0.0646 -0.4218  0.3542
  846MOL0     C14122   7.474   2.813   2.762 -0.5596 -0.5598  0.5846
  846MOL0     O14123   7.626   2.518   2.679 -0.5192 -0.2373 -0.0351
  846MOL0     C14124   7.888   2.730   2.567  0.4401 -0.1970  0.2076
  846MOL0     C14125   8.025   2.757   2.579 -0.3443 -0.2980 -0.1184
  846MOL0     N14126   8.589   2.864   2.946  0.1546  0.1468  0.1054
  846MOL0     N14127   8.667   2.775   2.993 -0.0061  0.6622  0.1878
  846MOL0     C14128   9.865   2.509   3.090  0.6417 -0.3008 -0.3751
  846MOL0     C14129   9.998   2.564   3.088  0.2799  0.3725 -0.6009
  846MOL0     C14130  10.454   2.453   2.979  0.1693  1.1421  0.1442
  846MOL0     C14131  10.538   2.398   3.074  0.3127  0.3025  0.5142
  846MOL0     C14132  10.675   2.393   3.048 -0.4216  0.0482  0.2275
  846MOL0     C14133  10.732   2.467   2.944  0.1642  0.1715 -0.4816
  846MOL0     O14134  10.868   2.444   2.933 -0.0868  0.5291 -0.7381
  846MOL0     C14135  10.895   2.390   2.799 -0.2985  0.3617 -0.6433
  846MOL0     C14136  10.993   2.273   2.810 -0.0466  0.5643  0.0413
  846MOL0     C14137  10.923   2.142   2.839  1.1130 -0.4770  0.2619
  846MOL0     C14138  11.013   2.054   2.929  0.3487 -0.0810 -0.2258
  846MOL0     C14139  11.149   2.044   2.880 -0.1248  0.3138 -0.8362
  846MOL0     C14140  11.263   2.035   2.843  0.6143  0.3050 -0.7921
  846MOL0     C14141  10.643   2.534   2.853 -0.7104 -0.6539  0.1486
  846MOL0     C14142  10.508   2.520   2.872 -0.3197  1.5472  0.0294
  846MOL0     H14143  10.107   2.398   2.810 -0.6769  3.2639 -1.7435
  846MOL0     H14144   9.858   2.321   2.819  1.8636 -1.0217  0.4387
  846MOL0     H14145   9.618   2.355   2.825  0.6163  1.6319  1.1888
  846MOL0     H14146   9.661   2.204   2.918 -1.1327 -1.0222 -0.9335
  846MOL0     H14147   9.432   2.210   2.899 -1.2741  0.4917  0.7025
  846MOL0     H14148   9.472   2.244   3.065 -0.9621  1.4492  0.3381
  846MOL0     H14149   9.332   2.431   3.059  2.6778 -2.2880  1.7620
  846MOL0     H14150   9.441   2.501   2.940 -1.3302  1.5687  1.7303
  846MOL0     H14151   9.335   2.376   2.749  0.2851  2.6279  0.2995
  846MOL0     H14152   9.229   2.298   2.876  1.5667 -1.1738 -0.4278
  846MOL0     H14153   9.246   2.604   2.835 -0.0351  0.2410  1.0407
  846MOL0     H14154   9.152   2.498   2.717 -1.8458 -1.7569  1.0563
  846MOL0     H14155   9.005   2.431   2.871  1.7558 -0.4813 -2.0375
  846MOL0     H14156   9.084   2.514   3.003  0.3634  3.6144 -0.1523
  846MOL0     H14157   8.986   2.730   2.913  0.0732 -0.0082 -1.1748
  846MOL0     H14158   8.988   2.661   2.755  0.9384 -0.5933 -0.5198
  846MOL0     H14159   8.813   2.557   2.996  1.2060  0.1627  0.7817
  846MOL0     H14160   8.793   2.526   2.827 -3.4479 -2.8511  4.9683
  846MOL0     H14161   8.768   2.768   2.686 -0.6666  1.0531 -0.3640
  846MOL0     H14162   8.592   3.068   2.711  2.1211 -1.8691  0.6199
  846MOL0     H14163   8.583   2.932   2.603  3.8431 -0.3001  0.9130
  846MOL0     H14164   8.359   3.044   2.636 -3.8728  0.2732  2.4920
  846MOL0     H14165   8.374   3.032   2.812  1.9298 -0.9710  0.9939
  846MOL0     H14166   8.219   2.890   2.765  0.2888  4.7148 -0.0616
  846MOL0     H14167   8.362   2.798   2.801 -2.8382 -1.1834  0.1413
  846MOL0     H14168   8.410   2.776   2.545  0.0157 -1.4769 -0.6142
  846MOL0     H14169   8.260   2.863   2.520 -2.0057 -2.7495 -1.4007
  846MOL0     H14170   8.110   2.427   2.627 -0.0296 -1.2904 -3.4270
  846MOL0     H14171   7.802   2.333   2.694 -0.2552 -1.0315 -0.0445
  846MOL0     H14172   7.813   2.333   2.513  2.8030 -1.7059 -0.8032
  846MOL0     H14173   7.949   2.287   2.609  0.7790  0.5387 -2.7789
  846MOL0     H14174   7.398   2.644   2.485  0.8956  0.5600 -0.2002
  846MOL0     H14175   7.151   2.708   2.569 -0.6483  0.0534  1.9489
  846MOL0     H14176   7.114   2.848   2.950  0.2921 -1.6204 -1.5473
  846MOL0     H14177   7.118   3.015   2.878 -1.6361  1.2731 -2.8130
  846MOL0     H14178   6.884   2.833   2.904 -1.2449  0.8123 -2.5626
  846MOL0     H14179   6.897   2.974   3.004 -2.6941  0.2843 -0.7925
  846MOL0     H14180   6.839   2.950   2.699 -3.6840  1.1329 -0.4198
  846MOL0     H14181   6.881   3.110   2.772 -2.6550  1.8128  0.1826
  846MOL0     H14182   6.644   2.931   2.852  0.2047  0.8294 -0.9576
  846MOL0     H14183   6.706   3.069   2.937 -2.2839  1.4555  0.0582
  846MOL0     H14184   6.667   3.114   2.647 -2.9881  1.7689 -2.3111
  846MOL0     H14185   6.644   3.231   2.782  0.2166  0.8027 -1.0380
  846MOL0     H14186   6.472   3.002   2.683  5.3074 -0.7032 -0.6387
  846MOL0     H14187   6.432   3.098   2.838  2.8478 -1.6440  1.0971
  846MOL0     H14188   6.436   3.161   2.547  1.3346 -1.3646  1.2917
  846MOL0     H14189   6.467   3.301   2.658  0.7546 -0.2628  1.2032
  846MOL0     H14190   6.214   3.144   2.668  0.0185 -0.3279  3.0313
  846MOL0     H14191   6.227   3.297   2.596 -0.6228 -0.0291  0.5290
  846MOL0     H14192   7.337   2.909   2.892  0.7092 -1.5889  1.1767
  846MOL0     H14193   7.557   2.841   2.826  0.6690 -0.1942 -1.0834
  846MOL0     H14194   7.829   2.820   2.548 -0.1434 -0.6317 -0.0646
  846MOL0     H14195   8.064   2.859   2.579 -1.1829  0.0429  0.8357
  846MOL0     H14196   9.811   2.531   3.181 -0.9659  4.2758 -2.1554
  846MOL0     H14197  10.023   2.623   3.176 -0.9242  0.1730 -0.0954
  846MOL0     H14198  10.499   2.339   3.157  0.7015 -1.9435 -0.8268
  846MOL0     H14199  10.745   2.336   3.107  1.9422  0.3389 -2.0947
  846MOL0     H14200  10.810   2.353   2.741 -1.1224  0.0055  0.7261
  846MOL0     H14201  10.943   2.474   2.748 -0.4323  2.1464  1.9430
  846MOL0     H14202  11.065   2.293   2.890 -0.9963  0.1305  1.0173
  846MOL0     H14203  11.044   2.265   2.713 -0.3338  3.1290 -0.4014
  846MOL0     H14204  10.890   2.084   2.753  2.3390 -1.0130  0.1447
  846MOL0     H14205  10.824   2.171   2.877 -0.0042 -0.2407 -2.5828
  846MOL0     H14206  10.971   1.954   2.940 -2.2918  1.1394  2.3781
  846MOL0     H14207  11.016   2.093   3.031 -2.9626  1.3453 -0.5489
  846MOL0     H14208  11.367   2.030   2.815  0.5896  0.7036 -0.9666
  846MOL0     H14209  10.672   2.601   2.773 -2.0955 -0.3397 -0.1270
  846MOL0     H14210  10.433   2.563   2.806  0.9930  1.5560 -1.5348
  847MOL0     O14211   8.138   9.739   2.268 -0.3334  0.2275  0.0176
  847MOL0     C14212   8.216   9.647   2.295 -0.9170 -0.8517  0.7906
  847MOL0     O14213   8.196   9.549   2.384  0.4347 -0.1158  0.2396
  847MOL0     C14214   8.083   9.548   2.468 -0.7795  0.1772  0.2816
  847MOL0     C14215   7.960   9.515   2.410  0.2577  0.1214 -0.4983
  847MOL0     C14216   7.847   9.526   2.495 -0.3419  0.0084  0.1982
  847MOL0     C14217   7.861   9.566   2.632 -0.1236 -0.5173 -0.8702
  847MOL0     O14218   7.755   9.583   2.718 -1.0869  0.5835  0.1717
  847MOL0     C14219   7.764   9.661   2.839  0.5502 -0.4495  0.3755
  847MOL0     C14220   7.629   9.646   2.902 -0.5028  0.5174  0.8352
  847MOL0     C14221   7.521   9.698   2.812  0.4297  0.1334 -0.1641
  847MOL0     C14222   7.383   9.717   2.886 -0.1892 -0.2043  0.4880
  847MOL0     C14223   7.377   9.835   2.985 -0.2786 -0.2168  0.4320
  847MOL0     C14224   7.248   9.820   3.065  0.0694 -0.6861 -0.9457
  847MOL0     C14225   7.213   9.953   3.134 -0.1644  0.1073 -0.2825
  847MOL0     C14226   7.072   9.972   3.191  0.7136  0.2378  0.4192
  847MOL0     N14227   6.967   9.943   3.095  0.2245  0.1101 -0.3050
  847MOL0     C14228   6.955  10.004   2.977 -0.3413 -1.0766  0.7373
  847MOL0     C14229   6.839   9.963   2.931  0.6715 -0.7627 -0.3314
  847MOL0     C14230   6.759  10.034   2.815 -0.3197  0.3579 -0.4289
  847MOL0     C14231   6.664  10.149   2.867 -0.4735  0.4861  0.5899
  847MOL0     C14232   6.556  10.075   2.949  0.8695  0.0885  0.1209
  847MOL0     C14233   6.428  10.151   2.963  0.3405  0.5292  0.4389
  847MOL0     O14234   6.349  10.098   3.075  0.5038  0.2661  0.2976
  847MOL0     C14235   6.216  10.134   3.095  0.4956  0.4483  0.2704
  847MOL0     C14236   6.152  10.090   3.207  0.0231  0.2305  0.3541
  847MOL0     C14237   6.013  10.109   3.230  0.2347  0.2822 -0.3861
  847MOL0     C14238   5.961  10.054   3.364 -0.2457  1.0642  0.0508
  847MOL0     C14239   5.930  10.168   3.127  0.0210  0.0648 -0.3708
  847MOL0     C14240   5.780  10.187   3.138  0.0730 -0.4103 -0.4061
  847MOL0     O14241   5.722  10.245   3.031 -0.5927  0.0034  0.3498
  847MOL0     C14242   5.608  10.315   3.060  0.4784 -0.2589 -0.0165
  847MOL0     C14243   5.515  10.324   2.961  1.1105  0.1941  0.2729
  847MOL0     C14244   5.398  10.402   2.981  0.2522 -0.2401 -0.0347
  847MOL0     C14245   5.382  10.494   3.088  0.3676 -0.7075 -0.6518
  847MOL0     O14246   5.256  10.555   3.115  0.2117  0.1824 -0.3295
  847MOL0     C14247   5.215  10.657   3.025 -0.0606 -0.8341 -0.3276
  847MOL0     C14248   5.107  10.613   2.930  0.6070 -0.0472  0.6619
  847MOL0     C14249   4.989  10.551   2.997  0.1098  0.3051  0.5872
  847MOL0     C14250   4.853  10.571   2.927  0.3808 -0.6850 -0.5322
  847MOL0     C14251   4.738  10.524   3.007 -1.0660 -0.4062 -0.4614
  847MOL0     C14252   4.605  10.573   2.955  0.0461  0.1139  0.0313
  847MOL0     C14253   4.484  10.511   3.017  0.3539  0.3285  0.3965
  847MOL0     C14254   4.361  10.559   2.928  0.9750 -0.2279 -0.2572
  847MOL0    Cl14255   4.217  10.494   2.986 -0.1838 -0.2380  0.5016
  847MOL0     C14256   5.483  10.495   3.187  0.3601  0.7250  0.3443
  847MOL0     C14257   5.591  10.407   3.165 -0.5059 -0.3630  0.4690
  847MOL0     O14258   5.720  10.156   3.237 -0.7319 -0.1369 -0.4624
  847MOL0     C14259   5.999  10.205   3.007 -0.1218 -0.4238  0.2285
  847MOL0     C14260   6.137  10.196   2.997 -0.6973  0.2226  0.2389
  847MOL0     N14261   6.791   9.857   3.015 -0.4856 -0.8012 -1.1996
  847MOL0     N14262   6.857   9.867   3.128 -0.8675 -0.2553  0.3362
  847MOL0     C14263   7.994   9.586   2.681  0.5326 -0.3472  0.7530
  847MOL0     C14264   8.098   9.584   2.596  0.1430  0.2187 -0.2418
  847MOL0     C14265   8.347   9.640   2.223 -0.3495 -0.0056 -0.2810
  847MOL0     C14266   8.454   9.545   2.256 -0.3335  0.1367  0.5776
  847MOL0     C14267   8.571   9.554   2.182 -0.1626  0.3930 -0.2202
  847MOL0     C14268   8.595   9.646   2.076  0.5932 -0.0416 -0.4296
  847MOL0     O14269   8.710   9.633   2.000 -0.2567 -0.7061 -0.1812
  847MOL0     C14270   8.744   9.740   1.907 -0.0601 -0.0850  0.2074
  847MOL0     C14271   8.871   9.687   1.841 -0.2583  0.0199 -0.5228
  847MOL0     C14272   8.994   9.746   1.921 -0.1471  0.0379  0.0319
  847MOL0     C14273   9.112   9.692   1.842 -0.3810  0.4853 -0.4174
  847MOL0     C14274   9.238   9.752   1.878 -1.0114 -0.1750 -0.6373
  847MOL0     C14275   9.357   9.787   1.889  0.3241  0.3645  0.2137
  847MOL0     C14276   8.496   9.742   2.046 -1.1339 -0.8089 -0.1575
  847MOL0     C14277   8.376   9.738   2.117  0.0482 -0.2749 -0.4311
  847MOL0     H14278   7.963   9.486   2.305 -1.2396 -1.6162 -0.1171
  847MOL0     H14279   7.749   9.496   2.460 -1.1744  1.0129  1.5829
  847MOL0     H14280   7.838   9.614   2.906  0.5540  0.6934  1.1925
  847MOL0     H14281   7.794   9.764   2.821  0.0706 -0.5747 -1.2964
  847MOL0     H14282   7.602   9.541   2.913 -2.4748  0.8590 -0.1748
  847MOL0     H14283   7.623   9.692   3.001 -1.3381  0.8902  0.6227
  847MOL0     H14284   7.551   9.787   2.756 -0.3978  0.4357 -0.1465
  847MOL0     H14285   7.489   9.627   2.736 -2.4548 -0.5254  1.5131
  847MOL0     H14286   7.302   9.726   2.813 -0.2239 -0.9490  0.4293
  847MOL0     H14287   7.371   9.625   2.944  1.9663 -1.0421 -0.3132
  847MOL0     H14288   7.462   9.848   3.052  1.3301 -0.8427 -1.4071
  847MOL0     H14289   7.365   9.927   2.927 -1.9383  1.2366  2.8813
  847MOL0     H14290   7.162   9.786   3.007 -1.7215  1.4811  0.2904
  847MOL0     H14291   7.261   9.744   3.143  1.6245 -0.3736 -0.8770
  847MOL0     H14292   7.288   9.982   3.208 -0.7120 -0.2668  0.4339
  847MOL0     H14293   7.220  10.037   3.064 -0.8537 -2.7120 -4.0350
  847MOL0     H14294   7.072  10.078   3.217  0.3319  0.2776  0.2648
  847MOL0     H14295   7.046   9.912   3.279  0.0914 -1.1359 -0.6499
  847MOL0     H14296   7.019  10.081   2.934  0.8492 -1.0499  2.4607
  847MOL0     H14297   6.837  10.068   2.746  0.5087 -0.2557  0.1816
  847MOL0     H14298   6.700   9.953   2.771 -0.9324  1.0300 -0.8582
  847MOL0     H14299   6.612  10.180   2.776 -0.1176  0.2562  0.3072
  847MOL0     H14300   6.714  10.231   2.919 -1.0952  0.7825  0.7293
  847MOL0     H14301   6.605  10.063   3.046  1.1862  1.0739  0.0971
  847MOL0     H14302   6.533   9.976   2.909  1.9392 -1.6391  3.4544
  847MOL0     H14303   6.367  10.140   2.873  0.3266  0.4477  0.4579
  847MOL0     H14304   6.441  10.255   2.996  3.7081 -0.0968  1.5124
  847MOL0     H14305   6.217  10.039   3.277  0.6100  0.6406  0.1135
  847MOL0     H14306   6.034  10.069   3.443 -0.3110  2.9032 -0.1870
  847MOL0     H14307   5.884  10.124   3.398 -0.4346  0.2202  1.4487
  847MOL0     H14308   5.909   9.958   3.359  0.3689  0.7199  0.2469
  847MOL0     H14309   5.525  10.255   2.878 -0.0939 -0.0289  0.2965
  847MOL0     H14310   5.322  10.390   2.905  0.7523  0.8065 -0.7160
  847MOL0     H14311   5.172  10.740   3.080  0.1446  0.7118 -2.3963
  847MOL0     H14312   5.291  10.701   2.960 -0.2018 -0.6077 -0.3390
  847MOL0     H14313   5.073  10.697   2.870  1.0400 -0.0135  0.4546
  847MOL0     H14314   5.140  10.534   2.862 -0.4132 -0.0459  0.1480
  847MOL0     H14315   4.977  10.578   3.103  1.4296 -1.8705  1.3555
  847MOL0     H14316   5.021  10.447   2.998  1.2898  0.6557  0.8961
  847MOL0     H14317   4.835  10.679   2.938 -2.7060 -1.2829  1.5139
  847MOL0     H14318   4.851  10.546   2.820  0.6267  3.0547 -1.5774
  847MOL0     H14319   4.746  10.560   3.110 -0.3189 -2.5151  0.2771
  847MOL0     H14320   4.736  10.416   3.028 -0.2997  0.1732  3.2366
  847MOL0     H14321   4.606  10.682   2.965 -0.0607 -0.0807  2.6863
  847MOL0     H14322   4.608  10.552   2.847  0.7911 -0.9047  0.2389
  847MOL0     H14323   4.476  10.537   3.123 -0.2142 -2.2631  1.0583
  847MOL0     H14324   4.477  10.402   3.020 -1.7845  0.3931  4.0853
  847MOL0     H14325   4.384  10.535   2.824  1.7932  0.4338 -0.2358
  847MOL0     H14326   4.350  10.667   2.922  3.0880  0.0997  1.0480
  847MOL0     H14327   5.482  10.557   3.276 -0.1750 -2.2926  2.6403
  847MOL0     H14328   5.679  10.413   3.228 -0.4186 -1.4342  0.4562
  847MOL0     H14329   5.937  10.241   2.926 -1.6806  2.5879  2.5718
  847MOL0     H14330   6.185  10.227   2.905  2.4617 -2.1341  0.9050
  847MOL0     H14331   8.015   9.607   2.785 -2.3921  2.3552  0.9488
  847MOL0     H14332   8.200   9.611   2.622  0.7360 -0.2932 -1.9527
  847MOL0     H14333   8.440   9.460   2.321  0.3891  1.3902  2.4435
  847MOL0     H14334   8.647   9.479   2.198  0.0171  0.7807  0.8693
  847MOL0     H14335   8.665   9.749   1.833  0.0453  0.2319  0.1285
  847MOL0     H14336   8.761   9.831   1.966  1.1535  1.8147 -2.8185
  847MOL0     H14337   8.873   9.730   1.740 -3.3384  1.6252 -0.0374
  847MOL0     H14338   8.878   9.578   1.834  1.0979  0.1021 -0.7082
  847MOL0     H14339   9.014   9.721   2.025  4.7140  0.5926 -0.5400
  847MOL0     H14340   8.994   9.854   1.904  0.3820  0.1657  0.8128
  847MOL0     H14341   9.092   9.695   1.734 -0.8444  0.7164 -0.3301
  847MOL0     H14342   9.118   9.586   1.865  0.3430  0.9934  1.9116
  847MOL0     H14343   9.460   9.816   1.893  0.3181  0.4893 -0.3975
  847MOL0     H14344   8.507   9.821   1.972 -0.1842  0.0225  0.8516
  847MOL0     H14345   8.302   9.811   2.087  1.1512  0.9537 -0.2299
  848MOL0     O14346   0.961   4.056   1.170  0.1560  0.0295  0.2345
  848MOL0     C14347   0.869   4.110   1.110  0.4277  0.0158  0.2504
  848MOL0     O14348   0.868   4.234   1.049  0.9868 -0.3033  0.5284
  848MOL0     C14349   0.962   4.327   1.085 -0.1966  0.6377 -0.2337
  848MOL0     C14350   0.980   4.435   1.000 -0.6829 -0.3538  0.1078
  848MOL0     C14351   1.075   4.533   1.017 -0.5718  0.6839 -0.0935
  848MOL0     C14352   1.161   4.528   1.120  0.6691  0.0417  0.0950
  848MOL0     O14353   1.243   4.638   1.127  0.6501 -0.6360 -0.1875
  848MOL0     C14354   1.342   4.640   1.219  0.1244  0.7065 -0.7033
  848MOL0     C14355   1.460   4.733   1.173 -0.1752 -0.1199 -0.5723
  848MOL0     C14356   1.419   4.876   1.148  0.2535  0.5008 -0.8821
  848MOL0     C14357   1.520   4.959   1.060 -0.6068  0.4946 -0.1164
  848MOL0     C14358   1.484   5.109   1.064 -0.0665 -1.0581  0.6398
  848MOL0     C14359   1.583   5.192   0.969  0.7358 -0.1585 -0.4441
  848MOL0     C14360   1.551   5.343   0.995 -0.1034  0.9994 -0.9695
  848MOL0     C14361   1.654   5.423   0.915  0.3416  0.1037 -0.3576
  848MOL0     N14362   1.786   5.435   0.973  0.3067 -0.7870 -0.3649
  848MOL0     C14363   1.817   5.521   1.068  0.3010 -0.6269 -0.3090
  848MOL0     C14364   1.952   5.493   1.083 -0.0181  0.6219 -0.4612
  848MOL0     C14365   2.044   5.555   1.182 -1.2252  0.6130  0.1077
  848MOL0     C14366   1.978   5.649   1.293 -0.0355  0.7351 -0.6128
  848MOL0     C14367   1.940   5.576   1.410  0.4160  0.6609 -0.0487
  848MOL0     C14368   1.821   5.476   1.404  0.5869 -0.0488  0.0720
  848MOL0     O14369   1.700   5.552   1.378 -0.1118  0.4728 -0.6495
  848MOL0     C14370   1.581   5.477   1.377  0.8867 -0.4495  0.1605
  848MOL0     C14371   1.559   5.351   1.427 -0.2349 -0.2400  0.1078
  848MOL0     C14372   1.434   5.285   1.414  0.8770  0.2217  0.1226
  848MOL0     C14373   1.425   5.141   1.452 -0.5707  0.7901  0.1221
  848MOL0     C14374   1.321   5.366   1.366 -0.7239 -0.0877  0.4593
  848MOL0     C14375   1.185   5.316   1.349 -1.1530  0.2169  0.5786
  848MOL0     O14376   1.157   5.190   1.383  0.7543 -0.9258 -0.6261
  848MOL0     C14377   1.021   5.168   1.377  0.2943 -0.8737  0.0195
  848MOL0     C14378   0.932   5.213   1.477  0.0311 -0.4775 -0.0536
  848MOL0     C14379   0.795   5.210   1.454 -0.6673  0.2463  0.1174
  848MOL0     C14380   0.742   5.158   1.334 -0.6384 -0.3827  0.1859
  848MOL0     O14381   0.605   5.159   1.329  0.0061  0.9710  0.3269
  848MOL0     C14382   0.528   5.044   1.284 -0.0682 -0.2851  0.1302
  848MOL0     C14383   0.487   5.070   1.135  0.6435  0.0135 -0.0168
  848MOL0     C14384   0.410   4.943   1.091 -0.4770  0.3418 -0.4459
  848MOL0     C14385   0.316   4.973   0.975  0.4790  0.8798 -0.1419
  848MOL0     C14386   0.264   4.845   0.901  0.3467 -0.5790 -0.7313
  848MOL0     C14387   0.143   4.762   0.956  0.5810 -0.0250  0.0485
  848MOL0     C14388   0.122   4.635   0.875 -1.1067 -0.2784  0.6558
  848MOL0     C14389  -0.002   4.558   0.913 -0.1093 -0.1166 -0.1524
  848MOL0    Cl14390  -0.148   4.640   0.871  0.0430  0.3779 -0.2228
  848MOL0     C14391   0.825   5.100   1.242 -0.0176  0.4756 -0.4387
  848MOL0     C14392   0.964   5.111   1.261 -0.0641  0.6365 -0.6281
  848MOL0     O14393   1.103   5.400   1.316 -0.1392 -0.6425  0.0320
  848MOL0     C14394   1.348   5.505   1.330 -0.8799  0.4716 -0.0947
  848MOL0     C14395   1.478   5.553   1.328 -0.8955 -0.4272 -1.0166
  848MOL0     N14396   1.989   5.391   1.005 -0.4658 -0.4178  0.3098
  848MOL0     N14397   1.891   5.356   0.934 -0.3491  0.4515  0.0871
  848MOL0     C14398   1.154   4.419   1.218  0.1972 -0.3587  0.8584
  848MOL0     C14399   1.053   4.324   1.195  0.3271  0.0642 -0.4336
  848MOL0     C14400   0.737   4.046   1.093  1.1110 -0.0334  0.2132
  848MOL0     C14401   0.621   4.104   1.021  0.1250  0.1764  0.6293
  848MOL0     C14402   0.501   4.031   1.009  1.1949  0.2165 -0.7065
  848MOL0     C14403   0.501   3.901   1.061 -0.0136 -0.3375  0.5499
  848MOL0     O14404   0.390   3.823   1.070  0.0649  0.2445  0.6438
  848MOL0     C14405   0.261   3.867   1.013 -0.3861  0.3222 -0.1592
  848MOL0     C14406   0.153   3.759   1.004  0.0511  0.5657 -0.0934
  848MOL0     C14407   0.024   3.831   0.969  0.2913  0.1315 -0.5260
  848MOL0     C14408  -0.106   3.747   0.959 -0.5070  0.4220  0.4169
  848MOL0     C14409  -0.139   3.706   1.095  0.0222  0.1107 -0.9610
  848MOL0     C14410  -0.185   3.670   1.201  0.6966 -0.5348 -0.3724
  848MOL0     C14411   0.609   3.843   1.131  0.4350 -0.1753 -0.4430
  848MOL0     C14412   0.722   3.915   1.141  0.1122 -0.4482 -0.1790
  848MOL0     H14413   0.914   4.445   0.914 -0.0288  1.0388 -0.2545
  848MOL0     H14414   1.084   4.611   0.942 -0.0019 -0.0171 -0.7532
  848MOL0     H14415   1.304   4.693   1.307 -1.5642 -0.8694 -0.4117
  848MOL0     H14416   1.373   4.537   1.237  1.8770  1.5063  1.2244
  848MOL0     H14417   1.537   4.738   1.251 -0.4377 -0.5263 -0.2799
  848MOL0     H14418   1.492   4.698   1.075 -4.6619 -1.2380 -1.8694
  848MOL0     H14419   1.329   4.873   1.086  0.4414 -2.1545 -1.1202
  848MOL0     H14420   1.394   4.931   1.239  0.5313 -1.4588  0.4175
  848MOL0     H14421   1.619   4.949   1.105 -0.4843 -0.5236 -0.5646
  848MOL0     H14422   1.526   4.925   0.956 -0.7673  1.7105 -0.5373
  848MOL0     H14423   1.384   5.124   1.022 -0.3583 -1.8462  1.0506
  848MOL0     H14424   1.502   5.138   1.168  1.5262 -0.8174  0.3276
  848MOL0     H14425   1.681   5.151   0.995  1.0371 -0.9801 -2.6394
  848MOL0     H14426   1.565   5.170   0.863  3.4548  0.4499 -1.0871
  848MOL0     H14427   1.449   5.365   0.961  0.0928  2.2905 -0.7671
  848MOL0     H14428   1.562   5.367   1.101  1.2034 -0.3489 -0.7643
  848MOL0     H14429   1.612   5.523   0.909 -0.0535 -0.0439 -0.0876
  848MOL0     H14430   1.664   5.374   0.818 -1.6359 -0.5523 -0.2718
  848MOL0     H14431   1.757   5.591   1.125  0.8381 -1.8103  1.8237
  848MOL0     H14432   2.104   5.477   1.228 -2.2170 -1.5140 -1.9844
  848MOL0     H14433   2.115   5.621   1.130  0.4247 -1.0267  0.1579
  848MOL0     H14434   1.890   5.695   1.248 -1.0535  0.0828  0.6429
  848MOL0     H14435   2.044   5.733   1.317  1.8417 -0.4632 -1.3643
  848MOL0     H14436   1.917   5.645   1.492 -0.7398  1.6198 -1.1446
  848MOL0     H14437   2.021   5.513   1.448  0.3089  0.2630 -0.4758
  848MOL0     H14438   1.819   5.425   1.500  3.8781  0.8266  0.7301
  848MOL0     H14439   1.829   5.396   1.330 -1.5583  0.4559 -0.7941
  848MOL0     H14440   1.641   5.288   1.462 -0.7308 -0.8762  0.1458
  848MOL0     H14441   1.523   5.093   1.465 -2.0445 -2.2608  0.8824
  848MOL0     H14442   1.373   5.123   1.546 -0.6134  2.4268  0.4339
  848MOL0     H14443   1.371   5.091   1.371 -3.3801  1.4197  1.4738
  848MOL0     H14444   0.970   5.260   1.567 -0.2255  2.0157 -1.1443
  848MOL0     H14445   0.720   5.244   1.525  0.4249  2.1172  0.4482
  848MOL0     H14446   0.590   4.956   1.300 -1.8424 -1.2669  1.9724
  848MOL0     H14447   0.436   5.023   1.338 -1.3712 -2.6723 -2.7079
  848MOL0     H14448   0.418   5.155   1.131  1.4269  0.6013 -1.5412
  848MOL0     H14449   0.575   5.094   1.075  1.9933 -1.3668  1.3218
  848MOL0     H14450   0.351   4.916   1.179  1.7080 -1.1494  0.6475
  848MOL0     H14451   0.481   4.864   1.067 -0.3755  0.5793 -0.9574
  848MOL0     H14452   0.235   5.035   1.015 -0.8180  0.2035 -1.5752
  848MOL0     H14453   0.365   5.033   0.898  0.9491 -2.2689 -2.5501
  848MOL0     H14454   0.348   4.780   0.876  0.8386 -0.2907  0.1364
  848MOL0     H14455   0.220   4.881   0.807 -0.3652 -2.3339 -1.1154
  848MOL0     H14456   0.172   4.749   1.061  3.1017  1.4096 -0.3934
  848MOL0     H14457   0.058   4.830   0.947 -2.2010 -3.1678  0.6189
  848MOL0     H14458   0.205   4.570   0.905  0.5542 -0.2775 -3.2365
  848MOL0     H14459   0.123   4.656   0.767 -0.6612 -2.3407  0.2110
  848MOL0     H14460   0.002   4.534   1.020 -1.0090 -0.8284 -0.2630
  848MOL0     H14461   0.001   4.460   0.864 -0.2559  0.7865 -2.0405
  848MOL0     H14462   0.792   5.044   1.156 -2.3881  0.3465  0.4965
  848MOL0     H14463   1.035   5.060   1.197  0.6429  0.9920 -0.1413
  848MOL0     H14464   1.277   5.582   1.299  1.4148  2.2879 -1.0942
  848MOL0     H14465   1.502   5.652   1.291 -1.8347 -0.8516 -2.8830
  848MOL0     H14466   1.223   4.411   1.301  0.1445 -1.4837  0.8082
  848MOL0     H14467   1.054   4.246   1.270 -1.0216 -1.2174 -1.6994
  848MOL0     H14468   0.633   4.207   0.988  1.5699  0.1143  0.8685
  848MOL0     H14469   0.415   4.083   0.967  0.3460 -2.7941 -2.9764
  848MOL0     H14470   0.217   3.954   1.062 -1.2047 -0.5878  0.7584
  848MOL0     H14471   0.281   3.905   0.912 -0.6550  0.6609 -0.0876
  848MOL0     H14472   0.142   3.727   1.108 -0.5910  0.6070 -0.1456
  848MOL0     H14473   0.192   3.682   0.936  1.7407  0.9354  0.4130
  848MOL0     H14474   0.042   3.880   0.873 -1.8769  0.6468 -0.7284
  848MOL0     H14475   0.001   3.910   1.041 -0.1088 -0.3027 -0.1682
  848MOL0     H14476  -0.081   3.667   0.890 -0.3246  2.5370 -2.1283
  848MOL0     H14477  -0.182   3.811   0.913 -0.7665 -1.6172 -2.1894
  848MOL0     H14478  -0.228   3.632   1.291  1.0182  3.7325  1.8726
  848MOL0     H14479   0.600   3.742   1.170  2.7350 -0.0639  0.5621
  848MOL0     H14480   0.807   3.867   1.189  0.5538 -1.9069 -2.2997
  849MOL0     O14481   3.587   5.305  10.240  0.3460  0.4790 -0.3486
  849MOL0     C14482   3.535   5.336  10.141 -0.3165  0.0554  0.3295
  849MOL0     O14483   3.407   5.344  10.117  0.5364 -0.0291 -0.8104
  849MOL0     C14484   3.299   5.355  10.210 -0.1949  0.2132  1.0425
  849MOL0     C14485   3.317   5.380  10.346  0.6037 -0.5809 -0.2433
  849MOL0     C14486   3.205   5.396  10.431  0.1122  0.0165  0.3322
  849MOL0     C14487   3.072   5.384  10.368  0.6219 -0.7308 -0.2201
  849MOL0     O14488   2.956   5.387  10.444  0.1895 -0.4064  1.1209
  849MOL0     C14489   2.960   5.498  10.539  1.0034  0.1203 -0.0194
  849MOL0     C14490   2.813   5.510  10.593 -1.1425 -0.3425 -0.6596
  849MOL0     C14491   2.741   5.380  10.617  0.3727 -0.9690 -0.0457
  849MOL0     C14492   2.618   5.396  10.697  1.1291 -0.1307 -0.0557
  849MOL0     C14493   2.558   5.257  10.719 -0.2156  0.7635 -0.2343
  849MOL0     C14494   2.432   5.255  10.800  0.5822 -0.2361  0.1000
  849MOL0     C14495   2.312   5.330  10.732 -0.2879 -0.2245  0.6707
  849MOL0     C14496   2.181   5.337  10.806  0.6793 -0.0010 -0.7401
  849MOL0     N14497   2.060   5.373  10.726 -0.2276 -0.3052  0.0416
  849MOL0     C14498   2.009   5.287  10.645  0.0683 -0.5516  0.2002
  849MOL0     C14499   1.908   5.354  10.581  0.1663 -0.3844 -0.3119
  849MOL0     C14500   1.807   5.298  10.481  0.0118  0.1163  0.8018
  849MOL0     C14501   1.681   5.248  10.551 -0.7969  0.2145  0.1357
  849MOL0     C14502   1.589   5.365  10.583  0.1298  0.6229 -0.6530
  849MOL0     C14503   1.466   5.327  10.669  0.8175 -0.3823 -0.8821
  849MOL0     O14504   1.367   5.256  10.583  0.0930  0.0065 -0.2265
  849MOL0     C14505   1.263   5.334  10.529  0.0161 -0.3278 -0.7416
  849MOL0     C14506   1.227   5.472  10.537  0.3769  1.3410 -0.8273
  849MOL0     C14507   1.119   5.523  10.478  1.4579 -0.0729 -1.0156
  849MOL0     C14508   1.102   5.673  10.480 -0.2419  0.0141 -0.5987
  849MOL0     C14509   1.027   5.432  10.401 -0.4177 -0.2526 -0.4497
  849MOL0     C14510   0.898   5.477  10.332  0.1017  0.4565 -0.3037
  849MOL0     O14511   0.803   5.375  10.306 -0.1208 -0.1339 -0.2026
  849MOL0     C14512   0.697   5.425  10.241 -0.4697  0.5411 -0.4317
  849MOL0     C14513   0.703   5.478  10.111  0.0987 -0.1878 -0.8367
  849MOL0     C14514   0.592   5.513  10.036 -0.2928  0.3204 -0.0648
  849MOL0     C14515   0.462   5.484  10.090 -0.1811 -0.5112 -0.1699
  849MOL0     O14516   0.360   5.507  10.002  0.0165  0.3700  0.3778
  849MOL0     C14517   0.283   5.620  10.043  0.3366  0.5030  0.1443
  849MOL0     C14518   0.364   5.745  10.018  0.4925 -0.2643  0.6403
  849MOL0     C14519   0.389   5.767   9.871 -0.5741 -0.4140  0.0767
  849MOL0     C14520   0.477   5.894   9.845  0.0612 -1.5438 -0.6489
  849MOL0     C14521   0.514   5.911   9.699  0.1549  0.3375  0.2826
  849MOL0     C14522   0.605   6.037   9.686  0.2486 -0.8152  0.6278
  849MOL0     C14523   0.658   6.042   9.540 -0.6637  0.4861  0.9381
  849MOL0     C14524   0.754   6.158   9.522 -0.0955 -0.4312 -0.0795
  849MOL0    Cl14525   0.694   6.316   9.573  0.2317 -0.5066 -0.5867
  849MOL0     C14526   0.455   5.431  10.222  0.7920 -0.9515  0.0949
  849MOL0     C14527   0.565   5.409  10.299 -0.1026 -0.4526 -0.2432
  849MOL0     O14528   0.881   5.598  10.314 -0.3042  0.3945 -0.5420
  849MOL0     C14529   1.059   5.294  10.400  0.3799  0.0403 -0.5087
  849MOL0     C14530   1.178   5.246  10.451  0.1775  0.1781  0.1699
  849MOL0     N14531   1.907   5.483  10.638 -0.2745  0.3598 -0.3405
  849MOL0     N14532   1.997   5.489  10.724  0.0133 -0.6522  0.1892
  849MOL0     C14533   3.059   5.348  10.235 -0.0867  0.3029 -0.5289
  849MOL0     C14534   3.173   5.339  10.158 -0.0555 -0.0518  0.6477
  849MOL0     C14535   3.624   5.348  10.021 -0.2628  0.0433 -0.7720
  849MOL0     C14536   3.748   5.402  10.035  0.1519 -0.3022 -0.5002
  849MOL0     C14537   3.831   5.426   9.922 -0.5842 -0.1230  0.2613
  849MOL0     C14538   3.787   5.402   9.790 -0.0179 -1.0831  0.3397
  849MOL0     O14539   3.877   5.410   9.683  0.3523 -1.1555  0.8195
  849MOL0     C14540   3.967   5.526   9.684  0.3883  0.3909 -0.6871
  849MOL0     C14541   3.975   5.599   9.543 -0.4684 -0.3900 -0.2764
  849MOL0     C14542   4.089   5.536   9.467 -0.1444 -0.4491  0.3588
  849MOL0     C14543   4.118   5.610   9.326 -0.2337 -0.6215  0.7193
  849MOL0     C14544   4.240   5.556   9.276 -0.5171 -0.1039 -0.2461
  849MOL0     C14545   4.331   5.486   9.240  0.0711  0.1564 -0.0834
  849MOL0     C14546   3.660   5.342   9.780 -0.1656 -0.1027  0.0535
  849MOL0     C14547   3.572   5.320   9.892 -0.1817 -0.4672  1.3476
  849MOL0     H14548   3.415   5.404  10.385 -0.4493  0.1945  2.1227
  849MOL0     H14549   3.214   5.408  10.538 -1.7109 -1.1797  0.6731
  849MOL0     H14550   3.029   5.472  10.620 -2.2254 -3.0930  2.0272
  849MOL0     H14551   2.995   5.585  10.483  0.6772 -0.8968 -1.9028
  849MOL0     H14552   2.823   5.576  10.679  1.7828  1.3721 -2.1834
  849MOL0     H14553   2.746   5.566  10.527 -1.1640  0.9151  0.3890
  849MOL0     H14554   2.708   5.335  10.523  0.1684 -0.7474 -0.0826
  849MOL0     H14555   2.808   5.315  10.674  0.5362 -0.1298  0.7374
  849MOL0     H14556   2.636   5.441  10.795 -0.6613 -1.8669  1.1389
  849MOL0     H14557   2.554   5.461  10.637 -0.9251 -0.2260  1.8652
  849MOL0     H14558   2.537   5.223  10.617 -1.2292 -1.5618  0.6784
  849MOL0     H14559   2.627   5.191  10.771  0.5721  0.5120 -1.5375
  849MOL0     H14560   2.407   5.153  10.832  1.4655 -1.5174 -2.8315
  849MOL0     H14561   2.443   5.305  10.896 -1.4680  0.8622 -0.1714
  849MOL0     H14562   2.341   5.435  10.728 -0.4471 -0.2185 -0.6137
  849MOL0     H14563   2.306   5.297  10.628 -1.2289 -2.1277  1.2820
  849MOL0     H14564   2.199   5.421  10.874  0.4881 -0.2240 -0.4149
  849MOL0     H14565   2.166   5.244  10.860 -0.1993  0.7924  0.4197
  849MOL0     H14566   2.048   5.188  10.624  2.5324  0.3006  0.4408
  849MOL0     H14567   1.782   5.369  10.402 -3.2419 -1.8238 -0.1347
  849MOL0     H14568   1.851   5.210  10.432  0.4428  0.3096  0.8397
  849MOL0     H14569   1.710   5.196  10.643  1.1811  1.2909  0.1845
  849MOL0     H14570   1.627   5.183  10.482  1.4241  0.0518 -1.5559
  849MOL0     H14571   1.563   5.416  10.489 -1.2893  0.7926 -0.1996
  849MOL0     H14572   1.645   5.440  10.640  0.3948  1.5179 -2.0259
  849MOL0     H14573   1.420   5.414  10.718 -0.4311 -0.6445 -1.5377
  849MOL0     H14574   1.501   5.264  10.752 -0.9853  1.1138  1.1378
  849MOL0     H14575   1.293   5.529  10.602  1.6437 -1.1095  0.1509
  849MOL0     H14576   1.187   5.724  10.528  0.5011 -3.5298  2.2902
  849MOL0     H14577   1.100   5.707  10.376  0.3762  2.3454  0.0730
  849MOL0     H14578   1.012   5.693  10.539  0.8777 -1.5094  1.8031
  849MOL0     H14579   0.805   5.492  10.074 -0.9310  2.0621 -3.0742
  849MOL0     H14580   0.611   5.539   9.932  0.3974 -1.1610 -0.3441
  849MOL0     H14581   0.190   5.616   9.986 -0.7773 -0.7088  1.9560
  849MOL0     H14582   0.254   5.612  10.148 -1.3246 -2.4068 -0.4377
  849MOL0     H14583   0.310   5.835  10.047  0.8262  1.0751 -2.4839
  849MOL0     H14584   0.456   5.749  10.077 -0.2326 -3.2571  2.1445
  849MOL0     H14585   0.292   5.776   9.822 -0.6305 -0.8447  0.1078
  849MOL0     H14586   0.447   5.684   9.829  1.6994  1.2145 -0.1550
  849MOL0     H14587   0.425   5.983   9.881  0.7772 -1.2406 -0.3468
  849MOL0     H14588   0.569   5.883   9.903 -0.2782 -0.9941  0.0122
  849MOL0     H14589   0.425   5.917   9.636  0.0030  0.2721  0.4917
  849MOL0     H14590   0.575   5.823   9.676 -0.6324 -0.0988 -0.1491
  849MOL0     H14591   0.552   6.124   9.724  0.3488 -0.1589 -0.6840
  849MOL0     H14592   0.690   6.033   9.755  0.2088  2.1683  0.9809
  849MOL0     H14593   0.571   6.059   9.476 -0.7077  1.3713  1.2208
  849MOL0     H14594   0.707   5.946   9.521  2.4457  1.9121  1.1450
  849MOL0     H14595   0.784   6.154   9.417  0.3229  0.2253  0.0053
  849MOL0     H14596   0.847   6.147   9.580 -0.9739 -1.2423  1.2269
  849MOL0     H14597   0.356   5.407  10.259  2.1371 -2.4374  3.0418
  849MOL0     H14598   0.561   5.347  10.388 -0.8221 -0.5821 -0.3570
  849MOL0     H14599   0.993   5.226  10.348 -1.4344  1.8206 -0.6510
  849MOL0     H14600   1.206   5.141  10.449 -1.3640 -0.2554 -0.7086
  849MOL0     H14601   2.958   5.343  10.196  0.0668  0.7739 -0.9955
  849MOL0     H14602   3.162   5.321  10.051  0.1228  0.4426  0.5469
  849MOL0     H14603   3.780   5.429  10.135 -0.7580 -1.2695  0.0627
  849MOL0     H14604   3.932   5.465   9.929 -0.7668  0.5779 -0.7274
  849MOL0     H14605   3.936   5.605   9.754  2.2392  2.0221 -1.6383
  849MOL0     H14606   4.065   5.487   9.713  1.1225  0.3938 -2.9868
  849MOL0     H14607   4.003   5.703   9.560  1.6905 -0.8594 -0.6999
  849MOL0     H14608   3.882   5.598   9.486 -0.1767 -0.2237 -0.7635
  849MOL0     H14609   4.074   5.431   9.442 -3.9695  0.2632 -0.9751
  849MOL0     H14610   4.181   5.549   9.526 -0.2200 -0.4322  0.4730
  849MOL0     H14611   4.124   5.719   9.329  1.2813 -0.6394 -0.5097
  849MOL0     H14612   4.041   5.590   9.250  3.3955 -1.3252 -3.1243
  849MOL0     H14613   4.411   5.420   9.212  1.6675  2.5093 -1.4542
  849MOL0     H14614   3.625   5.323   9.679  0.7908 -2.6342  0.1345
  849MOL0     H14615   3.471   5.283   9.880 -0.1595 -0.6812  1.7844
  850MOL0     O14616   9.934   3.136   5.903  0.0366 -0.2023  0.2460
  850MOL0     C14617   9.965   3.039   5.974  0.3727  0.2553  0.5025
  850MOL0     O14618   9.900   2.917   5.964 -0.2792  0.2464 -0.9702
  850MOL0     C14619   9.805   2.897   5.863 -0.0517  1.3602  0.0567
  850MOL0     C14620   9.848   2.886   5.733  0.2249 -0.5813 -0.1824
  850MOL0     C14621   9.753   2.876   5.627 -0.0291 -1.0147 -0.4458
  850MOL0     C14622   9.614   2.885   5.651 -0.2243  0.2734 -0.5372
  850MOL0     O14623   9.518   2.887   5.550 -0.3941  0.5900  0.0227
  850MOL0     C14624   9.562   2.951   5.430 -0.5678 -0.1333  0.4091
  850MOL0     C14625   9.581   2.853   5.314 -0.0677  0.5943  0.4174
  850MOL0     C14626   9.488   2.729   5.331 -0.3309  0.0435  0.1821
  850MOL0     C14627   9.491   2.639   5.207  0.0391  0.0690  1.4307
  850MOL0     C14628   9.473   2.489   5.240  0.0113  0.0233 -0.0041
  850MOL0     C14629   9.329   2.457   5.259 -0.1393 -0.1210  0.2090
  850MOL0     C14630   9.303   2.314   5.307  1.2506 -0.0144 -0.1909
  850MOL0     C14631   9.346   2.288   5.448  0.0928 -0.2692 -0.3429
  850MOL0     N14632   9.246   2.344   5.541 -0.7364  0.2639 -0.2163
  850MOL0     C14633   9.120   2.293   5.564 -0.6501 -0.2259 -0.5388
  850MOL0     C14634   9.062   2.370   5.658  0.2230  0.3644  0.2595
  850MOL0     C14635   8.930   2.328   5.729 -0.5870  0.3930 -0.5720
  850MOL0     C14636   8.803   2.309   5.651  0.5062  0.4613  0.0917
  850MOL0     C14637   8.691   2.265   5.751  0.3535  0.8303  0.0961
  850MOL0     C14638   8.550   2.297   5.697  0.0402  0.6286 -0.7576
  850MOL0     O14639   8.458   2.321   5.804  0.3018  0.4239 -0.7937
  850MOL0     C14640   8.323   2.308   5.775 -0.1306  0.2933  0.2837
  850MOL0     C14641   8.258   2.339   5.651  0.5723 -0.3131 -0.3420
  850MOL0     C14642   8.115   2.342   5.649  0.2779  0.0444  0.1230
  850MOL0     C14643   8.046   2.373   5.519 -0.9520  0.5435 -0.6189
  850MOL0     C14644   8.040   2.293   5.758  0.3456 -0.0752 -0.1312
  850MOL0     C14645   7.892   2.267   5.764 -0.0222  0.7617 -0.8950
  850MOL0     O14646   7.845   2.205   5.882  0.0600  0.1654 -0.6744
  850MOL0     C14647   7.717   2.172   5.896  0.1983 -0.2081 -0.8164
  850MOL0     C14648   7.686   2.042   5.895 -0.8547  0.7285 -1.2355
  850MOL0     C14649   7.558   1.992   5.922 -0.3724 -0.3930 -0.3518
  850MOL0     C14650   7.455   2.082   5.953 -0.2692 -0.5332 -0.2012
  850MOL0     O14651   7.333   2.022   5.962  0.4471 -0.9326  0.2684
  850MOL0     C14652   7.225   2.110   5.988 -0.3429  0.2441 -0.9468
  850MOL0     C14653   7.091   2.043   5.996  0.1232  0.0768 -0.3836
  850MOL0     C14654   6.981   2.139   6.043  0.1696  0.1507 -0.8781
  850MOL0     C14655   6.851   2.066   6.093  0.2209 -0.6529 -0.2397
  850MOL0     C14656   6.782   2.003   5.979 -0.6870  0.2137  0.1061
  850MOL0     C14657   6.695   1.888   6.015 -0.8296 -0.6886  0.0305
  850MOL0     C14658   6.582   1.926   6.108 -0.3562 -0.8927 -0.0443
  850MOL0     C14659   6.468   1.829   6.082  0.1974 -0.8527 -0.0285
  850MOL0    Cl14660   6.510   1.661   6.108 -0.5960  0.3929  0.4247
  850MOL0     C14661   7.484   2.217   5.958 -0.6769 -0.5409 -0.1274
  850MOL0     C14662   7.616   2.262   5.918  0.2691  0.0630 -0.1058
  850MOL0     O14663   7.817   2.276   5.665 -0.2131  0.6187 -0.5131
  850MOL0     C14664   8.106   2.278   5.883  0.6942 -0.2190 -0.3343
  850MOL0     C14665   8.245   2.283   5.885 -0.4763  0.5328 -0.4239
  850MOL0     N14666   9.154   2.468   5.692 -0.0782  0.0557 -0.4124
  850MOL0     N14667   9.259   2.453   5.617  0.4993  0.0566  0.2076
  850MOL0     C14668   9.568   2.884   5.780  0.2443  0.0701  0.3725
  850MOL0     C14669   9.661   2.897   5.889  0.1012 -0.3016 -0.5022
  850MOL0     C14670  10.060   3.060   6.089  0.2652 -0.1767 -0.3749
  850MOL0     C14671  10.108   3.187   6.103  0.0252 -0.5308 -0.8178
  850MOL0     C14672  10.209   3.214   6.196 -0.2585 -0.2958  0.1988
  850MOL0     C14673  10.244   3.117   6.285 -0.5354  0.0375 -0.6654
  850MOL0     O14674  10.329   3.147   6.389 -0.6285  0.0617  0.1007
  850MOL0     C14675  10.384   3.283   6.407 -0.0368 -0.0875  0.1592
  850MOL0     C14676  10.426   3.284   6.558  0.3297  0.5394  0.4163
  850MOL0     C14677  10.563   3.232   6.572 -0.2059  0.0282  0.5680
  850MOL0     C14678  10.615   3.222   6.723  0.1489 -0.6538  0.5089
  850MOL0     C14679  10.538   3.131   6.816  1.2217  0.9717  0.2887
  850MOL0     C14680  10.481   3.068   6.900  0.7503  0.2312  0.2524
  850MOL0     C14681  10.185   2.989   6.288 -0.7794 -0.8324 -0.5133
  850MOL0     C14682  10.105   2.959   6.173 -0.1251  0.7945  0.4338
  850MOL0     H14683   9.951   2.907   5.706 -0.6233  0.4129 -3.0902
  850MOL0     H14684   9.787   2.857   5.526 -1.4876 -1.9722 -0.7859
  850MOL0     H14685   9.489   3.020   5.388 -1.2838 -2.9058 -3.4359
  850MOL0     H14686   9.655   3.010   5.433 -0.9613  0.4383  2.3704
  850MOL0     H14687   9.555   2.889   5.214 -0.3152  1.8261  0.9045
  850MOL0     H14688   9.684   2.815   5.318 -0.5631 -0.7026  1.5328
  850MOL0     H14689   9.523   2.672   5.418 -2.2828  0.9335  1.6212
  850MOL0     H14690   9.382   2.752   5.344 -1.4075 -4.2389  0.8734
  850MOL0     H14691   9.417   2.671   5.134  0.4223 -0.5121  0.7642
  850MOL0     H14692   9.587   2.648   5.154 -0.8775 -4.3566 -1.5624
  850MOL0     H14693   9.507   2.440   5.148 -1.4267  0.1778 -0.6480
  850MOL0     H14694   9.535   2.461   5.325  0.7566  0.7101 -0.3103
  850MOL0     H14695   9.291   2.529   5.332  0.6032 -0.0578  0.5464
  850MOL0     H14696   9.282   2.463   5.160  1.2395 -2.8133 -0.7048
  850MOL0     H14697   9.199   2.286   5.288  1.2269 -0.1433  0.1178
  850MOL0     H14698   9.362   2.255   5.236 -4.4748 -1.9229 -4.1476
  850MOL0     H14699   9.442   2.329   5.478  0.1017 -1.2022  0.9857
  850MOL0     H14700   9.345   2.179   5.459 -0.8403 -0.2078  0.3642
  850MOL0     H14701   9.076   2.206   5.518 -1.3603  0.5899 -1.4310
  850MOL0     H14702   8.943   2.235   5.786 -2.8849 -1.2528 -2.5304
  850MOL0     H14703   8.905   2.407   5.801  0.3864 -0.7673  1.1243
  850MOL0     H14704   8.834   2.226   5.585  1.3825  0.5286  0.4077
  850MOL0     H14705   8.772   2.386   5.581  1.5963 -1.1005 -2.2518
  850MOL0     H14706   8.703   2.317   5.846 -0.0035  0.7004  0.2140
  850MOL0     H14707   8.691   2.161   5.786 -0.9355  0.4622 -0.9170
  850MOL0     H14708   8.515   2.212   5.639 -0.3284  1.6693 -2.1001
  850MOL0     H14709   8.555   2.385   5.632 -3.1183  1.1467 -0.4803
  850MOL0     H14710   8.322   2.370   5.569  0.4513  1.5975  0.2511
  850MOL0     H14711   8.126   2.414   5.456  1.4021 -1.7359  0.7093
  850MOL0     H14712   8.011   2.280   5.475  2.4092 -0.8678 -0.6331
  850MOL0     H14713   7.966   2.442   5.549 -0.7518  0.1548  0.8962
  850MOL0     H14714   7.767   1.975   5.867 -0.3190  0.7656  0.1346
  850MOL0     H14715   7.531   1.887   5.908  3.2429 -1.8618  2.2485
  850MOL0     H14716   7.238   2.155   6.087 -1.6342 -0.6884 -0.3242
  850MOL0     H14717   7.209   2.188   5.913 -1.2745 -0.7892 -1.8539
  850MOL0     H14718   7.065   2.015   5.893  1.2691  1.1322 -0.9919
  850MOL0     H14719   7.103   1.961   6.067  2.4690 -0.1867 -0.9935
  850MOL0     H14720   6.960   2.207   5.961  3.8055  0.4213 -1.7384
  850MOL0     H14721   7.021   2.205   6.120  1.5039 -1.7265  0.1282
  850MOL0     H14722   6.881   1.986   6.162 -3.1675 -0.3888  1.7697
  850MOL0     H14723   6.779   2.133   6.141  1.3501  0.3187  0.1455
  850MOL0     H14724   6.855   1.954   5.914  0.2781 -0.0388  1.3509
  850MOL0     H14725   6.718   2.074   5.927 -0.8267 -0.4274 -0.6109
  850MOL0     H14726   6.656   1.844   5.923 -0.7464  1.6378 -1.1649
  850MOL0     H14727   6.755   1.806   6.055 -0.3798 -1.4797 -2.1435
  850MOL0     H14728   6.551   2.027   6.082 -1.9228 -1.2940  0.2007
  850MOL0     H14729   6.620   1.925   6.210  1.3627 -0.7886 -0.6400
  850MOL0     H14730   6.431   1.853   5.982  0.0132  0.4012  0.3139
  850MOL0     H14731   6.392   1.862   6.154  1.5925  0.9490  0.7305
  850MOL0     H14732   7.408   2.288   5.987 -0.7578 -1.0313  0.9006
  850MOL0     H14733   7.636   2.369   5.913 -0.8178  0.2561 -0.6701
  850MOL0     H14734   8.049   2.263   5.974  0.5804 -0.1216 -0.3895
  850MOL0     H14735   8.301   2.276   5.978  1.3637  1.5059 -1.3904
  850MOL0     H14736   9.461   2.880   5.798  0.1379 -0.9572 -0.3637
  850MOL0     H14737   9.632   2.894   5.993  1.7136  0.0261 -0.0139
  850MOL0     H14738  10.071   3.266   6.038  0.6881  0.3957 -0.0893
  850MOL0     H14739  10.240   3.318   6.191 -2.0123  0.2095 -3.0263
  850MOL0     H14740  10.464   3.300   6.335 -0.5731  4.4444  0.3455
  850MOL0     H14741  10.304   3.355   6.386 -2.1956 -3.0239 -2.6885
  850MOL0     H14742  10.353   3.227   6.617 -1.0452  0.0338 -1.6410
  850MOL0     H14743  10.413   3.385   6.596 -1.5219 -0.5301  2.9467
  850MOL0     H14744  10.625   3.302   6.515  0.8035 -0.6912  0.7551
  850MOL0     H14745  10.564   3.131   6.530 -2.3843  0.3339 -0.3852
  850MOL0     H14746  10.613   3.325   6.758 -0.7980  0.2916 -2.1290
  850MOL0     H14747  10.716   3.182   6.714  0.7604  0.8449  0.5993
  850MOL0     H14748  10.434   3.019   6.983  2.6796 -0.4735  1.0142
  850MOL0     H14749  10.214   2.909   6.355 -0.7287 -0.4389 -0.0603
  850MOL0     H14750  10.069   2.857   6.165 -3.3568  1.7102  1.7374
  851MOL0     O14751   8.997   2.401  10.385 -0.3502 -0.3235  0.5992
  851MOL0     C14752   9.061   2.345  10.299  0.5686 -0.4821 -1.0275
  851MOL0     O14753   9.002   2.275  10.193 -1.1934  0.2788  0.0781
  851MOL0     C14754   8.867   2.268  10.170 -0.4692  0.4081  0.1732
  851MOL0     C14755   8.834   2.176  10.076  0.0329 -0.4581 -0.4252
  851MOL0     C14756   8.701   2.158  10.029 -0.1873  0.3038 -0.7556
  851MOL0     C14757   8.600   2.230  10.092  1.4221  0.2669 -0.2551
  851MOL0     O14758   8.471   2.199  10.041 -0.2035 -0.0995  0.5114
  851MOL0     C14759   8.369   2.301  10.055 -0.2226  1.4751 -0.4757
  851MOL0     C14760   8.247   2.270   9.966 -0.2736  0.2268  0.4685
  851MOL0     C14761   8.112   2.301  10.026 -0.1391  0.0606 -0.8194
  851MOL0     C14762   8.072   2.446   9.993  0.3960 -0.1948  0.4976
  851MOL0     C14763   7.933   2.480  10.065  0.4115  0.6996  0.9171
  851MOL0     C14764   7.889   2.625  10.030 -0.8867  0.3140  0.4266
  851MOL0     C14765   7.755   2.667  10.099 -0.1065  0.5480 -0.2288
  851MOL0     C14766   7.699   2.790  10.030 -0.7891  0.3321 -0.1844
  851MOL0     N14767   7.589   2.851  10.111 -0.7877  0.2675 -0.7700
  851MOL0     C14768   7.463   2.809  10.115  0.1573  0.9250  0.4419
  851MOL0     C14769   7.394   2.904  10.173  0.2015  0.6491 -0.7089
  851MOL0     C14770   7.250   2.919  10.188 -0.0410 -0.2067  0.3254
  851MOL0     C14771   7.163   2.791  10.201  0.0824  0.1562 -0.3147
  851MOL0     C14772   7.021   2.825  10.247  0.0196  0.6856 -0.2933
  851MOL0     C14773   6.934   2.926  10.162 -0.5681  0.5168  0.0411
  851MOL0     O14774   6.794   2.895  10.152 -0.5728  0.7616  0.0535
  851MOL0     C14775   6.711   2.956  10.244  0.4426 -0.2488  0.2871
  851MOL0     C14776   6.751   3.040  10.350  0.0844  0.7669  0.1495
  851MOL0     C14777   6.661   3.102  10.437  0.4860 -0.2398 -0.5374
  851MOL0     C14778   6.720   3.182  10.553 -0.3506  0.0583  0.1638
  851MOL0     C14779   6.524   3.082  10.415  0.1276 -0.0534  0.2432
  851MOL0     C14780   6.416   3.140  10.491  0.2905  0.7299  0.1578
  851MOL0     O14781   6.440   3.223  10.598 -0.5303 -0.0227  0.0137
  851MOL0     C14782   6.342   3.292  10.660 -0.6098 -0.1814  0.0725
  851MOL0     C14783   6.384   3.414  10.710  0.3671  0.8614  0.5365
  851MOL0     C14784   6.297   3.504  10.767 -0.3111 -0.6706 -0.9669
  851MOL0     C14785   6.170   3.469  10.799 -0.1784  0.3596 -0.7466
  851MOL0     O14786   6.091   3.560  10.856 -1.0651  0.1588 -0.1355
  851MOL0     C14787   6.022   3.505  10.968  0.4692  0.1834 -0.5155
  851MOL0     C14788   5.989   3.608  11.083  0.2094  0.0925  0.7497
  851MOL0     C14789   5.866   3.691  11.039 -0.2081  0.7169  0.0450
  851MOL0     C14790   5.831   3.779  11.159  1.0573 -0.8095 -0.7988
  851MOL0     C14791   5.685   3.838  11.132 -0.1239  0.0400  0.3448
  851MOL0     C14792   5.583   3.745  11.198  0.2231 -0.2256  0.1388
  851MOL0     C14793   5.446   3.803  11.171  0.3928 -0.8469  0.5871
  851MOL0     C14794   5.342   3.697  11.147  1.6865  0.4904  0.3961
  851MOL0    Cl14795   5.377   3.603  10.997 -0.0560  0.3281 -0.0636
  851MOL0     C14796   6.128   3.343  10.760 -0.1762  0.3480  0.0716
  851MOL0     C14797   6.217   3.246  10.696  0.2529 -0.0041 -0.4818
  851MOL0     O14798   6.304   3.128  10.446 -0.0932 -0.1256 -0.3846
  851MOL0     C14799   6.488   3.006  10.298  0.9297  0.1685 -0.6516
  851MOL0     C14800   6.579   2.938  10.227 -0.3002  0.8107 -0.0001
  851MOL0     N14801   7.482   3.005  10.211  0.5783 -0.4212  0.1695
  851MOL0     N14802   7.599   2.967  10.173 -0.2198  0.2708  0.3292
  851MOL0     C14803   8.632   2.318  10.198 -0.4188 -0.0245  1.6859
  851MOL0     C14804   8.762   2.342  10.235  0.1636 -0.4240  0.1462
  851MOL0     C14805   9.213   2.336  10.316  0.5326 -0.3585  0.7713
  851MOL0     C14806   9.280   2.394  10.425  0.2189 -0.2545 -0.6584
  851MOL0     C14807   9.422   2.391  10.426  0.2918  0.0329 -0.6763
  851MOL0     C14808   9.491   2.321  10.331  0.0793  0.3857 -0.3865
  851MOL0     O14809   9.627   2.289  10.330  0.1957  0.2307  0.2602
  851MOL0     C14810   9.709   2.322  10.445  0.1636 -0.3724 -0.7676
  851MOL0     C14811   9.848   2.258  10.424 -0.1305  0.0594  0.6399
  851MOL0     C14812   9.878   2.133  10.511  0.3650 -0.6646  0.3638
  851MOL0     C14813   9.977   2.037  10.451  0.3583  0.5387  0.3643
  851MOL0     C14814  10.014   1.932  10.548  0.1483  0.3955  0.0062
  851MOL0     C14815  10.040   1.840  10.629 -0.0652 -0.9204 -0.3286
  851MOL0     C14816   9.425   2.270  10.217  0.7088 -0.2938 -0.2880
  851MOL0     C14817   9.287   2.275  10.219 -0.2410  0.4007 -0.6469
  851MOL0     H14818   8.917   2.123  10.030  1.0156 -0.2150  0.9858
  851MOL0     H14819   8.683   2.081   9.955  1.1475 -1.9149  1.0757
  851MOL0     H14820   8.336   2.316  10.158 -1.5867  0.8218 -0.7907
  851MOL0     H14821   8.417   2.395  10.026  3.0968  0.4201  1.1051
  851MOL0     H14822   8.262   2.306   9.864  0.1728 -0.0435  0.4397
  851MOL0     H14823   8.252   2.160   9.962 -0.4101  0.0670  2.9501
  851MOL0     H14824   8.025   2.241   9.997 -1.5451  2.3074 -1.5364
  851MOL0     H14825   8.115   2.297  10.135  0.4123  2.8552 -0.6338
  851MOL0     H14826   8.145   2.521  10.022 -0.6325  0.6957  0.8688
  851MOL0     H14827   8.060   2.455   9.885 -1.1279  0.6096  0.6996
  851MOL0     H14828   7.863   2.408  10.022  0.2853  1.1391  0.3694
  851MOL0     H14829   7.946   2.466  10.173  2.2324  0.3703  0.6844
  851MOL0     H14830   7.971   2.693  10.054 -0.9221 -0.2824  2.4470
  851MOL0     H14831   7.867   2.621   9.923  2.3728 -2.0090 -0.3248
  851MOL0     H14832   7.685   2.583  10.088  1.1628 -0.6464  0.5544
  851MOL0     H14833   7.779   2.691  10.203  0.1112  3.1717 -0.8218
  851MOL0     H14834   7.663   2.768   9.929 -0.0849  0.4252 -0.4624
  851MOL0     H14835   7.773   2.870  10.018  1.5778 -1.7266  0.0929
  851MOL0     H14836   7.425   2.716  10.073  1.9405  0.8129 -1.0617
  851MOL0     H14837   7.243   2.976  10.281 -2.1120  1.9843 -1.0725
  851MOL0     H14838   7.202   2.972  10.106 -4.3948  2.4759  4.1533
  851MOL0     H14839   7.213   2.737  10.282  1.1876 -0.0998 -1.1438
  851MOL0     H14840   7.171   2.722  10.117 -1.7223  0.2535 -0.6122
  851MOL0     H14841   7.033   2.872  10.345  1.0805 -2.3724  1.1392
  851MOL0     H14842   6.974   2.730  10.273  0.3622 -0.6813 -4.0507
  851MOL0     H14843   6.983   2.923  10.065 -1.2756 -1.7772 -0.3077
  851MOL0     H14844   6.943   3.031  10.194 -0.7410  0.5604 -0.0488
  851MOL0     H14845   6.855   3.064  10.370  0.0735  0.6202  0.3819
  851MOL0     H14846   6.824   3.153  10.569 -0.1970 -0.0802 -0.9562
  851MOL0     H14847   6.711   3.288  10.529  1.0543 -0.1944 -1.7553
  851MOL0     H14848   6.661   3.152  10.640  1.2169  0.5239  1.4271
  851MOL0     H14849   6.491   3.432  10.704  1.1841 -2.9784  0.9297
  851MOL0     H14850   6.329   3.603  10.795  3.0763 -1.9929  0.3841
  851MOL0     H14851   5.927   3.474  10.924  1.5562 -0.8310 -2.2382
  851MOL0     H14852   6.068   3.415  11.010 -0.9469 -1.6057 -2.6135
  851MOL0     H14853   5.955   3.542  11.163  0.4748 -1.0124 -0.0253
  851MOL0     H14854   6.068   3.676  11.115 -2.7428  4.7636 -0.9246
  851MOL0     H14855   5.774   3.632  11.026 -1.7489  3.1109 -0.5033
  851MOL0     H14856   5.883   3.749  10.948 -1.9206  0.5939 -0.4012
  851MOL0     H14857   5.836   3.724  11.253  2.1322 -0.5943 -0.7234
  851MOL0     H14858   5.913   3.851  11.167  0.0092  0.2118  1.8011
  851MOL0     H14859   5.664   3.840  11.024  2.2668  0.7733 -0.1575
  851MOL0     H14860   5.671   3.937  11.176 -2.1398  0.0015 -0.0751
  851MOL0     H14861   5.593   3.643  11.158  1.1660  0.6409 -1.9780
  851MOL0     H14862   5.593   3.749  11.307 -4.3014  0.6015  0.7281
  851MOL0     H14863   5.447   3.867  11.083 -0.8907 -1.1962  0.3020
  851MOL0     H14864   5.414   3.858  11.260  1.6656 -0.6853  0.9706
  851MOL0     H14865   5.245   3.748  11.138  1.0499 -0.4967  1.4423
  851MOL0     H14866   5.344   3.623  11.227 -1.2759 -1.0794 -0.8378
  851MOL0     H14867   6.030   3.311  10.792  0.1700 -2.1761 -1.1106
  851MOL0     H14868   6.186   3.145  10.672 -1.7183  0.2256  0.9156
  851MOL0     H14869   6.381   3.002  10.280  0.0443  2.6698  2.8829
  851MOL0     H14870   6.549   2.873  10.146  1.3956 -1.4782  1.1295
  851MOL0     H14871   8.556   2.371  10.253  0.9990  1.7817  1.9909
  851MOL0     H14872   8.780   2.414  10.314 -0.6887 -0.0577  0.0139
  851MOL0     H14873   9.225   2.456  10.495  1.0852 -0.5850  0.3586
  851MOL0     H14874   9.476   2.431  10.511 -1.5299  0.3983  0.3678
  851MOL0     H14875   9.716   2.431  10.444 -3.1575 -0.0144  0.0888
  851MOL0     H14876   9.657   2.289  10.536 -1.8699  1.4744 -1.1502
  851MOL0     H14877   9.919   2.327  10.470  0.7822 -0.6102  0.2591
  851MOL0     H14878   9.879   2.246  10.320  1.1960  0.1253  1.0165
  851MOL0     H14879   9.784   2.079  10.527 -0.1285  0.3063  0.8148
  851MOL0     H14880   9.917   2.167  10.607  2.1495  0.8561 -0.8313
  851MOL0     H14881  10.064   2.099  10.427 -1.1847  2.6451 -0.0898
  851MOL0     H14882   9.944   1.984  10.362  0.9518 -0.6920  0.8436
  851MOL0     H14883  10.045   1.752  10.690 -0.6998 -0.5036  0.3439
  851MOL0     H14884   9.476   2.236  10.128  0.6116  1.7935 -1.1957
  851MOL0     H14885   9.232   2.252  10.128  1.4811  1.7318 -2.1038
  852MOL0     O14886  10.650   3.700   9.325  0.1613 -0.3412 -0.2321
  852MOL0     C14887  10.713   3.632   9.410  1.0413  1.0499  0.3623
  852MOL0     O14888  10.699   3.495   9.429  0.1652 -0.1220  0.3253
  852MOL0     C14889  10.592   3.428   9.368 -0.1278  0.8434  0.2440
  852MOL0     C14890  10.460   3.453   9.386 -0.2665 -0.4958  0.3930
  852MOL0     C14891  10.352   3.382   9.321  0.2014 -0.8435  0.1726
  852MOL0     C14892  10.387   3.276   9.242  0.7989 -0.3990 -0.2556
  852MOL0     O14893  10.289   3.196   9.176 -0.1683  0.3386  0.2643
  852MOL0     C14894  10.148   3.210   9.202 -0.5766 -0.4778  0.7734
  852MOL0     C14895  10.074   3.148   9.086  0.2387  0.7373 -0.8618
  852MOL0     C14896   9.919   3.157   9.091  1.3128  0.2887  0.3791
  852MOL0     C14897   9.876   3.119   8.952  0.0882 -0.3691 -0.1642
  852MOL0     C14898   9.730   3.088   8.947  0.1937 -0.0697 -0.3844
  852MOL0     C14899   9.643   3.210   8.944 -0.4192 -0.1616 -0.3744
  852MOL0     C14900   9.488   3.187   8.927 -0.4421  0.2269  0.4612
  852MOL0     C14901   9.421   3.139   9.059 -0.2102 -0.1552 -0.0014
  852MOL0     N14902   9.292   3.070   9.035 -0.0430 -0.5768 -0.2194
  852MOL0     C14903   9.262   2.941   8.991 -1.2271 -0.2723  0.2226
  852MOL0     C14904   9.130   2.941   8.968  0.1518 -0.4814 -0.8144
  852MOL0     C14905   9.036   2.837   8.908  0.2830  0.2049  0.2381
  852MOL0     C14906   8.933   2.787   9.016  0.8265  0.8848 -0.0636
  852MOL0     C14907   8.820   2.683   8.972  0.0998  0.7533  0.1332
  852MOL0     C14908   8.703   2.733   8.906  1.4467 -0.7077  0.1045
  852MOL0     O14909   8.591   2.650   8.900 -0.6660 -0.0822 -0.4078
  852MOL0     C14910   8.466   2.694   8.861 -0.3578 -0.5517 -0.1396
  852MOL0     C14911   8.368   2.600   8.844  0.0462  0.7138  0.7981
  852MOL0     C14912   8.241   2.632   8.793  0.4776  0.0798  0.1597
  852MOL0     C14913   8.144   2.519   8.786 -0.3360 -0.5183 -0.1574
  852MOL0     C14914   8.209   2.770   8.763  0.2933  1.1697 -0.3050
  852MOL0     C14915   8.073   2.817   8.736  0.2069 -1.0241 -0.4483
  852MOL0     O14916   7.985   2.727   8.682 -0.2282 -0.0747  0.2729
  852MOL0     C14917   7.875   2.779   8.620 -0.0361  0.3251 -0.0491
  852MOL0     C14918   7.876   2.902   8.536  0.3504  0.1438 -1.0602
  852MOL0     C14919   7.763   2.949   8.477  0.5506  0.4855 -0.3456
  852MOL0     C14920   7.637   2.885   8.510 -0.1314  0.1292 -0.6813
  852MOL0     O14921   7.528   2.935   8.437  0.4530  0.1452 -0.1217
  852MOL0     C14922   7.399   2.869   8.433  0.0523  0.0719  0.0776
  852MOL0     C14923   7.302   2.946   8.338  0.4466  0.4355 -0.2344
  852MOL0     C14924   7.350   2.951   8.198 -0.8762  0.1409 -0.0317
  852MOL0     C14925   7.334   2.828   8.103 -0.2620 -0.4716  0.1536
  852MOL0     C14926   7.207   2.833   8.009 -0.6558 -0.3939  0.1899
  852MOL0     C14927   7.200   2.707   7.921  0.5530  0.1648 -0.5625
  852MOL0     C14928   7.059   2.687   7.850  0.0467  0.1786 -0.4596
  852MOL0     C14929   6.965   2.617   7.937  0.2546  0.3170 -0.5823
  852MOL0    Cl14930   6.806   2.640   7.862 -0.1642 -0.5334  0.2121
  852MOL0     C14931   7.643   2.767   8.577  0.3173  0.7451  0.4471
  852MOL0     C14932   7.752   2.710   8.634 -1.3376 -0.8780 -0.2467
  852MOL0     O14933   8.044   2.938   8.756  0.0569 -0.2354  0.1032
  852MOL0     C14934   8.312   2.869   8.787  0.1924 -0.0348 -0.1102
  852MOL0     C14935   8.435   2.831   8.841  0.9460  0.0617 -0.3119
  852MOL0     N14936   9.081   3.059   9.013 -0.4415  0.0152  0.6098
  852MOL0     N14937   9.174   3.137   9.054  0.3527  0.0722 -0.0454
  852MOL0     C14938  10.523   3.240   9.240  0.3181  0.2304 -0.0473
  852MOL0     C14939  10.622   3.313   9.303 -0.7543  0.5622  0.3776
  852MOL0     C14940  10.828   3.685   9.486  0.1107 -0.3031 -0.3449
  852MOL0     C14941  10.863   3.823   9.469  0.7307  0.0077 -1.5684
  852MOL0     C14942  10.963   3.878   9.549 -0.5703 -0.2955 -0.0862
  852MOL0     C14943  11.033   3.798   9.638 -0.2242 -0.3475 -0.1929
  852MOL0     O14944  11.130   3.848   9.721 -0.1179  0.2185 -0.4158
  852MOL0     C14945  11.197   3.973   9.709 -0.6321 -0.3013 -0.0954
  852MOL0     C14946  11.329   3.964   9.630  0.2954  1.1296  1.1466
  852MOL0     C14947  11.442   3.879   9.690  0.3290 -0.3318 -0.0768
  852MOL0     C14948  11.558   3.855   9.586 -0.1139 -0.6612 -0.3476
  852MOL0     C14949  11.672   3.773   9.632 -0.0107 -0.3346  0.0360
  852MOL0     C14950  11.769   3.706   9.671 -0.2073 -0.2977 -0.0814
  852MOL0     C14951  11.005   3.663   9.645 -0.9262 -0.4401  0.1906
  852MOL0     C14952  10.905   3.605   9.570 -0.1237  1.2027  0.3176
  852MOL0     H14953  10.421   3.530   9.452 -1.0046 -0.3278 -0.2304
  852MOL0     H14954  10.250   3.414   9.342  0.4280 -0.0151  0.0601
  852MOL0     H14955  10.132   3.149   9.291  0.5929 -1.4622  0.3344
  852MOL0     H14956  10.117   3.314   9.214  1.0162  0.0223  0.8337
  852MOL0     H14957  10.107   3.199   8.995 -2.1067 -0.0847 -2.2710
  852MOL0     H14958  10.102   3.044   9.068 -1.4751 -0.1609  1.2313
  852MOL0     H14959   9.880   3.090   9.168  1.0856 -3.0781 -2.4334
  852MOL0     H14960   9.893   3.263   9.103 -0.1715 -0.2084  2.0477
  852MOL0     H14961   9.900   3.193   8.875 -3.5034 -0.8189 -1.9874
  852MOL0     H14962   9.923   3.024   8.923  0.2243 -0.0038 -1.1921
  852MOL0     H14963   9.714   3.034   8.853  2.0098 -0.6676 -0.3964
  852MOL0     H14964   9.709   3.023   9.032  1.9275 -0.5484 -0.2709
  852MOL0     H14965   9.650   3.266   9.038 -2.6198  1.5761 -1.1328
  852MOL0     H14966   9.679   3.274   8.863  1.5624 -2.0953 -1.0931
  852MOL0     H14967   9.439   3.273   8.879 -0.0488  1.2393  1.7983
  852MOL0     H14968   9.477   3.105   8.856  2.5225  0.2003 -0.0841
  852MOL0     H14969   9.397   3.223   9.124 -3.0035  0.9995 -2.3321
  852MOL0     H14970   9.488   3.074   9.117 -0.7090  0.7323  1.6410
  852MOL0     H14971   9.336   2.867   8.962  0.9970  1.0158  2.2437
  852MOL0     H14972   8.982   2.880   8.823 -0.4208  1.8683  1.4607
  852MOL0     H14973   9.090   2.751   8.868  0.5236 -0.5063  1.9949
  852MOL0     H14974   8.887   2.875   9.061  0.3036 -0.3632  1.9828
  852MOL0     H14975   8.982   2.731   9.096  0.5271  1.8607  0.8156
  852MOL0     H14976   8.792   2.639   9.068  1.9283 -0.2424  0.2502
  852MOL0     H14977   8.852   2.603   8.906 -1.2862 -0.8847  1.3714
  852MOL0     H14978   8.724   2.764   8.804  1.2651 -0.9501 -0.0066
  852MOL0     H14979   8.683   2.825   8.962 -1.4701  1.6588 -4.2660
  852MOL0     H14980   8.402   2.497   8.854 -3.1933 -0.7383 -1.4443
  852MOL0     H14981   8.147   2.482   8.684 -2.0045  0.0537 -0.4522
  852MOL0     H14982   8.181   2.442   8.855 -0.8923  0.9226  1.8517
  852MOL0     H14983   8.042   2.547   8.817  0.1161  1.4886 -0.3174
  852MOL0     H14984   7.953   2.979   8.534 -0.4728  1.1790  1.7179
  852MOL0     H14985   7.759   3.043   8.423 -1.2543  0.7143  0.1503
  852MOL0     H14986   7.413   2.764   8.406 -0.0031  0.2980 -0.8961
  852MOL0     H14987   7.355   2.879   8.532 -1.1476  0.2436 -0.4500
  852MOL0     H14988   7.209   2.889   8.342 -0.7932  2.4171  1.1155
  852MOL0     H14989   7.277   3.045   8.378 -0.2308 -0.0535  0.5989
  852MOL0     H14990   7.456   2.976   8.208 -0.8723 -0.4041  1.6179
  852MOL0     H14991   7.314   3.041   8.148 -1.2005  0.6420  1.0785
  852MOL0     H14992   7.422   2.815   8.039  0.4076 -1.9787  1.3150
  852MOL0     H14993   7.333   2.741   8.170  1.4936 -0.0426  0.7812
  852MOL0     H14994   7.219   2.925   7.951 -0.9695 -1.6633 -1.9727
  852MOL0     H14995   7.119   2.842   8.074  0.3928  2.4781  1.3765
  852MOL0     H14996   7.278   2.713   7.845  1.1727 -2.0186 -0.1562
  852MOL0     H14997   7.215   2.616   7.978  0.7245  2.1617  2.8224
  852MOL0     H14998   7.087   2.625   7.764  3.1989 -0.3847  0.8130
  852MOL0     H14999   7.020   2.785   7.822  3.7550  1.6301 -1.0621
  852MOL0     H15000   6.975   2.659   8.037  0.6572  1.4547 -1.0847
  852MOL0     H15001   6.979   2.509   7.947  3.8698  0.7763  0.5006
  852MOL0     H15002   7.544   2.729   8.602  0.1441  0.8799 -0.0297
  852MOL0     H15003   7.737   2.618   8.689  2.2174 -0.6064  1.4329
  852MOL0     H15004   8.293   2.975   8.775  3.2828  0.5761 -0.5251
  852MOL0     H15005   8.510   2.908   8.860  0.2104  0.6496  0.2821
  852MOL0     H15006  10.553   3.151   9.187 -0.0489 -1.5370  2.5223
  852MOL0     H15007  10.727   3.287   9.298 -0.9049 -0.0565  0.4162
  852MOL0     H15008  10.803   3.887   9.404  0.9627  0.0973 -1.6946
  852MOL0     H15009  10.969   3.986   9.536 -0.2549 -0.1540  1.1112
  852MOL0     H15010  11.136   4.044   9.652  0.1337 -0.2878 -0.9333
  852MOL0     H15011  11.212   4.011   9.810  1.0312 -1.3856  0.1149
  852MOL0     H15012  11.374   4.063   9.617  2.7795 -0.1942 -1.3736
  852MOL0     H15013  11.304   3.928   9.530  1.3112  0.2332  1.1982
  852MOL0     H15014  11.399   3.782   9.718  0.0888 -0.6542 -1.4822
  852MOL0     H15015  11.473   3.939   9.776  0.1155  3.3364 -2.3080
  852MOL0     H15016  11.612   3.946   9.559  3.0785 -1.9912  1.0987
  852MOL0     H15017  11.521   3.800   9.499 -0.4264 -0.3940 -0.3860
  852MOL0     H15018  11.856   3.654   9.705  0.5424  1.5248  0.8942
  852MOL0     H15019  11.058   3.608   9.723 -4.4434 -0.4530  2.8226
  852MOL0     H15020  10.891   3.498   9.571 -0.6842  1.2725  0.1510
  853MOL0     O15021   6.101   8.020   2.252  0.6076 -0.8392 -0.6612
  853MOL0     C15022   6.131   8.050   2.368  0.7738  0.1659  0.6348
  853MOL0     O15023   6.053   8.037   2.475 -0.0220  0.1338 -0.0126
  853MOL0     C15024   5.942   7.961   2.459  0.0418  0.0666 -0.4691
  853MOL0     C15025   5.817   8.027   2.461  1.6377  0.5250  1.1258
  853MOL0     C15026   5.698   7.949   2.457  0.2785 -1.1611  0.0518
  853MOL0     C15027   5.708   7.807   2.447 -0.9885 -0.1638  0.4567
  853MOL0     O15028   5.599   7.724   2.427 -0.9301  0.8886  0.2140
  853MOL0     C15029   5.471   7.773   2.448 -0.1947 -0.4930 -0.0339
  853MOL0     C15030   5.370   7.661   2.426 -0.2741 -0.3618  0.4375
  853MOL0     C15031   5.235   7.682   2.498 -0.3563 -0.2756  0.4782
  853MOL0     C15032   5.126   7.596   2.435 -0.1926  0.1483  0.0905
  853MOL0     C15033   4.986   7.652   2.446 -0.4666  0.0322  0.5473
  853MOL0     C15034   4.881   7.573   2.363  0.4814  0.5371 -0.2131
  853MOL0     C15035   4.840   7.447   2.436 -0.3955 -0.2797 -0.3705
  853MOL0     C15036   4.743   7.473   2.557  0.8993  0.6134 -0.0544
  853MOL0     N15037   4.610   7.461   2.501  1.3380  0.1814  0.7322
  853MOL0     C15038   4.552   7.544   2.411  0.1380 -0.1939  0.3627
  853MOL0     C15039   4.441   7.479   2.376 -0.3235  0.0848  0.9054
  853MOL0     C15040   4.321   7.530   2.287 -0.8190 -0.6064  0.4454
  853MOL0     C15041   4.369   7.576   2.152 -0.2328 -0.4363 -0.1000
  853MOL0     C15042   4.442   7.711   2.139 -0.0687  0.1371  0.1957
  853MOL0     C15043   4.555   7.706   2.036  0.0773  0.2376  0.5469
  853MOL0     O15044   4.654   7.802   2.073 -0.5188  1.0824  0.5419
  853MOL0     C15045   4.781   7.765   2.020 -0.0497 -1.2307  0.5530
  853MOL0     C15046   4.810   7.721   1.893  0.7630 -0.5507  0.5615
  853MOL0     C15047   4.940   7.684   1.853 -0.6685 -0.9654  0.2998
  853MOL0     C15048   4.951   7.621   1.718 -0.1909  0.0283 -0.0132
  853MOL0     C15049   5.050   7.710   1.937  0.3352 -0.0358  0.7538
  853MOL0     C15050   5.196   7.691   1.903  0.3558  0.7487  0.5434
  853MOL0     O15051   5.275   7.792   1.959  0.2570 -0.0263 -0.7779
  853MOL0     C15052   5.406   7.791   1.931 -0.4131  1.0191 -0.6794
  853MOL0     C15053   5.495   7.786   2.040 -0.5736 -0.4610 -0.2724
  853MOL0     C15054   5.625   7.838   2.029  0.2546 -0.7521 -0.8137
  853MOL0     C15055   5.680   7.864   1.902  0.1639  0.2329 -0.1217
  853MOL0     O15056   5.809   7.904   1.877 -0.0742  0.2519  0.2872
  853MOL0     C15057   5.873   8.008   1.953  0.3858 -0.1709 -0.0595
  853MOL0     C15058   6.016   8.032   1.916 -0.0134  0.1028 -0.5779
  853MOL0     C15059   6.028   8.098   1.777  0.8595 -0.3170 -0.0953
  853MOL0     C15060   6.160   8.165   1.748  0.7251  0.1426  0.1872
  853MOL0     C15061   6.259   8.080   1.674  0.0824  0.6971  0.9013
  853MOL0     C15062   6.334   7.976   1.757 -0.1680 -1.3080  0.1322
  853MOL0     C15063   6.444   8.065   1.828  0.3822 -0.3541 -0.2461
  853MOL0     C15064   6.567   7.977   1.879  0.5579  0.0509 -0.0706
  853MOL0    Cl15065   6.552   7.953   2.050 -0.2105  0.0129 -0.0070
  853MOL0     C15066   5.589   7.852   1.794 -0.1337 -0.9922  0.5405
  853MOL0     C15067   5.452   7.827   1.802 -0.1552 -0.7649  0.3353
  853MOL0     O15068   5.243   7.587   1.857  0.4076 -0.1888  0.2090
  853MOL0     C15069   5.024   7.766   2.061  0.9790 -0.0405  0.4157
  853MOL0     C15070   4.893   7.795   2.098 -0.8307 -0.3860  0.4273
  853MOL0     N15071   4.435   7.358   2.446 -0.1893 -0.4239  0.4070
  853MOL0     N15072   4.529   7.350   2.525 -0.7321  0.0948  0.3441
  853MOL0     C15073   5.832   7.747   2.446  0.7328  0.5757  0.4148
  853MOL0     C15074   5.949   7.820   2.445  0.0482 -0.7242  0.5567
  853MOL0     C15075   6.270   8.100   2.392 -0.3779 -0.5601  0.3679
  853MOL0     C15076   6.378   8.039   2.326 -0.7318  0.2171 -0.1514
  853MOL0     C15077   6.517   8.086   2.345  0.1852 -0.5022 -1.0471
  853MOL0     C15078   6.536   8.196   2.436  0.5143 -0.7171 -0.4776
  853MOL0     O15079   6.660   8.249   2.441 -0.1647  0.0729  0.1644
  853MOL0     C15080   6.681   8.350   2.540  0.4695 -0.0406 -1.1288
  853MOL0     C15081   6.821   8.410   2.526 -0.0483 -0.8120  0.2950
  853MOL0     C15082   6.937   8.310   2.512  0.8507  0.2636  0.5964
  853MOL0     C15083   7.071   8.385   2.534  0.9970  0.4258 -0.2343
  853MOL0     C15084   7.195   8.316   2.477  0.4426  0.4660 -0.1258
  853MOL0     C15085   7.285   8.239   2.445 -0.4209 -0.2194  0.7400
  853MOL0     C15086   6.423   8.249   2.502  0.0748  0.1583  0.0946
  853MOL0     C15087   6.296   8.207   2.480  0.5299  0.0950 -0.0614
  853MOL0     H15088   5.816   8.135   2.456  1.5087  0.4802 -0.0968
  853MOL0     H15089   5.609   8.010   2.469  0.6552 -0.7062  0.5894
  853MOL0     H15090   5.460   7.800   2.553  1.6862 -3.4857  1.0450
  853MOL0     H15091   5.437   7.855   2.384 -2.3461 -1.8825 -0.7508
  853MOL0     H15092   5.364   7.660   2.316 -0.6765  1.1277  0.4190
  853MOL0     H15093   5.410   7.568   2.467 -2.7843 -0.5044  2.8455
  853MOL0     H15094   5.252   7.646   2.600 -0.1394  0.4402  0.7035
  853MOL0     H15095   5.213   7.789   2.497  1.4945  0.2113  2.5393
  853MOL0     H15096   5.147   7.584   2.329 -0.9885  1.1171 -0.1930
  853MOL0     H15097   5.132   7.496   2.479  1.4462  0.6796  1.1779
  853MOL0     H15098   4.953   7.656   2.550 -3.8010 -1.9421 -0.2778
  853MOL0     H15099   4.991   7.756   2.414 -0.0216  0.6963  2.6565
  853MOL0     H15100   4.800   7.646   2.351  1.4458  1.9533  1.3393
  853MOL0     H15101   4.927   7.541   2.270 -2.1496  2.0796 -2.1959
  853MOL0     H15102   4.809   7.367   2.368 -0.9261  0.6386 -1.2541
  853MOL0     H15103   4.931   7.405   2.479  0.0286  1.1523  0.1898
  853MOL0     H15104   4.755   7.572   2.600  2.3483  1.1083 -1.5012
  853MOL0     H15105   4.757   7.395   2.633  0.5308  1.8373  1.3022
  853MOL0     H15106   4.598   7.640   2.387 -2.0937  1.4655  2.1927
  853MOL0     H15107   4.260   7.441   2.267  2.7691 -2.8184 -1.6841
  853MOL0     H15108   4.282   7.616   2.341  3.7299  2.5599 -0.8014
  853MOL0     H15109   4.280   7.587   2.088  0.9163  1.3539 -1.4809
  853MOL0     H15110   4.438   7.502   2.110 -0.4941  0.4701 -2.2201
  853MOL0     H15111   4.484   7.734   2.238  1.2212  2.5629 -0.8318
  853MOL0     H15112   4.379   7.793   2.103  0.8521  1.0399  0.5828
  853MOL0     H15113   4.514   7.720   1.935  1.4477 -1.6416 -0.3477
  853MOL0     H15114   4.598   7.605   2.031 -2.5075 -0.8815 -1.0815
  853MOL0     H15115   4.724   7.698   1.831  1.6114 -1.3719 -0.3487
  853MOL0     H15116   4.856   7.623   1.664  0.2436  1.7805 -0.7581
  853MOL0     H15117   5.029   7.670   1.659 -0.1027 -0.0551  0.0318
  853MOL0     H15118   4.969   7.513   1.722 -2.2795 -0.3201  2.3095
  853MOL0     H15119   5.448   7.744   2.128  1.0429 -2.0346 -0.1154
  853MOL0     H15120   5.678   7.847   2.123 -1.0828  5.1564 -0.2591
  853MOL0     H15121   5.818   8.101   1.931  2.3369  1.1830  0.5329
  853MOL0     H15122   5.868   7.984   2.059  1.8153 -3.8291 -0.6933
  853MOL0     H15123   6.051   8.104   1.990  1.7586  2.5065 -3.5573
  853MOL0     H15124   6.070   7.936   1.921 -0.7537 -0.2812  0.5749
  853MOL0     H15125   5.955   8.178   1.759  2.2683  1.1828  0.5612
  853MOL0     H15126   6.002   8.030   1.696  2.4805 -0.0882 -0.8519
  853MOL0     H15127   6.140   8.254   1.688 -0.9119 -1.3918 -1.6612
  853MOL0     H15128   6.212   8.205   1.836  2.5222  0.5643 -1.0096
  853MOL0     H15129   6.319   8.146   1.611  0.1278  2.1797  2.4449
  853MOL0     H15130   6.196   8.028   1.601 -0.7937  1.0199  1.4175
  853MOL0     H15131   6.274   7.915   1.825 -0.3771 -0.0835  1.0779
  853MOL0     H15132   6.382   7.904   1.690 -0.3655 -1.6571  0.3613
  853MOL0     H15133   6.403   8.122   1.912  3.0061 -2.1408  2.4361
  853MOL0     H15134   6.486   8.136   1.756 -0.1638 -0.2870 -0.5060
  853MOL0     H15135   6.662   8.028   1.865  0.3153  0.9325  1.2315
  853MOL0     H15136   6.573   7.884   1.822  2.0927  0.4482 -0.5869
  853MOL0     H15137   5.641   7.869   1.700  2.5408  0.1057  2.1144
  853MOL0     H15138   5.401   7.834   1.707  0.9646 -1.5342 -0.3451
  853MOL0     H15139   5.100   7.793   2.134  1.3959 -0.9305  0.3240
  853MOL0     H15140   4.861   7.829   2.196 -1.0481  0.1760  0.1688
  853MOL0     H15141   5.827   7.639   2.436 -3.3928  0.7245 -1.1111
  853MOL0     H15142   6.044   7.768   2.455 -0.0385 -0.7067  1.6553
  853MOL0     H15143   6.365   7.954   2.259  1.2274 -1.7032  1.7033
  853MOL0     H15144   6.598   8.036   2.294  0.7235  0.1872 -0.8856
  853MOL0     H15145   6.607   8.430   2.536  0.0040 -0.5252 -2.6245
  853MOL0     H15146   6.674   8.301   2.638  2.0299 -0.9927 -1.4525
  853MOL0     H15147   6.832   8.481   2.608  1.2396  0.5433 -0.9979
  853MOL0     H15148   6.813   8.476   2.439 -2.5475  0.0052  1.0635
  853MOL0     H15149   6.946   8.254   2.418 -0.8121 -0.3831  0.7805
  853MOL0     H15150   6.925   8.242   2.597 -1.6564 -0.5711 -0.3536
  853MOL0     H15151   7.077   8.402   2.642  2.2825  0.2003 -0.2502
  853MOL0     H15152   7.061   8.488   2.499 -1.4893 -0.3027 -1.9280
  853MOL0     H15153   7.361   8.165   2.432  0.3971  0.8814 -1.2405
  853MOL0     H15154   6.437   8.338   2.562  0.8435 -0.7302  1.2768
  853MOL0     H15155   6.219   8.257   2.538 -0.9163 -2.1092  0.0549
  854MOL0     O15156  10.148   1.979   7.629 -0.2796  0.1185 -0.3393
  854MOL0     C15157  10.135   2.083   7.695 -0.8400 -0.1069 -0.2739
  854MOL0     O15158  10.024   2.127   7.744  0.8612 -0.2872  0.5255
  854MOL0     C15159   9.901   2.062   7.718  0.1022 -0.0176 -1.1246
  854MOL0     C15160   9.887   1.923   7.710 -0.1592 -0.4260 -0.4728
  854MOL0     C15161   9.769   1.855   7.681 -0.3001 -0.4795  0.0409
  854MOL0     C15162   9.653   1.935   7.671  0.5133 -0.2286  1.1655
  854MOL0     O15163   9.537   1.881   7.618 -0.1366 -0.1432 -0.4473
  854MOL0     C15164   9.506   1.751   7.657  0.4639  1.1356 -0.0250
  854MOL0     C15165   9.361   1.727   7.647  0.5191  0.3730  1.4149
  854MOL0     C15166   9.311   1.725   7.503 -0.1911 -0.4839 -0.6823
  854MOL0     C15167   9.272   1.865   7.443 -0.7606 -0.2884  0.5582
  854MOL0     C15168   9.154   1.857   7.351 -0.6992  0.2961 -0.3181
  854MOL0     C15169   9.018   1.856   7.415  1.2200 -0.1195  0.3076
  854MOL0     C15170   8.908   1.839   7.310 -0.7664 -0.2626 -0.0498
  854MOL0     C15171   8.782   1.780   7.372 -0.3394  0.1100  0.2815
  854MOL0     N15172   8.729   1.855   7.480  0.2222  0.3354  0.1183
  854MOL0     C15173   8.661   1.975   7.468 -0.3490 -0.0451 -0.2838
  854MOL0     C15174   8.604   1.979   7.593 -0.0052 -0.7365  0.0304
  854MOL0     C15175   8.510   2.086   7.635 -0.2926  0.2547 -1.4093
  854MOL0     C15176   8.367   2.045   7.654  0.1185  0.6845  0.3170
  854MOL0     C15177   8.303   2.017   7.513 -0.0938 -0.7597  0.3646
  854MOL0     C15178   8.160   1.966   7.511 -0.1067  0.0393  0.0955
  854MOL0     O15179   8.064   2.079   7.514  0.2736  0.2588 -0.3566
  854MOL0     C15180   7.929   2.052   7.516 -0.1200  0.0893  0.0989
  854MOL0     C15181   7.872   1.920   7.518 -1.1595 -0.2136  0.0049
  854MOL0     C15182   7.734   1.909   7.522 -0.1163  0.4225  0.6067
  854MOL0     C15183   7.682   1.764   7.508  0.9517 -0.1229  0.3646
  854MOL0     C15184   7.654   2.021   7.521  0.7865  0.7974 -0.8549
  854MOL0     C15185   7.504   2.012   7.512 -0.0448  0.3474 -0.0317
  854MOL0     O15186   7.452   1.902   7.451  0.6901  0.1651 -0.4659
  854MOL0     C15187   7.313   1.900   7.467  0.9161 -0.2761 -0.5757
  854MOL0     C15188   7.224   1.958   7.376  0.4769 -1.3974 -0.3346
  854MOL0     C15189   7.084   1.956   7.388  0.7232  0.8601  0.4347
  854MOL0     C15190   7.033   1.886   7.494 -0.3269 -0.1699  0.5256
  854MOL0     O15191   6.896   1.874   7.511 -0.4639  1.1314 -0.4789
  854MOL0     C15192   6.825   1.814   7.407 -0.9910 -0.4569 -0.2418
  854MOL0     C15193   6.677   1.804   7.441 -0.4196  0.2023 -0.2702
  854MOL0     C15194   6.612   1.933   7.479 -0.0587 -0.5179 -0.1335
  854MOL0     C15195   6.459   1.914   7.480  0.0549  0.0709  0.5727
  854MOL0     C15196   6.383   2.048   7.513 -0.4980 -0.4045 -0.0412
  854MOL0     C15197   6.235   2.041   7.484 -0.2357  0.2154  0.1709
  854MOL0     C15198   6.157   2.160   7.535 -0.4802  0.0752  0.6151
  854MOL0     C15199   6.018   2.167   7.479  0.8389 -0.1843  0.1642
  854MOL0    Cl15200   6.037   2.207   7.302  0.4546 -0.5441  0.2603
  854MOL0     C15201   7.119   1.822   7.583  1.1673 -0.1343 -0.5189
  854MOL0     C15202   7.252   1.830   7.575  0.5996  0.1614  0.1989
  854MOL0     O15203   7.444   2.107   7.568 -0.4479  0.1811  0.6687
  854MOL0     C15204   7.717   2.145   7.526 -0.9947 -0.6597  0.8394
  854MOL0     C15205   7.858   2.162   7.523  0.5305 -0.6103  0.3947
  854MOL0     N15206   8.659   1.877   7.675 -0.5254 -0.5052 -0.1469
  854MOL0     N15207   8.742   1.806   7.611  0.3587 -0.7961 -0.1510
  854MOL0     C15208   9.656   2.073   7.697 -0.4338  0.0028  0.6898
  854MOL0     C15209   9.778   2.131   7.729  0.3014 -0.3762 -0.3329
  854MOL0     C15210  10.260   2.148   7.735  0.7929  0.1155  1.0235
  854MOL0     C15211  10.264   2.250   7.823 -0.2540 -0.9079 -0.2592
  854MOL0     C15212  10.385   2.325   7.836  0.3311 -0.7014 -0.1888
  854MOL0     C15213  10.496   2.294   7.755  0.6649 -0.5709 -0.1938
  854MOL0     O15214  10.594   2.386   7.768 -0.0572  0.1595 -0.6797
  854MOL0     C15215  10.728   2.350   7.727  0.2468  0.6640 -0.0282
  854MOL0     C15216  10.827   2.410   7.830 -0.2425 -0.6112  0.4832
  854MOL0     C15217  10.966   2.452   7.760  0.1570 -0.0086 -0.2765
  854MOL0     C15218  10.962   2.599   7.703  0.7747  0.2701  1.0685
  854MOL0     C15219  11.098   2.644   7.671  0.7376  0.5487 -0.2297
  854MOL0     C15220  11.218   2.668   7.663  0.4065  0.6872 -0.4133
  854MOL0     C15221  10.498   2.179   7.681  0.5068  0.0528  0.8565
  854MOL0     C15222  10.381   2.110   7.670  0.7380  1.1607  0.3123
  854MOL0     H15223   9.974   1.860   7.721  0.2994  0.2220 -0.3631
  854MOL0     H15224   9.774   1.755   7.639  5.0506  0.0114 -1.2467
  854MOL0     H15225   9.557   1.678   7.593 -2.6153 -0.6408 -0.6577
  854MOL0     H15226   9.530   1.737   7.763 -0.7401  0.3411  0.1503
  854MOL0     H15227   9.343   1.627   7.688 -1.0960 -0.7323 -1.6826
  854MOL0     H15228   9.304   1.789   7.716 -1.0877  1.0728 -0.4447
  854MOL0     H15229   9.387   1.684   7.435  0.0081 -0.1047 -0.6919
  854MOL0     H15230   9.224   1.659   7.497  0.3779 -1.4405  0.9209
  854MOL0     H15231   9.246   1.930   7.528  0.8560 -1.0250  1.6820
  854MOL0     H15232   9.356   1.915   7.395 -0.4345 -0.7628  0.6263
  854MOL0     H15233   9.145   1.947   7.289 -1.7268  1.5074  1.5207
  854MOL0     H15234   9.161   1.770   7.284 -0.0185  0.0281  0.0948
  854MOL0     H15235   9.008   1.768   7.479  2.1848 -0.5962 -0.1842
  854MOL0     H15236   9.000   1.951   7.467 -2.4671 -0.4420 -0.0672
  854MOL0     H15237   8.891   1.943   7.280 -0.8548 -0.0159  0.8382
  854MOL0     H15238   8.948   1.779   7.227 -1.4999 -0.3718 -0.3337
  854MOL0     H15239   8.796   1.677   7.407 -2.0461 -0.1523  0.2542
  854MOL0     H15240   8.709   1.780   7.291 -0.2819  3.3857  0.1112
  854MOL0     H15241   8.635   2.033   7.380  0.4141 -3.0537 -2.6539
  854MOL0     H15242   8.549   2.128   7.728  0.2468 -1.1858 -0.9722
  854MOL0     H15243   8.497   2.160   7.555 -0.5949  2.0850  0.2381
  854MOL0     H15244   8.299   2.122   7.694 -3.0478  0.2068 -3.5269
  854MOL0     H15245   8.363   1.960   7.723  3.4764 -0.6814 -0.9867
  854MOL0     H15246   8.359   1.941   7.457 -2.2131 -1.0441 -1.5327
  854MOL0     H15247   8.301   2.108   7.453  0.7467 -0.6380  0.5191
  854MOL0     H15248   8.145   1.912   7.605 -2.8832  1.5758  0.6537
  854MOL0     H15249   8.136   1.906   7.423 -0.3760  0.6195 -0.2363
  854MOL0     H15250   7.939   1.835   7.510  1.9484  2.1240 -0.8144
  854MOL0     H15251   7.757   1.694   7.547  3.1387  3.0134  2.2469
  854MOL0     H15252   7.597   1.755   7.576  1.8293  1.8861  1.8256
  854MOL0     H15253   7.664   1.751   7.401 -0.0640  1.2345  0.3478
  854MOL0     H15254   7.265   2.013   7.291  0.1996 -1.2094 -0.3470
  854MOL0     H15255   7.009   1.996   7.320  0.7053 -0.3747 -0.3035
  854MOL0     H15256   6.830   1.884   7.324  0.8751 -1.5166 -1.0717
  854MOL0     H15257   6.870   1.717   7.388 -1.5793 -0.8412  0.2550
  854MOL0     H15258   6.630   1.771   7.348 -0.9870 -0.0549  0.1045
  854MOL0     H15259   6.656   1.728   7.517 -1.2388  1.3295  0.6683
  854MOL0     H15260   6.641   2.007   7.404 -2.1860  1.7815  1.1340
  854MOL0     H15261   6.645   1.971   7.576 -1.8017 -2.0380  1.1172
  854MOL0     H15262   6.437   1.868   7.384 -0.3654  0.0615  0.6724
  854MOL0     H15263   6.414   1.839   7.546 -1.1813 -0.6399 -1.0174
  854MOL0     H15264   6.424   2.129   7.452 -1.0965 -1.1498 -1.4776
  854MOL0     H15265   6.411   2.076   7.615  5.7629  0.9514 -1.6877
  854MOL0     H15266   6.231   2.041   7.374  2.1009 -0.2089  0.0336
  854MOL0     H15267   6.193   1.951   7.528 -1.6936  1.6944  1.9356
  854MOL0     H15268   6.214   2.252   7.521 -0.4922 -0.1138 -0.8542
  854MOL0     H15269   6.141   2.150   7.642 -2.0625  0.5401  0.4496
  854MOL0     H15270   5.969   2.253   7.524 -1.7496 -0.5791 -1.6230
  854MOL0     H15271   5.955   2.080   7.499 -3.3154  2.2731 -0.9246
  854MOL0     H15272   7.071   1.769   7.665  4.0759 -3.0754 -0.5185
  854MOL0     H15273   7.311   1.779   7.650  2.1939  1.1501 -0.3295
  854MOL0     H15274   7.648   2.228   7.526  1.2688  1.3859 -1.0789
  854MOL0     H15275   7.908   2.258   7.534  0.9327 -0.8917  1.0965
  854MOL0     H15276   9.566   2.133   7.704 -0.0948  0.4105  1.5917
  854MOL0     H15277   9.775   2.233   7.764  0.3695 -0.2490 -0.6930
  854MOL0     H15278  10.171   2.271   7.875 -0.0928 -2.2674  0.6453
  854MOL0     H15279  10.383   2.411   7.903 -0.0770 -0.0594 -1.0091
  854MOL0     H15280  10.740   2.242   7.735  0.7289  0.8378  3.2425
  854MOL0     H15281  10.744   2.377   7.623 -1.8890  0.0243 -0.5655
  854MOL0     H15282  10.846   2.340   7.913  1.2228  3.2593  3.7441
  854MOL0     H15283  10.794   2.500   7.882  0.8449  0.6208 -0.8853
  854MOL0     H15284  10.978   2.377   7.681  0.1797  0.1004 -0.3778
  854MOL0     H15285  11.057   2.441   7.818 -0.9557 -0.9720  1.3661
  854MOL0     H15286  10.925   2.671   7.776  1.1575  2.7515 -1.0639
  854MOL0     H15287  10.903   2.605   7.612  1.3269  0.6566  0.7318
  854MOL0     H15288  11.322   2.693   7.661  0.2795  1.2816 -2.9719
  854MOL0     H15289  10.586   2.147   7.626 -1.4125 -3.2170 -0.5885
  854MOL0     H15290  10.377   2.027   7.600 -2.3513  0.1642  1.4592
  855MOL0     O15291   2.197   1.629   5.267  0.0008  0.0540  0.6370
  855MOL0     C15292   2.209   1.724   5.354 -0.3009  0.0245  0.0629
  855MOL0     O15293   2.123   1.817   5.389 -0.1806 -0.0198  0.9141
  855MOL0     C15294   1.998   1.825   5.328  0.2858  0.4942 -1.1997
  855MOL0     C15295   1.908   1.869   5.421  0.0935  0.1998 -0.1633
  855MOL0     C15296   1.776   1.866   5.384 -0.6673 -0.0281  0.6251
  855MOL0     C15297   1.737   1.832   5.254 -0.2507 -0.0343  0.1071
  855MOL0     O15298   1.613   1.841   5.203 -0.3821  0.2135 -0.0670
  855MOL0     C15299   1.501   1.889   5.284 -0.3358 -0.0427  0.5919
  855MOL0     C15300   1.379   1.907   5.191  0.4624 -0.2157 -0.2555
  855MOL0     C15301   1.305   1.774   5.181  1.1225  0.8414 -0.2401
  855MOL0     C15302   1.203   1.755   5.061 -0.5466  0.8001 -0.4230
  855MOL0     C15303   1.079   1.840   5.098  0.2829  0.1921  0.1670
  855MOL0     C15304   1.007   1.875   4.966  0.1668  0.4872  0.4332
  855MOL0     C15305   0.879   1.953   4.996  0.0816 -0.5051  0.2476
  855MOL0     C15306   0.828   2.026   4.870 -0.6639 -0.1095  0.2397
  855MOL0     N15307   0.691   2.081   4.881 -0.0647  0.2160  0.2890
  855MOL0     C15308   0.654   2.187   4.961  0.6413 -0.5255  0.0192
  855MOL0     C15309   0.525   2.214   4.929  0.2676 -0.3906 -0.4492
  855MOL0     C15310   0.441   2.327   4.997 -1.1665  0.0066  0.2001
  855MOL0     C15311   0.349   2.282   5.116 -0.0292  0.2816  0.6027
  855MOL0     C15312   0.219   2.217   5.069 -0.6238 -0.5946 -0.2463
  855MOL0     C15313   0.110   2.325   5.033  0.0766 -0.6005  0.5965
  855MOL0     O15314   0.071   2.392   5.155  0.1054 -0.2580  0.2880
  855MOL0     C15315  -0.037   2.472   5.149  0.0049 -0.4963 -0.9528
  855MOL0     C15316  -0.144   2.435   5.224  0.7716 -0.2365  0.0628
  855MOL0     C15317  -0.253   2.514   5.224  0.5884  1.0492  0.4831
  855MOL0     C15318  -0.375   2.459   5.319  0.3864  0.3342 -0.7376
  855MOL0     C15319  -0.262   2.630   5.140 -0.3801 -0.0025 -0.0904
  855MOL0     C15320  -0.388   2.717   5.126 -1.0901  0.1156 -0.1829
  855MOL0     O15321  -0.489   2.696   5.218  0.0012  0.1906  0.2751
  855MOL0     C15322  -0.591   2.787   5.231 -0.1399 -0.1431 -0.4560
  855MOL0     C15323  -0.653   2.847   5.121  0.6738  0.1187  0.3705
  855MOL0     C15324  -0.775   2.920   5.141 -0.2070  1.0721  0.1771
  855MOL0     C15325  -0.810   2.954   5.274  0.9120 -0.0162 -0.6263
  855MOL0     O15326  -0.918   3.035   5.293 -0.0587  0.8191 -0.0625
  855MOL0     C15327  -0.871   3.168   5.332 -0.4951  1.2958  0.2699
  855MOL0     C15328  -0.937   3.280   5.261  0.4417  0.1606  0.3920
  855MOL0     C15329  -0.898   3.276   5.108  0.4634 -0.2701  0.4423
  855MOL0     C15330  -1.007   3.351   5.028  0.3807 -0.7836 -0.9794
  855MOL0     C15331  -0.984   3.381   4.871  0.3048  0.6083 -0.3874
  855MOL0     C15332  -1.130   3.402   4.803 -0.8655 -0.3039  0.4366
  855MOL0     C15333  -1.130   3.490   4.677  0.5741 -0.1223 -1.0873
  855MOL0     C15334  -1.082   3.416   4.556 -0.8652  0.9552 -0.2032
  855MOL0    Cl15335  -0.910   3.407   4.543  0.0729 -0.0175 -0.1306
  855MOL0     C15336  -0.743   2.896   5.388  0.7820  0.1021  0.1935
  855MOL0     C15337  -0.639   2.808   5.361 -0.1743  0.2704  0.3734
  855MOL0     O15338  -0.378   2.800   5.034  0.0250 -0.5296 -0.6417
  855MOL0     C15339  -0.146   2.664   5.070  0.1662 -0.2184  0.1594
  855MOL0     C15340  -0.029   2.591   5.081  0.9241 -0.2505  0.4958
  855MOL0     N15341   0.485   2.120   4.840 -0.1683 -0.7293 -0.6599
  855MOL0     N15342   0.585   2.046   4.811 -0.3755 -0.0627  1.0633
  855MOL0     C15343   1.829   1.800   5.162 -0.8684  0.8192  0.5174
  855MOL0     C15344   1.959   1.791   5.201  0.5991 -0.0649 -0.2626
  855MOL0     C15345   2.335   1.746   5.423  0.4439 -0.8822 -0.8584
  855MOL0     C15346   2.339   1.802   5.552  0.1281 -0.2341 -0.6057
  855MOL0     C15347   2.453   1.818   5.620 -0.1251 -0.0610  0.5255
  855MOL0     C15348   2.575   1.788   5.556  0.2935  0.4236 -0.2356
  855MOL0     O15349   2.705   1.810   5.597  0.3426 -0.1428  0.5010
  855MOL0     C15350   2.739   1.841   5.729 -0.1385 -0.4273 -0.8375
  855MOL0     C15351   2.871   1.922   5.719  0.5290 -0.3004 -0.5153
  855MOL0     C15352   3.001   1.835   5.695  1.1069 -0.1210  0.7317
  855MOL0     C15353   3.131   1.914   5.694 -1.0478 -0.4623 -0.6445
  855MOL0     C15354   3.167   1.947   5.836 -0.0334 -0.1036 -0.4311
  855MOL0     C15355   3.182   1.996   5.948 -0.0388 -0.0082  0.7296
  855MOL0     C15356   2.573   1.728   5.430  0.2973  0.0243  0.8670
  855MOL0     C15357   2.449   1.704   5.358 -0.6092 -0.0001 -0.1283
  855MOL0     H15358   1.928   1.899   5.524 -0.5844  2.3102 -0.5979
  855MOL0     H15359   1.704   1.919   5.445  0.6454  1.0240  1.2965
  855MOL0     H15360   1.482   1.814   5.361  0.7985  1.1783  2.1358
  855MOL0     H15361   1.524   1.980   5.339  3.6223  0.0336 -0.8420
  855MOL0     H15362   1.309   1.977   5.238 -0.3082 -0.1864 -1.3799
  855MOL0     H15363   1.407   1.960   5.099 -1.0632  0.6055 -0.2783
  855MOL0     H15364   1.387   1.702   5.173 -1.1916 -2.0053  0.0233
  855MOL0     H15365   1.256   1.760   5.278  0.2610  3.6787 -0.1524
  855MOL0     H15366   1.236   1.795   4.965 -0.7478  1.1205 -0.3605
  855MOL0     H15367   1.163   1.654   5.046 -1.1258  0.5654  2.2037
  855MOL0     H15368   1.020   1.780   5.168  0.8047  0.3365  0.7272
  855MOL0     H15369   1.109   1.929   5.152 -0.1248  0.3234  0.1789
  855MOL0     H15370   1.062   1.930   4.889 -1.0674 -0.9147 -1.5621
  855MOL0     H15371   0.978   1.781   4.917  0.2193  0.4793  0.4171
  855MOL0     H15372   0.802   1.883   5.031  0.2999 -0.7563  0.2375
  855MOL0     H15373   0.887   2.022   5.080 -1.9119 -0.1523  0.1801
  855MOL0     H15374   0.827   1.950   4.790 -1.8016 -0.4555  0.5765
  855MOL0     H15375   0.897   2.104   4.836 -0.0808 -0.6744  0.0883
  855MOL0     H15376   0.725   2.226   5.033  1.1555  1.0080 -1.2550
  855MOL0     H15377   0.509   2.398   5.045 -0.2004 -2.1846  2.2687
  855MOL0     H15378   0.388   2.388   4.922  1.9591  0.6324 -1.6661
  855MOL0     H15379   0.325   2.368   5.180  0.1773 -0.5730  1.8749
  855MOL0     H15380   0.408   2.208   5.172  1.9532  0.3485 -1.2943
  855MOL0     H15381   0.172   2.160   5.150 -2.0422 -0.8138 -1.1995
  855MOL0     H15382   0.249   2.149   4.989 -0.8562 -0.5422 -0.3786
  855MOL0     H15383   0.028   2.270   4.986  0.8783 -0.6948 -0.7644
  855MOL0     H15384   0.153   2.387   4.954 -1.6117  0.2857  0.3266
  855MOL0     H15385  -0.139   2.347   5.287  2.1914  1.0045  1.8000
  855MOL0     H15386  -0.361   2.360   5.362  0.6261  1.6161  2.3921
  855MOL0     H15387  -0.400   2.540   5.389 -1.0827  0.3942 -1.3152
  855MOL0     H15388  -0.462   2.454   5.253  0.2584 -0.3384 -0.5245
  855MOL0     H15389  -0.622   2.803   5.027  0.9502 -1.3503  1.1199
  855MOL0     H15390  -0.837   2.951   5.057 -1.5673  2.2536  1.5461
  855MOL0     H15391  -0.889   3.172   5.439 -0.7293 -2.7320  0.5086
  855MOL0     H15392  -0.766   3.192   5.313 -0.5769  0.0631 -2.1426
  855MOL0     H15393  -1.044   3.259   5.269  0.5262 -1.0825 -1.1242
  855MOL0     H15394  -0.907   3.365   5.323  0.7781 -0.0183  0.4760
  855MOL0     H15395  -0.882   3.172   5.077 -0.0145 -0.0155 -0.7357
  855MOL0     H15396  -0.805   3.330   5.091 -0.3925  1.0819 -0.1398
  855MOL0     H15397  -1.102   3.297   5.037 -2.0318  2.4490 -4.1542
  855MOL0     H15398  -1.024   3.447   5.079 -1.9102 -2.7863  2.4309
  855MOL0     H15399  -0.928   3.303   4.818 -0.5697  0.3945 -1.0103
  855MOL0     H15400  -0.916   3.467   4.878  0.0017  0.7332  1.2830
  855MOL0     H15401  -1.188   3.312   4.782 -2.2886  0.0613  2.4613
  855MOL0     H15402  -1.197   3.461   4.867 -1.9733 -0.3173 -0.6816
  855MOL0     H15403  -1.073   3.580   4.702  2.9856 -1.4971 -1.2630
  855MOL0     H15404  -1.233   3.520   4.659  0.5857 -0.7592 -2.2851
  855MOL0     H15405  -1.124   3.448   4.460 -0.7736  1.1318 -0.1840
  855MOL0     H15406  -1.128   3.318   4.571 -1.4264  1.0621 -1.1478
  855MOL0     H15407  -0.777   2.914   5.490  0.5372 -0.8393  0.2853
  855MOL0     H15408  -0.595   2.768   5.452 -4.4650 -0.1427  2.5258
  855MOL0     H15409  -0.144   2.757   5.014 -0.2206 -1.0234 -1.2451
  855MOL0     H15410   0.056   2.619   5.019 -0.2685 -0.7309 -1.4616
  855MOL0     H15411   1.798   1.785   5.059  0.2140  2.6728 -0.1348
  855MOL0     H15412   2.015   1.735   5.127 -0.1190 -0.3803 -0.5761
  855MOL0     H15413   2.253   1.825   5.614 -1.5563 -1.5486 -2.3475
  855MOL0     H15414   2.450   1.844   5.725  0.7945 -0.9268  0.7812
  855MOL0     H15415   2.665   1.904   5.779  2.5908  1.0146  1.6882
  855MOL0     H15416   2.747   1.749   5.788 -0.0220  0.1582  0.0795
  855MOL0     H15417   2.890   1.976   5.812 -2.3104  4.0141 -2.1190
  855MOL0     H15418   2.858   2.005   5.649 -1.7897  1.3363  1.6883
  855MOL0     H15419   2.999   1.779   5.601 -2.2027 -1.0314  1.2028
  855MOL0     H15420   3.003   1.756   5.771  1.0863  1.6013  2.6210
  855MOL0     H15421   3.138   2.008   5.639 -0.5072  0.4392  0.9035
  855MOL0     H15422   3.201   1.840   5.655 -1.0063 -0.0077 -1.4440
  855MOL0     H15423   3.196   2.047   6.041  0.1765  1.4553 -0.0652
  855MOL0     H15424   2.661   1.684   5.384  0.7399  0.4692  1.2804
  855MOL0     H15425   2.451   1.657   5.260  1.4745  0.3168 -0.2922
  856MOL0     O15426   3.057   6.819   5.284  0.2325 -0.6709  0.3601
  856MOL0     C15427   3.109   6.887   5.198  0.0916 -0.5188 -0.6963
  856MOL0     O15428   3.051   6.972   5.111 -0.5470  0.7332  0.2711
  856MOL0     C15429   2.911   6.988   5.119 -0.4794 -0.1165  0.8655
  856MOL0     C15430   2.867   7.060   5.228 -0.1088 -0.4391  0.2651
  856MOL0     C15431   2.733   7.082   5.241  0.1856  0.1768  0.1310
  856MOL0     C15432   2.638   7.026   5.151 -0.3224 -0.1563  0.2902
  856MOL0     O15433   2.503   7.043   5.176 -0.3451  0.4820 -0.3412
  856MOL0     C15434   2.405   6.999   5.088 -0.9687  0.7699 -0.7245
  856MOL0     C15435   2.266   7.028   5.143 -0.0422  0.1892  0.9807
  856MOL0     C15436   2.254   7.179   5.129  0.7401 -0.6878 -0.0487
  856MOL0     C15437   2.123   7.242   5.179  0.4602  0.7348 -0.4407
  856MOL0     C15438   2.011   7.226   5.074 -0.8598  0.4563  0.3557
  856MOL0     C15439   1.887   7.300   5.109 -0.8598 -0.2722  0.0407
  856MOL0     C15440   1.769   7.264   5.021  0.5509 -0.6328 -1.0667
  856MOL0     C15441   1.696   7.135   5.061 -0.2467  0.2095 -0.2429
  856MOL0     N15442   1.635   7.074   4.942  0.8019 -0.2357 -0.0683
  856MOL0     C15443   1.549   7.143   4.852 -0.1548 -0.1352  0.0310
  856MOL0     C15444   1.549   7.070   4.739 -0.5851  0.1503 -0.5881
  856MOL0     C15445   1.466   7.100   4.617  0.5635 -0.3791  0.3560
  856MOL0     C15446   1.385   6.972   4.588 -0.1467  0.0062 -0.4081
  856MOL0     C15447   1.241   6.989   4.628  0.0926 -0.4474  0.4773
  856MOL0     C15448   1.172   6.856   4.628  0.7556 -0.1694 -0.8765
  856MOL0     O15449   1.032   6.867   4.666  0.6586  0.1786 -0.1500
  856MOL0     C15450   0.959   6.750   4.671  0.2040 -0.3810  0.2754
  856MOL0     C15451   0.988   6.631   4.609  0.0060 -0.9307 -0.3603
  856MOL0     C15452   0.897   6.527   4.587  0.9223 -0.1530 -0.9293
  856MOL0     C15453   0.936   6.399   4.527 -0.0189 -0.2074  0.7073
  856MOL0     C15454   0.762   6.546   4.634  0.5146 -0.4225 -0.2013
  856MOL0     C15455   0.653   6.439   4.624  0.3773  0.5907 -0.2183
  856MOL0     O15456   0.541   6.475   4.553  0.7273  0.7037  0.9648
  856MOL0     C15457   0.425   6.417   4.579  0.2543  0.1487  0.4918
  856MOL0     C15458   0.350   6.454   4.689  0.5069  0.4436 -0.1124
  856MOL0     C15459   0.228   6.385   4.716  0.3961  0.0277 -0.6908
  856MOL0     C15460   0.177   6.285   4.632  0.2873  1.1255  0.0820
  856MOL0     O15461   0.050   6.231   4.655 -0.3482 -0.5894 -0.1982
  856MOL0     C15462  -0.051   6.288   4.561  0.3438  0.7697 -0.7063
  856MOL0     C15463  -0.194   6.291   4.612  0.3685 -0.1706  0.3004
  856MOL0     C15464  -0.206   6.349   4.753 -0.4088  0.2027 -0.1350
  856MOL0     C15465  -0.354   6.371   4.790 -0.0004 -0.1005  0.7488
  856MOL0     C15466  -0.372   6.459   4.916 -0.2459  0.0406 -0.3227
  856MOL0     C15467  -0.289   6.427   5.043 -0.0283  0.4936 -0.2534
  856MOL0     C15468  -0.328   6.285   5.096  0.1563 -0.7988 -0.5226
  856MOL0     C15469  -0.316   6.272   5.250  0.2833  1.0890 -0.2090
  856MOL0    Cl15470  -0.144   6.288   5.302  0.0342 -0.6476  0.2323
  856MOL0     C15471   0.253   6.248   4.518  0.0129  0.2705 -0.1714
  856MOL0     C15472   0.373   6.313   4.497 -0.6848 -0.3337  0.0586
  856MOL0     O15473   0.658   6.336   4.689  0.7200  0.1695 -0.2100
  856MOL0     C15474   0.730   6.669   4.687  0.0869  0.4014  0.0803
  856MOL0     C15475   0.825   6.770   4.704  0.4418 -0.5980 -0.6639
  856MOL0     N15476   1.632   6.958   4.767  0.1175 -0.4321  0.2518
  856MOL0     N15477   1.688   6.962   4.885 -0.4180  0.6852 -0.3158
  856MOL0     C15478   2.689   6.949   5.053 -0.4246  0.1435  0.2123
  856MOL0     C15479   2.825   6.928   5.033  0.1363 -0.1170  0.5842
  856MOL0     C15480   3.258   6.885   5.192 -0.4463 -1.4453 -0.8755
  856MOL0     C15481   3.339   6.845   5.301  0.6475  0.1298  0.6570
  856MOL0     C15482   3.480   6.830   5.282  0.3359  0.5481 -0.2692
  856MOL0     C15483   3.536   6.833   5.154  0.0966  0.1103  0.6110
  856MOL0     O15484   3.661   6.775   5.126  0.3812 -0.5779  0.1571
  856MOL0     C15485   3.743   6.790   5.013  0.8787  0.3825  1.1234
  856MOL0     C15486   3.881   6.735   5.045  0.3123  0.6440  0.0611
  856MOL0     C15487   3.969   6.762   4.925  0.5970  0.8642  0.5029
  856MOL0     C15488   4.093   6.665   4.928 -0.8003 -0.6585  0.6463
  856MOL0     C15489   4.195   6.699   5.023 -0.5139 -0.8514 -0.5672
  856MOL0     C15490   4.262   6.747   5.115  0.3917  0.3638 -0.3738
  856MOL0     C15491   3.459   6.888   5.053  0.0459 -0.8579  0.2707
  856MOL0     C15492   3.328   6.914   5.074  0.5644 -0.3510 -1.0302
  856MOL0     H15493   2.937   7.101   5.301  0.7148  1.1883 -1.3679
  856MOL0     H15494   2.687   7.136   5.323  0.8431  1.4497 -0.3119
  856MOL0     H15495   2.421   7.028   4.984 -2.4075  2.2465 -0.5832
  856MOL0     H15496   2.409   6.890   5.092  0.3010  0.8408  1.5514
  856MOL0     H15497   2.182   6.974   5.100 -0.8307  1.2184  1.1846
  856MOL0     H15498   2.270   7.009   5.251 -2.5630  1.6002  1.3920
  856MOL0     H15499   2.341   7.227   5.175  0.9067 -1.0619  0.0243
  856MOL0     H15500   2.263   7.218   5.027  1.8300  3.2375  1.3616
  856MOL0     H15501   2.100   7.209   5.280 -0.1510  4.1685  0.6987
  856MOL0     H15502   2.141   7.350   5.186 -1.7088  1.0524  1.9445
  856MOL0     H15503   2.041   7.247   4.971 -1.2986  0.7351  0.2806
  856MOL0     H15504   1.988   7.119   5.070 -0.1843  0.2946 -3.3091
  856MOL0     H15505   1.858   7.273   5.211 -0.1727  0.8651  0.5554
  856MOL0     H15506   1.908   7.407   5.106 -1.2761 -0.1164  1.6714
  856MOL0     H15507   1.697   7.345   5.036 -0.6555 -1.5381 -1.7736
  856MOL0     H15508   1.799   7.267   4.916  2.0390 -0.6449 -0.6580
  856MOL0     H15509   1.619   7.152   5.137  0.9971 -3.5145  2.1063
  856MOL0     H15510   1.770   7.067   5.104  1.4141  1.1340 -1.5121
  856MOL0     H15511   1.489   7.232   4.861 -3.1767 -2.1652  1.7196
  856MOL0     H15512   1.401   7.187   4.629  2.1299  0.7865  0.8058
  856MOL0     H15513   1.531   7.118   4.531  2.5218 -3.5111  1.0053
  856MOL0     H15514   1.428   6.886   4.641 -0.5890  0.7665  1.2731
  856MOL0     H15515   1.393   6.955   4.480 -2.3192 -1.2140 -0.4303
  856MOL0     H15516   1.206   7.058   4.551  0.6689  2.7242  2.8248
  856MOL0     H15517   1.234   7.029   4.730 -0.3344  0.6386  0.0322
  856MOL0     H15518   1.227   6.795   4.699  4.0729  2.2176 -1.1838
  856MOL0     H15519   1.189   6.816   4.528  1.5487 -2.8032  0.2370
  856MOL0     H15520   1.091   6.617   4.577 -0.1767 -0.7405 -1.0673
  856MOL0     H15521   0.854   6.364   4.463  0.2967  0.0766  0.1432
  856MOL0     H15522   1.017   6.422   4.457 -2.3376 -0.4757 -2.2797
  856MOL0     H15523   0.962   6.332   4.610  2.1463 -1.4289 -0.8841
  856MOL0     H15524   0.388   6.519   4.767  0.8158 -0.5213  0.5572
  856MOL0     H15525   0.166   6.399   4.804 -1.8419  0.3109 -2.2274
  856MOL0     H15526  -0.030   6.391   4.534 -1.5944  1.4133  0.0703
  856MOL0     H15527  -0.055   6.215   4.479  0.0755 -1.1483  0.9174
  856MOL0     H15528  -0.251   6.365   4.555  0.2222 -0.1726  0.4416
  856MOL0     H15529  -0.238   6.191   4.609  2.6395 -1.2098 -1.0323
  856MOL0     H15530  -0.149   6.442   4.749  0.3970 -0.3131 -0.9224
  856MOL0     H15531  -0.162   6.276   4.822 -0.8662 -1.2877 -1.3593
  856MOL0     H15532  -0.399   6.426   4.707  2.1344  1.5017  0.5764
  856MOL0     H15533  -0.408   6.276   4.797  2.0795 -1.3528  0.5113
  856MOL0     H15534  -0.477   6.443   4.941  0.1361 -0.7833  0.8501
  856MOL0     H15535  -0.355   6.562   4.883  1.3614 -1.1046 -3.5113
  856MOL0     H15536  -0.185   6.410   5.013  0.4738 -0.3747  1.7988
  856MOL0     H15537  -0.309   6.501   5.121 -0.7375  2.5855 -2.3121
  856MOL0     H15538  -0.257   6.214   5.053  2.3779  0.3168  1.1186
  856MOL0     H15539  -0.427   6.253   5.063  0.4417 -2.2633 -0.0216
  856MOL0     H15540  -0.349   6.176   5.291  2.2361  0.1893 -0.6410
  856MOL0     H15541  -0.367   6.344   5.315  1.2878  1.1699  0.5287
  856MOL0     H15542   0.213   6.169   4.454 -1.4156  0.4055  0.5019
  856MOL0     H15543   0.434   6.287   4.412  1.1570 -0.5191  1.3651
  856MOL0     H15544   0.626   6.686   4.710 -1.1680 -1.6791 -3.2889
  856MOL0     H15545   0.780   6.864   4.732 -1.4696 -1.7254  0.2469
  856MOL0     H15546   2.620   6.902   4.984  0.6251 -1.2318  0.0534
  856MOL0     H15547   2.857   6.878   4.942 -0.4285  3.1059 -1.5479
  856MOL0     H15548   3.285   6.835   5.394  1.0533 -2.0536  0.7184
  856MOL0     H15549   3.546   6.803   5.364 -2.0445  0.0228  1.5794
  856MOL0     H15550   3.707   6.726   4.933  2.8649  0.9646 -0.3140
  856MOL0     H15551   3.738   6.892   4.973 -2.3002  0.5057  1.5549
  856MOL0     H15552   3.871   6.626   5.057 -2.5962  0.5195 -2.2811
  856MOL0     H15553   3.923   6.781   5.135 -0.7931 -0.4703  1.1879
  856MOL0     H15554   3.995   6.867   4.911 -0.6497  1.2692  1.0548
  856MOL0     H15555   3.919   6.737   4.830  0.7324 -2.0351  1.1011
  856MOL0     H15556   4.138   6.668   4.828  1.3552 -1.2233  1.5499
  856MOL0     H15557   4.068   6.560   4.946  1.6939 -1.6646 -1.0864
  856MOL0     H15558   4.315   6.770   5.205 -1.9287 -2.4640  1.9304
  856MOL0     H15559   3.491   6.909   4.951 -1.6425 -1.4142 -0.4137
  856MOL0     H15560   3.269   6.964   4.998 -0.1138  0.5710  0.0818
  857MOL0     O15561   7.295   3.858   3.725 -0.2888  0.2941  0.9224
  857MOL0     C15562   7.315   3.763   3.795  0.2490  0.2492  0.8211
  857MOL0     O15563   7.230   3.719   3.896  0.2992 -0.2181  0.6359
  857MOL0     C15564   7.107   3.773   3.922 -0.9972 -0.6347  0.0476
  857MOL0     C15565   7.015   3.799   3.820  0.8840  0.0539  0.3137
  857MOL0     C15566   6.899   3.863   3.852  0.3996 -0.1206  0.0898
  857MOL0     C15567   6.880   3.913   3.975  0.1859  0.6054 -1.0128
  857MOL0     O15568   6.767   3.981   4.008  0.2375  0.5108 -0.3953
  857MOL0     C15569   6.716   3.982   4.141  0.3904 -0.2319 -0.5327
  857MOL0     C15570   6.576   4.043   4.134 -0.1650  0.0082 -0.1288
  857MOL0     C15571   6.512   4.073   4.268  0.4277  1.1167 -0.9306
  857MOL0     C15572   6.380   4.140   4.240  0.4370  0.1099  0.5269
  857MOL0     C15573   6.311   4.190   4.369  0.0360 -0.6648 -0.2571
  857MOL0     C15574   6.304   4.079   4.475  1.1734  0.0721 -0.0766
  857MOL0     C15575   6.209   3.957   4.445  0.3471 -0.4938  0.6452
  857MOL0     C15576   6.258   3.830   4.517  0.0675 -0.0784 -1.4868
  857MOL0     N15577   6.359   3.759   4.439  0.4240 -0.2631  0.5216
  857MOL0     C15578   6.489   3.734   4.470  0.3113  0.1448  0.1644
  857MOL0     C15579   6.542   3.666   4.365  0.1487 -1.0226 -1.1730
  857MOL0     C15580   6.676   3.604   4.328  0.1781 -0.5416 -0.3808
  857MOL0     C15581   6.660   3.446   4.325 -0.4863 -0.1010  0.9231
  857MOL0     C15582   6.672   3.377   4.473  0.3515 -0.2648  0.0816
  857MOL0     C15583   6.539   3.376   4.557  0.1740 -0.1348  0.1943
  857MOL0     O15584   6.448   3.281   4.503  0.3587  0.8594  0.1304
  857MOL0     C15585   6.334   3.259   4.577 -0.2222 -0.4698  0.6292
  857MOL0     C15586   6.270   3.136   4.554  0.2776 -0.6300 -0.1922
  857MOL0     C15587   6.137   3.114   4.601 -0.8732  0.4199 -0.7800
  857MOL0     C15588   6.063   2.979   4.561  0.2268 -0.3944 -0.1097
  857MOL0     C15589   6.063   3.214   4.673 -0.1722  0.0729  0.8049
  857MOL0     C15590   5.934   3.200   4.743  0.4244  0.3683 -0.4744
  857MOL0     O15591   5.863   3.306   4.784 -1.0920 -0.5311 -0.4867
  857MOL0     C15592   5.743   3.276   4.834 -0.1510 -0.4281 -0.0906
  857MOL0     C15593   5.720   3.260   4.970  0.2302  0.2425  0.0151
  857MOL0     C15594   5.586   3.243   5.015 -0.1686  0.5119 -0.6257
  857MOL0     C15595   5.474   3.222   4.929  0.7732 -0.4543 -0.0014
  857MOL0     O15596   5.343   3.192   4.973  0.4914  0.3822  0.9680
  857MOL0     C15597   5.336   3.179   5.119  0.2765 -0.0632  0.0845
  857MOL0     C15598   5.194   3.153   5.168 -0.0948 -0.6454 -0.3480
  857MOL0     C15599   5.133   3.018   5.133 -0.6031  0.2938 -0.3962
  857MOL0     C15600   4.981   3.002   5.183  0.1389  0.0105 -0.2722
  857MOL0     C15601   4.918   2.888   5.113  0.1775  0.3768  0.1685
  857MOL0     C15602   4.761   2.880   5.127  0.2016 -0.2071 -0.1750
  857MOL0     C15603   4.696   2.744   5.119 -0.5104 -0.4588  0.0587
  857MOL0     C15604   4.547   2.776   5.161 -0.8319 -0.1950 -0.2404
  857MOL0    Cl15605   4.447   2.631   5.119  0.0764 -0.3130 -0.5119
  857MOL0     C15606   5.496   3.228   4.794 -0.9627 -0.7002 -0.6505
  857MOL0     C15607   5.630   3.261   4.747  0.7737  0.7903 -1.1196
  857MOL0     O15608   5.905   3.084   4.765 -0.3006  0.5887  0.1995
  857MOL0     C15609   6.124   3.340   4.684 -1.0690  0.9955  0.1396
  857MOL0     C15610   6.257   3.361   4.633 -0.3562 -0.2491  0.0898
  857MOL0     N15611   6.445   3.653   4.275  0.4885 -0.2722  0.0307
  857MOL0     N15612   6.331   3.690   4.319 -0.8339 -0.0048 -0.3283
  857MOL0     C15613   6.977   3.902   4.076  0.6412  0.2520  0.2226
  857MOL0     C15614   7.091   3.828   4.051  0.6745  0.0413  0.5476
  857MOL0     C15615   7.435   3.677   3.764 -0.1912 -0.5948 -0.0951
  857MOL0     C15616   7.461   3.559   3.834  0.2563 -0.1516  0.3012
  857MOL0     C15617   7.576   3.482   3.825 -0.5779  0.6118  0.4963
  857MOL0     C15618   7.682   3.523   3.743  0.7678  1.5882 -0.3286
  857MOL0     O15619   7.805   3.460   3.740  0.0118 -0.3024 -0.6787
  857MOL0     C15620   7.823   3.320   3.769 -0.0866 -0.3825  0.9810
  857MOL0     C15621   7.974   3.297   3.786  0.5712  0.7702 -0.4742
  857MOL0     C15622   8.036   3.366   3.917 -0.3336  0.1412 -0.1503
  857MOL0     C15623   8.181   3.414   3.899  0.2254 -0.0982 -0.1209
  857MOL0     C15624   8.269   3.306   3.857 -0.1093  0.7371 -0.6568
  857MOL0     C15625   8.346   3.218   3.812 -0.0126  0.6428 -0.1267
  857MOL0     C15626   7.664   3.641   3.671 -0.4170 -0.0039  0.2382
  857MOL0     C15627   7.547   3.717   3.684  0.4432 -0.3177 -0.2320
  857MOL0     H15628   7.034   3.763   3.719 -4.2756  0.9562 -1.2390
  857MOL0     H15629   6.818   3.874   3.781  0.5407 -1.7830 -0.3733
  857MOL0     H15630   6.713   3.881   4.181  1.9106 -0.0185  0.1844
  857MOL0     H15631   6.785   4.037   4.206  1.9072 -2.2291 -0.3815
  857MOL0     H15632   6.583   4.133   4.072  1.7841  0.3048  0.4405
  857MOL0     H15633   6.512   3.976   4.077 -3.7231  3.4549 -0.5842
  857MOL0     H15634   6.492   3.980   4.322 -0.5339  0.9752 -1.5165
  857MOL0     H15635   6.577   4.140   4.327 -1.6468  1.0971  1.5438
  857MOL0     H15636   6.402   4.224   4.174  1.8108  0.7772  1.7703
  857MOL0     H15637   6.312   4.072   4.187 -1.0861  1.5445  0.5573
  857MOL0     H15638   6.362   4.276   4.414  1.6958 -1.9099  0.3447
  857MOL0     H15639   6.206   4.215   4.350 -0.2969 -1.9796 -0.1858
  857MOL0     H15640   6.402   4.033   4.494  0.8924 -0.6099 -0.2713
  857MOL0     H15641   6.272   4.124   4.569  2.3440 -1.6504  1.2085
  857MOL0     H15642   6.106   3.985   4.469 -0.6118 -0.9401 -2.5669
  857MOL0     H15643   6.203   3.944   4.337 -1.5106  0.8672  0.5291
  857MOL0     H15644   6.175   3.766   4.551  0.3888 -1.0194 -2.4221
  857MOL0     H15645   6.308   3.869   4.607 -1.3170 -0.7199 -0.3937
  857MOL0     H15646   6.549   3.768   4.554  2.5193  0.4764 -1.4650
  857MOL0     H15647   6.701   3.633   4.226 -0.9453  0.0639 -0.4921
  857MOL0     H15648   6.760   3.638   4.390 -0.2652  0.5950 -0.3862
  857MOL0     H15649   6.740   3.406   4.261 -0.3722  1.1856  0.2392
  857MOL0     H15650   6.567   3.419   4.274 -1.3722  2.2675  1.2031
  857MOL0     H15651   6.753   3.430   4.524  2.4311 -2.3805 -0.8372
  857MOL0     H15652   6.705   3.274   4.454  1.1803  0.1337 -0.6963
  857MOL0     H15653   6.491   3.474   4.553  0.9192  0.1939 -1.5123
  857MOL0     H15654   6.556   3.349   4.662 -0.5105 -1.1724  0.0463
  857MOL0     H15655   6.305   3.065   4.479 -0.2315 -0.1893 -0.8640
  857MOL0     H15656   5.954   2.986   4.559 -0.1367 -3.6006  1.4458
  857MOL0     H15657   6.097   2.951   4.461  1.2569 -0.1119  0.1509
  857MOL0     H15658   6.093   2.904   4.635 -0.9329  1.3503  2.2661
  857MOL0     H15659   5.803   3.270   5.040  0.8079 -1.0589 -0.4423
  857MOL0     H15660   5.568   3.240   5.122  0.3009 -1.1522 -0.5612
  857MOL0     H15661   5.396   3.096   5.157 -0.5602 -0.3060  0.9275
  857MOL0     H15662   5.362   3.271   5.172 -0.6819 -0.6753  1.7030
  857MOL0     H15663   5.189   3.182   5.273  2.9078  0.5683 -0.4347
  857MOL0     H15664   5.125   3.225   5.123 -0.3411 -0.2327  0.6687
  857MOL0     H15665   5.179   2.938   5.191 -1.9527  0.2149  0.6287
  857MOL0     H15666   5.145   2.988   5.028 -0.3521 -5.6112  0.9472
  857MOL0     H15667   4.980   2.978   5.289  0.3383 -0.7014 -0.4310
  857MOL0     H15668   4.931   3.098   5.165  1.1203  0.6482  0.2324
  857MOL0     H15669   4.971   2.797   5.144  4.2156  2.4698  0.0568
  857MOL0     H15670   4.931   2.887   5.004 -1.8133 -5.0378 -0.3323
  857MOL0     H15671   4.737   2.908   5.230  0.2639 -0.7068 -0.0231
  857MOL0     H15672   4.710   2.942   5.053  1.6512 -1.1235 -2.0198
  857MOL0     H15673   4.728   2.680   5.202 -1.1055 -2.9407 -1.5162
  857MOL0     H15674   4.712   2.695   5.023 -0.5073 -1.0296  0.3478
  857MOL0     H15675   4.504   2.859   5.103  0.7986 -0.5683 -2.0795
  857MOL0     H15676   4.537   2.802   5.267  0.6426  1.2224 -0.4031
  857MOL0     H15677   5.416   3.214   4.722 -1.3631  1.0548 -0.5906
  857MOL0     H15678   5.654   3.282   4.643  0.9412  0.4932 -1.1404
  857MOL0     H15679   6.074   3.421   4.735 -0.5331  0.3796  1.7183
  857MOL0     H15680   6.293   3.463   4.631 -3.4411  1.2321  4.3798
  857MOL0     H15681   6.976   3.952   4.172 -4.6479  2.1331 -0.4808
  857MOL0     H15682   7.163   3.828   4.132 -0.7884  0.4856  1.8979
  857MOL0     H15683   7.396   3.516   3.909  0.6113 -1.0070  0.1225
  857MOL0     H15684   7.587   3.389   3.880  2.1588  0.6782  0.1889
  857MOL0     H15685   7.765   3.280   3.852 -1.6919 -0.4756 -0.1487
  857MOL0     H15686   7.800   3.269   3.675 -0.5316  2.4600 -0.5771
  857MOL0     H15687   8.018   3.305   3.687  0.7207 -1.1060 -0.5857
  857MOL0     H15688   7.973   3.191   3.813  1.3907  1.2151  1.5327
  857MOL0     H15689   8.026   3.295   4.000 -0.6380  0.2321 -0.1064
  857MOL0     H15690   7.988   3.463   3.935  2.5385  1.3297  1.8447
  857MOL0     H15691   8.223   3.465   3.986 -1.2216  0.0596  0.5227
  857MOL0     H15692   8.177   3.489   3.820  0.9134  0.6393  0.5284
  857MOL0     H15693   8.421   3.152   3.773 -0.1742  0.6270 -0.4165
  857MOL0     H15694   7.749   3.683   3.619 -1.5851  1.9289 -0.2302
  857MOL0     H15695   7.528   3.815   3.643 -0.4143  0.0823  1.0578
  858MOL0     O15696   1.013   0.964   3.017 -0.2420  0.0471 -0.3486
  858MOL0     C15697   1.019   0.897   3.123  0.0124 -1.0674 -0.0005
  858MOL0     O15698   0.919   0.859   3.198 -0.2689 -0.3208 -0.6001
  858MOL0     C15699   0.787   0.896   3.160 -0.3701  0.3287 -0.3431
  858MOL0     C15700   0.752   1.012   3.110  0.6727  0.5836  0.2948
  858MOL0     C15701   0.616   1.039   3.093 -0.6034 -0.5581  1.1355
  858MOL0     C15702   0.513   0.948   3.100  0.0219  0.1237  0.8261
  858MOL0     O15703   0.395   0.979   3.038  0.1213  0.4847  0.8104
  858MOL0     C15704   0.281   0.896   3.063  0.6392 -0.1069 -0.3445
  858MOL0     C15705   0.169   0.926   2.967 -0.1389 -1.1529  0.8992
  858MOL0     C15706   0.049   0.832   3.007  0.3888  0.2455  0.1729
  858MOL0     C15707  -0.083   0.888   2.942  0.8779  0.6452  0.5757
  858MOL0     C15708  -0.204   0.799   2.965 -0.0181  0.8201 -0.4009
  858MOL0     C15709  -0.333   0.867   2.911 -0.1848  0.6412  0.0862
  858MOL0     C15710  -0.450   0.773   2.928  0.6896 -0.0595  0.0358
  858MOL0     C15711  -0.578   0.831   2.858  0.1746  0.2320  0.4462
  858MOL0     N15712  -0.682   0.741   2.903 -0.5274 -0.2294  0.7137
  858MOL0     C15713  -0.734   0.734   3.026 -0.1710 -0.2698 -0.2821
  858MOL0     C15714  -0.805   0.623   3.020  0.7965 -0.6102 -0.6905
  858MOL0     C15715  -0.868   0.565   3.141  0.1063 -0.1590 -0.1909
  858MOL0     C15716  -1.008   0.631   3.164  0.9924 -0.2913  0.7225
  858MOL0     C15717  -1.055   0.575   3.301 -0.5048  0.1870  0.2863
  858MOL0     C15718  -1.199   0.605   3.343  0.0883  0.5785  0.1167
  858MOL0     O15719  -1.292   0.514   3.273  0.0408  0.1190  0.3358
  858MOL0     C15720  -1.426   0.521   3.307 -0.0061 -0.4579  0.3749
  858MOL0     C15721  -1.492   0.618   3.374  0.2499 -0.7847 -0.7196
  858MOL0     C15722  -1.633   0.610   3.389  0.2279 -0.2226 -0.0771
  858MOL0     C15723  -1.692   0.720   3.467 -0.4467 -0.5774 -0.9214
  858MOL0     C15724  -1.706   0.510   3.331 -0.0716  0.7430  0.0295
  858MOL0     C15725  -1.857   0.502   3.339  0.6716  0.3810 -1.0026
  858MOL0     O15726  -1.912   0.378   3.329  0.0780  0.2182  0.3500
  858MOL0     C15727  -2.044   0.373   3.311 -0.5003  0.8620  0.0072
  858MOL0     C15728  -2.119   0.292   3.403  0.4421 -0.2314  0.2722
  858MOL0     C15729  -2.258   0.285   3.389 -0.0458 -0.2583 -0.1138
  858MOL0     C15730  -2.324   0.348   3.281 -0.5458 -0.7985 -0.3157
  858MOL0     O15731  -2.462   0.337   3.274  0.2167 -0.6238 -0.3964
  858MOL0     C15732  -2.535   0.406   3.175 -0.3531 -0.1223 -0.1152
  858MOL0     C15733  -2.680   0.385   3.188  0.4748  0.6787  0.2241
  858MOL0     C15734  -2.734   0.460   3.304 -0.2809  0.5771  0.0378
  858MOL0     C15735  -2.878   0.432   3.350 -1.2638 -0.6397 -0.1649
  858MOL0     C15736  -2.966   0.373   3.243 -0.2773 -0.0376  0.3821
  858MOL0     C15737  -3.113   0.374   3.286 -0.0418  0.1761 -0.6803
  858MOL0     C15738  -3.137   0.275   3.408  0.1402 -0.3862  0.3003
  858MOL0     C15739  -3.108   0.130   3.377  0.0559  0.1801  0.4755
  858MOL0    Cl15740  -3.212   0.083   3.239  0.1884 -0.0535  0.2816
  858MOL0     C15741  -2.243   0.433   3.198 -0.2162  0.6600 -0.1536
  858MOL0     C15742  -2.101   0.438   3.209  1.0911  0.3470 -0.0010
  858MOL0     O15743  -1.922   0.606   3.342  0.6070  0.0084  0.1941
  858MOL0     C15744  -1.635   0.404   3.282 -0.6419  0.4230  0.0049
  858MOL0     C15745  -1.497   0.404   3.274 -0.3161 -0.3926  0.6808
  858MOL0     N15746  -0.804   0.561   2.892 -0.4332  0.3905  0.0562
  858MOL0     N15747  -0.731   0.632   2.822 -0.2371 -0.3939  0.3630
  858MOL0     C15748   0.549   0.826   3.156  0.6872  0.3978  0.6638
  858MOL0     C15749   0.685   0.802   3.186 -0.3293 -0.3377  0.2319
  858MOL0     C15750   1.155   0.848   3.154 -0.0136 -1.0095 -0.4717
  858MOL0     C15751   1.268   0.915   3.111 -0.0313  0.4747  0.9234
  858MOL0     C15752   1.399   0.860   3.139  0.3627  0.1147 -0.0769
  858MOL0     C15753   1.414   0.731   3.198 -0.2208 -0.4826 -0.0774
  858MOL0     O15754   1.546   0.699   3.229  0.4463  0.3307 -0.5038
  858MOL0     C15755   1.589   0.566   3.271  0.2525 -0.1281  0.1982
  858MOL0     C15756   1.606   0.555   3.422  0.3261 -0.0815 -0.3113
  858MOL0     C15757   1.695   0.436   3.466 -0.2628 -0.2865  0.2142
  858MOL0     C15758   1.848   0.457   3.438 -0.2853 -0.1282 -0.5126
  858MOL0     C15759   1.896   0.547   3.542 -0.5357  0.3338  0.3229
  858MOL0     C15760   1.941   0.620   3.630 -0.5336 -0.8948  0.8770
  858MOL0     C15761   1.298   0.669   3.246  0.6777  0.6564  1.0389
  858MOL0     C15762   1.175   0.729   3.227 -0.2735  0.2613 -0.1064
  858MOL0     H15763   0.814   1.100   3.095 -0.3421  1.2395 -0.2063
  858MOL0     H15764   0.586   1.134   3.052 -0.3719 -0.9696 -0.0391
  858MOL0     H15765   0.311   0.791   3.057 -0.3469 -0.5661  1.8666
  858MOL0     H15766   0.249   0.909   3.167  1.0380 -0.9136 -0.1118
  858MOL0     H15767   0.128   1.027   2.970 -1.5707 -1.6442 -0.3648
  858MOL0     H15768   0.197   0.913   2.862  1.6532  3.7701  0.5074
  858MOL0     H15769   0.064   0.730   2.971  4.2187 -0.8057  3.9626
  858MOL0     H15770   0.040   0.819   3.115  0.7345  2.5127  0.5194
  858MOL0     H15771  -0.110   0.985   2.985 -0.4260  0.9902 -0.9052
  858MOL0     H15772  -0.079   0.906   2.834  0.8066 -3.3879 -0.2507
  858MOL0     H15773  -0.186   0.700   2.922 -0.2226 -0.4281  2.1953
  858MOL0     H15774  -0.216   0.789   3.073 -2.0647  1.2071 -0.5566
  858MOL0     H15775  -0.355   0.956   2.971 -0.7615 -0.5372  1.6970
  858MOL0     H15776  -0.325   0.889   2.804  0.1469  0.8312  0.1483
  858MOL0     H15777  -0.426   0.668   2.906 -2.4026 -0.9601  0.4209
  858MOL0     H15778  -0.480   0.769   3.033  0.5831  0.0344  0.0096
  858MOL0     H15779  -0.572   0.834   2.749  0.3624 -0.0833  0.4461
  858MOL0     H15780  -0.605   0.930   2.894  0.4643 -0.4810  2.8051
  858MOL0     H15781  -0.717   0.801   3.109  0.3851 -1.1261  0.3185
  858MOL0     H15782  -0.888   0.458   3.123  0.7499 -0.3387  0.1294
  858MOL0     H15783  -0.809   0.589   3.229 -2.5061  1.1476  1.3215
  858MOL0     H15784  -1.083   0.601   3.091  0.4287 -0.1533  1.2361
  858MOL0     H15785  -0.996   0.740   3.167  1.4323 -0.2559 -1.1126
  858MOL0     H15786  -0.991   0.623   3.375  1.7319 -0.0723 -1.3804
  858MOL0     H15787  -1.041   0.467   3.303  2.2515  0.4815  0.8534
  858MOL0     H15788  -1.224   0.709   3.317 -0.5816  0.1809 -0.9100
  858MOL0     H15789  -1.214   0.594   3.450 -2.1488 -0.0752 -0.2079
  858MOL0     H15790  -1.435   0.707   3.400  2.2601 -0.6251 -4.7839
  858MOL0     H15791  -1.612   0.758   3.531  0.3637 -1.5440 -1.3208
  858MOL0     H15792  -1.721   0.803   3.403  0.9534  0.2025 -0.5779
  858MOL0     H15793  -1.772   0.688   3.535  1.0031  1.4290  1.9531
  858MOL0     H15794  -2.068   0.243   3.485  1.7220 -1.2934 -1.1054
  858MOL0     H15795  -2.315   0.230   3.464 -2.2263  0.0083 -1.4758
  858MOL0     H15796  -2.515   0.514   3.175 -0.4769 -0.0892  0.8716
  858MOL0     H15797  -2.502   0.367   3.079 -2.2843 -2.6196  0.1441
  858MOL0     H15798  -2.736   0.408   3.097  2.9473  0.2288 -1.5160
  858MOL0     H15799  -2.695   0.278   3.205 -2.4118  0.9875  0.0641
  858MOL0     H15800  -2.718   0.567   3.286  2.8894  0.3749  1.0368
  858MOL0     H15801  -2.675   0.433   3.392  0.3446 -0.4892 -0.6852
  858MOL0     H15802  -2.873   0.359   3.431  0.5546 -0.8167 -0.4072
  858MOL0     H15803  -2.933   0.521   3.385  0.3551  0.0796  0.6659
  858MOL0     H15804  -2.936   0.275   3.204 -1.9318 -0.0433 -1.0002
  858MOL0     H15805  -2.958   0.444   3.161  0.7577 -1.4453 -0.8063
  858MOL0     H15806  -3.140   0.474   3.320  0.8222  0.2128 -0.0726
  858MOL0     H15807  -3.180   0.345   3.205 -2.8267  0.4052  1.3817
  858MOL0     H15808  -3.241   0.291   3.436  0.1248 -1.9803  1.2887
  858MOL0     H15809  -3.073   0.313   3.488  2.0024  1.6537 -2.0004
  858MOL0     H15810  -3.131   0.062   3.459  3.3076 -0.4660  0.9865
  858MOL0     H15811  -3.004   0.117   3.347 -0.7448  0.1164 -2.6427
  858MOL0     H15812  -2.290   0.478   3.111 -1.3833  0.6853  0.4735
  858MOL0     H15813  -2.051   0.489   3.128 -1.0395 -1.0762 -2.3511
  858MOL0     H15814  -1.698   0.318   3.260 -0.9756  0.3822  1.0670
  858MOL0     H15815  -1.440   0.323   3.229 -0.3249 -1.0833  1.8540
  858MOL0     H15816   0.475   0.750   3.179  0.5722  0.3312  0.0798
  858MOL0     H15817   0.706   0.711   3.241  0.3724  1.2854  2.8262
  858MOL0     H15818   1.260   1.006   3.052 -1.5092 -1.6030 -2.3838
  858MOL0     H15819   1.492   0.909   3.113  1.1868 -0.3250  1.8731
  858MOL0     H15820   1.517   0.487   3.250 -1.0904  0.7362  1.3347
  858MOL0     H15821   1.684   0.547   3.220 -0.5757 -0.3773 -1.2861
  858MOL0     H15822   1.508   0.541   3.470  2.2441  0.7611  4.4167
  858MOL0     H15823   1.642   0.651   3.461 -0.4679  0.9804 -2.0843
  858MOL0     H15824   1.660   0.348   3.410  0.9772 -1.9442  1.9056
  858MOL0     H15825   1.683   0.409   3.571  0.0864 -3.0770 -0.3716
  858MOL0     H15826   1.868   0.484   3.334 -1.1092  2.0379 -0.1496
  858MOL0     H15827   1.908   0.367   3.454  1.9070  0.8579 -2.5449
  858MOL0     H15828   1.984   0.690   3.699 -1.9940  3.7538 -2.4062
  858MOL0     H15829   1.311   0.574   3.297  2.0035  1.7103  2.7577
  858MOL0     H15830   1.087   0.680   3.267 -0.4842 -0.5468 -1.5047
  859MOL0     O15831   4.184   4.439   9.624  0.2582 -0.3559 -0.0269
  859MOL0     C15832   4.145   4.517   9.538 -0.1062 -0.1799  0.9172
  859MOL0     O15833   4.221   4.606   9.475 -0.2429  0.8618  0.4130
  859MOL0     C15834   4.361   4.577   9.467 -0.2535 -0.4531 -0.8161
  859MOL0     C15835   4.436   4.696   9.442 -0.2616  0.5433  0.7024
  859MOL0     C15836   4.567   4.696   9.420  0.2245 -0.5381  0.0435
  859MOL0     C15837   4.641   4.576   9.422 -0.0085  0.5165  0.0817
  859MOL0     O15838   4.781   4.579   9.395  0.6938  0.1174 -0.0186
  859MOL0     C15839   4.857   4.460   9.371 -0.6537 -0.2314  0.1580
  859MOL0     C15840   5.010   4.510   9.373 -0.1206 -0.2966 -0.3962
  859MOL0     C15841   5.050   4.572   9.510  0.1404  0.2528  0.3409
  859MOL0     C15842   5.192   4.626   9.516  0.6617 -0.4171 -0.2083
  859MOL0     C15843   5.231   4.732   9.425 -0.0664 -0.0919  0.4100
  859MOL0     C15844   5.386   4.758   9.422  0.0421 -0.5508  0.1391
  859MOL0     C15845   5.434   4.831   9.557 -0.3138 -0.3065  0.1905
  859MOL0     C15846   5.594   4.841   9.573  0.9368  0.8060 -0.0782
  859MOL0     N15847   5.651   4.940   9.485  0.4957 -0.4014 -0.7056
  859MOL0     C15848   5.627   5.077   9.485 -0.8010 -0.1027  1.4262
  859MOL0     C15849   5.722   5.135   9.405 -0.3940  0.4536  0.4602
  859MOL0     C15850   5.757   5.280   9.366  0.6212 -0.2887  0.6322
  859MOL0     C15851   5.850   5.349   9.466 -0.2929  0.4401 -0.0061
  859MOL0     C15852   5.870   5.496   9.412 -0.6184  1.1094 -0.2470
  859MOL0     C15853   5.936   5.605   9.508 -0.1840 -0.1425 -0.5030
  859MOL0     O15854   5.930   5.738   9.455  0.0606  0.4042 -0.0612
  859MOL0     C15855   5.808   5.813   9.447  0.5270 -0.6273  0.9819
  859MOL0     C15856   5.808   5.944   9.394  0.3781  0.1551 -0.5201
  859MOL0     C15857   5.695   6.026   9.385  0.0649  0.4116 -0.0800
  859MOL0     C15858   5.701   6.147   9.295 -0.1744 -0.5068 -0.2674
  859MOL0     C15859   5.577   5.984   9.439  0.0865 -0.6624  0.3200
  859MOL0     C15860   5.452   6.064   9.445  1.1115 -0.9329  0.1726
  859MOL0     O15861   5.462   6.204   9.432  0.4032 -0.1566  0.4129
  859MOL0     C15862   5.342   6.267   9.406  0.0895 -0.0267  0.3798
  859MOL0     C15863   5.316   6.324   9.282  0.0045  0.5875 -0.2087
  859MOL0     C15864   5.191   6.390   9.266  0.3715 -0.0142 -0.0718
  859MOL0     C15865   5.108   6.420   9.372  0.1604 -0.0154  0.4195
  859MOL0     O15866   4.993   6.496   9.360  0.1029 -0.2869  0.2712
  859MOL0     C15867   4.924   6.483   9.237 -0.5628 -0.5564 -0.4880
  859MOL0     C15868   4.779   6.521   9.244  0.8363  0.6074 -0.3386
  859MOL0     C15869   4.707   6.517   9.111 -0.0822  0.6020  0.4578
  859MOL0     C15870   4.555   6.537   9.131  0.0989  0.0505 -0.8048
  859MOL0     C15871   4.489   6.567   9.007  0.0619 -0.2373  1.2256
  859MOL0     C15872   4.329   6.552   9.008 -0.3748 -0.0141 -0.0670
  859MOL0     C15873   4.264   6.654   9.106 -0.2507 -0.4542 -0.0423
  859MOL0     C15874   4.159   6.575   9.193 -0.2307 -0.0557  0.1886
  859MOL0    Cl15875   4.044   6.695   9.269 -0.4231 -0.3296 -0.1759
  859MOL0     C15876   5.147   6.384   9.502 -0.2691  0.3257 -0.3568
  859MOL0     C15877   5.260   6.303   9.517 -0.8464  0.8114 -0.4055
  859MOL0     O15878   5.348   6.003   9.491 -0.2107  0.5797 -0.2436
  859MOL0     C15879   5.569   5.851   9.482  0.2293 -0.3403 -0.2847
  859MOL0     C15880   5.686   5.776   9.494 -0.6867 -0.7169 -0.2484
  859MOL0     N15881   5.800   5.024   9.365  0.5044 -0.5187 -0.6664
  859MOL0     N15882   5.755   4.909   9.404  0.1713  0.4706 -0.4117
  859MOL0     C15883   4.576   4.456   9.441  0.6097  0.6012 -0.5008
  859MOL0     C15884   4.435   4.452   9.466  0.1283  0.1222 -0.6235
  859MOL0     C15885   4.002   4.518   9.503 -0.1796 -1.1562  0.4072
  859MOL0     C15886   3.914   4.420   9.556  0.1283 -0.6371 -0.0322
  859MOL0     C15887   3.779   4.419   9.526  0.3624  0.0192  0.8239
  859MOL0     C15888   3.725   4.516   9.454 -0.2287  0.4566 -0.6623
  859MOL0     O15889   3.583   4.518   9.425  0.1250 -0.2040 -0.6162
  859MOL0     C15890   3.486   4.427   9.481  0.0067 -0.2549  0.0299
  859MOL0     C15891   3.430   4.480   9.617 -0.2455  0.4706  0.2178
  859MOL0     C15892   3.336   4.598   9.612  0.6738 -0.4322 -0.3393
  859MOL0     C15893   3.267   4.607   9.747 -0.0708  0.2815  0.1122
  859MOL0     C15894   3.142   4.521   9.753  0.9117 -0.4203  0.3036
  859MOL0     C15895   3.041   4.452   9.748  0.4983  0.5131  0.1861
  859MOL0     C15896   3.805   4.612   9.394  0.0092  0.6560 -0.1110
  859MOL0     C15897   3.948   4.610   9.411  0.7828 -0.1946 -0.5706
  859MOL0     H15898   4.393   4.795   9.438  1.0614  1.1854  1.5971
  859MOL0     H15899   4.630   4.781   9.396  0.3916 -1.2776 -2.5057
  859MOL0     H15900   4.845   4.375   9.438 -0.7877 -0.2187  0.1517
  859MOL0     H15901   4.837   4.431   9.267  0.7673  2.3835 -0.9594
  859MOL0     H15902   5.073   4.421   9.362 -1.5256 -1.4973  0.9205
  859MOL0     H15903   5.020   4.588   9.296 -2.9726  3.5864  2.7596
  859MOL0     H15904   4.982   4.655   9.529 -1.4952  0.0777 -3.7555
  859MOL0     H15905   5.041   4.494   9.587 -0.9675 -0.2926 -0.3225
  859MOL0     H15906   5.216   4.669   9.614  0.3874 -1.1905  0.2060
  859MOL0     H15907   5.249   4.535   9.499 -1.1123 -2.1780  2.3841
  859MOL0     H15908   5.198   4.709   9.323 -2.2959  0.9174  0.8396
  859MOL0     H15909   5.173   4.822   9.445 -0.3936 -0.2613  0.2292
  859MOL0     H15910   5.440   4.667   9.394 -2.3868 -1.3815 -2.3207
  859MOL0     H15911   5.395   4.824   9.336 -1.6475 -1.6294 -0.9246
  859MOL0     H15912   5.394   4.933   9.564 -0.0602 -0.1419 -0.6704
  859MOL0     H15913   5.395   4.770   9.639  0.2054  3.2525  3.3981
  859MOL0     H15914   5.642   4.743   9.567 -0.2711  0.2526 -1.3296
  859MOL0     H15915   5.604   4.879   9.675  0.6750 -2.8816  1.4917
  859MOL0     H15916   5.544   5.125   9.538 -2.1680 -0.1962 -0.5390
  859MOL0     H15917   5.809   5.263   9.271  0.5899 -0.4954  0.6507
  859MOL0     H15918   5.666   5.339   9.355  1.4334  1.4684  2.8021
  859MOL0     H15919   5.938   5.283   9.475 -0.0335  1.0529  2.6547
  859MOL0     H15920   5.818   5.358   9.570 -0.1572 -0.0354  0.0798
  859MOL0     H15921   5.776   5.536   9.374 -1.0622 -0.9847 -1.5202
  859MOL0     H15922   5.939   5.485   9.328  1.2107  0.0944  1.3033
  859MOL0     H15923   6.037   5.579   9.540  0.3237 -0.0407 -1.9133
  859MOL0     H15924   5.881   5.613   9.602  0.7610  2.6555 -0.0906
  859MOL0     H15925   5.897   5.982   9.344  0.9000 -1.0488 -0.5516
  859MOL0     H15926   5.784   6.148   9.223 -0.0539  1.0982 -0.1578
  859MOL0     H15927   5.615   6.150   9.227  1.9203 -1.3642 -3.1924
  859MOL0     H15928   5.707   6.243   9.346  0.2617 -0.4854 -0.3475
  859MOL0     H15929   5.378   6.304   9.195  0.3227  2.4569 -0.4535
  859MOL0     H15930   5.170   6.423   9.165  1.3374  2.0072  0.3248
  859MOL0     H15931   4.969   6.553   9.166  0.0180  0.9761  1.3071
  859MOL0     H15932   4.927   6.378   9.205  0.1211 -0.4848 -0.6580
  859MOL0     H15933   4.727   6.456   9.315  1.6408  1.1555  0.7917
  859MOL0     H15934   4.767   6.623   9.282 -2.2444  0.5158 -0.8001
  859MOL0     H15935   4.723   6.424   9.056  2.4100  1.1717  0.1123
  859MOL0     H15936   4.751   6.601   9.056  1.1717  0.1427  0.7241
  859MOL0     H15937   4.533   6.439   9.173  1.1754  0.1430  0.0382
  859MOL0     H15938   4.525   6.608   9.209 -2.5121 -0.8322 -0.9199
  859MOL0     H15939   4.524   6.492   8.935 -1.0889 -1.3305  1.7542
  859MOL0     H15940   4.522   6.668   8.981 -1.7708 -0.2899 -1.8740
  859MOL0     H15941   4.295   6.573   8.906 -1.8221  3.9806  1.0375
  859MOL0     H15942   4.300   6.449   9.032  2.1249 -0.3933  1.6706
  859MOL0     H15943   4.212   6.736   9.054  1.6684  0.7571 -0.1641
  859MOL0     H15944   4.336   6.700   9.175  1.2453  2.0839 -3.0352
  859MOL0     H15945   4.202   6.503   9.263  0.7191 -2.0882 -2.3474
  859MOL0     H15946   4.103   6.515   9.122 -3.2456  1.3488  1.1944
  859MOL0     H15947   5.083   6.417   9.583 -1.1934  0.4484 -1.1117
  859MOL0     H15948   5.291   6.263   9.612 -0.7280  0.2764 -0.6650
  859MOL0     H15949   5.472   5.808   9.502 -0.1365  1.1237  1.2541
  859MOL0     H15950   5.688   5.676   9.536  0.0322 -0.1799  1.0807
  859MOL0     H15951   4.638   4.366   9.448  0.6987  0.7722  1.7174
  859MOL0     H15952   4.396   4.353   9.487  0.1838  0.8310  3.6436
  859MOL0     H15953   3.953   4.354   9.632 -0.9180 -0.1784  0.9308
  859MOL0     H15954   3.723   4.336   9.566  0.6675 -0.0045  1.2122
  859MOL0     H15955   3.404   4.409   9.410  1.4816 -1.0391 -1.5370
  859MOL0     H15956   3.537   4.330   9.489  0.8862  0.2178  0.2633
  859MOL0     H15957   3.514   4.510   9.680  0.5002  1.2407 -1.0799
  859MOL0     H15958   3.378   4.394   9.659 -2.3111  0.8825 -1.3358
  859MOL0     H15959   3.260   4.571   9.538 -1.3020  0.7990  1.1696
  859MOL0     H15960   3.382   4.693   9.581 -1.4745  0.5670 -0.6235
  859MOL0     H15961   3.238   4.711   9.763 -0.1270  0.4360 -0.9459
  859MOL0     H15962   3.332   4.584   9.832  1.2291 -0.2329 -0.9699
  859MOL0     H15963   2.945   4.403   9.750 -0.8318  3.0061  0.5264
  859MOL0     H15964   3.747   4.683   9.335 -1.1665 -1.8116 -2.1081
  859MOL0     H15965   4.023   4.678   9.371  0.6458  0.1453 -0.2549
  860MOL0     O15966   2.567   0.855   2.288  0.1862  0.1209  0.2909
  860MOL0     C15967   2.594   0.845   2.169 -0.3627  0.5722 -0.8847
  860MOL0     O15968   2.513   0.824   2.064 -1.1812  0.4104 -0.0566
  860MOL0     C15969   2.383   0.806   2.104  0.0001 -0.9784  0.8110
  860MOL0     C15970   2.330   0.684   2.083  0.3013 -0.6397  0.1282
  860MOL0     C15971   2.200   0.645   2.114 -0.2609 -0.1458  1.1358
  860MOL0     C15972   2.112   0.752   2.166  0.4199  0.3778  0.0917
  860MOL0     O15973   1.974   0.721   2.199 -0.2401 -0.7980 -0.0577
  860MOL0     C15974   1.953   0.585   2.227 -0.4419  0.5158 -0.2315
  860MOL0     C15975   1.835   0.560   2.319 -0.4626 -0.4924 -0.6386
  860MOL0     C15976   1.715   0.528   2.234  0.5236 -0.0574  0.4957
  860MOL0     C15977   1.655   0.652   2.168  0.0000  0.3370  0.1507
  860MOL0     C15978   1.538   0.632   2.062  0.0770  0.1794 -0.2069
  860MOL0     C15979   1.420   0.544   2.114 -0.1238 -0.1509 -0.2774
  860MOL0     C15980   1.336   0.499   1.997  0.7069 -0.8824 -0.1518
  860MOL0     C15981   1.191   0.465   2.039 -1.3028  0.2603  0.6354
  860MOL0     N15982   1.179   0.346   2.127  0.1196  0.5625 -0.6321
  860MOL0     C15983   1.113   0.228   2.102 -0.2676 -0.0093  1.0173
  860MOL0     C15984   1.096   0.176   2.228 -1.0584 -0.4195  0.2714
  860MOL0     C15985   0.994   0.064   2.252 -0.1424 -0.6800  0.1484
  860MOL0     C15986   0.858   0.102   2.311  0.2903  0.4961  0.2318
  860MOL0     C15987   0.755  -0.022   2.307 -0.6881  0.0576  0.5025
  860MOL0     C15988   0.629   0.020   2.383  0.0943  0.5840  0.0640
  860MOL0     O15989   0.563  -0.105   2.426  0.3300 -0.3580 -0.3854
  860MOL0     C15990   0.427  -0.090   2.446 -0.1271 -0.0492 -0.4804
  860MOL0     C15991   0.377   0.014   2.522  0.5013  0.2390  0.3865
  860MOL0     C15992   0.241   0.030   2.552 -0.1604 -0.5114  0.5664
  860MOL0     C15993   0.199   0.157   2.622  0.8086  0.6794 -0.4076
  860MOL0     C15994   0.155  -0.079   2.514 -0.4514 -0.7486 -0.1507
  860MOL0     C15995   0.006  -0.082   2.550  0.4839  0.2832 -0.1578
  860MOL0     O15996  -0.060  -0.193   2.504  0.8771  0.4996  0.1418
  860MOL0     C15997  -0.196  -0.202   2.518  0.5764  0.0578 -0.5536
  860MOL0     C15998  -0.264  -0.202   2.645  0.3997 -0.2713 -0.1610
  860MOL0     C15999  -0.403  -0.218   2.652 -0.2097 -0.1236 -0.5162
  860MOL0     C16000  -0.483  -0.217   2.536  0.9060 -0.2576 -0.1424
  860MOL0     O16001  -0.619  -0.209   2.561 -0.3045 -0.3351  0.6906
  860MOL0     C16002  -0.709  -0.167   2.457  0.2321  0.0411  0.0488
  860MOL0     C16003  -0.844  -0.126   2.515 -0.0530 -0.4147 -0.7035
  860MOL0     C16004  -0.951  -0.096   2.407  0.1701 -0.1526 -0.5727
  860MOL0     C16005  -1.080  -0.032   2.451  0.1507  0.7594 -1.3850
  860MOL0     C16006  -1.171   0.004   2.343  0.1076  1.1526 -0.7295
  860MOL0     C16007  -1.149   0.145   2.276 -0.2671 -0.0973  0.3283
  860MOL0     C16008  -1.276   0.194   2.212  0.3889 -0.4018  0.7173
  860MOL0     C16009  -1.337   0.105   2.103 -0.4167  0.8675  0.4184
  860MOL0    Cl16010  -1.231   0.096   1.945  0.0900  0.0069 -0.1454
  860MOL0     C16011  -0.419  -0.219   2.412 -0.4742 -0.1578  0.0903
  860MOL0     C16012  -0.282  -0.209   2.410 -0.3815 -0.3027  0.2777
  860MOL0     O16013  -0.054   0.012   2.608  0.2519 -0.2127  0.3214
  860MOL0     C16014   0.212  -0.181   2.436 -0.3245  0.2406  0.1242
  860MOL0     C16015   0.340  -0.186   2.405 -0.8427 -0.3777  0.1090
  860MOL0     N16016   1.174   0.246   2.325  0.4659 -0.1246  0.0736
  860MOL0     N16017   1.217   0.347   2.260 -0.5651  0.0188 -0.1369
  860MOL0     C16018   2.165   0.875   2.187 -0.5835  0.1964  0.2167
  860MOL0     C16019   2.302   0.902   2.156 -0.0978  0.0401 -0.5829
  860MOL0     C16020   2.742   0.844   2.133 -0.0795 -1.1771  0.2751
  860MOL0     C16021   2.832   0.856   2.244 -0.5136  0.1734 -0.4417
  860MOL0     C16022   2.966   0.859   2.214  0.1350  1.0229 -0.4045
  860MOL0     C16023   3.014   0.843   2.079 -0.4174  0.7305  0.2996
  860MOL0     O16024   3.143   0.837   2.036 -0.2226  0.0273  0.0029
  860MOL0     C16025   3.235   0.841   2.148  0.0259  0.9570  0.0269
  860MOL0     C16026   3.372   0.801   2.102  0.8155 -0.0399  0.4546
  860MOL0     C16027   3.471   0.836   2.205  0.8569 -0.1037 -0.5220
  860MOL0     C16028   3.606   0.820   2.155 -0.3997  0.5861 -0.3699
  860MOL0     C16029   3.688   0.878   2.263  0.1017 -0.5918 -0.5816
  860MOL0     C16030   3.746   0.949   2.338  0.2650 -0.3887 -0.6905
  860MOL0     C16031   2.922   0.844   1.974  0.4094 -0.4647 -0.7185
  860MOL0     C16032   2.787   0.839   1.999  0.2149  0.2252  0.6662
  860MOL0     H16033   2.401   0.610   2.049  1.8240  0.0550  1.6355
  860MOL0     H16034   2.151   0.549   2.102 -1.8297  0.8656 -1.0366
  860MOL0     H16035   1.944   0.529   2.133 -1.6686  2.9620 -1.6912
  860MOL0     H16036   2.032   0.537   2.285 -0.8569  0.3452  0.1954
  860MOL0     H16037   1.864   0.477   2.384  1.0853 -0.4959 -1.2881
  860MOL0     H16038   1.827   0.652   2.378  1.9724 -1.1109  0.8280
  860MOL0     H16039   1.728   0.452   2.156 -2.7296  0.5109 -0.7479
  860MOL0     H16040   1.639   0.498   2.307  0.6414  0.1579  0.7110
  860MOL0     H16041   1.608   0.718   2.241 -0.6911  1.1395 -0.9839
  860MOL0     H16042   1.736   0.701   2.114  0.3872 -1.1438 -0.6837
  860MOL0     H16043   1.515   0.730   2.018 -0.1712 -0.1782 -0.8862
  860MOL0     H16044   1.578   0.573   1.979  1.3485 -2.4299  2.1058
  860MOL0     H16045   1.459   0.452   2.159 -1.7875 -0.8215 -0.1366
  860MOL0     H16046   1.348   0.598   2.177 -1.0376  1.8891 -2.8854
  860MOL0     H16047   1.333   0.575   1.919 -0.6292  0.3482  1.0546
  860MOL0     H16048   1.390   0.416   1.950  1.9010 -0.4820  0.4704
  860MOL0     H16049   1.121   0.468   1.955 -0.5920  1.5938  0.0503
  860MOL0     H16050   1.153   0.551   2.094 -0.3981  1.8636 -1.1214
  860MOL0     H16051   1.065   0.192   2.012  0.7861 -1.0098  0.8319
  860MOL0     H16052   0.990   0.000   2.163  3.6472  0.0828 -0.7452
  860MOL0     H16053   1.044   0.001   2.326  1.4131  2.2972  1.8074
  860MOL0     H16054   0.809   0.185   2.260  0.8775  0.5349 -0.2723
  860MOL0     H16055   0.881   0.132   2.414  2.0240  0.1293 -0.0130
  860MOL0     H16056   0.803  -0.108   2.355  3.2610  1.0500 -1.2516
  860MOL0     H16057   0.737  -0.046   2.202  0.5224  0.8316  0.0974
  860MOL0     H16058   0.576   0.083   2.311  1.5619 -1.3815 -2.9785
  860MOL0     H16059   0.656   0.082   2.469  1.0270  1.4101 -0.7902
  860MOL0     H16060   0.448   0.086   2.562 -1.3808  2.5074 -0.1143
  860MOL0     H16061   0.109   0.200   2.578 -0.5405 -0.7187  0.8374
  860MOL0     H16062   0.185   0.124   2.726  0.9315  2.7190  0.2848
  860MOL0     H16063   0.271   0.239   2.622 -1.3304  2.6852  1.0870
  860MOL0     H16064  -0.214  -0.209   2.741  3.3692 -1.6851 -1.6809
  860MOL0     H16065  -0.448  -0.209   2.750 -0.1553  1.5016 -0.6029
  860MOL0     H16066  -0.670  -0.079   2.405  0.4353 -0.9877 -1.6035
  860MOL0     H16067  -0.728  -0.256   2.397  1.3008 -0.2203  0.0793
  860MOL0     H16068  -0.875  -0.205   2.584  3.7923  0.5177  2.4586
  860MOL0     H16069  -0.834  -0.040   2.583 -1.7495 -0.6491 -0.1280
  860MOL0     H16070  -0.981  -0.184   2.349 -3.3161 -0.0754  0.8285
  860MOL0     H16071  -0.899  -0.027   2.340 -0.6450  0.3435 -0.7084
  860MOL0     H16072  -1.127  -0.094   2.528  1.6353 -0.8522 -1.7070
  860MOL0     H16073  -1.049   0.061   2.500  2.2213 -1.2967  1.5645
  860MOL0     H16074  -1.272  -0.013   2.382  0.7657 -4.0584 -0.5591
  860MOL0     H16075  -1.156  -0.072   2.266 -0.2149 -0.4570  0.7152
  860MOL0     H16076  -1.113   0.221   2.346 -0.7729 -0.0268  0.5139
  860MOL0     H16077  -1.067   0.132   2.204 -0.4400  1.1698 -0.1204
  860MOL0     H16078  -1.257   0.297   2.182  1.3706 -0.4578  1.0923
  860MOL0     H16079  -1.354   0.195   2.289 -1.6243 -2.1872 -1.1763
  860MOL0     H16080  -1.432   0.148   2.072  0.1611  1.1666 -0.9910
  860MOL0     H16081  -1.355   0.002   2.135  0.9154  0.5766  0.2915
  860MOL0     H16082  -0.477  -0.226   2.320  2.6789  1.0678 -2.1805
  860MOL0     H16083  -0.237  -0.213   2.312 -1.0909 -0.5070 -0.0463
  860MOL0     H16084   0.148  -0.265   2.409 -1.2202  0.2013  2.1334
  860MOL0     H16085   0.381  -0.276   2.360  1.2795 -1.4330  3.7014
  860MOL0     H16086   2.091   0.946   2.223 -4.0502 -2.1623 -1.6942
  860MOL0     H16087   2.336   1.003   2.177  0.1681 -0.4087  1.4156
  860MOL0     H16088   2.809   0.861   2.350  1.5348 -0.1724  0.0616
  860MOL0     H16089   3.045   0.863   2.289  1.8229  2.2228 -2.1642
  860MOL0     H16090   3.245   0.948   2.166  1.3375  1.2224 -1.8945
  860MOL0     H16091   3.211   0.784   2.238 -1.0053  3.1234  1.2164
  860MOL0     H16092   3.389   0.855   2.009 -0.3333  1.8308  1.2696
  860MOL0     H16093   3.369   0.693   2.088 -2.6234 -0.5170  3.3403
  860MOL0     H16094   3.457   0.771   2.292  4.1696 -1.8047 -1.1235
  860MOL0     H16095   3.462   0.942   2.230 -1.4803 -0.2487 -0.4932
  860MOL0     H16096   3.625   0.876   2.063 -1.7825  4.0258  1.2994
  860MOL0     H16097   3.623   0.714   2.135 -1.3583  0.4566 -0.5272
  860MOL0     H16098   3.788   1.017   2.409 -2.9073 -1.5213  2.5840
  860MOL0     H16099   2.943   0.867   1.870 -0.7028  2.6416 -0.3773
  860MOL0     H16100   2.724   0.840   1.911  1.6582 -0.1108 -0.4148
  861MOL0     O16101   3.178   8.281   3.044  0.4805 -0.2011  0.4881
  861MOL0     C16102   3.257   8.185   3.045  0.6633  0.5987  0.1424
  861MOL0     O16103   3.234   8.062   3.093 -0.5021 -0.2951  0.5945
  861MOL0     C16104   3.103   8.032   3.144 -0.7912 -0.0327 -0.6019
  861MOL0     C16105   3.007   7.978   3.057  1.2240 -0.5960  0.4068
  861MOL0     C16106   2.880   7.940   3.112 -0.1097 -0.0850 -0.6556
  861MOL0     C16107   2.852   7.962   3.250  0.2814 -0.3021  0.6426
  861MOL0     O16108   2.737   7.923   3.307  0.3044  0.3035  1.3560
  861MOL0     C16109   2.613   7.928   3.224  0.4320 -0.1364  0.9672
  861MOL0     C16110   2.510   8.000   3.310 -0.2829  0.5503  0.4604
  861MOL0     C16111   2.359   7.987   3.275 -0.1416 -0.1329 -0.3493
  861MOL0     C16112   2.265   8.077   3.366 -0.0467 -0.7286  0.0926
  861MOL0     C16113   2.137   8.011   3.388  0.2528 -0.5365  0.3439
  861MOL0     C16114   2.057   7.982   3.256 -0.5550 -0.2733  0.0443
  861MOL0     C16115   1.917   7.925   3.286 -0.0508  0.8365 -0.5534
  861MOL0     C16116   1.831   7.881   3.169  0.0271 -0.5237  0.7413
  861MOL0     N16117   1.692   7.855   3.210  0.4414  0.0792 -0.0741
  861MOL0     C16118   1.636   7.758   3.288 -0.6561 -0.0718  0.0944
  861MOL0     C16119   1.506   7.800   3.296  1.5177  0.1482  0.3886
  861MOL0     C16120   1.403   7.717   3.373 -0.5852 -0.0461 -0.4673
  861MOL0     C16121   1.316   7.632   3.283 -0.2290 -0.0802 -0.0321
  861MOL0     C16122   1.253   7.707   3.167 -0.3893 -0.3052  0.1386
  861MOL0     C16123   1.142   7.628   3.104  0.9160 -0.3378  0.4315
  861MOL0     O16124   1.038   7.631   3.199  0.5768  0.1121 -0.4826
  861MOL0     C16125   0.922   7.570   3.157  0.3050 -0.5777  0.1614
  861MOL0     C16126   0.898   7.514   3.030 -0.3283 -0.1072  0.5272
  861MOL0     C16127   0.772   7.466   2.986  0.6203 -0.0625  0.7754
  861MOL0     C16128   0.762   7.432   2.839 -0.1298 -0.0966 -0.2700
  861MOL0     C16129   0.664   7.454   3.085 -0.1666  0.2034  0.0853
  861MOL0     C16130   0.526   7.408   3.047  0.4267 -0.0079  0.2250
  861MOL0     O16131   0.459   7.342   3.146  1.3000  0.5403  0.9534
  861MOL0     C16132   0.341   7.276   3.116 -0.0364  0.3163  0.2031
  861MOL0     C16133   0.344   7.139   3.098 -0.0960  1.3515 -0.0659
  861MOL0     C16134   0.227   7.059   3.076 -0.0834 -0.5895  0.2271
  861MOL0     C16135   0.109   7.129   3.053  0.3916  0.4756 -0.2718
  861MOL0     O16136  -0.012   7.076   3.016 -0.1904  0.7159 -0.0273
  861MOL0     C16137  -0.030   6.931   3.038 -0.4669 -0.5856 -0.0611
  861MOL0     C16138  -0.146   6.864   2.962  1.0518 -0.5515 -0.6456
  861MOL0     C16139  -0.201   6.734   3.028 -0.0765  0.2571  0.0003
  861MOL0     C16140  -0.285   6.644   2.933  0.1674  0.4488 -0.0626
  861MOL0     C16141  -0.315   6.499   2.983 -0.0136  0.0254  0.5154
  861MOL0     C16142  -0.425   6.439   2.892  0.0940 -0.4981 -0.1015
  861MOL0     C16143  -0.478   6.312   2.960 -0.5047  0.3074 -0.7155
  861MOL0     C16144  -0.588   6.347   3.062  0.3654  0.3818 -0.1057
  861MOL0    Cl16145  -0.747   6.353   3.000  0.2813  0.4664  0.0417
  861MOL0     C16146   0.102   7.264   3.073  0.1681  0.0827 -0.1476
  861MOL0     C16147   0.217   7.337   3.108 -0.0434 -0.3587  0.8737
  861MOL0     O16148   0.480   7.446   2.933  0.0963  0.3661 -0.2939
  861MOL0     C16149   0.691   7.497   3.218  0.0408 -0.3400 -0.2752
  861MOL0     C16150   0.817   7.553   3.253 -0.2209  0.6162  0.5060
  861MOL0     N16151   1.490   7.920   3.229  0.3864 -1.1106 -0.5338
  861MOL0     N16152   1.602   7.947   3.174  0.4473  0.5862  0.0595
  861MOL0     C16153   2.949   8.028   3.337 -0.1267 -0.0916  0.6698
  861MOL0     C16154   3.072   8.054   3.275  0.1287 -1.1538 -1.0677
  861MOL0     C16155   3.399   8.214   3.006  0.4895  1.0950 -0.0230
  861MOL0     C16156   3.494   8.115   3.011 -0.7805 -0.0669 -1.1402
  861MOL0     C16157   3.632   8.139   3.000  0.4567  0.0120 -0.3712
  861MOL0     C16158   3.669   8.273   2.974 -0.4486 -0.2229 -0.0904
  861MOL0     O16159   3.803   8.313   2.980  0.1457 -0.3576  0.3529
  861MOL0     C16160   3.892   8.241   3.066 -0.1007 -0.3187 -0.4712
  861MOL0     C16161   4.034   8.308   3.068 -0.1720 -0.0204  0.0606
  861MOL0     C16162   4.084   8.325   2.926 -0.7579  0.6571  0.5784
  861MOL0     C16163   4.047   8.464   2.875 -0.5308 -0.1659 -0.0147
  861MOL0     C16164   4.165   8.537   2.808  0.0693  0.3286  0.1490
  861MOL0     C16165   4.269   8.594   2.763 -0.1005  0.1128  0.4416
  861MOL0     C16166   3.574   8.378   2.952 -0.9976  0.3100 -0.3467
  861MOL0     C16167   3.436   8.346   2.978  0.6993 -0.2421 -0.6260
  861MOL0     H16168   3.025   7.963   2.951 -0.3269 -1.9220  0.2965
  861MOL0     H16169   2.812   7.885   3.046  2.0643 -1.1725 -2.1114
  861MOL0     H16170   2.624   7.979   3.128 -2.5181  1.8752  1.5745
  861MOL0     H16171   2.571   7.829   3.203  0.7290  0.4799 -3.5617
  861MOL0     H16172   2.508   7.965   3.414 -3.3775  0.4497  0.4628
  861MOL0     H16173   2.537   8.105   3.321 -2.1214  1.0606  0.4483
  861MOL0     H16174   2.336   8.006   3.170  2.0922  1.3149 -0.6410
  861MOL0     H16175   2.330   7.882   3.287  0.2714 -0.2855 -0.6408
  861MOL0     H16176   2.321   8.082   3.459 -1.3802 -0.4565  0.9032
  861MOL0     H16177   2.264   8.177   3.321  0.4765 -0.7582  0.0148
  861MOL0     H16178   2.143   7.917   3.444 -2.2146 -0.8139  0.2611
  861MOL0     H16179   2.083   8.079   3.455 -0.7215  0.5092 -1.4257
  861MOL0     H16180   2.038   8.076   3.204  1.2055  0.5612  0.8165
  861MOL0     H16181   2.107   7.926   3.177  0.7386  1.2222 -0.2641
  861MOL0     H16182   1.919   7.834   3.347  0.5525  0.5828 -0.9464
  861MOL0     H16183   1.862   8.001   3.343  1.1288  0.9298  0.5176
  861MOL0     H16184   1.869   7.795   3.112  0.0209  0.0094 -0.0790
  861MOL0     H16185   1.837   7.956   3.090  0.2222  0.5436  1.7468
  861MOL0     H16186   1.691   7.677   3.335  1.1107 -0.4888 -2.4775
  861MOL0     H16187   1.454   7.652   3.446  0.3900  1.5012  0.2886
  861MOL0     H16188   1.337   7.773   3.440  2.5084  0.2417  2.6065
  861MOL0     H16189   1.240   7.577   3.339 -1.5733 -1.8499 -3.2799
  861MOL0     H16190   1.377   7.559   3.230 -1.6888  0.4433 -2.6176
  861MOL0     H16191   1.328   7.721   3.088 -0.5274  1.4855  0.2767
  861MOL0     H16192   1.222   7.809   3.194 -3.3290 -0.3178 -2.5184
  861MOL0     H16193   1.183   7.533   3.069  1.8602 -0.3069  1.3955
  861MOL0     H16194   1.112   7.685   3.016  1.3639 -1.5242 -0.5089
  861MOL0     H16195   0.979   7.524   2.959 -1.0821  1.3094 -0.1722
  861MOL0     H16196   0.701   7.516   2.806 -0.1619  0.8923  2.1075
  861MOL0     H16197   0.860   7.435   2.791  0.4926 -1.7018  0.7836
  861MOL0     H16198   0.709   7.336   2.826 -1.7765  0.1436  3.3604
  861MOL0     H16199   0.436   7.084   3.114 -1.4442 -1.2272 -0.4787
  861MOL0     H16200   0.241   6.952   3.087  3.2351 -0.3629 -0.6008
  861MOL0     H16201   0.058   6.870   3.015 -1.8514 -1.9430 -2.0114
  861MOL0     H16202  -0.060   6.928   3.143 -1.3074  1.1505 -0.2200
  861MOL0     H16203  -0.224   6.939   2.948  1.5685  0.4697  1.5181
  861MOL0     H16204  -0.102   6.833   2.866  3.0361 -0.5448  0.2059
  861MOL0     H16205  -0.247   6.760   3.124  1.5545  0.3530  0.7919
  861MOL0     H16206  -0.110   6.677   3.049  0.4467  0.1621 -2.3297
  861MOL0     H16207  -0.376   6.700   2.910 -0.0566 -0.1888 -0.7507
  861MOL0     H16208  -0.225   6.636   2.842 -2.3202  3.6968 -2.2171
  861MOL0     H16209  -0.349   6.505   3.087  0.6843  0.5783  0.7171
  861MOL0     H16210  -0.220   6.445   2.982 -1.1445 -2.0740  0.4036
  861MOL0     H16211  -0.509   6.508   2.879  0.6796 -0.0242 -1.5501
  861MOL0     H16212  -0.384   6.414   2.794 -0.2750 -0.3436 -0.3001
  861MOL0     H16213  -0.393   6.262   3.007 -1.9873 -0.1704  1.6003
  861MOL0     H16214  -0.525   6.233   2.900 -0.7990 -1.3262  1.5239
  861MOL0     H16215  -0.574   6.441   3.116 -3.9354 -0.1849  2.5202
  861MOL0     H16216  -0.597   6.271   3.141 -1.9266  0.5713 -0.1090
  861MOL0     H16217   0.007   7.316   3.061  0.1246  0.3977  1.4109
  861MOL0     H16218   0.212   7.440   3.141  0.5383 -0.6932  2.0578
  861MOL0     H16219   0.614   7.480   3.293  0.9217  0.5813  0.8827
  861MOL0     H16220   0.836   7.586   3.355  0.4220  0.3264  0.4891
  861MOL0     H16221   2.922   8.043   3.441  0.7644  0.5344  0.8249
  861MOL0     H16222   3.147   8.094   3.341 -3.3433  1.4951  1.6946
  861MOL0     H16223   3.468   8.015   3.046  2.8498 -0.2070  1.8587
  861MOL0     H16224   3.705   8.064   3.030 -1.1906 -1.0292  1.3168
  861MOL0     H16225   3.854   8.233   3.168 -3.3699 -1.6621 -1.6709
  861MOL0     H16226   3.903   8.144   3.016 -3.0474 -1.7323  1.3727
  861MOL0     H16227   4.108   8.242   3.115 -1.1562  0.2028  2.0480
  861MOL0     H16228   4.033   8.401   3.126 -0.1793 -0.2633  0.4538
  861MOL0     H16229   4.037   8.248   2.863 -0.2244 -0.0090  0.9769
  861MOL0     H16230   4.192   8.310   2.920 -0.4492  1.6499  2.6110
  861MOL0     H16231   3.995   8.524   2.950 -1.7918 -1.3301  0.0735
  861MOL0     H16232   3.973   8.455   2.795  0.7382  1.9134 -1.5118
  861MOL0     H16233   4.352   8.648   2.721 -0.3030  0.6016  0.6569
  861MOL0     H16234   3.612   8.477   2.931  0.1601 -0.0346  0.0288
  861MOL0     H16235   3.365   8.429   2.980 -1.9239 -2.3493 -0.9301
  862MOL0     O16236   9.874   4.379   5.657  1.5583 -0.3432 -0.0924
  862MOL0     C16237   9.883   4.396   5.778 -0.3894  0.3167  0.9133
  862MOL0     O16238   9.791   4.360   5.875  0.5305  0.1344  0.8845
  862MOL0     C16239   9.656   4.381   5.846  0.4063 -1.0464 -0.7270
  862MOL0     C16240   9.574   4.310   5.931  0.6259  0.7169 -0.5845
  862MOL0     C16241   9.443   4.305   5.928 -0.4689  0.7168 -0.6185
  862MOL0     C16242   9.377   4.383   5.843 -0.2112 -1.0045 -0.8358
  862MOL0     O16243   9.237   4.402   5.839  0.9295 -1.0438 -0.8541
  862MOL0     C16244   9.175   4.430   5.958  0.9502  0.2380 -0.0061
  862MOL0     C16245   9.045   4.347   5.973  0.0775  0.1948  0.3552
  862MOL0     C16246   8.968   4.381   6.104  0.6646 -0.4111 -0.0938
  862MOL0     C16247   8.829   4.306   6.093 -1.3825  0.2550  0.0270
  862MOL0     C16248   8.744   4.337   6.214  0.3884 -0.3365 -0.1778
  862MOL0     C16249   8.600   4.286   6.199 -0.3644  0.3783 -0.3243
  862MOL0     C16250   8.494   4.354   6.107 -0.4814  0.5008 -0.7860
  862MOL0     C16251   8.440   4.242   6.020  0.2794  0.5983  0.7746
  862MOL0     N16252   8.334   4.290   5.924  0.4140 -0.0569  0.2080
  862MOL0     C16253   8.350   4.288   5.786  0.6055 -0.7254  0.6334
  862MOL0     C16254   8.230   4.328   5.747  0.6097 -0.3703  0.7497
  862MOL0     C16255   8.192   4.327   5.598 -0.1701  0.5491  0.1089
  862MOL0     C16256   8.051   4.276   5.575  0.1610 -0.7557  0.6779
  862MOL0     C16257   8.026   4.241   5.428 -0.0743 -0.5006  1.0284
  862MOL0     C16258   7.879   4.212   5.396  1.0281 -0.4742 -0.0786
  862MOL0     O16259   7.803   4.330   5.434 -0.6074  0.2322  0.1164
  862MOL0     C16260   7.667   4.345   5.411  0.6093  0.2207 -1.0605
  862MOL0     C16261   7.588   4.244   5.353 -0.1545 -0.1855  0.1676
  862MOL0     C16262   7.444   4.251   5.351 -1.5882 -0.4060  0.1084
  862MOL0     C16263   7.374   4.141   5.277  0.5136 -0.5257 -0.1445
  862MOL0     C16264   7.379   4.370   5.389  0.3666 -0.2729  0.3076
  862MOL0     C16265   7.232   4.390   5.387  0.5721 -0.1474  0.1666
  862MOL0     O16266   7.150   4.283   5.388  0.5556  0.1077 -0.2150
  862MOL0     C16267   7.027   4.284   5.444  0.5116 -0.1014 -0.1006
  862MOL0     C16268   7.000   4.367   5.555  0.0831 -0.6683  0.6956
  862MOL0     C16269   6.869   4.365   5.621 -0.4456 -0.4947 -0.1519
  862MOL0     C16270   6.776   4.270   5.584 -0.3185 -0.0727  0.3753
  862MOL0     O16271   6.652   4.251   5.634 -0.9076 -1.0452 -0.0656
  862MOL0     C16272   6.619   4.305   5.761 -0.1427 -0.1561  0.8380
  862MOL0     C16273   6.492   4.244   5.824  0.6513  0.6333  0.4812
  862MOL0     C16274   6.369   4.326   5.788  1.0477 -0.3631 -0.8046
  862MOL0     C16275   6.233   4.253   5.791 -0.8542  0.4151 -0.0691
  862MOL0     C16276   6.127   4.347   5.745 -0.3260 -0.2581 -0.5285
  862MOL0     C16277   6.004   4.272   5.712  0.4157  1.7877 -0.6122
  862MOL0     C16278   5.937   4.231   5.848  0.0349  0.3277  0.1620
  862MOL0     C16279   5.823   4.131   5.827  0.3408  0.3782 -0.1747
  862MOL0    Cl16280   5.678   4.197   5.756 -0.5483  0.6088 -0.0697
  862MOL0     C16281   6.813   4.176   5.477 -0.3634  0.2055 -0.4530
  862MOL0     C16282   6.932   4.188   5.411 -0.4696  0.3158  0.1221
  862MOL0     O16283   7.194   4.506   5.368 -0.2556  0.1430  0.0326
  862MOL0     C16284   7.462   4.470   5.436  0.4601  0.9040 -0.1278
  862MOL0     C16285   7.602   4.459   5.450 -0.3090 -0.2240  0.5368
  862MOL0     N16286   8.142   4.334   5.853 -0.5754 -0.0232 -0.1897
  862MOL0     N16287   8.207   4.308   5.964  0.0689 -0.2711  0.4585
  862MOL0     C16288   9.450   4.455   5.749 -0.6185 -0.6394  1.1344
  862MOL0     C16289   9.590   4.460   5.754  0.2035 -0.5656  0.3129
  862MOL0     C16290  10.000   4.472   5.816 -0.4852  0.4254  0.0090
  862MOL0     C16291  10.091   4.513   5.718 -0.4331  0.0238  0.3989
  862MOL0     C16292  10.199   4.589   5.754  0.6889  0.4255 -0.0045
  862MOL0     C16293  10.212   4.640   5.884 -0.8635 -0.3287  0.0031
  862MOL0     O16294  10.322   4.705   5.935  0.5076  0.0949  0.0400
  862MOL0     C16295  10.426   4.749   5.846 -0.3283 -0.1051 -0.2296
  862MOL0     C16296  10.531   4.834   5.927 -0.2752  0.2859 -0.6366
  862MOL0     C16297  10.470   4.963   5.972 -1.2482 -0.3140 -0.7994
  862MOL0     C16298  10.567   5.075   6.016  0.8872 -1.0530  0.0178
  862MOL0     C16299  10.658   5.017   6.112 -0.0731 -0.1851 -0.1521
  862MOL0     C16300  10.736   4.964   6.192  0.1810 -0.2872 -0.1675
  862MOL0     C16301  10.119   4.604   5.984  0.3196 -0.3570 -0.3952
  862MOL0     C16302  10.012   4.526   5.944  0.2242  0.4698  0.1960
  862MOL0     H16303   9.625   4.253   6.008  1.1351  0.7106 -0.9227
  862MOL0     H16304   9.386   4.256   6.006  2.4401  0.2061  1.3575
  862MOL0     H16305   9.231   4.420   6.051 -0.8472 -0.3909  1.0542
  862MOL0     H16306   9.146   4.535   5.960 -1.5450 -0.3855  2.2697
  862MOL0     H16307   8.985   4.380   5.887 -0.0263  1.6398  0.9562
  862MOL0     H16308   9.074   4.242   5.962 -2.0201 -0.2891 -1.2809
  862MOL0     H16309   9.023   4.351   6.193  0.3473 -0.1161  0.2071
  862MOL0     H16310   8.957   4.490   6.102  1.0856 -0.3671 -0.0910
  862MOL0     H16311   8.780   4.340   6.002  0.1593  1.3746 -0.4314
  862MOL0     H16312   8.850   4.199   6.082 -1.3903  0.1696  0.7521
  862MOL0     H16313   8.794   4.287   6.297  2.5691  1.4682 -0.2728
  862MOL0     H16314   8.757   4.443   6.238 -2.4860 -0.3796  2.0041
  862MOL0     H16315   8.610   4.178   6.190  1.5484  0.4794  0.2551
  862MOL0     H16316   8.555   4.290   6.299 -1.3796  3.7113 -0.7916
  862MOL0     H16317   8.413   4.393   6.169  0.3789 -1.2508  1.5932
  862MOL0     H16318   8.545   4.429   6.045  3.1842 -1.9997 -1.1177
  862MOL0     H16319   8.403   4.168   6.092 -1.1198  0.5608  0.0513
  862MOL0     H16320   8.518   4.202   5.955 -1.5736  1.2756 -2.0991
  862MOL0     H16321   8.428   4.254   5.720 -0.8135 -2.5863 -0.1794
  862MOL0     H16322   8.190   4.432   5.565 -0.7319  0.9126  1.2253
  862MOL0     H16323   8.260   4.274   5.531 -0.4647  1.0766 -0.6205
  862MOL0     H16324   7.989   4.360   5.608  2.1058  1.3513 -0.7896
  862MOL0     H16325   8.037   4.201   5.654 -1.9718  0.4146  1.5049
  862MOL0     H16326   8.095   4.159   5.402  2.5810  2.0986 -0.7041
  862MOL0     H16327   8.060   4.328   5.372  0.0641 -0.1225  1.6891
  862MOL0     H16328   7.850   4.115   5.437  1.5828 -0.0509  1.3803
  862MOL0     H16329   7.870   4.208   5.287 -1.2406  0.7806 -0.0112
  862MOL0     H16330   7.646   4.156   5.328  0.7827  1.0155 -2.1880
  862MOL0     H16331   7.302   4.172   5.200 -0.9202 -3.1500  0.0144
  862MOL0     H16332   7.452   4.084   5.226  2.1189  0.8125  0.7168
  862MOL0     H16333   7.321   4.076   5.347 -1.0589  2.5260  1.7117
  862MOL0     H16334   7.066   4.442   5.596  0.7420 -1.1118  0.4715
  862MOL0     H16335   6.854   4.443   5.696  1.6887 -1.7583  1.7272
  862MOL0     H16336   6.701   4.288   5.831  2.2000  0.9156 -1.5194
  862MOL0     H16337   6.605   4.414   5.763  2.0807  0.2511 -1.3688
  862MOL0     H16338   6.475   4.151   5.769  1.0919  2.7570 -3.6292
  862MOL0     H16339   6.505   4.221   5.930 -0.2453 -1.3650  0.2212
  862MOL0     H16340   6.380   4.362   5.685 -2.2737 -2.3067 -2.0002
  862MOL0     H16341   6.379   4.415   5.850 -0.2943  0.0686 -1.1873
  862MOL0     H16342   6.243   4.165   5.727  1.5074 -0.1522  1.0039
  862MOL0     H16343   6.208   4.214   5.890  0.1555 -1.9458 -0.6894
  862MOL0     H16344   6.156   4.397   5.652 -0.9312  1.6625  0.2587
  862MOL0     H16345   6.104   4.422   5.822 -1.8524  1.6319 -2.6828
  862MOL0     H16346   5.935   4.321   5.643 -0.4570  2.8212  0.9354
  862MOL0     H16347   6.041   4.184   5.659  0.8331  2.2284 -1.0576
  862MOL0     H16348   5.895   4.317   5.901  0.0194 -0.5607  1.6370
  862MOL0     H16349   6.015   4.186   5.910 -1.6297 -1.4650  1.0756
  862MOL0     H16350   5.801   4.088   5.925 -0.4162  0.8798 -0.1210
  862MOL0     H16351   5.851   4.046   5.764 -3.2812 -0.8100 -0.4146
  862MOL0     H16352   6.743   4.097   5.452 -1.8070  1.7650 -1.5724
  862MOL0     H16353   6.953   4.122   5.327 -0.7551 -0.8282  0.9356
  862MOL0     H16354   7.418   4.562   5.472  1.2656  0.5844  1.8128
  862MOL0     H16355   7.658   4.542   5.493  0.2944 -0.3546  0.0231
  862MOL0     H16356   9.399   4.516   5.675  3.8076 -0.8710 -2.5403
  862MOL0     H16357   9.645   4.512   5.676 -1.5171  0.5112 -0.2374
  862MOL0     H16358  10.081   4.483   5.614  0.6012  1.1956 -0.0670
  862MOL0     H16359  10.275   4.619   5.683  0.4042 -2.6311 -1.8037
  862MOL0     H16360  10.480   4.664   5.804 -1.7494 -2.0157  1.5922
  862MOL0     H16361  10.388   4.810   5.763  0.5357  0.8828  0.0772
  862MOL0     H16362  10.621   4.849   5.867 -1.3604 -0.8886 -2.6809
  862MOL0     H16363  10.556   4.770   6.013 -2.2032 -0.7975 -0.8318
  862MOL0     H16364  10.413   4.950   6.065 -2.5203  1.8499 -1.1917
  862MOL0     H16365  10.396   5.005   5.903 -1.3428 -0.7129 -0.9436
  862MOL0     H16366  10.516   5.168   6.042 -1.3816 -2.2456  0.1267
  862MOL0     H16367  10.627   5.104   5.929 -0.8433 -0.3553 -1.0148
  862MOL0     H16368  10.814   4.912   6.243  0.7296 -0.8306 -1.5217
  862MOL0     H16369  10.116   4.653   6.081 -1.9280 -2.6370  0.7956
  862MOL0     H16370   9.951   4.485   6.024  1.9596  0.0037  1.3501
  863MOL0     O16371  10.399   7.375   8.850 -0.0199  0.0767 -0.2671
  863MOL0     C16372  10.482   7.463   8.828 -0.6382 -0.9912  0.3440
  863MOL0     O16373  10.458   7.599   8.808  0.0853 -0.0110  0.2580
  863MOL0     C16374  10.335   7.654   8.825  0.3691 -0.8233  0.4057
  863MOL0     C16375  10.328   7.786   8.783  0.1549  0.0295  0.2241
  863MOL0     C16376  10.215   7.865   8.804 -0.4462  0.8120  1.1126
  863MOL0     C16377  10.100   7.809   8.849  0.9958  0.3495  0.3082
  863MOL0     O16378   9.985   7.879   8.861 -0.2087 -0.0211 -0.0652
  863MOL0     C16379   9.906   7.852   8.980 -0.4522 -0.1785 -0.7802
  863MOL0     C16380   9.812   7.967   9.006 -0.9539 -0.8316  0.1387
  863MOL0     C16381   9.691   7.956   8.918  0.0542  0.2566 -0.0312
  863MOL0     C16382   9.604   8.085   8.895  0.0593  0.0270  0.2179
  863MOL0     C16383   9.485   8.050   8.798 -0.6260 -0.3721  0.2016
  863MOL0     C16384   9.411   8.179   8.757 -0.6932  0.5490 -0.5647
  863MOL0     C16385   9.275   8.141   8.687 -0.3720  0.3079 -0.2963
  863MOL0     C16386   9.172   8.065   8.773 -0.3457  0.4225  0.2679
  863MOL0     N16387   9.040   8.071   8.695 -0.0779 -0.3454 -1.0082
  863MOL0     C16388   8.930   8.150   8.724 -0.5151  1.1050 -0.5073
  863MOL0     C16389   8.846   8.111   8.621 -0.7921  0.4550  0.2765
  863MOL0     C16390   8.703   8.161   8.597 -0.5339  0.5552  0.3209
  863MOL0     C16391   8.630   8.124   8.465  1.0291  0.2163 -0.4601
  863MOL0     C16392   8.566   7.988   8.481 -0.1418 -0.2101 -0.2241
  863MOL0     C16393   8.514   7.944   8.344  0.8017 -0.2822  0.0400
  863MOL0     O16394   8.407   8.035   8.314  0.5687 -0.1854 -0.0870
  863MOL0     C16395   8.277   8.000   8.346 -0.1568 -0.9065  0.3834
  863MOL0     C16396   8.187   8.089   8.290  0.2669 -0.4390 -0.3205
  863MOL0     C16397   8.046   8.064   8.297 -0.2289 -0.1595 -0.7957
  863MOL0     C16398   7.964   8.141   8.197 -0.5041  0.2431 -0.3902
  863MOL0     C16399   7.997   7.970   8.389 -0.2551  0.0681 -0.2025
  863MOL0     C16400   7.852   7.956   8.424  0.2660  0.8169  0.8334
  863MOL0     O16401   7.824   7.903   8.553  0.5655  0.0538  0.3327
  863MOL0     C16402   7.706   7.847   8.567 -0.2373  0.7539 -0.0619
  863MOL0     C16403   7.676   7.726   8.511 -1.2308  0.4324  0.1171
  863MOL0     C16404   7.551   7.664   8.537 -0.6812  0.4555 -0.4155
  863MOL0     C16405   7.453   7.719   8.625 -0.8059 -0.3480 -0.0288
  863MOL0     O16406   7.340   7.647   8.633  0.1854  0.0658  0.1487
  863MOL0     C16407   7.221   7.720   8.673 -0.0660 -0.2200 -0.1895
  863MOL0     C16408   7.099   7.622   8.664 -0.0164 -0.7474  0.5264
  863MOL0     C16409   6.963   7.708   8.646 -0.3857  0.6558  0.3204
  863MOL0     C16410   6.843   7.613   8.640 -0.8458 -0.0993  0.3148
  863MOL0     C16411   6.720   7.684   8.593  0.3385 -0.1865 -0.0120
  863MOL0     C16412   6.619   7.585   8.538 -0.1723  0.1052  0.1073
  863MOL0     C16413   6.479   7.656   8.528 -0.1180  0.3046 -0.2188
  863MOL0     C16414   6.386   7.586   8.435 -0.0563 -0.7847  0.3296
  863MOL0    Cl16415   6.332   7.433   8.496 -0.0051  0.3677 -0.0572
  863MOL0     C16416   7.485   7.852   8.677 -0.0423 -0.3613  0.0189
  863MOL0     C16417   7.610   7.910   8.654  0.1289  0.2407  0.1129
  863MOL0     O16418   7.766   7.986   8.340  0.2351 -0.9264  0.1468
  863MOL0     C16419   8.093   7.885   8.457  0.9030 -0.1336  1.1508
  863MOL0     C16420   8.232   7.888   8.422 -0.0127 -0.4412  0.3956
  863MOL0     N16421   8.900   8.014   8.538 -0.2641 -0.6978  0.1960
  863MOL0     N16422   9.017   7.993   8.585  0.2143 -0.3818 -0.1727
  863MOL0     C16423  10.099   7.674   8.889 -0.2972  0.0548  0.2284
  863MOL0     C16424  10.218   7.596   8.885 -0.1762 -0.2732  0.1300
  863MOL0     C16425  10.620   7.428   8.828 -0.8447 -0.1808 -0.7836
  863MOL0     C16426  10.721   7.528   8.846 -0.3616  0.8516  0.0772
  863MOL0     C16427  10.858   7.487   8.854 -0.6767  0.4481 -1.2786
  863MOL0     C16428  10.891   7.353   8.849 -0.7814 -0.5221  0.1539
  863MOL0     O16429  11.014   7.298   8.839  0.3085 -0.0569  0.4159
  863MOL0     C16430  11.132   7.380   8.827 -0.2786  0.0795  0.8275
  863MOL0     C16431  11.162   7.446   8.696 -0.1106  0.5885 -0.3346
  863MOL0     C16432  11.320   7.445   8.674  0.3001  0.2132 -0.5401
  863MOL0     C16433  11.353   7.470   8.522  0.2451  1.5089 -0.4881
  863MOL0     C16434  11.321   7.349   8.449  0.1227 -0.0845  0.8264
  863MOL0     C16435  11.299   7.242   8.402 -0.9422  0.0680  1.3366
  863MOL0     C16436  10.791   7.255   8.833  0.4356 -0.4351 -0.9108
  863MOL0     C16437  10.661   7.294   8.820  0.2199  0.7654  1.2496
  863MOL0     H16438  10.421   7.827   8.745  1.0711  0.8746  3.1389
  863MOL0     H16439  10.218   7.968   8.770 -0.9999  0.0691 -1.4207
  863MOL0     H16440   9.851   7.758   8.981  0.1151 -0.5130 -0.5138
  863MOL0     H16441   9.972   7.843   9.066  1.6549  1.9307 -2.0436
  863MOL0     H16442   9.785   7.960   9.111  0.1237 -0.2240  0.4833
  863MOL0     H16443   9.864   8.064   9.006  1.7630 -2.1558  1.9832
  863MOL0     H16444   9.720   7.907   8.825  0.6095 -1.3503  0.9457
  863MOL0     H16445   9.626   7.882   8.967  1.1522 -1.1908 -0.6920
  863MOL0     H16446   9.560   8.122   8.988  3.1089 -0.1396  1.8535
  863MOL0     H16447   9.667   8.165   8.856  1.0401 -1.6976 -1.9213
  863MOL0     H16448   9.529   8.001   8.711  2.1398  2.3356 -0.1280
  863MOL0     H16449   9.418   7.983   8.853 -0.1300 -1.9623 -1.0619
  863MOL0     H16450   9.386   8.247   8.839 -0.9003  0.2460 -0.3747
  863MOL0     H16451   9.465   8.233   8.679  0.3800  0.0674 -0.1757
  863MOL0     H16452   9.227   8.235   8.656 -3.7813  0.1223  3.5302
  863MOL0     H16453   9.299   8.082   8.598  1.3823  0.7242 -0.1376
  863MOL0     H16454   9.172   8.123   8.866 -1.1402  0.3294  0.3296
  863MOL0     H16455   9.202   7.962   8.792  0.0311  0.7073  1.3264
  863MOL0     H16456   8.910   8.211   8.811 -0.7716 -1.1336  1.0625
  863MOL0     H16457   8.652   8.109   8.679  0.7959 -2.1266 -0.4591
  863MOL0     H16458   8.710   8.270   8.602  0.0815  0.4942  1.2049
  863MOL0     H16459   8.701   8.120   8.383  2.1438 -3.0966  0.5129
  863MOL0     H16460   8.554   8.200   8.443  0.9690  0.2599 -0.1176
  863MOL0     H16461   8.479   7.993   8.547  1.7335 -0.1769  2.4076
  863MOL0     H16462   8.642   7.927   8.531 -0.7536 -2.4282 -1.8326
  863MOL0     H16463   8.491   7.837   8.341 -1.1517  0.0659  1.0707
  863MOL0     H16464   8.600   7.952   8.278  0.1534  1.8236 -0.6372
  863MOL0     H16465   8.226   8.153   8.212  3.1790 -2.7558 -0.9193
  863MOL0     H16466   8.023   8.196   8.123 -1.1348  1.2514 -0.1700
  863MOL0     H16467   7.894   8.076   8.144 -0.4723 -0.7133  0.7009
  863MOL0     H16468   7.910   8.215   8.257 -0.2360 -0.3796  0.6294
  863MOL0     H16469   7.744   7.676   8.442 -1.1464  0.9362 -0.1713
  863MOL0     H16470   7.517   7.572   8.491 -2.5604  0.0944  1.5348
  863MOL0     H16471   7.237   7.751   8.777  1.2468  1.6440 -0.8943
  863MOL0     H16472   7.214   7.805   8.606  1.0233 -2.2420 -3.0912
  863MOL0     H16473   7.120   7.555   8.579 -1.5758  0.2375 -0.6784
  863MOL0     H16474   7.098   7.561   8.755  2.6253 -0.0307  1.1347
  863MOL0     H16475   6.971   7.756   8.548 -2.1378 -1.1300 -0.7799
  863MOL0     H16476   6.959   7.779   8.729 -2.3883  0.6340  0.2843
  863MOL0     H16477   6.857   7.533   8.567 -0.3715 -0.0340  0.3284
  863MOL0     H16478   6.818   7.574   8.740 -0.7850 -1.0920 -0.0431
  863MOL0     H16479   6.766   7.748   8.517  1.0680 -0.4714  0.1829
  863MOL0     H16480   6.673   7.745   8.670 -1.7179 -1.5218 -0.1451
  863MOL0     H16481   6.661   7.554   8.442 -2.8435  0.4279 -1.2638
  863MOL0     H16482   6.614   7.491   8.594  0.7236  0.3911  0.6688
  863MOL0     H16483   6.491   7.757   8.487 -1.1084  0.9623  1.0322
  863MOL0     H16484   6.433   7.674   8.626 -0.2215 -0.3261 -0.1480
  863MOL0     H16485   6.432   7.559   8.340 -2.1452 -2.1252 -0.3723
  863MOL0     H16486   6.300   7.648   8.410  0.5394  0.4016  1.1296
  863MOL0     H16487   7.419   7.905   8.745 -1.4209  0.7086 -2.0344
  863MOL0     H16488   7.644   8.000   8.704 -0.2723  0.6062 -0.2691
  863MOL0     H16489   8.056   7.793   8.500  0.6334  0.4579  2.2205
  863MOL0     H16490   8.297   7.815   8.471  0.0929 -2.6733 -2.7509
  863MOL0     H16491  10.010   7.637   8.939 -1.1162  2.1445  0.4189
  863MOL0     H16492  10.218   7.498   8.932  1.1544  0.2616  1.3439
  863MOL0     H16493  10.704   7.635   8.851 -0.1696  0.8972 -0.2000
  863MOL0     H16494  10.941   7.556   8.849 -0.4930  0.5368  1.6170
  863MOL0     H16495  11.120   7.454   8.907 -1.6072 -1.2370  1.8844
  863MOL0     H16496  11.211   7.310   8.855  0.0664 -1.2123 -2.9128
  863MOL0     H16497  11.118   7.546   8.694  1.0957  1.1855  1.0048
  863MOL0     H16498  11.116   7.395   8.611 -0.9150  1.5728 -0.5106
  863MOL0     H16499  11.360   7.351   8.712 -0.7226 -0.2298 -0.5280
  863MOL0     H16500  11.372   7.525   8.728 -2.9687  0.6450  2.3156
  863MOL0     H16501  11.460   7.478   8.499  0.1444 -1.3955 -2.3584
  863MOL0     H16502  11.303   7.559   8.483 -1.2690  1.8954  2.0883
  863MOL0     H16503  11.261   7.151   8.359  1.9957  0.5712 -2.8954
  863MOL0     H16504  10.834   7.156   8.819  1.7890 -0.0401  0.1539
  863MOL0     H16505  10.582   7.224   8.797 -0.2484  1.3208  1.1427
  864MOL0     O16506   5.870   3.365   5.309  0.6349  0.2388  0.7382
  864MOL0     C16507   5.974   3.362   5.362  0.2606  0.0966  0.5246
  864MOL0     O16508   5.997   3.348   5.500  0.7345 -0.3248  0.1943
  864MOL0     C16509   5.893   3.306   5.586  0.5492 -0.9826  0.2247
  864MOL0     C16510   5.882   3.352   5.713 -0.2721  0.0468  0.5445
  864MOL0     C16511   5.777   3.293   5.795  0.5418 -0.2521  0.6338
  864MOL0     C16512   5.700   3.185   5.758  0.4613  0.3224 -0.0743
  864MOL0     O16513   5.611   3.128   5.835 -0.1032 -0.2166  0.0642
  864MOL0     C16514   5.499   3.060   5.777 -0.0378  0.2742  0.3939
  864MOL0     C16515   5.409   3.005   5.881  0.1817  0.4073 -0.0583
  864MOL0     C16516   5.340   3.117   5.957 -0.1625 -0.1412 -0.5997
  864MOL0     C16517   5.273   3.054   6.079  0.4569  0.0281  0.1717
  864MOL0     C16518   5.252   3.159   6.186  0.0879 -0.2432 -0.0878
  864MOL0     C16519   5.176   3.287   6.148 -0.1364 -0.6309  0.0072
  864MOL0     C16520   5.028   3.258   6.110 -0.8093 -0.9159 -0.1698
  864MOL0     C16521   4.945   3.384   6.087  0.1322 -0.1781  1.1119
  864MOL0     N16522   4.799   3.336   6.072 -0.7643  0.2357 -0.4169
  864MOL0     C16523   4.731   3.328   5.953  0.3503 -0.3259  0.2235
  864MOL0     C16524   4.599   3.315   5.987 -0.2573 -0.6947 -0.4200
  864MOL0     C16525   4.488   3.304   5.890 -0.4811 -0.6271  0.6613
  864MOL0     C16526   4.436   3.164   5.887 -0.1200  0.7404 -0.2682
  864MOL0     C16527   4.314   3.166   5.804  0.0900 -0.4204 -1.0305
  864MOL0     C16528   4.270   3.023   5.780 -0.3120  0.0156 -0.0832
  864MOL0     O16529   4.224   2.968   5.904  0.3147  0.2002  0.1584
  864MOL0     C16530   4.083   2.962   5.921  0.6258 -0.2014 -0.2493
  864MOL0     C16531   4.045   2.909   6.048  0.0564  0.0242 -0.1629
  864MOL0     C16532   3.919   2.907   6.092 -0.0170 -0.0546 -1.0092
  864MOL0     C16533   3.904   2.880   6.246  0.5291 -0.2057  0.1672
  864MOL0     C16534   3.816   2.950   6.007  0.4669 -1.0208 -0.2628
  864MOL0     C16535   3.668   2.959   6.045  0.0569  0.0533  0.4040
  864MOL0     O16536   3.637   2.879   6.156 -0.0404  0.2309  0.2826
  864MOL0     C16537   3.506   2.890   6.203  0.0380 -0.0900 -0.6155
  864MOL0     C16538   3.462   2.990   6.289 -0.4987  1.1135 -0.0899
  864MOL0     C16539   3.336   2.987   6.344  0.2140 -0.1329  0.2911
  864MOL0     C16540   3.239   2.898   6.303  0.2568  0.4340  0.4038
  864MOL0     O16541   3.113   2.894   6.332  0.6364  0.1638 -0.4505
  864MOL0     C16542   3.073   2.948   6.458  0.9753 -0.1338  0.2897
  864MOL0     C16543   2.931   2.896   6.487  0.2426  0.3011  0.5199
  864MOL0     C16544   2.916   2.742   6.479  0.1721  0.5530 -0.6470
  864MOL0     C16545   2.782   2.688   6.520  0.4675  0.6179 -0.3930
  864MOL0     C16546   2.771   2.536   6.477  0.5406  1.5024  0.6315
  864MOL0     C16547   2.648   2.466   6.546  0.3379  0.2661  0.5602
  864MOL0     C16548   2.688   2.428   6.691 -0.0513 -0.7501  0.6424
  864MOL0     C16549   2.563   2.364   6.752  0.5638  0.3410  0.7048
  864MOL0    Cl16550   2.509   2.217   6.660 -0.1835 -0.3226 -0.1402
  864MOL0     C16551   3.280   2.794   6.220 -0.6815 -0.3634  0.3084
  864MOL0     C16552   3.410   2.788   6.165 -0.9178 -0.1881  0.3179
  864MOL0     O16553   3.585   3.009   5.971 -0.4471  0.6827  0.0344
  864MOL0     C16554   3.849   3.007   5.880  0.4756 -0.3191 -0.4622
  864MOL0     C16555   3.981   3.009   5.839  0.3409  0.6877 -0.2665
  864MOL0     N16556   4.591   3.315   6.131 -0.2615  0.7883  0.7277
  864MOL0     N16557   4.710   3.320   6.172 -0.1138 -0.1598  0.2283
  864MOL0     C16558   5.715   3.144   5.626 -0.7444 -0.0612 -0.9539
  864MOL0     C16559   5.812   3.197   5.540  0.4327  0.0979 -0.4641
  864MOL0     C16560   6.100   3.354   5.285  0.0410 -0.7962  0.4653
  864MOL0     C16561   6.224   3.394   5.347 -0.9227  0.1183 -0.0584
  864MOL0     C16562   6.344   3.392   5.275 -0.0782  0.3183 -0.6737
  864MOL0     C16563   6.346   3.341   5.135  0.5416 -0.0721 -0.2987
  864MOL0     O16564   6.456   3.325   5.060  0.3016  0.3688  0.1681
  864MOL0     C16565   6.580   3.345   5.121  0.0584  1.3730 -0.0605
  864MOL0     C16566   6.691   3.313   5.028 -0.1571  0.2650  0.6247
  864MOL0     C16567   6.819   3.318   5.117 -0.0729 -0.0035 -0.0717
  864MOL0     C16568   6.928   3.239   5.048  0.1578 -0.1741 -0.8252
  864MOL0     C16569   7.042   3.225   5.141 -0.3140  0.3481 -0.0819
  864MOL0     C16570   7.140   3.206   5.214  0.1114  0.2019 -0.4533
  864MOL0     C16571   6.228   3.295   5.081  0.3929 -0.0204  0.5277
  864MOL0     C16572   6.105   3.306   5.148  0.7353 -0.1265 -0.8742
  864MOL0     H16573   5.949   3.425   5.758  1.6191 -1.4014  0.2385
  864MOL0     H16574   5.755   3.326   5.896 -2.8500  1.1863 -0.4058
  864MOL0     H16575   5.430   3.131   5.730 -3.0768 -1.4233  1.9563
  864MOL0     H16576   5.525   2.975   5.714  2.0353 -1.8249  3.7330
  864MOL0     H16577   5.330   2.955   5.826  2.1876  0.2936 -3.0732
  864MOL0     H16578   5.456   2.942   5.958 -1.2617 -0.7806 -0.1026
  864MOL0     H16579   5.418   3.178   6.004 -0.4530 -0.8654  0.8762
  864MOL0     H16580   5.276   3.179   5.894 -1.0772 -0.8603 -0.3903
  864MOL0     H16581   5.183   2.999   6.051  1.9980 -1.1138 -2.9245
  864MOL0     H16582   5.342   2.989   6.132  1.7162  0.6386 -0.6546
  864MOL0     H16583   5.197   3.117   6.271  0.9959  1.1629  1.2464
  864MOL0     H16584   5.356   3.185   6.206  0.1485  0.2800 -1.0060
  864MOL0     H16585   5.181   3.356   6.233 -0.2590 -1.5329  0.7512
  864MOL0     H16586   5.237   3.332   6.068  3.1104 -0.8257  2.1520
  864MOL0     H16587   5.017   3.188   6.026 -2.5482  0.9083 -1.5829
  864MOL0     H16588   4.982   3.213   6.198  2.1164 -1.1129  1.3567
  864MOL0     H16589   4.977   3.437   5.997  0.8291 -0.9848  0.8732
  864MOL0     H16590   4.952   3.457   6.168  1.1045 -1.7713  2.5302
  864MOL0     H16591   4.773   3.337   5.853 -1.6157  0.2581 -0.5949
  864MOL0     H16592   4.412   3.370   5.932  0.5660  0.5545  0.7723
  864MOL0     H16593   4.518   3.335   5.789 -0.0159 -1.6406  0.4712
  864MOL0     H16594   4.415   3.124   5.987  0.8762 -1.9854 -1.0589
  864MOL0     H16595   4.519   3.112   5.837 -1.3715 -0.9851 -0.6217
  864MOL0     H16596   4.331   3.213   5.707  1.7699  0.2907 -0.4162
  864MOL0     H16597   4.240   3.230   5.852  1.9062  3.0699 -2.5865
  864MOL0     H16598   4.359   2.968   5.749  1.5763  2.4566  0.6624
  864MOL0     H16599   4.191   3.001   5.707  1.6062 -1.2579 -1.8715
  864MOL0     H16600   4.123   2.866   6.110  1.2340  3.1362  0.6910
  864MOL0     H16601   3.877   2.777   6.272  0.3022  0.1458  1.3674
  864MOL0     H16602   3.997   2.900   6.299 -0.1300  0.4870  1.0985
  864MOL0     H16603   3.832   2.951   6.287 -1.2924 -1.3534 -0.9077
  864MOL0     H16604   3.538   3.064   6.311 -1.0885  2.3730 -2.0464
  864MOL0     H16605   3.308   3.059   6.421  0.8005 -0.2992  0.6669
  864MOL0     H16606   3.157   2.921   6.523  1.9900  1.1986 -0.4290
  864MOL0     H16607   3.079   3.057   6.450  2.6535 -0.1162  1.3487
  864MOL0     H16608   2.893   2.930   6.584 -2.3492  2.5266 -1.1234
  864MOL0     H16609   2.859   2.948   6.422 -1.2886 -1.2598  0.9003
  864MOL0     H16610   2.995   2.705   6.546 -1.6151 -4.0594 -0.7733
  864MOL0     H16611   2.952   2.708   6.381  2.9172  0.2386  0.3606
  864MOL0     H16612   2.767   2.707   6.627  1.2618  0.6689 -0.2861
  864MOL0     H16613   2.702   2.750   6.477  1.0032  3.4581  2.2802
  864MOL0     H16614   2.859   2.481   6.511  0.0008 -0.7961 -1.4205
  864MOL0     H16615   2.765   2.529   6.368 -0.9377  0.5679  0.7341
  864MOL0     H16616   2.556   2.526   6.545 -1.8519 -2.8633 -0.6530
  864MOL0     H16617   2.616   2.381   6.485  0.4863 -0.9120  2.0615
  864MOL0     H16618   2.716   2.511   6.757  1.9768  0.4837 -1.6204
  864MOL0     H16619   2.772   2.359   6.681  0.8597  0.5123 -0.7258
  864MOL0     H16620   2.477   2.431   6.749  2.0900  2.3746 -0.5198
  864MOL0     H16621   2.587   2.340   6.856  0.8376  0.2917  0.6305
  864MOL0     H16622   3.197   2.725   6.206  1.0166 -2.0337 -2.5793
  864MOL0     H16623   3.421   2.711   6.090 -0.3302  2.2237 -2.2501
  864MOL0     H16624   3.787   3.063   5.811  0.9769  2.2714  1.0557
  864MOL0     H16625   4.013   3.066   5.752 -1.2016 -1.0243 -2.0727
  864MOL0     H16626   5.665   3.056   5.587  2.0428 -3.5596  2.5459
  864MOL0     H16627   5.828   3.152   5.443 -0.6468 -0.4647 -0.3965
  864MOL0     H16628   6.224   3.429   5.450 -0.2271 -0.8665  0.2881
  864MOL0     H16629   6.433   3.436   5.318  1.0168  0.2307 -2.7491
  864MOL0     H16630   6.592   3.451   5.146 -1.8804  1.6972 -0.3153
  864MOL0     H16631   6.595   3.286   5.212 -0.3557  0.3947 -0.6120
  864MOL0     H16632   6.682   3.387   4.948 -3.2512 -1.8947 -1.2249
  864MOL0     H16633   6.667   3.211   4.999 -1.5920  0.2838  1.6366
  864MOL0     H16634   6.806   3.263   5.211  3.1059  1.4859  1.3761
  864MOL0     H16635   6.864   3.417   5.125  3.7530 -1.5517 -0.3878
  864MOL0     H16636   6.972   3.298   4.967  0.8631 -1.3088 -1.2937
  864MOL0     H16637   6.899   3.139   5.015 -0.6426 -1.0555  2.2553
  864MOL0     H16638   7.211   3.174   5.288 -2.9757 -2.4458  1.6769
  864MOL0     H16639   6.217   3.251   4.982 -2.3667  0.4698  0.5254
  864MOL0     H16640   6.012   3.274   5.102  0.6980 -1.2044 -0.0887
  865MOL0     O16641   1.601   6.058   5.453 -0.0162 -0.6547 -0.2917
  865MOL0     C16642   1.580   6.155   5.520  0.4652 -0.1850  0.6654
  865MOL0     O16643   1.455   6.218   5.529  0.5164  0.3771 -0.3190
  865MOL0     C16644   1.345   6.175   5.467 -0.5087  0.5815 -0.1529
  865MOL0     C16645   1.287   6.059   5.513 -0.9460  0.5960 -0.2514
  865MOL0     C16646   1.166   6.014   5.461 -0.0520  0.1981  0.1615
  865MOL0     C16647   1.106   6.084   5.362  0.4923  0.4231  0.3171
  865MOL0     O16648   0.987   6.048   5.306 -0.5278  0.1720 -0.2827
  865MOL0     C16649   0.893   5.975   5.390  0.3380  0.5084 -0.6064
  865MOL0     C16650   0.762   5.971   5.314 -0.5466 -0.9435 -0.4059
  865MOL0     C16651   0.654   5.917   5.401  0.9512  0.3349  0.9393
  865MOL0     C16652   0.523   5.919   5.317  0.4072 -0.3030 -0.3387
  865MOL0     C16653   0.420   5.858   5.397  0.2944  0.5337  0.2474
  865MOL0     C16654   0.302   5.828   5.314 -0.4319  0.7620  0.2732
  865MOL0     C16655   0.194   5.780   5.402  0.5278  0.7295 -0.6868
  865MOL0     C16656   0.073   5.740   5.324 -0.7756 -0.4401  0.0637
  865MOL0     N16657  -0.018   5.674   5.415 -0.2718 -0.2065 -0.3049
  865MOL0     C16658  -0.041   5.540   5.410 -0.7346  0.0136  0.0948
  865MOL0     C16659  -0.114   5.511   5.511 -0.2858 -1.1740  0.1355
  865MOL0     C16660  -0.180   5.372   5.533  0.7134 -0.1858 -0.2015
  865MOL0     C16661  -0.330   5.399   5.511 -0.3409  0.2433  0.5049
  865MOL0     C16662  -0.400   5.270   5.485  0.8047 -0.6946 -0.5862
  865MOL0     C16663  -0.537   5.314   5.434 -1.0250  0.3216  0.8201
  865MOL0     O16664  -0.624   5.201   5.438  0.8848  0.0436 -0.0721
  865MOL0     C16665  -0.729   5.205   5.532 -0.2569 -0.1472  0.2031
  865MOL0     C16666  -0.845   5.123   5.519  0.0006 -0.0405 -0.1968
  865MOL0     C16667  -0.950   5.120   5.601  0.3523 -0.5567  0.0403
  865MOL0     C16668  -1.055   5.026   5.564  0.1691  0.4916  0.1745
  865MOL0     C16669  -0.950   5.208   5.713  0.0073  1.1603  1.0351
  865MOL0     C16670  -1.069   5.215   5.806 -0.2037 -0.2789  0.5311
  865MOL0     O16671  -1.128   5.095   5.837  0.3263 -0.2230 -0.1147
  865MOL0     C16672  -1.253   5.099   5.913 -0.1303  0.2804  0.0622
  865MOL0     C16673  -1.374   5.108   5.834  0.0067 -0.9082  0.6379
  865MOL0     C16674  -1.496   5.106   5.910 -0.1296 -0.1386  0.1769
  865MOL0     C16675  -1.496   5.091   6.056 -0.4782 -0.6407 -0.3173
  865MOL0     O16676  -1.607   5.108   6.135  0.2053  1.0034  0.8146
  865MOL0     C16677  -1.720   5.167   6.082 -0.3456 -0.0563 -0.1134
  865MOL0     C16678  -1.822   5.186   6.199  0.1998 -0.2438  0.3833
  865MOL0     C16679  -1.837   5.322   6.251  0.4258  0.2057 -0.1683
  865MOL0     C16680  -1.974   5.326   6.330 -0.7265  0.7004  0.4520
  865MOL0     C16681  -2.012   5.453   6.395  0.5538  0.0464  0.2512
  865MOL0     C16682  -2.163   5.440   6.442  0.8612 -0.0091 -1.5371
  865MOL0     C16683  -2.268   5.481   6.340 -0.1254 -0.1873  0.0155
  865MOL0     C16684  -2.408   5.487   6.387 -0.0037  0.0507 -0.6612
  865MOL0    Cl16685  -2.503   5.490   6.235 -0.1237 -0.3559  0.0393
  865MOL0     C16686  -1.376   5.092   6.123 -0.2685  0.4901  0.4783
  865MOL0     C16687  -1.260   5.095   6.054 -0.0144  0.1832  0.0311
  865MOL0     O16688  -1.093   5.327   5.857 -0.4030  0.4509 -0.4802
  865MOL0     C16689  -0.842   5.293   5.732 -0.4846 -0.1742  0.0379
  865MOL0     C16690  -0.735   5.284   5.642 -0.4945 -0.9441 -0.6146
  865MOL0     N16691  -0.129   5.626   5.594 -0.0191  0.6031 -0.8961
  865MOL0     N16692  -0.072   5.718   5.533 -0.0846 -0.4452  0.0701
  865MOL0     C16693   1.173   6.194   5.303  0.2552  0.0654 -0.1882
  865MOL0     C16694   1.289   6.241   5.356  0.2184 -0.2655  0.3727
  865MOL0     C16695   1.689   6.232   5.592 -0.0657  1.0436 -0.1283
  865MOL0     C16696   1.812   6.177   5.611  0.1736 -0.0608  0.0418
  865MOL0     C16697   1.927   6.257   5.637 -0.0024  0.2625 -0.3632
  865MOL0     C16698   1.906   6.398   5.653  0.2105  0.5527 -0.3793
  865MOL0     O16699   2.011   6.480   5.669  0.0297  0.5163  0.1095
  865MOL0     C16700   2.141   6.442   5.649 -0.2030 -0.3028  0.0436
  865MOL0     C16701   2.240   6.550   5.678 -0.6189 -0.2205  0.3542
  865MOL0     C16702   2.229   6.589   5.823 -0.9131  0.2084  0.2929
  865MOL0     C16703   2.334   6.703   5.849  0.3217  0.5801  0.0751
  865MOL0     C16704   2.472   6.650   5.811  0.0007  0.3293 -0.1164
  865MOL0     C16705   2.585   6.611   5.802 -0.1069 -0.2749 -0.0882
  865MOL0     C16706   1.778   6.451   5.643 -1.0778 -0.5465 -0.0387
  865MOL0     C16707   1.672   6.365   5.609 -0.4116 -0.2750 -0.1524
  865MOL0     H16708   1.331   6.016   5.603 -0.4110  0.1363 -0.7219
  865MOL0     H16709   1.114   5.925   5.495  0.2842 -0.3272 -0.6663
  865MOL0     H16710   0.932   5.873   5.393  1.8277  1.0493 -0.8517
  865MOL0     H16711   0.880   6.011   5.492 -2.9416  0.4034 -0.8874
  865MOL0     H16712   0.735   6.074   5.287 -1.5532 -1.4231 -1.3201
  865MOL0     H16713   0.783   5.910   5.225 -0.2557 -2.5366  0.7152
  865MOL0     H16714   0.675   5.816   5.440  0.4291 -0.0842  0.1544
  865MOL0     H16715   0.641   5.982   5.488 -1.2537  1.0877  0.1122
  865MOL0     H16716   0.512   6.026   5.293  2.9683  0.4210  1.2467
  865MOL0     H16717   0.537   5.863   5.225  0.8948  0.5053 -0.7739
  865MOL0     H16718   0.451   5.770   5.453 -2.3828  1.4380  3.4636
  865MOL0     H16719   0.393   5.926   5.478 -0.4573 -0.2080  0.6249
  865MOL0     H16720   0.260   5.923   5.278 -0.0738 -0.9455 -5.6923
  865MOL0     H16721   0.325   5.765   5.229  0.0054  1.7249 -0.3401
  865MOL0     H16722   0.239   5.693   5.450  1.9265  1.5478 -0.4424
  865MOL0     H16723   0.173   5.858   5.475  1.4655  1.8092 -1.5232
  865MOL0     H16724   0.105   5.672   5.244 -0.4069  0.2842 -0.4114
  865MOL0     H16725   0.024   5.826   5.278  1.2187  0.5464 -0.3119
  865MOL0     H16726  -0.004   5.477   5.329 -1.0771 -0.8232  0.5797
  865MOL0     H16727  -0.144   5.291   5.469  1.5311 -1.4893  1.7835
  865MOL0     H16728  -0.161   5.351   5.639  1.4989  0.9447 -0.1081
  865MOL0     H16729  -0.347   5.458   5.420 -1.6193  0.3678  0.8009
  865MOL0     H16730  -0.376   5.450   5.596 -1.3114  0.4255 -0.1074
  865MOL0     H16731  -0.406   5.203   5.571  1.0067  0.1216  0.0793
  865MOL0     H16732  -0.343   5.211   5.413  1.1120  0.8850 -1.7085
  865MOL0     H16733  -0.527   5.340   5.328 -2.4450 -3.4984 -0.3980
  865MOL0     H16734  -0.572   5.402   5.489  0.0802 -0.1258  2.3222
  865MOL0     H16735  -0.841   5.049   5.439  2.9967  0.0239 -0.2025
  865MOL0     H16736  -1.151   5.078   5.560  0.2452  0.6236  0.0350
  865MOL0     H16737  -1.027   4.976   5.471 -4.1811 -3.8039  0.7474
  865MOL0     H16738  -1.060   4.952   5.645  1.8253  0.5969  0.4021
  865MOL0     H16739  -1.369   5.118   5.726  3.3071  0.6356  0.7990
  865MOL0     H16740  -1.583   5.122   5.847 -0.1584  1.2578  0.5478
  865MOL0     H16741  -1.697   5.268   6.048  1.7646  0.2939  2.1224
  865MOL0     H16742  -1.753   5.102   6.000  0.2150 -0.4706 -0.0224
  865MOL0     H16743  -1.918   5.158   6.154  0.5057 -1.3914  0.3960
  865MOL0     H16744  -1.801   5.118   6.283 -2.4416 -0.5242  0.9188
  865MOL0     H16745  -1.838   5.396   6.170  2.0578  1.4100  0.8383
  865MOL0     H16746  -1.749   5.340   6.314  1.0948  0.3526 -1.1135
  865MOL0     H16747  -2.054   5.307   6.258 -1.6326  1.2096  1.3005
  865MOL0     H16748  -1.975   5.242   6.400  1.4881 -0.6933 -1.0226
  865MOL0     H16749  -1.996   5.545   6.338  0.7166  0.8742  1.5716
  865MOL0     H16750  -1.944   5.454   6.481 -1.4307 -3.8081  2.0996
  865MOL0     H16751  -2.177   5.335   6.468 -0.5385  1.1075  3.1462
  865MOL0     H16752  -2.185   5.496   6.534 -0.5074 -1.5634 -0.8599
  865MOL0     H16753  -2.260   5.407   6.260  0.3606 -0.1555  0.0286
  865MOL0     H16754  -2.241   5.579   6.299  1.6110 -1.2481 -1.5925
  865MOL0     H16755  -2.441   5.563   6.458  0.0272 -1.7533  1.3853
  865MOL0     H16756  -2.434   5.397   6.444  1.3284 -0.1468 -0.3357
  865MOL0     H16757  -1.382   5.083   6.231  0.0535 -0.7996  0.4020
  865MOL0     H16758  -1.171   5.082   6.115 -1.1548  0.9060  1.9309
  865MOL0     H16759  -0.837   5.361   5.817 -2.2256 -0.5290  0.4686
  865MOL0     H16760  -0.652   5.348   5.672 -1.2451 -0.3942  0.3508
  865MOL0     H16761   1.133   6.246   5.216 -3.0927  0.0772  1.1769
  865MOL0     H16762   1.327   6.336   5.320  2.7610 -1.9709 -1.8361
  865MOL0     H16763   1.819   6.071   5.589 -0.3405 -0.2882  0.9178
  865MOL0     H16764   2.029   6.220   5.645  0.7730  2.4288  0.8200
  865MOL0     H16765   2.176   6.356   5.707 -2.3445 -0.8811  0.5751
  865MOL0     H16766   2.153   6.411   5.545  2.7776  0.7906 -0.0386
  865MOL0     H16767   2.226   6.640   5.616 -3.4265 -1.4000 -0.8969
  865MOL0     H16768   2.334   6.506   5.644 -0.8700  0.2102 -0.9754
  865MOL0     H16769   2.246   6.508   5.894 -2.4743  1.8592  2.7133
  865MOL0     H16770   2.125   6.621   5.831 -1.0138  0.1231 -0.6367
  865MOL0     H16771   2.322   6.732   5.954  0.4253  1.2489 -0.0897
  865MOL0     H16772   2.300   6.797   5.803 -1.9188  0.4063  1.2550
  865MOL0     H16773   2.690   6.586   5.795 -0.2605 -0.9318 -0.1606
  865MOL0     H16774   1.770   6.558   5.653  1.3788 -0.3754  0.8152
  865MOL0     H16775   1.582   6.425   5.596  1.1194  2.2799  0.3611
  866MOL0     O16776   2.108   2.228   9.763  0.2145  0.2093  0.1781
  866MOL0     C16777   2.126   2.243   9.879 -0.5186  0.3232  0.3203
  866MOL0     O16778   2.029   2.240   9.981  0.0466 -0.2454 -0.1346
  866MOL0     C16779   1.898   2.217   9.952 -0.4331  0.0377  0.1808
  866MOL0     C16780   1.851   2.083   9.958 -0.2337 -0.1562 -0.5531
  866MOL0     C16781   1.718   2.058   9.945 -0.5713 -0.7725  0.4961
  866MOL0     C16782   1.634   2.165   9.936  0.2927  0.6156  0.5926
  866MOL0     O16783   1.499   2.150   9.924 -0.4373  0.6724  0.3435
  866MOL0     C16784   1.445   2.029   9.982 -0.6381 -0.2042 -0.5381
  866MOL0     C16785   1.295   2.041   9.978 -0.4496  0.2651 -0.2822
  866MOL0     C16786   1.224   1.924  10.054  0.9179 -0.5641  0.1016
  866MOL0     C16787   1.074   1.976  10.077  0.4121  0.4806  0.1458
  866MOL0     C16788   0.992   1.896  10.171 -0.4207  0.9294 -0.0870
  866MOL0     C16789   0.849   1.946  10.182 -0.7333 -0.1383  0.2229
  866MOL0     C16790   0.773   1.869  10.290 -0.7254 -0.0618 -0.3008
  866MOL0     C16791   0.642   1.943  10.329  0.3298 -0.2637 -0.0734
  866MOL0     N16792   0.549   1.951  10.223  0.0430  0.2551 -0.6938
  866MOL0     C16793   0.509   1.851  10.140 -0.8166 -0.4284  0.0442
  866MOL0     C16794   0.411   1.912  10.069 -1.0126 -0.4849 -0.6956
  866MOL0     C16795   0.332   1.840   9.964  0.9440  0.2195  0.5010
  866MOL0     C16796   0.210   1.761  10.019  0.1171  0.9080 -0.4098
  866MOL0     C16797   0.140   1.685   9.910 -0.8962  1.1474  0.8944
  866MOL0     C16798   0.040   1.582   9.957  0.2470 -0.1002 -0.3014
  866MOL0     O16799  -0.083   1.644  10.018 -0.1910  0.4429  0.2452
  866MOL0     C16800  -0.186   1.562  10.031  0.6078 -0.1910 -0.4938
  866MOL0     C16801  -0.201   1.425   9.992  1.1566  0.7822 -0.3136
  866MOL0     C16802  -0.322   1.349  10.017 -0.6419  0.1428  0.1222
  866MOL0     C16803  -0.334   1.205   9.982 -0.7196 -0.2849 -0.2602
  866MOL0     C16804  -0.432   1.423  10.065  0.5998  0.5781  0.3693
  866MOL0     C16805  -0.560   1.359  10.093 -0.5582 -0.4173 -0.9561
  866MOL0     O16806  -0.675   1.412  10.041  0.3533  0.1278  0.9485
  866MOL0     C16807  -0.793   1.340  10.049 -0.2243 -0.4430  0.6373
  866MOL0     C16808  -0.910   1.416  10.033  0.1426 -0.0902 -0.1550
  866MOL0     C16809  -1.035   1.359  10.053  0.5080  0.1573 -1.0146
  866MOL0     C16810  -1.047   1.225  10.099 -0.2166 -0.1604 -0.0843
  866MOL0     O16811  -1.160   1.147  10.119 -0.0505  0.2785  0.2204
  866MOL0     C16812  -1.282   1.218  10.088  0.7955 -0.1420 -0.3534
  866MOL0     C16813  -1.401   1.153  10.150  0.7585  0.5301  0.0846
  866MOL0     C16814  -1.510   1.109  10.051 -0.8053  0.7885 -0.6009
  866MOL0     C16815  -1.610   1.012  10.123  0.0801  0.7378 -0.0991
  866MOL0     C16816  -1.720   0.981  10.027 -0.7068 -0.5513 -0.1531
  866MOL0     C16817  -1.835   0.899  10.094 -0.0526 -0.2491  0.0234
  866MOL0     C16818  -1.946   0.877   9.996  0.5835  0.5622 -0.1293
  866MOL0     C16819  -2.071   0.828  10.067 -0.2170 -0.3530 -0.1387
  866MOL0    Cl16820  -2.052   0.670  10.138 -0.2359 -0.0704  0.0767
  866MOL0     C16821  -0.928   1.150  10.111  1.2200  0.2015  0.3352
  866MOL0     C16822  -0.801   1.207  10.084  0.1991 -0.1718  0.7201
  866MOL0     O16823  -0.556   1.286  10.195  0.2036 -0.1851 -0.2285
  866MOL0     C16824  -0.415   1.553  10.103  0.6197 -0.0753 -0.0130
  866MOL0     C16825  -0.296   1.620  10.093  0.6149 -0.1044  0.3108
  866MOL0     N16826   0.389   2.036  10.119 -0.3245  0.6216  0.5877
  866MOL0     N16827   0.473   2.063  10.209  0.1575  0.3074 -0.6194
  866MOL0     C16828   1.676   2.298   9.932  0.7563 -0.8021  0.0155
  866MOL0     C16829   1.811   2.323   9.949 -0.3127 -0.1582 -0.2596
  866MOL0     C16830   2.265   2.280   9.907 -0.1743 -0.3095 -0.4721
  866MOL0     C16831   2.295   2.355  10.021 -0.5099  0.4491  0.1370
  866MOL0     C16832   2.427   2.401  10.043 -0.2796 -0.5635  0.0376
  866MOL0     C16833   2.531   2.367   9.950 -0.6756  0.4181  0.7474
  866MOL0     O16834   2.661   2.406   9.958  0.0780  0.4751  0.1491
  866MOL0     C16835   2.700   2.519  10.041  0.3012  0.5389 -0.1826
  866MOL0     C16836   2.765   2.484  10.178  0.3697  0.3604  0.2820
  866MOL0     C16837   2.883   2.392  10.165  0.2213  0.9194 -0.2793
  866MOL0     C16838   2.915   2.324  10.295  0.5817 -0.8883 -0.6309
  866MOL0     C16839   2.819   2.225  10.342  1.1088 -0.3479 -0.0964
  866MOL0     C16840   2.744   2.139  10.379  0.7497 -0.2037  0.5095
  866MOL0     C16841   2.499   2.289   9.841  0.1418 -1.4683  0.4727
  866MOL0     C16842   2.369   2.244   9.817 -0.4357 -0.1636  0.4324
  866MOL0     H16843   1.919   1.999   9.972  2.5810  2.0361 -0.3387
  866MOL0     H16844   1.690   1.955   9.924  1.0074 -0.7319 -2.3335
  866MOL0     H16845   1.484   1.945   9.925  3.5403  0.5284  0.9094
  866MOL0     H16846   1.476   2.018  10.086 -1.2068 -1.6946 -0.5142
  866MOL0     H16847   1.265   2.141  10.010 -3.4776  0.2925 -2.6614
  866MOL0     H16848   1.263   2.034   9.873  0.3647  0.6876 -0.5658
  866MOL0     H16849   1.233   1.827  10.005 -0.4428 -0.8561  0.4034
  866MOL0     H16850   1.277   1.917  10.150  2.6380 -0.2626 -0.7881
  866MOL0     H16851   1.090   2.074  10.123 -1.0338  0.0212  1.7645
  866MOL0     H16852   1.027   1.982   9.979  3.2506 -0.0268 -1.3601
  866MOL0     H16853   0.998   1.793  10.134  0.5732  0.4103  1.3836
  866MOL0     H16854   1.035   1.890  10.271 -1.7980  1.6598  0.5783
  866MOL0     H16855   0.863   2.050  10.211 -1.1268 -0.1286  0.3771
  866MOL0     H16856   0.804   1.937  10.083 -0.0045 -3.2976  0.0595
  866MOL0     H16857   0.754   1.766  10.258  1.0854 -0.4635 -0.2272
  866MOL0     H16858   0.836   1.862  10.379  1.3425 -2.7741 -1.8110
  866MOL0     H16859   0.661   2.043  10.370 -0.7928  0.0297 -0.2467
  866MOL0     H16860   0.586   1.887  10.404  0.4082 -2.1295 -1.3419
  866MOL0     H16861   0.537   1.747  10.127  0.1525 -0.4121  1.6301
  866MOL0     H16862   0.291   1.911   9.892  0.8489 -0.4116 -0.0790
  866MOL0     H16863   0.399   1.776   9.906  2.4438  1.4223  0.8227
  866MOL0     H16864   0.143   1.831  10.069 -2.3977 -1.7823  0.2867
  866MOL0     H16865   0.245   1.694  10.098  1.9588 -0.4123 -2.2575
  866MOL0     H16866   0.215   1.621   9.864 -1.7111  1.0490 -0.3600
  866MOL0     H16867   0.093   1.747   9.833 -1.4151  2.1823  2.0057
  866MOL0     H16868   0.090   1.511  10.023  2.3061 -0.2866 -1.9745
  866MOL0     H16869   0.014   1.521   9.870  3.5778 -1.9778 -0.1495
  866MOL0     H16870  -0.118   1.373   9.945  2.8414  2.8641  0.1819
  866MOL0     H16871  -0.242   1.156   9.951 -1.3492 -1.8234  0.1918
  866MOL0     H16872  -0.363   1.145  10.069  0.1108  2.7570  2.2810
  866MOL0     H16873  -0.406   1.198   9.900 -0.9495 -2.1031  0.0538
  866MOL0     H16874  -0.891   1.520  10.007 -1.3239  0.3490  0.4630
  866MOL0     H16875  -1.126   1.418  10.044  0.3221 -0.0468 -0.4692
  866MOL0     H16876  -1.287   1.322  10.121 -1.9161  0.2921 -1.8391
  866MOL0     H16877  -1.291   1.224   9.979 -0.3208 -0.7689 -0.3066
  866MOL0     H16878  -1.369   1.065  10.206  0.0281  0.6511  0.7058
  866MOL0     H16879  -1.440   1.223  10.225  2.3527  2.3221 -0.6685
  866MOL0     H16880  -1.466   1.060   9.964  1.2694 -0.2317  0.9524
  866MOL0     H16881  -1.563   1.199  10.017  0.5422  1.8382 -0.0121
  866MOL0     H16882  -1.559   0.922  10.160 -3.5177 -0.9341  1.3447
  866MOL0     H16883  -1.650   1.057  10.215  2.0473 -0.1237  1.2543
  866MOL0     H16884  -1.679   0.922   9.944  1.4957  1.0122 -0.2636
  866MOL0     H16885  -1.755   1.079   9.995  0.0625 -0.2699 -0.1655
  866MOL0     H16886  -1.792   0.805  10.131  0.0859 -0.4384 -0.6014
  866MOL0     H16887  -1.864   0.955  10.183  3.2860  0.6852  0.6856
  866MOL0     H16888  -1.920   0.811   9.913  1.8105  0.2555  0.4707
  866MOL0     H16889  -1.977   0.974   9.956 -0.4484  0.5289  0.5405
  866MOL0     H16890  -2.155   0.819   9.998 -0.3781 -3.2332  0.2835
  866MOL0     H16891  -2.097   0.900  10.145  2.1547  0.7819 -0.2828
  866MOL0     H16892  -0.931   1.045  10.140 -1.4069 -0.8056 -3.0106
  866MOL0     H16893  -0.712   1.143  10.082  1.2009  1.1892 -0.1746
  866MOL0     H16894  -0.500   1.608  10.144  0.5614 -0.7598  0.8115
  866MOL0     H16895  -0.286   1.722  10.128  0.6057 -0.9720  3.0335
  866MOL0     H16896   1.609   2.382   9.919  1.9739  0.3464  0.9229
  866MOL0     H16897   1.841   2.426   9.965 -0.9806 -0.2859  2.2562
  866MOL0     H16898   2.216   2.373  10.093 -1.3577 -0.5057 -0.5423
  866MOL0     H16899   2.455   2.458  10.131 -1.3020  1.1687 -0.7031
  866MOL0     H16900   2.775   2.575   9.984 -0.5336  2.3248  0.3760
  866MOL0     H16901   2.621   2.591  10.065 -0.1035 -0.6556  2.4419
  866MOL0     H16902   2.694   2.439  10.249  2.7767 -0.7442  2.1310
  866MOL0     H16903   2.792   2.577  10.229 -4.0861  1.2340  1.5661
  866MOL0     H16904   2.968   2.454  10.134  0.4020  1.1686  0.6650
  866MOL0     H16905   2.868   2.314  10.090 -1.0021 -2.0630  2.8028
  866MOL0     H16906   2.925   2.398  10.375 -0.4865 -1.2216 -0.1725
  866MOL0     H16907   3.008   2.271  10.276  0.8469  0.0750 -2.1539
  866MOL0     H16908   2.670   2.065  10.403  1.4243 -1.3476 -0.8491
  866MOL0     H16909   2.585   2.252   9.785  0.8226  1.8794 -0.9222
  866MOL0     H16910   2.340   2.182   9.733  1.6070 -1.2036  0.4154
  867MOL0     O16911   9.460   0.020   7.912 -0.2615  0.1506 -0.5306
  867MOL0     C16912   9.487   0.056   7.797  0.2552  0.2278 -0.5050
  867MOL0     O16913   9.411   0.132   7.718 -0.5167 -0.3421  0.8738
  867MOL0     C16914   9.281   0.138   7.748 -0.6650 -0.0463  0.3708
  867MOL0     C16915   9.196   0.049   7.680  0.2706  0.1708 -0.2889
  867MOL0     C16916   9.061   0.047   7.706  0.1504  0.4960  0.1139
  867MOL0     C16917   9.012   0.142   7.796  0.5708  0.0835  0.1521
  867MOL0     O16918   8.875   0.140   7.806  0.1447  1.2525  0.3877
  867MOL0     C16919   8.799   0.237   7.878  0.2067  0.5458  1.3268
  867MOL0     C16920   8.799   0.207   8.025 -0.2527 -0.5481  0.6524
  867MOL0     C16921   8.714   0.083   8.066  0.0714 -0.3400  0.4521
  867MOL0     C16922   8.737   0.057   8.211  0.0224  0.7861 -0.5176
  867MOL0     C16923   8.657  -0.075   8.240  0.1195 -0.2257  0.2562
  867MOL0     C16924   8.682  -0.142   8.381  0.3192 -0.0424 -0.0390
  867MOL0     C16925   8.656  -0.057   8.506  0.7805 -0.5482 -0.4354
  867MOL0     C16926   8.504  -0.050   8.515  0.0693  0.3830  0.4661
  867MOL0     N16927   8.453   0.023   8.631  0.6453  0.6664 -0.2269
  867MOL0     C16928   8.413   0.152   8.634 -0.5595  0.1322 -0.0094
  867MOL0     C16929   8.380   0.176   8.768  0.3150  0.5980  0.4947
  867MOL0     C16930   8.332   0.314   8.810 -1.6991 -0.4378 -1.5234
  867MOL0     C16931   8.190   0.322   8.865 -0.4551 -0.2156  0.1705
  867MOL0     C16932   8.094   0.367   8.751  0.2045  0.3913 -0.0647
  867MOL0     C16933   7.952   0.360   8.797  0.1973 -0.5861  0.4458
  867MOL0     O16934   7.923   0.452   8.911 -0.5329 -0.0307 -0.3068
  867MOL0     C16935   7.795   0.462   8.964 -0.0765 -0.0231  0.9463
  867MOL0     C16936   7.772   0.542   9.073  0.5061 -0.0945 -1.0737
  867MOL0     C16937   7.656   0.537   9.152 -0.9534  0.1294  0.1021
  867MOL0     C16938   7.663   0.620   9.277 -0.0549  0.2595 -0.6365
  867MOL0     C16939   7.544   0.462   9.105 -0.2498 -0.1520 -0.5097
  867MOL0     C16940   7.410   0.466   9.174 -0.2804  0.6332  0.1169
  867MOL0     O16941   7.310   0.394   9.110  0.0931 -0.4029  0.9538
  867MOL0     C16942   7.188   0.364   9.160 -0.8827  0.4805 -0.3011
  867MOL0     C16943   7.159   0.357   9.297 -0.1685 -0.0074 -0.7571
  867MOL0     C16944   7.035   0.326   9.346  0.0313  0.6397  0.5444
  867MOL0     C16945   6.929   0.303   9.253  0.5427  0.6148  0.1110
  867MOL0     O16946   6.809   0.267   9.309  0.2948 -0.5131  0.0144
  867MOL0     C16947   6.693   0.249   9.225  0.1547 -0.9180  0.3160
  867MOL0     C16948   6.642   0.386   9.181  0.0112  0.1217  0.5918
  867MOL0     C16949   6.514   0.369   9.100  0.6837 -0.5348  0.5086
  867MOL0     C16950   6.484   0.494   9.018  0.6748  0.4587 -0.3210
  867MOL0     C16951   6.343   0.486   8.947  0.2239 -0.6435 -1.2269
  867MOL0     C16952   6.327   0.621   8.877  0.3457 -0.3011 -0.1340
  867MOL0     C16953   6.184   0.631   8.841  0.0347  0.4729  0.7810
  867MOL0     C16954   6.164   0.763   8.765  0.4628 -0.2198 -0.3621
  867MOL0    Cl16955   6.000   0.787   8.716  0.1928  0.0624 -0.2475
  867MOL0     C16956   6.956   0.299   9.116 -0.2220 -0.1067 -0.1467
  867MOL0     C16957   7.083   0.330   9.068 -0.4752 -0.1655 -0.7088
  867MOL0     O16958   7.396   0.521   9.282  0.1269 -0.3636  0.0753
  867MOL0     C16959   7.556   0.387   8.985  0.7584  0.7806  0.9969
  867MOL0     C16960   7.684   0.386   8.920 -1.4069 -0.4393  0.6368
  867MOL0     N16961   8.367   0.053   8.824  0.2890 -0.7303 -1.3126
  867MOL0     N16962   8.407  -0.045   8.746 -0.0862 -0.0957  0.6301
  867MOL0     C16963   9.098   0.227   7.864 -0.0785  0.7951 -0.4702
  867MOL0     C16964   9.229   0.226   7.845  0.1047 -0.1169  0.8826
  867MOL0     C16965   9.620   0.009   7.749  0.1594  0.4132  0.3443
  867MOL0     C16966   9.734  -0.017   7.837 -0.5324 -1.3596  0.3228
  867MOL0     C16967   9.863  -0.048   7.775 -0.3267 -0.8299  0.2067
  867MOL0     C16968   9.873  -0.058   7.634 -0.1713 -0.5414 -0.4432
  867MOL0     O16969   9.992  -0.074   7.577 -0.2967  0.4151 -0.2233
  867MOL0     C16970  10.072   0.043   7.553  0.5337  0.0044  0.1984
  867MOL0     C16971  10.018   0.120   7.434  0.3119 -0.5116  0.5785
  867MOL0     C16972  10.085   0.251   7.434  0.1821  0.1059  0.5551
  867MOL0     C16973  10.030   0.334   7.322 -0.3807 -0.9808  0.5834
  867MOL0     C16974  10.094   0.292   7.197 -0.0963  0.1165  0.3708
  867MOL0     C16975  10.158   0.266   7.093  0.2249  0.0618 -0.5600
  867MOL0     C16976   9.757  -0.054   7.558 -0.4224 -0.4661  0.0911
  867MOL0     C16977   9.634  -0.006   7.610 -0.5949  0.0386 -0.3592
  867MOL0     H16978   9.232  -0.022   7.607 -2.0328 -0.9434 -0.4419
  867MOL0     H16979   9.010  -0.040   7.665  1.3152  0.1179 -0.5755
  867MOL0     H16980   8.835   0.339   7.863  0.4426  0.3260  0.3471
  867MOL0     H16981   8.695   0.232   7.847  1.3239 -2.9440 -2.8203
  867MOL0     H16982   8.905   0.201   8.050 -0.1717  0.9429  0.7612
  867MOL0     H16983   8.771   0.297   8.080  0.2124 -0.2908  0.4774
  867MOL0     H16984   8.609   0.115   8.065 -0.1438 -0.8790 -2.0966
  867MOL0     H16985   8.735  -0.006   8.005  1.8616  0.1921  0.2360
  867MOL0     H16986   8.842   0.031   8.231 -0.6958 -1.5421  0.5515
  867MOL0     H16987   8.715   0.144   8.275  0.6505  0.1558  0.5834
  867MOL0     H16988   8.549  -0.059   8.234  0.1540 -0.3926 -1.1570
  867MOL0     H16989   8.679  -0.150   8.164  4.0068  2.0824 -1.1896
  867MOL0     H16990   8.619  -0.231   8.391 -0.0987  0.3770  1.4669
  867MOL0     H16991   8.785  -0.177   8.387 -0.3411 -2.2191 -0.5465
  867MOL0     H16992   8.695  -0.115   8.591  2.3565 -2.0816 -2.1318
  867MOL0     H16993   8.707   0.040   8.508 -1.1615  0.5550 -1.5945
  867MOL0     H16994   8.454  -0.145   8.494  2.9896 -1.7359  2.4287
  867MOL0     H16995   8.467   0.018   8.437 -1.0504 -0.1964  0.4664
  867MOL0     H16996   8.432   0.228   8.559  0.8815 -0.9117 -0.7455
  867MOL0     H16997   8.403   0.319   8.893 -0.8193 -1.0166 -2.2168
  867MOL0     H16998   8.352   0.389   8.734  0.2458  1.4025  0.6556
  867MOL0     H16999   8.192   0.386   8.954  0.1465  0.1049 -0.0715
  867MOL0     H17000   8.165   0.223   8.904 -0.1559 -0.1743  0.4682
  867MOL0     H17001   8.098   0.302   8.663  1.1089 -0.9234  0.9057
  867MOL0     H17002   8.097   0.472   8.721 -0.8678  0.7255  0.9240
  867MOL0     H17003   7.935   0.259   8.835  0.5073 -1.4140 -1.4887
  867MOL0     H17004   7.885   0.379   8.713 -1.0900  3.3349  2.1340
  867MOL0     H17005   7.853   0.608   9.105 -1.1870  2.3157 -1.4580
  867MOL0     H17006   7.762   0.658   9.305  0.5290 -1.3091 -0.4615
  867MOL0     H17007   7.588   0.699   9.264  1.4243  1.5320 -1.9432
  867MOL0     H17008   7.644   0.563   9.369  1.2054  0.1890 -0.4092
  867MOL0     H17009   7.230   0.381   9.375  0.3304  0.2765 -1.2883
  867MOL0     H17010   7.026   0.319   9.453  2.4098 -0.6197  0.7309
  867MOL0     H17011   6.710   0.197   9.130  0.0319  0.7105 -0.6257
  867MOL0     H17012   6.616   0.194   9.280  0.5127 -2.1137 -0.3232
  867MOL0     H17013   6.612   0.431   9.276 -0.2282  3.5364 -0.9242
  867MOL0     H17014   6.716   0.451   9.134  2.9341 -2.7319  0.8796
  867MOL0     H17015   6.434   0.335   9.167  0.0806  1.4611  0.8472
  867MOL0     H17016   6.526   0.285   9.030  1.6453 -0.0271  0.0461
  867MOL0     H17017   6.497   0.585   9.077  0.0393  1.1356 -1.1975
  867MOL0     H17018   6.559   0.491   8.938  2.4488 -2.3521  1.2614
  867MOL0     H17019   6.266   0.486   9.025  1.8367 -1.1453  0.4343
  867MOL0     H17020   6.331   0.402   8.879 -0.4437 -1.6013  0.0417
  867MOL0     H17021   6.333   0.711   8.939 -2.0351  0.2966 -0.6768
  867MOL0     H17022   6.397   0.635   8.794 -0.9609  2.9553 -0.8146
  867MOL0     H17023   6.108   0.630   8.920 -4.2528  1.6912 -2.9135
  867MOL0     H17024   6.168   0.552   8.768 -0.2348  0.7014  0.5941
  867MOL0     H17025   6.227   0.770   8.676 -2.7223 -2.0420 -3.0510
  867MOL0     H17026   6.182   0.856   8.818  0.9275 -0.0247 -0.8506
  867MOL0     H17027   6.889   0.283   9.032 -1.7682  0.7780  0.8602
  867MOL0     H17028   7.107   0.306   8.965 -0.8858 -0.8361 -0.6477
  867MOL0     H17029   7.474   0.336   8.936 -1.1125  2.8580  1.8422
  867MOL0     H17030   7.696   0.320   8.835 -0.3595 -0.6862  0.9609
  867MOL0     H17031   9.062   0.295   7.941  1.5166  1.9034 -0.6742
  867MOL0     H17032   9.297   0.292   7.898  2.2489 -1.3736 -0.1755
  867MOL0     H17033   9.727  -0.018   7.945  4.6798 -0.8468  0.9060
  867MOL0     H17034   9.955  -0.054   7.831 -0.2555 -0.0886  0.1725
  867MOL0     H17035  10.080   0.110   7.639  0.9900  0.7763 -0.4355
  867MOL0     H17036  10.168   0.004   7.517 -1.4129 -4.4427 -0.8357
  867MOL0     H17037   9.909   0.124   7.438  0.3368  2.0056  0.6253
  867MOL0     H17038  10.041   0.070   7.340  0.0258 -1.8053  1.1788
  867MOL0     H17039  10.194   0.243   7.438  0.0925 -1.4598  0.6172
  867MOL0     H17040  10.071   0.310   7.525 -0.9209 -0.7964  0.9945
  867MOL0     H17041  10.038   0.442   7.342 -1.1549 -0.4156 -1.8278
  867MOL0     H17042   9.922   0.321   7.312 -0.5548  0.4310  0.4398
  867MOL0     H17043  10.211   0.241   7.003 -0.8835 -2.9493 -0.5070
  867MOL0     H17044   9.764  -0.074   7.451 -0.9912 -3.1990  0.4947
  867MOL0     H17045   9.549   0.023   7.549  0.1665  0.2321 -1.3586
  868MOL0     O17046   6.702   7.997   5.425  0.1885  0.1999  0.5431
  868MOL0     C17047   6.776   7.898   5.416  0.0654  0.5769  0.5266
  868MOL0     O17048   6.741   7.773   5.459 -0.0339 -0.3454 -0.6846
  868MOL0     C17049   6.608   7.726   5.476  0.2368 -0.7142 -0.7221
  868MOL0     C17050   6.595   7.601   5.534 -0.1995 -0.8130  0.4373
  868MOL0     C17051   6.474   7.548   5.576 -0.0151  0.3459  0.2749
  868MOL0     C17052   6.360   7.621   5.561  0.6440 -0.2390  0.1642
  868MOL0     O17053   6.243   7.572   5.608  0.8735 -0.5128  1.0045
  868MOL0     C17054   6.124   7.650   5.631 -0.3641 -0.5239  0.6633
  868MOL0     C17055   6.025   7.598   5.736 -0.1933 -0.1169 -0.5740
  868MOL0     C17056   5.883   7.642   5.724 -0.1282 -0.0622  0.7794
  868MOL0     C17057   5.881   7.793   5.755  0.1893  0.3351  0.3857
  868MOL0     C17058   5.752   7.846   5.812  0.1108  0.6754 -0.5040
  868MOL0     C17059   5.631   7.792   5.737 -0.8651 -0.1957  0.5805
  868MOL0     C17060   5.508   7.852   5.791  0.1504  0.4360  0.2461
  868MOL0     C17061   5.383   7.785   5.737 -0.3073  0.6692  0.2420
  868MOL0     N17062   5.268   7.848   5.794  0.1880 -0.1056 -0.1995
  868MOL0     C17063   5.213   7.960   5.740 -0.7850  0.6329  0.7491
  868MOL0     C17064   5.100   7.985   5.802  0.1219  0.4297 -0.8033
  868MOL0     C17065   5.010   8.104   5.783 -0.4114 -0.3461  0.0589
  868MOL0     C17066   4.902   8.114   5.894 -0.0155 -0.1119  0.5882
  868MOL0     C17067   4.811   8.234   5.861 -0.2381 -0.0244 -0.2821
  868MOL0     C17068   4.716   8.257   5.976  0.5397  0.0990 -0.2117
  868MOL0     O17069   4.624   8.367   5.957 -0.0696 -0.1863 -0.4999
  868MOL0     C17070   4.488   8.339   5.955 -0.6010 -0.6541 -0.2781
  868MOL0     C17071   4.428   8.221   5.921  1.5837  0.4504  0.8567
  868MOL0     C17072   4.283   8.213   5.917 -0.0478  0.4199  1.7145
  868MOL0     C17073   4.228   8.070   5.888 -0.4855  0.0747  0.2112
  868MOL0     C17074   4.205   8.319   5.962 -0.3482  0.2016 -0.4856
  868MOL0     C17075   4.060   8.321   5.972  0.2953 -0.4832 -0.0033
  868MOL0     O17076   3.988   8.224   5.909  0.1052 -1.3665  0.3116
  868MOL0     C17077   3.852   8.216   5.907 -0.2406 -0.7396  0.7971
  868MOL0     C17078   3.774   8.325   5.868  0.3757 -0.7159  0.4039
  868MOL0     C17079   3.641   8.301   5.847 -0.3394 -0.7559  0.7235
  868MOL0     C17080   3.578   8.183   5.883  0.1456  0.2958 -0.0904
  868MOL0     O17081   3.441   8.167   5.864  0.3158  0.2708 -0.9711
  868MOL0     C17082   3.376   8.042   5.849 -0.5988 -0.4222 -0.5946
  868MOL0     C17083   3.233   8.072   5.810  0.4431  0.0481  0.3519
  868MOL0     C17084   3.132   7.961   5.802  0.6444  0.4254 -0.3279
  868MOL0     C17085   3.011   8.006   5.718 -0.1611  0.4480  0.7137
  868MOL0     C17086   2.924   7.876   5.679  0.9844 -0.2332 -0.3354
  868MOL0     C17087   2.811   7.902   5.569  0.0287 -0.7959  0.5045
  868MOL0     C17088   2.752   7.771   5.524  0.7587  0.6091  0.0275
  868MOL0     C17089   2.627   7.789   5.431 -0.2410  0.6687 -0.7018
  868MOL0    Cl17090   2.493   7.880   5.516 -0.4195 -0.1297  0.3447
  868MOL0     C17091   3.652   8.073   5.925  0.0420  0.9374  0.5749
  868MOL0     C17092   3.796   8.090   5.940  0.3119  0.4358  0.3076
  868MOL0     O17093   4.001   8.403   6.049  0.0103  0.7041  0.5068
  868MOL0     C17094   4.270   8.427   6.015  0.9546 -0.1545  0.5674
  868MOL0     C17095   4.412   8.440   6.012 -0.5009  0.2534 -0.1449
  868MOL0     N17096   5.085   7.890   5.898  0.4495  0.7273  0.7365
  868MOL0     N17097   5.187   7.807   5.890  1.2237  0.3019 -0.6494
  868MOL0     C17098   6.370   7.748   5.499  0.7188 -0.1338  0.7441
  868MOL0     C17099   6.492   7.801   5.453 -0.1168  0.5729 -0.7834
  868MOL0     C17100   6.916   7.910   5.388 -0.5964  0.0694  1.5766
  868MOL0     C17101   7.007   7.806   5.394  0.8421 -0.4988 -0.0622
  868MOL0     C17102   7.142   7.827   5.343  0.1123 -0.3749 -0.3287
  868MOL0     C17103   7.194   7.957   5.312  0.5130 -0.2801 -0.4321
  868MOL0     O17104   7.319   7.998   5.278 -0.3164  0.1562 -0.3234
  868MOL0     C17105   7.426   7.895   5.268  0.3484 -0.5573 -0.5737
  868MOL0     C17106   7.570   7.953   5.253  0.6131 -0.2074  0.3106
  868MOL0     C17107   7.668   7.846   5.306 -0.2501  0.1051 -0.0157
  868MOL0     C17108   7.800   7.865   5.245 -0.1440  1.0226  0.4061
  868MOL0     C17109   7.892   7.771   5.310 -0.2503 -0.1315 -0.2011
  868MOL0     C17110   7.966   7.693   5.368 -0.0854 -0.1506 -0.7079
  868MOL0     C17111   7.098   8.060   5.312  0.2755 -1.1664 -0.4280
  868MOL0     C17112   6.968   8.032   5.353  0.7643 -0.7353  1.0211
  868MOL0     H17113   6.689   7.553   5.559  0.8458 -0.7601 -2.8947
  868MOL0     H17114   6.476   7.456   5.634  0.5049 -0.2796 -0.7099
  868MOL0     H17115   6.150   7.752   5.663 -2.0320  0.7108 -1.6311
  868MOL0     H17116   6.074   7.663   5.535  2.1762  0.2808 -0.6386
  868MOL0     H17117   6.019   7.489   5.732 -3.1511 -0.0002 -2.5983
  868MOL0     H17118   6.063   7.617   5.837 -1.1959  1.3767 -0.4407
  868MOL0     H17119   5.852   7.626   5.620  1.2062  0.2094  0.3257
  868MOL0     H17120   5.831   7.575   5.793  2.3976 -1.3664  1.5164
  868MOL0     H17121   5.957   7.825   5.826  0.2492  2.5539 -0.6119
  868MOL0     H17122   5.897   7.848   5.662 -2.2798 -1.2840 -1.0908
  868MOL0     H17123   5.745   7.798   5.911  0.6735 -1.5583 -1.4917
  868MOL0     H17124   5.743   7.955   5.813  0.3010  0.6915 -0.6696
  868MOL0     H17125   5.646   7.815   5.631  0.2682  0.5065  0.8783
  868MOL0     H17126   5.632   7.683   5.743 -0.5582 -0.1500  1.5752
  868MOL0     H17127   5.513   7.843   5.900  2.8025 -2.6535  0.0301
  868MOL0     H17128   5.499   7.957   5.761 -5.3121 -0.6415 -3.3432
  868MOL0     H17129   5.376   7.679   5.764  4.1559 -0.1566 -1.0758
  868MOL0     H17130   5.388   7.784   5.628  0.0696 -2.2930  0.2098
  868MOL0     H17131   5.254   8.020   5.659  0.7300 -1.6396 -0.2840
  868MOL0     H17132   5.067   8.197   5.786  2.2234 -1.8916  1.3925
  868MOL0     H17133   4.955   8.087   5.690 -2.0879 -1.9120  1.2591
  868MOL0     H17134   4.951   8.125   5.991 -0.9307  0.6106  0.9809
  868MOL0     H17135   4.847   8.019   5.891  1.0411 -0.7420 -2.0651
  868MOL0     H17136   4.760   8.220   5.765 -1.5134  2.9736 -0.1502
  868MOL0     H17137   4.873   8.322   5.845 -0.0883  0.1515  1.1801
  868MOL0     H17138   4.768   8.261   6.073 -0.9266 -1.1702  0.6729
  868MOL0     H17139   4.658   8.166   5.991  1.1742 -0.2600  0.0929
  868MOL0     H17140   4.475   8.127   5.896 -1.1343 -0.5042 -1.1558
  868MOL0     H17141   4.303   7.991   5.878 -0.5880 -0.1051  0.8141
  868MOL0     H17142   4.165   8.038   5.972 -0.5152  2.0154  0.9791
  868MOL0     H17143   4.175   8.066   5.792  2.6173 -2.8994 -1.5921
  868MOL0     H17144   3.815   8.424   5.850  0.0273 -0.7412 -0.6028
  868MOL0     H17145   3.580   8.380   5.804  2.1489 -0.4848 -2.6692
  868MOL0     H17146   3.427   7.974   5.780  2.2193  0.0027  0.9300
  868MOL0     H17147   3.378   7.989   5.944 -0.3252 -0.8712 -0.8474
  868MOL0     H17148   3.201   8.156   5.871 -0.0440  2.2517 -2.7092
  868MOL0     H17149   3.234   8.116   5.710  0.9719  1.1212  0.8195
  868MOL0     H17150   3.096   7.931   5.900 -3.3564  0.7673 -1.5337
  868MOL0     H17151   3.175   7.872   5.755 -0.2696 -1.1440  1.6734
  868MOL0     H17152   2.955   8.083   5.772 -0.9062  2.4708 -2.6443
  868MOL0     H17153   3.033   8.060   5.626  1.3430  1.5315  1.6512
  868MOL0     H17154   2.864   7.832   5.760 -1.2983 -0.3247 -1.9953
  868MOL0     H17155   2.986   7.792   5.645 -0.9897 -1.5488 -0.8755
  868MOL0     H17156   2.736   7.971   5.608  1.8161  3.3904 -2.7081
  868MOL0     H17157   2.858   7.952   5.484 -0.7768  0.2651  0.6583
  868MOL0     H17158   2.711   7.714   5.608 -0.2768  0.3922 -0.6158
  868MOL0     H17159   2.814   7.703   5.465 -3.0668 -3.4193  0.0923
  868MOL0     H17160   2.587   7.692   5.400 -0.8681  1.2131 -1.6695
  868MOL0     H17161   2.648   7.847   5.340 -0.1487  0.7370 -0.6364
  868MOL0     H17162   3.614   7.973   5.944 -0.8365  0.5980 -2.4394
  868MOL0     H17163   3.849   7.999   5.963  0.1050 -0.4625 -2.4492
  868MOL0     H17164   4.211   8.506   6.060 -1.5367 -1.8502  0.4774
  868MOL0     H17165   4.463   8.526   6.055  2.4304 -0.0905 -2.6189
  868MOL0     H17166   6.287   7.811   5.467  0.4853  0.4871  2.4456
  868MOL0     H17167   6.491   7.897   5.403  2.5047 -0.5002 -3.1800
  868MOL0     H17168   6.992   7.702   5.423  0.8941 -0.8263 -1.1369
  868MOL0     H17169   7.212   7.745   5.333  0.1324 -0.2683 -1.1391
  868MOL0     H17170   7.426   7.830   5.357 -0.4506 -1.9359 -1.5441
  868MOL0     H17171   7.398   7.836   5.180 -1.7393 -1.0720  0.3634
  868MOL0     H17172   7.586   8.036   5.322 -1.5621  0.7832 -0.2732
  868MOL0     H17173   7.595   7.992   5.154  1.3054 -0.4175  0.4002
  868MOL0     H17174   7.630   7.743   5.308  0.4774 -0.1805 -0.8395
  868MOL0     H17175   7.688   7.872   5.411  0.7448 -0.4552 -0.0511
  868MOL0     H17176   7.828   7.970   5.260 -0.9733  1.3282 -0.1247
  868MOL0     H17177   7.807   7.851   5.136 -0.2450 -0.4970  0.5771
  868MOL0     H17178   8.015   7.625   5.434 -0.4388  0.8767  0.6656
  868MOL0     H17179   7.130   8.161   5.286 -1.0838 -0.6193 -0.0641
  868MOL0     H17180   6.906   8.120   5.344 -0.4382 -1.6982 -0.6691
  869MOL0     O17181   5.965  10.746   8.881 -0.3906  0.4023  0.3551
  869MOL0     C17182   6.039  10.724   8.790 -0.2658 -0.3643  0.1970
  869MOL0     O17183   6.006  10.646   8.685  0.4985 -1.0723 -0.1410
  869MOL0     C17184   5.876  10.595   8.671 -0.3636 -0.4036  0.1979
  869MOL0     C17185   5.812  10.518   8.768  1.0231  0.2130  0.5311
  869MOL0     C17186   5.679  10.469   8.750  0.1938  0.2929  0.4309
  869MOL0     C17187   5.605  10.490   8.629  0.6037  1.1943 -0.6312
  869MOL0     O17188   5.486  10.423   8.614  0.0909  0.2909 -0.7801
  869MOL0     C17189   5.451  10.397   8.477  0.3929 -0.2748 -0.2359
  869MOL0     C17190   5.328  10.311   8.455  0.1242 -0.9201 -0.2828
  869MOL0     C17191   5.256  10.315   8.316  0.1031  0.2297 -0.7967
  869MOL0     C17192   5.144  10.424   8.314  0.6770 -0.5389  0.2465
  869MOL0     C17193   5.068  10.411   8.175 -0.3233 -0.0384 -0.5337
  869MOL0     C17194   4.956  10.501   8.147 -0.2118  0.3188 -0.1252
  869MOL0     C17195   4.882  10.455   8.024  0.0519  0.3215  0.0009
  869MOL0     C17196   4.763  10.544   7.995 -0.1068  0.0273  0.1447
  869MOL0     N17197   4.688  10.488   7.892 -0.0749 -0.0196 -0.6359
  869MOL0     C17198   4.571  10.413   7.905 -0.8128 -0.3346 -0.1054
  869MOL0     C17199   4.539  10.386   7.778  0.0966 -0.0281 -0.2498
  869MOL0     C17200   4.432  10.282   7.734  0.2822  0.2777  0.1013
  869MOL0     C17201   4.293  10.351   7.723 -1.5013  0.8395 -0.7716
  869MOL0     C17202   4.252  10.382   7.864  0.0094  0.9216 -0.3777
  869MOL0     C17203   4.114  10.417   7.882  0.1490 -0.4981  0.0951
  869MOL0     O17204   4.092  10.527   7.799  0.1730 -0.1822 -0.3270
  869MOL0     C17205   3.966  10.588   7.832  0.2957  0.0755  0.7852
  869MOL0     C17206   3.955  10.718   7.882 -0.7069 -0.0361 -0.1382
  869MOL0     C17207   3.830  10.782   7.904  0.4774 -0.7801 -1.0741
  869MOL0     C17208   3.827  10.916   7.970 -0.1863 -0.9019 -0.0245
  869MOL0     C17209   3.704  10.698   7.898 -0.2131 -0.0496 -0.0849
  869MOL0     C17210   3.566  10.737   7.928  1.3128  0.0638  0.0150
  869MOL0     O17211   3.468  10.642   7.906  0.3363 -0.1015 -0.1263
  869MOL0     C17212   3.338  10.655   7.949 -0.2889  0.2878 -0.0658
  869MOL0     C17213   3.235  10.588   7.890 -0.2292  0.4249  0.7355
  869MOL0     C17214   3.101  10.595   7.932 -0.5310  0.1747  0.2777
  869MOL0     C17215   3.068  10.676   8.041 -0.0782  0.4930  0.0028
  869MOL0     O17216   2.935  10.674   8.081 -0.4894  0.1173  0.4845
  869MOL0     C17217   2.885  10.787   8.160  0.1296  0.3606  0.1382
  869MOL0     C17218   2.738  10.767   8.197 -0.8951  0.1377 -0.2957
  869MOL0     C17219   2.642  10.772   8.069  0.6228  0.4564  0.1543
  869MOL0     C17220   2.499  10.747   8.113 -0.3069 -0.1036 -0.2588
  869MOL0     C17221   2.404  10.745   7.997 -0.2305  0.7767 -1.0803
  869MOL0     C17222   2.255  10.757   8.032 -0.3401  0.1025 -0.1476
  869MOL0     C17223   2.228  10.887   8.095  0.9322 -0.0291 -0.7920
  869MOL0     C17224   2.081  10.912   8.119 -0.6645 -0.2790 -0.1898
  869MOL0    Cl17225   2.013  10.804   8.244 -0.1660 -0.1678  0.5277
  869MOL0     C17226   3.172  10.746   8.105  0.7573 -0.0400 -0.7954
  869MOL0     C17227   3.306  10.739   8.063  0.2978  0.3162 -0.8630
  869MOL0     O17228   3.537  10.856   7.938 -0.3065 -0.2827 -0.1479
  869MOL0     C17229   3.718  10.571   7.853 -0.0641  0.6987  0.2672
  869MOL0     C17230   3.844  10.518   7.814 -0.4389  0.4529  0.3994
  869MOL0     N17231   4.620  10.455   7.694  0.0791  0.0729 -0.2128
  869MOL0     N17232   4.713  10.502   7.760  0.6168 -0.5799 -0.1365
  869MOL0     C17233   5.672  10.570   8.535 -0.4601  0.7222  0.4464
  869MOL0     C17234   5.802  10.618   8.554 -0.2299 -0.6303 -0.9888
  869MOL0     C17235   6.177  10.766   8.814  0.3349 -0.3257  1.3853
  869MOL0     C17236   6.207  10.871   8.907  0.8061  0.4617 -0.3788
  869MOL0     C17237   6.340  10.903   8.941 -0.3700 -0.0076  1.1643
  869MOL0     C17238   6.447  10.835   8.877  0.2336 -1.1854  0.8798
  869MOL0     O17239   6.573  10.884   8.908 -0.5971  0.0974 -0.1647
  869MOL0     C17240   6.683  10.846   8.831 -0.6352 -0.4739 -0.2331
  869MOL0     C17241   6.776  10.970   8.821 -0.9331  0.2763  0.4846
  869MOL0     C17242   6.918  10.931   8.782  0.0656 -0.6290  0.1378
  869MOL0     C17243   6.938  10.911   8.628  0.4653 -0.0026  0.0180
  869MOL0     C17244   6.953  11.044   8.563  0.6043 -0.0099  0.0987
  869MOL0     C17245   6.940  11.158   8.521  0.2638  0.4793 -0.5513
  869MOL0     C17246   6.413  10.738   8.793  0.0627 -0.0905  1.1096
  869MOL0     C17247   6.281  10.699   8.761 -0.0621  0.2683  0.2232
  869MOL0     H17248   5.858  10.491   8.862  0.0774  0.9826  1.2452
  869MOL0     H17249   5.626  10.403   8.818  0.0545  1.3841  1.3954
  869MOL0     H17250   5.435  10.493   8.426 -1.5412  1.0331  2.6193
  869MOL0     H17251   5.536  10.344   8.432  2.2314 -0.1806  2.8290
  869MOL0     H17252   5.367  10.210   8.470  1.6603 -0.3425 -0.1718
  869MOL0     H17253   5.257  10.321   8.537 -0.7458 -1.9914 -0.8946
  869MOL0     H17254   5.324  10.341   8.234  0.2497 -0.2645 -0.8353
  869MOL0     H17255   5.229  10.210   8.300  0.4775 -0.2130  1.2125
  869MOL0     H17256   5.080  10.405   8.401 -0.0323  0.7181  0.0154
  869MOL0     H17257   5.186  10.522   8.339  1.0693 -0.6749  0.1325
  869MOL0     H17258   5.146  10.428   8.100  0.2843  0.6570  0.2344
  869MOL0     H17259   5.032  10.308   8.169  0.1072 -0.1680 -0.9312
  869MOL0     H17260   4.892  10.503   8.236 -0.1765 -3.4274  0.1402
  869MOL0     H17261   4.993  10.603   8.130 -2.5447  1.0886 -1.0257
  869MOL0     H17262   4.946  10.450   7.936 -1.6099 -1.1339 -1.2070
  869MOL0     H17263   4.842  10.355   8.045 -0.1502  0.0750 -1.4352
  869MOL0     H17264   4.795  10.649   7.985 -2.6882  1.1827  2.6788
  869MOL0     H17265   4.697  10.548   8.082 -0.6818  2.6989 -0.3057
  869MOL0     H17266   4.526  10.356   7.986 -0.1281 -1.7472 -0.6706
  869MOL0     H17267   4.455  10.235   7.638  5.2009 -1.1962  1.6696
  869MOL0     H17268   4.431  10.200   7.807  1.0137  0.0289 -0.1536
  869MOL0     H17269   4.222  10.278   7.683  0.8802 -0.9821 -2.0032
  869MOL0     H17270   4.303  10.441   7.662 -0.2030  1.2629  0.0154
  869MOL0     H17271   4.301  10.471   7.905  1.3454  0.3805 -0.7475
  869MOL0     H17272   4.270  10.298   7.931 -0.9148  1.0375  0.0317
  869MOL0     H17273   4.104  10.455   7.984 -0.0500  1.3402 -0.5754
  869MOL0     H17274   4.050  10.329   7.867 -0.3013  0.2803 -3.3046
  869MOL0     H17275   4.047  10.774   7.895 -1.5076  1.3011  0.0033
  869MOL0     H17276   3.929  10.931   8.007 -0.1151  0.0555 -0.5512
  869MOL0     H17277   3.802  10.992   7.895  0.5537 -1.4110 -0.8103
  869MOL0     H17278   3.753  10.917   8.050  0.4504 -0.2186  0.5748
  869MOL0     H17279   3.269  10.520   7.813 -0.1973  2.0472 -0.7357
  869MOL0     H17280   3.025  10.542   7.875  1.2566  0.2268 -2.3469
  869MOL0     H17281   2.946  10.798   8.250  1.5922  2.7392 -1.0440
  869MOL0     H17282   2.887  10.877   8.098  0.3607  1.6710  1.9829
  869MOL0     H17283   2.721  10.664   8.229  0.6541 -0.8111 -2.2646
  869MOL0     H17284   2.708  10.844   8.268 -0.7203 -1.2954  1.4149
  869MOL0     H17285   2.666  10.696   7.994  0.6874  1.6575 -1.0920
  869MOL0     H17286   2.648  10.863   8.009  2.5298  0.2599 -0.0357
  869MOL0     H17287   2.489  10.658   8.175 -0.6906 -0.5822 -1.0016
  869MOL0     H17288   2.475  10.832   8.178  0.8439 -1.1000  1.5459
  869MOL0     H17289   2.417  10.650   7.944  1.2425 -0.7642  1.7932
  869MOL0     H17290   2.430  10.815   7.918 -1.3220  0.6328 -1.5825
  869MOL0     H17291   2.203  10.769   7.937 -2.0471  2.0743  0.9520
  869MOL0     H17292   2.225  10.671   8.093  2.7079 -0.8765  0.1679
  869MOL0     H17293   2.270  10.964   8.029 -0.2406  0.6205 -0.8045
  869MOL0     H17294   2.271  10.896   8.195 -2.0205 -0.5791  0.6132
  869MOL0     H17295   2.021  10.899   8.028 -2.3746  2.9991  0.3065
  869MOL0     H17296   2.063  11.016   8.149 -0.7594 -0.8904  2.0960
  869MOL0     H17297   3.148  10.804   8.193 -0.7447  1.4144 -2.0913
  869MOL0     H17298   3.381  10.786   8.125 -0.1918  1.0937 -0.8538
  869MOL0     H17299   3.640  10.499   7.831  1.0405  0.3904 -3.3402
  869MOL0     H17300   3.849  10.419   7.769  2.5242  0.1266  1.2294
  869MOL0     H17301   5.633  10.603   8.439  2.7090  2.5762 -0.3625
  869MOL0     H17302   5.851  10.684   8.483  2.0735 -0.4563  0.6709
  869MOL0     H17303   6.126  10.935   8.941 -1.9002 -2.0209 -1.7786
  869MOL0     H17304   6.356  10.986   9.009 -0.8475 -0.5138  1.9000
  869MOL0     H17305   6.733  10.766   8.887 -1.0839 -0.9444 -0.4982
  869MOL0     H17306   6.671  10.811   8.729  2.0841 -1.7321 -0.1988
  869MOL0     H17307   6.780  11.006   8.924 -2.6469 -1.6942  1.3000
  869MOL0     H17308   6.726  11.036   8.749 -3.7918 -1.2267  0.9581
  869MOL0     H17309   6.949  10.847   8.845 -1.1532 -0.7836  0.5538
  869MOL0     H17310   6.987  11.013   8.807  2.0218 -1.9539 -0.7105
  869MOL0     H17311   6.859  10.852   8.580 -0.1135 -0.5044  1.5487
  869MOL0     H17312   7.026  10.845   8.625  0.6432  0.2521 -0.6348
  869MOL0     H17313   6.931  11.262   8.497  4.0371  1.0313 -0.1650
  869MOL0     H17314   6.490  10.683   8.741  0.1932  0.0514  1.1517
  869MOL0     H17315   6.257  10.615   8.696 -1.5863 -0.1159  1.2161
  870MOL0     O17316   3.495   5.120   1.864  0.3220  0.1996 -0.4849
  870MOL0     C17317   3.525   5.238   1.848 -0.0061 -0.5436  0.2367
  870MOL0     O17318   3.436   5.338   1.835 -0.4508 -0.2383  0.5370
  870MOL0     C17319   3.301   5.312   1.833  0.1994  0.7086  0.3447
  870MOL0     C17320   3.207   5.375   1.916 -0.7965  0.3111 -0.2793
  870MOL0     C17321   3.075   5.360   1.902  0.2828 -0.6746  0.4871
  870MOL0     C17322   3.026   5.270   1.801 -0.7290  0.2578  0.9664
  870MOL0     O17323   2.888   5.279   1.774 -0.4780 -0.1153 -0.2524
  870MOL0     C17324   2.827   5.170   1.695 -0.0680 -0.9106  0.1991
  870MOL0     C17325   2.674   5.161   1.716  1.2515  0.1758 -0.6328
  870MOL0     C17326   2.611   5.041   1.629 -0.2544 -0.0607  0.8111
  870MOL0     C17327   2.494   4.979   1.699  0.7961 -0.0631  0.5641
  870MOL0     C17328   2.437   4.850   1.625 -1.0294 -0.1047 -0.7818
  870MOL0     C17329   2.331   4.769   1.710  0.0825 -0.0914  0.3206
  870MOL0     C17330   2.270   4.670   1.616  1.0049 -0.3219 -0.1248
  870MOL0     C17331   2.170   4.583   1.685 -0.0500  0.4106  0.0671
  870MOL0     N17332   2.070   4.513   1.599 -0.1978 -0.2582  0.1241
  870MOL0     C17333   2.026   4.379   1.603  0.5395  0.1922 -0.2675
  870MOL0     C17334   1.913   4.375   1.529 -0.0638  0.5893 -2.0677
  870MOL0     C17335   1.834   4.248   1.537 -0.0403 -0.2815 -0.1065
  870MOL0     C17336   1.699   4.266   1.591  0.8786  0.4522  0.0476
  870MOL0     C17337   1.603   4.341   1.499 -0.0204 -0.3228 -0.3728
  870MOL0     C17338   1.458   4.357   1.549 -0.8684 -0.2819 -0.3847
  870MOL0     O17339   1.401   4.225   1.578  0.6973 -0.0598 -0.5287
  870MOL0     C17340   1.264   4.218   1.585 -0.2589 -0.3072 -0.6685
  870MOL0     C17341   1.177   4.330   1.577 -0.0420  0.4560 -0.2044
  870MOL0     C17342   1.036   4.318   1.568  0.1152  0.1737 -0.3692
  870MOL0     C17343   0.970   4.449   1.545  0.3472  0.3651  0.0590
  870MOL0     C17344   0.977   4.188   1.574 -0.7875  0.1574  0.1136
  870MOL0     C17345   0.832   4.156   1.572 -0.7016 -0.1846  0.2685
  870MOL0     O17346   0.749   4.258   1.528  0.0119  0.0479 -0.4283
  870MOL0     C17347   0.624   4.237   1.478  0.3014  0.2649 -0.1783
  870MOL0     C17348   0.587   4.127   1.401  0.6031 -0.9827  0.9416
  870MOL0     C17349   0.454   4.091   1.380  0.2305 -0.3246  0.3780
  870MOL0     C17350   0.350   4.168   1.436 -0.0451  0.1992  0.0861
  870MOL0     O17351   0.217   4.142   1.423  0.0626  0.2756  1.1004
  870MOL0     C17352   0.182   4.015   1.361 -0.4333  0.6605  0.9706
  870MOL0     C17353   0.054   3.958   1.406  0.0107 -0.2922  0.0389
  870MOL0     C17354  -0.069   4.017   1.339 -0.3114 -0.1882 -0.5161
  870MOL0     C17355  -0.187   4.011   1.439  0.0210  0.2222 -0.2649
  870MOL0     C17356  -0.314   4.047   1.370 -0.1863 -1.3556  1.1165
  870MOL0     C17357  -0.441   4.044   1.463 -1.0952 -0.3408  0.6047
  870MOL0     C17358  -0.568   4.053   1.374  0.9899  0.3599  0.3322
  870MOL0     C17359  -0.705   4.058   1.455 -0.1071 -0.3961  0.0039
  870MOL0    Cl17360  -0.763   4.209   1.528 -0.1067 -0.1026  0.2466
  870MOL0     C17361   0.385   4.278   1.513  0.5106 -0.2602  0.0763
  870MOL0     C17362   0.517   4.320   1.513 -0.4667  0.7041 -0.5697
  870MOL0     O17363   0.792   4.035   1.586 -0.1071 -0.1350  0.8343
  870MOL0     C17364   1.064   4.085   1.588 -0.1544 -0.2895 -0.4448
  870MOL0     C17365   1.204   4.091   1.592  0.2391 -0.2018 -0.4081
  870MOL0     N17366   1.884   4.496   1.475 -0.4533 -0.8008  0.1543
  870MOL0     N17367   1.969   4.584   1.526 -0.4301  0.3363  0.3473
  870MOL0     C17368   3.112   5.208   1.713  0.0854 -1.0694 -0.3075
  870MOL0     C17369   3.252   5.224   1.729  0.0930 -0.7467  0.3012
  870MOL0     C17370   3.661   5.284   1.847 -0.6597 -0.2386 -0.9116
  870MOL0     C17371   3.773   5.215   1.793  0.3657 -0.4996 -1.3084
  870MOL0     C17372   3.899   5.272   1.796  0.2619  0.7905  0.2285
  870MOL0     C17373   3.926   5.400   1.849 -0.1935 -0.3824  0.2559
  870MOL0     O17374   4.064   5.431   1.860 -0.3020 -0.0884  0.3168
  870MOL0     C17375   4.095   5.549   1.928  0.5078 -0.4726 -0.0960
  870MOL0     C17376   4.237   5.583   1.900 -0.5622 -0.5982 -0.0109
  870MOL0     C17377   4.327   5.489   1.988 -0.1161  0.1529 -0.0681
  870MOL0     C17378   4.467   5.517   1.957  0.0216 -0.3035 -0.5077
  870MOL0     C17379   4.532   5.623   2.036  0.3415  0.7295 -0.4984
  870MOL0     C17380   4.590   5.711   2.094  0.0805  0.7894  0.1597
  870MOL0     C17381   3.821   5.469   1.903  0.3128  0.3924  0.7719
  870MOL0     C17382   3.687   5.415   1.893  0.0210  0.4044  0.6292
  870MOL0     H17383   3.245   5.446   1.989 -0.0396 -2.1740  1.9038
  870MOL0     H17384   3.004   5.413   1.966  1.8022  0.9644  0.8823
  870MOL0     H17385   2.849   5.185   1.589  0.5125  0.0530  0.4412
  870MOL0     H17386   2.870   5.072   1.716  0.5450 -1.4483 -3.0354
  870MOL0     H17387   2.665   5.163   1.825  3.0755  3.4301 -0.4226
  870MOL0     H17388   2.626   5.250   1.675 -0.8362  0.7879  2.7589
  870MOL0     H17389   2.576   5.074   1.531 -1.8085  1.1734  1.7345
  870MOL0     H17390   2.692   4.970   1.608  0.4125 -0.1157  3.2339
  870MOL0     H17391   2.520   4.952   1.802  0.1491 -0.7471  0.5551
  870MOL0     H17392   2.411   5.050   1.701  0.4138 -0.4478 -0.6972
  870MOL0     H17393   2.395   4.882   1.529 -1.4244  1.4326 -0.1274
  870MOL0     H17394   2.520   4.784   1.601  0.0887  0.8107  0.3872
  870MOL0     H17395   2.365   4.711   1.796 -3.5661 -1.2350  1.2008
  870MOL0     H17396   2.249   4.837   1.739  0.4784  0.3096  0.5149
  870MOL0     H17397   2.220   4.729   1.538  0.9577  1.3245  1.0970
  870MOL0     H17398   2.351   4.612   1.571  2.0156  0.3478  0.7885
  870MOL0     H17399   2.111   4.650   1.749 -0.8944  0.5575 -0.8418
  870MOL0     H17400   2.223   4.504   1.740  2.1284  1.2350 -0.7477
  870MOL0     H17401   2.062   4.305   1.673 -1.4235 -0.0922  0.5044
  870MOL0     H17402   1.820   4.209   1.436 -1.9402  2.3717 -0.9682
  870MOL0     H17403   1.890   4.173   1.593  0.2600  0.6568  0.9011
  870MOL0     H17404   1.708   4.299   1.695  1.7342 -2.7268  1.1072
  870MOL0     H17405   1.656   4.165   1.586  2.2689 -0.1211 -4.0213
  870MOL0     H17406   1.601   4.290   1.403 -0.0631 -0.6702 -0.1890
  870MOL0     H17407   1.647   4.438   1.475  0.9136 -1.3092 -2.9689
  870MOL0     H17408   1.403   4.411   1.471 -2.8888 -1.2790  0.2639
  870MOL0     H17409   1.457   4.418   1.640  1.2556 -1.7907  0.7387
  870MOL0     H17410   1.227   4.426   1.572  0.2621  0.3472  0.6763
  870MOL0     H17411   0.868   4.459   1.582  0.9211  0.4389  1.6958
  870MOL0     H17412   1.026   4.535   1.583 -2.5522  1.1294  3.0468
  870MOL0     H17413   0.973   4.466   1.437  0.9657 -2.4614 -0.4504
  870MOL0     H17414   0.660   4.058   1.362  0.5276  0.4833 -2.1015
  870MOL0     H17415   0.433   4.001   1.324  1.3983  1.4299 -3.1994
  870MOL0     H17416   0.177   4.028   1.252  0.7273  1.1122  0.9555
  870MOL0     H17417   0.252   3.937   1.390 -3.8592 -1.2417  5.0746
  870MOL0     H17418   0.062   3.850   1.396 -0.6897 -0.4412  0.9744
  870MOL0     H17419   0.038   3.988   1.510 -2.0374 -0.3190 -0.2217
  870MOL0     H17420  -0.096   3.984   1.239 -3.0492  1.6360 -0.4821
  870MOL0     H17421  -0.042   4.122   1.324  0.9063 -0.4023 -0.0140
  870MOL0     H17422  -0.206   3.910   1.476  3.8056 -0.6133 -0.1220
  870MOL0     H17423  -0.170   4.073   1.527 -1.2123  0.0999  0.0741
  870MOL0     H17424  -0.327   3.977   1.287 -0.3304  0.5669 -0.5619
  870MOL0     H17425  -0.289   4.145   1.329  2.3034 -2.6878 -0.8529
  870MOL0     H17426  -0.446   3.956   1.528 -0.1788  1.1977  2.8947
  870MOL0     H17427  -0.444   4.136   1.522  1.4456  0.0471  0.2370
  870MOL0     H17428  -0.573   3.966   1.307  0.2376 -1.0592  2.1672
  870MOL0     H17429  -0.573   4.139   1.306  2.6844  0.0362 -0.2582
  870MOL0     H17430  -0.695   3.996   1.544 -0.3469  0.5637  0.7121
  870MOL0     H17431  -0.785   4.028   1.386 -1.5408  0.2899  1.2923
  870MOL0     H17432   0.311   4.343   1.558  0.7630  2.7770 -3.4095
  870MOL0     H17433   0.546   4.404   1.575 -1.4433  0.1597  0.6768
  870MOL0     H17434   1.028   3.983   1.597  0.2383 -0.2929  1.5968
  870MOL0     H17435   1.269   4.005   1.586  2.6223  1.4871 -0.3990
  870MOL0     H17436   3.091   5.126   1.645 -2.0639  0.0806 -1.1236
  870MOL0     H17437   3.322   5.167   1.668  1.9812 -0.8622  2.4729
  870MOL0     H17438   3.754   5.117   1.750 -1.5242 -0.0197 -1.6285
  870MOL0     H17439   3.978   5.200   1.775  0.1343  0.6215  0.3216
  870MOL0     H17440   4.039   5.630   1.880  0.6434 -0.6752 -0.6057
  870MOL0     H17441   4.075   5.539   2.035 -2.0328 -2.0887 -0.6397
  870MOL0     H17442   4.265   5.686   1.924  1.5538 -1.6978  2.8424
  870MOL0     H17443   4.261   5.572   1.794 -1.3893 -1.7821 -0.0900
  870MOL0     H17444   4.295   5.389   1.960  0.7334 -0.4945  1.1688
  870MOL0     H17445   4.307   5.503   2.095 -0.5918  1.0870 -0.2665
  870MOL0     H17446   4.476   5.553   1.854 -1.8963  0.9209 -0.2853
  870MOL0     H17447   4.532   5.429   1.961  2.5069  1.4631  1.1416
  870MOL0     H17448   4.651   5.791   2.131  1.3923  0.1409 -0.5286
  870MOL0     H17449   3.827   5.572   1.934 -0.8462  0.4925  0.6952
  870MOL0     H17450   3.615   5.478   1.945 -0.2997 -1.1945  2.2086
  871MOL0     O17451   0.180   5.167   1.278  0.5048  0.1487  0.1255
  871MOL0     C17452   0.120   5.273   1.261  0.4012 -0.7155  0.6467
  871MOL0     O17453  -0.002   5.288   1.207  1.1549  0.3888  0.1421
  871MOL0     C17454  -0.092   5.191   1.186 -0.6704  0.5411 -0.4613
  871MOL0     C17455  -0.220   5.233   1.196  0.0059 -0.6117  0.2090
  871MOL0     C17456  -0.324   5.141   1.187  0.3462  0.4542 -1.1205
  871MOL0     C17457  -0.300   5.004   1.173  0.9341 -0.2443  0.6504
  871MOL0     O17458  -0.409   4.922   1.164  0.6849 -0.9385  0.1739
  871MOL0     C17459  -0.401   4.805   1.076  0.5290  0.0301  0.2090
  871MOL0     C17460  -0.506   4.704   1.118  1.1194  0.3969  0.0101
  871MOL0     C17461  -0.641   4.755   1.077 -0.5387  0.5798  0.8529
  871MOL0     C17462  -0.721   4.629   1.056 -0.3788  0.3765  0.0141
  871MOL0     C17463  -0.843   4.657   0.973  0.6207 -0.0241  0.2892
  871MOL0     C17464  -0.965   4.691   1.065 -0.4715  1.2716 -0.0306
  871MOL0     C17465  -1.079   4.754   0.990 -0.0698  0.2258  0.0060
  871MOL0     C17466  -1.128   4.671   0.880  0.7708  0.4581 -0.0260
  871MOL0     N17467  -1.268   4.700   0.830 -0.5393  0.4706  0.4672
  871MOL0     C17468  -1.390   4.733   0.886  0.8952 -0.0259  0.3574
  871MOL0     C17469  -1.469   4.788   0.786  0.0124  0.4216 -0.4773
  871MOL0     C17470  -1.600   4.843   0.808  0.8879 -0.2089 -0.5607
  871MOL0     C17471  -1.699   4.731   0.841 -0.0531  0.2962 -0.4248
  871MOL0     C17472  -1.718   4.631   0.716  0.1095  0.5633 -0.2440
  871MOL0     C17473  -1.850   4.556   0.721 -0.6755 -0.1984  0.8224
  871MOL0     O17474  -1.958   4.650   0.736 -0.4381 -0.4926 -0.3272
  871MOL0     C17475  -2.082   4.589   0.719  1.3246 -0.1973 -0.0873
  871MOL0     C17476  -2.188   4.653   0.661 -0.1921  0.0251  0.1869
  871MOL0     C17477  -2.322   4.599   0.659  0.1085 -0.6012 -0.4307
  871MOL0     C17478  -2.424   4.677   0.580 -0.7917 -0.2293  0.6385
  871MOL0     C17479  -2.348   4.470   0.715 -0.3572 -0.2280  0.4459
  871MOL0     C17480  -2.480   4.401   0.701  0.0655 -0.6166  0.0410
  871MOL0     O17481  -2.479   4.271   0.752  0.4642  0.3173 -0.4155
  871MOL0     C17482  -2.598   4.213   0.786  1.1071 -0.2513 -0.3297
  871MOL0     C17483  -2.657   4.248   0.910  0.4360  0.6389 -0.8175
  871MOL0     C17484  -2.775   4.193   0.953 -0.5859 -0.4614 -0.1990
  871MOL0     C17485  -2.834   4.087   0.881 -0.2746 -0.7315  0.4110
  871MOL0     O17486  -2.945   4.028   0.928  0.2653  0.8997  0.1730
  871MOL0     C17487  -3.058   4.051   0.845  0.2981  0.3210 -0.0576
  871MOL0     C17488  -3.182   4.051   0.924  0.3792 -0.0261 -1.3124
  871MOL0     C17489  -3.202   4.169   1.021  0.9562 -0.1206  0.1267
  871MOL0     C17490  -3.323   4.155   1.121  0.2772  0.4206 -0.4838
  871MOL0     C17491  -3.465   4.117   1.061  0.0689 -0.1181  0.1099
  871MOL0     C17492  -3.525   4.205   0.952  0.1302 -0.0169 -0.2757
  871MOL0     C17493  -3.670   4.176   0.922  0.2883 -0.6537 -0.3069
  871MOL0     C17494  -3.692   4.227   0.778 -0.0636 -0.5077 -0.9663
  871MOL0    Cl17495  -3.863   4.208   0.734 -0.1742 -0.5823 -0.2761
  871MOL0     C17496  -2.767   4.041   0.763  1.2108 -0.1958 -0.2817
  871MOL0     C17497  -2.658   4.107   0.715 -1.0236 -0.4139 -0.1588
  871MOL0     O17498  -2.580   4.457   0.650  0.1467  0.6135 -0.5241
  871MOL0     C17499  -2.239   4.415   0.791  0.2163 -0.3328 -0.2149
  871MOL0     C17500  -2.108   4.469   0.793  0.0066 -0.5937 -1.1951
  871MOL0     N17501  -1.386   4.790   0.667  0.1531  0.5827  0.0810
  871MOL0     N17502  -1.267   4.750   0.700  0.3984  0.4664 -1.3180
  871MOL0     C17503  -0.167   4.960   1.167 -0.5624  0.0716  0.5374
  871MOL0     C17504  -0.061   5.058   1.171 -0.3185  0.8595 -0.6140
  871MOL0     C17505   0.193   5.395   1.284 -0.4348  0.6173  0.3677
  871MOL0     C17506   0.139   5.514   1.245  0.6619  0.3249 -0.2591
  871MOL0     C17507   0.218   5.627   1.260 -0.7275 -0.6276 -0.4279
  871MOL0     C17508   0.346   5.625   1.323  0.8627  0.0023 -0.3047
  871MOL0     O17509   0.427   5.731   1.339  0.5019 -0.5884 -0.2960
  871MOL0     C17510   0.392   5.868   1.304  1.1382  0.2492  0.3604
  871MOL0     C17511   0.475   5.954   1.397  0.7132  0.2413  0.9083
  871MOL0     C17512   0.494   6.098   1.340  0.2354  0.3335 -0.3410
  871MOL0     C17513   0.601   6.165   1.427  0.3878 -0.8317  0.1842
  871MOL0     C17514   0.612   6.303   1.373  0.3988  1.2551  0.5504
  871MOL0     C17515   0.615   6.422   1.352 -0.5870 -0.4506 -0.1101
  871MOL0     C17516   0.398   5.510   1.369 -0.1023 -0.3935  0.4503
  871MOL0     C17517   0.317   5.389   1.355  0.4918 -0.3593  0.8077
  871MOL0     H17518  -0.234   5.341   1.201  1.1882 -0.2128 -2.8206
  871MOL0     H17519  -0.425   5.181   1.191  0.0172 -0.2660 -1.9929
  871MOL0     H17520  -0.410   4.836   0.972  2.9416 -2.3327 -0.8202
  871MOL0     H17521  -0.305   4.754   1.088  1.1324  1.2011  0.4913
  871MOL0     H17522  -0.486   4.608   1.071 -0.3043  0.4791 -0.8011
  871MOL0     H17523  -0.503   4.683   1.225  0.2411  2.2892  0.4456
  871MOL0     H17524  -0.679   4.824   1.152  1.8697  2.7699  0.1756
  871MOL0     H17525  -0.644   4.815   0.986 -1.1209 -0.4893  0.1335
  871MOL0     H17526  -0.662   4.556   1.000 -1.3178 -1.6199  1.5217
  871MOL0     H17527  -0.742   4.577   1.150  0.5751  2.7799  1.6476
  871MOL0     H17528  -0.832   4.740   0.903 -0.1614  0.1116  0.3219
  871MOL0     H17529  -0.868   4.566   0.919 -2.7090 -1.3825  3.6210
  871MOL0     H17530  -0.987   4.596   1.114 -2.8866  2.8798  2.3079
  871MOL0     H17531  -0.925   4.768   1.132  0.5291  0.5426  0.2248
  871MOL0     H17532  -1.160   4.769   1.062 -0.0201 -0.3574  0.1870
  871MOL0     H17533  -1.046   4.849   0.946 -0.9848  0.6683  0.2558
  871MOL0     H17534  -1.138   4.569   0.918  0.6096 -1.3162 -4.2643
  871MOL0     H17535  -1.053   4.677   0.801 -0.0862  0.4732 -0.8618
  871MOL0     H17536  -1.419   4.726   0.990 -2.0619 -1.3970 -0.4756
  871MOL0     H17537  -1.609   4.916   0.889 -0.7482 -3.6465  2.6026
  871MOL0     H17538  -1.638   4.889   0.716 -1.4946 -1.1710 -0.1354
  871MOL0     H17539  -1.795   4.778   0.864 -0.4033 -0.8381  0.5142
  871MOL0     H17540  -1.658   4.675   0.926 -0.5790  0.8616  0.2108
  871MOL0     H17541  -1.633   4.563   0.715  1.7887  2.3680 -3.9626
  871MOL0     H17542  -1.709   4.671   0.614  0.2294 -0.5416 -0.6819
  871MOL0     H17543  -1.850   4.489   0.807 -0.3336  0.8139  1.6219
  871MOL0     H17544  -1.867   4.501   0.627 -0.2106  1.9935 -0.6082
  871MOL0     H17545  -2.163   4.748   0.616 -0.6559 -0.9497 -2.3293
  871MOL0     H17546  -2.478   4.617   0.507  0.3044 -1.4594  0.8008
  871MOL0     H17547  -2.500   4.723   0.645 -1.8862 -0.6305 -0.3334
  871MOL0     H17548  -2.377   4.765   0.534  0.7161 -1.0785  0.4888
  871MOL0     H17549  -2.611   4.330   0.964  0.5941 -0.2414  0.4180
  871MOL0     H17550  -2.818   4.232   1.044 -0.9085  0.1412 -0.6019
  871MOL0     H17551  -3.045   4.151   0.800  3.0747 -0.7339 -1.9036
  871MOL0     H17552  -3.059   3.971   0.770 -0.0779 -0.0511  0.3415
  871MOL0     H17553  -3.270   4.049   0.859 -0.4072 -0.8347 -0.2688
  871MOL0     H17554  -3.193   3.951   0.969  0.2356  0.4026 -0.3608
  871MOL0     H17555  -3.217   4.253   0.953  0.5955 -0.0585  0.2817
  871MOL0     H17556  -3.109   4.174   1.079  2.0919 -2.8116 -1.2609
  871MOL0     H17557  -3.284   4.090   1.201  1.8561  0.7418 -0.9555
  871MOL0     H17558  -3.339   4.250   1.173 -1.2379 -1.0829  1.9896
  871MOL0     H17559  -3.536   4.115   1.144 -1.7702 -0.9876 -1.4111
  871MOL0     H17560  -3.465   4.013   1.025  1.3957 -0.4552  0.9841
  871MOL0     H17561  -3.501   4.304   0.992 -0.4704 -1.0303  2.8207
  871MOL0     H17562  -3.463   4.194   0.862  1.9397  0.0576  0.9131
  871MOL0     H17563  -3.739   4.223   0.993 -0.0354 -0.5871 -0.6596
  871MOL0     H17564  -3.699   4.071   0.927  0.8713 -0.8133 -0.1915
  871MOL0     H17565  -3.620   4.174   0.715  1.6272  0.5866 -0.0430
  871MOL0     H17566  -3.663   4.332   0.776  0.5754 -0.6424  0.1496
  871MOL0     H17567  -2.805   3.956   0.708 -1.0602  1.2463 -1.0685
  871MOL0     H17568  -2.622   4.070   0.619  2.3147 -2.5904  1.7190
  871MOL0     H17569  -2.256   4.327   0.852  2.1924 -1.4562 -1.2014
  871MOL0     H17570  -2.038   4.426   0.864  0.9097 -0.6843 -2.1168
  871MOL0     H17571  -0.135   4.857   1.156 -0.0398  0.3321 -0.5053
  871MOL0     H17572   0.041   5.021   1.168 -0.7385 -0.5610  0.9228
  871MOL0     H17573   0.040   5.519   1.202  2.1623 -0.5442 -4.3037
  871MOL0     H17574   0.184   5.720   1.215 -0.3030  0.4283  1.3371
  871MOL0     H17575   0.410   5.889   1.198  0.7916 -1.2328 -0.0251
  871MOL0     H17576   0.285   5.881   1.325  1.2530 -1.9101  2.8622
  871MOL0     H17577   0.572   5.907   1.413  1.3055  1.6162  1.5276
  871MOL0     H17578   0.428   5.954   1.496 -0.7449 -0.2706  0.2427
  871MOL0     H17579   0.399   6.150   1.351 -0.6577 -1.6578  2.4410
  871MOL0     H17580   0.514   6.093   1.232  0.0055 -0.7079 -0.3470
  871MOL0     H17581   0.688   6.102   1.407  0.0345 -1.2297 -0.1248
  871MOL0     H17582   0.572   6.164   1.532  3.4249 -1.8311  1.1373
  871MOL0     H17583   0.604   6.526   1.328 -1.5214 -1.0213 -2.4732
  871MOL0     H17584   0.504   5.504   1.395  0.2402 -1.5845 -1.0600
  871MOL0     H17585   0.364   5.298   1.389  2.9372  1.1616  1.8187
  872MOL0     O17586  10.409   9.119   4.640 -0.1139 -0.2314 -0.3286
  872MOL0     C17587  10.513   9.162   4.602  0.0303 -0.7082 -0.2483
  872MOL0     O17588  10.522   9.278   4.524 -0.3201 -0.3112  0.3608
  872MOL0     C17589  10.411   9.349   4.479 -0.3755  0.0294 -0.7508
  872MOL0     C17590  10.423   9.416   4.359  0.7586  0.5076 -0.6745
  872MOL0     C17591  10.311   9.495   4.306  0.5159 -0.2029 -0.2138
  872MOL0     C17592  10.192   9.500   4.380  0.5277 -0.3047  0.1874
  872MOL0     O17593  10.084   9.580   4.341  0.3273  0.1888 -0.1184
  872MOL0     C17594  10.083   9.667   4.225 -0.0123 -0.4687 -0.1368
  872MOL0     C17595   9.934   9.675   4.178  0.0621 -0.1902 -0.4803
  872MOL0     C17596   9.879   9.536   4.134 -0.1190 -0.3907  0.1660
  872MOL0     C17597   9.740   9.502   4.190  0.2885  0.1861  0.1448
  872MOL0     C17598   9.693   9.383   4.116 -0.3445 -0.2384 -0.3148
  872MOL0     C17599   9.653   9.402   3.972 -0.1374 -1.0358 -0.2399
  872MOL0     C17600   9.584   9.271   3.932 -0.5600 -0.1425  0.2238
  872MOL0     C17601   9.433   9.265   3.960 -0.5741 -0.5816  0.7017
  872MOL0     N17602   9.344   9.306   3.845 -0.4178  0.7809  0.7433
  872MOL0     C17603   9.345   9.232   3.723 -0.3648 -0.8430 -0.7014
  872MOL0     C17604   9.260   9.302   3.641 -0.1246  0.0586 -0.4567
  872MOL0     C17605   9.219   9.259   3.501 -0.4742  0.7317  0.3935
  872MOL0     C17606   9.067   9.247   3.481 -0.2622  0.5822 -0.1319
  872MOL0     C17607   9.012   9.109   3.531  0.3448 -0.5992 -0.0998
  872MOL0     C17608   8.857   9.107   3.530  0.4071  0.4293 -0.0826
  872MOL0     O17609   8.808   8.980   3.584 -0.2631 -0.0677  0.4544
  872MOL0     C17610   8.681   8.935   3.549 -0.4496 -0.6425  0.4190
  872MOL0     C17611   8.650   8.810   3.572  0.4877  0.2135 -0.3013
  872MOL0     C17612   8.525   8.759   3.542 -1.5049  0.4520 -0.2984
  872MOL0     C17613   8.505   8.610   3.592  0.3240 -0.3793 -0.5881
  872MOL0     C17614   8.431   8.840   3.475  0.1672 -0.1635 -0.0418
  872MOL0     C17615   8.299   8.794   3.430 -0.1222 -0.2188  0.3306
  872MOL0     O17616   8.242   8.871   3.330  0.5387 -0.1553  0.1528
  872MOL0     C17617   8.107   8.845   3.304  0.5573  0.5802 -0.2132
  872MOL0     C17618   8.056   8.713   3.283  0.1722 -0.3797  1.1617
  872MOL0     C17619   7.921   8.692   3.271 -0.0313  0.4393 -0.1120
  872MOL0     C17620   7.827   8.794   3.284  0.4559  0.2540  0.0712
  872MOL0     O17621   7.691   8.772   3.271  0.2241  0.0644  0.3147
  872MOL0     C17622   7.641   8.638   3.301  0.0766 -0.3657 -0.2642
  872MOL0     C17623   7.486   8.642   3.319 -0.0026 -0.4665 -0.5261
  872MOL0     C17624   7.433   8.503   3.349 -0.7944  0.0649 -0.5297
  872MOL0     C17625   7.282   8.486   3.310 -0.7497 -0.1974  0.1493
  872MOL0     C17626   7.209   8.359   3.359  0.0448  0.5443  0.3619
  872MOL0     C17627   7.062   8.374   3.325 -0.3333 -0.0619 -0.4785
  872MOL0     C17628   6.986   8.254   3.388 -1.3669  0.1104  0.8590
  872MOL0     C17629   6.837   8.275   3.394 -1.1094 -0.4069 -0.3883
  872MOL0    Cl17630   6.771   8.147   3.495 -0.2358  0.2206  0.0978
  872MOL0     C17631   7.874   8.923   3.309  0.3723  0.3793  0.7594
  872MOL0     C17632   8.014   8.952   3.323 -0.0106  0.1406  0.8182
  872MOL0     O17633   8.246   8.703   3.490 -0.2587 -0.4524  0.1513
  872MOL0     C17634   8.457   8.973   3.469  0.6168 -0.2369 -0.4599
  872MOL0     C17635   8.588   9.016   3.475 -0.6615  0.0729 -0.9817
  872MOL0     N17636   9.219   9.416   3.713 -0.0275  0.7349 -0.1397
  872MOL0     N17637   9.281   9.419   3.831  0.4723 -1.1790 -0.9771
  872MOL0     C17638  10.183   9.435   4.503  0.2961  0.1806  0.4246
  872MOL0     C17639  10.288   9.352   4.551 -0.3599 -0.2713  0.5370
  872MOL0     C17640  10.642   9.101   4.645  0.3746  0.4965  0.0398
  872MOL0     C17641  10.768   9.156   4.601  0.2372 -0.8089 -0.8505
  872MOL0     C17642  10.882   9.101   4.640 -0.8204  0.4244 -0.7421
  872MOL0     C17643  10.880   8.993   4.724  0.2450 -0.2457 -1.0947
  872MOL0     O17644  10.993   8.935   4.779  0.3179 -0.3016  0.1928
  872MOL0     C17645  11.023   8.800   4.753 -0.4716  0.4358  0.4308
  872MOL0     C17646  11.173   8.792   4.736 -0.4495 -0.4100  0.7438
  872MOL0     C17647  11.251   8.819   4.868  0.6594  0.7667 -0.6777
  872MOL0     C17648  11.266   8.704   4.968  0.3707 -0.1927 -0.2748
  872MOL0     C17649  11.331   8.741   5.091 -0.6952  0.2787 -0.1881
  872MOL0     C17650  11.400   8.776   5.186  0.4948  0.0238  0.0374
  872MOL0     C17651  10.762   8.934   4.779  0.3147 -0.4741  1.0868
  872MOL0     C17652  10.638   9.000   4.742 -0.1555  0.5738 -0.0994
  872MOL0     H17653  10.509   9.403   4.295  0.3069 -0.3621 -1.1195
  872MOL0     H17654  10.313   9.557   4.216  1.6064  1.2343  0.7533
  872MOL0     H17655  10.133   9.761   4.251  1.7519 -1.5785  0.6600
  872MOL0     H17656  10.145   9.639   4.139 -2.0998  1.1692 -2.3194
  872MOL0     H17657   9.877   9.717   4.262  3.5444  1.6367  1.1928
  872MOL0     H17658   9.938   9.747   4.095  2.5706 -2.6599 -2.7057
  872MOL0     H17659   9.886   9.538   4.025  0.3888 -2.2927  0.1324
  872MOL0     H17660   9.947   9.453   4.154 -1.6892 -2.1431 -1.3866
  872MOL0     H17661   9.761   9.476   4.294  1.2909  0.2449 -0.0334
  872MOL0     H17662   9.662   9.577   4.179 -2.5185 -2.7548 -2.1972
  872MOL0     H17663   9.768   9.304   4.124 -2.3373 -2.0906  1.5907
  872MOL0     H17664   9.600   9.346   4.160  1.0332 -1.2517  1.9007
  872MOL0     H17665   9.589   9.491   3.960  0.4303 -0.7881 -1.5824
  872MOL0     H17666   9.746   9.425   3.919  1.0607  4.1085  3.3497
  872MOL0     H17667   9.604   9.272   3.825 -1.5545  2.7602 -0.0052
  872MOL0     H17668   9.640   9.180   3.959 -1.1045 -0.8118 -0.8279
  872MOL0     H17669   9.407   9.335   4.039  3.6084  2.1394 -0.0241
  872MOL0     H17670   9.416   9.166   4.005 -0.9430 -0.0772  1.6894
  872MOL0     H17671   9.406   9.144   3.705  0.2474 -0.1925 -1.9714
  872MOL0     H17672   9.249   9.340   3.434 -1.2828  0.6465 -0.0898
  872MOL0     H17673   9.263   9.162   3.476  0.4542  1.4350 -0.8240
  872MOL0     H17674   9.045   9.236   3.375 -0.7232  0.4586 -0.0264
  872MOL0     H17675   9.025   9.340   3.520 -2.8853 -0.2212 -0.8596
  872MOL0     H17676   9.039   9.078   3.632 -2.8366  0.2070  1.1244
  872MOL0     H17677   9.035   9.033   3.456 -3.6910 -1.4452 -0.7117
  872MOL0     H17678   8.826   9.120   3.426 -3.8748  1.9829  1.1759
  872MOL0     H17679   8.814   9.186   3.592  1.1698 -0.4293  1.6190
  872MOL0     H17680   8.716   8.744   3.628 -1.0453 -0.9420  0.1964
  872MOL0     H17681   8.432   8.557   3.530 -2.2123  2.3176 -0.1340
  872MOL0     H17682   8.596   8.551   3.608 -0.0403 -0.4782  1.5257
  872MOL0     H17683   8.468   8.621   3.695 -0.8475 -1.4601 -0.8731
  872MOL0     H17684   8.124   8.630   3.269  0.5418  0.2142 -0.9288
  872MOL0     H17685   7.888   8.592   3.246  3.7188 -0.9911  0.0478
  872MOL0     H17686   7.671   8.584   3.211  2.4877  0.6686 -0.1708
  872MOL0     H17687   7.680   8.585   3.388  0.0475 -2.1296 -1.2779
  872MOL0     H17688   7.442   8.715   3.388  0.2552 -0.0379 -0.8074
  872MOL0     H17689   7.444   8.665   3.221  2.5603  0.2845 -1.5428
  872MOL0     H17690   7.453   8.485   3.455  0.6129 -0.7347 -0.8988
  872MOL0     H17691   7.494   8.426   3.300 -0.3321 -0.7219  1.1863
  872MOL0     H17692   7.233   8.573   3.355 -1.0783  0.0179 -0.6153
  872MOL0     H17693   7.272   8.493   3.202 -1.7144  3.0477  0.3676
  872MOL0     H17694   7.219   8.345   3.467 -0.4159 -0.0255  0.3333
  872MOL0     H17695   7.254   8.281   3.298 -2.0690 -1.1335  0.8261
  872MOL0     H17696   7.023   8.465   3.371 -0.2662  0.1794 -0.8900
  872MOL0     H17697   7.039   8.358   3.219  1.8646 -0.9764 -0.8725
  872MOL0     H17698   7.038   8.230   3.481  1.2700 -1.4526 -0.8959
  872MOL0     H17699   7.004   8.166   3.325 -2.8431 -0.5646  1.3427
  872MOL0     H17700   6.792   8.260   3.295  1.7518  0.8983 -2.0094
  872MOL0     H17701   6.820   8.374   3.436  2.4533 -0.7446  2.3463
  872MOL0     H17702   7.791   8.992   3.322 -2.5204 -2.1556 -2.2651
  872MOL0     H17703   8.045   9.054   3.343  1.5638  0.2121 -1.6230
  872MOL0     H17704   8.374   9.042   3.453  0.3445  0.6988  3.7557
  872MOL0     H17705   8.616   9.120   3.460  3.8971 -1.1443 -2.5226
  872MOL0     H17706  10.092   9.446   4.560 -0.0198  1.8187 -0.3480
  872MOL0     H17707  10.283   9.301   4.647 -2.2942 -2.2964 -0.5370
  872MOL0     H17708  10.769   9.247   4.541 -1.3963 -0.5322 -0.5089
  872MOL0     H17709  10.979   9.134   4.606 -1.5523  1.4009 -1.9960
  872MOL0     H17710  10.992   8.732   4.832 -0.9382  1.3453  1.0454
  872MOL0     H17711  10.981   8.780   4.653  1.9772  0.7127 -0.7329
  872MOL0     H17712  11.214   8.859   4.661  3.3208 -1.6740  1.4677
  872MOL0     H17713  11.203   8.692   4.702 -0.1246 -0.0056 -0.1841
  872MOL0     H17714  11.204   8.910   4.906  2.3747  2.0781 -1.5335
  872MOL0     H17715  11.353   8.846   4.840 -0.0380  2.9388 -1.3180
  872MOL0     H17716  11.337   8.635   4.922 -0.6285 -1.8811  0.6382
  872MOL0     H17717  11.166   8.668   4.991  0.3219 -0.2904 -0.6396
  872MOL0     H17718  11.467   8.790   5.269  2.1565  1.7859 -1.5036
  872MOL0     H17719  10.763   8.843   4.838 -0.8004 -0.8139  0.5964
  872MOL0     H17720  10.545   8.955   4.775  0.3121  0.2852  0.8706
  873MOL0     O17721   7.338  10.752   4.375  0.2335 -0.2829  0.8123
  873MOL0     C17722   7.367  10.680   4.462 -1.6408  0.6792 -0.2146
  873MOL0     O17723   7.282  10.645   4.557 -0.3064  0.6025  0.5298
  873MOL0     C17724   7.159  10.704   4.578  0.8111  0.5300 -0.8176
  873MOL0     C17725   7.130  10.836   4.564  0.3383  0.1850 -0.5360
  873MOL0     C17726   7.006  10.890   4.603  0.3961  0.5110 -1.1169
  873MOL0     C17727   6.905  10.807   4.645  0.4305 -0.0959 -0.4171
  873MOL0     O17728   6.773  10.866   4.661  0.1080 -0.0514 -0.3769
  873MOL0     C17729   6.654  10.781   4.676 -0.4142 -0.6725 -0.4788
  873MOL0     C17730   6.544  10.847   4.613  0.6089 -0.9325 -0.5049
  873MOL0     C17731   6.496  10.971   4.688 -0.1442  0.0553  0.3130
  873MOL0     C17732   6.412  11.057   4.596  0.1215  0.5370  0.2750
  873MOL0     C17733   6.324  11.165   4.677 -0.5270  0.9655  0.2669
  873MOL0     C17734   6.199  11.116   4.739  0.1215  0.5426 -0.2596
  873MOL0     C17735   6.086  11.078   4.640  0.5216  0.9447 -0.0998
  873MOL0     C17736   5.963  11.046   4.721 -0.2064  0.4811  0.5333
  873MOL0     N17737   5.862  10.980   4.630  0.6927 -0.6671 -0.6918
  873MOL0     C17738   5.737  11.039   4.601 -1.2363  0.0382 -0.8212
  873MOL0     C17739   5.690  10.952   4.515 -0.2195  1.1256  0.2808
  873MOL0     C17740   5.560  10.969   4.436  0.1757  0.2839 -0.1195
  873MOL0     C17741   5.446  10.872   4.464 -0.1963  0.1599 -1.1785
  873MOL0     C17742   5.356  10.835   4.342 -0.4827 -0.5001 -0.9278
  873MOL0     C17743   5.253  10.737   4.380  0.5840 -0.0519  0.0608
  873MOL0     O17744   5.209  10.673   4.265  0.6619 -0.1877  0.2628
  873MOL0     C17745   5.093  10.720   4.200  0.7467 -0.2173  0.7746
  873MOL0     C17746   5.051  10.629   4.098 -0.3538 -0.7100 -0.5628
  873MOL0     C17747   4.928  10.660   4.024 -1.1387 -0.4188  0.0412
  873MOL0     C17748   4.900  10.546   3.922  0.0625 -0.8308 -0.3694
  873MOL0     C17749   4.850  10.768   4.051 -0.2583  0.5254  0.0899
  873MOL0     C17750   4.714  10.787   3.992 -0.7673  0.4528  0.7795
  873MOL0     O17751   4.661  10.697   3.910 -0.6382 -0.5789  0.4282
  873MOL0     C17752   4.548  10.729   3.840  0.0165 -1.0517  0.2711
  873MOL0     C17753   4.524  10.847   3.767 -0.4657 -0.0498  0.0737
  873MOL0     C17754   4.413  10.853   3.687  0.1084 -0.4692  0.0382
  873MOL0     C17755   4.324  10.750   3.672 -0.5396  0.0358  0.5563
  873MOL0     O17756   4.217  10.770   3.584 -0.2106  0.0115  0.6597
  873MOL0     C17757   4.146  10.652   3.546 -0.2167  0.1477 -0.6086
  873MOL0     C17758   4.038  10.690   3.446  1.1028  0.5035  0.6647
  873MOL0     C17759   3.995  10.565   3.372 -0.2225 -0.2447 -0.0942
  873MOL0     C17760   3.889  10.579   3.260  0.1913 -0.1226  0.1737
  873MOL0     C17761   3.836  10.454   3.201  0.6638  0.1534 -0.2111
  873MOL0     C17762   3.700  10.468   3.129 -0.2458  0.2822  0.6489
  873MOL0     C17763   3.720  10.569   3.014 -0.2601  0.3905  0.6321
  873MOL0     C17764   3.603  10.564   2.913  0.5871 -0.5618 -0.4233
  873MOL0    Cl17765   3.471  10.654   2.967 -0.0978  0.2960 -0.4094
  873MOL0     C17766   4.340  10.638   3.749  0.3109  0.1376 -0.4477
  873MOL0     C17767   4.453  10.626   3.826  0.5846 -0.1532 -0.1944
  873MOL0     O17768   4.670  10.893   4.024 -0.2395  0.5624 -0.5505
  873MOL0     C17769   4.898  10.861   4.157 -0.3800  0.4204  0.9472
  873MOL0     C17770   5.021  10.838   4.222 -0.3438 -0.1813  0.5860
  873MOL0     N17771   5.766  10.842   4.510  0.1176  0.2735 -0.1182
  873MOL0     N17772   5.875  10.858   4.585 -0.3426 -0.7830  0.0087
  873MOL0     C17773   6.927  10.670   4.660 -0.6306 -0.4393  0.3184
  873MOL0     C17774   7.055  10.617   4.622  1.1592 -0.2380 -1.3303
  873MOL0     C17775   7.502  10.617   4.472  0.0744 -0.9328  0.4937
  873MOL0     C17776   7.545  10.549   4.584 -0.3311  1.4421 -0.3286
  873MOL0     C17777   7.665  10.483   4.587  0.3076  0.0943 -0.1716
  873MOL0     C17778   7.762  10.506   4.486 -0.5471  0.0150  0.1283
  873MOL0     O17779   7.881  10.436   4.504 -0.2427  0.4298 -0.5602
  873MOL0     C17780   7.995  10.484   4.432  0.2912 -0.3715  0.3034
  873MOL0     C17781   8.121  10.405   4.471  0.6215 -0.2316 -0.2099
  873MOL0     C17782   8.167  10.439   4.617  0.0376  1.1064 -0.0582
  873MOL0     C17783   8.264  10.334   4.671 -0.4612  0.3127  0.5563
  873MOL0     C17784   8.364  10.298   4.568  0.2099  0.0644  0.4087
  873MOL0     C17785   8.467  10.276   4.510  0.7840 -0.3572 -0.1987
  873MOL0     C17786   7.726  10.585   4.368 -0.3238  0.4294 -0.2305
  873MOL0     C17787   7.601  10.649   4.370 -0.5645 -1.0231  0.6938
  873MOL0     H17788   7.201  10.913   4.535 -0.5179  1.9439  1.7728
  873MOL0     H17789   6.976  10.995   4.605 -2.1226 -0.1578 -0.4819
  873MOL0     H17790   6.660  10.689   4.616 -0.6464 -0.7910 -0.3249
  873MOL0     H17791   6.642  10.771   4.784 -3.1445  0.2030 -0.6281
  873MOL0     H17792   6.584  10.864   4.512 -0.8166  0.8741 -0.8260
  873MOL0     H17793   6.460  10.777   4.604  0.5411 -0.8346 -0.6680
  873MOL0     H17794   6.438  10.943   4.776  0.6112 -1.5305  0.3484
  873MOL0     H17795   6.581  11.031   4.720  0.3405  0.7690 -2.1235
  873MOL0     H17796   6.480  11.095   4.519  0.5744 -0.4355  0.1679
  873MOL0     H17797   6.341  10.996   4.539 -0.0718  0.6301  0.4169
  873MOL0     H17798   6.386  11.201   4.760 -0.4473  3.1483 -0.6607
  873MOL0     H17799   6.312  11.258   4.620 -0.2554  1.9373  1.7431
  873MOL0     H17800   6.211  11.024   4.797 -1.7025 -1.5250 -2.8647
  873MOL0     H17801   6.156  11.196   4.800 -3.2057 -0.0530 -1.5828
  873MOL0     H17802   6.078  11.158   4.566  0.3993  1.2042  0.1891
  873MOL0     H17803   6.113  10.982   4.595  2.4620 -0.0835  2.9074
  873MOL0     H17804   5.912  11.135   4.759  0.3269  1.5260 -1.0983
  873MOL0     H17805   5.992  10.978   4.801  3.8795  2.3650  0.8936
  873MOL0     H17806   5.705  11.139   4.630  1.2634  0.5330  0.6030
  873MOL0     H17807   5.518  11.070   4.445  1.7659  0.7864  4.7553
  873MOL0     H17808   5.592  10.952   4.334  1.5770  1.1857  0.1506
  873MOL0     H17809   5.396  10.921   4.549  0.5355  1.4958 -1.4863
  873MOL0     H17810   5.494  10.781   4.503 -1.1624 -0.3286 -1.0853
  873MOL0     H17811   5.431  10.790   4.277  0.6339 -0.6872  0.4270
  873MOL0     H17812   5.312  10.928   4.305 -0.0828  0.1152  0.0978
  873MOL0     H17813   5.178  10.785   4.443 -0.8727 -1.7974 -0.2437
  873MOL0     H17814   5.296  10.657   4.440  0.9906 -2.3544 -3.0055
  873MOL0     H17815   5.115  10.548   4.066  2.8814  1.5070 -0.1870
  873MOL0     H17816   4.802  10.503   3.942 -1.0569  0.7706 -2.0700
  873MOL0     H17817   4.880  10.588   3.822  0.5293  0.4314  0.0434
  873MOL0     H17818   4.978  10.470   3.914  0.4659 -0.4439 -0.1519
  873MOL0     H17819   4.602  10.921   3.780  1.1304 -1.4416 -1.2210
  873MOL0     H17820   4.383  10.943   3.633 -0.6082  1.3671  3.1919
  873MOL0     H17821   4.225  10.588   3.507  3.5125  3.7213  0.3130
  873MOL0     H17822   4.093  10.613   3.633  4.1549 -2.4560  1.2024
  873MOL0     H17823   3.954  10.726   3.507 -1.1203 -3.0181 -0.0142
  873MOL0     H17824   4.080  10.763   3.377  3.3958 -2.3549 -1.2222
  873MOL0     H17825   3.962  10.490   3.444 -2.6485 -0.1517 -1.0200
  873MOL0     H17826   4.085  10.529   3.320  0.3891  1.0395  0.0539
  873MOL0     H17827   3.811  10.623   3.323  1.3561  2.3325  0.0320
  873MOL0     H17828   3.920  10.649   3.182 -2.4622  4.6623  2.9109
  873MOL0     H17829   3.811  10.380   3.278 -2.0405  0.5668 -0.5887
  873MOL0     H17830   3.912  10.406   3.138  0.1009 -1.8542  0.5758
  873MOL0     H17831   3.662  10.372   3.092  0.0642  1.1578 -2.1864
  873MOL0     H17832   3.635  10.515   3.203 -1.9702  0.6418 -1.0055
  873MOL0     H17833   3.809  10.548   2.954  0.8764  2.9333  1.3143
  873MOL0     H17834   3.731  10.669   3.056  2.1126 -0.1567  1.5123
  873MOL0     H17835   3.563  10.462   2.909 -1.0300 -0.0225  0.9265
  873MOL0     H17836   3.627  10.604   2.814  1.1408 -0.5299 -0.2836
  873MOL0     H17837   4.267  10.557   3.745  2.3517 -2.0076  2.1056
  873MOL0     H17838   4.482  10.532   3.870  1.9073 -0.8231 -2.3459
  873MOL0     H17839   4.852  10.958   4.177 -0.9123 -0.0711  2.1738
  873MOL0     H17840   5.060  10.908   4.295  2.5578 -3.3516  2.3566
  873MOL0     H17841   6.857  10.596   4.700 -0.8232 -0.1566  0.5113
  873MOL0     H17842   7.069  10.509   4.614 -0.3893 -0.6521  0.5698
  873MOL0     H17843   7.481  10.545   4.671  1.4381 -0.7557  1.0078
  873MOL0     H17844   7.684  10.415   4.670 -1.4664  0.5478  0.6549
  873MOL0     H17845   7.977  10.469   4.325 -0.8263 -1.1029  0.5838
  873MOL0     H17846   8.013  10.591   4.449  0.9598 -0.6111  1.1645
  873MOL0     H17847   8.190  10.439   4.394 -2.8924  1.8284 -2.7374
  873MOL0     H17848   8.100  10.299   4.460 -2.2099  0.0101  1.8008
  873MOL0     H17849   8.078  10.424   4.679  0.3816 -0.6698  0.0401
  873MOL0     H17850   8.209  10.540   4.619  0.4114  0.9366  0.5650
  873MOL0     H17851   8.212  10.241   4.694  0.2488 -0.8337 -2.0998
  873MOL0     H17852   8.311  10.374   4.761  2.5696 -1.9703  0.1438
  873MOL0     H17853   8.555  10.248   4.457  1.5792  1.4665  0.0711
  873MOL0     H17854   7.795  10.590   4.284 -0.2420  2.0062 -0.1139
  873MOL0     H17855   7.585  10.719   4.289  1.1299  2.3023  3.0112
  874MOL0     O17856   5.929   0.787   2.349 -0.4909 -0.4787  0.3729
  874MOL0     C17857   5.895   0.801   2.467 -0.0004  0.1908  0.2628
  874MOL0     O17858   5.772   0.807   2.513  0.5375 -0.2603  0.9541
  874MOL0     C17859   5.667   0.834   2.423 -0.4940  0.3502 -0.8505
  874MOL0     C17860   5.668   0.929   2.319  0.1565  0.4267 -0.3113
  874MOL0     C17861   5.539   0.943   2.248 -0.3176 -1.4455 -0.2200
  874MOL0     C17862   5.426   0.863   2.271 -0.3174  0.4356 -0.3730
  874MOL0     O17863   5.308   0.853   2.199 -0.0016 -0.1432  0.5228
  874MOL0     C17864   5.279   0.932   2.084 -0.4420 -0.6299  0.2180
  874MOL0     C17865   5.158   0.884   2.013  0.2199 -0.4120  0.8886
  874MOL0     C17866   5.125   0.985   1.896  0.8600  0.1442  0.2094
  874MOL0     C17867   5.019   0.927   1.804 -0.2470 -0.0176 -0.4540
  874MOL0     C17868   4.875   0.933   1.859  0.2885 -0.6413  0.6497
  874MOL0     C17869   4.787   0.847   1.776 -0.1169  0.1963  0.0248
  874MOL0     C17870   4.644   0.898   1.777  0.4075 -0.0275  0.9118
  874MOL0     C17871   4.567   0.871   1.908 -0.1339 -0.9290 -1.0585
  874MOL0     N17872   4.439   0.932   1.891 -0.5569  0.3953  0.5173
  874MOL0     C17873   4.315   0.877   1.853 -0.3015  1.3277  0.0777
  874MOL0     C17874   4.240   0.985   1.809  0.3592 -0.0189  0.1401
  874MOL0     C17875   4.098   0.980   1.750 -0.0320 -0.5424  0.0787
  874MOL0     C17876   3.993   1.058   1.827  0.4506  0.1686 -0.4750
  874MOL0     C17877   3.849   1.005   1.794 -0.7438 -0.2430 -0.6149
  874MOL0     C17878   3.741   1.098   1.850  0.1071  0.5938  0.2508
  874MOL0     O17879   3.620   1.028   1.828 -0.5221 -0.0262 -0.1563
  874MOL0     C17880   3.511   1.103   1.887  0.8811  0.5632 -0.8695
  874MOL0     C17881   3.513   1.209   1.986  0.0970  0.6964 -0.2522
  874MOL0     C17882   3.390   1.278   2.011 -0.3858  0.1084  0.0898
  874MOL0     C17883   3.411   1.385   2.125  0.1225  0.2398  0.3197
  874MOL0     C17884   3.267   1.243   1.958  0.0855  0.9290  0.5921
  874MOL0     C17885   3.139   1.298   1.996  0.5788  0.1486 -0.1592
  874MOL0     O17886   3.026   1.216   1.995 -0.2070 -0.3499  0.1131
  874MOL0     C17887   2.905   1.274   1.988  0.2685  0.6579  0.1025
  874MOL0     C17888   2.875   1.404   1.936 -0.1386  0.5462  0.2429
  874MOL0     C17889   2.744   1.454   1.939 -0.1377 -0.0405 -0.1002
  874MOL0     C17890   2.642   1.385   2.008 -0.2613 -0.1590 -0.0097
  874MOL0     O17891   2.513   1.431   2.016  0.0352  0.2004 -0.4039
  874MOL0     C17892   2.505   1.549   2.096  0.0828 -0.2785  0.4057
  874MOL0     C17893   2.364   1.598   2.111 -0.4388  0.0189  0.0521
  874MOL0     C17894   2.294   1.623   1.977  0.7470 -0.0880  0.5233
  874MOL0     C17895   2.147   1.676   2.004  1.3312  0.0595 -1.0940
  874MOL0     C17896   2.083   1.732   1.874 -0.4721 -0.4934 -0.0771
  874MOL0     C17897   1.930   1.746   1.899  0.1107  0.0180  0.1094
  874MOL0     C17898   1.876   1.830   1.780  0.5250 -0.2747  0.1269
  874MOL0     C17899   1.724   1.822   1.766 -0.3581 -0.8107 -0.3976
  874MOL0    Cl17900   1.674   1.940   1.643 -0.3132  0.0517  0.0384
  874MOL0     C17901   2.664   1.259   2.055 -0.6522  0.7930 -0.4537
  874MOL0     C17902   2.798   1.205   2.046  0.3149  0.2238 -0.1912
  874MOL0     O17903   3.143   1.412   2.034  0.7133  0.0748 -0.1663
  874MOL0     C17904   3.269   1.134   1.868 -0.0497  0.7138 -1.1280
  874MOL0     C17905   3.386   1.067   1.837 -0.0302 -0.7035  0.4071
  874MOL0     N17906   4.310   1.097   1.823 -0.4160 -0.9903 -0.5899
  874MOL0     N17907   4.424   1.067   1.878  0.4870 -0.8376  0.4240
  874MOL0     C17908   5.430   0.773   2.373 -0.7817  0.4699  0.2957
  874MOL0     C17909   5.555   0.755   2.440  0.9652 -0.4019  0.1649
  874MOL0     C17910   5.997   0.775   2.564 -0.8099 -0.2284 -0.5120
  874MOL0     C17911   5.980   0.808   2.702  0.1329 -0.4964 -0.0032
  874MOL0     C17912   6.076   0.774   2.795 -0.3598  0.9910 -0.1275
  874MOL0     C17913   6.196   0.711   2.764 -0.0489 -0.9212  0.6115
  874MOL0     O17914   6.277   0.691   2.872 -0.4147 -0.2403  0.1634
  874MOL0     C17915   6.377   0.588   2.858 -0.4989 -0.0335  0.0068
  874MOL0     C17916   6.447   0.565   2.993  0.4593  0.2788 -0.3326
  874MOL0     C17917   6.567   0.464   2.976  0.9701 -1.2614  1.0686
  874MOL0     C17918   6.638   0.450   3.107  1.6597  0.1557 -0.2609
  874MOL0     C17919   6.732   0.331   3.113 -0.7093  1.1154 -0.1812
  874MOL0     C17920   6.798   0.231   3.129  0.1970 -0.2313  0.3056
  874MOL0     C17921   6.213   0.677   2.630  0.4726 -0.4473 -0.1053
  874MOL0     C17922   6.116   0.705   2.525 -0.2647  0.3737  0.1531
  874MOL0     H17923   5.746   1.002   2.298  1.2929 -0.2254  1.4055
  874MOL0     H17924   5.508   1.025   2.184 -0.2962 -2.1610 -1.1642
  874MOL0     H17925   5.270   1.035   2.120  0.2488 -0.3394 -0.4104
  874MOL0     H17926   5.369   0.914   2.025  0.3022  1.0125  0.8010
  874MOL0     H17927   5.176   0.783   1.975 -1.6552 -0.1474 -0.8593
  874MOL0     H17928   5.072   0.874   2.080  0.9121  0.0090  1.8694
  874MOL0     H17929   5.092   1.081   1.936  1.1376  0.7418 -0.9413
  874MOL0     H17930   5.210   1.004   1.828 -0.7717  2.4240 -1.3612
  874MOL0     H17931   5.016   0.972   1.705 -2.2637  0.5551 -0.1854
  874MOL0     H17932   5.041   0.820   1.798  0.2801 -0.1940  2.6210
  874MOL0     H17933   4.877   0.895   1.962 -0.8239  4.3057  2.8202
  874MOL0     H17934   4.849   1.039   1.860  1.0110 -0.4499  1.7478
  874MOL0     H17935   4.820   0.839   1.672  1.2136 -0.5838  0.4885
  874MOL0     H17936   4.787   0.741   1.803 -0.1776 -0.1749 -1.3644
  874MOL0     H17937   4.644   1.007   1.766 -0.6404 -0.2131 -1.6294
  874MOL0     H17938   4.593   0.852   1.692  3.0772 -3.4507  0.9850
  874MOL0     H17939   4.617   0.907   1.999  1.5119 -1.8342 -1.5693
  874MOL0     H17940   4.547   0.765   1.923 -1.1894 -0.4558  1.4435
  874MOL0     H17941   4.295   0.770   1.853  1.5426  0.9441  1.6543
  874MOL0     H17942   4.093   1.020   1.648  0.1749  0.2900  0.3849
  874MOL0     H17943   4.075   0.873   1.746 -0.3660 -0.7722  4.2527
  874MOL0     H17944   3.989   1.164   1.800 -0.1022  0.3224  0.1836
  874MOL0     H17945   4.004   1.048   1.935 -1.5977  2.2194 -0.0045
  874MOL0     H17946   3.845   0.905   1.837  0.1040 -0.0710 -0.1136
  874MOL0     H17947   3.830   0.987   1.688  0.2898  1.6108 -1.1488
  874MOL0     H17948   3.752   1.189   1.790  0.5217 -1.0496 -2.3084
  874MOL0     H17949   3.758   1.111   1.957 -0.9983  0.3099  0.4788
  874MOL0     H17950   3.608   1.225   2.036  1.1233  0.2272 -1.9701
  874MOL0     H17951   3.510   1.395   2.170  1.6396  2.9477 -3.2134
  874MOL0     H17952   3.378   1.480   2.084  1.5446  1.3817  1.7178
  874MOL0     H17953   3.347   1.359   2.210 -1.7915  0.9782 -0.8170
  874MOL0     H17954   2.946   1.472   1.892  0.3908 -0.2389 -0.1423
  874MOL0     H17955   2.721   1.552   1.898 -1.7970  0.3267  1.5739
  874MOL0     H17956   2.544   1.516   2.193  0.5166 -0.1990  0.2629
  874MOL0     H17957   2.556   1.640   2.063 -2.0276  1.2806  1.2071
  874MOL0     H17958   2.305   1.521   2.161  1.3334 -1.6316 -0.2845
  874MOL0     H17959   2.367   1.691   2.169  0.7476 -1.9620  3.4271
  874MOL0     H17960   2.280   1.529   1.923 -1.7298  1.5438 -1.9824
  874MOL0     H17961   2.354   1.691   1.915 -0.1980 -1.3041 -1.8586
  874MOL0     H17962   2.094   1.587   2.039  1.9927 -0.0258 -0.2782
  874MOL0     H17963   2.143   1.749   2.085 -0.5444 -1.7895  0.6127
  874MOL0     H17964   2.094   1.645   1.809  1.6465 -1.4047  1.3891
  874MOL0     H17965   2.124   1.827   1.838 -0.3025  0.1468  1.6984
  874MOL0     H17966   1.883   1.648   1.908 -0.6996  0.4392  0.6545
  874MOL0     H17967   1.915   1.808   1.988 -0.1984  1.5508 -0.9486
  874MOL0     H17968   1.923   1.801   1.686 -1.2590 -0.2098 -0.8224
  874MOL0     H17969   1.889   1.937   1.799 -1.9682 -0.2226  2.1494
  874MOL0     H17970   1.668   1.859   1.852 -0.1335  2.4310 -1.5252
  874MOL0     H17971   1.693   1.720   1.743  0.9170 -1.2819 -0.1465
  874MOL0     H17972   2.591   1.190   2.095  1.9733 -1.2968  1.0794
  874MOL0     H17973   2.816   1.107   2.089 -1.4130 -0.9806 -2.0608
  874MOL0     H17974   3.177   1.103   1.819 -0.3708 -1.3817  0.6379
  874MOL0     H17975   3.380   0.998   1.753  1.0061  2.1752 -2.2545
  874MOL0     H17976   5.349   0.712   2.410 -0.4361  0.8561  1.7560
  874MOL0     H17977   5.554   0.687   2.524  0.4774 -2.0321 -1.0948
  874MOL0     H17978   5.884   0.853   2.727  0.3174  0.2007 -0.5343
  874MOL0     H17979   6.051   0.795   2.899  0.0157 -1.6412  0.5709
  874MOL0     H17980   6.330   0.493   2.833  1.3314 -0.9903  0.0608
  874MOL0     H17981   6.444   0.613   2.776  0.7893 -1.6355  0.5315
  874MOL0     H17982   6.372   0.513   3.054 -0.0506 -0.0806 -1.2404
  874MOL0     H17983   6.485   0.655   3.041  0.9930 -1.0324  1.8150
  874MOL0     H17984   6.626   0.491   2.889 -1.7070 -2.0607 -1.1517
  874MOL0     H17985   6.524   0.364   2.957 -0.5265 -0.2964 -0.9778
  874MOL0     H17986   6.567   0.442   3.190 -0.3293 -2.5457 -2.0810
  874MOL0     H17987   6.700   0.541   3.109  1.7021  0.1259 -0.2111
  874MOL0     H17988   6.866   0.151   3.150  1.5508  0.5339 -0.9496
  874MOL0     H17989   6.312   0.639   2.606  1.7311  2.2881  0.3401
  874MOL0     H17990   6.125   0.680   2.420 -1.8589  1.6352 -0.3293
  875MOL0     O17991   9.812   7.675   3.086  0.0269  0.4770  0.3773
  875MOL0     C17992   9.758   7.567   3.104  0.2638  0.1125 -0.3054
  875MOL0     O17993   9.752   7.470   3.012  0.8240 -0.0961 -0.2613
  875MOL0     C17994   9.804   7.494   2.893  1.0230 -0.0883  0.3407
  875MOL0     C17995   9.940   7.479   2.873 -0.1645 -0.6289  0.5885
  875MOL0     C17996  10.002   7.504   2.742  1.1535  0.7176 -0.4327
  875MOL0     C17997   9.924   7.532   2.632  0.3238  0.3840 -0.2882
  875MOL0     O17998   9.984   7.544   2.507  0.4019  0.1902 -0.6504
  875MOL0     C17999   9.902   7.585   2.392  0.1847 -0.2914 -0.3224
  875MOL0     C18000   9.975   7.539   2.265  1.3489 -0.0458 -0.3518
  875MOL0     C18001  10.114   7.595   2.247  0.0617  0.6709  0.0466
  875MOL0     C18002  10.112   7.739   2.225  0.0145  0.7384 -0.1268
  875MOL0     C18003  10.258   7.793   2.209  0.1138 -1.2787  0.5099
  875MOL0     C18004  10.248   7.935   2.172  0.4391 -0.7817  0.3063
  875MOL0     C18005  10.389   8.010   2.165 -0.6446  0.3050  0.3061
  875MOL0     C18006  10.392   8.157   2.190  0.3006  0.0417  0.2311
  875MOL0     N18007  10.354   8.201   2.326  0.0568 -0.9345 -0.2238
  875MOL0     C18008  10.225   8.229   2.369 -0.1210  0.1375 -0.3444
  875MOL0     C18009  10.235   8.247   2.501 -0.6949  1.9693  1.1921
  875MOL0     C18010  10.128   8.291   2.588 -0.1815  0.5499  0.4095
  875MOL0     C18011  10.108   8.439   2.549  0.3279 -0.0397  0.7828
  875MOL0     C18012   9.974   8.492   2.611  0.1789  0.6642  0.2672
  875MOL0     C18013   9.973   8.644   2.622  0.3302  0.0988 -0.2956
  875MOL0     O18014   9.850   8.690   2.676 -0.4196  0.0030 -0.0074
  875MOL0     C18015   9.740   8.692   2.595  0.6019  0.2045 -0.3590
  875MOL0     C18016   9.624   8.742   2.657  0.3043  0.2620 -0.5859
  875MOL0     C18017   9.510   8.777   2.584  0.8123  0.4021  0.2648
  875MOL0     C18018   9.395   8.849   2.653 -0.3784 -0.3223 -0.2121
  875MOL0     C18019   9.514   8.757   2.439 -0.2253  0.8333 -0.1919
  875MOL0     C18020   9.402   8.794   2.352 -0.5881  0.0858  0.7394
  875MOL0     O18021   9.430   8.783   2.214  0.2250  0.0766 -0.5589
  875MOL0     C18022   9.356   8.826   2.107 -1.1602 -0.5406  0.1098
  875MOL0     C18023   9.219   8.844   2.107 -0.1141 -0.2824  0.7275
  875MOL0     C18024   9.155   8.877   1.987  0.1142  0.8509 -0.5610
  875MOL0     C18025   9.227   8.897   1.866  0.0230 -0.2882  0.3412
  875MOL0     O18026   9.175   8.953   1.746 -0.2959  0.3651 -0.1864
  875MOL0     C18027   9.036   8.982   1.724 -0.8581 -0.0399  0.6231
  875MOL0     C18028   8.968   8.853   1.654  0.5587 -0.1016  0.2531
  875MOL0     C18029   8.854   8.891   1.552  0.4996  0.2346  0.0090
  875MOL0     C18030   8.790   8.756   1.511  0.0824 -0.7089 -0.3546
  875MOL0     C18031   8.646   8.786   1.462  0.8547 -0.0669  0.5096
  875MOL0     C18032   8.577   8.669   1.398  0.2258 -0.3947  0.6269
  875MOL0     C18033   8.433   8.703   1.361  0.0570  0.7399  0.4494
  875MOL0     C18034   8.356   8.576   1.322  0.4805  0.5215 -0.3898
  875MOL0    Cl18035   8.199   8.630   1.233 -0.0233 -0.8324 -0.1309
  875MOL0     C18036   9.369   8.880   1.870  0.2901  0.4815  1.0196
  875MOL0     C18037   9.436   8.856   1.991  0.2655  0.4826 -0.7541
  875MOL0     O18038   9.291   8.811   2.400  0.2204 -0.2648  0.0048
  875MOL0     C18039   9.625   8.693   2.378  0.6009 -0.0992  0.2118
  875MOL0     C18040   9.727   8.654   2.458  0.0054  0.4336  0.7206
  875MOL0     N18041  10.367   8.230   2.537 -0.1575 -0.5324 -0.1074
  875MOL0     N18042  10.440   8.205   2.436 -0.0962  0.0447 -0.3407
  875MOL0     C18043   9.792   7.553   2.657 -0.7100  0.5619  0.6414
  875MOL0     C18044   9.731   7.521   2.778  1.0297  0.1572 -0.5745
  875MOL0     C18045   9.699   7.543   3.237 -1.2432  0.6586  0.0574
  875MOL0     C18046   9.680   7.653   3.322 -0.0527  0.1082  0.0890
  875MOL0     C18047   9.615   7.639   3.447 -0.5077 -0.3321 -0.2838
  875MOL0     C18048   9.583   7.513   3.501 -0.1542  0.6003 -0.3806
  875MOL0     O18049   9.561   7.473   3.627  0.2036  0.1805 -0.4059
  875MOL0     C18050   9.530   7.570   3.728 -0.5196 -1.0946 -0.2722
  875MOL0     C18051   9.403   7.654   3.706 -0.2985 -0.7219 -0.0016
  875MOL0     C18052   9.402   7.772   3.807  0.6458  0.2017 -0.1024
  875MOL0     C18053   9.388   7.727   3.957  0.2608 -0.3070  0.9324
  875MOL0     C18054   9.353   7.841   4.037 -0.7992 -0.4703 -0.5818
  875MOL0     C18055   9.310   7.941   4.094  0.9084  0.3464  0.2248
  875MOL0     C18056   9.616   7.400   3.419  1.3875  0.0891 -0.1719
  875MOL0     C18057   9.678   7.414   3.291  0.0349  1.0619  0.7619
  875MOL0     H18058  10.005   7.464   2.959  1.7303  1.3935 -0.3947
  875MOL0     H18059  10.108   7.480   2.737  1.0737 -0.2753  1.5408
  875MOL0     H18060   9.806   7.532   2.393  1.0495 -1.9853 -1.7864
  875MOL0     H18061   9.884   7.692   2.391  2.7126  0.2647  1.7427
  875MOL0     H18062   9.979   7.430   2.256  0.9112 -0.1705  0.7749
  875MOL0     H18063   9.919   7.566   2.175 -1.0320  0.6837  1.2541
  875MOL0     H18064  10.162   7.567   2.341 -1.1916  2.4147  1.2533
  875MOL0     H18065  10.169   7.546   2.166  0.2212 -1.8545  1.5769
  875MOL0     H18066  10.047   7.757   2.139 -1.0066 -0.3140  0.3972
  875MOL0     H18067  10.075   7.786   2.317 -2.1253  1.3430 -1.2325
  875MOL0     H18068  10.316   7.778   2.301 -1.3125 -2.0400  1.3328
  875MOL0     H18069  10.306   7.736   2.129 -1.4075  0.9766 -2.1423
  875MOL0     H18070  10.204   7.922   2.073 -0.9942 -1.7385  1.0274
  875MOL0     H18071  10.180   7.992   2.238 -0.4268 -1.9108  0.4205
  875MOL0     H18072  10.450   7.962   2.242 -1.8535 -0.8093  0.6023
  875MOL0     H18073  10.435   7.993   2.068 -2.1294  1.4841 -0.6478
  875MOL0     H18074  10.317   8.206   2.128  0.5311  0.3792  0.2150
  875MOL0     H18075  10.492   8.193   2.162  1.1197 -2.1728  0.0803
  875MOL0     H18076  10.138   8.251   2.308  0.9534  3.2810 -0.9657
  875MOL0     H18077  10.036   8.233   2.577  1.3885 -2.1597  0.7219
  875MOL0     H18078  10.167   8.285   2.690 -0.4444 -4.7667  0.4605
  875MOL0     H18079  10.120   8.454   2.441 -2.1308 -0.5098  0.3874
  875MOL0     H18080  10.189   8.492   2.600  0.6623 -2.3482  2.7949
  875MOL0     H18081   9.962   8.445   2.709  1.2662  0.6609  0.4210
  875MOL0     H18082   9.885   8.466   2.554  1.3852 -1.2602 -0.8718
  875MOL0     H18083   9.998   8.678   2.521 -0.9786  3.0906  0.2846
  875MOL0     H18084  10.039   8.668   2.706 -0.9389  2.1174  0.1996
  875MOL0     H18085   9.635   8.763   2.763  0.0402 -0.1680 -0.4716
  875MOL0     H18086   9.300   8.794   2.660 -2.4192  2.2192 -4.2967
  875MOL0     H18087   9.419   8.871   2.757  0.2987  2.5668 -0.8941
  875MOL0     H18088   9.372   8.942   2.600  0.6931 -0.4156 -0.8583
  875MOL0     H18089   9.148   8.841   2.189 -3.0857 -3.7257 -1.6075
  875MOL0     H18090   9.047   8.881   1.992  0.1484  3.8077 -0.2251
  875MOL0     H18091   8.983   9.022   1.810 -0.6563  0.9277  0.3096
  875MOL0     H18092   9.040   9.059   1.646 -0.3382 -1.5185 -0.8668
  875MOL0     H18093   9.042   8.805   1.589 -0.1812 -3.6481  1.7544
  875MOL0     H18094   8.942   8.770   1.721 -1.2456 -0.2088 -0.5082
  875MOL0     H18095   8.890   8.942   1.463  1.2276 -1.4727 -0.7160
  875MOL0     H18096   8.784   8.942   1.619  0.1660 -2.9743  2.3614
  875MOL0     H18097   8.850   8.715   1.429  2.5277  0.3483  0.8036
  875MOL0     H18098   8.781   8.677   1.586  0.6288 -2.0934 -1.6878
  875MOL0     H18099   8.647   8.867   1.388 -0.3600  2.1970  2.8078
  875MOL0     H18100   8.593   8.825   1.549  1.4164  0.0950  0.7895
  875MOL0     H18101   8.631   8.648   1.305  0.0383  0.9040  0.2144
  875MOL0     H18102   8.588   8.583   1.465 -2.9268 -0.4938  1.1333
  875MOL0     H18103   8.434   8.763   1.270 -1.9778  1.1233  0.6386
  875MOL0     H18104   8.380   8.761   1.437  0.2546 -0.7282  1.7691
  875MOL0     H18105   8.317   8.513   1.403  1.2257 -0.0134 -0.4390
  875MOL0     H18106   8.411   8.504   1.261  0.1847 -1.7491  1.8529
  875MOL0     H18107   9.434   8.895   1.784 -0.0401 -3.0040  0.0222
  875MOL0     H18108   9.544   8.857   2.003  0.2495  1.0278 -0.6128
  875MOL0     H18109   9.649   8.662   2.277 -1.3608 -1.6867  0.1723
  875MOL0     H18110   9.807   8.606   2.402  1.0876  0.8592  1.8604
  875MOL0     H18111   9.724   7.577   2.575 -0.0558 -1.6173 -0.6132
  875MOL0     H18112   9.625   7.500   2.790  1.7683 -3.9825  0.4086
  875MOL0     H18113   9.710   7.750   3.286 -1.5910  0.1027 -1.3154
  875MOL0     H18114   9.610   7.734   3.501  0.0302 -0.0807 -0.6735
  875MOL0     H18115   9.507   7.520   3.822  3.3376 -2.4384  0.0999
  875MOL0     H18116   9.612   7.643   3.731 -0.2437 -1.4381  1.8855
  875MOL0     H18117   9.315   7.592   3.730 -0.9148  1.3192  3.8267
  875MOL0     H18118   9.395   7.691   3.604 -2.9700 -0.2943  0.2798
  875MOL0     H18119   9.310   7.828   3.787  0.6934 -0.0998 -1.2429
  875MOL0     H18120   9.493   7.832   3.795  0.8890 -0.1521 -0.0416
  875MOL0     H18121   9.484   7.684   3.989  1.6287  0.4121 -1.9317
  875MOL0     H18122   9.312   7.648   3.954  0.4290 -0.5086 -2.9316
  875MOL0     H18123   9.265   8.031   4.131 -3.5562 -1.2445 -0.7293
  875MOL0     H18124   9.587   7.301   3.451 -2.1021  1.0860  0.2356
  875MOL0     H18125   9.699   7.321   3.239 -2.1906  0.7655  0.2703
  876MOL0     O18126   7.069   6.701   9.358  0.0966  0.8908 -0.5807
  876MOL0     C18127   6.994   6.682   9.258  0.4549 -0.1557  0.4177
  876MOL0     O18128   6.935   6.561   9.226  0.1720  0.5313 -0.1812
  876MOL0     C18129   6.984   6.448   9.280 -0.6459  1.2156 -0.0654
  876MOL0     C18130   7.046   6.349   9.194 -0.4995 -0.3145  0.4933
  876MOL0     C18131   7.080   6.224   9.240 -0.8627 -0.0348 -0.6984
  876MOL0     C18132   7.056   6.187   9.372  0.4956 -0.5538  0.2068
  876MOL0     O18133   7.084   6.061   9.428  0.2880 -0.1916  0.2520
  876MOL0     C18134   7.102   5.949   9.340  0.1910 -1.1332  0.5468
  876MOL0     C18135   6.967   5.907   9.268 -1.3175 -0.6598 -1.3745
  876MOL0     C18136   6.853   5.894   9.376 -0.3266 -0.6313  0.6331
  876MOL0     C18137   6.728   5.830   9.317  0.2907 -0.2318 -0.1323
  876MOL0     C18138   6.606   5.831   9.409  0.0853  0.3693 -0.6406
  876MOL0     C18139   6.474   5.816   9.339 -0.3927 -0.8173  0.5411
  876MOL0     C18140   6.357   5.832   9.440  0.6154  0.0259  0.7038
  876MOL0     C18141   6.227   5.880   9.381  0.2974 -0.0449 -0.6231
  876MOL0     N18142   6.236   6.025   9.346 -0.1942  0.4875 -0.2491
  876MOL0     C18143   6.203   6.126   9.438  0.4154 -0.0463  0.2355
  876MOL0     C18144   6.188   6.233   9.365  0.4880  0.5807 -0.1957
  876MOL0     C18145   6.168   6.374   9.406  0.4570  0.0435 -0.3516
  876MOL0     C18146   6.023   6.425   9.380  0.6087  0.2803 -0.3755
  876MOL0     C18147   5.979   6.410   9.235 -0.6089 -0.7779 -1.0686
  876MOL0     C18148   5.869   6.505   9.197  0.7417 -0.0595  0.1718
  876MOL0     O18149   5.739   6.473   9.264  0.1473 -1.4231 -0.1985
  876MOL0     C18150   5.637   6.570   9.241 -0.3509  0.0567  0.3069
  876MOL0     C18151   5.542   6.590   9.336 -0.3864 -0.1926 -0.1516
  876MOL0     C18152   5.422   6.654   9.308  0.8377 -1.2179 -0.3886
  876MOL0     C18153   5.344   6.689   9.440  0.1381 -0.0370  1.2938
  876MOL0     C18154   5.386   6.699   9.180  0.0582  0.2799  0.0785
  876MOL0     C18155   5.254   6.766   9.137 -0.2535  1.0697  0.1453
  876MOL0     O18156   5.164   6.788   9.227  0.7350  0.3047  0.3252
  876MOL0     C18157   5.034   6.833   9.205 -0.4218 -0.6272  0.1742
  876MOL0     C18158   4.973   6.881   9.314  0.2323 -0.4174  0.2340
  876MOL0     C18159   4.836   6.918   9.313  0.1032 -0.6531  0.0717
  876MOL0     C18160   4.770   6.927   9.187  0.1659  0.0686  0.5740
  876MOL0     O18161   4.645   6.968   9.163  0.1199  0.1383 -0.5913
  876MOL0     C18162   4.602   7.094   9.213 -0.9308  0.1347 -0.2753
  876MOL0     C18163   4.470   7.153   9.156 -0.9381  0.3524  0.1693
  876MOL0     C18164   4.347   7.071   9.188 -0.1533  0.3473 -0.6518
  876MOL0     C18165   4.220   7.111   9.114  0.0868  0.1644 -0.3275
  876MOL0     C18166   4.097   7.049   9.175  0.0680  0.4078  0.0899
  876MOL0     C18167   3.978   7.058   9.080  1.0575  0.1662  0.0981
  876MOL0     C18168   3.857   6.981   9.129  0.4212 -0.4513  0.4709
  876MOL0     C18169   3.727   7.021   9.069 -0.0901  0.3188 -0.4557
  876MOL0    Cl18170   3.674   7.188   9.100 -0.2445 -0.3603 -0.3769
  876MOL0     C18171   4.835   6.873   9.073  0.2857  0.9981 -0.1524
  876MOL0     C18172   4.962   6.829   9.085  0.8040  0.2320  0.4239
  876MOL0     O18173   5.240   6.800   9.017 -0.3092  0.4317 -0.0975
  876MOL0     C18174   5.491   6.685   9.088 -0.5889  0.3526  0.2527
  876MOL0     C18175   5.611   6.624   9.117  0.9816  0.5627 -1.0056
  876MOL0     N18176   6.210   6.200   9.233 -0.5820  0.1524  0.3160
  876MOL0     N18177   6.241   6.073   9.218 -0.1521  0.2322 -0.3968
  876MOL0     C18178   7.008   6.283   9.460 -0.0194  0.5292  0.2743
  876MOL0     C18179   6.965   6.407   9.410 -0.4020 -0.3158  0.3997
  876MOL0     C18180   6.956   6.810   9.178 -0.1053  0.3139 -0.5571
  876MOL0     C18181   7.015   6.937   9.204  0.3440 -0.6438  0.7441
  876MOL0     C18182   6.971   7.052   9.140 -0.5824 -0.5131  0.5341
  876MOL0     C18183   6.865   7.050   9.048 -0.1860  0.8082 -0.3061
  876MOL0     O18184   6.826   7.165   8.983 -0.1619 -0.1633 -0.5854
  876MOL0     C18185   6.863   7.284   9.045  0.0682 -0.8818 -0.0017
  876MOL0     C18186   6.746   7.386   9.022  0.5879  0.9414 -0.2281
  876MOL0     C18187   6.799   7.534   9.032  1.1225 -0.5497 -0.5077
  876MOL0     C18188   6.676   7.624   9.000 -0.6362  0.0180 -0.2292
  876MOL0     C18189   6.702   7.764   9.041 -0.7076 -0.4053  0.0784
  876MOL0     C18190   6.729   7.877   9.078 -0.6522 -0.2388  0.2645
  876MOL0     C18191   6.812   6.929   9.010  0.0467  0.6449  0.4949
  876MOL0     C18192   6.851   6.815   9.084 -0.0837  0.1787  0.0702
  876MOL0     H18193   7.058   6.377   9.090 -0.5226  2.3416  1.1378
  876MOL0     H18194   7.122   6.165   9.159 -2.3663  0.6403 -2.0008
  876MOL0     H18195   7.181   5.972   9.268 -2.9686 -2.0014 -3.5838
  876MOL0     H18196   7.139   5.867   9.402 -0.4793 -1.5859  0.3560
  876MOL0     H18197   6.950   5.975   9.184  0.0215 -1.2640 -2.1658
  876MOL0     H18198   6.981   5.808   9.223  1.7978 -1.1562  0.4072
  876MOL0     H18199   6.898   5.840   9.460 -0.6468  1.3320  2.1598
  876MOL0     H18200   6.826   5.997   9.404 -2.6532 -1.1417  0.4779
  876MOL0     H18201   6.688   5.883   9.230 -1.4562  2.5142  2.1360
  876MOL0     H18202   6.744   5.727   9.282  0.6136  0.1477 -1.1320
  876MOL0     H18203   6.615   5.751   9.483 -1.9181 -0.2142 -0.9721
  876MOL0     H18204   6.605   5.930   9.455 -3.7935 -0.6286  1.8547
  876MOL0     H18205   6.475   5.898   9.268  3.1795 -0.5293  0.7385
  876MOL0     H18206   6.466   5.718   9.290 -3.0018 -0.6015  0.3850
  876MOL0     H18207   6.318   5.740   9.484 -4.7018  2.1976  1.2441
  876MOL0     H18208   6.396   5.894   9.521  2.3679  0.4820 -0.4380
  876MOL0     H18209   6.142   5.863   9.447  0.2881 -0.8051 -0.8207
  876MOL0     H18210   6.203   5.828   9.288 -1.9249  0.6024 -0.4757
  876MOL0     H18211   6.197   6.129   9.546  0.2500 -3.6335  0.4571
  876MOL0     H18212   6.189   6.392   9.512 -0.0012 -1.9846  0.1134
  876MOL0     H18213   6.241   6.434   9.351  1.5245  0.4583  1.4404
  876MOL0     H18214   6.008   6.530   9.406 -3.6557 -0.0616 -0.8206
  876MOL0     H18215   5.966   6.364   9.450  3.5781  0.2680  2.2652
  876MOL0     H18216   5.943   6.310   9.209  0.0386 -1.3771  0.2330
  876MOL0     H18217   6.066   6.444   9.178 -2.0267  1.2669 -2.1048
  876MOL0     H18218   5.850   6.504   9.089 -1.8900  0.4197  0.5615
  876MOL0     H18219   5.898   6.608   9.218 -2.4195  1.7500 -3.0939
  876MOL0     H18220   5.561   6.562   9.439 -0.1074 -0.6581 -0.3277
  876MOL0     H18221   5.240   6.656   9.426  0.8518 -3.0189  2.1168
  876MOL0     H18222   5.386   6.631   9.523  1.8626  2.5546  2.3464
  876MOL0     H18223   5.349   6.792   9.477  1.3411  1.4298 -2.5231
  876MOL0     H18224   5.013   6.892   9.414 -2.5858  2.9286  1.2027
  876MOL0     H18225   4.781   6.942   9.403 -0.5828  0.9498 -0.7217
  876MOL0     H18226   4.600   7.093   9.322 -0.9163 -0.4281 -0.2765
  876MOL0     H18227   4.683   7.165   9.193 -2.0336  1.9223  1.3028
  876MOL0     H18228   4.458   7.250   9.205 -0.8306  0.5540 -0.2063
  876MOL0     H18229   4.482   7.159   9.048 -1.7978  0.6143  0.0796
  876MOL0     H18230   4.333   7.069   9.296  1.3830  2.2057 -0.3652
  876MOL0     H18231   4.365   6.968   9.154 -1.5747  0.4497 -1.7845
  876MOL0     H18232   4.207   7.219   9.102  0.2257 -0.0621 -3.1060
  876MOL0     H18233   4.229   7.067   9.015 -0.0839  2.1501 -1.2881
  876MOL0     H18234   4.078   7.116   9.260 -2.0577 -0.3008  0.2439
  876MOL0     H18235   4.106   6.943   9.202 -0.1495  0.5547  0.7815
  876MOL0     H18236   3.955   7.164   9.064  1.2126  0.1120 -0.4998
  876MOL0     H18237   3.999   7.021   8.979 -2.1528 -1.9750  0.0930
  876MOL0     H18238   3.840   7.002   9.235 -2.6557 -1.0406  0.1803
  876MOL0     H18239   3.875   6.874   9.122  2.7719 -0.1813  1.5175
  876MOL0     H18240   3.651   6.954   9.111  1.0431  1.2574  3.4733
  876MOL0     H18241   3.739   7.012   8.961  3.3221 -2.9820 -0.0149
  876MOL0     H18242   4.789   6.873   8.975 -0.6175  1.7014  0.2580
  876MOL0     H18243   5.010   6.778   9.002  0.5552 -0.2540  0.5720
  876MOL0     H18244   5.468   6.716   8.987 -0.5366  1.1813  0.4875
  876MOL0     H18245   5.673   6.623   9.029 -1.2129  0.5367 -2.6508
  876MOL0     H18246   6.988   6.253   9.563  1.6236 -4.6348 -0.6634
  876MOL0     H18247   6.915   6.475   9.478  0.9477 -2.1286  3.3876
  876MOL0     H18248   7.106   6.948   9.262 -0.3772 -1.1565  2.0055
  876MOL0     H18249   7.036   7.139   9.151  1.4275 -1.8382 -0.2313
  876MOL0     H18250   6.884   7.290   9.152  4.3457 -1.4082 -0.6464
  876MOL0     H18251   6.951   7.326   8.995 -1.9803  2.2450 -1.2758
  876MOL0     H18252   6.668   7.359   9.093  1.9506 -1.0588  0.5919
  876MOL0     H18253   6.695   7.367   8.927  2.2799  1.8261 -1.3606
  876MOL0     H18254   6.884   7.557   8.967  0.4647  2.4103 -0.4612
  876MOL0     H18255   6.837   7.550   9.133  2.1272 -3.0173 -0.4034
  876MOL0     H18256   6.585   7.603   9.056 -0.1472 -1.8794 -0.0728
  876MOL0     H18257   6.656   7.625   8.893  0.6334 -3.4621 -0.6326
  876MOL0     H18258   6.769   7.976   9.085 -0.2119 -0.1645 -2.4044
  876MOL0     H18259   6.743   6.916   8.927  0.5172 -1.4376  0.3767
  876MOL0     H18260   6.804   6.722   9.054 -3.7541  1.5077  1.0400
  877MOL0     O18261   5.037   0.881   5.830  0.4753 -0.1017 -0.3393
  877MOL0     C18262   5.077   0.964   5.748 -0.4515  0.4362 -0.1134
  877MOL0     O18263   5.003   1.028   5.648  0.0799 -0.2948 -0.5184
  877MOL0     C18264   4.870   1.002   5.658 -0.0095  0.0375  0.0396
  877MOL0     C18265   4.810   0.886   5.603 -0.1875 -0.4878  0.2223
  877MOL0     C18266   4.676   0.854   5.636 -0.2951  0.0417  0.0868
  877MOL0     C18267   4.596   0.950   5.707 -0.7460 -0.7168  0.0200
  877MOL0     O18268   4.468   0.926   5.748 -0.8408 -0.0063  0.2008
  877MOL0     C18269   4.416   0.792   5.722  0.8306 -0.2534 -0.5427
  877MOL0     C18270   4.263   0.796   5.736 -0.2606  0.0784 -0.5955
  877MOL0     C18271   4.207   0.654   5.703  0.1173  0.0905  0.6894
  877MOL0     C18272   4.056   0.644   5.712 -0.1651 -0.9996 -0.5644
  877MOL0     C18273   3.995   0.554   5.612  0.9678 -0.0512  0.1224
  877MOL0     C18274   3.850   0.516   5.647  0.3273  0.0587 -0.5976
  877MOL0     C18275   3.780   0.465   5.529  0.0886  0.5296 -0.9145
  877MOL0     C18276   3.637   0.421   5.550  0.1044 -0.1370 -0.2154
  877MOL0     N18277   3.584   0.380   5.423 -0.1234 -0.6110 -0.4204
  877MOL0     C18278   3.538   0.458   5.318  0.0670  0.4551 -0.0427
  877MOL0     C18279   3.502   0.368   5.221  0.0657 -0.1802  0.6540
  877MOL0     C18280   3.425   0.399   5.099  0.6662  0.6928 -0.3780
  877MOL0     C18281   3.473   0.533   5.029 -0.3113 -0.3369  0.9172
  877MOL0     C18282   3.362   0.575   4.930  0.3508  1.2126  0.5320
  877MOL0     C18283   3.384   0.498   4.799 -0.9258 -0.1161  0.1071
  877MOL0     O18284   3.265   0.498   4.724  0.4707  0.0711 -0.1468
  877MOL0     C18285   3.175   0.398   4.737  0.0878 -0.5905  0.0570
  877MOL0     C18286   3.170   0.295   4.822 -0.0898 -0.4232 -0.4624
  877MOL0     C18287   3.060   0.207   4.830 -0.4028  0.5150 -0.5148
  877MOL0     C18288   3.066   0.101   4.938 -1.0333 -0.4049 -0.5048
  877MOL0     C18289   2.951   0.227   4.743  0.0071  0.3842 -0.7506
  877MOL0     C18290   2.822   0.149   4.743 -0.5230 -0.1298 -0.5480
  877MOL0     O18291   2.711   0.218   4.721 -0.2892  0.2146 -0.1088
  877MOL0     C18292   2.599   0.150   4.745  0.0273  0.2629  0.1615
  877MOL0     C18293   2.533   0.056   4.651  0.1389  0.5031 -0.5782
  877MOL0     C18294   2.420  -0.018   4.689  0.8406  0.0856  0.0224
  877MOL0     C18295   2.363  -0.007   4.814  0.6796  0.4570  0.2934
  877MOL0     O18296   2.250  -0.091   4.836 -0.6855 -0.1369  0.4333
  877MOL0     C18297   2.215  -0.084   4.974  0.4545 -0.1893 -0.5260
  877MOL0     C18298   2.081  -0.146   4.987  0.1729  0.9532  0.4677
  877MOL0     C18299   2.026  -0.147   5.136  0.7706  0.2371  0.5854
  877MOL0     C18300   1.891  -0.195   5.132  0.8142  0.2299  0.7298
  877MOL0     C18301   1.796  -0.093   5.063 -0.7728 -0.5521 -0.8340
  877MOL0     C18302   1.701  -0.165   4.965 -0.2692 -0.1594  1.1126
  877MOL0     C18303   1.620  -0.064   4.888 -0.0387  0.5987 -0.7156
  877MOL0     C18304   1.499  -0.131   4.832 -0.2176  0.5097 -0.1574
  877MOL0    Cl18305   1.550  -0.230   4.686  0.0912 -0.1160  0.1371
  877MOL0     C18306   2.427   0.085   4.902 -0.4878 -0.1237  0.4634
  877MOL0     C18307   2.541   0.163   4.874  0.1289 -0.0104 -0.4424
  877MOL0     O18308   2.826   0.025   4.766 -0.9114 -0.2230 -0.4370
  877MOL0     C18309   2.964   0.325   4.644  0.2636 -0.0355  0.6810
  877MOL0     C18310   3.073   0.410   4.647 -0.0772  0.3518  0.7510
  877MOL0     N18311   3.538   0.241   5.261 -0.4199 -0.5620 -0.0752
  877MOL0     N18312   3.586   0.248   5.382 -0.2952  0.7078  0.1403
  877MOL0     C18313   4.660   1.057   5.766 -0.2409 -0.5813  0.4482
  877MOL0     C18314   4.796   1.087   5.743  0.5588  0.3670  0.1311
  877MOL0     C18315   5.224   1.002   5.746 -0.2753 -0.1113 -0.2606
  877MOL0     C18316   5.308   0.980   5.851  0.0914  0.8060 -0.2508
  877MOL0     C18317   5.441   1.001   5.847 -0.5679 -0.4507 -0.5091
  877MOL0     C18318   5.497   1.065   5.734 -0.6327  0.1848 -0.1523
  877MOL0     O18319   5.638   1.095   5.726  0.2474 -0.0791  0.3505
  877MOL0     C18320   5.729   1.025   5.813  0.4421 -0.5173  0.5409
  877MOL0     C18321   5.868   1.072   5.764  1.2395 -0.3088 -0.0116
  877MOL0     C18322   5.970   0.994   5.846  0.0351 -0.0491 -0.7585
  877MOL0     C18323   6.112   1.027   5.806  0.1172 -0.1530 -0.1131
  877MOL0     C18324   6.204   0.964   5.907  0.2023 -0.0021 -0.3392
  877MOL0     C18325   6.268   0.907   5.988  0.2503  0.0461  0.3015
  877MOL0     C18326   5.410   1.112   5.631 -0.2926  0.5798  1.0362
  877MOL0     C18327   5.271   1.071   5.637  0.9641 -0.4872  0.2047
  877MOL0     H18328   4.865   0.820   5.536  0.5910 -0.5847  0.9454
  877MOL0     H18329   4.632   0.764   5.594 -1.6617  0.5785  0.3272
  877MOL0     H18330   4.440   0.762   5.619  0.2575 -1.3621 -0.3654
  877MOL0     H18331   4.455   0.718   5.792  0.5198  0.4783  0.4202
  877MOL0     H18332   4.238   0.827   5.838  0.7803  2.3907 -0.9890
  877MOL0     H18333   4.216   0.868   5.668 -2.4889  0.5688  1.3350
  877MOL0     H18334   4.243   0.626   5.603 -0.6964  2.2096 -0.2487
  877MOL0     H18335   4.246   0.588   5.781  1.7306  1.0584  0.7518
  877MOL0     H18336   4.034   0.604   5.812  2.1340  0.2970  0.5372
  877MOL0     H18337   4.011   0.743   5.696  2.0450  0.5976  2.1264
  877MOL0     H18338   4.000   0.604   5.516 -2.8924  1.1241  0.3714
  877MOL0     H18339   4.053   0.461   5.612  1.2717  0.1179  1.0508
  877MOL0     H18340   3.850   0.445   5.731 -0.7330 -0.1652 -0.7792
  877MOL0     H18341   3.799   0.601   5.692  0.3881 -0.8852  1.3991
  877MOL0     H18342   3.789   0.533   5.444 -2.0204 -1.8104 -3.1884
  877MOL0     H18343   3.841   0.378   5.500  0.3724  1.6469 -3.9515
  877MOL0     H18344   3.568   0.496   5.589 -1.5524 -1.0327 -1.3229
  877MOL0     H18345   3.644   0.327   5.607 -0.9421 -0.5742 -0.7762
  877MOL0     H18346   3.524   0.565   5.308 -0.9869  0.0977 -4.6471
  877MOL0     H18347   3.439   0.316   5.030 -0.7348  0.6430 -0.6316
  877MOL0     H18348   3.320   0.416   5.125  1.2168  4.9357 -0.1070
  877MOL0     H18349   3.573   0.537   4.985 -0.2749  0.3845  1.0562
  877MOL0     H18350   3.482   0.606   5.110  1.8908  1.4887 -0.8555
  877MOL0     H18351   3.367   0.682   4.908 -0.5296  1.1544  0.0408
  877MOL0     H18352   3.263   0.550   4.968  0.0785  1.7349  0.1722
  877MOL0     H18353   3.424   0.399   4.823  1.2767  0.7163  0.0236
  877MOL0     H18354   3.462   0.551   4.743 -0.7227  2.2215  2.4488
  877MOL0     H18355   3.247   0.280   4.897 -2.1313  1.7343  2.2647
  877MOL0     H18356   3.156   0.100   5.000  0.3935  0.5081 -2.4792
  877MOL0     H18357   2.979   0.114   5.004 -0.6123 -0.8309  0.1388
  877MOL0     H18358   3.060   0.006   4.884  2.1492 -2.8804  3.0251
  877MOL0     H18359   2.576   0.033   4.554  0.7401  0.4796 -0.3122
  877MOL0     H18360   2.381  -0.091   4.618  0.0340  1.3308 -0.8446
  877MOL0     H18361   2.286  -0.129   5.044  3.3180  0.8874 -2.5369
  877MOL0     H18362   2.195   0.017   5.011 -2.2024 -1.1522  0.9137
  877MOL0     H18363   2.024  -0.081   4.920  0.2922  2.0300  1.3742
  877MOL0     H18364   2.078  -0.246   4.943 -0.5212  1.8036 -1.5480
  877MOL0     H18365   2.033  -0.043   5.168 -1.6134  0.6152  0.0743
  877MOL0     H18366   2.095  -0.215   5.188  0.8061 -0.4890 -0.3709
  877MOL0     H18367   1.891  -0.288   5.074  2.0672  1.3779 -1.2244
  877MOL0     H18368   1.857  -0.214   5.234 -1.2262 -2.6601 -0.3351
  877MOL0     H18369   1.853  -0.015   5.012  0.0494  1.7263  3.2158
  877MOL0     H18370   1.740  -0.035   5.137  0.3383  2.1106 -1.9662
  877MOL0     H18371   1.759  -0.216   4.888  0.8993  0.6545  1.4282
  877MOL0     H18372   1.626  -0.235   5.004 -1.3273  0.0454 -0.4394
  877MOL0     H18373   1.677  -0.013   4.810 -1.0245 -0.0530 -1.8995
  877MOL0     H18374   1.587   0.007   4.964  1.0553 -0.9150  1.2974
  877MOL0     H18375   1.425  -0.058   4.797 -0.7807  0.4018  0.7739
  877MOL0     H18376   1.446  -0.190   4.907 -1.7155 -1.8836 -2.9137
  877MOL0     H18377   2.383   0.097   5.000 -1.6861  2.3229 -0.2909
  877MOL0     H18378   2.576   0.233   4.949 -0.5972  0.0072 -0.1146
  877MOL0     H18379   2.896   0.341   4.562  0.6627 -2.5668 -0.2153
  877MOL0     H18380   3.084   0.480   4.564  2.0052  0.6126  1.2163
  877MOL0     H18381   4.603   1.114   5.839 -0.8170 -0.8294  0.1952
  877MOL0     H18382   4.852   1.170   5.784  0.5434 -0.0867  1.1064
  877MOL0     H18383   5.276   0.921   5.936 -0.1803  1.2264 -0.0545
  877MOL0     H18384   5.500   0.965   5.931  1.0405  0.9761 -0.9736
  877MOL0     H18385   5.711   1.054   5.917  1.1865 -1.0924  0.8312
  877MOL0     H18386   5.725   0.917   5.796  1.7485 -0.3221 -1.3245
  877MOL0     H18387   5.871   1.176   5.798 -0.7936  0.0271 -0.7597
  877MOL0     H18388   5.867   1.050   5.657  0.3812  0.4220 -0.1676
  877MOL0     H18389   5.957   0.886   5.839 -2.4529  0.2579 -1.6374
  877MOL0     H18390   5.949   1.018   5.950  2.8527  1.8520 -0.5200
  877MOL0     H18391   6.126   1.136   5.801 -1.9548  0.3437  2.5976
  877MOL0     H18392   6.135   0.990   5.705  1.1911 -0.6253  0.2912
  877MOL0     H18393   6.330   0.858   6.061  0.7730  2.2258  1.3994
  877MOL0     H18394   5.439   1.180   5.551 -1.6234  1.2034  1.0621
  877MOL0     H18395   5.207   1.102   5.554  2.5002  0.0764 -0.8100
  878MOL0     O18396   9.949   1.414   2.897  0.0289  0.2851  0.2636
  878MOL0     C18397  10.054   1.391   2.836  1.4129 -0.0501  0.5514
  878MOL0     O18398  10.064   1.311   2.722  0.4727 -0.1833 -0.1857
  878MOL0     C18399   9.949   1.240   2.692  0.3933 -0.5671 -0.0655
  878MOL0     C18400   9.927   1.215   2.555  0.1449 -0.2490 -0.0838
  878MOL0     C18401   9.809   1.150   2.510  0.0776  0.1453  0.1529
  878MOL0     C18402   9.721   1.100   2.598  0.6869 -0.5271 -0.0336
  878MOL0     O18403   9.611   1.040   2.537 -0.3602  0.6313 -1.1488
  878MOL0     C18404   9.511   0.993   2.627 -0.9632 -0.2992  0.0078
  878MOL0     C18405   9.390   0.932   2.561  0.4467  0.3303 -0.0292
  878MOL0     C18406   9.430   0.824   2.461  0.0534  0.0723 -0.2764
  878MOL0     C18407   9.310   0.788   2.373  0.9900  0.5899  0.0417
  878MOL0     C18408   9.335   0.667   2.293  0.1148  0.4581 -0.6474
  878MOL0     C18409   9.207   0.634   2.213  1.2872 -0.8525 -0.3182
  878MOL0     C18410   9.233   0.501   2.142  0.4484 -0.4446 -0.6900
  878MOL0     C18411   9.102   0.414   2.136  0.0771 -0.3266  0.1357
  878MOL0     N18412   8.991   0.491   2.077  0.0138 -0.9291  0.1764
  878MOL0     C18413   8.968   0.503   1.944  0.0739  0.1176 -0.9545
  878MOL0     C18414   8.843   0.533   1.928 -0.1644  0.6314 -0.0653
  878MOL0     C18415   8.740   0.537   1.815  0.8351 -0.0160 -0.7586
  878MOL0     C18416   8.602   0.529   1.876  0.5859 -0.0031  1.2817
  878MOL0     C18417   8.496   0.511   1.771 -0.1452  0.2934 -0.6076
  878MOL0     C18418   8.358   0.572   1.819  0.1020  0.3535 -0.8025
  878MOL0     O18419   8.253   0.496   1.758  0.0979  0.0158 -0.4805
  878MOL0     C18420   8.140   0.558   1.728  0.9002 -0.2566 -0.5678
  878MOL0     C18421   8.099   0.688   1.764  0.1896 -0.5434  1.0832
  878MOL0     C18422   7.977   0.743   1.708 -1.0814  0.1393  0.3447
  878MOL0     C18423   7.943   0.886   1.747  0.3124  0.0459 -0.1658
  878MOL0     C18424   7.904   0.669   1.617 -0.2825 -0.2153 -0.6905
  878MOL0     C18425   7.782   0.728   1.560  0.3949  0.6675  0.3277
  878MOL0     O18426   7.693   0.795   1.643  0.3234 -0.2497  0.1932
  878MOL0     C18427   7.574   0.840   1.600 -0.2874  0.2477  0.5130
  878MOL0     C18428   7.449   0.783   1.629 -0.1592  0.2311  0.0438
  878MOL0     C18429   7.332   0.826   1.568  0.3036  0.0144 -0.0630
  878MOL0     C18430   7.330   0.929   1.480  0.3240  0.6867 -0.7216
  878MOL0     O18431   7.209   0.954   1.412  0.4485 -0.1473  0.2830
  878MOL0     C18432   7.238   0.967   1.271 -0.3427 -0.2892 -0.4718
  878MOL0     C18433   7.115   0.970   1.189  0.4800  0.2125 -1.6192
  878MOL0     C18434   7.035   0.841   1.211  0.3525  0.5372  0.2037
  878MOL0     C18435   6.906   0.847   1.134  0.9686 -0.2793 -0.0313
  878MOL0     C18436   6.823   0.724   1.132  0.5263  0.2812 -0.5097
  878MOL0     C18437   6.716   0.731   1.021 -0.0323  0.1332  0.0773
  878MOL0     C18438   6.672   0.599   0.952 -0.0966 -0.4107  0.1330
  878MOL0     C18439   6.662   0.628   0.806 -0.7935  1.0267 -0.4951
  878MOL0    Cl18440   6.819   0.670   0.735  0.0432 -0.2040 -0.8746
  878MOL0     C18441   7.443   1.003   1.461 -0.4392  0.3854  0.1772
  878MOL0     C18442   7.565   0.956   1.511 -0.3005  0.4583 -0.4982
  878MOL0     O18443   7.767   0.699   1.442  0.8767 -0.2770  0.2947
  878MOL0     C18444   7.947   0.542   1.577  0.5203  0.2380 -0.0863
  878MOL0     C18445   8.060   0.489   1.638  0.4041 -0.1438 -0.1000
  878MOL0     N18446   8.790   0.552   2.055 -0.3664 -0.7095  0.6288
  878MOL0     N18447   8.879   0.529   2.149 -0.6968  0.0048  0.2706
  878MOL0     C18448   9.742   1.111   2.734 -0.3749 -0.3908 -0.9638
  878MOL0     C18449   9.858   1.176   2.778 -0.3520  0.1831 -0.3909
  878MOL0     C18450  10.170   1.458   2.891  0.2679 -0.3231 -0.0758
  878MOL0     C18451  10.297   1.422   2.871  0.3827  0.0792  0.3522
  878MOL0     C18452  10.407   1.479   2.939 -1.0485  0.0151  0.3741
  878MOL0     C18453  10.385   1.585   3.028  0.7850 -0.0936 -0.1863
  878MOL0     O18454  10.474   1.672   3.079 -0.0962 -0.0172 -0.6023
  878MOL0     C18455  10.611   1.663   3.048  0.0947  0.1492 -0.0425
  878MOL0     C18456  10.675   1.794   3.104 -0.2281  0.6075  0.0543
  878MOL0     C18457  10.639   1.933   3.045 -1.6138  0.2363 -0.1577
  878MOL0     C18458  10.634   1.941   2.885 -0.4869 -0.2362 -0.3725
  878MOL0     C18459  10.575   2.067   2.844  0.6541  0.2274  0.4714
  878MOL0     C18460  10.508   2.169   2.825 -0.2307 -0.5244  0.4617
  878MOL0     C18461  10.255   1.614   3.063  0.7672 -0.0866 -0.0902
  878MOL0     C18462  10.148   1.551   2.994  0.3192 -0.2734  0.0694
  878MOL0     H18463  10.000   1.261   2.489 -2.3503  1.8803 -1.5710
  878MOL0     H18464   9.779   1.134   2.406 -1.6964  0.2809  0.6117
  878MOL0     H18465   9.546   0.917   2.697 -1.5271 -0.9001 -0.3511
  878MOL0     H18466   9.474   1.085   2.675 -4.7146 -0.1811 -2.6032
  878MOL0     H18467   9.330   0.894   2.644 -1.0641  2.8575  0.1370
  878MOL0     H18468   9.322   1.004   2.514 -1.3156 -0.5438  1.0893
  878MOL0     H18469   9.521   0.843   2.402  1.3953  0.7758  1.9034
  878MOL0     H18470   9.453   0.741   2.528 -1.8562 -1.9712 -2.0120
  878MOL0     H18471   9.215   0.777   2.425  1.1455 -1.2511 -0.0199
  878MOL0     H18472   9.296   0.875   2.308  1.4672  2.0348  1.7861
  878MOL0     H18473   9.423   0.684   2.229  1.0707  0.4086  0.6077
  878MOL0     H18474   9.369   0.583   2.355 -1.5020 -1.0877 -1.7700
  878MOL0     H18475   9.121   0.637   2.280  0.4087  1.0370 -1.4480
  878MOL0     H18476   9.196   0.714   2.139 -0.1116 -0.8309 -0.1008
  878MOL0     H18477   9.271   0.515   2.040  1.4635 -1.1757 -0.4294
  878MOL0     H18478   9.311   0.442   2.191  1.1110  0.5632 -0.5006
  878MOL0     H18479   9.059   0.383   2.232  0.2032  1.8270  0.9390
  878MOL0     H18480   9.116   0.323   2.077 -5.0684  0.0858 -2.1768
  878MOL0     H18481   9.047   0.489   1.872 -1.3538  1.3111 -2.8550
  878MOL0     H18482   8.752   0.625   1.752  1.2241  1.5829  1.4362
  878MOL0     H18483   8.754   0.444   1.758 -0.4440 -0.2835 -0.6824
  878MOL0     H18484   8.581   0.623   1.927 -3.5252 -1.1233  2.0499
  878MOL0     H18485   8.597   0.441   1.940 -2.6224 -0.9355 -0.0281
  878MOL0     H18486   8.480   0.407   1.742 -1.8403  1.0053 -2.4790
  878MOL0     H18487   8.525   0.556   1.676 -1.5097  1.4867 -0.5000
  878MOL0     H18488   8.344   0.671   1.776 -0.2268  1.8444  2.3998
  878MOL0     H18489   8.342   0.569   1.927  1.4325  3.4460 -0.4267
  878MOL0     H18490   8.147   0.756   1.835  2.1667 -1.1271  0.3863
  878MOL0     H18491   7.875   0.890   1.833  1.0487  3.3809  0.4194
  878MOL0     H18492   8.032   0.940   1.781  0.2250 -0.2984  0.6303
  878MOL0     H18493   7.899   0.941   1.663  1.5291  0.3778 -0.6180
  878MOL0     H18494   7.451   0.690   1.685  0.9800 -0.1887 -0.6564
  878MOL0     H18495   7.245   0.765   1.589  1.1718 -0.1058  4.1049
  878MOL0     H18496   7.295   1.057   1.242 -2.3472  0.8992 -0.8783
  878MOL0     H18497   7.300   0.882   1.240  1.9214  0.2555  2.2002
  878MOL0     H18498   7.047   1.051   1.219 -0.7589 -1.9453  2.0113
  878MOL0     H18499   7.137   0.980   1.082 -0.7259 -1.2300 -2.0374
  878MOL0     H18500   7.012   0.833   1.318 -1.9103 -1.6582 -0.3485
  878MOL0     H18501   7.099   0.758   1.179  1.7845  1.8226 -0.3969
  878MOL0     H18502   6.843   0.930   1.168 -1.7477 -2.4399  0.6661
  878MOL0     H18503   6.937   0.863   1.031  2.2581  0.4266  0.4429
  878MOL0     H18504   6.774   0.711   1.230 -1.1618  0.8242 -1.2413
  878MOL0     H18505   6.877   0.630   1.116 -0.0892 -0.0828 -0.5097
  878MOL0     H18506   6.627   0.764   1.076  0.9893 -1.6616  3.0239
  878MOL0     H18507   6.726   0.814   0.950 -1.5855 -1.6087 -2.3302
  878MOL0     H18508   6.572   0.568   0.983  0.0545 -0.7445  0.2815
  878MOL0     H18509   6.744   0.519   0.971  1.3831  0.6344 -0.8125
  878MOL0     H18510   6.596   0.714   0.794  0.1484  1.5810 -1.9391
  878MOL0     H18511   6.613   0.552   0.743 -0.3456  0.5239 -0.2419
  878MOL0     H18512   7.452   1.086   1.392 -2.3717 -0.2911 -0.9587
  878MOL0     H18513   7.661   1.003   1.492  1.4090 -2.8531 -0.7394
  878MOL0     H18514   7.881   0.484   1.512 -2.2985  2.0364  0.9836
  878MOL0     H18515   8.107   0.399   1.601  0.2923 -1.6887  3.1774
  878MOL0     H18516   9.665   1.091   2.808  1.0743  0.1392  0.7482
  878MOL0     H18517   9.867   1.178   2.886 -0.2140  0.9901 -0.4155
  878MOL0     H18518  10.316   1.338   2.805 -0.0551  0.6587 -0.5283
  878MOL0     H18519  10.510   1.455   2.914 -0.9179  1.9384 -1.1642
  878MOL0     H18520  10.664   1.577   3.091  1.9494  1.0177 -0.4683
  878MOL0     H18521  10.627   1.655   2.940 -1.9654  0.9931 -0.4524
  878MOL0     H18522  10.784   1.798   3.103 -0.2307  2.2961  1.5863
  878MOL0     H18523  10.650   1.781   3.210 -1.7156 -1.0111 -0.4329
  878MOL0     H18524  10.713   2.011   3.068  0.7587 -1.8570 -0.3173
  878MOL0     H18525  10.546   1.962   3.094 -1.4383  0.3254  0.1314
  878MOL0     H18526  10.571   1.859   2.849  1.1792 -0.3025 -3.4897
  878MOL0     H18527  10.732   1.923   2.839 -1.9071 -1.5150 -3.1360
  878MOL0     H18528  10.462   2.263   2.800 -0.1876 -0.9217 -1.2099
  878MOL0     H18529  10.224   1.686   3.138 -2.4023 -0.0969 -1.2360
  878MOL0     H18530  10.051   1.576   3.036  0.6946  1.1514  0.1515
  879MOL0     O18531  11.000   0.003   6.763 -0.7619 -0.0220  0.1609
  879MOL0     C18532  11.095   0.002   6.844  0.4190 -0.3718 -0.0581
  879MOL0     O18533  11.083   0.011   6.968  0.1484  0.1563 -0.0634
  879MOL0     C18534  10.958   0.011   7.020 -0.3734 -0.0174  0.3787
  879MOL0     C18535  10.897   0.134   7.061 -0.5251 -0.9091 -0.1527
  879MOL0     C18536  10.773   0.137   7.120 -0.8668  0.3564  0.4560
  879MOL0     C18537  10.702   0.017   7.130 -0.3155  0.9941 -0.9820
  879MOL0     O18538  10.575   0.022   7.175 -0.0097  0.6750  0.1494
  879MOL0     C18539  10.507  -0.100   7.181  0.4348  0.2566 -0.3434
  879MOL0     C18540  10.354  -0.072   7.200 -0.3225 -1.2506  0.4795
  879MOL0     C18541  10.262  -0.182   7.143 -0.4041  0.0743  0.1439
  879MOL0     C18542  10.115  -0.150   7.182 -0.4797 -0.8206 -0.5655
  879MOL0     C18543  10.021  -0.244   7.105  0.4639  0.3990  1.1135
  879MOL0     C18544   9.871  -0.201   7.154 -0.4975  0.3858 -0.2693
  879MOL0     C18545   9.773  -0.295   7.085 -0.6599  0.7213  0.6759
  879MOL0     C18546   9.622  -0.256   7.070 -0.2800  0.8854 -0.7294
  879MOL0     N18547   9.564  -0.258   7.208  0.0455 -0.6119  0.1948
  879MOL0     C18548   9.546  -0.374   7.272 -0.2347 -0.3325  0.3603
  879MOL0     C18549   9.476  -0.321   7.380 -0.1072  1.4786  0.3345
  879MOL0     C18550   9.422  -0.407   7.491  0.0891 -0.4545  0.4884
  879MOL0     C18551   9.302  -0.331   7.555  0.3486 -0.7837 -0.1932
  879MOL0     C18552   9.182  -0.297   7.457 -0.6653 -0.3039 -0.4265
  879MOL0     C18553   9.125  -0.418   7.395 -0.3353 -0.5628 -1.2238
  879MOL0     O18554   9.015  -0.375   7.315  0.1277  0.9114  1.1000
  879MOL0     C18555   8.931  -0.470   7.259 -0.4017 -0.8400  0.0866
  879MOL0     C18556   8.967  -0.602   7.226  0.2273 -0.9241 -0.4219
  879MOL0     C18557   8.875  -0.687   7.162 -0.2498 -0.6045  0.2287
  879MOL0     C18558   8.936  -0.811   7.107 -0.4948 -1.0571 -0.6862
  879MOL0     C18559   8.743  -0.645   7.121 -0.7890  0.3214  0.4178
  879MOL0     C18560   8.640  -0.731   7.056  0.1393  0.7725 -0.5642
  879MOL0     O18561   8.532  -0.668   6.998  0.2350 -0.3332 -0.0767
  879MOL0     C18562   8.427  -0.743   6.934  0.6172  0.2469  0.2783
  879MOL0     C18563   8.310  -0.675   6.921  0.8235  0.5267  0.3180
  879MOL0     C18564   8.203  -0.735   6.854  0.7446 -0.3081 -0.2581
  879MOL0     C18565   8.208  -0.868   6.807 -0.0999  0.5245 -0.0656
  879MOL0     O18566   8.091  -0.925   6.761 -0.3424  0.6963 -0.2286
  879MOL0     C18567   8.097  -1.064   6.717  0.1794 -1.4329 -0.4485
  879MOL0     C18568   7.956  -1.107   6.664 -0.0917 -0.7134 -0.4701
  879MOL0     C18569   7.847  -1.101   6.777 -0.0995  0.9794 -0.5527
  879MOL0     C18570   7.711  -1.140   6.729  0.3039  0.4733 -0.0660
  879MOL0     C18571   7.604  -1.154   6.837  0.6425  0.1396 -0.9913
  879MOL0     C18572   7.499  -1.251   6.805 -0.5746 -0.1164 -0.5205
  879MOL0     C18573   7.408  -1.233   6.676 -0.6390 -0.1032  0.2687
  879MOL0     C18574   7.296  -1.331   6.657 -0.3373 -0.0361 -0.2463
  879MOL0    Cl18575   7.186  -1.345   6.794  0.1753 -0.2788 -0.0256
  879MOL0     C18576   8.331  -0.933   6.829  1.0244 -0.5057  1.4096
  879MOL0     C18577   8.439  -0.867   6.879 -0.6794  0.0087 -0.1333
  879MOL0     O18578   8.642  -0.852   7.078 -0.2727 -0.8354 -0.0052
  879MOL0     C18579   8.710  -0.513   7.165  0.2830  0.0329  0.0987
  879MOL0     C18580   8.802  -0.430   7.228 -0.1321 -0.3524  0.6224
  879MOL0     N18581   9.466  -0.190   7.373 -0.4701 -0.7478  0.2838
  879MOL0     N18582   9.520  -0.149   7.269 -0.2279 -0.5131 -0.4146
  879MOL0     C18583  10.765  -0.104   7.099 -0.1590 -0.1218  0.2379
  879MOL0     C18584  10.897  -0.107   7.042  0.0441  0.3636  0.1611
  879MOL0     C18585  11.230   0.002   6.791 -0.3331 -0.3370  0.0036
  879MOL0     C18586  11.350   0.032   6.870  0.2792 -0.6607  0.1417
  879MOL0     C18587  11.478   0.024   6.801  0.1806  0.1094  0.5354
  879MOL0     C18588  11.490  -0.009   6.669 -0.2984  0.2914 -0.9772
  879MOL0     O18589  11.612  -0.021   6.621  0.1389 -0.5080 -0.1812
  879MOL0     C18590  11.677  -0.145   6.651  0.3720 -0.0822  0.0670
  879MOL0     C18591  11.808  -0.160   6.588 -0.0535  0.3563  0.8179
  879MOL0     C18592  11.922  -0.064   6.636  0.2025 -0.1246 -0.0870
  879MOL0     C18593  12.030  -0.043   6.529 -0.3461  0.2003  0.8593
  879MOL0     C18594  12.147  -0.136   6.550  0.7602 -0.7117  0.1906
  879MOL0     C18595  12.232  -0.212   6.590 -0.4899 -0.2868  0.2493
  879MOL0     C18596  11.379  -0.040   6.603 -0.1656  0.0722  0.4907
  879MOL0     C18597  11.251  -0.033   6.657  0.3513 -0.2163  0.9191
  879MOL0     H18598  10.939   0.234   7.052  1.9039 -1.7538  0.9229
  879MOL0     H18599  10.730   0.231   7.151 -2.3896  0.5850 -2.0393
  879MOL0     H18600  10.515  -0.160   7.089 -1.1285 -0.7601  0.1275
  879MOL0     H18601  10.546  -0.165   7.260  0.4162  1.0397  0.3281
  879MOL0     H18602  10.335  -0.049   7.305  1.5468  0.9566  0.4285
  879MOL0     H18603  10.339   0.023   7.147  0.1746  0.0222  2.4887
  879MOL0     H18604  10.261  -0.171   7.034 -0.9527 -0.4308  0.0908
  879MOL0     H18605  10.290  -0.280   7.183 -0.3564  0.3756  0.8682
  879MOL0     H18606  10.104  -0.154   7.291 -1.3043  1.3590 -0.5193
  879MOL0     H18607  10.088  -0.046   7.162 -0.6483 -0.9855 -1.2306
  879MOL0     H18608  10.027  -0.224   6.998 -0.4054 -3.0535  0.2801
  879MOL0     H18609  10.035  -0.351   7.126  1.2191  0.0250 -1.0861
  879MOL0     H18610   9.845  -0.223   7.257 -0.5378 -0.6336 -0.4901
  879MOL0     H18611   9.842  -0.103   7.115 -0.4277  1.0686  1.3371
  879MOL0     H18612   9.808  -0.317   6.984 -0.3315  0.4409  0.8503
  879MOL0     H18613   9.785  -0.393   7.132  0.4634  0.7741  0.5175
  879MOL0     H18614   9.568  -0.326   7.006 -0.0647  0.1614 -0.1272
  879MOL0     H18615   9.614  -0.154   7.029  1.3585  1.8028  1.0669
  879MOL0     H18616   9.558  -0.473   7.229 -0.3659 -0.5778  0.8765
  879MOL0     H18617   9.403  -0.507   7.452  1.3913  0.5175 -2.9928
  879MOL0     H18618   9.501  -0.409   7.567 -0.6793  1.4196  1.4092
  879MOL0     H18619   9.342  -0.238   7.597 -0.6301  0.8194 -2.6315
  879MOL0     H18620   9.269  -0.392   7.640 -0.5161  0.0664  0.0971
  879MOL0     H18621   9.219  -0.220   7.388  4.0132 -1.2653  0.6175
  879MOL0     H18622   9.106  -0.251   7.521  0.3005 -0.2288  0.7026
  879MOL0     H18623   9.088  -0.492   7.466 -1.1471 -1.7670 -2.8455
  879MOL0     H18624   9.210  -0.465   7.343  0.8699 -1.3720  1.3187
  879MOL0     H18625   9.068  -0.633   7.251  1.1900  1.4539 -1.0714
  879MOL0     H18626   8.893  -0.893   7.167 -3.0881  0.4957 -0.2611
  879MOL0     H18627   8.919  -0.827   7.001 -1.5718 -1.2262 -0.5026
  879MOL0     H18628   9.043  -0.814   7.129 -0.7032  3.3875  2.1244
  879MOL0     H18629   8.297  -0.577   6.966  2.0471  1.8257 -1.9737
  879MOL0     H18630   8.111  -0.677   6.852  2.7523  3.3930  2.4888
  879MOL0     H18631   8.178  -1.067   6.644 -0.0077 -2.3016 -0.6290
  879MOL0     H18632   8.109  -1.125   6.807 -2.0132 -1.1262  0.1100
  879MOL0     H18633   7.918  -1.047   6.580  0.2564 -1.9533 -1.5343
  879MOL0     H18634   7.950  -1.212   6.635  0.4883 -1.0931  0.7388
  879MOL0     H18635   7.847  -1.007   6.833  1.3130  0.3950  0.5139
  879MOL0     H18636   7.880  -1.178   6.847  0.0665  3.8955  2.8539
  879MOL0     H18637   7.681  -1.069   6.650 -0.2416 -1.8075 -2.0170
  879MOL0     H18638   7.721  -1.239   6.684 -0.4332  0.4166 -0.1104
  879MOL0     H18639   7.562  -1.060   6.876 -2.1738 -1.4815  0.2302
  879MOL0     H18640   7.646  -1.207   6.923 -0.8793 -1.1869 -1.0050
  879MOL0     H18641   7.539  -1.352   6.811 -2.2979 -0.7640  2.2165
  879MOL0     H18642   7.429  -1.255   6.889 -1.0923  1.2738 -0.8607
  879MOL0     H18643   7.473  -1.256   6.591 -1.1962 -2.0988  0.3330
  879MOL0     H18644   7.365  -1.134   6.657 -2.1964 -0.9339 -0.7162
  879MOL0     H18645   7.342  -1.429   6.643 -0.9645 -0.3250 -0.3290
  879MOL0     H18646   7.250  -1.299   6.563  3.2383 -0.0110 -2.1859
  879MOL0     H18647   8.345  -1.036   6.797 -2.8793 -0.6588 -0.3416
  879MOL0     H18648   8.531  -0.925   6.874 -1.1815 -0.7408 -1.3486
  879MOL0     H18649   8.611  -0.469   7.153  0.5715  1.1934  1.6941
  879MOL0     H18650   8.779  -0.327   7.255 -2.2146 -0.6153  0.0766
  879MOL0     H18651  10.721  -0.203   7.104 -1.0243  0.2272 -0.2783
  879MOL0     H18652  10.932  -0.199   6.996  2.8549  0.9852  0.8485
  879MOL0     H18653  11.347   0.067   6.973 -0.1444 -3.7709  1.2782
  879MOL0     H18654  11.563   0.041   6.867  1.0939 -2.0746 -0.0148
  879MOL0     H18655  11.690  -0.149   6.760 -1.2204 -1.2283  0.2450
  879MOL0     H18656  11.609  -0.228   6.630  0.8103 -0.3706 -0.2235
  879MOL0     H18657  11.799  -0.159   6.479 -0.7051 -1.7988  0.8025
  879MOL0     H18658  11.842  -0.260   6.614 -1.3014  0.0160  1.2022
  879MOL0     H18659  11.968  -0.108   6.726 -1.8035  1.4783  1.8214
  879MOL0     H18660  11.881   0.032   6.667  0.6936  0.3334 -0.8118
  879MOL0     H18661  12.076   0.056   6.540 -0.4953  0.3009  0.6045
  879MOL0     H18662  12.002  -0.036   6.424  1.9352  1.1873  0.2751
  879MOL0     H18663  12.312  -0.276   6.621  0.0214 -0.0298 -0.5281
  879MOL0     H18664  11.386  -0.071   6.499  2.4698  2.6718 -0.2185
  879MOL0     H18665  11.167  -0.054   6.590  0.2064 -3.7875  2.0052
  880MOL0     O18666   5.332   1.498   0.849 -0.1941  0.1493 -0.2172
  880MOL0     C18667   5.402   1.470   0.946 -0.4805 -0.6033  0.1098
  880MOL0     O18668   5.358   1.450   1.082  0.0731 -0.0314 -0.2253
  880MOL0     C18669   5.222   1.460   1.096  1.2684 -0.2246  0.5916
  880MOL0     C18670   5.135   1.358   1.050 -0.2829  0.7016  0.6454
  880MOL0     C18671   4.999   1.375   1.049  0.1585  0.8156 -0.2577
  880MOL0     C18672   4.940   1.487   1.105 -0.0093  0.5171 -0.7534
  880MOL0     O18673   4.802   1.488   1.094 -0.5572  0.5192 -0.6828
  880MOL0     C18674   4.735   1.556   1.195  0.7774  0.4701  0.3044
  880MOL0     C18675   4.585   1.551   1.159 -0.9337 -0.1353  0.9072
  880MOL0     C18676   4.490   1.562   1.285 -0.2041  0.2827 -0.0931
  880MOL0     C18677   4.351   1.533   1.234  0.1071  0.1736  0.0011
  880MOL0     C18678   4.239   1.559   1.338  0.1112  0.0792  0.4157
  880MOL0     C18679   4.109   1.601   1.267 -0.5292  0.1985  0.1145
  880MOL0     C18680   3.985   1.574   1.358  0.4438 -0.9065 -0.1423
  880MOL0     C18681   3.852   1.583   1.279 -0.4148  0.0473 -1.0062
  880MOL0     N18682   3.733   1.531   1.343  1.0986  0.1502  0.3935
  880MOL0     C18683   3.700   1.520   1.477 -1.2813  0.4578 -0.1099
  880MOL0     C18684   3.575   1.464   1.472  0.1043 -0.3900 -0.5309
  880MOL0     C18685   3.512   1.431   1.602  0.0157  0.2665  0.5273
  880MOL0     C18686   3.442   1.549   1.678 -0.3148  0.7067  0.8745
  880MOL0     C18687   3.315   1.594   1.603 -0.3485  0.3124  0.4492
  880MOL0     C18688   3.217   1.481   1.566 -0.0769 -0.0558  0.1627
  880MOL0     O18689   3.088   1.536   1.526  0.3043 -0.1275  0.5517
  880MOL0     C18690   3.062   1.552   1.389 -0.7080  0.2719 -0.0920
  880MOL0     C18691   3.157   1.562   1.285 -0.1387 -0.2943 -0.0532
  880MOL0     C18692   3.121   1.584   1.149 -0.7010 -0.6090  0.3386
  880MOL0     C18693   3.230   1.604   1.050  0.3989  0.0459 -0.3079
  880MOL0     C18694   2.982   1.588   1.105 -0.5654  0.5998 -0.2877
  880MOL0     C18695   2.930   1.600   0.970  0.1724  0.0383 -0.2708
  880MOL0     O18696   2.796   1.620   0.953  0.8016  0.2076 -0.1859
  880MOL0     C18697   2.730   1.629   0.827 -0.3307  0.2098 -0.0410
  880MOL0     C18698   2.597   1.664   0.847  0.7635 -0.0036  0.9826
  880MOL0     C18699   2.514   1.702   0.744 -0.0335 -0.5905  0.0670
  880MOL0     C18700   2.564   1.701   0.603  0.3115 -0.5593 -1.1657
  880MOL0     O18701   2.495   1.740   0.490 -0.5519 -0.4552 -0.1570
  880MOL0     C18702   2.352   1.752   0.484 -0.5154 -0.3804 -0.5166
  880MOL0     C18703   2.305   1.770   0.340  1.1570 -0.5700 -0.4864
  880MOL0     C18704   2.148   1.805   0.334 -0.0405  0.9555 -0.7595
  880MOL0     C18705   2.049   1.684   0.367 -0.0700 -0.6663 -0.4882
  880MOL0     C18706   1.910   1.730   0.339  0.5014  0.4284  0.1212
  880MOL0     C18707   1.809   1.616   0.353 -0.1468 -0.8280  0.2559
  880MOL0     C18708   1.670   1.686   0.322  0.1083 -0.7994  0.0997
  880MOL0     C18709   1.562   1.590   0.351  0.3660 -0.2148  0.1100
  880MOL0    Cl18710   1.544   1.459   0.227 -0.5418 -0.0404 -0.1810
  880MOL0     C18711   2.693   1.665   0.589 -0.4658  0.1198 -0.7795
  880MOL0     C18712   2.780   1.625   0.698  0.6480 -0.6750  0.3381
  880MOL0     O18713   3.010   1.600   0.878  0.7679 -0.4303  0.0949
  880MOL0     C18714   2.886   1.566   1.212  0.0978 -0.7622 -0.5389
  880MOL0     C18715   2.930   1.559   1.346 -0.3011 -0.0426 -0.4075
  880MOL0     N18716   3.540   1.444   1.337 -0.1121 -0.3183  0.1418
  880MOL0     N18717   3.635   1.469   1.266  0.3600 -0.3866 -0.0573
  880MOL0     C18718   5.013   1.592   1.170 -0.1709 -0.5417 -0.4229
  880MOL0     C18719   5.161   1.575   1.158  0.2159  0.5815 -0.3202
  880MOL0     C18720   5.550   1.440   0.927  0.7952 -0.7171  0.4964
  880MOL0     C18721   5.641   1.436   1.032  0.2056  0.1714 -0.5650
  880MOL0     C18722   5.782   1.424   1.012 -0.0802 -0.2069 -0.6022
  880MOL0     C18723   5.837   1.426   0.878  0.1171  0.7291  0.5619
  880MOL0     O18724   5.966   1.410   0.844  0.3588 -0.3057 -0.2993
  880MOL0     C18725   6.066   1.448   0.932 -0.0216  0.0269  0.6821
  880MOL0     C18726   6.101   1.318   1.007  0.3062  0.4375  0.9828
  880MOL0     C18727   6.197   1.222   0.935 -0.1143 -0.2118 -0.4758
  880MOL0     C18728   6.241   1.099   1.015  0.2397  0.4955 -0.7129
  880MOL0     C18729   6.319   0.998   0.928 -0.0296 -0.0525  0.5770
  880MOL0     C18730   6.390   0.925   0.857 -0.1942  0.4482 -0.3854
  880MOL0     C18731   5.742   1.428   0.775 -0.6626  0.4133 -0.2041
  880MOL0     C18732   5.603   1.432   0.799 -1.0341  0.2602  0.3155
  880MOL0     H18733   5.192   1.280   1.000  2.3901  2.5506  0.6282
  880MOL0     H18734   4.935   1.308   0.992 -0.0052 -0.4165  1.3184
  880MOL0     H18735   4.744   1.499   1.288  1.4371 -0.9048 -0.5785
  880MOL0     H18736   4.776   1.657   1.206  2.5907 -0.1660 -0.1720
  880MOL0     H18737   4.566   1.639   1.096  1.6746 -0.6598 -0.7742
  880MOL0     H18738   4.570   1.466   1.092  0.6142  1.4601 -1.6511
  880MOL0     H18739   4.514   1.495   1.368 -0.3548 -1.3810 -1.3355
  880MOL0     H18740   4.490   1.666   1.320 -0.0934  0.3595 -0.3191
  880MOL0     H18741   4.331   1.595   1.147 -1.1250  2.9183  2.0791
  880MOL0     H18742   4.341   1.432   1.193 -2.6415  0.0941  0.6760
  880MOL0     H18743   4.236   1.467   1.397 -0.4715 -0.0978  0.1169
  880MOL0     H18744   4.267   1.638   1.409 -0.2493  2.2669 -1.7461
  880MOL0     H18745   4.124   1.705   1.236  2.2932  0.5544  2.2754
  880MOL0     H18746   4.101   1.553   1.169  1.8500  2.4520 -1.3220
  880MOL0     H18747   3.995   1.473   1.397  3.3236 -0.5672  0.2186
  880MOL0     H18748   3.985   1.649   1.438 -1.8736  0.6762 -1.5092
  880MOL0     H18749   3.867   1.533   1.183  1.9511 -1.1241 -0.1062
  880MOL0     H18750   3.834   1.684   1.241 -3.7317  0.0173  0.1456
  880MOL0     H18751   3.758   1.540   1.567  1.6395 -1.2470 -1.4700
  880MOL0     H18752   3.446   1.346   1.582  0.2788  0.1049  0.3413
  880MOL0     H18753   3.592   1.386   1.662  3.0521 -1.0370 -3.9991
  880MOL0     H18754   3.508   1.634   1.698 -1.1938  1.1742  1.8582
  880MOL0     H18755   3.400   1.505   1.768 -2.4746  0.1126 -0.3493
  880MOL0     H18756   3.346   1.646   1.512 -0.0189 -0.5289  0.0756
  880MOL0     H18757   3.259   1.664   1.666 -0.4230  0.4864  0.1907
  880MOL0     H18758   3.212   1.402   1.641  1.4853 -1.2960 -0.9660
  880MOL0     H18759   3.256   1.417   1.487 -1.2722 -0.8904  0.2027
  880MOL0     H18760   3.256   1.574   1.329 -0.4074 -0.0142  0.4996
  880MOL0     H18761   3.245   1.701   1.001  1.1834 -0.7660 -1.7142
  880MOL0     H18762   3.324   1.587   1.104 -0.3557 -2.9848  0.2204
  880MOL0     H18763   3.215   1.521   0.981 -1.7192 -0.0467  0.1771
  880MOL0     H18764   2.565   1.666   0.950 -1.9713 -0.3146  0.2004
  880MOL0     H18765   2.415   1.746   0.753  0.7641  1.5047 -0.8450
  880MOL0     H18766   2.309   1.660   0.526  1.9025 -2.3471 -2.0388
  880MOL0     H18767   2.324   1.838   0.545  1.9565 -0.2583  0.5719
  880MOL0     H18768   2.355   1.856   0.294 -0.3727  0.7974  0.2894
  880MOL0     H18769   2.320   1.673   0.293  1.3514  0.3362 -2.3970
  880MOL0     H18770   2.117   1.834   0.233  0.7223 -2.2902 -2.0551
  880MOL0     H18771   2.129   1.874   0.417  4.0921  0.3133  0.9390
  880MOL0     H18772   2.066   1.610   0.288  1.2407 -0.9318  0.0125
  880MOL0     H18773   2.072   1.647   0.468  1.7753  0.9177 -0.2590
  880MOL0     H18774   1.911   1.774   0.239 -2.1696  3.8655  1.3878
  880MOL0     H18775   1.880   1.808   0.410 -2.1218 -0.1113 -0.3082
  880MOL0     H18776   1.816   1.550   0.266 -0.9344 -0.1845 -0.3045
  880MOL0     H18777   1.816   1.568   0.451  0.2156  2.3779  1.9285
  880MOL0     H18778   1.657   1.712   0.216 -1.8151  1.5885  0.8459
  880MOL0     H18779   1.658   1.777   0.380  1.6572  0.9821 -2.1923
  880MOL0     H18780   1.465   1.638   0.367  0.8230  0.4734  0.9312
  880MOL0     H18781   1.596   1.532   0.438  2.8479  2.4515  1.0819
  880MOL0     H18782   2.723   1.654   0.485 -2.2137 -2.8641 -1.0898
  880MOL0     H18783   2.884   1.605   0.675  0.6211  0.2096 -0.6265
  880MOL0     H18784   2.779   1.554   1.202 -0.4554  1.8911  1.2139
  880MOL0     H18785   2.859   1.544   1.427 -0.3625  0.8173 -0.2943
  880MOL0     H18786   4.978   1.681   1.222  1.6320 -1.2487  2.1937
  880MOL0     H18787   5.223   1.651   1.204 -0.1109  0.4943  0.2803
  880MOL0     H18788   5.597   1.432   1.131 -1.3151  0.3996 -1.2080
  880MOL0     H18789   5.840   1.420   1.104 -0.0410 -1.2810 -0.6658
  880MOL0     H18790   6.156   1.475   0.876  0.3246 -1.7835  0.3075
  880MOL0     H18791   6.043   1.534   0.996 -3.3330  1.7047 -2.4008
  880MOL0     H18792   6.012   1.258   1.028  0.8313 -0.9650 -0.6519
  880MOL0     H18793   6.148   1.340   1.104 -0.7011 -0.7432  1.7610
  880MOL0     H18794   6.285   1.280   0.905 -1.7559  1.8366 -1.6266
  880MOL0     H18795   6.151   1.181   0.844  1.2599 -2.9919 -0.0169
  880MOL0     H18796   6.150   1.048   1.048 -1.1252  1.3258 -2.9984
  880MOL0     H18797   6.302   1.118   1.104 -0.0279  0.2314 -0.4706
  880MOL0     H18798   6.467   0.868   0.809  0.3918  0.9283 -0.0286
  880MOL0     H18799   5.803   1.428   0.685  1.4475 -0.1821  1.1374
  880MOL0     H18800   5.529   1.441   0.720 -1.1810  0.7101  0.5025
  881MOL0     O18801   6.480   7.949  10.251  0.3734 -0.6798 -0.6114
  881MOL0     C18802   6.530   8.041  10.320  1.2856 -0.5910  0.4809
  881MOL0     O18803   6.469   8.164  10.339 -0.0102 -0.2398  0.1038
  881MOL0     C18804   6.345   8.178  10.278 -0.2175  0.3497 -0.3826
  881MOL0     C18805   6.324   8.272  10.187 -0.1378  0.1095 -0.5124
  881MOL0     C18806   6.196   8.284  10.123 -0.1039  0.7298 -0.1538
  881MOL0     C18807   6.094   8.203  10.174  0.7427 -0.3585  1.0957
  881MOL0     O18808   5.968   8.196  10.120  0.7308 -0.5633  0.5494
  881MOL0     C18809   5.929   8.285  10.013  0.5398  0.7852 -0.1115
  881MOL0     C18810   5.777   8.287  10.004  0.1307  0.4448  0.3039
  881MOL0     C18811   5.729   8.392   9.895 -0.4837 -0.4527 -0.1394
  881MOL0     C18812   5.580   8.393   9.856 -0.2090  0.4061  0.8208
  881MOL0     C18813   5.508   8.480   9.949  0.5593 -0.1588  0.4421
  881MOL0     C18814   5.513   8.630   9.909 -0.6352 -0.6951  0.5440
  881MOL0     C18815   5.411   8.713   9.990 -0.3355 -0.0316  0.5438
  881MOL0     C18816   5.264   8.665   9.998 -0.0687 -0.6219 -0.5152
  881MOL0     N18817   5.181   8.757  10.082  1.3326 -0.0484  0.4199
  881MOL0     C18818   5.053   8.735  10.093  0.4726 -0.0110  0.4362
  881MOL0     C18819   5.005   8.840  10.154  1.4144 -0.1244 -0.3320
  881MOL0     C18820   4.859   8.891  10.179  0.0280 -0.3381 -0.7310
  881MOL0     C18821   4.766   8.776  10.202  0.8277  0.5872  0.2329
  881MOL0     C18822   4.620   8.825  10.212  0.5314 -0.7515 -0.0169
  881MOL0     C18823   4.515   8.729  10.173  0.5882 -0.6890  0.1282
  881MOL0     O18824   4.391   8.785  10.197  0.2138  0.1788  1.3241
  881MOL0     C18825   4.281   8.733  10.148  0.2603 -0.2796 -0.4297
  881MOL0     C18826   4.260   8.623  10.068  0.5663 -0.4092  0.0982
  881MOL0     C18827   4.128   8.600  10.029  0.0287 -0.2866  0.2330
  881MOL0     C18828   4.120   8.475   9.954  0.3576  0.0617  0.0231
  881MOL0     C18829   4.017   8.685  10.060 -0.2471 -0.3278 -0.2526
  881MOL0     C18830   3.882   8.676  10.000 -0.0986 -0.5795 -0.4771
  881MOL0     O18831   3.805   8.784  10.007 -0.0082  0.1451 -0.3553
  881MOL0     C18832   3.677   8.783   9.966  0.4757 -0.3375  0.1704
  881MOL0     C18833   3.625   8.802   9.838  0.5851  0.4219  0.4823
  881MOL0     C18834   3.488   8.813   9.814 -0.3758 -0.1279 -1.0751
  881MOL0     C18835   3.397   8.818   9.922  0.4330 -0.1215 -0.2877
  881MOL0     O18836   3.262   8.813   9.907  0.3335 -0.3392 -0.5186
  881MOL0     C18837   3.190   8.804   9.781  0.1185  0.5400  0.3837
  881MOL0     C18838   3.043   8.779   9.819 -0.0289  0.0570  0.1160
  881MOL0     C18839   2.951   8.789   9.690 -0.8071  0.4775  0.5075
  881MOL0     C18840   2.806   8.780   9.732  0.1968  0.7496 -0.0525
  881MOL0     C18841   2.725   8.806   9.599 -0.5299  0.0098  0.0645
  881MOL0     C18842   2.572   8.795   9.618  0.4032 -0.1979 -0.6515
  881MOL0     C18843   2.499   8.859   9.503  0.2241 -0.7972  1.2845
  881MOL0     C18844   2.345   8.862   9.520 -0.7241  0.0277  0.3488
  881MOL0    Cl18845   2.252   8.710   9.538  0.3320  0.0268 -0.0460
  881MOL0     C18846   3.443   8.815  10.051 -0.6984  0.0087  0.1827
  881MOL0     C18847   3.587   8.817  10.070  0.6954 -0.1217  0.2646
  881MOL0     O18848   3.846   8.565   9.969  0.3220  0.2562  0.3311
  881MOL0     C18849   4.043   8.793  10.146  0.2647 -0.2916 -0.0966
  881MOL0     C18850   4.171   8.812  10.189  0.4712 -0.1539 -0.7861
  881MOL0     N18851   5.103   8.925  10.185 -0.7796  0.1586 -0.2490
  881MOL0     N18852   5.222   8.877  10.134  0.1614  0.0242 -0.3433
  881MOL0     C18853   6.110   8.112  10.280 -0.7201 -0.3581 -1.0831
  881MOL0     C18854   6.237   8.110  10.342  0.2736 -0.1740  0.1376
  881MOL0     C18855   6.647   8.010  10.409  0.0155 -0.5850 -0.2260
  881MOL0     C18856   6.718   8.105  10.484 -0.1732 -0.0466  0.2808
  881MOL0     C18857   6.818   8.076  10.567  0.6050 -0.3032 -1.1657
  881MOL0     C18858   6.858   7.942  10.581  0.1553  0.8467  0.7460
  881MOL0     O18859   6.970   7.914  10.665  0.4715 -0.1036 -0.1617
  881MOL0     C18860   7.092   7.966  10.601  0.3661  0.4351 -0.2794
  881MOL0     C18861   7.185   7.855  10.573 -0.6646  0.2749  0.2935
  881MOL0     C18862   7.322   7.908  10.521 -0.0427  0.0334 -0.0109
  881MOL0     C18863   7.408   7.783  10.497  0.6415 -1.1904  0.8379
  881MOL0     C18864   7.470   7.726  10.612  0.7374 -0.4345  0.3543
  881MOL0     C18865   7.509   7.670  10.708 -0.7514 -0.0513  1.5610
  881MOL0     C18866   6.794   7.839  10.516 -0.5261  0.8791 -0.7350
  881MOL0     C18867   6.682   7.872  10.434  0.0559 -0.2494 -0.3346
  881MOL0     H18868   6.410   8.328  10.151 -2.3242  3.1596 -1.3224
  881MOL0     H18869   6.182   8.349  10.037  1.3088 -0.2299 -1.1475
  881MOL0     H18870   5.963   8.385  10.043 -0.1340  0.7658  0.7889
  881MOL0     H18871   5.973   8.258   9.917 -1.1734 -0.0943 -0.6934
  881MOL0     H18872   5.757   8.187   9.966  4.4974  0.7683 -3.7413
  881MOL0     H18873   5.732   8.305  10.103 -2.5812 -1.3393 -0.4923
  881MOL0     H18874   5.762   8.489   9.934  3.5407 -1.8646  0.5316
  881MOL0     H18875   5.792   8.374   9.807 -0.1972 -2.6264  0.4492
  881MOL0     H18876   5.569   8.424   9.751 -3.2198 -1.0494  0.5922
  881MOL0     H18877   5.536   8.294   9.871 -1.1398  0.6138 -0.3654
  881MOL0     H18878   5.405   8.446   9.932  0.2264  1.2583 -0.5118
  881MOL0     H18879   5.520   8.466  10.057  2.8386  1.5242  0.4583
  881MOL0     H18880   5.613   8.668   9.932  0.2259 -2.2929 -0.3552
  881MOL0     H18881   5.502   8.656   9.803  0.0991  1.3647  0.9310
  881MOL0     H18882   5.440   8.709  10.095  0.1844 -0.9825  0.3787
  881MOL0     H18883   5.413   8.819   9.964  1.2700  0.1409  1.2524
  881MOL0     H18884   5.265   8.567  10.048 -0.7656 -1.0635 -1.3305
  881MOL0     H18885   5.206   8.666   9.905 -0.8833  0.4792 -0.0176
  881MOL0     H18886   4.990   8.666  10.038 -0.3311  1.4418 -0.5496
  881MOL0     H18887   4.852   8.958  10.265  0.9678  1.3666 -1.9325
  881MOL0     H18888   4.825   8.946  10.091 -1.8400  0.0936  0.2038
  881MOL0     H18889   4.802   8.728  10.292  1.8661 -0.5600 -0.7657
  881MOL0     H18890   4.774   8.706  10.118 -0.8178 -2.2794  2.3074
  881MOL0     H18891   4.608   8.915  10.151  0.6100  0.2797  1.4328
  881MOL0     H18892   4.603   8.856  10.315  0.5667  0.4244 -0.3485
  881MOL0     H18893   4.524   8.646  10.243 -2.0106  0.4237  1.9337
  881MOL0     H18894   4.531   8.687  10.073 -0.3236  2.4704 -1.4780
  881MOL0     H18895   4.349   8.577  10.026  0.6582 -1.0756  1.0095
  881MOL0     H18896   4.204   8.408   9.973  0.8246  0.5987 -0.0993
  881MOL0     H18897   4.029   8.419   9.975 -0.9619  2.1878  0.2752
  881MOL0     H18898   4.102   8.493   9.848 -1.5005 -0.7465  0.1695
  881MOL0     H18899   3.681   8.788   9.747 -0.3688 -2.1190  0.1968
  881MOL0     H18900   3.444   8.810   9.715 -2.5221 -0.5829 -0.1674
  881MOL0     H18901   3.195   8.900   9.729 -0.5729  0.5202  0.2736
  881MOL0     H18902   3.242   8.728   9.722 -1.1689 -0.0181 -0.0660
  881MOL0     H18903   3.035   8.682   9.868 -2.3761  0.0705 -0.1201
  881MOL0     H18904   3.011   8.854   9.892 -2.7615  2.0917 -2.8952
  881MOL0     H18905   2.983   8.711   9.620 -0.6206  2.7291 -2.0493
  881MOL0     H18906   2.962   8.882   9.635 -0.8538 -0.2157 -0.7022
  881MOL0     H18907   2.790   8.680   9.774 -0.2560  0.7193 -0.2863
  881MOL0     H18908   2.781   8.857   9.806  1.0707  0.5420  0.4614
  881MOL0     H18909   2.758   8.738   9.520  1.2504 -0.4204  1.0957
  881MOL0     H18910   2.755   8.905   9.566  0.8273 -0.3963  0.0056
  881MOL0     H18911   2.544   8.693   9.647  0.8497  0.4363  2.3955
  881MOL0     H18912   2.549   8.854   9.707  2.0671  0.6824 -0.7578
  881MOL0     H18913   2.521   8.805   9.410 -0.8567 -0.1467  0.6279
  881MOL0     H18914   2.525   8.965   9.496 -0.8799 -0.5499  0.5814
  881MOL0     H18915   2.307   8.906   9.428 -2.1260 -2.8442 -0.5544
  881MOL0     H18916   2.324   8.925   9.606  1.3269 -1.8914  2.4137
  881MOL0     H18917   3.377   8.826  10.137  0.7243 -2.6166  1.7359
  881MOL0     H18918   3.623   8.837  10.170 -0.5671  1.7724  0.4058
  881MOL0     H18919   3.967   8.869  10.164  2.8906  2.5319 -0.0342
  881MOL0     H18920   4.195   8.903  10.243 -0.0575  0.0284 -0.8625
  881MOL0     H18921   6.035   8.047  10.323  0.9978 -0.0668  2.7775
  881MOL0     H18922   6.259   8.056  10.433  1.8247  0.5681  0.2383
  881MOL0     H18923   6.683   8.207  10.473 -1.7220 -0.4458  1.1575
  881MOL0     H18924   6.866   8.152  10.627  4.0588 -0.9979 -2.8106
  881MOL0     H18925   7.075   8.034  10.517  0.7371  0.0338 -0.6806
  881MOL0     H18926   7.134   8.031  10.679  1.3581 -0.9709  0.3909
  881MOL0     H18927   7.134   7.784  10.506  2.8696 -2.0340 -0.2362
  881MOL0     H18928   7.205   7.802  10.667  1.8576  1.2509  0.3696
  881MOL0     H18929   7.374   7.976  10.590 -0.6789  0.8574 -0.3261
  881MOL0     H18930   7.313   7.962  10.426 -2.6713  0.2301  0.2609
  881MOL0     H18931   7.492   7.813  10.433 -0.2552  0.9495  0.5957
  881MOL0     H18932   7.357   7.699  10.449  1.6720 -2.1188  1.3273
  881MOL0     H18933   7.526   7.619  10.801 -2.9782 -1.2759  1.3627
  881MOL0     H18934   6.817   7.737  10.544  2.0477  1.5142 -0.2625
  881MOL0     H18935   6.618   7.795  10.393  1.8780 -1.3069 -1.3798
  882MOL0     O18936   0.149   6.642   3.371  0.1478 -0.2664  0.7182
  882MOL0     C18937   0.148   6.760   3.403  0.2523 -0.4850  0.3954
  882MOL0     O18938   0.041   6.827   3.467 -0.0889  0.0655 -0.0869
  882MOL0     C18939  -0.088   6.766   3.462 -0.2912  0.4210  1.0585
  882MOL0     C18940  -0.114   6.629   3.505 -0.2971 -0.1586  0.1706
  882MOL0     C18941  -0.246   6.589   3.501  0.0114  0.0823 -0.9327
  882MOL0     C18942  -0.355   6.673   3.463 -0.8361 -0.0888  0.5145
  882MOL0     O18943  -0.490   6.639   3.478  0.8203 -0.5806  0.0149
  882MOL0     C18944  -0.542   6.518   3.430 -0.4871  0.7695 -0.7169
  882MOL0     C18945  -0.647   6.479   3.525  0.4758 -0.2494  0.1638
  882MOL0     C18946  -0.749   6.388   3.463 -0.0298 -0.6794 -0.1970
  882MOL0     C18947  -0.844   6.456   3.363  0.3129 -0.0132 -0.1574
  882MOL0     C18948  -0.941   6.354   3.288 -0.2085  0.2740  0.3105
  882MOL0     C18949  -1.047   6.305   3.387  0.2299 -0.1796 -0.2680
  882MOL0     C18950  -1.127   6.188   3.331  0.2317  0.1480  0.6752
  882MOL0     C18951  -1.203   6.236   3.202  0.9355  0.8301 -0.2512
  882MOL0     N18952  -1.342   6.185   3.197 -0.8749 -0.1221  0.4374
  882MOL0     C18953  -1.434   6.224   3.291 -0.4599 -0.0762 -0.3280
  882MOL0     C18954  -1.539   6.139   3.265  0.8079  0.0966  0.3561
  882MOL0     C18955  -1.658   6.135   3.349  0.5416 -0.1806 -0.0463
  882MOL0     C18956  -1.631   6.039   3.468 -0.2134  0.6091 -0.0764
  882MOL0     C18957  -1.755   6.036   3.563 -0.2225 -0.8268  0.0105
  882MOL0     C18958  -1.757   6.161   3.653 -0.1411 -0.2423 -0.8480
  882MOL0     O18959  -1.866   6.140   3.739  0.2008  0.1785  0.0627
  882MOL0     C18960  -2.000   6.177   3.704  0.0653  0.1674  0.1135
  882MOL0     C18961  -2.044   6.226   3.583  0.3581  0.1587  0.6586
  882MOL0     C18962  -2.178   6.267   3.555 -0.2606  0.8899  0.2549
  882MOL0     C18963  -2.201   6.334   3.422  0.4300 -1.1504 -0.2906
  882MOL0     C18964  -2.268   6.262   3.661 -0.3478 -0.3946 -0.3780
  882MOL0     C18965  -2.410   6.309   3.653 -1.1002  0.7874 -1.1212
  882MOL0     O18966  -2.473   6.290   3.531 -1.3103 -0.4851  0.5493
  882MOL0     C18967  -2.602   6.292   3.524  0.7110  0.1466 -0.0140
  882MOL0     C18968  -2.652   6.160   3.521 -0.0920 -0.1237  0.5740
  882MOL0     C18969  -2.789   6.143   3.513  0.6356  0.5714  0.3417
  882MOL0     C18970  -2.881   6.255   3.522 -0.4670 -0.0210 -0.4485
  882MOL0     O18971  -3.012   6.221   3.531  0.4053  0.3163 -0.3096
  882MOL0     C18972  -3.110   6.318   3.528  0.1855 -1.3160 -0.0222
  882MOL0     C18973  -3.247   6.263   3.528 -0.2035 -0.4258  1.3008
  882MOL0     C18974  -3.284   6.205   3.661  0.5802  0.4026 -0.4790
  882MOL0     C18975  -3.430   6.157   3.662 -0.3219 -0.1917 -0.0328
  882MOL0     C18976  -3.454   6.028   3.576  0.2451  0.3363  0.2669
  882MOL0     C18977  -3.514   5.905   3.643  0.2958  0.1577 -0.0600
  882MOL0     C18978  -3.659   5.908   3.691 -0.3085  0.8010 -0.0169
  882MOL0     C18979  -3.716   5.770   3.718 -0.2139 -0.3365 -1.6042
  882MOL0    Cl18980  -3.858   5.794   3.833 -0.1795  0.1961  0.5943
  882MOL0     C18981  -2.828   6.387   3.524  0.3273 -0.4563 -0.1228
  882MOL0     C18982  -2.686   6.401   3.527 -0.0995 -0.0638 -0.0798
  882MOL0     O18983  -2.454   6.365   3.756 -0.2776  0.2107  0.5200
  882MOL0     C18984  -2.219   6.221   3.785  0.3691 -1.0601  0.4890
  882MOL0     C18985  -2.090   6.178   3.807 -0.1797 -0.9408 -0.3916
  882MOL0     N18986  -1.515   6.058   3.159 -0.9978 -0.1266 -0.7907
  882MOL0     N18987  -1.394   6.083   3.121 -0.5391 -0.1914 -0.1126
  882MOL0     C18988  -0.323   6.802   3.430 -0.2176 -0.2780  0.9928
  882MOL0     C18989  -0.193   6.848   3.417 -0.5374  1.0520 -0.3786
  882MOL0     C18990   0.272   6.833   3.394 -0.1618  0.6378 -0.0788
  882MOL0     C18991   0.291   6.955   3.461 -0.8846  0.0206 -0.7874
  882MOL0     C18992   0.415   7.023   3.437 -0.6571 -0.2254 -0.3763
  882MOL0     C18993   0.519   6.965   3.371 -0.3849 -0.7962 -0.1720
  882MOL0     O18994   0.638   7.033   3.377  0.1616 -0.3246 -0.5185
  882MOL0     C18995   0.754   6.954   3.341  0.2823  0.6881 -0.2536
  882MOL0     C18996   0.879   7.036   3.363 -0.0421  0.4743 -0.4373
  882MOL0     C18997   0.904   7.163   3.298 -0.2815  0.0380  0.5286
  882MOL0     C18998   1.027   7.232   3.344 -0.0031  0.0194  0.2013
  882MOL0     C18999   1.146   7.162   3.294  0.9733 -1.2179 -0.2443
  882MOL0     C19000   1.236   7.119   3.232  0.3476 -0.1577 -0.6728
  882MOL0     C19001   0.505   6.828   3.318  0.1255 -0.2826  0.6209
  882MOL0     C19002   0.383   6.761   3.338 -0.6746 -0.2983 -0.1158
  882MOL0     H19003  -0.031   6.565   3.533 -0.1657  0.6112  1.6333
  882MOL0     H19004  -0.265   6.486   3.530  1.7423 -0.6745 -2.2974
  882MOL0     H19005  -0.582   6.525   3.328 -2.4810  2.5295  0.1232
  882MOL0     H19006  -0.466   6.439   3.436 -1.6726 -0.2985  0.9058
  882MOL0     H19007  -0.596   6.435   3.612  0.7943 -1.3168 -0.5521
  882MOL0     H19008  -0.700   6.562   3.572  0.9727 -0.7033  1.5754
  882MOL0     H19009  -0.692   6.304   3.422  1.4252 -0.1711  0.7373
  882MOL0     H19010  -0.801   6.343   3.548  2.6460  1.6348  2.8899
  882MOL0     H19011  -0.897   6.537   3.413 -0.1547 -0.3620 -0.0819
  882MOL0     H19012  -0.792   6.500   3.277 -2.2734 -0.6744 -2.2006
  882MOL0     H19013  -0.984   6.405   3.202 -0.2660  0.6914  0.5847
  882MOL0     H19014  -0.890   6.266   3.249  1.7193  1.1005  0.8661
  882MOL0     H19015  -1.005   6.272   3.483 -3.5620 -1.7419  1.0259
  882MOL0     H19016  -1.108   6.394   3.402 -0.6727 -1.1278  2.1878
  882MOL0     H19017  -1.066   6.098   3.316 -0.3827  0.1944 -2.8281
  882MOL0     H19018  -1.200   6.147   3.400  1.1084 -4.2496 -0.7300
  882MOL0     H19019  -1.147   6.205   3.113  0.4760 -3.0374  0.6010
  882MOL0     H19020  -1.217   6.344   3.191 -0.4814  0.6724 -0.1034
  882MOL0     H19021  -1.417   6.299   3.368  1.6730 -2.8016  2.1020
  882MOL0     H19022  -1.671   6.235   3.392 -1.8887  0.1585 -1.4285
  882MOL0     H19023  -1.754   6.127   3.297 -0.5808  2.1847  1.4858
  882MOL0     H19024  -1.543   6.071   3.525  1.0663 -1.1906 -0.9341
  882MOL0     H19025  -1.611   5.938   3.431 -1.2515  0.4900 -0.3251
  882MOL0     H19026  -1.757   5.938   3.611 -2.7288 -0.7333  0.2373
  882MOL0     H19027  -1.843   6.046   3.498  0.6955  0.2042 -1.1195
  882MOL0     H19028  -1.774   6.251   3.594 -3.6071  0.9634  1.6688
  882MOL0     H19029  -1.667   6.175   3.715 -2.0175  2.0207  1.6062
  882MOL0     H19030  -1.972   6.257   3.507  0.3890 -0.0141  0.6175
  882MOL0     H19031  -2.287   6.401   3.413  2.9866  2.3329 -1.3596
  882MOL0     H19032  -2.116   6.400   3.402 -1.4746  2.1728  1.5476
  882MOL0     H19033  -2.203   6.263   3.339 -0.1164 -1.7029  0.1939
  882MOL0     H19034  -2.573   6.087   3.531 -0.7914 -1.0098 -0.1805
  882MOL0     H19035  -2.841   6.050   3.491 -0.7927  1.2419  0.7321
  882MOL0     H19036  -3.098   6.385   3.614 -0.1231 -1.4846  0.1544
  882MOL0     H19037  -3.091   6.382   3.442  0.7541  2.0974  2.4284
  882MOL0     H19038  -3.317   6.344   3.506 -0.2813 -0.6459  0.7236
  882MOL0     H19039  -3.245   6.181   3.455 -0.4685 -1.0663  2.0017
  882MOL0     H19040  -3.276   6.277   3.743  0.6774 -0.0787 -0.0646
  882MOL0     H19041  -3.219   6.122   3.688 -1.4961 -0.6163  1.8604
  882MOL0     H19042  -3.467   6.149   3.764  0.3895  2.3740  0.5071
  882MOL0     H19043  -3.496   6.233   3.620 -3.4693 -2.9859 -0.5368
  882MOL0     H19044  -3.359   5.996   3.532 -1.1996 -2.0524 -1.3414
  882MOL0     H19045  -3.519   6.058   3.493 -0.5722 -1.8459  0.0781
  882MOL0     H19046  -3.520   5.833   3.560 -0.4910 -1.2427  1.1507
  882MOL0     H19047  -3.442   5.871   3.718  0.2173 -1.0507 -0.5000
  882MOL0     H19048  -3.717   5.963   3.616  1.0923 -0.4463 -2.1334
  882MOL0     H19049  -3.662   5.962   3.786 -0.1214 -0.9817  1.0410
  882MOL0     H19050  -3.634   5.717   3.767 -0.3579 -0.4936 -1.5311
  882MOL0     H19051  -3.746   5.723   3.624 -1.8997  0.8352 -1.7017
  882MOL0     H19052  -2.894   6.473   3.522  0.2171 -0.4833 -3.7529
  882MOL0     H19053  -2.647   6.502   3.530  1.7855 -0.7547  2.7837
  882MOL0     H19054  -2.297   6.219   3.860  1.3767  1.6848  1.7392
  882MOL0     H19055  -2.050   6.150   3.904  2.4876  0.8704 -0.8489
  882MOL0     H19056  -0.396   6.880   3.409  0.6716  0.3785  0.2577
  882MOL0     H19057  -0.164   6.946   3.379 -0.3938  0.6186 -1.3970
  882MOL0     H19058   0.209   6.999   3.517 -0.6196 -1.3835  0.7853
  882MOL0     H19059   0.411   7.125   3.473 -0.7093 -0.1611 -0.5638
  882MOL0     H19060   0.762   6.865   3.404  0.2372  1.3943  0.7777
  882MOL0     H19061   0.760   6.929   3.235 -2.0875  1.3743 -0.6079
  882MOL0     H19062   0.959   6.965   3.338  0.4884  0.5703  0.8882
  882MOL0     H19063   0.876   7.050   3.472  3.4238 -1.7417  0.1007
  882MOL0     H19064   0.825   7.233   3.327 -0.7081 -0.5762  0.8720
  882MOL0     H19065   0.909   7.142   3.191  2.1742  1.3479  0.3274
  882MOL0     H19066   1.033   7.241   3.453 -1.1634 -0.8468  0.3535
  882MOL0     H19067   1.027   7.338   3.316  2.3718 -0.1631 -0.7576
  882MOL0     H19068   1.322   7.078   3.183  0.2318 -1.4296  0.1176
  882MOL0     H19069   0.588   6.780   3.267  0.1589  0.7809 -0.3795
  882MOL0     H19070   0.378   6.660   3.300 -0.8420 -1.4545  2.7066
  883MOL0     O19071   5.094   0.979   2.619  0.2099  0.0197  0.0935
  883MOL0     C19072   5.119   0.858   2.629  0.2757 -0.9139 -0.3593
  883MOL0     O19073   5.036   0.760   2.597  0.0200  0.6878  0.1762
  883MOL0     C19074   4.924   0.796   2.525  0.6504  0.7972  1.0813
  883MOL0     C19075   4.804   0.822   2.587 -0.2368  0.4095 -0.2045
  883MOL0     C19076   4.690   0.842   2.506 -0.2479  0.3307  0.7261
  883MOL0     C19077   4.699   0.867   2.370  0.5864  0.2115  0.7947
  883MOL0     O19078   4.592   0.892   2.282  0.0046  0.5430 -0.0717
  883MOL0     C19079   4.458   0.887   2.340 -0.4616 -0.7478  0.1957
  883MOL0     C19080   4.348   0.900   2.227  0.6163  1.1047 -0.4349
  883MOL0     C19081   4.206   0.909   2.283 -0.6734  0.4396 -0.0735
  883MOL0     C19082   4.100   0.863   2.180  0.0077 -0.4245 -0.9869
  883MOL0     C19083   4.113   0.712   2.164  0.7722 -0.9153 -0.6794
  883MOL0     C19084   3.983   0.660   2.093  0.3209  0.2699  0.2441
  883MOL0     C19085   4.007   0.526   2.040 -0.1388  0.3095  0.2332
  883MOL0     C19086   3.881   0.460   1.987  0.6769  0.4593  0.3573
  883MOL0     N19087   3.831   0.534   1.865 -0.0468  0.3350 -0.4560
  883MOL0     C19088   3.704   0.524   1.813 -0.8111 -0.3202  0.2936
  883MOL0     C19089   3.704   0.605   1.705 -0.7581 -0.0999  0.2464
  883MOL0     C19090   3.599   0.610   1.599 -0.1667 -0.0919  0.3271
  883MOL0     C19091   3.453   0.558   1.617 -0.5008 -0.1167  0.6459
  883MOL0     C19092   3.374   0.634   1.717  0.5645  0.0035  0.3701
  883MOL0     C19093   3.230   0.602   1.745 -0.5544  1.3593 -0.0348
  883MOL0     O19094   3.211   0.475   1.810 -1.0667 -0.1116 -0.1558
  883MOL0     C19095   3.077   0.459   1.847 -0.7565 -0.3726 -0.7888
  883MOL0     C19096   3.049   0.475   1.983 -0.4400  0.0933  0.5729
  883MOL0     C19097   2.916   0.476   2.037  0.2592  0.1652  0.7292
  883MOL0     C19098   2.903   0.506   2.185 -0.5920 -0.3002  0.3976
  883MOL0     C19099   2.813   0.458   1.946  0.3585  0.6529 -0.3943
  883MOL0     C19100   2.663   0.463   1.988  0.4802  0.2114  0.5825
  883MOL0     O19101   2.629   0.448   2.118 -0.3668  0.1993 -0.8937
  883MOL0     C19102   2.503   0.418   2.173 -0.3045 -0.3675 -0.1227
  883MOL0     C19103   2.424   0.319   2.121 -0.0616 -1.1717 -0.6955
  883MOL0     C19104   2.304   0.272   2.184 -0.8244 -0.9446  0.8760
  883MOL0     C19105   2.271   0.323   2.306 -1.2000  0.1719  0.7528
  883MOL0     O19106   2.154   0.258   2.354  0.1960 -0.4112 -0.2798
  883MOL0     C19107   2.126   0.293   2.493  0.5079 -0.5152  0.5618
  883MOL0     C19108   2.008   0.206   2.530 -0.7046  0.0310 -0.1405
  883MOL0     C19109   1.950   0.265   2.657  0.2315 -0.0555  0.0793
  883MOL0     C19110   2.039   0.244   2.782  0.6047  0.1857 -0.6029
  883MOL0     C19111   1.959   0.264   2.912  0.3393 -0.4190 -0.3172
  883MOL0     C19112   2.027   0.186   3.022  0.5951 -0.6181 -0.2512
  883MOL0     C19113   1.956   0.210   3.157  0.3175 -0.1644 -0.5026
  883MOL0     C19114   1.983   0.113   3.267 -0.5324 -0.1102  0.0255
  883MOL0    Cl19115   1.918  -0.052   3.231 -0.2273 -0.4228 -0.0057
  883MOL0     C19116   2.338   0.429   2.357 -0.0884 -0.5458 -0.4156
  883MOL0     C19117   2.455   0.476   2.293 -0.5201  0.1783 -0.5357
  883MOL0     O19118   2.581   0.481   1.895  0.1435  0.1269 -0.8556
  883MOL0     C19119   2.842   0.438   1.810  1.1608 -0.1572 -0.3037
  883MOL0     C19120   2.974   0.445   1.756 -0.7938  0.2500 -0.1428
  883MOL0     N19121   3.828   0.652   1.682  0.1719 -0.6533  0.5681
  883MOL0     N19122   3.900   0.608   1.777 -0.2371  0.0448 -0.1151
  883MOL0     C19123   4.820   0.844   2.313  0.3714 -0.5943  0.3491
  883MOL0     C19124   4.929   0.807   2.381  0.9946  0.0662 -0.3125
  883MOL0     C19125   5.242   0.822   2.693  0.3670 -0.5873 -0.3188
  883MOL0     C19126   5.350   0.917   2.701  0.2108 -0.6246  0.4445
  883MOL0     C19127   5.479   0.879   2.754  0.7260 -0.5208  0.7938
  883MOL0     C19128   5.501   0.755   2.815  0.2737 -0.4051 -0.5531
  883MOL0     O19129   5.622   0.739   2.864 -0.0003 -0.2338  1.2050
  883MOL0     C19130   5.659   0.608   2.907 -0.1683  0.9381  0.1822
  883MOL0     C19131   5.791   0.614   2.981  0.1542 -0.0035  0.2415
  883MOL0     C19132   5.854   0.478   2.983 -0.0889 -0.1334  0.8141
  883MOL0     C19133   5.990   0.496   3.058 -0.6662 -0.3744 -0.7939
  883MOL0     C19134   6.051   0.365   3.080  0.4186 -0.0508  0.1938
  883MOL0     C19135   6.096   0.251   3.095  1.2321 -0.4659 -0.1095
  883MOL0     C19136   5.395   0.662   2.807  0.0559  0.7482  0.6501
  883MOL0     C19137   5.274   0.691   2.738  1.1569  0.0133  0.0949
  883MOL0     H19138   4.789   0.830   2.694 -2.5736 -0.2460 -0.4357
  883MOL0     H19139   4.602   0.870   2.563 -0.0274  1.4457  0.5427
  883MOL0     H19140   4.455   0.795   2.398  2.1378 -1.4632 -0.6512
  883MOL0     H19141   4.434   0.972   2.404 -1.3502  0.1372 -1.2510
  883MOL0     H19142   4.362   0.996   2.176 -2.9437  1.0551 -1.7879
  883MOL0     H19143   4.356   0.818   2.154 -0.3607  0.9467 -0.3723
  883MOL0     H19144   4.190   0.841   2.367 -1.2962  1.8894  1.0218
  883MOL0     H19145   4.184   1.008   2.325  1.2501 -0.0876  2.3944
  883MOL0     H19146   4.005   0.886   2.229  0.2425  0.6621 -1.0182
  883MOL0     H19147   4.091   0.912   2.083 -1.8630 -1.4561 -1.3927
  883MOL0     H19148   4.200   0.700   2.099  2.1524  1.2950  0.6547
  883MOL0     H19149   4.131   0.658   2.257  2.2260  1.2742  0.3882
  883MOL0     H19150   3.904   0.658   2.168 -0.0134 -0.8384 -0.1303
  883MOL0     H19151   3.949   0.725   2.013 -2.0057 -1.5016 -0.2857
  883MOL0     H19152   4.088   0.513   1.968  1.7837  2.2325  1.9013
  883MOL0     H19153   4.036   0.456   2.119 -1.6734 -1.5232 -0.7407
  883MOL0     H19154   3.805   0.452   2.066  1.5214 -0.9096  1.0694
  883MOL0     H19155   3.909   0.358   1.958  2.3244  0.3596  2.1440
  883MOL0     H19156   3.618   0.477   1.860 -1.7482  1.4764  0.4746
  883MOL0     H19157   3.599   0.712   1.559  0.7517  0.9954  2.8873
  883MOL0     H19158   3.645   0.538   1.531  4.9995  0.7295  2.4761
  883MOL0     H19159   3.463   0.451   1.639  0.5385 -0.6202 -1.9594
  883MOL0     H19160   3.400   0.572   1.523 -1.6656  3.2462  1.6616
  883MOL0     H19161   3.367   0.734   1.673  0.9362 -0.0023  0.2916
  883MOL0     H19162   3.429   0.645   1.810  2.8047 -3.2092 -0.4127
  883MOL0     H19163   3.172   0.597   1.653 -0.0185 -1.7640 -0.3337
  883MOL0     H19164   3.192   0.685   1.806 -0.7281  0.9055  0.4884
  883MOL0     H19165   3.130   0.474   2.054  0.4000  1.0718 -0.3434
  883MOL0     H19166   2.998   0.557   2.204 -0.6776  0.6734 -1.5882
  883MOL0     H19167   2.822   0.575   2.210 -1.2459  1.0780 -4.4380
  883MOL0     H19168   2.891   0.418   2.250 -5.4318  0.9958  1.6437
  883MOL0     H19169   2.454   0.274   2.027  1.6804 -0.0510 -0.7149
  883MOL0     H19170   2.249   0.194   2.132  1.4118 -0.6189 -2.3054
  883MOL0     H19171   2.211   0.279   2.561  1.9078 -0.5951 -1.1384
  883MOL0     H19172   2.105   0.400   2.504  0.4496 -0.2086 -1.9642
  883MOL0     H19173   1.936   0.192   2.449 -0.4830 -0.9240 -0.1937
  883MOL0     H19174   2.045   0.105   2.550 -0.8595  0.4161  2.3737
  883MOL0     H19175   1.851   0.222   2.674 -0.5000  2.1191  1.8682
  883MOL0     H19176   1.936   0.374   2.650  0.6434 -0.0939 -3.9126
  883MOL0     H19177   2.072   0.139   2.781 -2.0598 -0.7332 -1.0812
  883MOL0     H19178   2.131   0.302   2.771  1.1500 -0.7350 -1.1504
  883MOL0     H19179   1.859   0.219   2.904 -0.3438  1.0695 -0.5237
  883MOL0     H19180   1.943   0.369   2.940 -0.6698 -0.5916 -0.2076
  883MOL0     H19181   2.014   0.078   3.014 -0.4342 -0.7582  2.4092
  883MOL0     H19182   2.133   0.206   3.039 -0.3339  1.8604  4.0851
  883MOL0     H19183   1.848   0.200   3.143 -0.3840  2.7471  1.8324
  883MOL0     H19184   1.971   0.310   3.198 -2.1707  1.4550 -3.2055
  883MOL0     H19185   1.929   0.152   3.354 -1.1051 -0.5621 -0.1241
  883MOL0     H19186   2.090   0.109   3.289 -0.7210  1.7684  1.6475
  883MOL0     H19187   2.297   0.490   2.438 -0.7348  0.4533 -1.4637
  883MOL0     H19188   2.520   0.551   2.338  2.5239 -2.5383 -0.0486
  883MOL0     H19189   2.763   0.437   1.735  0.0157  2.4021  0.7841
  883MOL0     H19190   3.004   0.433   1.652  1.3772  0.0204  0.4733
  883MOL0     H19191   4.837   0.856   2.206  0.4604  0.1659  0.4419
  883MOL0     H19192   5.029   0.794   2.340 -0.4019  0.0949 -4.0255
  883MOL0     H19193   5.339   1.010   2.646 -2.9961 -0.1773  1.6249
  883MOL0     H19194   5.571   0.935   2.743  0.4166  0.2308  1.7818
  883MOL0     H19195   5.585   0.571   2.978  1.4022 -3.1089  0.0226
  883MOL0     H19196   5.654   0.545   2.818 -0.1411 -0.5702  1.1998
  883MOL0     H19197   5.786   0.661   3.080  2.7802  0.1405  0.3761
  883MOL0     H19198   5.848   0.681   2.916 -1.8809 -1.1125 -2.9266
  883MOL0     H19199   5.878   0.452   2.880 -0.6388  0.7189  0.4580
  883MOL0     H19200   5.791   0.404   3.033  0.4303  0.1840  1.9866
  883MOL0     H19201   5.984   0.541   3.158 -0.8505 -1.0215 -0.5085
  883MOL0     H19202   6.055   0.560   2.998 -1.6324  2.3502  0.8959
  883MOL0     H19203   6.133   0.151   3.105 -0.2151 -0.9117  1.2552
  883MOL0     H19204   5.408   0.566   2.857 -0.0357 -0.5628 -1.6575
  883MOL0     H19205   5.191   0.622   2.730  1.3016 -0.2576  0.7996
  884MOL0     O19206  10.351   6.275   7.958  0.4341  0.4438 -0.6354
  884MOL0     C19207  10.369   6.397   7.944 -0.0822 -1.0740  0.0374
  884MOL0     O19208  10.270   6.490   7.911 -0.0670 -0.0995 -0.1273
  884MOL0     C19209  10.135   6.453   7.898 -0.0416 -0.4741 -0.1335
  884MOL0     C19210  10.074   6.502   7.784  0.1250  0.4865 -0.3461
  884MOL0     C19211   9.933   6.477   7.764  0.3242 -0.4700  0.1601
  884MOL0     C19212   9.867   6.392   7.862  0.7299  0.1978 -0.0854
  884MOL0     O19213   9.727   6.378   7.833 -0.7783  0.3221  0.2387
  884MOL0     C19214   9.646   6.289   7.922 -0.5625 -0.3387 -0.0432
  884MOL0     C19215   9.518   6.263   7.851  0.1923  0.0888  0.1434
  884MOL0     C19216   9.409   6.193   7.935  0.1843  0.2490 -0.1760
  884MOL0     C19217   9.269   6.228   7.885  0.1410 -0.8613  0.3030
  884MOL0     C19218   9.149   6.180   7.968 -0.2254 -0.1701 -0.5555
  884MOL0     C19219   9.018   6.190   7.893  0.8594  0.3131  0.5958
  884MOL0     C19220   8.900   6.129   7.966 -0.3445  0.4238  0.1031
  884MOL0     C19221   8.901   5.972   7.958 -0.2373 -0.0411 -0.1895
  884MOL0     N19222   8.783   5.916   8.021  0.2616  0.2936  0.0390
  884MOL0     C19223   8.777   5.829   8.123 -0.5343  0.0640  0.4224
  884MOL0     C19224   8.645   5.810   8.142  0.4056  0.2831  0.6577
  884MOL0     C19225   8.587   5.722   8.249  0.0110 -0.0119 -0.1092
  884MOL0     C19226   8.670   5.594   8.267 -0.9445  0.2627 -0.3876
  884MOL0     C19227   8.601   5.497   8.373 -0.0043 -0.3554 -0.6434
  884MOL0     C19228   8.469   5.445   8.326  0.0106  0.0087 -0.6648
  884MOL0     O19229   8.481   5.379   8.191  0.0358 -0.0996 -0.3816
  884MOL0     C19230   8.381   5.292   8.154 -0.0490 -0.1199 -0.1650
  884MOL0     C19231   8.413   5.169   8.108 -0.0657  0.1941 -0.3962
  884MOL0     C19232   8.304   5.085   8.066 -1.0264 -1.2195 -0.2996
  884MOL0     C19233   8.352   4.947   8.026 -0.5232  0.7634  0.0385
  884MOL0     C19234   8.166   5.127   8.071  0.4355 -1.0256  0.0940
  884MOL0     C19235   8.053   5.042   8.037 -0.0459 -0.0256  0.8941
  884MOL0     O19236   7.941   5.105   8.015  0.1654  0.0398  0.3215
  884MOL0     C19237   7.815   5.030   8.006  0.1275  0.2830  0.0945
  884MOL0     C19238   7.801   4.914   7.934 -0.6808 -0.7418  0.1642
  884MOL0     C19239   7.678   4.860   7.907  0.0623  0.8107  0.4271
  884MOL0     C19240   7.562   4.905   7.980 -0.3110  0.4423 -0.3910
  884MOL0     O19241   7.445   4.836   7.959  0.3016  0.0856 -0.0570
  884MOL0     C19242   7.349   4.897   7.876  0.0948  0.2034  0.0630
  884MOL0     C19243   7.236   4.961   7.965 -0.2019  1.0110 -0.4154
  884MOL0     C19244   7.141   5.038   7.872  0.2544 -0.2747 -0.1182
  884MOL0     C19245   7.020   5.078   7.953 -0.2545 -1.3754 -0.3738
  884MOL0     C19246   6.930   5.171   7.869 -0.1620  0.3687 -0.5955
  884MOL0     C19247   6.852   5.095   7.763 -0.2469  0.6834  0.3588
  884MOL0     C19248   6.744   5.166   7.686  0.1135 -0.2162 -0.0641
  884MOL0     C19249   6.655   5.060   7.625 -0.0464  0.6973  0.5296
  884MOL0    Cl19250   6.512   5.153   7.569  0.1315  0.2265 -0.2903
  884MOL0     C19251   7.584   5.012   8.068  0.5483  0.0495 -0.4884
  884MOL0     C19252   7.710   5.081   8.080  0.5002 -0.1907  0.3502
  884MOL0     O19253   8.070   4.917   8.029  0.3843  0.4506  0.1359
  884MOL0     C19254   8.142   5.255   8.123 -0.0256 -0.3702  0.8925
  884MOL0     C19255   8.251   5.332   8.172  0.5967  0.1450  0.0673
  884MOL0     N19256   8.577   5.892   8.055  0.4009  0.1697 -0.1487
  884MOL0     N19257   8.662   5.963   7.986 -0.2902  0.0273 -0.6713
  884MOL0     C19258   9.934   6.344   7.973 -0.2341 -0.3573  0.5102
  884MOL0     C19259  10.070   6.365   7.982  0.4697 -0.2547 -0.2333
  884MOL0     C19260  10.510   6.446   7.956  0.3733 -0.5707 -0.6409
  884MOL0     C19261  10.545   6.564   7.892 -0.0728  0.1374 -0.0516
  884MOL0     C19262  10.674   6.607   7.887  0.1693  0.6596 -0.9653
  884MOL0     C19263  10.776   6.540   7.962  0.2337 -0.3830  0.0894
  884MOL0     O19264  10.904   6.593   7.964 -0.1804 -0.3629 -0.3683
  884MOL0     C19265  10.962   6.659   7.850  0.1205  0.3193  0.1441
  884MOL0     C19266  11.118   6.635   7.849 -0.0693  0.8675  0.0562
  884MOL0     C19267  11.180   6.717   7.733 -0.6293  0.6611  0.1447
  884MOL0     C19268  11.328   6.667   7.717  0.1808  0.5387  0.1723
  884MOL0     C19269  11.416   6.744   7.619  0.7064  0.0200  0.7142
  884MOL0     C19270  11.467   6.818   7.532 -0.4161  0.3721  0.0244
  884MOL0     C19271  10.741   6.424   8.029  0.2123 -0.0059  0.0813
  884MOL0     C19272  10.608   6.374   8.019  0.4332  0.0449  0.0673
  884MOL0     H19273  10.133   6.552   7.708 -2.1488 -0.1110 -2.6412
  884MOL0     H19274   9.878   6.525   7.683 -0.3502 -2.7232 -0.7990
  884MOL0     H19275   9.706   6.197   7.929  2.2079  1.1355 -2.2751
  884MOL0     H19276   9.633   6.323   8.025 -1.8716 -1.5856  0.2377
  884MOL0     H19277   9.482   6.360   7.816  0.9983  1.6319  3.2878
  884MOL0     H19278   9.538   6.204   7.760 -0.9582  0.5560 -0.4283
  884MOL0     H19279   9.417   6.084   7.937 -1.5230  0.1084  0.1186
  884MOL0     H19280   9.409   6.228   8.039 -1.6788 -5.1442  2.0065
  884MOL0     H19281   9.262   6.337   7.876 -0.9610 -1.0660 -2.4494
  884MOL0     H19282   9.260   6.181   7.786  1.5522  1.7240 -1.1433
  884MOL0     H19283   9.173   6.079   8.002  2.0041  1.2695  2.5792
  884MOL0     H19284   9.142   6.246   8.055 -1.9820  1.4594 -1.8465
  884MOL0     H19285   8.995   6.296   7.882 -2.1372 -0.2138  0.6966
  884MOL0     H19286   9.033   6.155   7.791 -1.1882  1.2877 -0.0922
  884MOL0     H19287   8.918   6.166   8.068  1.7166 -0.8744  0.2652
  884MOL0     H19288   8.810   6.182   7.933  0.5153  1.6809 -0.3143
  884MOL0     H19289   8.991   5.932   8.006  1.2454 -0.1134 -2.8364
  884MOL0     H19290   8.904   5.938   7.854 -1.7236 -2.4027  0.4489
  884MOL0     H19291   8.859   5.781   8.174 -1.3806  0.7154  2.5104
  884MOL0     H19292   8.594   5.789   8.334  2.2095  2.3136 -1.9657
  884MOL0     H19293   8.481   5.701   8.228  0.2380 -2.2945  0.6687
  884MOL0     H19294   8.770   5.619   8.301 -0.0972 -0.0331 -2.4970
  884MOL0     H19295   8.672   5.537   8.173  2.0316 -0.6056  0.1103
  884MOL0     H19296   8.594   5.541   8.473 -1.5244 -4.0422  1.0706
  884MOL0     H19297   8.670   5.413   8.384 -0.0736 -0.3609 -0.2334
  884MOL0     H19298   8.403   5.532   8.318  2.2084  1.5718 -3.3367
  884MOL0     H19299   8.427   5.375   8.399 -1.2051  3.4704  2.2640
  884MOL0     H19300   8.514   5.131   8.105 -0.7422 -1.7462 -0.0742
  884MOL0     H19301   8.295   4.868   8.077  1.0469 -1.9913 -2.1612
  884MOL0     H19302   8.348   4.931   7.918  0.6667  1.9220 -0.2058
  884MOL0     H19303   8.456   4.930   8.056 -0.8628  0.2797  0.9965
  884MOL0     H19304   7.877   4.863   7.876 -0.3332 -0.2741  0.2042
  884MOL0     H19305   7.676   4.777   7.837  1.3130  1.1433 -0.0401
  884MOL0     H19306   7.397   4.967   7.807  2.7576 -2.5070 -1.0128
  884MOL0     H19307   7.294   4.821   7.820  2.7635 -1.1777 -0.8199
  884MOL0     H19308   7.193   4.882   8.027  1.5608 -0.5690 -1.1049
  884MOL0     H19309   7.285   5.022   8.042  0.2097  0.2567 -0.0661
  884MOL0     H19310   7.112   4.980   7.784  0.5752  0.9590 -1.0778
  884MOL0     H19311   7.186   5.131   7.834  0.8536  1.3612  4.0585
  884MOL0     H19312   6.960   4.989   7.975  2.7341 -2.8032  2.9115
  884MOL0     H19313   7.066   5.124   8.041  1.8134 -1.9345 -1.1049
  884MOL0     H19314   6.984   5.252   7.820  2.3481 -0.0394  1.2851
  884MOL0     H19315   6.848   5.202   7.933 -0.5537 -2.1950  0.2837
  884MOL0     H19316   6.918   5.065   7.682 -2.3096 -2.3316 -0.3775
  884MOL0     H19317   6.804   5.004   7.800 -0.8095  0.2568 -1.3435
  884MOL0     H19318   6.790   5.240   7.620  2.6920 -1.6840 -0.0362
  884MOL0     H19319   6.683   5.217   7.760 -1.0729 -2.0976  0.3236
  884MOL0     H19320   6.610   4.990   7.695 -1.5219  0.8560 -0.2178
  884MOL0     H19321   6.708   5.004   7.548 -0.2077  1.7028 -0.3448
  884MOL0     H19322   7.501   5.036   8.135  3.6791  1.4724  3.2424
  884MOL0     H19323   7.723   5.162   8.151  1.5890 -0.1815  0.1606
  884MOL0     H19324   8.040   5.288   8.139 -0.2033 -1.3873  2.0013
  884MOL0     H19325   8.236   5.433   8.208 -0.9076 -0.4954  1.3745
  884MOL0     H19326   9.892   6.267   8.036  0.1696 -0.4614  0.6535
  884MOL0     H19327  10.127   6.331   8.067  1.6162 -1.0056 -1.2659
  884MOL0     H19328  10.469   6.618   7.836 -1.2598 -1.0983  0.3043
  884MOL0     H19329  10.702   6.700   7.838  0.8705 -0.2467 -2.3560
  884MOL0     H19330  10.929   6.610   7.758 -0.7138 -0.9126  1.0623
  884MOL0     H19331  10.936   6.765   7.838  4.0933  1.3142 -1.0042
  884MOL0     H19332  11.130   6.527   7.834  0.7651  1.0247 -0.4534
  884MOL0     H19333  11.159   6.674   7.942 -1.1175 -0.2106  1.0051
  884MOL0     H19334  11.173   6.825   7.744 -1.6300  0.5676  0.5555
  884MOL0     H19335  11.139   6.705   7.632  0.8861 -1.3511 -0.2996
  884MOL0     H19336  11.334   6.561   7.687 -2.1254  0.5440 -0.4646
  884MOL0     H19337  11.371   6.684   7.816  0.1306  3.3253 -0.2149
  884MOL0     H19338  11.520   6.880   7.462 -0.8224 -1.2490 -1.7907
  884MOL0     H19339  10.810   6.375   8.097 -2.6178 -0.8080  2.6008
  884MOL0     H19340  10.584   6.279   8.066 -0.8224 -0.6772 -1.9042
  885MOL0     O19341   2.088   1.591  10.429 -0.1363 -0.1713  0.1039
  885MOL0     C19342   2.173   1.512  10.406  0.0363  0.5616  0.1838
  885MOL0     O19343   2.150   1.375  10.408  0.2517  0.1395 -0.0449
  885MOL0     C19344   2.023   1.329  10.422 -1.1554  0.1200  0.8385
  885MOL0     C19345   1.998   1.217  10.501 -0.7885 -0.5274  0.0130
  885MOL0     C19346   1.868   1.163  10.512 -0.0362 -0.1373  0.4104
  885MOL0     C19347   1.760   1.214  10.441  0.3447  0.6456 -0.0902
  885MOL0     O19348   1.640   1.146  10.439 -0.1604 -0.1132 -0.4826
  885MOL0     C19349   1.518   1.204  10.387 -0.0605  0.4358 -0.1776
  885MOL0     C19350   1.411   1.106  10.413  0.4464  0.1387  0.6946
  885MOL0     C19351   1.281   1.130  10.344  0.4641  0.2807  0.7895
  885MOL0     C19352   1.203   0.996  10.338  1.4933 -0.3284  0.3047
  885MOL0     C19353   1.063   1.000  10.260 -0.2949  0.0418 -1.0497
  885MOL0     C19354   0.989   0.867  10.230 -0.2690  0.1275  0.1060
  885MOL0     C19355   0.860   0.891  10.148  0.8487 -0.2467  0.0617
  885MOL0     C19356   0.897   0.966  10.013  0.8803  0.4642 -0.5147
  885MOL0     N19357   0.780   0.993   9.927 -0.5810  0.1472  0.8053
  885MOL0     C19358   0.709   0.897   9.868 -0.5537  0.0370  0.7584
  885MOL0     C19359   0.604   0.963   9.798 -0.1540 -0.1574  0.3634
  885MOL0     C19360   0.499   0.899   9.718  0.2467  0.7422  0.3662
  885MOL0     C19361   0.382   0.997   9.685  0.1535  0.9179 -0.2480
  885MOL0     C19362   0.297   0.961   9.569  0.1195 -0.0072 -0.1304
  885MOL0     C19363   0.227   0.828   9.590  0.7188 -0.2315  0.4229
  885MOL0     O19364   0.134   0.822   9.483  0.1592  0.4719 -0.1795
  885MOL0     C19365   0.041   0.720   9.502  0.2131  0.5355  0.4864
  885MOL0     C19366   0.020   0.634   9.607  0.8132  0.7642 -0.6971
  885MOL0     C19367  -0.089   0.545   9.615  0.4987  0.1860  0.8587
  885MOL0     C19368  -0.086   0.449   9.734 -0.5083  0.2425  0.1442
  885MOL0     C19369  -0.198   0.563   9.520 -0.1618 -0.7319  0.0886
  885MOL0     C19370  -0.328   0.495   9.534  0.3024  0.8436  0.4028
  885MOL0     O19371  -0.347   0.399   9.628 -0.1964 -0.0755  0.6362
  885MOL0     C19372  -0.461   0.324   9.604  0.6775  1.3956 -0.3779
  885MOL0     C19373  -0.532   0.298   9.727  0.4095 -0.6947 -0.4771
  885MOL0     C19374  -0.660   0.248   9.720  0.1249  0.0131 -0.2554
  885MOL0     C19375  -0.720   0.207   9.600  0.0844  0.5100 -0.6340
  885MOL0     O19376  -0.845   0.162   9.610 -0.0302 -0.3261  0.4274
  885MOL0     C19377  -0.910   0.132   9.481  0.0897  0.7893  0.4414
  885MOL0     C19378  -1.056   0.107   9.518 -0.4228  1.3225 -1.3918
  885MOL0     C19379  -1.140   0.081   9.392  0.1573  0.8266  0.3092
  885MOL0     C19380  -1.279   0.038   9.425 -0.9284  0.1314 -0.4692
  885MOL0     C19381  -1.358  -0.023   9.303  0.3574 -0.3031 -0.1595
  885MOL0     C19382  -1.496  -0.056   9.361 -0.1100  0.0862 -0.2973
  885MOL0     C19383  -1.498  -0.201   9.410  0.4118  0.4679  0.9066
  885MOL0     C19384  -1.627  -0.240   9.473 -0.2960  0.5577 -0.2689
  885MOL0    Cl19385  -1.637  -0.418   9.481 -0.1963 -0.7451 -0.1171
  885MOL0     C19386  -0.644   0.216   9.485  0.3007  0.1222  0.5810
  885MOL0     C19387  -0.518   0.274   9.489 -0.3734  0.7627  0.1400
  885MOL0     O19388  -0.418   0.536   9.462 -0.4032 -0.5306 -1.0387
  885MOL0     C19389  -0.181   0.653   9.411  0.1469  0.5958 -0.6344
  885MOL0     C19390  -0.056   0.723   9.403 -0.3298  0.3121  0.2731
  885MOL0     N19391   0.630   1.101   9.819  0.6866  0.0916  0.8636
  885MOL0     N19392   0.728   1.111   9.903 -0.1886 -0.4389 -1.0861
  885MOL0     C19393   1.789   1.327  10.364  0.8361  0.5050 -1.0204
  885MOL0     C19394   1.909   1.385  10.354  0.0004 -0.5775  0.5745
  885MOL0     C19395   2.318   1.556  10.401 -0.3723  0.2123  0.1438
  885MOL0     C19396   2.425   1.470  10.444  0.6283  0.0905  0.4336
  885MOL0     C19397   2.551   1.508  10.432 -0.7157  0.3099  1.0539
  885MOL0     C19398   2.592   1.636  10.392  0.4384 -0.2515  0.1767
  885MOL0     O19399   2.723   1.677  10.380  0.0892 -0.1302 -0.0854
  885MOL0     C19400   2.822   1.578  10.420 -0.3028 -0.6583  0.6541
  885MOL0     C19401   2.966   1.635  10.401  0.8102 -0.2482 -0.5103
  885MOL0     C19402   2.993   1.636  10.250 -0.2524  0.8741  0.1139
  885MOL0     C19403   3.148   1.649  10.206 -0.4489 -0.0394 -0.8366
  885MOL0     C19404   3.223   1.522  10.219 -0.0186 -0.0476 -0.0727
  885MOL0     C19405   3.297   1.425  10.237  0.6731 -0.1115 -0.5608
  885MOL0     C19406   2.488   1.731  10.352 -0.3170  1.2681  0.5120
  885MOL0     C19407   2.352   1.691  10.356 -0.2684  0.4105 -0.4057
  885MOL0     H19408   2.082   1.170  10.552 -1.1189  1.2130  2.2997
  885MOL0     H19409   1.848   1.081  10.579 -2.2161 -0.0101 -0.0303
  885MOL0     H19410   1.492   1.301  10.431 -0.2787  0.1352  0.3656
  885MOL0     H19411   1.532   1.214  10.279  2.3557  1.0648  0.1258
  885MOL0     H19412   1.439   1.003  10.390  1.5130  0.0778  2.1265
  885MOL0     H19413   1.377   1.094  10.516 -3.3228 -3.7472 -0.7342
  885MOL0     H19414   1.230   1.213  10.394 -1.8183  0.0162 -0.9596
  885MOL0     H19415   1.309   1.163  10.243 -1.4530 -0.3503  0.0123
  885MOL0     H19416   1.267   0.917  10.297  3.4039 -0.3005  3.0158
  885MOL0     H19417   1.171   0.960  10.436 -1.6095  1.0936 -0.0673
  885MOL0     H19418   0.994   1.068  10.310 -0.3941  1.0070 -2.4330
  885MOL0     H19419   1.092   1.049  10.167 -0.2174  0.2525 -0.9159
  885MOL0     H19420   1.045   0.800  10.164 -2.1183  0.2805 -1.7395
  885MOL0     H19421   0.967   0.821  10.327 -1.3552  2.8013  1.2268
  885MOL0     H19422   0.805   0.797  10.139  2.0038 -0.9979  0.5724
  885MOL0     H19423   0.803   0.965  10.205  0.4114 -0.6728  0.1865
  885MOL0     H19424   0.984   0.908   9.979  1.6762  0.2298  1.7389
  885MOL0     H19425   0.932   1.067  10.035 -0.6151  1.8933 -3.9971
  885MOL0     H19426   0.729   0.790   9.877  0.4833  0.3355  2.2408
  885MOL0     H19427   0.544   0.874   9.621 -2.1634 -2.6069 -0.0825
  885MOL0     H19428   0.466   0.805   9.764 -1.5208 -0.4271 -2.9393
  885MOL0     H19429   0.433   1.092   9.665  1.2289  1.6295  4.6942
  885MOL0     H19430   0.325   1.009   9.777  2.0705 -1.5208  1.3879
  885MOL0     H19431   0.367   0.955   9.485  1.1993  0.5059  0.7055
  885MOL0     H19432   0.228   1.042   9.542  0.9374  0.0182 -2.4406
  885MOL0     H19433   0.188   0.827   9.692  1.2214  0.2092  0.6205
  885MOL0     H19434   0.288   0.738   9.589 -0.3566 -0.9764 -0.5257
  885MOL0     H19435   0.089   0.633   9.691 -0.1902 -2.0863  0.1970
  885MOL0     H19436  -0.173   0.466   9.797 -0.6499 -1.5146  0.4762
  885MOL0     H19437  -0.093   0.344   9.703  2.7189 -0.2554  0.7155
  885MOL0     H19438   0.009   0.455   9.788 -0.3006 -1.6567  0.0730
  885MOL0     H19439  -0.478   0.313   9.820  0.1513  3.0032 -0.7924
  885MOL0     H19440  -0.722   0.220   9.805  1.4856  1.8904  1.4526
  885MOL0     H19441  -0.910   0.228   9.429  1.8144  1.5413  1.7254
  885MOL0     H19442  -0.868   0.053   9.419  0.8486  0.6817  1.0707
  885MOL0     H19443  -1.071   0.030   9.594 -3.1102  3.4375  0.3950
  885MOL0     H19444  -1.093   0.192   9.576  1.3895 -0.5363  2.9032
  885MOL0     H19445  -1.090   0.007   9.329 -2.8729 -0.7578 -0.4125
  885MOL0     H19446  -1.145   0.172   9.331 -0.3486  1.6792  1.5851
  885MOL0     H19447  -1.273  -0.044   9.498 -1.7841  0.1334 -0.3851
  885MOL0     H19448  -1.330   0.127   9.462  1.4550  1.2091  0.3951
  885MOL0     H19449  -1.305  -0.102   9.249  1.3338 -0.7186  1.3263
  885MOL0     H19450  -1.373   0.058   9.232  0.7300  0.5378  0.6899
  885MOL0     H19451  -1.518   0.017   9.440  1.3115 -1.9353  2.0975
  885MOL0     H19452  -1.580  -0.051   9.291 -1.6788 -0.4574  1.4549
  885MOL0     H19453  -1.406  -0.219   9.465  1.2055  0.8395 -0.2642
  885MOL0     H19454  -1.482  -0.263   9.322  1.2429 -0.3739  1.6381
  885MOL0     H19455  -1.724  -0.216   9.429 -1.1463 -1.8427  0.1634
  885MOL0     H19456  -1.628  -0.180   9.565 -3.3523  1.3818 -0.7210
  885MOL0     H19457  -0.676   0.184   9.387 -0.3803  0.1295  0.7987
  885MOL0     H19458  -0.454   0.279   9.401 -2.1732 -0.2967 -1.3020
  885MOL0     H19459  -0.266   0.673   9.347  0.3544  1.4691 -0.6445
  885MOL0     H19460  -0.037   0.805   9.335  0.5633  1.6382  2.0398
  885MOL0     H19461   1.709   1.377  10.309 -3.9350 -2.2357  2.6120
  885MOL0     H19462   1.923   1.470  10.288  0.4650 -2.4083 -1.8023
  885MOL0     H19463   2.413   1.368  10.482 -1.9138  0.3894  0.6185
  885MOL0     H19464   2.626   1.440  10.471  1.1604  2.0319  0.6558
  885MOL0     H19465   2.826   1.562  10.528  3.5193  0.3685  0.8066
  885MOL0     H19466   2.812   1.487  10.361  2.0314 -0.7532  0.3053
  885MOL0     H19467   3.038   1.578  10.461  1.0226  1.6254  1.1057
  885MOL0     H19468   2.955   1.736  10.441 -1.1758  0.0860 -1.7829
  885MOL0     H19469   2.929   1.715  10.209  0.0313  0.6864 -0.7056
  885MOL0     H19470   2.960   1.540  10.211 -0.3784  0.7075  0.6340
  885MOL0     H19471   3.205   1.709  10.278  1.6755 -3.6601  0.7503
  885MOL0     H19472   3.161   1.678  10.101 -1.8740 -1.6604 -1.5097
  885MOL0     H19473   3.359   1.339  10.256  2.7642  1.4576  0.1414
  885MOL0     H19474   2.526   1.827  10.320  3.1740 -0.3895 -0.8499
  885MOL0     H19475   2.271   1.759  10.330 -0.7329 -0.6216 -1.7729
  886MOL0     O19476   8.385   7.494   7.789 -0.4546 -0.1393  0.2061
  886MOL0     C19477   8.398   7.616   7.797 -0.2226  0.0316 -0.3381
  886MOL0     O19478   8.299   7.704   7.767  0.3608  0.0282 -0.6067
  886MOL0     C19479   8.173   7.654   7.724  0.8152  0.1698  0.2752
  886MOL0     C19480   8.104   7.536   7.765 -0.3539  0.4273  0.0189
  886MOL0     C19481   7.973   7.515   7.712  0.3232  0.4688  0.3952
  886MOL0     C19482   7.922   7.601   7.621  0.0644 -0.4323  0.2017
  886MOL0     O19483   7.800   7.596   7.564  0.7022  0.6584 -0.2248
  886MOL0     C19484   7.747   7.467   7.541  0.8281 -0.0531  0.3766
  886MOL0     C19485   7.624   7.475   7.449 -0.0695  0.3664  0.2596
  886MOL0     C19486   7.522   7.362   7.459 -0.3166 -0.6060 -0.8053
  886MOL0     C19487   7.454   7.355   7.598 -0.0810 -0.5150  0.5875
  886MOL0     C19488   7.303   7.332   7.576 -0.6156 -0.6637 -0.3385
  886MOL0     C19489   7.263   7.193   7.522  0.0345  0.2613  0.7621
  886MOL0     C19490   7.114   7.158   7.548 -0.4996 -0.7329 -0.7173
  886MOL0     C19491   7.013   7.251   7.476  0.2384 -1.0071  0.1551
  886MOL0     N19492   6.886   7.198   7.501 -0.1898 -0.4857 -0.4227
  886MOL0     C19493   6.830   7.187   7.627 -1.1162 -0.1751 -0.3124
  886MOL0     C19494   6.703   7.163   7.611 -0.3050  0.1528  0.4505
  886MOL0     C19495   6.607   7.127   7.721  0.6643 -0.2869 -0.8496
  886MOL0     C19496   6.495   7.023   7.692  0.2289  0.2357  0.2046
  886MOL0     C19497   6.378   7.087   7.615 -0.4995  0.1734 -0.4040
  886MOL0     C19498   6.293   6.969   7.555  0.4050  0.4394 -0.5939
  886MOL0     O19499   6.240   6.892   7.664  0.2412 -0.2928  1.0446
  886MOL0     C19500   6.168   6.781   7.622 -0.4402 -0.0679 -1.0567
  886MOL0     C19501   6.197   6.713   7.504  0.1480  0.0737 -0.7776
  886MOL0     C19502   6.114   6.601   7.472 -0.0720 -0.1312 -0.9603
  886MOL0     C19503   6.170   6.522   7.356  0.5105 -0.3065  0.0197
  886MOL0     C19504   5.990   6.567   7.549 -0.7606  0.5977 -0.3387
  886MOL0     C19505   5.901   6.452   7.520  0.0691  0.1779  0.9275
  886MOL0     O19506   5.786   6.438   7.600 -0.0914 -0.8026  0.5168
  886MOL0     C19507   5.728   6.316   7.586 -0.4670  0.1011  0.6001
  886MOL0     C19508   5.633   6.291   7.485 -0.0787  0.8841 -0.1496
  886MOL0     C19509   5.593   6.164   7.459 -0.8186  0.8043  0.6462
  886MOL0     C19510   5.642   6.062   7.537 -0.0921 -0.5734 -0.0162
  886MOL0     O19511   5.599   5.934   7.512  0.7171 -0.3790 -0.9099
  886MOL0     C19512   5.555   5.852   7.631 -0.5243  1.1332  0.5575
  886MOL0     C19513   5.451   5.750   7.586  0.4739  0.5480  0.8080
  886MOL0     C19514   5.332   5.815   7.510 -0.0228 -0.2074  0.6473
  886MOL0     C19515   5.207   5.720   7.497 -0.0005  0.5434 -0.3782
  886MOL0     C19516   5.094   5.780   7.421  0.5308  0.4279  0.3943
  886MOL0     C19517   4.952   5.698   7.444 -0.9193  0.0878  0.0083
  886MOL0     C19518   4.822   5.782   7.455 -0.3894  0.1430 -0.5461
  886MOL0     C19519   4.693   5.700   7.474  0.1840  0.3077  0.6726
  886MOL0    Cl19520   4.680   5.622   7.631 -0.5198 -0.2843 -0.2168
  886MOL0     C19521   5.723   6.085   7.647  0.1388 -0.4281  0.3953
  886MOL0     C19522   5.764   6.218   7.674 -0.3479  0.3799  0.4459
  886MOL0     O19523   5.929   6.382   7.419 -0.1001  0.3850  0.5107
  886MOL0     C19524   5.975   6.641   7.666  0.2349  0.4871  0.2835
  886MOL0     C19525   6.065   6.740   7.704  0.5485 -0.3292 -0.4513
  886MOL0     N19526   6.674   7.143   7.474  0.8937  0.1473  0.1599
  886MOL0     N19527   6.789   7.161   7.407  0.3494 -0.3553 -0.1414
  886MOL0     C19528   7.985   7.720   7.589  0.1588  0.0135  0.3394
  886MOL0     C19529   8.112   7.744   7.632  0.4498  0.1196  0.6460
  886MOL0     C19530   8.528   7.665   7.841  0.3218 -0.1380 -1.1199
  886MOL0     C19531   8.556   7.807   7.842 -0.4233 -0.2322 -0.1488
  886MOL0     C19532   8.678   7.859   7.898  0.5252 -0.2198 -0.1255
  886MOL0     C19533   8.780   7.767   7.940 -0.0920  0.1991  0.2046
  886MOL0     O19534   8.895   7.817   7.990 -0.0909 -0.0436 -0.7949
  886MOL0     C19535   8.889   7.835   8.126 -0.6632 -0.5070 -0.3593
  886MOL0     C19536   9.018   7.887   8.199  0.1301  0.3080  0.0678
  886MOL0     C19537   9.051   8.026   8.156 -0.0637 -0.5458  0.9108
  886MOL0     C19538   9.185   8.060   8.203 -1.5551  0.6679  0.0649
  886MOL0     C19539   9.279   7.984   8.120 -0.5348 -0.2177 -0.2284
  886MOL0     C19540   9.354   7.923   8.043  0.1283  0.9350  0.0668
  886MOL0     C19541   8.756   7.629   7.940 -0.0612 -0.8307  0.1663
  886MOL0     C19542   8.632   7.584   7.894 -0.8591 -0.4525 -0.2261
  886MOL0     H19543   8.141   7.472   7.844  0.0808 -2.9101 -2.6658
  886MOL0     H19544   7.915   7.430   7.747 -0.2524  0.4574 -0.5515
  886MOL0     H19545   7.820   7.397   7.499  0.3351 -0.4137  0.1140
  886MOL0     H19546   7.716   7.430   7.639 -0.2184 -0.6065 -0.1471
  886MOL0     H19547   7.579   7.573   7.467  2.1767  1.2652  1.3802
  886MOL0     H19548   7.658   7.483   7.345 -0.5219 -0.3454  0.0493
  886MOL0     H19549   7.460   7.373   7.369  1.6295  1.1202 -1.9936
  886MOL0     H19550   7.566   7.262   7.452  0.2943 -0.8200  3.4990
  886MOL0     H19551   7.495   7.271   7.655  1.8652  0.1222  0.1755
  886MOL0     H19552   7.459   7.448   7.654 -3.1555 -0.5554  1.0958
  886MOL0     H19553   7.254   7.341   7.674 -0.4920 -0.9915 -0.2445
  886MOL0     H19554   7.259   7.412   7.516 -3.2622  0.6219  2.9714
  886MOL0     H19555   7.283   7.202   7.415 -0.4821  2.5237  0.8029
  886MOL0     H19556   7.328   7.114   7.560  0.3620 -0.6435 -1.5282
  886MOL0     H19557   7.112   7.059   7.501  1.3566 -0.5779 -1.1905
  886MOL0     H19558   7.096   7.152   7.656 -1.0870 -0.5295 -0.8021
  886MOL0     H19559   7.030   7.255   7.368  0.9949 -0.6494  0.2825
  886MOL0     H19560   7.021   7.353   7.514 -4.1380 -0.6653  0.6595
  886MOL0     H19561   6.872   7.193   7.727 -0.8832  0.3740 -0.4407
  886MOL0     H19562   6.664   7.082   7.803 -1.0608  0.6741  0.9738
  886MOL0     H19563   6.564   7.217   7.765 -2.0726 -1.4693 -0.8752
  886MOL0     H19564   6.454   6.975   7.781 -0.0089 -2.3235 -1.1902
  886MOL0     H19565   6.550   6.946   7.636  1.9115  1.1331  0.5324
  886MOL0     H19566   6.413   7.158   7.540  1.2445  0.2517  0.4433
  886MOL0     H19567   6.311   7.144   7.680 -1.5777 -0.5198 -0.8692
  886MOL0     H19568   6.365   6.913   7.494  3.0970  0.1698  2.5708
  886MOL0     H19569   6.215   7.026   7.503 -2.1319 -1.3090  1.0829
  886MOL0     H19570   6.279   6.749   7.444  1.9094  0.5964  1.7662
  886MOL0     H19571   6.250   6.575   7.304 -0.1251  1.0270  0.3549
  886MOL0     H19572   6.205   6.425   7.393  1.9294 -0.4085 -1.4594
  886MOL0     H19573   6.082   6.512   7.291 -1.7462  3.2397  2.1916
  886MOL0     H19574   5.602   6.375   7.424 -0.9994  0.4246 -0.3251
  886MOL0     H19575   5.524   6.136   7.381  0.7512 -0.3940 -0.3753
  886MOL0     H19576   5.647   5.802   7.662 -1.4356 -1.5258 -0.7718
  886MOL0     H19577   5.510   5.911   7.712  0.8865  0.1827  2.0964
  886MOL0     H19578   5.501   5.684   7.514  1.0073  0.3273  1.3674
  886MOL0     H19579   5.419   5.690   7.672 -0.2519 -0.1444  0.0843
  886MOL0     H19580   5.362   5.839   7.407  1.6104 -2.4281  0.5226
  886MOL0     H19581   5.312   5.909   7.562 -1.7009 -1.3570  2.1961
  886MOL0     H19582   5.234   5.632   7.439  0.8032 -0.1098  0.9381
  886MOL0     H19583   5.169   5.681   7.592  1.8843 -2.2953 -0.6522
  886MOL0     H19584   5.119   5.783   7.314 -0.6560 -1.4374  0.0038
  886MOL0     H19585   5.086   5.877   7.470 -0.3189  0.4041  0.3234
  886MOL0     H19586   4.940   5.632   7.357 -0.5755 -1.3183  0.9787
  886MOL0     H19587   4.957   5.623   7.524  0.3919 -1.5963 -1.5527
  886MOL0     H19588   4.822   5.831   7.358  2.5798  0.8443 -0.2877
  886MOL0     H19589   4.828   5.856   7.535 -2.3656  0.8065 -0.9634
  886MOL0     H19590   4.699   5.622   7.397  3.4894  0.2217  0.8792
  886MOL0     H19591   4.604   5.755   7.443 -1.0015 -1.5988  0.5069
  886MOL0     H19592   5.748   6.002   7.711  0.5370 -0.9563 -0.4374
  886MOL0     H19593   5.834   6.239   7.754 -1.8418  0.1133  1.8673
  886MOL0     H19594   5.884   6.625   7.724  1.0052 -0.4377  1.2956
  886MOL0     H19595   6.062   6.798   7.795 -2.0107 -0.5377 -0.3167
  886MOL0     H19596   7.937   7.795   7.528  1.5275  1.1707  0.6300
  886MOL0     H19597   8.172   7.829   7.599  3.3650 -1.5570  1.2657
  886MOL0     H19598   8.480   7.878   7.812 -1.2710  0.0085  2.3519
  886MOL0     H19599   8.696   7.965   7.913  1.2089 -0.7477  4.0026
  886MOL0     H19600   8.812   7.910   8.149  1.6484  1.8892 -0.0114
  886MOL0     H19601   8.860   7.739   8.168  0.8164 -0.2447  1.3384
  886MOL0     H19602   9.098   7.815   8.178 -1.1033 -1.6702  1.8073
  886MOL0     H19603   9.008   7.877   8.307 -0.6192  0.4740  0.0184
  886MOL0     H19604   8.975   8.089   8.204  1.2859  2.2239 -0.3539
  886MOL0     H19605   9.047   8.040   8.048  0.3171 -0.3018  0.9264
  886MOL0     H19606   9.201   8.015   8.301 -1.6908 -1.5002 -0.8388
  886MOL0     H19607   9.213   8.165   8.195  0.9973 -0.0742 -2.4563
  886MOL0     H19608   9.418   7.880   7.969  1.9056  1.3843  1.2747
  886MOL0     H19609   8.833   7.567   7.984  0.5104  0.1587  0.5719
  886MOL0     H19610   8.626   7.477   7.910 -2.8081 -0.4874 -0.8962
  887MOL0     O19611   6.818  10.111   8.701 -0.2630  0.1158  0.3574
  887MOL0     C19612   6.866   9.998   8.670 -0.3677  0.1279  0.1329
  887MOL0     O19613   6.798   9.878   8.634 -0.0073  0.5936  0.3359
  887MOL0     C19614   6.664   9.867   8.647  0.0479  0.3074 -0.8463
  887MOL0     C19615   6.598   9.790   8.549  0.0636 -0.4115 -0.4110
  887MOL0     C19616   6.457   9.785   8.541  0.3142 -0.7227  0.4646
  887MOL0     C19617   6.381   9.858   8.628 -0.2586  0.4443  0.1195
  887MOL0     O19618   6.247   9.867   8.603 -0.1142 -0.2053 -0.8321
  887MOL0     C19619   6.170   9.756   8.658 -0.0704 -0.0356 -0.5636
  887MOL0     C19620   6.113   9.804   8.790  0.2748  0.0885 -0.1032
  887MOL0     C19621   5.997   9.713   8.841  0.3389 -0.8434  0.6369
  887MOL0     C19622   5.868   9.774   8.784 -0.1244  0.3850 -0.3131
  887MOL0     C19623   5.751   9.697   8.842 -0.1191  0.1015 -0.0729
  887MOL0     C19624   5.627   9.717   8.762  0.6605 -0.0169 -0.4559
  887MOL0     C19625   5.612   9.667   8.622 -0.1246 -0.1049  0.6157
  887MOL0     C19626   5.678   9.535   8.600 -0.4693 -0.3337 -1.4408
  887MOL0     N19627   5.613   9.427   8.681 -0.1043  0.3647 -0.2748
  887MOL0     C19628   5.477   9.411   8.691 -0.1572 -0.1388  0.3093
  887MOL0     C19629   5.457   9.319   8.787 -0.3011  0.0828  0.4855
  887MOL0     C19630   5.325   9.264   8.833  0.5724 -0.4733 -0.3174
  887MOL0     C19631   5.278   9.336   8.956  0.3637  0.3900 -0.2919
  887MOL0     C19632   5.160   9.260   9.022 -0.7043  0.0615  0.2421
  887MOL0     C19633   5.050   9.221   8.927  0.6318 -0.8176 -0.0997
  887MOL0     O19634   5.005   9.334   8.850  1.0146 -0.7532  0.5242
  887MOL0     C19635   4.874   9.381   8.845 -0.1126  0.9024 -0.3766
  887MOL0     C19636   4.767   9.289   8.838  0.1881 -0.0738 -0.4076
  887MOL0     C19637   4.635   9.326   8.831 -0.8693 -0.0317 -0.1894
  887MOL0     C19638   4.536   9.220   8.803  0.3192 -0.0846  0.5196
  887MOL0     C19639   4.602   9.459   8.855 -0.0138 -0.2819 -0.9790
  887MOL0     C19640   4.459   9.506   8.868  0.5168  0.1871 -1.0803
  887MOL0     O19641   4.448   9.641   8.910  0.1009  0.4149  0.0744
  887MOL0     C19642   4.322   9.694   8.934 -0.6004  1.3343  0.8270
  887MOL0     C19643   4.257   9.668   9.051 -0.4720  0.1953  0.4498
  887MOL0     C19644   4.130   9.729   9.074 -0.6152  1.0264 -0.1655
  887MOL0     C19645   4.070   9.812   8.978  0.1399 -0.8821 -0.3543
  887MOL0     O19646   3.945   9.861   9.010  0.2728 -0.3933  0.3461
  887MOL0     C19647   3.886   9.957   8.913  0.0965  0.8276  0.6327
  887MOL0     C19648   3.759  10.003   8.983 -0.2626  0.2287 -0.7290
  887MOL0     C19649   3.638   9.907   8.963 -1.2052 -0.1115 -0.9520
  887MOL0     C19650   3.520   9.968   9.044  0.6618  0.5307  0.0531
  887MOL0     C19651   3.395   9.880   9.025  0.6836  0.8548 -0.7119
  887MOL0     C19652   3.266   9.935   9.085  0.2578  0.0844  0.2708
  887MOL0     C19653   3.147   9.843   9.073  1.1067 -0.3423  0.0801
  887MOL0     C19654   3.013   9.918   9.100 -0.7278  0.1922 -0.0037
  887MOL0    Cl19655   3.012   9.995   9.266 -0.3648  0.4156  0.5155
  887MOL0     C19656   4.141   9.846   8.860  0.6960 -1.0178  0.1165
  887MOL0     C19657   4.268   9.784   8.844 -0.0761 -0.0844  0.3986
  887MOL0     O19658   4.370   9.448   8.807 -0.5900  0.4833  0.3375
  887MOL0     C19659   4.713   9.551   8.862  0.4241  0.4390  0.3833
  887MOL0     C19660   4.845   9.512   8.855 -0.4720 -0.8876  0.7350
  887MOL0     N19661   5.577   9.288   8.844 -0.6162  0.1673 -0.3882
  887MOL0     N19662   5.669   9.356   8.784 -0.6813 -0.0508 -0.2113
  887MOL0     C19663   6.448   9.929   8.734  0.0989  0.0234  0.0997
  887MOL0     C19664   6.584   9.936   8.745  0.0519 -0.3424 -0.5563
  887MOL0     C19665   7.008   9.982   8.690  0.3716 -0.0780  0.4830
  887MOL0     C19666   7.074   9.869   8.623 -0.1246  0.1131 -0.1347
  887MOL0     C19667   7.210   9.852   8.645 -0.5711 -0.2829 -0.3664
  887MOL0     C19668   7.290   9.934   8.729  0.2378  0.6392 -0.2592
  887MOL0     O19669   7.429   9.917   8.760  0.8456  0.5370  0.3354
  887MOL0     C19670   7.499   9.841   8.659  0.7263  0.2702 -0.8062
  887MOL0     C19671   7.637   9.882   8.660  0.2555 -0.7754  0.4691
  887MOL0     C19672   7.695   9.874   8.519  0.5488  0.2829 -0.4362
  887MOL0     C19673   7.823   9.952   8.484 -0.5162 -0.1200 -0.0076
  887MOL0     C19674   7.933   9.882   8.561 -0.1149 -0.6817 -0.0803
  887MOL0     C19675   8.023   9.840   8.623 -0.9493 -0.0250 -0.6125
  887MOL0     C19676   7.220  10.046   8.781 -0.5117 -0.3141  0.6088
  887MOL0     C19677   7.083  10.067   8.770  0.8289  0.1523  0.3642
  887MOL0     H19678   6.655   9.736   8.474 -1.5347  0.9698 -2.7537
  887MOL0     H19679   6.414   9.713   8.472 -0.0788 -0.9878  0.9718
  887MOL0     H19680   6.093   9.732   8.584 -0.4772  0.5179 -0.3259
  887MOL0     H19681   6.236   9.669   8.664  2.1682  1.6521  1.1588
  887MOL0     H19682   6.205   9.811   8.849  1.0680 -1.5955 -1.0591
  887MOL0     H19683   6.074   9.906   8.784  2.4334  1.0772  1.3540
  887MOL0     H19684   6.019   9.615   8.799  1.9344  0.0829 -0.7893
  887MOL0     H19685   5.990   9.709   8.950 -0.3469 -2.4431  0.5703
  887MOL0     H19686   5.861   9.880   8.810 -0.0127  0.6114 -1.1925
  887MOL0     H19687   5.861   9.773   8.675 -1.1862 -0.8783 -0.2516
  887MOL0     H19688   5.774   9.590   8.852  1.6524  0.5575  1.0645
  887MOL0     H19689   5.742   9.729   8.946  0.1701 -0.9521  0.2940
  887MOL0     H19690   5.543   9.684   8.824  0.8826 -0.9962 -0.6597
  887MOL0     H19691   5.606   9.822   8.744  0.4521 -0.1885 -1.2395
  887MOL0     H19692   5.503   9.667   8.610 -0.3462  2.6550  1.9427
  887MOL0     H19693   5.657   9.741   8.556 -4.3486  1.1133 -1.2902
  887MOL0     H19694   5.784   9.543   8.623 -0.5560 -0.4235 -1.0062
  887MOL0     H19695   5.673   9.514   8.493 -3.0078 -2.5030 -0.9906
  887MOL0     H19696   5.401   9.466   8.636 -0.2761  0.2036  0.8104
  887MOL0     H19697   5.249   9.252   8.755 -0.7214 -3.1085  1.2153
  887MOL0     H19698   5.347   9.161   8.864 -1.1886 -0.6730  0.3599
  887MOL0     H19699   5.241   9.435   8.927 -2.4624 -0.8710 -1.3412
  887MOL0     H19700   5.358   9.341   9.031 -0.2537 -0.1008  0.4075
  887MOL0     H19701   5.124   9.331   9.097  2.2612 -0.7759  2.6303
  887MOL0     H19702   5.195   9.170   9.073 -2.1366 -1.0680 -0.6695
  887MOL0     H19703   4.968   9.180   8.986 -0.5968  3.1553  1.2206
  887MOL0     H19704   5.071   9.141   8.854 -3.4704 -0.9924 -1.3069
  887MOL0     H19705   4.799   9.186   8.827  0.3520  0.0988 -1.8055
  887MOL0     H19706   4.468   9.205   8.887 -1.8747  1.1599 -0.9507
  887MOL0     H19707   4.476   9.253   8.718  0.9800 -1.2974 -0.4396
  887MOL0     H19708   4.596   9.135   8.770 -1.6177 -1.0550 -0.6056
  887MOL0     H19709   4.304   9.594   9.115  0.7726 -1.4279 -2.1917
  887MOL0     H19710   4.074   9.688   9.157 -2.3606  0.1844 -1.6903
  887MOL0     H19711   3.958  10.039   8.901  3.1023 -1.8852 -1.9856
  887MOL0     H19712   3.857   9.919   8.814  0.4645  0.6426  0.5938
  887MOL0     H19713   3.773  10.016   9.091 -2.2685 -1.3885 -0.2065
  887MOL0     H19714   3.735  10.099   8.935  0.2959  0.7868  0.0679
  887MOL0     H19715   3.664   9.809   9.003  0.3601 -0.3600 -2.4474
  887MOL0     H19716   3.615   9.884   8.858  0.7148 -2.5205 -0.9105
  887MOL0     H19717   3.546   9.966   9.151 -2.4358  1.1449  0.9101
  887MOL0     H19718   3.498  10.072   9.017 -2.5296  0.0732  0.5771
  887MOL0     H19719   3.415   9.782   9.069  0.8397  1.1065 -0.2153
  887MOL0     H19720   3.377   9.873   8.917 -0.9572  2.9104 -0.6175
  887MOL0     H19721   3.274   9.954   9.192  0.2071 -0.3064  0.3436
  887MOL0     H19722   3.245  10.037   9.052 -0.5295  0.0417  0.6200
  887MOL0     H19723   3.148   9.756   9.140  0.7463  0.3411  0.9783
  887MOL0     H19724   3.146   9.803   8.971 -2.3168  1.6679 -0.8459
  887MOL0     H19725   2.921   9.859   9.091 -1.2343  0.2382  3.6125
  887MOL0     H19726   3.005   9.999   9.028 -0.3042  0.6345  0.4388
  887MOL0     H19727   4.089   9.910   8.790  0.5926 -0.4188  0.7311
  887MOL0     H19728   4.318   9.804   8.750 -0.4371  2.5515  0.7069
  887MOL0     H19729   4.687   9.656   8.870 -0.0409  0.3400  0.1592
  887MOL0     H19730   4.924   9.586   8.849 -0.7728 -0.6891 -1.7238
  887MOL0     H19731   6.394   9.993   8.802 -0.0804  2.4889 -2.1853
  887MOL0     H19732   6.639   9.995   8.818  0.4841  1.3263 -2.1712
  887MOL0     H19733   7.018   9.807   8.554  0.6280 -0.6924 -0.0249
  887MOL0     H19734   7.259   9.774   8.587  3.7099  2.4055 -0.8674
  887MOL0     H19735   7.484   9.734   8.675  0.5300  0.3195 -0.6569
  887MOL0     H19736   7.460   9.856   8.558  3.6766 -0.0136 -2.0705
  887MOL0     H19737   7.706   9.821   8.719  0.1040 -1.5767 -0.1652
  887MOL0     H19738   7.639   9.987   8.693 -0.6766 -0.3854 -0.6387
  887MOL0     H19739   7.613   9.925   8.466 -2.6742 -0.7092  3.1310
  887MOL0     H19740   7.687   9.773   8.477 -3.1613  0.0935  0.3561
  887MOL0     H19741   7.812  10.057   8.511  0.8082  0.0407  0.0002
  887MOL0     H19742   7.834   9.944   8.376 -1.9074 -0.3059 -0.1542
  887MOL0     H19743   8.111   9.796   8.665  0.0878  1.4057 -1.2065
  887MOL0     H19744   7.268  10.124   8.840  2.8193 -1.6181 -0.1697
  887MOL0     H19745   7.036  10.157   8.811 -0.0740 -0.0746 -0.1404
  888MOL0     O19746   6.317   7.416   4.503 -0.0837 -0.4655 -0.9600
  888MOL0     C19747   6.389   7.399   4.406  0.0070 -0.7224  0.3345
  888MOL0     O19748   6.347   7.387   4.279 -0.3685  0.9598 -0.1887
  888MOL0     C19749   6.213   7.382   4.256  0.3112  0.0241 -0.6298
  888MOL0     C19750   6.130   7.490   4.283 -0.0839 -0.0243  0.3873
  888MOL0     C19751   5.998   7.487   4.235 -0.2468  0.3989 -0.6516
  888MOL0     C19752   5.949   7.371   4.178  0.5375 -0.7680 -0.0847
  888MOL0     O19753   5.813   7.358   4.166  0.2023  0.4069 -0.2644
  888MOL0     C19754   5.756   7.266   4.073 -0.0696  0.4782  0.1608
  888MOL0     C19755   5.605   7.279   4.044 -0.5114 -0.1077 -0.8907
  888MOL0     C19756   5.567   7.413   4.001  0.1261 -1.0414  0.0936
  888MOL0     C19757   5.518   7.500   4.119 -0.5935 -0.6544  0.1740
  888MOL0     C19758   5.460   7.631   4.063  0.2578  0.4776 -0.2036
  888MOL0     C19759   5.571   7.723   4.006  0.2553  0.2272 -0.3031
  888MOL0     C19760   5.638   7.815   4.116  0.2132 -0.0990  0.3438
  888MOL0     C19761   5.772   7.887   4.072  0.4993 -0.1103  0.0122
  888MOL0     N19762   5.805   7.999   4.163 -0.4405 -0.0614 -0.2529
  888MOL0     C19763   5.917   8.010   4.247 -0.1486  0.0140  0.2085
  888MOL0     C19764   5.903   8.133   4.293  0.2370 -0.0675  0.8796
  888MOL0     C19765   5.996   8.208   4.373 -0.4112 -0.6882 -0.3435
  888MOL0     C19766   5.975   8.178   4.523 -0.1318 -0.5062 -0.1038
  888MOL0     C19767   5.857   8.245   4.586 -0.1413 -0.3855 -0.1814
  888MOL0     C19768   5.853   8.245   4.737 -0.5889  0.2517  0.3351
  888MOL0     O19769   5.893   8.107   4.780 -0.4058 -0.3212  0.5625
  888MOL0     C19770   5.801   8.012   4.815 -0.0508 -0.0013  0.6743
  888MOL0     C19771   5.844   7.886   4.850 -0.7938  0.2385 -0.3769
  888MOL0     C19772   5.766   7.784   4.894  0.1640  0.6956 -0.7818
  888MOL0     C19773   5.847   7.663   4.938  0.1830  0.1954  0.6088
  888MOL0     C19774   5.626   7.800   4.900 -0.3036  0.1131  0.7453
  888MOL0     C19775   5.535   7.692   4.937 -0.0025 -1.0243  0.4875
  888MOL0     O19776   5.566   7.561   4.917 -0.3091  0.0863 -0.3844
  888MOL0     C19777   5.483   7.458   4.938  0.6829  0.5183  0.1832
  888MOL0     C19778   5.344   7.460   4.957  0.7090 -0.4231 -0.0931
  888MOL0     C19779   5.265   7.344   4.970  0.3597  0.1349  0.0270
  888MOL0     C19780   5.317   7.218   4.949  0.0013 -0.4788 -0.5662
  888MOL0     O19781   5.229   7.104   4.950  0.2926 -0.0832  0.6510
  888MOL0     C19782   5.269   6.980   4.889 -0.4183  0.5667 -0.1601
  888MOL0     C19783   5.153   6.910   4.804 -0.6331  0.1552 -1.2728
  888MOL0     C19784   5.023   6.869   4.880 -0.3139  0.0255 -0.2999
  888MOL0     C19785   4.894   6.890   4.803  0.5586 -0.9870  0.8892
  888MOL0     C19786   4.855   7.036   4.770  0.0905 -0.0918  0.7825
  888MOL0     C19787   4.709   7.038   4.725 -0.6444 -0.1026 -0.4028
  888MOL0     C19788   4.659   7.183   4.697  0.6188  0.2036 -0.7142
  888MOL0     C19789   4.523   7.197   4.632 -0.1771  0.0166  0.3487
  888MOL0    Cl19790   4.496   7.363   4.576  0.3314  0.5004 -0.2039
  888MOL0     C19791   5.452   7.208   4.912 -0.0553 -0.3400 -0.6240
  888MOL0     C19792   5.527   7.329   4.910 -1.0836 -0.3264  0.4957
  888MOL0     O19793   5.437   7.733   5.001  0.3254  0.1453  0.9429
  888MOL0     C19794   5.574   7.929   4.875 -0.3350  0.2043 -0.4111
  888MOL0     C19795   5.657   8.026   4.828 -0.3179 -0.4448 -0.6095
  888MOL0     N19796   5.787   8.189   4.250  0.4813  0.1520 -0.2143
  888MOL0     N19797   5.729   8.114   4.181 -0.7037 -0.0643 -0.2086
  888MOL0     C19798   6.036   7.265   4.156  0.1883 -0.1018  1.2540
  888MOL0     C19799   6.166   7.270   4.192  0.4945 -0.5223  0.2398
  888MOL0     C19800   6.531   7.373   4.443  0.4349  0.0151  0.5416
  888MOL0     C19801   6.575   7.402   4.569 -0.2021 -0.1445  0.5111
  888MOL0     C19802   6.704   7.398   4.606 -0.0604  1.0591  0.3210
  888MOL0     C19803   6.801   7.361   4.506 -0.2540 -0.2596 -0.1165
  888MOL0     O19804   6.942   7.369   4.534  0.2255 -0.4583  0.3626
  888MOL0     C19805   6.989   7.384   4.667  0.6875  0.7422  0.2509
  888MOL0     C19806   7.129   7.350   4.656  0.5959  0.1589 -0.2983
  888MOL0     C19807   7.218   7.463   4.594 -0.3400  0.0387 -0.8508
  888MOL0     C19808   7.359   7.412   4.560  1.3141 -0.7009 -0.6653
  888MOL0     C19809   7.433   7.363   4.682 -0.3556 -0.6531 -0.0481
  888MOL0     C19810   7.478   7.342   4.790 -0.0756 -0.1848  0.3891
  888MOL0     C19811   6.755   7.322   4.373  0.0275 -0.2614 -0.3734
  888MOL0     C19812   6.620   7.336   4.347 -0.8824  0.1067  0.1589
  888MOL0     H19813   6.168   7.583   4.326  1.2134 -0.8670  1.1060
  888MOL0     H19814   5.933   7.572   4.253 -2.5128 -1.4778  0.6724
  888MOL0     H19815   5.807   7.301   3.983  0.5892  1.7820  1.0166
  888MOL0     H19816   5.772   7.159   4.088  1.6688  0.9792  2.3176
  888MOL0     H19817   5.575   7.206   3.968 -0.5663 -1.4935  0.4130
  888MOL0     H19818   5.550   7.239   4.129  1.2333 -0.8191 -0.0383
  888MOL0     H19819   5.651   7.464   3.952 -0.9742  0.6923 -0.0511
  888MOL0     H19820   5.484   7.410   3.931  0.1063  2.4726 -0.2321
  888MOL0     H19821   5.451   7.448   4.189 -1.5526  1.4709  0.8999
  888MOL0     H19822   5.606   7.528   4.178 -0.5967  0.8214 -0.5052
  888MOL0     H19823   5.396   7.603   3.978  1.0648 -0.6158 -0.4686
  888MOL0     H19824   5.402   7.680   4.142 -1.0525 -3.3404  1.3983
  888MOL0     H19825   5.657   7.673   3.962  2.7912  2.4683  1.7835
  888MOL0     H19826   5.529   7.793   3.933 -0.1373  1.0055  0.6573
  888MOL0     H19827   5.554   7.882   4.135 -0.9947 -1.5597  0.2900
  888MOL0     H19828   5.650   7.757   4.208 -1.4703  1.7933  1.8302
  888MOL0     H19829   5.748   7.927   3.973 -0.8666  0.9013  0.7151
  888MOL0     H19830   5.852   7.814   4.064 -1.4678 -2.2417 -1.3475
  888MOL0     H19831   6.006   7.949   4.262  0.2661  0.4492 -0.4422
  888MOL0     H19832   6.100   8.184   4.354  0.4058  1.5924  0.8686
  888MOL0     H19833   5.989   8.312   4.340  0.7427 -0.3852  0.3326
  888MOL0     H19834   6.061   8.219   4.577 -2.5763  3.7783  1.0302
  888MOL0     H19835   5.975   8.070   4.537 -1.0143 -0.3274  1.5341
  888MOL0     H19836   5.774   8.185   4.547 -1.2392  1.4175 -0.7260
  888MOL0     H19837   5.854   8.347   4.548  2.6609 -0.7109 -1.5801
  888MOL0     H19838   5.755   8.276   4.776  0.0624  0.5528  1.7930
  888MOL0     H19839   5.934   8.307   4.776 -1.0315 -0.0967  1.8494
  888MOL0     H19840   5.951   7.874   4.839 -0.3443  1.1181  2.3370
  888MOL0     H19841   5.826   7.651   5.045 -0.1679 -0.6624  0.4550
  888MOL0     H19842   5.823   7.571   4.884  0.7464  0.7214 -0.5781
  888MOL0     H19843   5.954   7.686   4.935 -0.1765  1.9036 -0.4914
  888MOL0     H19844   5.296   7.557   4.969  0.2174 -0.4633 -1.5653
  888MOL0     H19845   5.157   7.351   4.964  0.3055 -0.0094  0.7482
  888MOL0     H19846   5.351   6.988   4.817 -0.2418 -3.8926 -0.7277
  888MOL0     H19847   5.297   6.907   4.965 -2.7784  1.6889  1.9319
  888MOL0     H19848   5.118   6.982   4.730 -1.7035  2.3862  1.2359
  888MOL0     H19849   5.197   6.829   4.745  0.8045 -0.5508  0.6797
  888MOL0     H19850   5.023   6.926   4.973 -1.4960 -0.5347  0.0609
  888MOL0     H19851   5.035   6.764   4.907 -0.2558  0.2810  0.6943
  888MOL0     H19852   4.900   6.841   4.705  1.6770  2.6411 -1.0282
  888MOL0     H19853   4.815   6.842   4.861 -1.1474 -0.1904 -0.6748
  888MOL0     H19854   4.918   7.077   4.691 -0.5284 -1.9529 -0.7721
  888MOL0     H19855   4.862   7.100   4.858  1.6834  1.4435 -0.4027
  888MOL0     H19856   4.700   6.977   4.635  0.5234 -1.0031  0.0711
  888MOL0     H19857   4.650   6.998   4.808 -0.5712  0.3079 -0.1472
  888MOL0     H19858   4.729   7.237   4.633  0.1516  0.3969 -1.0604
  888MOL0     H19859   4.636   7.233   4.792 -0.8250 -0.3093 -0.7697
  888MOL0     H19860   4.455   7.167   4.713 -1.1037  1.3599  0.0938
  888MOL0     H19861   4.513   7.130   4.546 -2.4686  1.4042 -0.5621
  888MOL0     H19862   5.488   7.108   4.892 -0.8934 -1.5833  3.2507
  888MOL0     H19863   5.631   7.310   4.885 -1.4350  0.6824 -2.0328
  888MOL0     H19864   5.469   7.957   4.877 -0.4891 -0.3886  0.4972
  888MOL0     H19865   5.609   8.123   4.820  0.3209 -0.0142  0.5153
  888MOL0     H19866   5.999   7.173   4.112  0.2641  0.5874 -0.3265
  888MOL0     H19867   6.236   7.187   4.190  1.1989 -0.0523  2.4306
  888MOL0     H19868   6.512   7.444   4.647  0.4464 -0.0219  0.9798
  888MOL0     H19869   6.732   7.415   4.709  0.6066  0.1611  0.3011
  888MOL0     H19870   6.965   7.484   4.703 -2.7877  0.0423  0.1794
  888MOL0     H19871   6.938   7.315   4.735  0.1341  1.3035  0.4071
  888MOL0     H19872   7.138   7.256   4.601  0.1964 -0.1178  0.0998
  888MOL0     H19873   7.161   7.327   4.758 -3.2098 -1.3681  0.7122
  888MOL0     H19874   7.223   7.546   4.665  1.9132 -2.0656  1.6923
  888MOL0     H19875   7.159   7.491   4.507 -3.0264 -1.9597  0.1650
  888MOL0     H19876   7.414   7.496   4.518 -2.0633  2.9066  1.4450
  888MOL0     H19877   7.357   7.334   4.483  1.6102  0.4909 -1.9036
  888MOL0     H19878   7.497   7.320   4.893  1.5945  2.0162  0.6290
  888MOL0     H19879   6.828   7.281   4.303 -1.9882 -0.2904 -2.5773
  888MOL0     H19880   6.602   7.306   4.244  2.1490 -0.3395 -0.3379
  889MOL0     O19881   3.747   6.817   8.266 -0.5230  0.6779 -0.3400
  889MOL0     C19882   3.681   6.791   8.166  0.2533 -0.5376  0.6421
  889MOL0     O19883   3.572   6.868   8.129 -0.1453  0.0121 -0.5229
  889MOL0     C19884   3.530   6.989   8.185 -0.7431 -1.2267 -0.0026
  889MOL0     C19885   3.400   7.039   8.161 -0.7034  0.4303  0.2212
  889MOL0     C19886   3.351   7.158   8.200  0.0086 -0.3537  0.4039
  889MOL0     C19887   3.431   7.248   8.265 -0.4628 -0.1208 -0.7635
  889MOL0     O19888   3.389   7.376   8.312 -0.0905 -0.0099 -0.4152
  889MOL0     C19889   3.248   7.401   8.328  0.3132  0.3611  0.4906
  889MOL0     C19890   3.237   7.529   8.403  0.1489 -0.2765 -0.8832
  889MOL0     C19891   3.088   7.568   8.442  0.0559 -0.1937 -0.1555
  889MOL0     C19892   3.086   7.721   8.461 -0.3506  0.5707  0.6907
  889MOL0     C19893   2.958   7.784   8.527  0.4399 -0.3088 -0.3092
  889MOL0     C19894   2.990   7.925   8.578  0.3772  0.6338  0.4051
  889MOL0     C19895   3.038   8.016   8.459  0.0660 -0.1679  0.2043
  889MOL0     C19896   3.066   8.166   8.487 -0.3923  0.5703 -0.1261
  889MOL0     N19897   2.953   8.238   8.538 -0.5486 -0.6498 -0.4428
  889MOL0     C19898   2.866   8.304   8.458 -0.2475 -0.3598 -0.7819
  889MOL0     C19899   2.779   8.350   8.549  0.7245  0.4332 -0.7261
  889MOL0     C19900   2.667   8.442   8.513 -0.3781  0.2984 -0.0610
  889MOL0     C19901   2.547   8.431   8.608  0.6591  0.9834 -0.4333
  889MOL0     C19902   2.439   8.541   8.576  0.0797  0.5779 -0.0000
  889MOL0     C19903   2.294   8.506   8.594 -0.5794 -0.2579 -0.1469
  889MOL0     O19904   2.215   8.622   8.586  0.3145  0.1877  0.5929
  889MOL0     C19905   2.078   8.614   8.596 -0.4067  0.4489  0.4490
  889MOL0     C19906   2.005   8.728   8.601 -0.4280 -0.0728  0.5335
  889MOL0     C19907   1.861   8.721   8.618 -0.4904  0.2194  0.6996
  889MOL0     C19908   1.797   8.862   8.600  1.1888 -0.6677 -0.1682
  889MOL0     C19909   1.787   8.600   8.635 -1.2966  0.3715  0.5653
  889MOL0     C19910   1.646   8.596   8.659 -0.0047 -0.1472  0.1844
  889MOL0     O19911   1.582   8.713   8.692 -0.5687  0.8855  0.2496
  889MOL0     C19912   1.455   8.713   8.737  0.1916  0.3280 -0.4310
  889MOL0     C19913   1.358   8.610   8.732  0.6235 -0.2073  0.3538
  889MOL0     C19914   1.231   8.639   8.772  0.5303 -0.4820  0.4663
  889MOL0     C19915   1.187   8.763   8.821 -1.1204  0.5871 -0.6086
  889MOL0     O19916   1.064   8.787   8.857 -0.1513  0.0187  0.1609
  889MOL0     C19917   0.994   8.899   8.804 -0.0950 -0.0613  0.0570
  889MOL0     C19918   0.973   8.912   8.651 -0.2897  0.5190 -0.2506
  889MOL0     C19919   1.085   8.971   8.566  0.7081  0.9765 -0.0991
  889MOL0     C19920   1.036   8.984   8.423 -0.4849 -0.6046  0.7528
  889MOL0     C19921   1.138   9.062   8.346 -0.1367  0.1562 -1.0011
  889MOL0     C19922   1.287   9.005   8.367  0.2676  0.9682 -0.0111
  889MOL0     C19923   1.305   8.859   8.327  0.9794  0.1096 -0.8291
  889MOL0     C19924   1.446   8.809   8.362 -0.1160 -0.1761 -1.1239
  889MOL0    Cl19925   1.502   8.701   8.242 -0.2035  0.1985  0.3773
  889MOL0     C19926   1.286   8.861   8.832 -0.1156 -0.7482 -0.0609
  889MOL0     C19927   1.419   8.831   8.797  0.3422 -0.4917  0.4570
  889MOL0     O19928   1.597   8.481   8.646  0.1745 -0.1994 -0.4688
  889MOL0     C19929   1.866   8.477   8.626  0.8165 -0.3396  0.4264
  889MOL0     C19930   2.005   8.490   8.602 -0.4316  0.0142 -1.3880
  889MOL0     N19931   2.826   8.333   8.675 -0.3287 -0.2722 -0.6420
  889MOL0     N19932   2.926   8.253   8.671  0.3453 -0.6190 -0.4652
  889MOL0     C19933   3.569   7.213   8.290  0.1384 -0.0652  0.3135
  889MOL0     C19934   3.618   7.085   8.245 -0.4423 -0.4708 -0.9711
  889MOL0     C19935   3.703   6.669   8.087 -0.4457  0.1937 -0.4265
  889MOL0     C19936   3.799   6.574   8.131  0.3965  0.5597  0.2906
  889MOL0     C19937   3.828   6.471   8.050 -0.8437 -0.4062 -0.3930
  889MOL0     C19938   3.765   6.451   7.926  0.1151 -0.7740  0.2987
  889MOL0     O19939   3.814   6.361   7.825  0.3687  0.0552 -0.6483
  889MOL0     C19940   3.929   6.281   7.856  0.4699 -0.0761 -0.4932
  889MOL0     C19941   3.959   6.179   7.746  0.2740  0.1940 -0.1873
  889MOL0     C19942   3.996   6.260   7.617  0.9847 -0.1123 -0.3161
  889MOL0     C19943   4.075   6.158   7.522  0.1805  0.5466  0.6921
  889MOL0     C19944   4.125   6.229   7.401 -0.1242  0.8942 -0.3311
  889MOL0     C19945   4.130   6.296   7.298 -0.7473 -0.6782  0.2448
  889MOL0     C19946   3.655   6.535   7.892 -0.0724  0.3836  0.0529
  889MOL0     C19947   3.626   6.649   7.967 -0.1238 -0.4883  0.6436
  889MOL0     H19948   3.334   6.967   8.113  2.4436 -0.7675 -2.7444
  889MOL0     H19949   3.246   7.184   8.188  0.4353  0.3004 -2.9219
  889MOL0     H19950   3.203   7.419   8.230  2.3218  3.9568  0.0796
  889MOL0     H19951   3.199   7.314   8.373 -1.4863  0.3518 -1.3614
  889MOL0     H19952   3.300   7.524   8.493  1.8090 -2.3001 -2.0874
  889MOL0     H19953   3.278   7.605   8.336  0.2805  2.0567  1.6558
  889MOL0     H19954   3.020   7.530   8.366  0.0458  0.0247 -0.2567
  889MOL0     H19955   3.071   7.513   8.535  4.2772 -1.7030 -0.0599
  889MOL0     H19956   3.171   7.751   8.523  1.4122  2.5791 -2.4659
  889MOL0     H19957   3.102   7.761   8.361  0.8370  1.1216  1.0861
  889MOL0     H19958   2.867   7.782   8.465  1.5482  2.5981 -2.2373
  889MOL0     H19959   2.939   7.731   8.621  1.3659 -0.1394 -0.0200
  889MOL0     H19960   2.899   7.971   8.619 -0.2458  0.1975 -0.4365
  889MOL0     H19961   3.067   7.922   8.655  0.4866  2.5261  0.4060
  889MOL0     H19962   3.128   7.969   8.418  3.4021  4.3447  1.5611
  889MOL0     H19963   2.958   8.031   8.386  0.0620  0.6986  0.3838
  889MOL0     H19964   3.096   8.212   8.393  1.8151 -0.4522  0.0351
  889MOL0     H19965   3.148   8.166   8.559 -1.6552  0.0887  1.3638
  889MOL0     H19966   2.863   8.302   8.350  1.5908  0.3706 -0.8787
  889MOL0     H19967   2.701   8.546   8.508  0.3129  0.1460  1.0869
  889MOL0     H19968   2.632   8.412   8.414 -0.0279 -0.6615  0.0982
  889MOL0     H19969   2.583   8.439   8.710 -0.2579 -1.5499  0.1537
  889MOL0     H19970   2.502   8.333   8.588  2.8476  0.0718 -1.1193
  889MOL0     H19971   2.443   8.550   8.467  0.0030 -1.0071 -0.1620
  889MOL0     H19972   2.467   8.640   8.613  1.7472  0.1100  0.0922
  889MOL0     H19973   2.280   8.469   8.696 -1.1774  2.5836  0.8992
  889MOL0     H19974   2.259   8.428   8.526  1.8046 -1.6719  0.1190
  889MOL0     H19975   2.044   8.829   8.594 -0.9846  0.0270 -1.7608
  889MOL0     H19976   1.763   8.900   8.696 -0.4913  1.2025 -1.4164
  889MOL0     H19977   1.864   8.935   8.554  0.7366 -0.4420 -0.4737
  889MOL0     H19978   1.714   8.847   8.530  1.6642 -2.9365 -0.3487
  889MOL0     H19979   1.374   8.510   8.694 -0.9162 -0.0646 -0.7252
  889MOL0     H19980   1.150   8.569   8.755 -3.4453  3.7516 -0.3031
  889MOL0     H19981   0.894   8.885   8.845  0.7624  1.6024  2.9787
  889MOL0     H19982   1.039   8.988   8.849  0.5246 -2.2195  4.2364
  889MOL0     H19983   0.942   8.816   8.608  0.3859 -0.4686  1.3728
  889MOL0     H19984   0.889   8.982   8.637  0.5632  1.7469  0.6001
  889MOL0     H19985   1.163   8.894   8.572  1.6985  1.5333 -3.5251
  889MOL0     H19986   1.129   9.061   8.610  3.0076 -0.8872  1.7031
  889MOL0     H19987   1.034   8.890   8.367  1.5160  0.1163 -0.6415
  889MOL0     H19988   0.937   9.030   8.420  0.5625  2.0931  2.8690
  889MOL0     H19989   1.151   9.164   8.383 -1.6533 -0.1558  0.5177
  889MOL0     H19990   1.111   9.064   8.240 -1.7961  0.6075 -0.6029
  889MOL0     H19991   1.339   9.076   8.301 -4.3943  3.9857 -1.0082
  889MOL0     H19992   1.326   9.020   8.468  0.7660  3.5666 -0.5223
  889MOL0     H19993   1.291   8.852   8.219  0.3118 -1.3678 -0.6742
  889MOL0     H19994   1.229   8.795   8.374  0.1887  0.7653 -1.1911
  889MOL0     H19995   1.438   8.753   8.456 -0.9601 -2.5479 -2.5400
  889MOL0     H19996   1.519   8.889   8.379 -1.6311  1.0437 -0.0570
  889MOL0     H19997   1.257   8.946   8.894 -1.5679 -1.0784 -0.2449
  889MOL0     H19998   1.496   8.906   8.809  0.2818 -0.7037  2.4210
  889MOL0     H19999   1.813   8.382   8.628  1.5055 -0.7511 -0.2229
  889MOL0     H20000   2.057   8.395   8.610  0.1642  0.4968  2.4352
  889MOL0     H20001   3.636   7.278   8.345 -0.5440  0.2596  0.7777
  889MOL0     H20002   3.720   7.053   8.268 -1.8159 -3.8298  1.2560
  889MOL0     H20003   3.851   6.591   8.225 -0.2807  2.5049  0.3712
  889MOL0     H20004   3.899   6.403   8.097  1.1364  1.3469 -0.6629
  889MOL0     H20005   4.014   6.347   7.874 -0.2325  0.4450  1.0467
  889MOL0     H20006   3.902   6.226   7.946  3.6189 -1.7943 -0.4691
  889MOL0     H20007   3.867   6.119   7.739 -0.5755  1.4430 -0.0931
  889MOL0     H20008   4.055   6.128   7.755 -1.0159 -2.0943  1.3367
  889MOL0     H20009   4.052   6.351   7.643  3.8417 -1.0189 -2.6664
  889MOL0     H20010   3.906   6.291   7.564 -0.8564  2.1553  3.7114
  889MOL0     H20011   4.016   6.069   7.499  2.2956 -0.5466 -1.0038
  889MOL0     H20012   4.158   6.105   7.570 -1.8825 -1.7166  1.9730
  889MOL0     H20013   4.134   6.342   7.201  0.1196  0.7557  0.9148
  889MOL0     H20014   3.608   6.513   7.797 -0.4505 -1.3444  0.6055
  889MOL0     H20015   3.561   6.731   7.940 -0.5595 -0.9600  0.2225
  890MOL0     O20016   2.027   2.139   9.074 -0.1892  0.6424  0.4245
  890MOL0     C20017   1.936   2.068   9.123 -0.1284 -0.1778  0.4319
  890MOL0     O20018   1.944   1.991   9.238 -0.0270 -0.4862  0.4255
  890MOL0     C20019   2.060   1.993   9.302  0.3171 -0.1440  0.2398
  890MOL0     C20020   2.154   1.893   9.284  0.1055  0.8690  0.7013
  890MOL0     C20021   2.282   1.898   9.355  0.3002 -0.0147  0.0420
  890MOL0     C20022   2.314   2.015   9.442 -0.6135  0.2228 -0.6826
  890MOL0     O20023   2.431   2.016   9.524  0.3420 -0.1275  0.0204
  890MOL0     C20024   2.546   1.938   9.490  0.2066  0.8713 -0.8537
  890MOL0     C20025   2.534   1.821   9.595  0.4266  0.2266 -0.6047
  890MOL0     C20026   2.653   1.723   9.566 -0.4961 -0.4965  1.1306
  890MOL0     C20027   2.637   1.628   9.447  0.0124  0.2090  0.0921
  890MOL0     C20028   2.752   1.529   9.435 -0.6371 -0.5704 -0.6506
  890MOL0     C20029   2.898   1.574   9.456 -0.5053  0.0976 -0.4648
  890MOL0     C20030   2.952   1.662   9.350  0.0502 -0.3553 -0.4157
  890MOL0     C20031   3.021   1.781   9.413  1.0244  0.2401 -0.0798
  890MOL0     N20032   3.104   1.853   9.313 -0.5808 -0.4595  0.1423
  890MOL0     C20033   3.107   1.841   9.175  0.0897 -0.2432 -0.4017
  890MOL0     C20034   3.218   1.915   9.141 -0.9197 -0.9800  0.5946
  890MOL0     C20035   3.277   1.933   9.010  0.0816 -0.0421  0.1649
  890MOL0     C20036   3.175   1.921   8.893  0.0345  0.1390  0.3744
  890MOL0     C20037   3.121   1.787   8.846 -0.0927  1.0236  0.2224
  890MOL0     C20038   2.979   1.802   8.795 -0.4894  0.2388 -0.2571
  890MOL0     O20039   2.941   1.673   8.732 -0.5807 -0.3717 -0.1140
  890MOL0     C20040   2.814   1.669   8.688 -0.1127  0.1094  1.1546
  890MOL0     C20041   2.777   1.550   8.636 -0.0152 -1.1700 -0.0887
  890MOL0     C20042   2.651   1.522   8.569  0.4652  0.2191  0.2981
  890MOL0     C20043   2.635   1.384   8.499 -0.2457 -0.4917  0.6157
  890MOL0     C20044   2.557   1.630   8.562 -0.0162 -0.1083  0.2853
  890MOL0     C20045   2.416   1.623   8.499  0.3106  0.6647 -0.0834
  890MOL0     O20046   2.348   1.748   8.481 -0.1437  0.5420  0.2524
  890MOL0     C20047   2.222   1.744   8.441 -0.4816 -0.5873  0.5436
  890MOL0     C20048   2.172   1.771   8.316  0.1403 -0.8587  0.0893
  890MOL0     C20049   2.031   1.764   8.295  0.2073 -1.0661 -0.1586
  890MOL0     C20050   1.936   1.730   8.401  0.2026  0.2441  0.1204
  890MOL0     O20051   1.798   1.717   8.382  0.4282  0.0870  0.1986
  890MOL0     C20052   1.760   1.663   8.249  0.5288  0.1282  0.5884
  890MOL0     C20053   1.676   1.536   8.275 -0.7161 -0.1371  0.2058
  890MOL0     C20054   1.602   1.498   8.149  0.1357 -0.4908  0.1306
  890MOL0     C20055   1.490   1.390   8.174 -0.0801  0.6270  0.0729
  890MOL0     C20056   1.423   1.356   8.040  0.1622  0.0494 -0.4647
  890MOL0     C20057   1.283   1.285   8.048  0.7430  0.0278 -0.8446
  890MOL0     C20058   1.178   1.378   8.104  0.8065 -0.0872 -0.5804
  890MOL0     C20059   1.036   1.325   8.083 -0.0892  0.2320 -0.8482
  890MOL0    Cl20060   1.004   1.182   8.183 -0.0618 -0.1911  0.2690
  890MOL0     C20061   1.999   1.693   8.521  0.4757 -0.0366 -0.0582
  890MOL0     C20062   2.128   1.690   8.538  0.2907 -1.0484  0.2576
  890MOL0     O20063   2.365   1.510   8.477  0.4319 -0.4114  0.3351
  890MOL0     C20064   2.594   1.753   8.612 -0.8644  0.6415 -1.0041
  890MOL0     C20065   2.720   1.770   8.676  0.9628  0.0016  0.0527
  890MOL0     N20066   3.274   1.972   9.252 -0.1036  1.1693  0.3865
  890MOL0     N20067   3.204   1.936   9.351 -0.6229 -0.3262  1.1249
  890MOL0     C20068   2.218   2.117   9.461 -0.4006  0.5097 -0.3537
  890MOL0     C20069   2.092   2.100   9.397  0.0694  1.4041 -0.4191
  890MOL0     C20070   1.809   2.091   9.072 -0.2240 -0.5391 -0.4888
  890MOL0     C20071   1.693   2.006   9.093  1.5264 -0.3351 -0.4322
  890MOL0     C20072   1.559   2.044   9.050 -0.0818  0.9803 -0.4340
  890MOL0     C20073   1.545   2.170   8.985  0.1669  0.6591 -0.1241
  890MOL0     O20074   1.428   2.231   8.953 -0.3415 -0.6037  0.8458
  890MOL0     C20075   1.305   2.195   9.008 -0.4587  0.0951  0.6895
  890MOL0     C20076   1.267   2.278   9.135  0.3674 -1.6036  0.4363
  890MOL0     C20077   1.288   2.433   9.123 -0.1169  0.0034  0.0047
  890MOL0     C20078   1.219   2.497   8.998  0.3305  0.7702  0.4252
  890MOL0     C20079   1.215   2.641   8.998 -0.1259  0.0530 -0.3692
  890MOL0     C20080   1.215   2.763   8.999  0.5041 -0.4596  0.1284
  890MOL0     C20081   1.657   2.230   8.942 -0.4359  0.4924 -0.2764
  890MOL0     C20082   1.783   2.202   8.985 -0.7300  0.8931 -0.4853
  890MOL0     H20083   2.132   1.818   9.209  1.4285  1.7429 -0.6196
  890MOL0     H20084   2.353   1.818   9.336  1.8788  1.3136  0.1198
  890MOL0     H20085   2.545   1.903   9.386 -0.7535 -1.0061 -0.2593
  890MOL0     H20086   2.638   1.990   9.516  0.1766  1.7814 -2.4363
  890MOL0     H20087   2.540   1.860   9.697  0.1221 -1.3626  0.0617
  890MOL0     H20088   2.433   1.778   9.591 -0.2410  0.8409  4.0575
  890MOL0     H20089   2.740   1.785   9.543  0.0487 -1.6303  0.0648
  890MOL0     H20090   2.672   1.655   9.649 -2.0608 -0.8601  1.2291
  890MOL0     H20091   2.543   1.571   9.454 -0.3654  0.3543 -2.7485
  890MOL0     H20092   2.624   1.686   9.355 -2.1292 -1.6216 -0.8650
  890MOL0     H20093   2.731   1.443   9.499  0.1101 -1.7061 -1.8840
  890MOL0     H20094   2.758   1.480   9.337  1.9972 -1.9258  0.1064
  890MOL0     H20095   2.899   1.629   9.551 -3.4701 -0.0159 -0.2743
  890MOL0     H20096   2.966   1.489   9.469 -0.9805 -0.2067  0.0861
  890MOL0     H20097   3.023   1.602   9.292  4.0470  4.4044 -1.1983
  890MOL0     H20098   2.872   1.702   9.287 -2.2948 -2.0810  1.2971
  890MOL0     H20099   3.083   1.748   9.497  3.1356 -1.3611 -2.1723
  890MOL0     H20100   2.944   1.845   9.459 -0.8475 -0.0720 -2.5813
  890MOL0     H20101   3.046   1.778   9.111  0.5021  1.3690 -2.5074
  890MOL0     H20102   3.316   2.035   9.000 -1.3725  0.3422 -2.3193
  890MOL0     H20103   3.359   1.863   8.991 -2.5939 -2.8481 -1.8633
  890MOL0     H20104   3.229   1.963   8.808 -0.4372 -0.3792 -0.1921
  890MOL0     H20105   3.097   1.995   8.917 -1.4492 -1.8927  2.2942
  890MOL0     H20106   3.123   1.709   8.922 -0.8037  1.7620  1.0177
  890MOL0     H20107   3.176   1.757   8.756  0.1565 -0.1976  0.7689
  890MOL0     H20108   2.969   1.891   8.732 -0.3868  0.8001  0.4882
  890MOL0     H20109   2.904   1.808   8.874 -2.4014  0.1646 -2.0106
  890MOL0     H20110   2.854   1.474   8.632 -0.1165 -1.2642 -0.2467
  890MOL0     H20111   2.604   1.307   8.570 -0.7637 -0.3680  0.5332
  890MOL0     H20112   2.568   1.380   8.412  0.7227 -0.3712 -0.1555
  890MOL0     H20113   2.722   1.344   8.447 -0.9734 -0.0370 -1.0424
  890MOL0     H20114   2.233   1.800   8.231 -2.1920 -0.8442 -1.6903
  890MOL0     H20115   1.999   1.784   8.193 -0.0756  6.0486  0.8276
  890MOL0     H20116   1.689   1.731   8.201  2.7972  1.6130 -0.8343
  890MOL0     H20117   1.846   1.638   8.186  2.1423 -1.5203  3.2680
  890MOL0     H20118   1.742   1.457   8.313 -0.9077 -0.8872 -0.9660
  890MOL0     H20119   1.598   1.558   8.348 -1.9221  2.0888 -1.6288
  890MOL0     H20120   1.666   1.465   8.066  2.5547 -0.6739  1.9414
  890MOL0     H20121   1.549   1.587   8.113 -2.2111 -1.6256  0.5987
  890MOL0     H20122   1.533   1.302   8.223 -0.1102 -0.5336 -1.8691
  890MOL0     H20123   1.419   1.428   8.247  1.2470  0.4280  1.5217
  890MOL0     H20124   1.495   1.291   7.990  0.3107 -0.7876  0.8026
  890MOL0     H20125   1.409   1.445   7.977  0.5113  0.3889 -0.0636
  890MOL0     H20126   1.256   1.255   7.946  1.0251 -3.1201 -0.1010
  890MOL0     H20127   1.294   1.195   8.109  0.2954  0.8311  0.4506
  890MOL0     H20128   1.193   1.470   8.047  0.2284  0.0857 -0.4598
  890MOL0     H20129   1.195   1.387   8.211  0.1445 -3.4337 -0.0845
  890MOL0     H20130   1.025   1.299   7.977 -0.6963 -0.4318 -0.6305
  890MOL0     H20131   0.958   1.393   8.120  0.6839  0.6651  0.0242
  890MOL0     H20132   1.918   1.647   8.577  0.6372  0.3834  0.5344
  890MOL0     H20133   2.170   1.651   8.631 -0.9248  3.6069  3.1094
  890MOL0     H20134   2.544   1.847   8.592  1.0548  1.8669 -0.4132
  890MOL0     H20135   2.748   1.872   8.700 -2.0924  0.9758 -0.0404
  890MOL0     H20136   2.236   2.201   9.529 -1.1656  1.0211 -0.7744
  890MOL0     H20137   2.014   2.175   9.414 -1.7100 -0.8638  2.4350
  890MOL0     H20138   1.703   1.917   9.155 -1.0315  1.5194  2.9872
  890MOL0     H20139   1.475   1.980   9.076  0.6884  0.4468  0.8402
  890MOL0     H20140   1.237   2.211   8.923 -1.7154 -2.6237  1.0757
  890MOL0     H20141   1.308   2.089   9.034  0.4705 -0.2103 -0.5802
  890MOL0     H20142   1.334   2.247   9.217 -0.9358 -1.9906  1.3824
  890MOL0     H20143   1.164   2.257   9.164 -0.4554 -0.8738 -1.7874
  890MOL0     H20144   1.387   2.476   9.140 -0.2594  0.2739  0.1637
  890MOL0     H20145   1.236   2.476   9.209 -1.1098  0.3581 -0.7481
  890MOL0     H20146   1.115   2.463   8.988 -0.3191  2.7370  0.0397
  890MOL0     H20147   1.274   2.466   8.909  1.9624  2.0012  0.9630
  890MOL0     H20148   1.215   2.870   8.993 -2.2916 -0.0055  4.0136
  890MOL0     H20149   1.639   2.312   8.873 -1.4302 -1.3529 -2.3300
  890MOL0     H20150   1.867   2.254   8.940  0.2379 -0.6490 -0.5168
  891MOL0     O20151   6.569   2.366   6.148  0.4463  0.0274 -0.5933
  891MOL0     C20152   6.648   2.389   6.239 -0.0642  1.4807  0.1025
  891MOL0     O20153   6.617   2.390   6.376  0.5791 -0.6053  0.7819
  891MOL0     C20154   6.495   2.349   6.413  0.1174  1.7121  0.0280
  891MOL0     C20155   6.384   2.428   6.403  0.2544 -0.1885 -0.5021
  891MOL0     C20156   6.262   2.383   6.452  1.0500 -0.2487 -0.5632
  891MOL0     C20157   6.240   2.248   6.493  0.8298 -0.0030 -0.6891
  891MOL0     O20158   6.128   2.213   6.564 -0.3732 -1.0228 -0.2170
  891MOL0     C20159   6.019   2.311   6.587 -0.4182  0.3610 -0.6424
  891MOL0     C20160   5.904   2.248   6.667  0.3946 -0.4649  0.0181
  891MOL0     C20161   5.792   2.353   6.680  0.8268  0.5948  0.3182
  891MOL0     C20162   5.668   2.306   6.763 -0.4293  0.2835  1.2720
  891MOL0     C20163   5.548   2.401   6.768  0.5130  0.7966 -0.6812
  891MOL0     C20164   5.453   2.353   6.876 -0.2419 -0.0235  0.7175
  891MOL0     C20165   5.327   2.428   6.902  0.1482  0.5424  0.4985
  891MOL0     C20166   5.341   2.573   6.949 -0.3299 -0.2912 -0.1814
  891MOL0     N20167   5.208   2.634   6.953  0.2347  0.3447  0.5538
  891MOL0     C20168   5.139   2.692   6.847  0.6623  0.5281 -0.8156
  891MOL0     C20169   5.017   2.715   6.893  0.8365  0.1571  0.3771
  891MOL0     C20170   4.900   2.768   6.821 -0.0867 -0.4731  0.4535
  891MOL0     C20171   4.845   2.661   6.723  0.6040  1.2502  0.3532
  891MOL0     C20172   4.702   2.692   6.679 -0.0741 -0.5798 -0.8169
  891MOL0     C20173   4.644   2.588   6.596 -0.1460 -0.0207  0.6981
  891MOL0     O20174   4.699   2.586   6.463  0.2087  0.4250 -0.5277
  891MOL0     C20175   4.666   2.486   6.374  0.1728 -0.4478  0.3812
  891MOL0     C20176   4.539   2.435   6.342  0.0290  0.1960 -1.0220
  891MOL0     C20177   4.519   2.332   6.251  0.4778  0.0638  0.3516
  891MOL0     C20178   4.382   2.268   6.249  0.2267 -0.4826 -0.1629
  891MOL0     C20179   4.638   2.287   6.174  0.2898 -0.2478 -0.0184
  891MOL0     C20180   4.623   2.182   6.068  0.2152  1.0320 -0.5055
  891MOL0     O20181   4.497   2.147   6.019  0.4163 -0.5202  0.4829
  891MOL0     C20182   4.473   2.064   5.913 -0.1590 -0.1217  0.2179
  891MOL0     C20183   4.559   2.034   5.804 -0.3000  0.6530 -0.5571
  891MOL0     C20184   4.532   1.929   5.707  0.5693  0.3764 -1.2908
  891MOL0     C20185   4.410   1.860   5.723 -0.5743  0.7278  0.1041
  891MOL0     O20186   4.380   1.757   5.640 -0.0198 -0.1189 -0.0784
  891MOL0     C20187   4.409   1.631   5.696  0.0285 -0.5008 -0.3465
  891MOL0     C20188   4.344   1.530   5.597 -0.0929  0.3504  0.0816
  891MOL0     C20189   4.197   1.550   5.561  0.2410 -0.4941  0.1085
  891MOL0     C20190   4.152   1.437   5.465  0.4720 -0.6811  0.6819
  891MOL0     C20191   4.023   1.483   5.409  0.1766  0.1065  0.3506
  891MOL0     C20192   3.970   1.391   5.298  0.1058  0.1233 -0.0860
  891MOL0     C20193   3.835   1.431   5.249  0.1890 -0.4060 -0.1318
  891MOL0     C20194   3.776   1.322   5.148  0.1100  0.4221  0.1819
  891MOL0    Cl20195   3.626   1.389   5.086  0.5015  0.0358 -0.3135
  891MOL0     C20196   4.326   1.893   5.830 -0.4575 -0.2425 -0.3026
  891MOL0     C20197   4.360   1.996   5.925 -0.4055  0.0567  0.2463
  891MOL0     O20198   4.728   2.132   6.030  0.3862 -0.2323 -0.1065
  891MOL0     C20199   4.763   2.357   6.198  0.1857 -0.4101 -0.2411
  891MOL0     C20200   4.782   2.451   6.302 -0.3661 -0.3035 -0.0614
  891MOL0     N20201   5.010   2.672   7.022 -0.1902 -0.3138 -0.3262
  891MOL0     N20202   5.129   2.637   7.059 -0.0423 -0.0727 -0.2967
  891MOL0     C20203   6.356   2.176   6.513  0.0517 -0.3241 -0.1761
  891MOL0     C20204   6.482   2.223   6.471 -0.2288  0.6588 -0.0132
  891MOL0     C20205   6.784   2.424   6.201 -0.8348  0.3610  0.5997
  891MOL0     C20206   6.893   2.406   6.285  0.6029 -0.8991 -0.0431
  891MOL0     C20207   7.022   2.420   6.250 -0.2408  0.3586 -0.3958
  891MOL0     C20208   7.052   2.477   6.125 -0.9780  0.5773  0.1848
  891MOL0     O20209   7.191   2.491   6.099 -0.3363  0.6584  0.6135
  891MOL0     C20210   7.233   2.585   5.995  0.7024  0.4959 -0.3572
  891MOL0     C20211   7.223   2.527   5.859 -0.8025  0.0833  0.1622
  891MOL0     C20212   7.275   2.616   5.750 -0.3013  0.1531  0.1300
  891MOL0     C20213   7.297   2.542   5.608 -0.0663 -0.7712  0.1767
  891MOL0     C20214   7.382   2.417   5.614 -0.5159  0.9910  0.2367
  891MOL0     C20215   7.451   2.318   5.610  0.4504 -0.1875 -0.3058
  891MOL0     C20216   6.947   2.516   6.035  0.3340 -0.0280 -1.1659
  891MOL0     C20217   6.811   2.488   6.073  0.1043 -0.4058  0.4970
  891MOL0     H20218   6.389   2.533   6.376 -1.7138  0.2622  0.6579
  891MOL0     H20219   6.186   2.460   6.452  1.7720  0.4761  0.0550
  891MOL0     H20220   6.072   2.393   6.637  1.9998 -1.8220  0.6718
  891MOL0     H20221   5.985   2.348   6.490  1.7269 -2.6136 -2.6928
  891MOL0     H20222   5.871   2.150   6.629  0.5865 -1.6737  2.7738
  891MOL0     H20223   5.946   2.213   6.761  2.7981  0.0960 -0.7857
  891MOL0     H20224   5.838   2.439   6.730 -0.9832  1.1525  1.1050
  891MOL0     H20225   5.759   2.372   6.578 -1.7081 -0.2649  0.9029
  891MOL0     H20226   5.639   2.206   6.728  0.9530 -0.5420  2.3925
  891MOL0     H20227   5.705   2.288   6.864  0.9231  2.9783  1.3304
  891MOL0     H20228   5.581   2.503   6.790  2.4912 -0.4996  3.4796
  891MOL0     H20229   5.494   2.400   6.673  0.1239  1.3528 -0.4738
  891MOL0     H20230   5.418   2.250   6.862 -0.8109  0.0435  1.5504
  891MOL0     H20231   5.504   2.352   6.973  1.0163  0.1177  0.0705
  891MOL0     H20232   5.271   2.427   6.808 -1.8573  0.6129  1.6477
  891MOL0     H20233   5.265   2.382   6.979 -1.7304  2.1061 -0.0006
  891MOL0     H20234   5.405   2.630   6.881 -0.9804 -1.6408 -2.0088
  891MOL0     H20235   5.389   2.574   7.048 -2.7426  0.5027  1.0536
  891MOL0     H20236   5.177   2.710   6.747  1.0717 -1.6040 -1.1007
  891MOL0     H20237   4.829   2.802   6.897  0.4830 -0.6129  1.0534
  891MOL0     H20238   4.938   2.855   6.766 -0.2266  1.7284  3.5680
  891MOL0     H20239   4.847   2.564   6.772 -0.5743  0.2876 -1.3839
  891MOL0     H20240   4.910   2.644   6.636 -0.6506  2.2416 -0.8363
  891MOL0     H20241   4.706   2.790   6.629 -0.4519  0.2038  0.6470
  891MOL0     H20242   4.629   2.697   6.759 -0.7156  0.2041 -1.4332
  891MOL0     H20243   4.537   2.604   6.582 -0.4352 -0.4115  2.2429
  891MOL0     H20244   4.647   2.490   6.644  2.5209 -0.5223 -0.3006
  891MOL0     H20245   4.456   2.480   6.396 -1.3560 -1.1950 -1.9235
  891MOL0     H20246   4.321   2.309   6.330 -2.1218 -1.0963 -1.5207
  891MOL0     H20247   4.332   2.299   6.157 -0.4634 -0.5430  0.1869
  891MOL0     H20248   4.382   2.159   6.256  1.2578 -0.6238 -1.7887
  891MOL0     H20249   4.657   2.080   5.794  0.2261 -0.1308  0.7188
  891MOL0     H20250   4.596   1.901   5.624  1.6825  1.8142 -0.9573
  891MOL0     H20251   4.516   1.606   5.697  0.2694 -0.3926 -4.4786
  891MOL0     H20252   4.353   1.615   5.788 -0.2160  0.7018 -0.2687
  891MOL0     H20253   4.397   1.540   5.502 -0.9459  0.5157 -0.3933
  891MOL0     H20254   4.365   1.432   5.639  0.0745  0.1157 -0.5356
  891MOL0     H20255   4.184   1.646   5.511 -0.9990 -2.1763 -3.1274
  891MOL0     H20256   4.131   1.541   5.648 -0.6613 -3.4946 -0.7558
  891MOL0     H20257   4.228   1.421   5.389 -0.7611 -2.7845 -0.2048
  891MOL0     H20258   4.137   1.338   5.510 -0.9093 -0.4525  0.7671
  891MOL0     H20259   4.022   1.588   5.379 -2.9814  0.6681  1.9619
  891MOL0     H20260   3.951   1.484   5.492  0.9629 -2.0207  1.1248
  891MOL0     H20261   4.040   1.403   5.215  0.1017 -3.6414 -0.8376
  891MOL0     H20262   3.977   1.286   5.329  1.3545 -0.0078 -0.7272
  891MOL0     H20263   3.856   1.524   5.195  1.2534 -1.3117 -1.3642
  891MOL0     H20264   3.765   1.454   5.330  0.8434  1.5937 -0.0763
  891MOL0     H20265   3.754   1.235   5.212  0.9778  0.0212 -0.0476
  891MOL0     H20266   3.855   1.289   5.080 -0.4046  0.6796 -0.5456
  891MOL0     H20267   4.246   1.822   5.817 -0.6307  0.2622 -2.2493
  891MOL0     H20268   4.302   1.998   6.016  2.7408  0.1801  2.4152
  891MOL0     H20269   4.851   2.336   6.137  0.6642 -2.7965  1.1225
  891MOL0     H20270   4.881   2.493   6.314  0.2975 -0.3449 -4.0282
  891MOL0     H20271   6.352   2.076   6.555  0.4297 -1.3229 -2.4086
  891MOL0     H20272   6.567   2.157   6.479  1.0275  1.7958 -2.9284
  891MOL0     H20273   6.882   2.379   6.390 -0.9389  1.3825  0.4617
  891MOL0     H20274   7.100   2.389   6.318  0.1114  0.2043 -0.8611
  891MOL0     H20275   7.167   2.669   6.016  0.5640 -0.0084  1.3750
  891MOL0     H20276   7.337   2.615   6.014  0.5955  0.8512 -0.3387
  891MOL0     H20277   7.124   2.518   5.813  2.2474  0.3044 -8.2162
  891MOL0     H20278   7.276   2.432   5.853  1.8844  1.5761 -1.5020
  891MOL0     H20279   7.372   2.659   5.777 -0.9955  0.9703  1.4176
  891MOL0     H20280   7.211   2.702   5.733 -2.6583 -1.2173  1.5140
  891MOL0     H20281   7.345   2.626   5.556  1.4428  0.7096  3.6565
  891MOL0     H20282   7.201   2.519   5.561  0.6074 -2.3643 -0.5244
  891MOL0     H20283   7.531   2.249   5.598  1.7228  0.8397  1.7041
  891MOL0     H20284   6.955   2.569   5.941 -0.4897  2.9388  0.3091
  891MOL0     H20285   6.727   2.508   6.007 -0.1534 -2.8920 -0.0351
  892MOL0     O20286   5.703  10.347   5.531  0.2365 -0.8519 -0.3305
  892MOL0     C20287   5.705  10.416   5.631  0.1026 -0.3826 -0.4531
  892MOL0     O20288   5.608  10.520   5.668 -0.3884  0.1562  0.8804
  892MOL0     C20289   5.481  10.524   5.621  0.0883  0.8599  0.4204
  892MOL0     C20290   5.448  10.482   5.486 -0.0608  0.3126 -0.9866
  892MOL0     C20291   5.317  10.490   5.448 -1.1404  0.3778 -0.0341
  892MOL0     C20292   5.220  10.547   5.528  0.5858 -0.3331  0.1509
  892MOL0     O20293   5.094  10.565   5.463 -0.0604 -0.3496  0.5976
  892MOL0     C20294   5.000  10.635   5.536 -0.2936 -0.2011  0.1635
  892MOL0     C20295   4.888  10.663   5.428  0.1844 -0.6321  0.1469
  892MOL0     C20296   4.930  10.761   5.317  0.3198 -0.4370  0.9371
  892MOL0     C20297   4.833  10.756   5.200  0.0948 -0.2155  0.1671
  892MOL0     C20298   4.684  10.794   5.228  0.2744 -0.2512  0.5253
  892MOL0     C20299   4.596  10.795   5.098 -0.5151 -0.8476  0.0853
  892MOL0     C20300   4.453  10.831   5.141  0.3134 -0.2900  0.1594
  892MOL0     C20301   4.433  10.973   5.155  0.1921  0.2930 -0.7609
  892MOL0     N20302   4.287  11.009   5.165 -0.2804 -0.4016  0.5650
  892MOL0     C20303   4.192  10.985   5.071 -0.6149 -0.2947 -0.3932
  892MOL0     C20304   4.073  11.000   5.139 -0.6843 -0.5354  0.0914
  892MOL0     C20305   3.933  10.978   5.084 -1.2147 -0.2781 -0.4909
  892MOL0     C20306   3.822  11.004   5.185 -0.1927  0.6930  0.6596
  892MOL0     C20307   3.804  11.154   5.222  0.6271 -0.3742 -0.5775
  892MOL0     C20308   3.668  11.186   5.267 -0.5066 -0.2353  0.5314
  892MOL0     O20309   3.599  11.086   5.341  0.0310  0.3421 -0.4365
  892MOL0     C20310   3.482  11.119   5.394  0.7737  0.2327  0.5390
  892MOL0     C20311   3.398  11.215   5.342  0.3886  0.7767 -0.5299
  892MOL0     C20312   3.269  11.231   5.395  0.5734  0.6932 -0.7009
  892MOL0     C20313   3.182  11.331   5.318 -0.8868  0.0424  0.2867
  892MOL0     C20314   3.224  11.162   5.514 -1.0459  0.7462  0.5339
  892MOL0     C20315   3.096  11.180   5.582 -1.4293 -0.2975  0.1561
  892MOL0     O20316   3.076  11.119   5.698 -0.7429  0.3049  0.3984
  892MOL0     C20317   2.957  11.155   5.762 -0.5260 -0.5463  0.1763
  892MOL0     C20318   2.956  11.248   5.869  0.5284  0.2560 -0.2179
  892MOL0     C20319   2.833  11.265   5.930 -0.8295  0.4437 -0.3953
  892MOL0     C20320   2.716  11.218   5.876  0.4913 -0.6446  1.1053
  892MOL0     O20321   2.586  11.260   5.905 -0.5096 -0.7231  0.0445
  892MOL0     C20322   2.564  11.339   6.020  0.6217 -0.2893  1.3348
  892MOL0     C20323   2.416  11.369   6.040  0.5358  0.5869 -0.2674
  892MOL0     C20324   2.336  11.236   6.076 -0.5864 -0.4965 -0.0472
  892MOL0     C20325   2.190  11.276   6.051  1.3002  0.5154  0.8608
  892MOL0     C20326   2.100  11.166   6.110 -0.5409  0.1728  0.2621
  892MOL0     C20327   2.121  11.028   6.030  0.3359 -0.6045  0.6241
  892MOL0     C20328   1.993  10.935   6.048  0.3699  0.5918 -0.4608
  892MOL0     C20329   1.978  10.890   6.202 -0.6784  0.4860  0.2896
  892MOL0    Cl20330   1.837  10.770   6.206 -0.2121 -0.0813  0.2013
  892MOL0     C20331   2.714  11.140   5.760 -0.5570 -0.3127  0.3800
  892MOL0     C20332   2.838  11.100   5.713 -0.3522  0.3034  0.9417
  892MOL0     O20333   3.016  11.255   5.530 -0.8310 -0.4324  0.6656
  892MOL0     C20334   3.319  11.079   5.567  0.7826 -0.2722  0.7334
  892MOL0     C20335   3.440  11.053   5.508 -0.1633  1.2969  0.8815
  892MOL0     N20336   4.103  11.039   5.270  0.1697 -0.0142 -0.5804
  892MOL0     N20337   4.235  11.036   5.288  0.3779 -0.4426 -0.4396
  892MOL0     C20338   5.253  10.597   5.650  0.0318  0.0340 -0.4443
  892MOL0     C20339   5.380  10.578   5.705  0.7385 -0.0092  0.1607
  892MOL0     C20340   5.832  10.418   5.705  0.5199 -0.1400  0.3830
  892MOL0     C20341   5.920  10.304   5.703  0.2860 -0.2513  0.2053
  892MOL0     C20342   6.019  10.293   5.793  0.5137  0.1731  0.2289
  892MOL0     C20343   6.060  10.406   5.869 -0.3782  0.6463  0.5341
  892MOL0     O20344   6.172  10.413   5.941  0.1454  0.8162  0.3662
  892MOL0     C20345   6.253  10.294   5.947  0.1605  0.2919 -0.2790
  892MOL0     C20346   6.401  10.337   5.972 -0.0848 -0.2225 -0.6251
  892MOL0     C20347   6.499  10.218   6.009 -0.3006  0.4321  0.0806
  892MOL0     C20348   6.477  10.159   6.155 -0.2610 -0.1085 -0.2092
  892MOL0     C20349   6.568  10.048   6.183  0.4208 -0.4153  0.6903
  892MOL0     C20350   6.659   9.964   6.204 -0.5192  0.1173 -0.6765
  892MOL0     C20351   5.981  10.530   5.864  0.4464  0.1073  0.3773
  892MOL0     C20352   5.866  10.529   5.791  0.9007  0.0051  0.1466
  892MOL0     H20353   5.526  10.443   5.422  1.4487 -0.6098  1.2636
  892MOL0     H20354   5.289  10.461   5.348 -0.8059  0.8562 -0.2681
  892MOL0     H20355   4.960  10.569   5.614 -1.5261 -0.5967 -0.7585
  892MOL0     H20356   5.031  10.733   5.572  0.2130 -0.4716  0.4740
  892MOL0     H20357   4.866  10.567   5.381 -2.2324 -0.8210  1.4920
  892MOL0     H20358   4.811  10.701   5.496 -1.0206 -2.1971 -0.3127
  892MOL0     H20359   4.940  10.863   5.353  0.7896  0.3268 -1.2059
  892MOL0     H20360   5.020  10.720   5.270  0.2833  0.0943  0.4019
  892MOL0     H20361   4.883  10.821   5.129 -1.7284 -2.6978 -3.7007
  892MOL0     H20362   4.831  10.661   5.145 -2.2219  0.3990 -0.9537
  892MOL0     H20363   4.638  10.722   5.296  1.0990 -0.6524  0.6742
  892MOL0     H20364   4.675  10.888   5.284 -0.1395  0.6371 -0.9791
  892MOL0     H20365   4.638  10.867   5.027 -0.3791 -1.0879 -0.0773
  892MOL0     H20366   4.591  10.698   5.048 -2.1069 -1.1299  0.7282
  892MOL0     H20367   4.394  10.805   5.053  1.2897 -3.0760  0.2282
  892MOL0     H20368   4.427  10.780   5.234 -0.2824  1.0362  0.7454
  892MOL0     H20369   4.476  11.026   5.069  0.5786  0.3983 -0.5047
  892MOL0     H20370   4.478  11.027   5.239 -1.4667  0.0546  0.3365
  892MOL0     H20371   4.202  10.952   4.968 -0.2193 -1.7286  0.0802
  892MOL0     H20372   3.910  11.049   5.004 -0.9722 -1.8378 -2.0198
  892MOL0     H20373   3.923  10.875   5.049  1.3458 -1.2851  1.4422
  892MOL0     H20374   3.836  10.947   5.277  0.2757 -0.7043 -0.2425
  892MOL0     H20375   3.731  10.963   5.140  2.3239  0.2680 -4.8437
  892MOL0     H20376   3.824  11.221   5.138 -0.0031 -1.9151 -2.0262
  892MOL0     H20377   3.869  11.180   5.307  0.7641  0.2423 -0.8678
  892MOL0     H20378   3.618  11.203   5.171  0.3395 -1.5172 -0.1666
  892MOL0     H20379   3.664  11.285   5.314 -1.3674  0.5443 -1.0785
  892MOL0     H20380   3.430  11.274   5.257 -1.3494  0.2886 -1.5735
  892MOL0     H20381   3.093  11.287   5.272  1.0740  0.2415 -4.2046
  892MOL0     H20382   3.155  11.406   5.394 -0.3305  0.6859 -0.1351
  892MOL0     H20383   3.233  11.378   5.233  1.1614 -1.3847  0.6710
  892MOL0     H20384   3.044  11.299   5.908 -0.2127  0.2995  1.5190
  892MOL0     H20385   2.840  11.330   6.016  1.4268  0.7138 -0.7331
  892MOL0     H20386   2.602  11.286   6.108 -2.6404  0.3025  3.2422
  892MOL0     H20387   2.611  11.438   6.011  1.3192 -0.8264 -2.8170
  892MOL0     H20388   2.394  11.440   6.120  0.5372 -0.7996  1.0270
  892MOL0     H20389   2.377  11.406   5.945 -0.9310  2.9915  1.1653
  892MOL0     H20390   2.358  11.196   6.175  0.5859 -2.0390 -0.8903
  892MOL0     H20391   2.359  11.155   6.007  1.7831 -0.2403  0.3873
  892MOL0     H20392   2.171  11.373   6.097  1.1839  1.3667 -0.9342
  892MOL0     H20393   2.175  11.292   5.944  0.6072  1.9465  1.1605
  892MOL0     H20394   1.997  11.201   6.098  0.4094  2.2458 -2.9950
  892MOL0     H20395   2.113  11.158   6.218 -2.4203 -1.6957  0.4321
  892MOL0     H20396   2.136  11.041   5.923  2.3089  2.6402  1.1627
  892MOL0     H20397   2.211  10.977   6.064 -0.1148 -2.8550 -1.3109
  892MOL0     H20398   2.025  10.851   5.986  1.3327  0.8053 -0.2747
  892MOL0     H20399   1.903  10.979   6.004 -1.1788 -1.3763  0.5571
  892MOL0     H20400   1.970  10.977   6.268 -0.5352 -1.0880  2.5015
  892MOL0     H20401   2.070  10.835   6.223  0.1223  0.9427 -1.8173
  892MOL0     H20402   2.617  11.121   5.716  0.7949  1.0263 -3.6206
  892MOL0     H20403   2.845  11.046   5.619  2.0924  2.6292 -0.3404
  892MOL0     H20404   3.295  11.030   5.661 -1.4345  1.4388  1.1529
  892MOL0     H20405   3.508  10.993   5.569 -1.4428  0.0472  1.1105
  892MOL0     H20406   5.177  10.647   5.709 -0.2175  0.4992 -1.1441
  892MOL0     H20407   5.393  10.606   5.809 -0.3338  1.3424 -0.0309
  892MOL0     H20408   5.899  10.222   5.634  0.5966  0.1164 -0.3357
  892MOL0     H20409   6.075  10.201   5.779  3.4156  1.8721 -0.3433
  892MOL0     H20410   6.223  10.229   6.030  1.5374 -0.2968 -0.2121
  892MOL0     H20411   6.258  10.232   5.857  1.6330 -2.2937  1.4640
  892MOL0     H20412   6.399  10.408   6.054  1.2466  0.3125 -1.0295
  892MOL0     H20413   6.429  10.390   5.881 -1.7792 -0.8359 -1.5667
  892MOL0     H20414   6.606  10.240   6.001 -0.2394  0.5311  0.9931
  892MOL0     H20415   6.477  10.142   5.934  1.9441  0.9233 -1.1812
  892MOL0     H20416   6.378  10.113   6.159  0.5704 -1.9316  2.2808
  892MOL0     H20417   6.479  10.235   6.233  2.1799 -1.0533  0.7378
  892MOL0     H20418   6.735   9.891   6.224 -0.2292  0.3943 -0.7408
  892MOL0     H20419   6.004  10.613   5.930 -1.5019 -0.8891  2.4508
  892MOL0     H20420   5.792  10.607   5.804  1.2443  0.4543 -0.5229
  893MOL0     O20421   9.467   7.094   8.708  0.1175 -0.4072  0.4754
  893MOL0     C20422   9.494   7.149   8.601 -0.4373  0.2803  0.0102
  893MOL0     O20423   9.417   7.144   8.482 -1.1170  0.5044  0.4678
  893MOL0     C20424   9.300   7.077   8.484 -0.0170  0.5149  0.1253
  893MOL0     C20425   9.179   7.125   8.433  0.0196  0.1594 -0.0681
  893MOL0     C20426   9.067   7.040   8.430 -0.5180  1.1819 -0.0721
  893MOL0     C20427   9.069   6.906   8.466 -0.8815 -0.1715  0.4350
  893MOL0     O20428   8.961   6.831   8.447  0.7325  0.1264 -0.0911
  893MOL0     C20429   8.940   6.712   8.524  0.1646 -0.8187  0.0322
  893MOL0     C20430   8.797   6.686   8.547 -0.0936  0.0887  1.0709
  893MOL0     C20431   8.746   6.590   8.436 -0.2951 -0.2793 -0.8923
  893MOL0     C20432   8.604   6.542   8.455 -0.2064 -0.4004 -0.1738
  893MOL0     C20433   8.563   6.497   8.317  0.9738  0.2859  0.4552
  893MOL0     C20434   8.439   6.413   8.344  0.5595  0.2424  0.4868
  893MOL0     C20435   8.383   6.368   8.210  0.0066 -0.1517  0.7808
  893MOL0     C20436   8.235   6.318   8.211  0.4297  0.1449 -0.9298
  893MOL0     N20437   8.215   6.195   8.287  0.1064 -0.1902 -0.2690
  893MOL0     C20438   8.223   6.065   8.236  0.9095 -0.7554  0.0170
  893MOL0     C20439   8.207   5.985   8.344 -0.5104  0.0365  0.4766
  893MOL0     C20440   8.210   5.831   8.346 -0.4044 -0.1255  0.3333
  893MOL0     C20441   8.073   5.775   8.389  0.1493 -0.5843 -0.3696
  893MOL0     C20442   8.045   5.635   8.350 -0.0552  0.4756  0.4595
  893MOL0     C20443   7.912   5.579   8.402 -0.9117 -0.2059 -0.3985
  893MOL0     O20444   7.895   5.443   8.352 -0.3147 -0.5844 -0.0454
  893MOL0     C20445   7.779   5.384   8.385 -0.2414 -0.1075  1.1582
  893MOL0     C20446   7.777   5.294   8.489  1.0228 -0.1981 -0.1705
  893MOL0     C20447   7.652   5.233   8.542  0.3707 -1.0245  0.3859
  893MOL0     C20448   7.657   5.144   8.663 -0.1504  0.3376  0.0086
  893MOL0     C20449   7.532   5.256   8.471 -1.1417 -0.2315 -0.5036
  893MOL0     C20450   7.405   5.201   8.512  0.4541 -0.4904  1.1175
  893MOL0     O20451   7.330   5.146   8.405 -0.2480 -0.8842  0.0964
  893MOL0     C20452   7.196   5.132   8.420 -0.0635  0.5521  0.2786
  893MOL0     C20453   7.115   5.238   8.439  0.2660  0.3894 -0.6702
  893MOL0     C20454   6.979   5.211   8.443  0.8481  0.7770  0.0253
  893MOL0     C20455   6.923   5.088   8.406  0.6054  0.5857 -0.1584
  893MOL0     O20456   6.787   5.061   8.409  0.2560 -0.5023  0.2221
  893MOL0     C20457   6.689   5.165   8.389 -0.0597 -0.0666 -0.1998
  893MOL0     C20458   6.683   5.216   8.252  0.4637 -0.2286  0.0828
  893MOL0     C20459   6.549   5.295   8.224 -0.5301 -0.0984  0.0016
  893MOL0     C20460   6.528   5.427   8.307 -0.2225 -0.0552  0.4334
  893MOL0     C20461   6.401   5.503   8.276 -0.4350 -0.3922  0.1323
  893MOL0     C20462   6.271   5.418   8.268 -0.4296 -0.7051 -0.5989
  893MOL0     C20463   6.150   5.499   8.303  0.0639 -0.5230  0.0553
  893MOL0     C20464   6.118   5.621   8.212 -0.3348  0.3429  0.1483
  893MOL0    Cl20465   6.044   5.553   8.068 -1.1830  0.2260 -0.0857
  893MOL0     C20466   7.015   4.980   8.392 -0.1660 -0.3950 -0.4115
  893MOL0     C20467   7.145   5.005   8.398 -0.2110 -0.3051  0.2037
  893MOL0     O20468   7.366   5.227   8.619 -0.1288 -0.3130 -0.0675
  893MOL0     C20469   7.545   5.333   8.358 -0.4124  0.2438  1.0358
  893MOL0     C20470   7.663   5.392   8.310 -0.2320 -1.2356  0.2063
  893MOL0     N20471   8.201   6.064   8.458  0.0260 -0.3333  0.0461
  893MOL0     N20472   8.201   6.186   8.420  0.0657  0.3107 -0.8934
  893MOL0     C20473   9.196   6.853   8.511 -0.2384 -0.3072  0.2129
  893MOL0     C20474   9.302   6.939   8.517  0.6479 -0.9432  0.4162
  893MOL0     C20475   9.631   7.214   8.595  0.0102  0.0651  0.5878
  893MOL0     C20476   9.659   7.291   8.486  0.4430 -0.4913  0.1734
  893MOL0     C20477   9.783   7.351   8.470 -0.2807 -0.5124 -0.4770
  893MOL0     C20478   9.887   7.324   8.558 -0.4102 -1.0260  0.5375
  893MOL0     O20479  10.016   7.368   8.542  0.2577  0.9084  0.3739
  893MOL0     C20480  10.117   7.338   8.638 -0.3309  0.4086  0.2248
  893MOL0     C20481  10.168   7.191   8.613 -0.3665 -0.9793 -0.0242
  893MOL0     C20482  10.255   7.197   8.486 -0.1757  0.0310 -0.2424
  893MOL0     C20483  10.398   7.239   8.525  0.0926  0.0079 -0.4782
  893MOL0     C20484  10.494   7.188   8.429 -0.9010  0.1625 -0.1165
  893MOL0     C20485  10.573   7.168   8.336  0.1840  0.2460  0.5338
  893MOL0     C20486   9.857   7.238   8.663  0.1218 -0.5311  0.1370
  893MOL0     C20487   9.725   7.195   8.686 -0.4426  0.2551  0.6475
  893MOL0     H20488   9.173   7.231   8.409  0.3872  0.2712  0.3265
  893MOL0     H20489   8.974   7.081   8.394 -1.9666 -2.6491 -1.1892
  893MOL0     H20490   8.989   6.630   8.471  0.2469  0.0429 -1.2858
  893MOL0     H20491   8.999   6.721   8.616  0.2015 -2.8865  0.2378
  893MOL0     H20492   8.778   6.642   8.645 -0.9317  2.4931  2.0520
  893MOL0     H20493   8.738   6.777   8.536  1.2554  0.9321  0.6458
  893MOL0     H20494   8.748   6.648   8.344 -1.0539  1.3353  0.0660
  893MOL0     H20495   8.804   6.497   8.432 -1.9635 -1.6618  2.5736
  893MOL0     H20496   8.608   6.456   8.523  2.4347 -3.7860 -4.1298
  893MOL0     H20497   8.537   6.617   8.497 -2.7741 -2.5688 -0.1631
  893MOL0     H20498   8.546   6.581   8.249 -1.6532 -2.8096 -3.1351
  893MOL0     H20499   8.633   6.433   8.264 -0.4223 -0.1039 -1.0047
  893MOL0     H20500   8.460   6.335   8.418 -2.0103  0.4659  1.5488
  893MOL0     H20501   8.359   6.477   8.384 -0.2755 -0.4936  0.0092
  893MOL0     H20502   8.393   6.462   8.155  1.5736 -0.1810  0.9645
  893MOL0     H20503   8.451   6.297   8.161 -1.4758 -0.5399 -0.8134
  893MOL0     H20504   8.210   6.299   8.106  0.0936  3.5050 -1.5559
  893MOL0     H20505   8.172   6.395   8.256 -1.3091 -1.3124 -0.7685
  893MOL0     H20506   8.216   6.038   8.131  1.7443 -0.9935  0.0116
  893MOL0     H20507   8.249   5.798   8.249  0.9021 -2.1347  1.4827
  893MOL0     H20508   8.292   5.808   8.414  0.4236  2.9073  0.5368
  893MOL0     H20509   7.999   5.848   8.353  2.8497  1.8146 -1.4445
  893MOL0     H20510   8.059   5.784   8.497 -1.7413 -0.0485 -0.6090
  893MOL0     H20511   8.129   5.576   8.389 -1.1222 -0.8882  0.7653
  893MOL0     H20512   8.052   5.631   8.241 -0.4309  0.9107  0.4190
  893MOL0     H20513   7.833   5.649   8.377 -1.7653 -1.0407 -0.0863
  893MOL0     H20514   7.940   5.568   8.508  0.1648 -0.6621 -0.7107
  893MOL0     H20515   7.871   5.286   8.543  0.2302 -1.8362  1.0396
  893MOL0     H20516   7.755   5.146   8.713  0.4515 -0.6170 -1.0811
  893MOL0     H20517   7.579   5.172   8.733 -2.5252 -0.2166 -2.2721
  893MOL0     H20518   7.630   5.044   8.629 -1.8661  1.2435 -1.4676
  893MOL0     H20519   7.163   5.331   8.467  2.5703 -0.5432 -1.2895
  893MOL0     H20520   6.917   5.293   8.477 -0.7763 -0.8673  1.2834
  893MOL0     H20521   6.588   5.130   8.413  0.2432 -0.2587  0.8805
  893MOL0     H20522   6.708   5.244   8.463 -1.7417  0.1581  0.0419
  893MOL0     H20523   6.766   5.287   8.242  0.3295  0.2862  2.2426
  893MOL0     H20524   6.693   5.129   8.186  2.6831  0.9099 -1.1982
  893MOL0     H20525   6.459   5.237   8.244 -2.8201  2.2636 -2.6130
  893MOL0     H20526   6.545   5.322   8.118 -0.7185 -5.9852 -1.8250
  893MOL0     H20527   6.515   5.392   8.410 -0.0117  2.7348  1.4828
  893MOL0     H20528   6.617   5.489   8.292 -0.2704 -0.4884 -2.2699
  893MOL0     H20529   6.415   5.554   8.180  1.1992 -1.5269 -0.2715
  893MOL0     H20530   6.393   5.572   8.360  1.3145 -3.0589  2.6687
  893MOL0     H20531   6.256   5.363   8.174  0.3131  1.4408 -2.0539
  893MOL0     H20532   6.271   5.352   8.355 -1.1643  2.1143  1.7038
  893MOL0     H20533   6.168   5.528   8.407 -1.8082 -0.2351  0.3468
  893MOL0     H20534   6.061   5.435   8.308 -0.3369 -0.2724 -2.4148
  893MOL0     H20535   6.208   5.677   8.184 -0.0342  0.5848  1.5128
  893MOL0     H20536   6.051   5.692   8.261  0.8649  1.4227  0.2919
  893MOL0     H20537   6.974   4.880   8.388 -0.5190 -0.3856  1.8832
  893MOL0     H20538   7.216   4.922   8.393 -0.9788 -1.2519  3.0131
  893MOL0     H20539   7.461   5.363   8.296  1.4717 -0.5709 -2.1661
  893MOL0     H20540   7.685   5.452   8.222  1.3760 -0.6495  0.9663
  893MOL0     H20541   9.202   6.746   8.532 -2.1369 -0.7523 -1.1481
  893MOL0     H20542   9.390   6.893   8.562  2.3154  0.3598 -1.3382
  893MOL0     H20543   9.578   7.306   8.415 -0.1774 -1.8935  0.5443
  893MOL0     H20544   9.806   7.426   8.395 -0.9843  2.1155  1.7647
  893MOL0     H20545  10.199   7.406   8.612  0.0751 -0.8147 -1.9426
  893MOL0     H20546  10.081   7.365   8.738 -0.4441  0.3867  0.1908
  893MOL0     H20547  10.081   7.126   8.603 -1.7662  1.0346 -2.1020
  893MOL0     H20548  10.212   7.162   8.709 -1.8897  2.7169  2.0231
  893MOL0     H20549  10.206   7.246   8.401 -1.3286 -3.4124 -1.7605
  893MOL0     H20550  10.262   7.092   8.454  0.0449  0.0698 -0.3257
  893MOL0     H20551  10.422   7.189   8.619 -0.0403 -0.7661 -0.8484
  893MOL0     H20552  10.404   7.347   8.539 -2.2147 -0.0242  1.3791
  893MOL0     H20553  10.627   7.156   8.244 -0.9615 -1.3271  0.0175
  893MOL0     H20554   9.935   7.224   8.737  1.3774  0.9401 -0.8541
  893MOL0     H20555   9.709   7.132   8.773 -2.7436  1.8552  1.4894
  894MOL0     O20556   1.416   2.301   2.901  0.2540  0.2284  0.7378
  894MOL0     C20557   1.410   2.421   2.863 -0.9746  0.0338 -0.0861
  894MOL0     O20558   1.315   2.478   2.783  0.0872 -0.1685 -0.1188
  894MOL0     C20559   1.216   2.397   2.737  0.0308  0.2932 -0.2910
  894MOL0     C20560   1.231   2.265   2.690  0.3659 -0.9680  0.2726
  894MOL0     C20561   1.130   2.205   2.609  0.5171  0.1571  0.8924
  894MOL0     C20562   1.004   2.270   2.595 -0.4526 -0.5464 -0.2125
  894MOL0     O20563   0.895   2.229   2.530 -0.6436  0.2358  0.2700
  894MOL0     C20564   0.902   2.114   2.445 -0.8429  0.2124  0.4049
  894MOL0     C20565   0.783   2.105   2.347 -0.0705 -0.7263  0.7488
  894MOL0     C20566   0.751   2.247   2.286  0.0413  0.6837  0.2145
  894MOL0     C20567   0.624   2.253   2.200  0.5906 -0.8326  0.1666
  894MOL0     C20568   0.516   2.325   2.269  0.7313 -1.1679 -0.2224
  894MOL0     C20569   0.456   2.265   2.402 -0.2445 -0.1445  0.3665
  894MOL0     C20570   0.372   2.369   2.472  0.6491  0.4250 -1.7441
  894MOL0     C20571   0.308   2.313   2.597  0.6765  0.2708  0.9780
  894MOL0     N20572   0.245   2.414   2.681  0.1705  0.0040 -0.1661
  894MOL0     C20573   0.148   2.389   2.768 -0.6159  0.4432  0.1151
  894MOL0     C20574   0.116   2.509   2.821 -0.4650  0.6444  0.5469
  894MOL0     C20575   0.001   2.548   2.901 -0.1808 -0.5965 -1.0658
  894MOL0     C20576  -0.116   2.591   2.816 -0.2589  0.1329 -0.3504
  894MOL0     C20577  -0.105   2.726   2.741 -0.0862  0.3310  0.2696
  894MOL0     C20578  -0.202   2.744   2.628  0.0232 -1.1299 -0.9301
  894MOL0     O20579  -0.318   2.795   2.694  0.3973  0.0138  0.2530
  894MOL0     C20580  -0.435   2.792   2.616  0.2369  0.6120 -0.5879
  894MOL0     C20581  -0.552   2.843   2.673 -0.2732 -0.5938 -0.4411
  894MOL0     C20582  -0.675   2.848   2.608  0.5642 -0.1166 -0.6197
  894MOL0     C20583  -0.793   2.900   2.691  0.1833 -0.1133 -0.0827
  894MOL0     C20584  -0.685   2.785   2.479  0.2242 -0.4034 -0.6486
  894MOL0     C20585  -0.816   2.775   2.406 -0.3693 -0.4040 -0.1528
  894MOL0     O20586  -0.797   2.761   2.270 -0.1698 -0.6669  0.2865
  894MOL0     C20587  -0.913   2.738   2.194 -0.6924  0.0557  0.0245
  894MOL0     C20588  -0.959   2.609   2.185  0.2304  0.1411  0.6353
  894MOL0     C20589  -1.070   2.583   2.102 -0.0476 -0.4105 -0.0182
  894MOL0     C20590  -1.134   2.686   2.029 -0.2303  0.3992  0.1804
  894MOL0     O20591  -1.235   2.661   1.943 -0.3795 -0.0049 -0.5792
  894MOL0     C20592  -1.343   2.568   1.991 -0.0172 -0.2979 -0.0090
  894MOL0     C20593  -1.478   2.580   1.917 -1.1493  0.5433  0.7981
  894MOL0     C20594  -1.533   2.714   1.937 -0.1603 -0.2955 -0.8393
  894MOL0     C20595  -1.632   2.759   1.823 -0.6364 -0.3211  0.1782
  894MOL0     C20596  -1.724   2.874   1.860  0.3255  0.2248  1.0936
  894MOL0     C20597  -1.683   3.015   1.884 -0.5486  0.7138  0.5488
  894MOL0     C20598  -1.596   3.090   1.783  0.1857  0.3542  0.0751
  894MOL0     C20599  -1.446   3.067   1.799 -0.3555  0.0560 -0.1480
  894MOL0    Cl20600  -1.391   3.135   1.951  0.4425  0.1030 -0.2984
  894MOL0     C20601  -1.086   2.814   2.049 -0.1466  0.5315 -0.7066
  894MOL0     C20602  -0.973   2.841   2.125 -0.3973 -0.6063 -1.2190
  894MOL0     O20603  -0.925   2.778   2.462  0.8475 -0.7142  0.0216
  894MOL0     C20604  -0.567   2.732   2.425  1.9095 -0.0183  0.4232
  894MOL0     C20605  -0.447   2.725   2.491 -0.7299  0.4806  0.0924
  894MOL0     N20606   0.209   2.598   2.775  0.4574 -0.1803 -0.0853
  894MOL0     N20607   0.294   2.535   2.698  0.0079 -0.4099 -0.2445
  894MOL0     C20608   0.992   2.394   2.662 -0.3983  0.0521 -0.1074
  894MOL0     C20609   1.098   2.458   2.725 -0.7180  0.4360  1.0782
  894MOL0     C20610   1.511   2.527   2.916  0.0256  0.0606 -0.2864
  894MOL0     C20611   1.477   2.666   2.918 -0.2685 -0.5341  0.0398
  894MOL0     C20612   1.573   2.760   2.963 -0.0361 -0.4179  0.1814
  894MOL0     C20613   1.701   2.726   3.015  0.8844 -0.2722 -0.0577
  894MOL0     O20614   1.808   2.813   3.049 -0.0736 -0.7815 -0.0227
  894MOL0     C20615   1.809   2.952   2.996 -0.8767 -0.5650  0.6977
  894MOL0     C20616   1.814   2.956   2.843 -0.3810 -0.1277 -0.5016
  894MOL0     C20617   1.780   3.097   2.782 -0.2420 -0.2310 -0.0666
  894MOL0     C20618   1.902   3.194   2.771 -0.5593 -0.9205  0.2090
  894MOL0     C20619   1.996   3.153   2.675  0.2955 -0.4357  0.1379
  894MOL0     C20620   2.088   3.121   2.606  0.1075  0.1103 -0.2396
  894MOL0     C20621   1.719   2.590   3.020 -0.3305  1.1906  0.1057
  894MOL0     C20622   1.632   2.488   2.981 -0.0847 -0.0355  0.9300
  894MOL0     H20623   1.333   2.228   2.692  1.4612  1.8581  0.6043
  894MOL0     H20624   1.153   2.106   2.571 -0.3917 -0.0119  0.7494
  894MOL0     H20625   0.998   2.114   2.394 -0.2506 -0.6210  1.4935
  894MOL0     H20626   0.918   2.029   2.512  2.6159  2.6384  3.0464
  894MOL0     H20627   0.808   2.030   2.271 -0.2168  1.3885 -1.5087
  894MOL0     H20628   0.694   2.068   2.397  0.4656 -1.6608  1.0365
  894MOL0     H20629   0.745   2.321   2.366  1.7259 -0.0382  1.0623
  894MOL0     H20630   0.837   2.263   2.220 -1.8666 -1.6199 -3.0861
  894MOL0     H20631   0.649   2.303   2.106  2.0277 -1.3079  0.2673
  894MOL0     H20632   0.596   2.149   2.185  1.8936 -1.3818  1.3064
  894MOL0     H20633   0.539   2.432   2.280 -0.2675 -0.8626 -0.9527
  894MOL0     H20634   0.433   2.335   2.198 -0.7352  0.1698  1.5592
  894MOL0     H20635   0.394   2.181   2.370 -0.3960  0.1248 -0.0525
  894MOL0     H20636   0.534   2.244   2.475 -0.1747 -1.3478 -0.0371
  894MOL0     H20637   0.440   2.446   2.509 -0.7678  0.0318  2.0805
  894MOL0     H20638   0.296   2.415   2.409 -0.1437 -0.1025 -1.1891
  894MOL0     H20639   0.369   2.245   2.657 -1.9686 -0.6804  2.7681
  894MOL0     H20640   0.229   2.243   2.571  0.7981  0.1957  0.8052
  894MOL0     H20641   0.093   2.298   2.790  2.3518 -1.4241  0.4008
  894MOL0     H20642  -0.029   2.455   2.951 -2.1034  0.2398 -0.5438
  894MOL0     H20643   0.023   2.622   2.980  2.0989 -0.5009 -1.7292
  894MOL0     H20644  -0.204   2.588   2.881 -0.0803 -4.3485  0.0329
  894MOL0     H20645  -0.131   2.516   2.738 -0.0442  2.7625 -3.1083
  894MOL0     H20646  -0.005   2.731   2.695 -0.3266  1.7428 -0.1413
  894MOL0     H20647  -0.108   2.816   2.803  2.8132 -0.1682  1.3171
  894MOL0     H20648  -0.213   2.649   2.575 -2.3723 -2.6767  2.0506
  894MOL0     H20649  -0.159   2.816   2.558  1.9917  0.8148  2.0342
  894MOL0     H20650  -0.539   2.893   2.768  0.9801  0.8638 -1.3166
  894MOL0     H20651  -0.843   2.983   2.639  1.2934  0.5928 -0.0381
  894MOL0     H20652  -0.863   2.829   2.737  2.9374 -1.9481  1.5523
  894MOL0     H20653  -0.743   2.945   2.777 -0.4919  0.0361  0.2420
  894MOL0     H20654  -0.907   2.530   2.237 -0.5516 -1.8396 -1.4226
  894MOL0     H20655  -1.109   2.482   2.092 -0.4789 -0.2006 -0.5062
  894MOL0     H20656  -1.293   2.471   1.991  2.0179  0.6157  2.8889
  894MOL0     H20657  -1.356   2.602   2.094 -1.4533  0.4847 -0.4129
  894MOL0     H20658  -1.467   2.558   1.810  0.6586  0.5278  0.9476
  894MOL0     H20659  -1.556   2.509   1.944 -1.9695  0.2232 -2.0486
  894MOL0     H20660  -1.450   2.785   1.935  0.9654 -1.4467  1.3490
  894MOL0     H20661  -1.579   2.718   2.036 -1.6789  1.4526 -1.5487
  894MOL0     H20662  -1.572   2.784   1.735  1.0628  1.3294  1.7450
  894MOL0     H20663  -1.685   2.664   1.809 -3.1766  0.8956  0.8762
  894MOL0     H20664  -1.774   2.848   1.954 -0.2330  3.5165  1.8287
  894MOL0     H20665  -1.799   2.880   1.780  1.4069 -1.4423 -0.1375
  894MOL0     H20666  -1.776   3.072   1.881 -2.1487 -1.6605  1.4698
  894MOL0     H20667  -1.635   3.023   1.982  0.2684 -0.6238  0.2874
  894MOL0     H20668  -1.614   3.198   1.791 -0.5441  0.1581  1.2908
  894MOL0     H20669  -1.622   3.054   1.683 -1.4968  1.8091 -0.0475
  894MOL0     H20670  -1.403   3.104   1.705  0.0509 -0.6265 -0.2355
  894MOL0     H20671  -1.428   2.959   1.793  0.3819  0.2230 -1.2878
  894MOL0     H20672  -1.152   2.887   2.003 -0.0171 -0.0402 -1.8314
  894MOL0     H20673  -0.952   2.947   2.138 -1.3828 -0.1797 -2.7696
  894MOL0     H20674  -0.571   2.681   2.330  1.9983  1.9704 -0.7067
  894MOL0     H20675  -0.374   2.661   2.443  0.2850  1.6345  0.0634
  894MOL0     H20676   0.894   2.441   2.665 -0.9970 -1.1562 -0.1948
  894MOL0     H20677   1.078   2.555   2.769 -0.6623 -0.0300  2.1705
  894MOL0     H20678   1.379   2.704   2.892 -0.4027 -2.4639 -2.6492
  894MOL0     H20679   1.551   2.866   2.948 -1.4877 -0.6127  0.7802
  894MOL0     H20680   1.725   3.018   3.024 -1.9480 -0.1889 -2.9146
  894MOL0     H20681   1.902   3.001   3.026  0.8422 -2.3058 -1.5182
  894MOL0     H20682   1.742   2.884   2.802 -2.6832  2.6744 -1.6972
  894MOL0     H20683   1.906   2.926   2.793 -1.2553  1.4081 -3.2528
  894MOL0     H20684   1.701   3.154   2.832 -0.0218 -0.7710  0.9299
  894MOL0     H20685   1.737   3.087   2.682 -0.1194  1.2222 -0.2861
  894MOL0     H20686   1.961   3.191   2.863  1.5740 -3.1623 -1.1051
  894MOL0     H20687   1.860   3.292   2.746 -1.6285 -1.9482 -2.3510
  894MOL0     H20688   2.165   3.074   2.548  0.4438  0.9116 -0.4541
  894MOL0     H20689   1.811   2.559   3.069 -0.4813 -0.1532 -0.4048
  894MOL0     H20690   1.664   2.384   2.984 -0.9845 -0.3538  0.1042
  895MOL0     O20691  11.242   3.590   1.521  0.1264 -0.5621  0.0269
  895MOL0     C20692  11.315   3.628   1.611 -0.8611 -1.2823 -0.8904
  895MOL0     O20693  11.284   3.650   1.741 -0.0069  0.6777 -0.0872
  895MOL0     C20694  11.150   3.639   1.768 -0.3317  0.2120  0.9025
  895MOL0     C20695  11.122   3.520   1.838  1.0871  0.6852 -0.0426
  895MOL0     C20696  10.988   3.490   1.888 -0.7616 -0.0887 -0.0972
  895MOL0     C20697  10.899   3.588   1.870  1.2608  0.4853 -1.1372
  895MOL0     O20698  10.778   3.588   1.944  0.2684 -0.5952 -0.2208
  895MOL0     C20699  10.716   3.466   1.986  0.7793  0.2858  0.4877
  895MOL0     C20700  10.599   3.504   2.074 -0.6269  0.4732  0.0445
  895MOL0     C20701  10.508   3.389   2.106 -0.4448 -0.0272  0.1670
  895MOL0     C20702  10.396   3.427   2.200  0.0018 -0.2699  0.8329
  895MOL0     C20703  10.303   3.316   2.211 -1.1141 -0.2356  0.4335
  895MOL0     C20704  10.195   3.360   2.312 -0.9831 -0.2232 -0.5705
  895MOL0     C20705  10.061   3.279   2.326 -0.3691 -0.1293 -0.1814
  895MOL0     C20706  10.083   3.127   2.322 -0.6382  0.5284 -0.0514
  895MOL0     N20707   9.947   3.069   2.321  0.0298  0.0937 -0.4329
  895MOL0     C20708   9.907   2.951   2.274 -0.1617  0.1913 -0.1448
  895MOL0     C20709   9.790   2.909   2.335 -0.4700 -0.6278  0.5669
  895MOL0     C20710   9.713   2.791   2.324  0.1819  0.3920  0.3193
  895MOL0     C20711   9.578   2.831   2.265 -0.4793  0.0082 -0.4429
  895MOL0     C20712   9.491   2.711   2.259  0.5462 -0.4325 -0.0970
  895MOL0     C20713   9.359   2.746   2.199  0.2773 -0.7689 -0.5243
  895MOL0     O20714   9.289   2.625   2.181  0.3929  0.0136  0.3633
  895MOL0     C20715   9.154   2.622   2.141 -0.5279 -0.5876  0.0355
  895MOL0     C20716   9.088   2.505   2.160  0.1926 -0.0511 -0.3031
  895MOL0     C20717   8.955   2.488   2.119  0.6438  0.2106 -0.2817
  895MOL0     C20718   8.897   2.343   2.132 -0.0989 -0.7246 -0.4434
  895MOL0     C20719   8.876   2.593   2.068 -0.2331 -0.8883  0.1267
  895MOL0     C20720   8.740   2.589   2.006 -0.6921 -0.5552 -0.6414
  895MOL0     O20721   8.655   2.486   2.035 -0.6727 -0.2763 -0.2844
  895MOL0     C20722   8.534   2.461   1.965  0.0825 -0.2329 -0.2437
  895MOL0     C20723   8.520   2.480   1.829 -0.1347 -0.0147 -0.2339
  895MOL0     C20724   8.416   2.434   1.752 -0.7703  0.4275  0.1479
  895MOL0     C20725   8.310   2.363   1.810  0.9330  0.0708 -0.3224
  895MOL0     O20726   8.202   2.311   1.743  0.4381 -0.3040  0.0118
  895MOL0     C20727   8.136   2.408   1.655 -0.3890 -0.2553  0.2144
  895MOL0     C20728   8.026   2.483   1.736 -0.6750  0.3717 -0.0463
  895MOL0     C20729   7.931   2.395   1.813 -0.6146 -0.1168 -0.2776
  895MOL0     C20730   7.834   2.329   1.710 -0.1404  0.5191  0.2849
  895MOL0     C20731   7.716   2.274   1.793  0.3863  0.4027 -0.3320
  895MOL0     C20732   7.751   2.163   1.900 -0.9973 -0.3339 -0.7319
  895MOL0     C20733   7.647   2.156   2.010  0.4456  0.4964  0.3038
  895MOL0     C20734   7.694   2.065   2.121 -0.0164  0.4825 -0.1792
  895MOL0    Cl20735   7.855   2.085   2.207  0.4650 -0.0237 -0.1045
  895MOL0     C20736   8.325   2.328   1.942 -0.4733  0.4482  0.0135
  895MOL0     C20737   8.441   2.370   2.024  0.4139 -0.0187 -0.4260
  895MOL0     O20738   8.711   2.677   1.927  0.5962  0.3320 -0.1478
  895MOL0     C20739   8.945   2.716   2.060  0.0364 -0.0203 -0.5061
  895MOL0     C20740   9.084   2.734   2.094  0.1967 -0.2019  1.0312
  895MOL0     N20741   9.766   3.013   2.421 -1.1117  0.3467  0.1363
  895MOL0     N20742   9.856   3.109   2.415  0.5130 -0.1159 -0.0781
  895MOL0     C20743  10.933   3.714   1.809  0.0230  0.6216  0.4908
  895MOL0     C20744  11.056   3.742   1.748 -0.6847 -1.1429 -0.3820
  895MOL0     C20745  11.453   3.646   1.560  0.9026  0.7991 -0.1641
  895MOL0     C20746  11.549   3.687   1.649  0.3852  0.5594  0.7316
  895MOL0     C20747  11.684   3.695   1.612 -0.0890  0.3322  0.3700
  895MOL0     C20748  11.727   3.678   1.479 -0.5939  0.4388  0.8792
  895MOL0     O20749  11.853   3.667   1.425 -1.2534 -0.6276 -0.1990
  895MOL0     C20750  11.970   3.709   1.496 -0.5231  0.0029 -0.9712
  895MOL0     C20751  12.083   3.626   1.453 -0.8368 -0.1994  0.0157
  895MOL0     C20752  12.229   3.659   1.493  0.4279  0.3653 -0.3052
  895MOL0     C20753  12.304   3.532   1.442  0.0245 -0.4388  0.0593
  895MOL0     C20754  12.447   3.561   1.422 -0.0044  0.6154  0.2937
  895MOL0     C20755  12.567   3.557   1.411 -0.1477  0.6297 -0.6379
  895MOL0     C20756  11.628   3.651   1.382 -0.6879  0.5247 -0.3268
  895MOL0     C20757  11.493   3.637   1.424 -1.0832  0.6406  0.4157
  895MOL0     H20758  11.209   3.457   1.856  0.1610 -0.0498  2.2903
  895MOL0     H20759  10.980   3.405   1.956  1.0178 -1.1425 -1.1150
  895MOL0     H20760  10.667   3.410   1.907 -0.6334  0.2363  1.3644
  895MOL0     H20761  10.786   3.400   2.038  0.4800 -0.8924 -0.5555
  895MOL0     H20762  10.637   3.547   2.167  2.2385 -3.6048  1.0587
  895MOL0     H20763  10.544   3.585   2.026 -1.1567 -0.9023 -1.7528
  895MOL0     H20764  10.469   3.341   2.016  1.5264 -0.2658 -0.5937
  895MOL0     H20765  10.573   3.311   2.145  0.5353 -0.0059 -1.3731
  895MOL0     H20766  10.435   3.449   2.300 -0.5532 -0.1115  1.0185
  895MOL0     H20767  10.347   3.515   2.156  0.5609 -0.0325  0.6638
  895MOL0     H20768  10.259   3.290   2.115 -2.0743 -2.0043  1.3129
  895MOL0     H20769  10.358   3.229   2.248 -0.8534  1.0455  3.4088
  895MOL0     H20770  10.245   3.359   2.409  0.7478 -0.5873 -1.4095
  895MOL0     H20771  10.167   3.465   2.302  0.1825  0.4956  2.5601
  895MOL0     H20772  10.008   3.301   2.419 -1.8726  1.2711 -1.3031
  895MOL0     H20773   9.997   3.314   2.244 -1.4781  0.7331  0.9945
  895MOL0     H20774  10.149   3.101   2.405  2.3008  2.6928 -1.5235
  895MOL0     H20775  10.133   3.109   2.226  0.6695 -1.1079  0.8771
  895MOL0     H20776   9.963   2.873   2.223 -1.0069 -0.9589  0.6370
  895MOL0     H20777   9.765   2.715   2.265 -0.6893 -1.6601  2.0820
  895MOL0     H20778   9.689   2.747   2.421  2.1503 -1.9147 -0.1257
  895MOL0     H20779   9.587   2.867   2.162 -1.3658  2.1441  0.1755
  895MOL0     H20780   9.522   2.900   2.330 -1.0737 -1.2097  0.3719
  895MOL0     H20781   9.468   2.662   2.354 -1.5562  0.7109  0.0249
  895MOL0     H20782   9.546   2.642   2.193  0.0796 -1.3578  0.4691
  895MOL0     H20783   9.365   2.795   2.101 -2.8605  1.4938  0.2818
  895MOL0     H20784   9.308   2.812   2.269  1.7171  0.0846 -0.2449
  895MOL0     H20785   9.151   2.425   2.197  0.8671 -0.6171 -2.5446
  895MOL0     H20786   8.922   2.288   2.041  1.3790  0.7528 -0.9817
  895MOL0     H20787   8.953   2.302   2.217 -1.4365  1.4441  1.6219
  895MOL0     H20788   8.793   2.332   2.163  0.5119  0.0394  2.1516
  895MOL0     H20789   8.588   2.537   1.767  2.0721 -1.1720  1.0356
  895MOL0     H20790   8.417   2.457   1.646 -0.0173 -0.2741 -0.0042
  895MOL0     H20791   8.202   2.483   1.613 -1.1237  1.6556  2.2548
  895MOL0     H20792   8.088   2.351   1.575  1.0296  0.7563 -1.4238
  895MOL0     H20793   8.072   2.549   1.810 -1.0590 -0.1372  0.6670
  895MOL0     H20794   7.974   2.545   1.663  1.6807  0.7067 -1.5397
  895MOL0     H20795   7.889   2.467   1.883  1.5540  1.7250 -0.7481
  895MOL0     H20796   7.978   2.314   1.871 -0.5205  0.2327  0.1383
  895MOL0     H20797   7.792   2.404   1.642 -3.0310 -0.3608  0.9611
  895MOL0     H20798   7.887   2.255   1.648  0.9848  1.0444  0.5851
  895MOL0     H20799   7.645   2.230   1.722  1.0436  1.6406 -1.8156
  895MOL0     H20800   7.671   2.350   1.858 -1.5799 -1.5674  0.7673
  895MOL0     H20801   7.766   2.063   1.857 -3.0241 -1.4970  1.0234
  895MOL0     H20802   7.846   2.186   1.949 -0.5491 -4.4275  0.7795
  895MOL0     H20803   7.557   2.115   1.962  0.8707 -1.2420  0.9271
  895MOL0     H20804   7.635   2.256   2.053  0.5264  1.9930 -2.8035
  895MOL0     H20805   7.680   1.961   2.091 -2.3567  0.2124  1.6591
  895MOL0     H20806   7.622   2.094   2.197  0.7154 -1.9239  1.5587
  895MOL0     H20807   8.252   2.261   1.986 -0.2298  1.1823  1.6091
  895MOL0     H20808   8.456   2.340   2.127 -0.4497  2.1115  0.3910
  895MOL0     H20809   8.896   2.807   2.028  1.3567  1.2037  0.7542
  895MOL0     H20810   9.126   2.834   2.107  0.6263 -0.7267  4.5910
  895MOL0     H20811  10.855   3.787   1.797 -0.3264 -0.0001 -1.2333
  895MOL0     H20812  11.087   3.829   1.691  4.0335 -0.2808  2.9118
  895MOL0     H20813  11.521   3.710   1.751  0.5047  2.9507  0.2819
  895MOL0     H20814  11.759   3.725   1.684 -1.8859  0.1247  2.4136
  895MOL0     H20815  11.988   3.816   1.482 -0.8493  0.3822  1.1576
  895MOL0     H20816  11.964   3.692   1.604  2.6041 -0.4315 -0.7790
  895MOL0     H20817  12.082   3.633   1.344  1.1907 -2.0309 -0.1886
  895MOL0     H20818  12.060   3.521   1.471  2.4190 -1.1474 -0.7038
  895MOL0     H20819  12.247   3.665   1.600 -0.5845  0.2476 -0.1149
  895MOL0     H20820  12.250   3.749   1.435 -2.8797 -0.9161 -3.9568
  895MOL0     H20821  12.254   3.491   1.354  1.0335 -2.4271  0.3548
  895MOL0     H20822  12.306   3.457   1.523 -0.4179  0.3784  0.8444
  895MOL0     H20823  12.670   3.532   1.395 -0.3351 -0.3380 -0.4197
  895MOL0     H20824  11.652   3.643   1.276  0.5894 -1.6665  0.0625
  895MOL0     H20825  11.416   3.629   1.347 -2.4498  4.1682  1.2571
  896MOL0     O20826   2.871   6.620   3.195  0.3153 -0.2208  0.1433
  896MOL0     C20827   2.922   6.697   3.280 -0.4089 -0.0203  0.1909
  896MOL0     O20828   2.856   6.791   3.351 -0.1256 -0.7203 -0.5566
  896MOL0     C20829   2.723   6.802   3.329 -0.2557 -0.0248  0.4948
  896MOL0     C20830   2.645   6.719   3.414  0.4142  1.2336  0.3718
  896MOL0     C20831   2.507   6.714   3.388 -0.0342  0.1976  0.3370
  896MOL0     C20832   2.454   6.789   3.278 -0.4284  0.2035 -0.1615
  896MOL0     O20833   2.323   6.781   3.242 -0.3314  0.0474 -0.0454
  896MOL0     C20834   2.273   6.658   3.187  0.4801  0.3602  0.0947
  896MOL0     C20835   2.121   6.672   3.149  0.5969 -0.2878 -0.0531
  896MOL0     C20836   2.019   6.569   3.204 -0.3918  0.2980 -0.1126
  896MOL0     C20837   2.043   6.423   3.164 -0.0739 -0.4929 -0.4416
  896MOL0     C20838   1.929   6.330   3.216 -0.3163 -0.7006 -0.1633
  896MOL0     C20839   1.789   6.338   3.150 -0.2547  0.4037 -0.6091
  896MOL0     C20840   1.776   6.305   3.003  0.6168 -0.2828 -0.1663
  896MOL0     C20841   1.629   6.282   2.954 -0.1455  0.5294  0.8064
  896MOL0     N20842   1.536   6.386   2.984  0.0151 -0.0966  1.2108
  896MOL0     C20843   1.428   6.365   3.067 -0.9589 -0.0762  0.1525
  896MOL0     C20844   1.366   6.488   3.052  1.0778 -0.2412  0.0070
  896MOL0     C20845   1.237   6.521   3.128 -0.3694  0.7877  1.3708
  896MOL0     C20846   1.136   6.607   3.045 -0.2671 -0.2434 -0.4669
  896MOL0     C20847   1.059   6.520   2.944 -0.6435 -0.2048  0.4955
  896MOL0     C20848   0.969   6.582   2.844 -0.5105 -0.4210  0.1664
  896MOL0     O20849   0.852   6.628   2.913  0.3933 -0.5248  0.6123
  896MOL0     C20850   0.782   6.725   2.853 -0.9282 -0.2993 -0.5422
  896MOL0     C20851   0.786   6.853   2.912  0.4742 -0.0678 -0.0739
  896MOL0     C20852   0.720   6.967   2.862  0.1221  0.3988 -0.3044
  896MOL0     C20853   0.716   7.093   2.950  0.0090 -0.1622  0.4959
  896MOL0     C20854   0.665   6.955   2.731 -0.4052 -0.0002  0.7089
  896MOL0     C20855   0.585   7.057   2.664  1.2083 -1.1936 -0.3415
  896MOL0     O20856   0.506   7.135   2.743 -0.1401 -0.3352 -0.2732
  896MOL0     C20857   0.416   7.227   2.692  1.0927  0.3066 -0.0210
  896MOL0     C20858   0.443   7.316   2.586 -0.6524 -0.6470  0.3996
  896MOL0     C20859   0.350   7.413   2.551 -0.6694 -0.1464  0.1138
  896MOL0     C20860   0.222   7.419   2.601  0.1489 -0.8509 -0.6356
  896MOL0     O20861   0.120   7.516   2.564 -0.5222 -0.2601  0.8634
  896MOL0     C20862   0.136   7.601   2.450  0.1723 -0.1265 -0.6502
  896MOL0     C20863   0.001   7.684   2.427  0.0934  0.2578 -0.3530
  896MOL0     C20864  -0.113   7.591   2.393  0.9878  0.7495  0.2899
  896MOL0     C20865  -0.233   7.673   2.359  1.1006  0.1451  0.0635
  896MOL0     C20866  -0.353   7.582   2.339 -0.3139  0.7889  0.0424
  896MOL0     C20867  -0.488   7.657   2.288  0.1230  0.1482  0.1254
  896MOL0     C20868  -0.613   7.575   2.308  0.1932 -0.3548 -0.9463
  896MOL0     C20869  -0.721   7.599   2.201 -0.0021 -0.3310 -0.5757
  896MOL0    Cl20870  -0.851   7.506   2.245  0.3982 -0.3491 -0.2048
  896MOL0     C20871   0.189   7.326   2.706 -0.1842 -0.7243  0.5966
  896MOL0     C20872   0.288   7.242   2.753  0.3461 -0.4634  0.1955
  896MOL0     O20873   0.599   7.070   2.543 -0.1066 -0.4527  0.6531
  896MOL0     C20874   0.680   6.831   2.665 -0.9432 -0.0603 -0.3323
  896MOL0     C20875   0.738   6.722   2.721 -0.1365  0.1451  0.6522
  896MOL0     N20876   1.431   6.577   2.971 -0.9289 -0.1795  0.7602
  896MOL0     N20877   1.531   6.513   2.926 -0.1364  0.0090  0.2555
  896MOL0     C20878   2.534   6.885   3.213  0.8770 -0.5711  0.1767
  896MOL0     C20879   2.679   6.888   3.228 -0.7837  0.0627 -0.6330
  896MOL0     C20880   3.069   6.675   3.313 -0.7450  0.5054 -0.1512
  896MOL0     C20881   3.142   6.603   3.225 -0.5075  0.2833  0.9983
  896MOL0     C20882   3.285   6.596   3.253  0.2341  0.6579  0.0110
  896MOL0     C20883   3.343   6.677   3.354  0.1223  0.3570  0.4006
  896MOL0     O20884   3.473   6.699   3.364 -0.8450 -0.6471  0.3472
  896MOL0     C20885   3.575   6.614   3.298 -0.6555  0.2039  0.1720
  896MOL0     C20886   3.616   6.675   3.164  0.0825  0.5559 -0.4124
  896MOL0     C20887   3.686   6.812   3.180  0.5648 -0.1744  0.1197
  896MOL0     C20888   3.824   6.801   3.110 -0.2086  0.2135 -0.4989
  896MOL0     C20889   3.887   6.927   3.131  0.2244  0.1737  0.2952
  896MOL0     C20890   3.959   7.021   3.145 -0.5634 -0.4320  0.4715
  896MOL0     C20891   3.268   6.753   3.435 -0.7283  1.0651  0.2565
  896MOL0     C20892   3.134   6.749   3.416  0.7524 -0.4362 -0.5763
  896MOL0     H20893   2.687   6.666   3.499 -3.1722 -1.0036  0.9760
  896MOL0     H20894   2.436   6.661   3.451  0.0012 -0.4252 -0.1395
  896MOL0     H20895   2.336   6.630   3.103  1.2590 -1.8215  1.3105
  896MOL0     H20896   2.270   6.571   3.254 -1.9236 -0.5967 -1.1211
  896MOL0     H20897   2.081   6.770   3.176 -1.0869 -0.3266 -2.1376
  896MOL0     H20898   2.108   6.664   3.041  1.4059  0.5299 -0.2221
  896MOL0     H20899   2.009   6.579   3.312  2.7731  1.1815  0.2066
  896MOL0     H20900   1.922   6.603   3.167 -1.6796 -0.9982  1.8639
  896MOL0     H20901   2.052   6.414   3.056  0.6160  1.1302 -0.5437
  896MOL0     H20902   2.136   6.385   3.208 -0.8243 -0.1740  1.5353
  896MOL0     H20903   1.954   6.224   3.204  3.5278  0.1296 -0.7012
  896MOL0     H20904   1.918   6.346   3.324 -1.1646  0.5873 -0.4204
  896MOL0     H20905   1.716   6.275   3.202  2.0918 -2.3976 -0.4894
  896MOL0     H20906   1.743   6.437   3.164 -0.9629 -0.0325  0.2518
  896MOL0     H20907   1.823   6.378   2.937 -2.3420  0.3289 -1.7620
  896MOL0     H20908   1.820   6.208   2.977 -3.4712 -1.9979 -1.5668
  896MOL0     H20909   1.582   6.196   3.002 -1.5332  0.7529 -0.0843
  896MOL0     H20910   1.630   6.260   2.847 -0.7894  0.0673  0.8929
  896MOL0     H20911   1.387   6.284   3.128 -1.3184  1.9368  2.7597
  896MOL0     H20912   1.189   6.425   3.149 -0.2440  0.1360 -1.0439
  896MOL0     H20913   1.274   6.575   3.216  3.5702 -0.7122  0.8469
  896MOL0     H20914   1.178   6.698   2.998 -2.8503  1.8851  1.0772
  896MOL0     H20915   1.071   6.653   3.119  1.7021  0.9939  0.6042
  896MOL0     H20916   1.003   6.452   3.008  1.1838  0.5844  3.0956
  896MOL0     H20917   1.138   6.462   2.897 -1.9711 -0.5806 -1.4007
  896MOL0     H20918   0.924   6.510   2.775  0.4100  2.5558 -3.9572
  896MOL0     H20919   1.022   6.656   2.783  2.6671  1.4095  4.6134
  896MOL0     H20920   0.829   6.868   3.011 -1.1339  1.0031  0.5082
  896MOL0     H20921   0.667   7.073   3.046  0.7599 -0.8295  0.7494
  896MOL0     H20922   0.812   7.139   2.973  0.5172 -1.5557  1.2290
  896MOL0     H20923   0.652   7.161   2.893  0.0482 -1.5813 -1.3251
  896MOL0     H20924   0.538   7.324   2.534 -2.3926 -1.2092 -3.1688
  896MOL0     H20925   0.386   7.476   2.470  0.4252 -3.2103 -1.9750
  896MOL0     H20926   0.214   7.677   2.463  0.1714 -0.3215  0.5724
  896MOL0     H20927   0.155   7.544   2.358  0.6055 -0.0865 -0.5889
  896MOL0     H20928  -0.030   7.727   2.523 -1.3591 -0.5140 -0.4511
  896MOL0     H20929   0.024   7.756   2.349  0.7916 -0.8995 -1.2468
  896MOL0     H20930  -0.127   7.532   2.484 -1.1238 -0.5944 -0.8142
  896MOL0     H20931  -0.087   7.522   2.312 -1.6724  1.7717 -1.5734
  896MOL0     H20932  -0.250   7.740   2.444  0.5127  0.6896 -0.4769
  896MOL0     H20933  -0.208   7.732   2.271  1.7283 -2.3414 -1.5385
  896MOL0     H20934  -0.380   7.518   2.423 -1.6594  0.6095 -0.5069
  896MOL0     H20935  -0.314   7.509   2.267 -1.4549  0.7023 -0.5154
  896MOL0     H20936  -0.487   7.751   2.344 -0.7077 -1.5554  3.2577
  896MOL0     H20937  -0.475   7.671   2.180 -2.1830 -0.2787 -0.2511
  896MOL0     H20938  -0.652   7.609   2.404  1.1276 -1.0427 -0.3115
  896MOL0     H20939  -0.590   7.468   2.312  0.7875 -0.1941  0.7966
  896MOL0     H20940  -0.676   7.567   2.106  2.0869 -3.9325  1.4162
  896MOL0     H20941  -0.746   7.705   2.183 -0.9491 -0.7478 -1.9288
  896MOL0     H20942   0.091   7.337   2.751 -0.2123 -0.4341  0.4680
  896MOL0     H20943   0.264   7.172   2.832 -3.3159 -1.3569 -1.5313
  896MOL0     H20944   0.629   6.815   2.570  1.0524 -1.0639 -1.3088
  896MOL0     H20945   0.742   6.628   2.667 -1.9092  0.5650 -0.2798
  896MOL0     H20946   2.483   6.949   3.142  0.7089  0.5043  1.2270
  896MOL0     H20947   2.739   6.954   3.166  0.1995 -1.5473 -1.4825
  896MOL0     H20948   3.111   6.542   3.141  0.0737 -0.7014  1.4786
  896MOL0     H20949   3.339   6.531   3.186 -1.3499 -1.1911  0.4323
  896MOL0     H20950   3.664   6.600   3.360  0.4695  1.3567 -1.1065
  896MOL0     H20951   3.544   6.512   3.275  3.0044 -1.0959  0.3981
  896MOL0     H20952   3.530   6.698   3.100  0.2978 -1.2135 -1.4147
  896MOL0     H20953   3.675   6.599   3.111 -0.9214 -0.0038 -0.7712
  896MOL0     H20954   3.704   6.834   3.286  1.7736  1.8407 -0.4659
  896MOL0     H20955   3.623   6.888   3.133 -0.0698 -1.7182 -1.6549
  896MOL0     H20956   3.797   6.764   3.010  0.4554  1.5265 -1.1951
  896MOL0     H20957   3.881   6.719   3.156 -4.7566 -1.8824  2.0282
  896MOL0     H20958   4.030   7.102   3.151 -1.0958  0.0521  0.3771
  896MOL0     H20959   3.313   6.816   3.511  3.1842 -3.0754  1.7970
  896MOL0     H20960   3.070   6.803   3.484  1.1967  0.9459 -1.2131
  897MOL0     O20961  10.239   8.814   2.058  0.0115 -0.6062  0.7413
  897MOL0     C20962  10.238   8.733   2.147 -0.1044 -0.2390 -0.7092
  897MOL0     O20963  10.138   8.712   2.233 -0.0910  0.1676  0.0029
  897MOL0     C20964  10.027   8.790   2.225  0.2506 -0.2386  0.2550
  897MOL0     C20965   9.924   8.763   2.132  0.4492  0.0129  0.3609
  897MOL0     C20966   9.816   8.851   2.117  0.5702  0.4866  0.0354
  897MOL0     C20967   9.805   8.958   2.205 -0.6565  0.2088 -0.5871
  897MOL0     O20968   9.705   9.052   2.182 -0.3271  0.4827  0.9454
  897MOL0     C20969   9.699   9.166   2.259 -0.6491  0.9023  0.5776
  897MOL0     C20970   9.596   9.268   2.212 -0.1043 -0.3483 -0.6035
  897MOL0     C20971   9.461   9.194   2.218 -0.0097  0.0092 -0.1260
  897MOL0     C20972   9.355   9.282   2.151 -0.4280  0.0025  0.6891
  897MOL0     C20973   9.225   9.205   2.134 -0.1832  0.2478  0.3783
  897MOL0     C20974   9.140   9.293   2.033 -0.2633  0.2100  0.9730
  897MOL0     C20975   9.004   9.223   2.003 -0.0703 -0.0238  0.3952
  897MOL0     C20976   8.895   9.262   2.102 -0.0422  0.5479 -1.0319
  897MOL0     N20977   8.767   9.191   2.067  0.5923 -0.3400 -0.3864
  897MOL0     C20978   8.751   9.059   2.088  0.0505 -0.4781  0.0836
  897MOL0     C20979   8.646   9.014   2.009  0.4513  0.5191 -0.8760
  897MOL0     C20980   8.604   8.863   2.002  0.3011 -0.5106 -0.0900
  897MOL0     C20981   8.535   8.817   1.873  0.3644  1.1673 -0.1100
  897MOL0     C20982   8.503   8.662   1.892  0.6399  0.8804  0.0172
  897MOL0     C20983   8.457   8.601   1.754  0.3208  0.1258 -0.7693
  897MOL0     O20984   8.345   8.673   1.705  0.4707  0.8404  0.1981
  897MOL0     C20985   8.224   8.641   1.765  0.0801  0.3143  0.7408
  897MOL0     C20986   8.160   8.711   1.869  0.3821 -0.3428  1.0215
  897MOL0     C20987   8.044   8.666   1.930 -0.2938 -0.1205 -0.9401
  897MOL0     C20988   8.000   8.738   2.056  0.2493  0.1307 -0.7953
  897MOL0     C20989   7.976   8.557   1.884  0.4047 -0.2741  0.1049
  897MOL0     C20990   7.845   8.506   1.932 -0.3539  0.3570 -0.3595
  897MOL0     O20991   7.827   8.369   1.900 -0.6386 -0.3536 -0.2468
  897MOL0     C20992   7.709   8.294   1.924 -0.0606 -0.7838 -0.4176
  897MOL0     C20993   7.616   8.266   1.824 -0.5850  0.3217 -0.1699
  897MOL0     C20994   7.501   8.189   1.847 -0.0132  0.7609  0.3875
  897MOL0     C20995   7.467   8.153   1.975  0.3259  0.0235  0.1959
  897MOL0     O20996   7.346   8.087   1.996  0.0188  0.5236 -0.5305
  897MOL0     C20997   7.343   7.983   2.095  0.1664  0.2339  0.2172
  897MOL0     C20998   7.232   7.884   2.068 -0.0177  0.4444 -0.0256
  897MOL0     C20999   7.110   7.920   2.145 -0.2826 -0.6652 -0.3041
  897MOL0     C21000   6.978   7.852   2.089  0.0689 -0.3101  0.2253
  897MOL0     C21001   6.976   7.698   2.073 -0.6283 -0.2831  0.3919
  897MOL0     C21002   6.853   7.642   2.009  0.9352 -0.8649  0.8230
  897MOL0     C21003   6.877   7.490   2.009  0.2146  0.3311  0.6158
  897MOL0     C21004   6.757   7.415   1.968  0.6387  0.5975 -0.3391
  897MOL0    Cl21005   6.772   7.242   2.034 -0.2199 -0.1678  0.1116
  897MOL0     C21006   7.554   8.186   2.075 -0.3710  0.5332 -0.2479
  897MOL0     C21007   7.672   8.248   2.058  0.0825 -0.9468  0.2604
  897MOL0     O21008   7.769   8.573   1.997 -0.0772 -0.0131 -0.0319
  897MOL0     C21009   8.027   8.494   1.774 -0.1447  0.0076 -0.4164
  897MOL0     C21010   8.147   8.530   1.717 -0.4047  0.9604  0.5025
  897MOL0     N21011   8.604   9.123   1.938  0.2631  0.6618  0.3940
  897MOL0     N21012   8.670   9.224   1.977  0.0205 -0.9124  0.1957
  897MOL0     C21013   9.911   8.982   2.293 -0.3406 -0.1523 -0.2603
  897MOL0     C21014  10.020   8.896   2.311 -0.2217  0.0141  0.3611
  897MOL0     C21015  10.354   8.652   2.169 -0.2812  0.0492 -0.2238
  897MOL0     C21016  10.370   8.566   2.278 -0.1365 -0.4589  0.7172
  897MOL0     C21017  10.490   8.512   2.319 -0.2255  0.9979  0.2548
  897MOL0     C21018  10.597   8.517   2.234  0.6606 -0.0133  0.3864
  897MOL0     O21019  10.694   8.418   2.257  0.0837 -0.2454 -0.4613
  897MOL0     C21020  10.809   8.411   2.171 -0.4922  1.4444 -0.4469
  897MOL0     C21021  10.885   8.277   2.195 -0.0394 -0.1546  0.3888
  897MOL0     C21022  10.823   8.162   2.111 -0.0570  0.1746  0.5072
  897MOL0     C21023  10.876   8.025   2.150 -0.0881  0.1669  0.0760
  897MOL0     C21024  11.020   8.022   2.134 -0.4116  0.7441  0.1014
  897MOL0     C21025  11.134   8.020   2.131 -0.2596 -0.1016 -0.8789
  897MOL0     C21026  10.580   8.600   2.113 -0.2355  0.4606 -0.6131
  897MOL0     C21027  10.467   8.671   2.091 -0.4273  0.4627 -0.9282
  897MOL0     H21028   9.937   8.680   2.064  0.4864  3.5974 -4.5544
  897MOL0     H21029   9.762   8.837   2.024  3.5693 -0.7768 -1.6480
  897MOL0     H21030   9.683   9.122   2.358 -3.8845 -1.3228 -0.7879
  897MOL0     H21031   9.797   9.214   2.253 -0.2191  0.2947  2.1511
  897MOL0     H21032   9.586   9.354   2.279  1.8504 -1.7661  1.6196
  897MOL0     H21033   9.610   9.309   2.111 -2.1403  2.4829  0.1247
  897MOL0     H21034   9.460   9.105   2.154  0.8846 -0.1551  0.0691
  897MOL0     H21035   9.426   9.167   2.318 -2.5034 -2.0269 -1.4218
  897MOL0     H21036   9.346   9.371   2.214  2.5027 -0.2651  1.6554
  897MOL0     H21037   9.398   9.302   2.053 -1.1872 -0.3622  0.2749
  897MOL0     H21038   9.241   9.105   2.092  0.6800  1.4758 -2.5325
  897MOL0     H21039   9.175   9.196   2.230  3.6674 -2.1500  2.3964
  897MOL0     H21040   9.113   9.387   2.083 -1.5250  0.0226  0.6669
  897MOL0     H21041   9.199   9.324   1.946  1.5355 -0.4853  1.8902
  897MOL0     H21042   8.968   9.247   1.902  0.2487 -2.1222 -0.2741
  897MOL0     H21043   9.010   9.113   2.007  2.0376  0.0932  1.4891
  897MOL0     H21044   8.882   9.370   2.102  0.5100  0.6231 -1.6140
  897MOL0     H21045   8.925   9.230   2.202 -0.3129  0.7944 -0.8715
  897MOL0     H21046   8.794   8.995   2.165  0.7133  0.0344  0.1482
  897MOL0     H21047   8.694   8.804   2.021  0.5359  0.5598  2.4996
  897MOL0     H21048   8.533   8.842   2.082 -0.3631  0.2991 -0.4394
  897MOL0     H21049   8.600   8.829   1.786 -1.1655 -0.6083 -1.6079
  897MOL0     H21050   8.443   8.874   1.858  0.7919  1.4697 -1.7405
  897MOL0     H21051   8.431   8.636   1.970  0.1203  0.0181 -0.7230
  897MOL0     H21052   8.592   8.603   1.916  0.8601 -0.0815 -2.7075
  897MOL0     H21053   8.417   8.500   1.769  0.6825  0.2338  1.1970
  897MOL0     H21054   8.547   8.598   1.692  3.3548 -1.8353  3.2719
  897MOL0     H21055   8.204   8.803   1.907 -0.6812  0.8384 -0.5145
  897MOL0     H21056   8.077   8.799   2.104  0.1396 -0.3573  0.0316
  897MOL0     H21057   7.922   8.813   2.039  0.4720  0.2745 -1.1795
  897MOL0     H21058   7.958   8.659   2.120  0.6949  0.1907 -0.4272
  897MOL0     H21059   7.638   8.304   1.724 -1.0923  0.2049 -0.3261
  897MOL0     H21060   7.432   8.163   1.768  1.2225  0.6872 -0.7070
  897MOL0     H21061   7.438   7.930   2.087 -0.1036 -0.1650 -0.3774
  897MOL0     H21062   7.340   8.023   2.197  0.4965  0.0469  0.3016
  897MOL0     H21063   7.203   7.891   1.963 -0.5240 -1.8276 -0.0960
  897MOL0     H21064   7.259   7.779   2.086  1.2579  0.9397  1.1127
  897MOL0     H21065   7.096   8.029   2.142  0.2706 -0.5659  0.4689
  897MOL0     H21066   7.138   7.890   2.246 -2.0878  0.2520  0.5272
  897MOL0     H21067   6.898   7.888   2.154 -1.3966 -1.0741 -1.0896
  897MOL0     H21068   6.946   7.899   1.995  4.1328  3.2135  0.3027
  897MOL0     H21069   6.996   7.659   2.173  0.4794 -2.4373 -0.6163
  897MOL0     H21070   7.066   7.677   2.015  0.3004 -0.5302  1.8840
  897MOL0     H21071   6.761   7.667   2.062  2.3275  2.4854  1.9240
  897MOL0     H21072   6.837   7.682   1.908 -0.8745 -2.3576  0.4610
  897MOL0     H21073   6.912   7.452   2.105 -2.0815 -2.2505  0.5325
  897MOL0     H21074   6.962   7.481   1.941  1.4295  2.3975  1.7458
  897MOL0     H21075   6.735   7.426   1.862  0.7260  1.0523 -0.3093
  897MOL0     H21076   6.674   7.452   2.028  0.5042  0.8689 -0.6919
  897MOL0     H21077   7.539   8.165   2.180  2.0734 -2.0748 -0.2872
  897MOL0     H21078   7.739   8.279   2.137 -0.0771  0.9751 -0.3054
  897MOL0     H21079   7.966   8.420   1.723 -3.0194  1.5622  0.5276
  897MOL0     H21080   8.195   8.475   1.637 -0.3342  0.1140  1.1143
  897MOL0     H21081   9.911   9.078   2.345 -2.3991 -0.2883  0.0403
  897MOL0     H21082  10.101   8.908   2.382 -0.3015  0.0821  0.4399
  897MOL0     H21083  10.289   8.548   2.348 -0.1473 -0.9299  0.5869
  897MOL0     H21084  10.497   8.449   2.407  2.4968 -1.0125 -1.2611
  897MOL0     H21085  10.774   8.405   2.068 -0.6106  1.1432 -0.3910
  897MOL0     H21086  10.871   8.501   2.178 -2.1716  2.5431  1.1698
  897MOL0     H21087  10.876   8.251   2.301 -2.4967  0.4701  0.3892
  897MOL0     H21088  10.992   8.277   2.171 -0.0180 -1.6923  0.4294
  897MOL0     H21089  10.838   8.177   2.004 -2.4123 -1.9895 -0.2232
  897MOL0     H21090  10.714   8.166   2.120 -0.0269 -0.3740  1.1809
  897MOL0     H21091  10.827   7.940   2.102  2.2878 -2.6538  2.2710
  897MOL0     H21092  10.854   8.007   2.256 -0.3370 -0.1388 -0.0249
  897MOL0     H21093  11.241   8.025   2.133 -0.1423 -2.1657  0.3934
  897MOL0     H21094  10.669   8.601   2.051 -0.6395 -2.5880 -1.4176
  897MOL0     H21095  10.483   8.737   2.005  5.4980 -0.9361 -1.3091
  898MOL0     O21096  10.400   7.363   6.422  0.3759  0.1692 -0.4389
  898MOL0     C21097  10.432   7.456   6.499 -0.2167 -0.4025  0.0340
  898MOL0     O21098  10.341   7.520   6.576 -0.6671 -0.3698 -0.4688
  898MOL0     C21099  10.207   7.491   6.557  0.0825  0.1942 -0.0911
  898MOL0     C21100  10.133   7.397   6.637  0.3558  0.8853  0.2067
  898MOL0     C21101   9.990   7.383   6.624 -0.4738 -0.1511 -0.4209
  898MOL0     C21102   9.923   7.458   6.522  0.3327 -0.6205  0.0270
  898MOL0     O21103   9.786   7.460   6.515 -0.0690 -0.6635  0.9276
  898MOL0     C21104   9.716   7.400   6.628 -0.6541 -1.4779 -0.1029
  898MOL0     C21105   9.569   7.431   6.608  0.9194 -0.5233 -0.2233
  898MOL0     C21106   9.516   7.576   6.644  0.0536 -0.3375  0.1374
  898MOL0     C21107   9.367   7.584   6.610 -0.0418 -0.8784 -0.5617
  898MOL0     C21108   9.268   7.524   6.709  0.7316 -0.1555 -0.0076
  898MOL0     C21109   9.129   7.494   6.647  0.3081 -0.2684 -0.8443
  898MOL0     C21110   9.072   7.619   6.571  0.7703  0.7314 -0.3988
  898MOL0     C21111   9.073   7.750   6.646 -0.5225  0.7285 -0.9114
  898MOL0     N21112   8.948   7.823   6.646  0.2809  0.5237  0.1858
  898MOL0     C21113   8.827   7.799   6.708 -0.0109  0.6402 -0.7797
  898MOL0     C21114   8.742   7.895   6.677  0.5592 -0.3189 -0.1075
  898MOL0     C21115   8.604   7.934   6.742 -0.5470 -0.7065  1.1164
  898MOL0     C21116   8.497   7.870   6.656 -0.5155  0.1891  0.1069
  898MOL0     C21117   8.475   7.951   6.525 -1.0053  0.0363  0.1959
  898MOL0     C21118   8.347   7.926   6.455 -0.5141 -0.8600 -0.1709
  898MOL0     O21119   8.236   7.963   6.540  0.5294  0.6525 -0.0174
  898MOL0     C21120   8.109   7.950   6.487  0.4681 -0.2680 -0.4063
  898MOL0     C21121   8.084   7.924   6.357 -0.6477 -0.7319 -0.6081
  898MOL0     C21122   7.960   7.921   6.297  0.1048  0.1881  0.0020
  898MOL0     C21123   7.948   7.875   6.156  0.0406  0.5729 -0.6887
  898MOL0     C21124   7.848   7.960   6.376 -0.4861 -0.1594  0.0494
  898MOL0     C21125   7.702   7.988   6.331  0.1651  0.3034  0.0170
  898MOL0     O21126   7.607   7.987   6.434  0.0373  0.2058  0.0539
  898MOL0     C21127   7.470   8.015   6.407 -0.8998  0.6532 -0.2658
  898MOL0     C21128   7.373   7.978   6.505 -0.5579 -0.2230  0.2752
  898MOL0     C21129   7.234   8.006   6.480 -0.2021 -1.1041  0.0399
  898MOL0     C21130   7.196   8.079   6.367 -0.3180 -0.2099  0.3421
  898MOL0     O21131   7.058   8.100   6.359 -0.0100 -0.3573 -0.5187
  898MOL0     C21132   7.024   8.218   6.281 -0.0189  0.0807  0.4357
  898MOL0     C21133   6.887   8.279   6.326  0.2862  0.2508  0.2715
  898MOL0     C21134   6.779   8.189   6.283 -0.6300  0.2395  0.3880
  898MOL0     C21135   6.646   8.260   6.265 -0.7113 -0.5546 -0.5195
  898MOL0     C21136   6.529   8.171   6.288 -0.1990  0.5792 -0.0914
  898MOL0     C21137   6.394   8.240   6.273  0.3561  0.2311  1.1501
  898MOL0     C21138   6.280   8.144   6.298 -0.0695 -0.2544  0.3575
  898MOL0     C21139   6.144   8.195   6.280 -0.2900 -0.5954  0.7304
  898MOL0    Cl21140   6.083   8.297   6.406  0.1327  0.0355 -0.3003
  898MOL0     C21141   7.293   8.124   6.278 -0.4814 -0.6006  0.0179
  898MOL0     C21142   7.430   8.094   6.303  0.1707 -0.7925  0.4150
  898MOL0     O21143   7.678   7.981   6.209 -0.3847 -0.0269  0.6220
  898MOL0     C21144   7.872   7.984   6.515 -0.3591  0.9278  0.3025
  898MOL0     C21145   7.994   7.976   6.568 -0.2825  0.1565  0.3831
  898MOL0     N21146   8.808   7.982   6.600 -0.5065  0.4229  0.9546
  898MOL0     N21147   8.926   7.940   6.585 -0.2608 -0.4208  0.3252
  898MOL0     C21148  10.000   7.548   6.442  0.2517  0.2119 -0.8347
  898MOL0     C21149  10.134   7.558   6.462 -0.6716 -0.1738  0.0222
  898MOL0     C21150  10.572   7.487   6.522  0.8404  0.6674 -0.0773
  898MOL0     C21151  10.614   7.571   6.626 -0.0543  0.4642 -0.6085
  898MOL0     C21152  10.745   7.615   6.637  0.2913  0.1517 -0.0282
  898MOL0     C21153  10.837   7.568   6.539 -0.0248 -0.0410 -0.7705
  898MOL0     O21154  10.961   7.614   6.545 -0.4897  1.0500 -0.5471
  898MOL0     C21155  11.068   7.530   6.480 -1.1565  0.8517 -0.4983
  898MOL0     C21156  11.083   7.399   6.572  0.2706  0.0087 -0.4024
  898MOL0     C21157  11.193   7.304   6.538  0.5702  0.9631 -0.2772
  898MOL0     C21158  11.332   7.343   6.577 -0.5347 -0.0065  0.1781
  898MOL0     C21159  11.409   7.381   6.455 -0.4412 -0.1082 -0.5382
  898MOL0     C21160  11.487   7.412   6.366  0.0702  0.1242 -0.5529
  898MOL0     C21161  10.800   7.477   6.439 -0.0717 -0.4152  0.3735
  898MOL0     C21162  10.665   7.433   6.432  0.6495 -0.8151  1.0857
  898MOL0     H21163  10.189   7.332   6.703  1.9410  1.2156 -0.7535
  898MOL0     H21164   9.928   7.318   6.685 -0.4109 -1.5888 -1.8058
  898MOL0     H21165   9.738   7.293   6.617  2.7260 -0.7983 -0.9768
  898MOL0     H21166   9.733   7.444   6.726 -0.1952  1.8835 -1.5578
  898MOL0     H21167   9.541   7.409   6.505 -3.8155  1.2175  0.4035
  898MOL0     H21168   9.517   7.358   6.672  2.8989 -0.7475  1.2215
  898MOL0     H21169   9.527   7.586   6.753  2.6379 -2.0520  0.1262
  898MOL0     H21170   9.566   7.656   6.589  2.7101 -1.0658  1.3329
  898MOL0     H21171   9.341   7.690   6.600  0.4262 -0.4450  1.9941
  898MOL0     H21172   9.355   7.536   6.513 -0.5291  3.6777 -3.0455
  898MOL0     H21173   9.306   7.428   6.743  0.4249 -1.8407 -3.8730
  898MOL0     H21174   9.261   7.590   6.796 -1.3258 -0.6258  0.2335
  898MOL0     H21175   9.144   7.411   6.577  0.6145 -0.5721 -0.4190
  898MOL0     H21176   9.058   7.466   6.725  1.7022 -0.5867  0.3608
  898MOL0     H21177   9.124   7.634   6.476 -1.0750  2.4885 -1.1833
  898MOL0     H21178   8.970   7.590   6.545  0.6109  1.1085 -0.1965
  898MOL0     H21179   9.149   7.814   6.602  1.9428  0.9932  3.1553
  898MOL0     H21180   9.107   7.729   6.749 -1.1551  2.0096 -0.4279
  898MOL0     H21181   8.803   7.717   6.775  0.4845  2.4881  1.8334
  898MOL0     H21182   8.611   7.892   6.842 -1.0052 -0.9305  1.0562
  898MOL0     H21183   8.597   8.043   6.751  3.1465 -0.1334 -0.9192
  898MOL0     H21184   8.411   7.880   6.722 -0.3479  0.6473  0.2588
  898MOL0     H21185   8.521   7.765   6.635  0.0579  0.8193 -2.9156
  898MOL0     H21186   8.558   7.930   6.457 -1.1800 -0.3413  0.0982
  898MOL0     H21187   8.481   8.058   6.551  0.5057  0.8340 -2.9108
  898MOL0     H21188   8.347   7.819   6.431  1.2856 -1.2740  1.4405
  898MOL0     H21189   8.341   7.994   6.369 -1.4622 -1.1290 -0.3290
  898MOL0     H21190   8.160   7.885   6.291  0.0871  0.8240 -0.7231
  898MOL0     H21191   7.859   7.818   6.128 -0.5501  2.4846 -3.0689
  898MOL0     H21192   7.969   7.954   6.083  0.5976  1.3232  0.2393
  898MOL0     H21193   8.025   7.799   6.141  0.1758  0.4124  0.6949
  898MOL0     H21194   7.406   7.928   6.596 -0.0511  1.0097  0.7905
  898MOL0     H21195   7.161   7.979   6.556  0.6642 -0.5790  1.0875
  898MOL0     H21196   7.105   8.291   6.282  1.1445 -1.1605 -0.4236
  898MOL0     H21197   7.021   8.198   6.174  2.1816  0.7033  0.1962
  898MOL0     H21198   6.899   8.293   6.434  2.0470  1.9140 -0.0783
  898MOL0     H21199   6.880   8.380   6.283  0.8869  1.2862  2.4532
  898MOL0     H21200   6.786   8.124   6.370  2.0362  0.3826  0.3782
  898MOL0     H21201   6.810   8.126   6.199  1.8407  0.1179  1.3033
  898MOL0     H21202   6.652   8.339   6.340 -0.9331 -0.1222 -0.9453
  898MOL0     H21203   6.629   8.307   6.167 -2.6242  0.1618  0.1160
  898MOL0     H21204   6.533   8.130   6.389 -1.4476 -2.1547 -1.0682
  898MOL0     H21205   6.542   8.085   6.222 -2.2337  1.1269 -1.2654
  898MOL0     H21206   6.394   8.327   6.340  0.5674  0.8289  0.3948
  898MOL0     H21207   6.395   8.277   6.170  2.5880 -0.7918  0.7695
  898MOL0     H21208   6.285   8.123   6.405  0.5619  1.3837  0.6756
  898MOL0     H21209   6.292   8.053   6.238 -1.3570 -0.6265  0.6240
  898MOL0     H21210   6.066   8.122   6.257 -0.1968 -0.3909 -0.2796
  898MOL0     H21211   6.138   8.240   6.180  0.3542 -1.7853  0.1322
  898MOL0     H21212   7.270   8.170   6.183  0.2099 -0.2896 -0.0035
  898MOL0     H21213   7.500   8.130   6.229 -0.5895 -0.8709 -0.3686
  898MOL0     H21214   7.792   8.023   6.576 -1.8342  1.0018 -1.5924
  898MOL0     H21215   8.017   8.010   6.668  3.0545  1.3422 -0.6480
  898MOL0     H21216   9.945   7.592   6.360  0.3869 -2.4261 -2.4395
  898MOL0     H21217  10.184   7.625   6.392  1.1010 -0.2330  1.1882
  898MOL0     H21218  10.549   7.615   6.702 -2.9372 -1.7908 -1.5831
  898MOL0     H21219  10.778   7.688   6.711  2.7898 -3.0026  2.2657
  898MOL0     H21220  11.058   7.517   6.371  2.6699 -0.8884 -0.8385
  898MOL0     H21221  11.165   7.581   6.489  0.3419 -2.0481  1.1614
  898MOL0     H21222  10.991   7.343   6.556  0.8159 -0.3397 -2.6502
  898MOL0     H21223  11.094   7.421   6.679 -1.2935 -2.6382  0.3937
  898MOL0     H21224  11.192   7.289   6.429 -1.6564  3.3621 -0.6903
  898MOL0     H21225  11.165   7.209   6.583 -0.7828  0.6897 -1.6045
  898MOL0     H21226  11.384   7.258   6.623  0.4142 -0.4386 -1.5823
  898MOL0     H21227  11.336   7.424   6.650  0.0582  1.5402 -1.5001
  898MOL0     H21228  11.568   7.434   6.300  0.7990 -0.2536  0.2004
  898MOL0     H21229  10.861   7.440   6.357 -0.2306  0.2396 -0.0454
  898MOL0     H21230  10.629   7.365   6.356 -1.7700 -0.4399  1.8035
  899MOL0     O21231   0.526   3.719   6.698 -0.0323  0.1187 -0.4664
  899MOL0     C21232   0.456   3.728   6.605 -0.7562  0.7590  0.6729
  899MOL0     O21233   0.485   3.674   6.480 -0.2967 -0.2645 -0.6332
  899MOL0     C21234   0.611   3.622   6.442 -0.0055 -0.3777 -0.5434
  899MOL0     C21235   0.616   3.525   6.345  0.0744 -0.1580 -0.3708
  899MOL0     C21236   0.734   3.489   6.285 -0.0920  0.4277 -0.6902
  899MOL0     C21237   0.858   3.542   6.333 -0.2248 -0.2147  0.1829
  899MOL0     O21238   0.981   3.503   6.284  1.1089 -0.5045  0.0994
  899MOL0     C21239   1.089   3.597   6.263 -0.1547  0.5517  0.3718
  899MOL0     C21240   1.202   3.518   6.188 -0.2624  0.1582 -0.4105
  899MOL0     C21241   1.237   3.381   6.254  0.6001 -0.2711  1.1092
  899MOL0     C21242   1.368   3.320   6.186  0.5432  0.1932 -0.2905
  899MOL0     C21243   1.393   3.190   6.259 -0.6581  1.1656 -0.5124
  899MOL0     C21244   1.531   3.115   6.213  0.4616 -0.4073  0.8574
  899MOL0     C21245   1.543   3.092   6.061 -0.6575 -0.1143 -0.1031
  899MOL0     C21246   1.668   3.018   6.034 -0.1661  0.3966 -0.3733
  899MOL0     N21247   1.688   3.008   5.892 -0.0884 -0.3488  0.3551
  899MOL0     C21248   1.722   3.105   5.813 -0.4235 -0.5182  0.5240
  899MOL0     C21249   1.718   3.064   5.681 -0.5255  0.5300 -0.2755
  899MOL0     C21250   1.744   3.160   5.567 -0.3570 -0.1856  0.9990
  899MOL0     C21251   1.620   3.233   5.512  0.8011 -0.7223  0.2811
  899MOL0     C21252   1.537   3.129   5.426  0.1713  0.0714 -0.3210
  899MOL0     C21253   1.421   3.201   5.359  0.3235  0.1234  0.6207
  899MOL0     O21254   1.327   3.100   5.299 -0.2713  0.1612 -0.1178
  899MOL0     C21255   1.203   3.140   5.258 -0.1705  0.2225 -0.4869
  899MOL0     C21256   1.176   3.267   5.195 -0.3187  0.5293  0.1652
  899MOL0     C21257   1.051   3.302   5.142 -0.4597  0.8883  0.1717
  899MOL0     C21258   1.039   3.432   5.064  0.3339 -0.0252 -0.2551
  899MOL0     C21259   0.947   3.213   5.161  0.7689  0.4961 -0.3713
  899MOL0     C21260   0.803   3.242   5.144  0.4552 -0.2548 -0.7725
  899MOL0     O21261   0.718   3.134   5.169 -0.5365  0.0758  0.2849
  899MOL0     C21262   0.584   3.139   5.143 -0.0802  0.0736 -0.1528
  899MOL0     C21263   0.515   3.027   5.097  0.1032  0.5111  0.5685
  899MOL0     C21264   0.378   3.035   5.095 -0.1697  0.7934  0.7819
  899MOL0     C21265   0.309   3.147   5.140  0.3049  0.9367 -0.2161
  899MOL0     O21266   0.168   3.159   5.132  0.1017  0.3042  0.0289
  899MOL0     C21267   0.094   3.054   5.077 -0.0955  0.2915 -0.4210
  899MOL0     C21268  -0.053   3.090   5.058 -0.2187  0.0917  0.7095
  899MOL0     C21269  -0.069   3.233   4.987 -1.2283  1.0869  0.7971
  899MOL0     C21270  -0.210   3.292   4.984 -0.1335  0.1795 -0.2789
  899MOL0     C21271  -0.215   3.404   4.886  0.1394 -0.5058  0.0811
  899MOL0     C21272  -0.345   3.469   4.863  0.4792 -0.2872 -0.6160
  899MOL0     C21273  -0.404   3.499   4.995  0.3268  0.0988 -0.1643
  899MOL0     C21274  -0.528   3.579   4.987 -0.1594 -0.9359 -0.1669
  899MOL0    Cl21275  -0.654   3.479   4.915 -0.1937 -0.3304  0.1439
  899MOL0     C21276   0.379   3.255   5.191  0.3506 -0.0208  0.5724
  899MOL0     C21277   0.515   3.246   5.194  0.0801 -0.5120  0.3558
  899MOL0     O21278   0.766   3.353   5.111 -0.2230 -0.3278 -0.2432
  899MOL0     C21279   0.974   3.082   5.214  0.2861 -0.4480  0.2435
  899MOL0     C21280   1.105   3.048   5.253 -0.4463  0.8118  0.0475
  899MOL0     N21281   1.688   2.924   5.682  0.0743  0.5298  0.2825
  899MOL0     N21282   1.672   2.894   5.813  0.2187 -0.1336  0.3948
  899MOL0     C21283   0.858   3.641   6.429 -0.6130 -0.3830  0.3914
  899MOL0     C21284   0.735   3.679   6.486 -0.3264  0.7141 -0.1139
  899MOL0     C21285   0.333   3.793   6.624  0.3099  0.0876  0.5778
  899MOL0     C21286   0.252   3.841   6.517  0.7968 -0.4068  0.3107
  899MOL0     C21287   0.138   3.923   6.549 -0.7843 -1.1793  0.3527
  899MOL0     C21288   0.104   3.952   6.684 -0.0345  0.0356 -0.6695
  899MOL0     O21289  -0.005   4.034   6.703 -0.4450 -0.1483  0.4178
  899MOL0     C21290  -0.082   4.018   6.824  0.4160  0.6997 -0.1517
  899MOL0     C21291  -0.205   4.107   6.836 -0.2216  0.4412  0.4184
  899MOL0     C21292  -0.302   4.064   6.731  0.6400 -0.0085  0.0404
  899MOL0     C21293  -0.426   4.156   6.728 -0.9860 -0.0750  0.0464
  899MOL0     C21294  -0.511   4.144   6.849 -0.2497 -0.5776  0.6380
  899MOL0     C21295  -0.586   4.131   6.949  0.4617  0.1319  0.8687
  899MOL0     C21296   0.176   3.889   6.782  0.6268  0.0603 -0.1033
  899MOL0     C21297   0.281   3.806   6.750 -0.1878  0.3350 -0.9195
  899MOL0     H21298   0.527   3.491   6.293  1.5857 -0.2783 -3.0799
  899MOL0     H21299   0.718   3.417   6.205  0.9673 -2.2993  1.3806
  899MOL0     H21300   1.055   3.686   6.207 -2.4638 -0.4850 -0.0134
  899MOL0     H21301   1.129   3.619   6.362  1.3057  0.2957 -0.1462
  899MOL0     H21302   1.167   3.489   6.089  0.8999 -1.6106 -0.3368
  899MOL0     H21303   1.291   3.577   6.165 -0.2005  0.0121 -0.5457
  899MOL0     H21304   1.250   3.394   6.361  0.7310  0.8380  0.9715
  899MOL0     H21305   1.154   3.312   6.232 -0.9241  2.2842 -2.0636
  899MOL0     H21306   1.355   3.308   6.078 -1.8676  2.3487 -0.3406
  899MOL0     H21307   1.455   3.383   6.208 -1.6935  2.6647  2.4339
  899MOL0     H21308   1.396   3.204   6.368  2.7192 -0.1555 -0.2911
  899MOL0     H21309   1.319   3.115   6.229  1.6282 -2.0626  1.2266
  899MOL0     H21310   1.606   3.183   6.253 -0.6910  0.1121  2.1987
  899MOL0     H21311   1.547   3.012   6.248  1.3387 -0.3409  0.6635
  899MOL0     H21312   1.459   3.035   6.021  0.1533 -0.4350 -1.3983
  899MOL0     H21313   1.551   3.184   6.003 -1.6916 -1.1179 -1.9106
  899MOL0     H21314   1.657   2.915   6.067 -0.5066 -0.1719 -2.1686
  899MOL0     H21315   1.751   3.063   6.089 -1.3449  0.8563  1.1077
  899MOL0     H21316   1.748   3.205   5.847  2.8820 -1.5927  1.5564
  899MOL0     H21317   1.813   3.230   5.615  0.1589  0.9225 -1.2512
  899MOL0     H21318   1.802   3.119   5.484 -2.0353 -1.7614  0.5234
  899MOL0     H21319   1.648   3.320   5.451 -1.8331 -0.7274 -1.1112
  899MOL0     H21320   1.562   3.272   5.596  0.8949  0.5773 -0.2296
  899MOL0     H21321   1.494   3.056   5.494 -2.5934  0.9484 -1.0051
  899MOL0     H21322   1.603   3.082   5.352  2.2374  2.7528 -0.3432
  899MOL0     H21323   1.457   3.255   5.271 -4.1496  3.5396  0.5276
  899MOL0     H21324   1.370   3.281   5.411 -0.9265  0.1723 -0.6148
  899MOL0     H21325   1.244   3.350   5.182 -1.8546  2.1021  1.5900
  899MOL0     H21326   1.135   3.484   5.064  0.1678  0.5958  3.3167
  899MOL0     H21327   0.994   3.419   4.966 -0.7501  1.8113 -0.0582
  899MOL0     H21328   0.968   3.498   5.115 -0.3274  0.1039 -1.3182
  899MOL0     H21329   0.558   2.931   5.070 -2.0270 -0.5287  0.5820
  899MOL0     H21330   0.334   2.946   5.051 -0.2732  0.8701  0.7307
  899MOL0     H21331   0.137   3.033   4.978  3.1895 -0.5309  1.0384
  899MOL0     H21332   0.116   2.964   5.135  2.1476 -1.1073 -3.1886
  899MOL0     H21333  -0.107   3.013   5.003 -1.9344  0.5675  1.6696
  899MOL0     H21334  -0.094   3.099   5.159 -1.0912  1.3681  0.2616
  899MOL0     H21335  -0.036   3.218   4.884 -0.8561 -2.9910  1.3290
  899MOL0     H21336   0.004   3.303   5.030  1.2502 -0.0546 -1.2870
  899MOL0     H21337  -0.286   3.216   4.966 -1.8194  1.1369  2.2888
  899MOL0     H21338  -0.229   3.340   5.081  0.1724 -0.2162 -0.0194
  899MOL0     H21339  -0.196   3.367   4.784 -0.8803 -1.6365  0.2744
  899MOL0     H21340  -0.145   3.486   4.906 -0.1489  0.0754 -1.1663
  899MOL0     H21341  -0.329   3.563   4.808 -1.0312  1.2414  1.4177
  899MOL0     H21342  -0.406   3.397   4.808  0.6467  0.2305 -1.4986
  899MOL0     H21343  -0.331   3.557   5.053  1.1602 -0.6223 -0.4691
  899MOL0     H21344  -0.441   3.406   5.038 -1.8571  0.0366 -1.9562
  899MOL0     H21345  -0.529   3.669   4.926 -3.1676 -1.0889 -0.4643
  899MOL0     H21346  -0.569   3.616   5.082 -5.7991  0.3629 -2.7219
  899MOL0     H21347   0.329   3.332   5.249 -2.4295  2.0382 -3.9222
  899MOL0     H21348   0.569   3.322   5.250 -0.4290  1.0685 -1.1947
  899MOL0     H21349   0.906   2.998   5.217  1.4559 -1.4113  1.4533
  899MOL0     H21350   1.108   2.949   5.298  0.5602  0.8887  0.1844
  899MOL0     H21351   0.952   3.669   6.475 -1.3918  2.7268  0.3171
  899MOL0     H21352   0.731   3.759   6.560  1.8619 -1.9442  3.2278
  899MOL0     H21353   0.286   3.826   6.415  0.3758 -0.0354  0.1106
  899MOL0     H21354   0.100   3.980   6.465 -0.8123 -0.7499  0.6593
  899MOL0     H21355  -0.111   3.914   6.845 -0.6743  1.1013  0.4389
  899MOL0     H21356  -0.029   4.051   6.913 -1.9380  0.9496  1.2650
  899MOL0     H21357  -0.189   4.214   6.824  0.2194  0.1777 -2.0183
  899MOL0     H21358  -0.255   4.087   6.931  0.1158  1.1307  0.7500
  899MOL0     H21359  -0.340   3.964   6.756 -0.7967 -0.2936 -2.8692
  899MOL0     H21360  -0.258   4.051   6.631 -0.6725  0.4443 -0.6192
  899MOL0     H21361  -0.490   4.140   6.641 -0.0995  0.1374 -0.6570
  899MOL0     H21362  -0.387   4.258   6.723  1.1237 -0.7577  1.4552
  899MOL0     H21363  -0.635   4.116   7.043  0.0573  0.7937  0.7712
  899MOL0     H21364   0.142   3.895   6.885 -0.5997 -1.5988 -0.3777
  899MOL0     H21365   0.328   3.760   6.837  0.0028 -0.0310 -1.2108
  900MOL0     O21366   6.249   9.304  11.280  0.2049  0.0116  0.3630
  900MOL0     C21367   6.307   9.335  11.386 -0.6267  0.6132  1.0362
  900MOL0     O21368   6.259   9.323  11.514  0.0300 -0.5215 -0.2168
  900MOL0     C21369   6.126   9.313  11.531  0.3282 -0.6441 -0.5038
  900MOL0     C21370   6.069   9.398  11.622  1.1639 -0.0952 -0.2469
  900MOL0     C21371   5.929   9.394  11.647 -0.3502  0.1403  0.4040
  900MOL0     C21372   5.844   9.307  11.579  0.0288  0.2054  0.4566
  900MOL0     O21373   5.712   9.291  11.615 -0.0635  0.2492 -0.5301
  900MOL0     C21374   5.645   9.415  11.656 -0.7084  0.0247 -0.4622
  900MOL0     C21375   5.493   9.397  11.678  0.0253 -0.7282  0.0166
  900MOL0     C21376   5.431   9.355  11.548 -0.4543  0.0842 -0.1117
  900MOL0     C21377   5.303   9.291  11.569  1.1159 -0.5454  0.3150
  900MOL0     C21378   5.237   9.243  11.439 -0.5753 -0.9484 -0.3880
  900MOL0     C21379   5.086   9.200  11.455  1.4975  0.6533 -0.0749
  900MOL0     C21380   4.999   9.312  11.521  0.2408 -0.7553 -0.6944
  900MOL0     C21381   4.850   9.279  11.531  0.3212 -0.7768  0.1590
  900MOL0     N21382   4.781   9.267  11.398 -0.5890  0.0364 -0.4028
  900MOL0     C21383   4.777   9.367  11.304 -0.8984  0.0717  0.8750
  900MOL0     C21384   4.718   9.311  11.197  0.2521 -0.3644  0.0991
  900MOL0     C21385   4.684   9.387  11.074 -0.2091  0.3267 -0.4232
  900MOL0     C21386   4.538   9.442  11.083 -1.2395  0.8318  0.5389
  900MOL0     C21387   4.487   9.529  10.968  0.1319  0.7459 -0.0293
  900MOL0     C21388   4.330   9.545  10.991 -0.2241 -0.4489 -0.3594
  900MOL0     O21389   4.315   9.627  11.107  1.1055  0.4986 -0.3936
  900MOL0     C21390   4.266   9.751  11.079 -0.6994  0.2466 -0.8027
  900MOL0     C21391   4.132   9.767  11.064 -0.0439 -0.0307 -0.0456
  900MOL0     C21392   4.081   9.899  11.035  0.2419  0.0863 -0.3428
  900MOL0     C21393   3.940   9.902  11.017 -0.7858 -0.0282 -0.3531
  900MOL0     C21394   4.170  10.009  11.018  0.3503 -0.5972 -0.2664
  900MOL0     C21395   4.126  10.149  11.007 -0.0954 -0.1833 -0.1635
  900MOL0     O21396   3.990  10.174  11.004  1.1399 -0.2668  0.2624
  900MOL0     C21397   3.950  10.302  10.992  0.5148 -1.2926 -0.1878
  900MOL0     C21398   3.970  10.394  11.095 -0.8278  0.0721  1.0570
  900MOL0     C21399   3.919  10.531  11.084 -0.5969  0.7790  0.1714
  900MOL0     C21400   3.841  10.569  10.971 -0.9137 -0.2218 -0.3484
  900MOL0     O21401   3.779  10.691  10.959 -0.3900 -0.2671 -0.4531
  900MOL0     C21402   3.801  10.791  11.060 -0.1903  0.4907 -0.4798
  900MOL0     C21403   3.764  10.936  11.025 -0.3774 -0.6677  0.5209
  900MOL0     C21404   3.887  11.018  10.954  0.1918  0.0870 -0.0227
  900MOL0     C21405   3.842  11.145  10.879  0.6062  0.8306 -0.3108
  900MOL0     C21406   3.929  11.205  10.767 -0.6633 -0.0198 -0.1551
  900MOL0     C21407   4.070  11.247  10.812 -0.0723 -0.2984 -0.5615
  900MOL0     C21408   4.062  11.372  10.903 -0.2100  0.7591 -1.3531
  900MOL0     C21409   4.199  11.444  10.909  0.7422 -0.5713  0.9897
  900MOL0    Cl21410   4.327  11.336  10.983 -0.2253 -0.3504  0.7400
  900MOL0     C21411   3.814  10.467  10.874  0.0386 -0.0943  0.0627
  900MOL0     C21412   3.857  10.336  10.891 -0.6019 -0.9458 -0.4873
  900MOL0     O21413   4.219  10.237  10.989  0.8801  0.0615 -0.4626
  900MOL0     C21414   4.307   9.984  11.052 -0.7547 -0.2118 -0.3819
  900MOL0     C21415   4.351   9.855  11.066  0.4605 -0.9604  0.1601
  900MOL0     N21416   4.675   9.182  11.227 -0.5611 -0.3276 -0.4958
  900MOL0     N21417   4.725   9.152  11.349 -0.4760 -0.5154 -0.2950
  900MOL0     C21418   5.903   9.218  11.483 -0.4196  0.8500 -0.1821
  900MOL0     C21419   6.043   9.221  11.462  0.1911 -0.1314 -0.5383
  900MOL0     C21420   6.444   9.396  11.362 -0.1414  0.7711  0.3909
  900MOL0     C21421   6.501   9.418  11.233  0.3640  0.2669 -1.0219
  900MOL0     C21422   6.633   9.468  11.219 -0.2463 -0.8662 -0.9904
  900MOL0     C21423   6.709   9.508  11.334 -0.1888  0.1583 -0.2229
  900MOL0     O21424   6.834   9.563  11.336 -0.4509 -0.1103  0.6003
  900MOL0     C21425   6.874   9.617  11.210 -0.5397 -0.7573 -0.0192
  900MOL0     C21426   7.012   9.697  11.223 -0.0264 -0.1005  0.4834
  900MOL0     C21427   7.010   9.810  11.324 -0.5999 -0.3621 -0.3691
  900MOL0     C21428   7.136   9.886  11.313 -0.3166 -0.2113 -0.5337
  900MOL0     C21429   7.160   9.941  11.179 -0.1969  0.6309 -0.0654
  900MOL0     C21430   7.179   9.990  11.070 -0.6294 -0.2475 -0.5707
  900MOL0     C21431   6.652   9.486  11.461 -0.5356 -0.8472 -0.2074
  900MOL0     C21432   6.519   9.439  11.471 -0.8362 -0.4833 -0.8153
  900MOL0     H21433   6.128   9.454  11.693  2.5613 -2.2938  0.4129
  900MOL0     H21434   5.879   9.445  11.730 -0.7663 -2.1014  1.5996
  900MOL0     H21435   5.681   9.454  11.751 -0.1671 -0.1337 -0.6002
  900MOL0     H21436   5.674   9.493  11.584  4.5294 -2.9337 -2.1393
  900MOL0     H21437   5.492   9.313  11.748  2.4029 -0.7942  0.0740
  900MOL0     H21438   5.440   9.486  11.712 -0.3961 -1.3228  0.9468
  900MOL0     H21439   5.422   9.435  11.474 -1.2715  0.0072 -0.1090
  900MOL0     H21440   5.489   9.278  11.497 -1.9561 -0.6772 -0.7354
  900MOL0     H21441   5.311   9.208  11.640  2.5303  1.4458  2.6458
  900MOL0     H21442   5.238   9.358  11.626  2.6501  0.5313  0.8453
  900MOL0     H21443   5.250   9.327  11.370 -2.2517  1.1630  1.6871
  900MOL0     H21444   5.293   9.155  11.408  1.0977  0.6422 -2.1212
  900MOL0     H21445   5.040   9.168  11.361 -1.2839 -0.0334  1.4097
  900MOL0     H21446   5.094   9.114  11.523 -0.0860 -0.2919 -1.0122
  900MOL0     H21447   5.029   9.328  11.625 -0.3334 -1.1270 -0.4666
  900MOL0     H21448   5.015   9.405  11.466  1.6241  1.2084  2.7479
  900MOL0     H21449   4.806   9.363  11.586  0.4534 -0.4984 -0.1546
  900MOL0     H21450   4.833   9.195  11.599  2.1601  0.3787  2.1501
  900MOL0     H21451   4.804   9.471  11.321  1.6664  0.2224 -2.7533
  900MOL0     H21452   4.754   9.468  11.053  0.1937 -0.3912 -2.0272
  900MOL0     H21453   4.695   9.316  10.992 -0.2505 -2.5221  1.8736
  900MOL0     H21454   4.533   9.506  11.172  0.5714  0.8872  0.6292
  900MOL0     H21455   4.462   9.366  11.105 -2.6569  2.3504  1.1576
  900MOL0     H21456   4.490   9.471  10.876 -1.3201  0.0573  0.3265
  900MOL0     H21457   4.541   9.624  10.955  2.3519 -0.8395 -3.9588
  900MOL0     H21458   4.278   9.450  11.005  1.0486 -1.0101  0.7646
  900MOL0     H21459   4.302   9.594  10.897 -0.0647  1.4869  0.5657
  900MOL0     H21460   4.077   9.673  11.061  1.1469 -0.7264 -0.8369
  900MOL0     H21461   3.891   9.976  11.080  1.5579  0.6180  0.8053
  900MOL0     H21462   3.924   9.918  10.910 -3.2921 -3.3988 -0.6663
  900MOL0     H21463   3.888   9.805  11.020  1.1058 -1.1426 -1.5075
  900MOL0     H21464   4.036  10.371  11.179  0.0736 -0.4105  0.2397
  900MOL0     H21465   3.923  10.603  11.164 -2.0625 -1.8099  2.7302
  900MOL0     H21466   3.744  10.751  11.144 -0.3906 -1.9865 -1.6942
  900MOL0     H21467   3.904  10.792  11.097 -0.0661 -0.5266 -0.7523
  900MOL0     H21468   3.676  10.941  10.960 -0.3936 -0.3543  0.5690
  900MOL0     H21469   3.742  10.988  11.119 -0.6365  1.0033 -0.4222
  900MOL0     H21470   3.925  10.954  10.874 -2.7280 -1.1585 -0.5561
  900MOL0     H21471   3.971  11.032  11.022  0.4454 -0.2207 -0.2694
  900MOL0     H21472   3.738  11.132  10.847  1.1793  0.4389 -2.1089
  900MOL0     H21473   3.837  11.223  10.956  1.7530  0.8862 -0.2867
  900MOL0     H21474   3.877  11.292  10.724 -2.2202 -0.6038  0.4803
  900MOL0     H21475   3.937  11.144  10.676 -0.3070  1.2601 -1.0151
  900MOL0     H21476   4.135  11.171  10.858  1.2578  1.6347  0.9310
  900MOL0     H21477   4.125  11.268  10.720 -0.3068  1.2236 -0.3759
  900MOL0     H21478   4.049  11.344  11.007 -1.6765  1.7441 -1.2375
  900MOL0     H21479   3.981  11.435  10.863 -1.1252 -1.7983 -3.9221
  900MOL0     H21480   4.187  11.540  10.960  0.2033 -0.0181 -0.1334
  900MOL0     H21481   4.226  11.478  10.808 -3.1688  0.2059  0.0292
  900MOL0     H21482   3.754  10.483  10.785 -1.9256 -1.3755  1.0787
  900MOL0     H21483   3.818  10.262  10.822 -0.0034 -0.8086 -0.9856
  900MOL0     H21484   4.383  10.061  11.052  1.0822 -1.8955  1.0794
  900MOL0     H21485   4.458   9.836  11.077  0.7737  1.0217  0.9784
  900MOL0     H21486   5.842   9.152  11.423  0.9168  1.0527 -1.8252
  900MOL0     H21487   6.095   9.161  11.388  0.8627  0.4004 -0.5122
  900MOL0     H21488   6.454   9.385  11.141  1.8078 -1.2487 -1.2615
  900MOL0     H21489   6.669   9.467  11.117 -1.2700 -2.0259 -1.3633
  900MOL0     H21490   6.892   9.538  11.137  2.4441 -0.2236  0.0385
  900MOL0     H21491   6.798   9.682  11.166  2.3283  0.1260 -4.2345
  900MOL0     H21492   7.028   9.735  11.122 -3.2039 -1.2534 -0.5564
  900MOL0     H21493   7.091   9.625  11.245  0.7223  0.2162 -1.0364
  900MOL0     H21494   7.002   9.777  11.428  1.5215 -2.3890 -0.7663
  900MOL0     H21495   6.922   9.871  11.302 -0.8842 -0.4334  0.5382
  900MOL0     H21496   7.209   9.810  11.342 -1.7349 -1.5626 -0.3895
  900MOL0     H21497   7.130   9.972  11.380  1.6966  0.0577 -0.6312
  900MOL0     H21498   7.215  10.023  10.974 -0.1722 -0.7949 -0.5938
  900MOL0     H21499   6.704   9.506  11.554  0.2495 -1.8697 -0.4080
  900MOL0     H21500   6.482   9.419  11.572  0.1480 -0.2795 -0.4097
  901MOL0     O21501   3.105   9.806   2.907 -0.1315  0.2216 -0.3335
  901MOL0     C21502   3.182   9.722   2.863 -0.1837  0.0041  0.3118
  901MOL0     O21503   3.155   9.657   2.749  0.2025  0.4843 -0.0711
  901MOL0     C21504   3.025   9.662   2.705  0.0705 -0.0132 -0.0239
  901MOL0     C21505   2.985   9.772   2.631  0.2295 -0.1715  0.3865
  901MOL0     C21506   2.852   9.782   2.602 -0.0649 -0.3466  0.1201
  901MOL0     C21507   2.759   9.684   2.625 -0.5756 -0.4127  0.1171
  901MOL0     O21508   2.633   9.722   2.574 -0.1859  0.9386  0.0147
  901MOL0     C21509   2.545   9.614   2.539  0.9447  0.6104 -0.3030
  901MOL0     C21510   2.600   9.554   2.408 -0.1873 -0.7386 -0.1007
  901MOL0     C21511   2.488   9.487   2.329 -0.0375 -0.2868 -0.0237
  901MOL0     C21512   2.515   9.493   2.177 -0.1182 -0.5758 -0.8752
  901MOL0     C21513   2.389   9.453   2.100  0.3623  0.3187 -0.0785
  901MOL0     C21514   2.414   9.440   1.948  0.0790  0.3955  0.3659
  901MOL0     C21515   2.523   9.353   1.891  0.2376  0.3126 -0.7138
  901MOL0     C21516   2.500   9.203   1.909 -0.5588  0.2181 -0.5071
  901MOL0     N21517   2.370   9.161   1.853  0.3282  0.2253 -0.5027
  901MOL0     C21518   2.337   9.129   1.725  0.0089  0.2448  0.7337
  901MOL0     C21519   2.198   9.096   1.734  0.5061 -0.0120 -0.3185
  901MOL0     C21520   2.117   9.058   1.611  0.6262 -0.2939  0.0907
  901MOL0     C21521   2.140   8.917   1.562  0.7755 -0.7721 -0.4525
  901MOL0     C21522   2.107   8.894   1.414  0.0345  0.3493 -0.3411
  901MOL0     C21523   1.956   8.910   1.389  0.6749  0.3507 -0.2557
  901MOL0     O21524   1.929   9.055   1.377 -0.6517 -0.4428 -0.8180
  901MOL0     C21525   1.804   9.091   1.349 -0.3894 -0.2287  0.0433
  901MOL0     C21526   1.774   9.225   1.348  0.4629  0.1241  0.4631
  901MOL0     C21527   1.655   9.283   1.310 -0.1197 -0.2846 -0.5621
  901MOL0     C21528   1.662   9.436   1.302 -0.6447  0.4245  0.8792
  901MOL0     C21529   1.551   9.199   1.265 -0.4796  0.4196 -0.2175
  901MOL0     C21530   1.421   9.249   1.225  0.3339  0.2949  1.0399
  901MOL0     O21531   1.338   9.159   1.159 -0.3335 -0.5772 -0.6481
  901MOL0     C21532   1.205   9.194   1.128  0.8757  0.3960  0.2661
  901MOL0     C21533   1.170   9.312   1.053 -0.3363  0.9169  0.1827
  901MOL0     C21534   1.042   9.312   0.997  0.8877 -0.5529  0.0297
  901MOL0     C21535   0.950   9.213   1.016  0.3529 -0.1914 -0.2959
  901MOL0     O21536   0.818   9.230   0.972 -0.1446  0.4067  0.3451
  901MOL0     C21537   0.773   9.121   0.887 -0.4999  0.8014  0.0734
  901MOL0     C21538   0.682   9.170   0.778 -0.5868 -0.8723  0.1983
  901MOL0     C21539   0.537   9.212   0.822 -0.6788 -0.0079 -0.2751
  901MOL0     C21540   0.444   9.096   0.850 -0.3218 -0.0907 -0.0394
  901MOL0     C21541   0.318   9.121   0.931  0.6339 -0.1745  0.1875
  901MOL0     C21542   0.234   9.238   0.877 -0.7090 -0.6119  0.4530
  901MOL0     C21543   0.088   9.231   0.939 -0.2042 -0.4709 -0.2446
  901MOL0     C21544  -0.036   9.246   0.855 -0.0745  0.6428  0.1529
  901MOL0    Cl21545  -0.182   9.263   0.963  0.0997  0.1755 -0.1650
  901MOL0     C21546   0.996   9.097   1.079  0.3204 -0.9296  0.0857
  901MOL0     C21547   1.121   9.081   1.134  1.0352  0.3453 -0.9009
  901MOL0     O21548   1.394   9.364   1.264 -0.2486 -0.2505  1.4723
  901MOL0     C21549   1.578   9.065   1.260 -0.2291  0.5083  0.2524
  901MOL0     C21550   1.696   9.013   1.304 -0.3660  0.3407  0.1274
  901MOL0     N21551   2.156   9.110   1.862  0.1949 -0.6680 -0.6636
  901MOL0     N21552   2.256   9.145   1.931 -1.1383 -0.1999 -0.3981
  901MOL0     C21553   2.796   9.575   2.711 -0.0395  0.6202  0.0529
  901MOL0     C21554   2.932   9.569   2.748 -0.5580 -0.0102  0.3946
  901MOL0     C21555   3.309   9.709   2.924 -0.0993  0.4112 -0.0879
  901MOL0     C21556   3.377   9.586   2.915  0.5589  0.6467 -0.6708
  901MOL0     C21557   3.494   9.571   2.989  0.6639 -0.3144 -0.2844
  901MOL0     C21558   3.556   9.671   3.060  1.1534  0.5434 -0.6270
  901MOL0     O21559   3.668   9.626   3.128 -0.2317  0.2169  0.8207
  901MOL0     C21560   3.754   9.728   3.190  0.6456 -0.3134 -0.2895
  901MOL0     C21561   3.879   9.658   3.245 -0.5562 -0.3341 -0.0502
  901MOL0     C21562   4.005   9.745   3.267  0.3123 -0.4383 -0.2253
  901MOL0     C21563   4.125   9.662   3.322 -1.0493 -0.2673 -0.1324
  901MOL0     C21564   4.219   9.740   3.401  0.0911 -0.0371 -0.0104
  901MOL0     C21565   4.299   9.815   3.457 -0.3485 -0.3341 -0.3133
  901MOL0     C21566   3.498   9.803   3.055 -0.0020 -0.5161  0.5773
  901MOL0     C21567   3.372   9.818   2.985 -0.0420 -0.8375  0.6358
  901MOL0     H21568   3.054   9.849   2.599 -0.4974  1.0794  1.6998
  901MOL0     H21569   2.830   9.867   2.538  2.1580 -0.7979 -1.3669
  901MOL0     H21570   2.545   9.537   2.617 -0.9043  1.9659  1.1347
  901MOL0     H21571   2.448   9.657   2.513 -0.7831 -1.3155  2.3800
  901MOL0     H21572   2.645   9.634   2.349 -4.3351  1.4919 -0.6251
  901MOL0     H21573   2.678   9.484   2.439  1.0817  1.0476  0.9352
  901MOL0     H21574   2.466   9.389   2.371  1.6549 -0.8529 -0.4010
  901MOL0     H21575   2.399   9.550   2.340  1.0634  0.9036  3.5843
  901MOL0     H21576   2.546   9.597   2.162  1.3938 -0.9909 -0.8090
  901MOL0     H21577   2.604   9.433   2.154 -0.0803 -0.2346 -1.6187
  901MOL0     H21578   2.349   9.357   2.134 -1.4652  1.0536 -0.0586
  901MOL0     H21579   2.313   9.531   2.107 -0.9317 -0.6865 -2.0989
  901MOL0     H21580   2.317   9.406   1.908 -0.4033 -0.5590  2.2289
  901MOL0     H21581   2.427   9.539   1.904 -0.4224  0.9646  1.4552
  901MOL0     H21582   2.507   9.368   1.784  0.9364 -1.6286 -1.1361
  901MOL0     H21583   2.624   9.384   1.919 -0.3524  2.7209 -1.0191
  901MOL0     H21584   2.515   9.180   2.015  0.0871 -0.5426 -0.7608
  901MOL0     H21585   2.578   9.143   1.864 -1.2035 -1.8692  1.0044
  901MOL0     H21586   2.419   9.127   1.655  1.8190  1.0532  2.7286
  901MOL0     H21587   2.016   9.077   1.648  0.7043  0.7703 -0.2057
  901MOL0     H21588   2.128   9.140   1.538 -0.2846 -1.7563 -1.7830
  901MOL0     H21589   2.067   8.864   1.625 -1.7562  5.3446  2.5350
  901MOL0     H21590   2.242   8.884   1.584  1.6078  0.5506 -2.1455
  901MOL0     H21591   2.126   8.790   1.385  0.7672  1.4968 -4.5739
  901MOL0     H21592   2.164   8.946   1.337 -0.3521 -0.1507 -0.9714
  901MOL0     H21593   1.897   8.871   1.473  0.1390  2.6054  0.4832
  901MOL0     H21594   1.934   8.858   1.295  0.2028  1.3526 -0.7139
  901MOL0     H21595   1.847   9.292   1.393  1.4362 -0.7085  0.1734
  901MOL0     H21596   1.758   9.471   1.339  3.0343 -3.0954 -3.9723
  901MOL0     H21597   1.640   9.466   1.199 -2.4581 -1.0051  0.7993
  901MOL0     H21598   1.585   9.488   1.360 -2.0562  1.1565 -1.4659
  901MOL0     H21599   1.224   9.404   1.031 -1.1662  0.8171 -2.6809
  901MOL0     H21600   1.004   9.394   0.937  0.1037 -2.2850 -1.9709
  901MOL0     H21601   0.860   9.079   0.836 -1.0929  1.8062 -1.8597
  901MOL0     H21602   0.731   9.044   0.952 -1.0524  0.4441 -0.6986
  901MOL0     H21603   0.726   9.255   0.724 -0.1236 -2.0488 -1.3404
  901MOL0     H21604   0.681   9.091   0.703 -1.8666 -0.8430  0.1677
  901MOL0     H21605   0.488   9.269   0.742  0.9422  2.1655  0.2024
  901MOL0     H21606   0.549   9.263   0.918  1.4003  0.7611 -0.8957
  901MOL0     H21607   0.415   9.052   0.754  0.0953  0.3241 -0.3573
  901MOL0     H21608   0.502   9.023   0.907  0.5234 -0.9396 -1.9205
  901MOL0     H21609   0.348   9.131   1.036 -0.3571 -1.9404  0.6979
  901MOL0     H21610   0.257   9.030   0.940 -0.2802  0.6300  3.5719
  901MOL0     H21611   0.287   9.331   0.898 -0.9282 -0.4130  0.1359
  901MOL0     H21612   0.237   9.238   0.768  1.6211  3.1967  0.3496
  901MOL0     H21613   0.085   9.314   1.010 -0.4572 -0.7555  0.0795
  901MOL0     H21614   0.094   9.141   1.000  1.4177 -0.2359 -0.0040
  901MOL0     H21615  -0.040   9.164   0.783  0.3332  0.2633  0.5577
  901MOL0     H21616  -0.022   9.339   0.799  2.7390 -0.1122 -0.5893
  901MOL0     H21617   0.921   9.020   1.090 -1.6126  0.5280 -1.8677
  901MOL0     H21618   1.154   8.992   1.188  0.5786  0.0505 -1.1031
  901MOL0     H21619   1.496   9.002   1.226  0.6548  0.2047 -1.4083
  901MOL0     H21620   1.720   8.908   1.292 -0.7322  0.3593 -0.8697
  901MOL0     H21621   2.725   9.495   2.729 -0.2327  1.3311  2.8005
  901MOL0     H21622   2.966   9.485   2.807  1.0053  0.3951  0.1052
  901MOL0     H21623   3.330   9.497   2.874  0.7043 -0.2161  0.9496
  901MOL0     H21624   3.530   9.468   2.989 -0.6928 -0.8521 -2.1746
  901MOL0     H21625   3.784   9.809   3.122 -1.0160  0.8792  0.3252
  901MOL0     H21626   3.701   9.779   3.271  1.7661  0.0592  0.2383
  901MOL0     H21627   3.907   9.578   3.176 -0.7759 -0.4075 -0.0543
  901MOL0     H21628   3.856   9.615   3.343  1.3813 -2.0391 -0.2885
  901MOL0     H21629   3.990   9.832   3.332  1.0131 -0.8633  0.5316
  901MOL0     H21630   4.028   9.771   3.164 -0.6266  0.8954 -0.1166
  901MOL0     H21631   4.182   9.609   3.245  0.4613 -1.7222  1.8684
  901MOL0     H21632   4.098   9.578   3.386  0.1441 -1.6229 -1.3335
  901MOL0     H21633   4.372   9.872   3.511  0.0980 -0.4209 -0.8060
  901MOL0     H21634   3.542   9.887   3.108  3.5182 -1.3736 -0.6762
  901MOL0     H21635   3.323   9.914   2.988 -1.4251 -1.4870 -0.1699
  902MOL0     O21636   0.939   8.395  10.723 -0.2108  1.0542 -0.2955
  902MOL0     C21637   0.946   8.292  10.787  0.2231  0.5958  0.5027
  902MOL0     O21638   0.844   8.216  10.830  0.1618  0.3460 -0.1401
  902MOL0     C21639   0.712   8.256  10.805 -0.0294 -0.0421  0.0409
  902MOL0     C21640   0.647   8.362  10.877  0.9372 -0.6447 -0.1320
  902MOL0     C21641   0.512   8.392  10.853 -0.6767 -0.3439 -0.2564
  902MOL0     C21642   0.440   8.315  10.768 -0.3761 -0.7699  0.6739
  902MOL0     O21643   0.307   8.353  10.755  0.1776  0.4131  0.3427
  902MOL0     C21644   0.220   8.309  10.644  0.1525  0.9529  0.3258
  902MOL0     C21645   0.095   8.251  10.715  0.5229 -0.3848 -0.3960
  902MOL0     C21646  -0.006   8.183  10.626  0.0923 -0.9015 -0.1164
  902MOL0     C21647  -0.148   8.219  10.659  0.2713  0.1019 -0.3267
  902MOL0     C21648  -0.240   8.148  10.556  0.4111  0.3279 -0.1464
  902MOL0     C21649  -0.391   8.167  10.585  0.1025 -0.1038  0.1312
  902MOL0     C21650  -0.481   8.124  10.474 -0.2974  0.8774 -0.2660
  902MOL0     C21651  -0.634   8.139  10.521 -0.3013 -0.0975  0.4004
  902MOL0     N21652  -0.723   8.112  10.403  0.7350 -0.7967  0.6211
  902MOL0     C21653  -0.737   8.197  10.295  0.9709  0.7034 -0.0581
  902MOL0     C21654  -0.828   8.119  10.219  0.2231  0.1203 -0.9205
  902MOL0     C21655  -0.845   8.138  10.071  0.5661 -0.0752  1.0271
  902MOL0     C21656  -0.982   8.218  10.036 -0.6059  0.6729  0.2604
  902MOL0     C21657  -1.095   8.157  10.116  0.2756  0.3117 -0.6759
  902MOL0     C21658  -1.237   8.184  10.066 -0.0133 -1.0140  0.1734
  902MOL0     O21659  -1.329   8.147  10.169  0.2399  1.4652  0.0199
  902MOL0     C21660  -1.457   8.122  10.125  0.0177 -0.3216 -0.1067
  902MOL0     C21661  -1.537   8.039  10.204 -0.0616 -0.7809 -0.2121
  902MOL0     C21662  -1.671   8.012  10.178  0.6153  0.4009 -0.6148
  902MOL0     C21663  -1.747   7.925  10.272 -0.1810 -0.4262 -0.8507
  902MOL0     C21664  -1.733   8.066  10.060 -0.7351  0.3952  0.3786
  902MOL0     C21665  -1.879   8.058  10.028 -0.7885  0.3295  0.3904
  902MOL0     O21666  -1.934   8.163   9.961  0.5698  0.1851 -0.5148
  902MOL0     C21667  -2.076   8.160   9.970  0.3411 -0.4882  0.1225
  902MOL0     C21668  -2.160   8.200  10.078  0.6789 -0.4146 -0.5854
  902MOL0     C21669  -2.304   8.188  10.058 -0.3163  0.4433 -0.2411
  902MOL0     C21670  -2.364   8.138   9.943 -0.5712  0.0877 -0.3589
  902MOL0     O21671  -2.500   8.120   9.938 -0.1207 -0.3929 -0.5967
  902MOL0     C21672  -2.551   8.019   9.851 -0.3691  0.0772  0.3185
  902MOL0     C21673  -2.707   8.015   9.850 -0.3908  0.1093  0.9775
  902MOL0     C21674  -2.762   8.143   9.780  0.0860 -0.2900  0.9514
  902MOL0     C21675  -2.917   8.125   9.783 -0.2332 -0.5974 -0.8396
  902MOL0     C21676  -2.998   8.232   9.705  0.3352 -1.0651  0.2614
  902MOL0     C21677  -3.119   8.170   9.635  0.0567  0.7545 -1.1144
  902MOL0     C21678  -3.194   8.277   9.551 -0.2464 -0.1174 -0.7328
  902MOL0     C21679  -3.332   8.234   9.504 -0.1343  0.2411 -0.2480
  902MOL0    Cl21680  -3.391   8.390   9.434  0.1506  0.5436 -0.4577
  902MOL0     C21681  -2.271   8.101   9.842 -0.2016 -0.0574  1.1502
  902MOL0     C21682  -2.136   8.113   9.851  0.5710 -0.3810 -0.3018
  902MOL0     O21683  -1.933   7.945  10.050  0.0371 -0.5629 -0.2610
  902MOL0     C21684  -1.647   8.139   9.977 -0.0023  0.5618 -0.5271
  902MOL0     C21685  -1.512   8.177  10.012 -0.1413  0.3079  0.1769
  902MOL0     N21686  -0.881   8.009  10.294 -0.2321  0.2464 -0.0459
  902MOL0     N21687  -0.817   8.012  10.403 -0.0449  0.3683 -0.3975
  902MOL0     C21688   0.501   8.207  10.698  0.1248  1.0498 -0.4372
  902MOL0     C21689   0.638   8.178  10.712 -0.0491  0.4283 -0.1586
  902MOL0     C21690   1.083   8.234  10.822 -0.3479 -0.0479  0.5179
  902MOL0     C21691   1.201   8.271  10.752 -0.2388 -0.3584  0.1344
  902MOL0     C21692   1.324   8.224  10.791  0.5780 -0.9171 -0.3239
  902MOL0     C21693   1.343   8.134  10.897  0.6088 -0.1020 -0.2636
  902MOL0     O21694   1.475   8.092  10.919 -0.6450 -0.2548  0.0055
  902MOL0     C21695   1.495   7.976  11.000 -0.3347  1.0769  0.2787
  902MOL0     C21696   1.485   7.842  10.916  0.2728  0.3341 -0.2764
  902MOL0     C21697   1.599   7.805  10.825 -0.5891  0.1006 -0.1671
  902MOL0     C21698   1.740   7.842  10.873  1.1881 -0.5118  0.3725
  902MOL0     C21699   1.837   7.815  10.775  0.3453  0.7206 -0.5150
  902MOL0     C21700   1.920   7.792  10.692  0.3408 -0.1835  0.0641
  902MOL0     C21701   1.221   8.083  10.969 -0.5925 -0.2092 -0.0031
  902MOL0     C21702   1.101   8.143  10.931  0.3209  0.3443 -0.0352
  902MOL0     H21703   0.696   8.416  10.957 -0.7314 -0.2263  0.6494
  902MOL0     H21704   0.453   8.469  10.901 -0.0830 -0.1450  0.1709
  902MOL0     H21705   0.184   8.399  10.593  0.2564  0.9499  0.2466
  902MOL0     H21706   0.265   8.246  10.567 -1.7912  1.3228 -1.2008
  902MOL0     H21707   0.123   8.181  10.795  1.0605  0.1595 -0.0897
  902MOL0     H21708   0.053   8.338  10.767 -2.2177 -1.1175 -1.2208
  902MOL0     H21709   0.020   8.231  10.531  1.3104  2.3634  1.7061
  902MOL0     H21710   0.013   8.075  10.624  2.8116 -0.4996 -1.1153
  902MOL0     H21711  -0.172   8.199  10.763 -1.2836 -1.4226 -0.9285
  902MOL0     H21712  -0.168   8.326  10.644 -1.3326 -0.2813 -1.1962
  902MOL0     H21713  -0.219   8.181  10.454 -1.8386 -1.1711 -1.1780
  902MOL0     H21714  -0.207   8.044  10.558  4.4891  1.4438 -0.4755
  902MOL0     H21715  -0.413   8.101  10.670  1.5640 -0.4206  0.2809
  902MOL0     H21716  -0.420   8.268  10.618 -0.8273  0.1057 -1.2424
  902MOL0     H21717  -0.465   8.197  10.395  0.4354  1.5916  0.5217
  902MOL0     H21718  -0.459   8.022  10.441  2.0800  0.8972  1.0325
  902MOL0     H21719  -0.650   8.239  10.562  1.2846  0.7325 -0.8529
  902MOL0     H21720  -0.656   8.070  10.603 -2.2579 -1.3573 -1.0735
  902MOL0     H21721  -0.692   8.294  10.272  0.5063  0.6503 -1.2756
  902MOL0     H21722  -0.756   8.195  10.039  1.1850 -0.4032  2.1026
  902MOL0     H21723  -0.841   8.046  10.012  1.5028  1.2098 -1.0523
  902MOL0     H21724  -1.012   8.215   9.931 -1.2240 -2.5853  0.4319
  902MOL0     H21725  -0.975   8.324  10.066 -1.2548  0.3913  1.4825
  902MOL0     H21726  -1.091   8.198  10.217 -0.1928  1.8406 -1.2540
  902MOL0     H21727  -1.083   8.048  10.114  2.8639  0.5436 -1.2593
  902MOL0     H21728  -1.252   8.137   9.968 -1.1237 -0.2955 -0.0292
  902MOL0     H21729  -1.249   8.293  10.066 -0.2121 -1.0149  1.6109
  902MOL0     H21730  -1.500   7.990  10.293 -0.6740 -1.7806 -0.4898
  902MOL0     H21731  -1.680   7.893  10.353 -2.0098 -0.3119  0.7791
  902MOL0     H21732  -1.836   7.978  10.307  1.6094  0.5535  2.7267
  902MOL0     H21733  -1.777   7.828  10.231 -2.0102  0.1746 -1.0410
  902MOL0     H21734  -2.104   8.245  10.160  2.1044  0.4439 -1.9796
  902MOL0     H21735  -2.360   8.218  10.146 -1.0406  2.6546 -1.3743
  902MOL0     H21736  -2.506   8.017   9.751 -2.0566 -3.1405 -0.5350
  902MOL0     H21737  -2.527   7.920   9.891 -2.5213 -1.4471 -1.8480
  902MOL0     H21738  -2.729   7.925   9.794  2.6757  1.7208 -3.3792
  902MOL0     H21739  -2.738   8.018   9.955  0.7125 -2.0905  1.4125
  902MOL0     H21740  -2.727   8.152   9.677  1.7696  0.0751  1.5240
  902MOL0     H21741  -2.727   8.233   9.832  3.9565 -0.2856 -1.2785
  902MOL0     H21742  -2.940   8.028   9.737  0.5521 -0.3112 -1.8916
  902MOL0     H21743  -2.948   8.119   9.887  0.1124  0.8565 -0.6437
  902MOL0     H21744  -2.935   8.281   9.630  0.0174 -1.1982 -0.0985
  902MOL0     H21745  -3.041   8.307   9.771  0.1145 -1.2438  0.3212
  902MOL0     H21746  -3.078   8.096   9.566 -0.0816  0.2052 -0.6106
  902MOL0     H21747  -3.184   8.127   9.712 -0.0617 -2.0337 -2.6558
  902MOL0     H21748  -3.139   8.290   9.458 -0.2986  0.1429 -0.7281
  902MOL0     H21749  -3.210   8.370   9.606  1.9326 -1.6141  2.7192
  902MOL0     H21750  -3.403   8.206   9.582 -0.7969  0.5755 -0.7278
  902MOL0     H21751  -3.327   8.150   9.434 -0.1014 -0.7097  0.8604
  902MOL0     H21752  -2.311   8.048   9.756  0.2959 -3.1080  2.6590
  902MOL0     H21753  -2.071   8.087   9.768 -1.6732 -1.4941 -1.7893
  902MOL0     H21754  -1.677   8.190   9.886 -2.7441  2.6353  1.3611
  902MOL0     H21755  -1.455   8.238   9.942 -1.9385  1.9640  0.0819
  902MOL0     H21756   0.443   8.147  10.627  1.7171 -2.3098  0.8684
  902MOL0     H21757   0.681   8.096  10.656  1.2934  0.8739  0.1832
  902MOL0     H21758   1.184   8.345  10.674 -1.0847 -0.5345  0.1441
  902MOL0     H21759   1.412   8.269  10.745  0.4500  0.4175  0.6774
  902MOL0     H21760   1.596   7.979  11.044 -1.1101  2.0101  2.1012
  902MOL0     H21761   1.421   7.967  11.080  1.1796  4.9149  2.4024
  902MOL0     H21762   1.394   7.844  10.856 -0.9220  1.4549  1.4674
  902MOL0     H21763   1.477   7.755  10.983  1.3064  0.1127 -0.4090
  902MOL0     H21764   1.579   7.858  10.731  0.0273  1.9393  0.6823
  902MOL0     H21765   1.596   7.697  10.810  1.2019 -0.5884  3.2982
  902MOL0     H21766   1.768   7.787  10.963 -3.2320 -3.2419  0.3784
  902MOL0     H21767   1.749   7.949  10.892  1.8416 -0.5937  0.5219
  902MOL0     H21768   1.995   7.783  10.615 -0.4446  2.0426 -1.0349
  902MOL0     H21769   1.225   7.998  11.036 -0.7529 -1.2771 -1.3211
  902MOL0     H21770   1.012   8.114  10.986  0.4597  1.6085  0.9058
  903MOL0     O21771   5.788   8.056   8.335  0.2930 -0.2680  0.3786
  903MOL0     C21772   5.849   8.071   8.440  0.1092 -1.0289  0.6381
  903MOL0     O21773   5.784   8.061   8.563 -0.5254  0.4378  0.6644
  903MOL0     C21774   5.659   8.014   8.556 -0.4184 -0.0712 -1.3388
  903MOL0     C21775   5.580   8.064   8.661 -0.3170  0.2783  0.1148
  903MOL0     C21776   5.456   8.022   8.694 -0.3310  0.7896  0.8961
  903MOL0     C21777   5.401   7.910   8.625  0.0677 -0.5661  0.6986
  903MOL0     O21778   5.279   7.877   8.667  0.4523 -0.6754  0.2122
  903MOL0     C21779   5.180   7.905   8.566 -0.2250 -0.2763  0.1297
  903MOL0     C21780   5.050   7.918   8.653 -0.0970  0.2766 -0.1455
  903MOL0     C21781   4.922   7.907   8.565 -1.8209  0.4794 -0.2559
  903MOL0     C21782   4.795   7.946   8.636  0.1579 -0.8845 -0.8093
  903MOL0     C21783   4.677   7.919   8.544 -0.4319  1.1800 -0.3375
  903MOL0     C21784   4.555   7.959   8.630 -0.1082 -0.3690 -0.5071
  903MOL0     C21785   4.417   7.916   8.577 -0.5690  0.3832  0.7711
  903MOL0     C21786   4.306   7.949   8.666 -0.1167  0.8673 -0.1142
  903MOL0     N21787   4.259   8.084   8.694 -0.1121  0.6599  0.4791
  903MOL0     C21788   4.222   8.173   8.596  0.2323 -0.2061 -0.5436
  903MOL0     C21789   4.194   8.294   8.658 -0.3091  1.2274 -0.5358
  903MOL0     C21790   4.152   8.428   8.596  0.7278  0.1362 -0.3808
  903MOL0     C21791   3.999   8.423   8.559 -0.2059  0.1894 -0.2033
  903MOL0     C21792   3.965   8.561   8.512 -0.4798 -0.4597 -0.5964
  903MOL0     C21793   3.841   8.567   8.420  0.5961 -0.4553 -0.7935
  903MOL0     O21794   3.731   8.596   8.504 -0.4807 -0.3813  0.7346
  903MOL0     C21795   3.630   8.675   8.445 -0.1656 -0.0840  0.1204
  903MOL0     C21796   3.577   8.770   8.518  0.0525 -0.0178 -0.8723
  903MOL0     C21797   3.473   8.853   8.475 -0.2390  0.1142  0.1372
  903MOL0     C21798   3.409   8.944   8.577 -0.5894  0.4763  0.4286
  903MOL0     C21799   3.417   8.824   8.349  0.9537 -0.2252  0.4486
  903MOL0     C21800   3.303   8.899   8.281 -0.2767 -0.5226  0.7159
  903MOL0     O21801   3.275   8.866   8.148 -0.1899 -0.0103 -0.4199
  903MOL0     C21802   3.160   8.929   8.092  0.0701 -0.2944 -0.0936
  903MOL0     C21803   3.032   8.887   8.128 -0.2062  0.6292  0.4649
  903MOL0     C21804   2.918   8.936   8.077 -0.0779 -0.2961  0.1063
  903MOL0     C21805   2.927   9.045   7.984 -0.1857  0.2172 -0.3711
  903MOL0     O21806   2.822   9.101   7.920 -0.2820  0.2076  0.7067
  903MOL0     C21807   2.714   9.020   7.866 -0.0254  0.6396  0.3194
  903MOL0     C21808   2.630   9.086   7.758  0.5906  0.1780 -0.1152
  903MOL0     C21809   2.501   9.008   7.727  0.2882  0.8409  0.4528
  903MOL0     C21810   2.394   9.040   7.823 -0.2186 -0.3518  0.2329
  903MOL0     C21811   2.263   8.967   7.792  0.6277  0.4020  0.4161
  903MOL0     C21812   2.154   9.004   7.891 -0.7206  0.1279  0.2115
  903MOL0     C21813   2.103   9.147   7.846 -0.6122  0.1663  0.3435
  903MOL0     C21814   1.966   9.178   7.887 -0.0542  0.4269  0.5859
  903MOL0    Cl21815   1.854   9.107   7.770 -0.1663 -0.1202  0.0475
  903MOL0     C21816   3.049   9.103   7.959 -0.4879  0.6466  1.2473
  903MOL0     C21817   3.167   9.047   8.010 -0.4393 -0.6851  1.2715
  903MOL0     O21818   3.243   8.989   8.347  0.1218  0.3188 -0.2685
  903MOL0     C21819   3.480   8.719   8.265 -0.0902  0.5873 -0.0024
  903MOL0     C21820   3.588   8.646   8.320  0.0718  0.0886  0.4395
  903MOL0     N21821   4.213   8.272   8.791 -0.3464 -0.5221  0.0923
  903MOL0     N21822   4.263   8.156   8.809 -0.5342 -0.4261 -0.4373
  903MOL0     C21823   5.476   7.848   8.530 -0.1543  0.1710  0.2305
  903MOL0     C21824   5.608   7.892   8.501 -0.3588 -0.1499 -0.2406
  903MOL0     C21825   5.977   8.133   8.432 -0.6660  0.0169  0.4082
  903MOL0     C21826   6.041   8.144   8.306  0.0665 -0.2880  1.0456
  903MOL0     C21827   6.159   8.225   8.287  0.3635 -0.1541 -0.0098
  903MOL0     C21828   6.199   8.307   8.385  0.3562  0.0157 -0.6962
  903MOL0     O21829   6.303   8.395   8.381  0.5164 -0.1705  0.2378
  903MOL0     C21830   6.381   8.384   8.266 -0.0653 -0.0315 -0.4105
  903MOL0     C21831   6.506   8.461   8.289 -0.0162  0.5550 -0.1070
  903MOL0     C21832   6.611   8.417   8.185 -0.3455 -0.2559  0.1815
  903MOL0     C21833   6.740   8.484   8.215 -0.4967  0.1959  0.4244
  903MOL0     C21834   6.719   8.631   8.216  0.3973  0.2226 -0.2973
  903MOL0     C21835   6.707   8.751   8.211  0.5913 -0.0171 -0.1857
  903MOL0     C21836   6.135   8.299   8.517 -0.3871 -0.3174  0.8099
  903MOL0     C21837   6.032   8.209   8.530  0.1189 -0.7459  0.0840
  903MOL0     H21838   5.622   8.138   8.728  1.5109 -1.5510  1.1121
  903MOL0     H21839   5.388   8.073   8.761 -1.9933  0.3879 -0.4023
  903MOL0     H21840   5.202   7.998   8.513  4.6516 -1.2507 -0.0577
  903MOL0     H21841   5.178   7.825   8.492 -0.9989  1.4911 -1.8648
  903MOL0     H21842   5.047   7.830   8.718  0.1569 -0.5675 -1.2471
  903MOL0     H21843   5.045   8.001   8.724  1.1716 -0.3174  0.6708
  903MOL0     H21844   4.926   7.981   8.484 -0.9464 -0.0325 -0.6908
  903MOL0     H21845   4.906   7.806   8.525 -1.1216 -0.4507  1.7064
  903MOL0     H21846   4.784   7.882   8.724 -1.1384 -0.1470 -0.4102
  903MOL0     H21847   4.793   8.049   8.671  1.1296 -1.0413 -0.2522
  903MOL0     H21848   4.687   7.975   8.451 -0.2425  1.5173 -0.1149
  903MOL0     H21849   4.669   7.812   8.522  0.8252  0.2855  2.9697
  903MOL0     H21850   4.563   7.920   8.732  3.6596  1.3315  0.0235
  903MOL0     H21851   4.560   8.067   8.644  1.2897 -0.2931 -1.4310
  903MOL0     H21852   4.397   7.965   8.481 -2.5982 -2.4831 -0.4022
  903MOL0     H21853   4.401   7.808   8.575  0.1831  0.2182  2.4329
  903MOL0     H21854   4.329   7.906   8.764  0.0628  2.4594  0.5854
  903MOL0     H21855   4.215   7.902   8.627  0.2287  0.9427 -1.0274
  903MOL0     H21856   4.222   8.149   8.491  1.2490  1.2206 -0.9078
  903MOL0     H21857   4.161   8.509   8.670  1.6067 -0.6388  0.3936
  903MOL0     H21858   4.219   8.455   8.513  2.6955  1.1824  1.4243
  903MOL0     H21859   3.928   8.392   8.636 -2.2256  0.4772 -1.8363
  903MOL0     H21860   3.972   8.346   8.486  1.2008 -2.0145  1.4801
  903MOL0     H21861   4.037   8.598   8.439 -1.4663 -1.7472 -2.2694
  903MOL0     H21862   3.956   8.637   8.591 -1.0344 -0.8479 -0.2784
  903MOL0     H21863   3.823   8.477   8.361  0.8525 -1.3162  0.3883
  903MOL0     H21864   3.857   8.656   8.359 -2.6917  0.6102 -0.3123
  903MOL0     H21865   3.624   8.779   8.615 -0.9562  2.4492 -0.5568
  903MOL0     H21866   3.419   9.051   8.555  0.7599  0.8678  2.6212
  903MOL0     H21867   3.301   8.934   8.585 -0.5793  0.3958  0.4561
  903MOL0     H21868   3.451   8.932   8.677 -2.6661  0.7492  1.3763
  903MOL0     H21869   3.032   8.806   8.201  1.5814  1.1866  1.1629
  903MOL0     H21870   2.820   8.896   8.104  0.4182 -0.0427  2.5431
  903MOL0     H21871   2.751   8.921   7.837 -0.5213  0.1832  1.1769
  903MOL0     H21872   2.653   8.992   7.953  0.6192 -1.3599  0.1771
  903MOL0     H21873   2.601   9.185   7.795 -0.6330 -0.7929  1.7210
  903MOL0     H21874   2.686   9.097   7.665  0.6846  1.4174  0.0688
  903MOL0     H21875   2.517   8.901   7.713  2.2604  1.0545  0.7391
  903MOL0     H21876   2.465   9.042   7.629  1.2962  2.4008  0.5900
  903MOL0     H21877   2.425   9.024   7.926 -0.5768  1.0101  0.5691
  903MOL0     H21878   2.375   9.147   7.820 -1.5758 -0.5948 -0.6237
  903MOL0     H21879   2.279   8.860   7.804  4.7628  0.8913  0.6280
  903MOL0     H21880   2.229   8.979   7.689 -0.8503 -2.2273  0.5336
  903MOL0     H21881   2.076   8.927   7.893  0.4762 -1.1077  0.2545
  903MOL0     H21882   2.196   8.998   7.991 -1.2995 -2.1896  0.3859
  903MOL0     H21883   2.116   9.153   7.738  1.1694 -3.0927  0.2528
  903MOL0     H21884   2.174   9.221   7.885  0.0447 -1.6429  2.7984
  903MOL0     H21885   1.952   9.286   7.879 -1.7380  0.1469 -0.7451
  903MOL0     H21886   1.940   9.136   7.985 -3.1870 -1.2460 -0.8155
  903MOL0     H21887   3.047   9.193   7.899 -0.4530  1.7369  2.8204
  903MOL0     H21888   3.262   9.097   7.993 -2.3342  2.3196 -2.0461
  903MOL0     H21889   3.445   8.683   8.169  1.8091 -0.8499 -0.2378
  903MOL0     H21890   3.630   8.564   8.262 -1.6778 -1.7817  1.6949
  903MOL0     H21891   5.437   7.763   8.475  0.5962 -1.2312  1.7596
  903MOL0     H21892   5.653   7.849   8.412  1.2310  1.6680 -0.4033
  903MOL0     H21893   6.009   8.093   8.215 -2.2895  2.5301  0.1239
  903MOL0     H21894   6.202   8.207   8.189 -2.2606 -0.7525 -1.1293
  903MOL0     H21895   6.398   8.276   8.261  2.7784 -0.2294  5.0166
  903MOL0     H21896   6.333   8.430   8.180  1.8776 -0.5182 -1.8206
  903MOL0     H21897   6.545   8.431   8.387  1.0893  1.7935 -0.1379
  903MOL0     H21898   6.490   8.569   8.294 -3.0531  0.1430  2.7846
  903MOL0     H21899   6.577   8.428   8.082  0.4801 -0.4101 -0.1155
  903MOL0     H21900   6.608   8.307   8.193 -0.1330 -0.5166 -2.4697
  903MOL0     H21901   6.817   8.455   8.143  1.3855 -1.7670  3.0499
  903MOL0     H21902   6.766   8.452   8.316  1.0235 -0.6944 -0.2095
  903MOL0     H21903   6.716   8.858   8.207  1.3369 -0.1011 -1.1544
  903MOL0     H21904   6.179   8.361   8.595  2.1055  0.8099 -1.3221
  903MOL0     H21905   5.986   8.221   8.628 -0.5254 -0.5432 -0.2315
  904MOL0     O21906   1.037   1.349   8.437  0.2805 -0.6111  0.6302
  904MOL0     C21907   1.076   1.437   8.517 -0.1600 -0.4868  0.4757
  904MOL0     O21908   1.002   1.543   8.558 -0.4609 -0.4738  0.6462
  904MOL0     C21909   0.875   1.530   8.503 -0.0972  0.5324  0.0953
  904MOL0     C21910   0.772   1.459   8.569 -0.2995 -0.2990 -0.6605
  904MOL0     C21911   0.638   1.461   8.517  0.2391  0.5203 -0.5572
  904MOL0     C21912   0.604   1.537   8.405 -0.0056 -0.4548 -0.5218
  904MOL0     O21913   0.483   1.558   8.341 -0.3215 -0.0313  0.1493
  904MOL0     C21914   0.366   1.513   8.411  0.3453  0.5103  0.7093
  904MOL0     C21915   0.249   1.560   8.334 -0.1643 -0.1950  0.3254
  904MOL0     C21916   0.236   1.472   8.210  0.8205  0.8733 -1.2572
  904MOL0     C21917   0.094   1.501   8.153  0.4920 -0.0939 -0.2652
  904MOL0     C21918   0.060   1.440   8.018 -0.5615 -0.5220  0.1181
  904MOL0     C21919   0.135   1.510   7.901 -0.0730 -0.7121  0.2577
  904MOL0     C21920   0.130   1.661   7.891  0.0099 -0.1815  0.0108
  904MOL0     C21921  -0.018   1.699   7.896 -0.1536  0.1949 -0.6286
  904MOL0     N21922  -0.088   1.669   7.768  0.2837 -0.1608  0.3170
  904MOL0     C21923  -0.046   1.717   7.644  0.4752  0.0246  0.2438
  904MOL0     C21924  -0.154   1.685   7.564 -1.1522  0.3059  0.5871
  904MOL0     C21925  -0.191   1.753   7.429  0.7771  0.1963  1.0355
  904MOL0     C21926  -0.244   1.900   7.439  0.1374 -0.9190 -0.5664
  904MOL0     C21927  -0.351   1.914   7.547 -0.0195 -0.0194  0.5137
  904MOL0     C21928  -0.481   1.839   7.515 -0.3143 -0.2261  0.6944
  904MOL0     O21929  -0.589   1.882   7.600 -0.5086  0.3712 -0.0452
  904MOL0     C21930  -0.699   1.803   7.612 -0.6901 -0.1192 -0.0519
  904MOL0     C21931  -0.779   1.816   7.730  0.0383 -0.4025 -0.3736
  904MOL0     C21932  -0.897   1.742   7.746 -0.0217  0.0438 -0.0951
  904MOL0     C21933  -0.982   1.757   7.876 -0.0363 -0.0634 -0.0064
  904MOL0     C21934  -0.941   1.657   7.645 -0.3660  0.3035 -0.9041
  904MOL0     C21935  -1.072   1.566   7.654 -0.1437 -0.1664 -0.4514
  904MOL0     O21936  -1.129   1.531   7.536 -0.7486 -0.0811 -0.8532
  904MOL0     C21937  -1.253   1.468   7.519  0.3813 -0.2019  0.5034
  904MOL0     C21938  -1.361   1.484   7.608  0.1337  0.5455 -0.5444
  904MOL0     C21939  -1.490   1.447   7.569 -0.6454  0.6542  0.2482
  904MOL0     C21940  -1.509   1.391   7.444  0.7733  0.4545 -0.9772
  904MOL0     O21941  -1.628   1.342   7.420 -0.1002  0.0371 -0.0974
  904MOL0     C21942  -1.669   1.335   7.290 -0.0677 -0.1338 -0.1719
  904MOL0     C21943  -1.820   1.331   7.284  0.0095  0.4139  0.4092
  904MOL0     C21944  -1.878   1.242   7.396 -0.5859 -0.1084  0.9294
  904MOL0     C21945  -2.026   1.203   7.392  0.1628  0.6399  0.4831
  904MOL0     C21946  -2.106   1.320   7.348 -0.3959  0.0976  0.3672
  904MOL0     C21947  -2.251   1.269   7.336  0.2778 -0.5783  0.6861
  904MOL0     C21948  -2.343   1.371   7.270  0.1996  0.8095  0.0056
  904MOL0     C21949  -2.489   1.318   7.279  0.2521  0.5005  0.2355
  904MOL0    Cl21950  -2.610   1.457   7.245  0.0109 -0.1938  0.0026
  904MOL0     C21951  -1.400   1.369   7.354 -1.0882 -0.1718  0.4374
  904MOL0     C21952  -1.271   1.411   7.392 -1.3122  0.2224 -1.1166
  904MOL0     O21953  -1.113   1.529   7.767  0.2458  0.2805  0.1719
  904MOL0     C21954  -0.869   1.650   7.524 -0.2012  0.0129 -0.8354
  904MOL0     C21955  -0.752   1.723   7.512  0.4410 -0.4196  0.5152
  904MOL0     N21956  -0.245   1.609   7.633  0.0558  0.4385 -0.2291
  904MOL0     N21957  -0.202   1.606   7.759  0.0720  0.4888  0.0122
  904MOL0     C21958   0.710   1.613   8.357  0.6077 -0.0283  0.1156
  904MOL0     C21959   0.838   1.613   8.402  0.9357  0.1693  0.0001
  904MOL0     C21960   1.210   1.435   8.570  0.4358  0.5647  0.5879
  904MOL0     C21961   1.308   1.350   8.516 -1.0789  0.1470  0.1512
  904MOL0     C21962   1.438   1.352   8.559  0.3553 -0.7362  0.2836
  904MOL0     C21963   1.477   1.440   8.658 -0.4572 -0.2105 -0.2719
  904MOL0     O21964   1.604   1.453   8.700  0.0100  0.4211  0.5170
  904MOL0     C21965   1.711   1.368   8.657 -0.0385 -0.2090  0.2691
  904MOL0     C21966   1.799   1.347   8.773 -0.9470 -0.3743 -0.0060
  904MOL0     C21967   1.925   1.272   8.730  0.2877 -0.1693 -0.1962
  904MOL0     C21968   2.025   1.251   8.847 -0.1682  0.3850 -0.1079
  904MOL0     C21969   2.138   1.172   8.814 -0.8206 -0.2839  0.0418
  904MOL0     C21970   2.227   1.098   8.801 -0.1574  0.3269 -0.0336
  904MOL0     C21971   1.379   1.523   8.712  0.0641 -0.3136  0.3191
  904MOL0     C21972   1.252   1.516   8.668 -0.2662 -0.3954  0.6889
  904MOL0     H21973   0.786   1.400   8.659  0.8736 -0.4985 -0.9549
  904MOL0     H21974   0.557   1.405   8.561 -0.1799  3.4255  2.7689
  904MOL0     H21975   0.364   1.405   8.429 -1.2981  0.5868  1.1649
  904MOL0     H21976   0.361   1.552   8.513  0.6568 -0.5811  1.1594
  904MOL0     H21977   0.158   1.540   8.391 -2.6978  1.6784 -2.7519
  904MOL0     H21978   0.254   1.667   8.310 -0.1861 -0.7216 -2.3180
  904MOL0     H21979   0.314   1.502   8.140  2.0354  0.1412 -0.2611
  904MOL0     H21980   0.230   1.364   8.229 -2.1575  0.5647 -3.2674
  904MOL0     H21981   0.030   1.453   8.228  0.6717  0.2076  0.0873
  904MOL0     H21982   0.066   1.607   8.162 -0.3932 -0.2168 -1.3509
  904MOL0     H21983   0.090   1.335   8.018  2.0809  0.1457 -0.7011
  904MOL0     H21984  -0.047   1.452   7.997 -0.2025 -0.7330 -2.0103
  904MOL0     H21985   0.239   1.480   7.892 -0.4810 -1.6734 -2.1256
  904MOL0     H21986   0.085   1.474   7.810 -0.0196 -2.6236  0.9412
  904MOL0     H21987   0.183   1.709   7.974  3.3568 -0.5840 -1.7050
  904MOL0     H21988   0.178   1.694   7.799  0.9260  0.5827  0.7461
  904MOL0     H21989  -0.017   1.807   7.911 -2.3676  0.5814 -2.5865
  904MOL0     H21990  -0.068   1.644   7.976  3.7668 -3.3511 -0.2544
  904MOL0     H21991   0.041   1.779   7.621  1.3711 -1.3416 -0.1900
  904MOL0     H21992  -0.098   1.750   7.371  0.3258  0.9760  0.2531
  904MOL0     H21993  -0.268   1.698   7.374  2.2742  1.7544 -3.0368
  904MOL0     H21994  -0.276   1.947   7.346 -2.6662  0.7396  1.0789
  904MOL0     H21995  -0.160   1.962   7.471 -1.2180  2.0798 -2.3622
  904MOL0     H21996  -0.379   2.019   7.535  0.9583  0.1120 -0.8185
  904MOL0     H21997  -0.314   1.885   7.646 -0.7415  2.3976  1.5613
  904MOL0     H21998  -0.463   1.731   7.516 -1.2458 -0.4096  2.8633
  904MOL0     H21999  -0.510   1.868   7.413  0.6677 -1.4010  0.0601
  904MOL0     H22000  -0.754   1.881   7.813 -1.4201 -1.4533  0.9360
  904MOL0     H22001  -0.939   1.831   7.945  2.5123 -1.1248 -0.3224
  904MOL0     H22002  -1.084   1.773   7.841 -0.4198 -4.0437 -1.1876
  904MOL0     H22003  -0.973   1.660   7.925  2.1409 -0.6368 -1.3841
  904MOL0     H22004  -1.347   1.538   7.701  2.1414 -1.1351  0.2104
  904MOL0     H22005  -1.571   1.471   7.636 -0.6621 -0.7134  0.7346
  904MOL0     H22006  -1.634   1.420   7.232 -3.6518  0.1603 -2.1530
  904MOL0     H22007  -1.633   1.236   7.259  1.7641  0.3567  0.2557
  904MOL0     H22008  -1.863   1.431   7.289 -0.4689  0.2252  0.1443
  904MOL0     H22009  -1.848   1.291   7.186 -1.0486  1.5886  0.2074
  904MOL0     H22010  -1.862   1.281   7.497  0.7913  0.2256  0.6095
  904MOL0     H22011  -1.822   1.151   7.373  0.4369  1.3113 -3.0444
  904MOL0     H22012  -2.037   1.125   7.316  1.2258 -0.0336  0.9994
  904MOL0     H22013  -2.063   1.179   7.492 -0.2242  0.2392  0.2454
  904MOL0     H22014  -2.073   1.350   7.249  0.6416  2.4338  1.3470
  904MOL0     H22015  -2.102   1.408   7.413 -1.5600 -0.3994  1.1479
  904MOL0     H22016  -2.261   1.180   7.273 -0.3243 -0.2345  0.2874
  904MOL0     H22017  -2.291   1.242   7.434 -0.0020  0.5935  0.9110
  904MOL0     H22018  -2.310   1.381   7.166  0.9437 -1.2636  0.0111
  904MOL0     H22019  -2.340   1.469   7.319  2.3187  1.5876 -1.5151
  904MOL0     H22020  -2.499   1.276   7.380  3.0649  0.8920  0.7588
  904MOL0     H22021  -2.497   1.245   7.198  2.8881  2.1065 -1.6086
  904MOL0     H22022  -1.419   1.317   7.261 -1.1494  0.4498  0.1001
  904MOL0     H22023  -1.197   1.394   7.314  1.5695 -0.9107  1.6460
  904MOL0     H22024  -0.920   1.615   7.435 -1.8320 -0.4011  0.2176
  904MOL0     H22025  -0.703   1.720   7.415 -1.4678 -1.9921 -0.4728
  904MOL0     H22026   0.694   1.677   8.271 -1.2665 -0.0505  0.4101
  904MOL0     H22027   0.915   1.661   8.342  1.3133 -1.2559 -0.6967
  904MOL0     H22028   1.267   1.286   8.439  2.3965 -1.6214 -0.4236
  904MOL0     H22029   1.498   1.277   8.508 -2.3969 -1.0072 -2.9890
  904MOL0     H22030   1.675   1.269   8.628 -0.9980  0.7433 -2.0421
  904MOL0     H22031   1.763   1.414   8.573 -0.2955  1.7558  1.1396
  904MOL0     H22032   1.752   1.309   8.864  0.0602 -0.5931  0.4454
  904MOL0     H22033   1.831   1.446   8.810 -1.1200 -0.4111  0.2423
  904MOL0     H22034   1.978   1.332   8.655  0.7272 -2.4301 -1.7760
  904MOL0     H22035   1.897   1.175   8.688  0.6683 -0.8106  0.9802
  904MOL0     H22036   1.981   1.197   8.931  1.6255  1.1019  1.3777
  904MOL0     H22037   2.062   1.348   8.881 -0.3122 -0.2410  1.9785
  904MOL0     H22038   2.315   1.038   8.788 -0.8248 -0.3218 -1.9010
  904MOL0     H22039   1.400   1.591   8.795 -1.0023 -0.0510  0.3763
  904MOL0     H22040   1.185   1.590   8.711  2.3044  3.0327 -0.6967
  905MOL0     O22041   4.379   6.693   1.612 -1.0515  0.2686  0.0092
  905MOL0     C22042   4.385   6.814   1.621 -0.3315 -0.6873 -0.3630
  905MOL0     O22043   4.279   6.894   1.661 -0.8199 -0.0485  0.3078
  905MOL0     C22044   4.149   6.845   1.670  0.0353 -0.0725  0.2745
  905MOL0     C22045   4.049   6.907   1.594  0.1886  0.4378 -0.5200
  905MOL0     C22046   3.914   6.872   1.611 -1.3132 -0.3062  0.4454
  905MOL0     C22047   3.880   6.759   1.693 -0.4484 -0.4946 -0.5561
  905MOL0     O22048   3.756   6.710   1.726  0.3956 -0.4026  0.1148
  905MOL0     C22049   3.637   6.794   1.701 -0.4629  0.2078 -0.5848
  905MOL0     C22050   3.547   6.734   1.798  0.2841  0.1173  0.2552
  905MOL0     C22051   3.410   6.794   1.788 -0.2256 -0.8212  0.3855
  905MOL0     C22052   3.393   6.949   1.816  0.1156 -0.0022  0.3354
  905MOL0     C22053   3.246   6.997   1.800  0.3596 -0.0988  0.0794
  905MOL0     C22054   3.161   6.961   1.927 -0.8549  0.3942 -0.0893
  905MOL0     C22055   3.019   7.019   1.934  0.3225 -1.0140 -0.1537
  905MOL0     C22056   3.034   7.171   1.955  1.5094 -1.2142  0.0901
  905MOL0     N22057   2.906   7.247   1.955  0.0096  0.4891  0.0804
  905MOL0     C22058   2.787   7.200   1.996  0.0118  0.0072 -0.1956
  905MOL0     C22059   2.701   7.306   1.990 -0.1780 -0.7195 -0.6239
  905MOL0     C22060   2.556   7.317   2.032 -0.2611 -0.7020 -0.0945
  905MOL0     C22061   2.483   7.418   1.939 -0.3940 -0.2412  0.1553
  905MOL0     C22062   2.338   7.429   1.981  0.3830 -1.2873  1.4627
  905MOL0     C22063   2.263   7.537   1.894 -0.0011  0.1909 -0.6776
  905MOL0     O22064   2.139   7.569   1.960 -0.0592  0.3777 -0.6055
  905MOL0     C22065   2.045   7.656   1.896 -0.4873  0.3539  0.7791
  905MOL0     C22066   2.036   7.664   1.745  0.2849 -0.3584 -1.0684
  905MOL0     C22067   1.939   7.751   1.689  0.3354 -0.5981  0.3068
  905MOL0     C22068   1.958   7.791   1.542  0.5417  0.0601 -0.3163
  905MOL0     C22069   1.846   7.823   1.771  0.0018  0.4437  0.5580
  905MOL0     C22070   1.728   7.893   1.710  0.0054  0.2405  0.0569
  905MOL0     O22071   1.691   8.012   1.772 -0.0049  0.2164  0.3488
  905MOL0     C22072   1.593   8.077   1.702  0.3056  0.3366 -0.4917
  905MOL0     C22073   1.634   8.134   1.586  0.1295 -0.0582 -0.0092
  905MOL0     C22074   1.537   8.212   1.520 -0.3555 -0.6716 -0.3370
  905MOL0     C22075   1.407   8.223   1.559  0.5831  0.3360 -0.2064
  905MOL0     O22076   1.318   8.319   1.521 -0.1717 -0.8071 -0.0161
  905MOL0     C22077   1.308   8.351   1.384  0.2593  0.7608  1.2192
  905MOL0     C22078   1.188   8.443   1.350 -0.5627  0.3679 -0.0465
  905MOL0     C22079   1.063   8.359   1.365 -0.6622 -0.2150  0.3284
  905MOL0     C22080   0.950   8.453   1.338 -0.7528 -0.7581  0.5151
  905MOL0     C22081   0.819   8.385   1.313 -0.5018 -0.2921 -0.4320
  905MOL0     C22082   0.705   8.479   1.274 -0.6667  0.9249  0.5062
  905MOL0     C22083   0.575   8.404   1.237  0.1620 -0.4629 -0.1471
  905MOL0     C22084   0.452   8.476   1.291  0.2068 -0.1531 -0.5617
  905MOL0    Cl22085   0.425   8.641   1.221 -0.1878 -0.4164  0.3069
  905MOL0     C22086   1.361   8.153   1.671 -0.0136 -0.1742 -0.5068
  905MOL0     C22087   1.455   8.087   1.749  0.7575  0.0456  0.0921
  905MOL0     O22088   1.670   7.837   1.618  0.4223 -0.4524  0.3132
  905MOL0     C22089   1.866   7.825   1.910 -0.4930 -0.3609 -0.2272
  905MOL0     C22090   1.963   7.743   1.975 -0.0658 -0.7018 -0.1625
  905MOL0     N22091   2.776   7.413   1.945  0.5439 -0.9338  0.6879
  905MOL0     N22092   2.899   7.380   1.935 -0.7264 -0.0010  0.2375
  905MOL0     C22093   3.984   6.703   1.774 -0.4429  0.6386  0.5258
  905MOL0     C22094   4.117   6.750   1.766 -0.4084  0.4475 -0.9592
  905MOL0     C22095   4.518   6.879   1.592 -0.1602 -0.5441  0.8154
  905MOL0     C22096   4.626   6.814   1.525  0.1222  0.0538  0.2160
  905MOL0     C22097   4.748   6.874   1.514 -0.0807 -0.2653 -1.1237
  905MOL0     C22098   4.776   6.998   1.567  0.9035 -0.0343 -0.9987
  905MOL0     O22099   4.899   7.047   1.553  0.1453  0.2059 -0.1350
  905MOL0     C22100   4.926   7.181   1.586  0.7623  0.0341 -0.3365
  905MOL0     C22101   5.067   7.199   1.535 -0.4410 -0.1271  0.0237
  905MOL0     C22102   5.174   7.100   1.598  0.1952  0.0031  0.0302
  905MOL0     C22103   5.315   7.141   1.549  0.1028  0.7106 -0.4191
  905MOL0     C22104   5.336   7.116   1.410  0.1536 -0.5114 -0.1379
  905MOL0     C22105   5.361   7.104   1.292 -0.7412 -0.9536  0.2596
  905MOL0     C22106   4.665   7.059   1.632 -0.1859 -0.3818  0.1068
  905MOL0     C22107   4.539   7.008   1.640  0.8665  0.1504 -0.8437
  905MOL0     H22108   4.082   6.987   1.527 -2.0270  0.7263 -1.3380
  905MOL0     H22109   3.839   6.931   1.558 -0.8858 -0.7418 -0.6843
  905MOL0     H22110   3.654   6.898   1.732  1.0021 -1.1117  3.6891
  905MOL0     H22111   3.594   6.786   1.601 -1.2333  3.3524 -0.6300
  905MOL0     H22112   3.537   6.626   1.781 -0.7920  0.4612 -1.4930
  905MOL0     H22113   3.592   6.756   1.895  2.7616  0.5584 -0.9179
  905MOL0     H22114   3.359   6.768   1.695 -0.2531 -2.4119  0.8142
  905MOL0     H22115   3.355   6.746   1.871  0.8970 -2.2043  0.3652
  905MOL0     H22116   3.440   6.966   1.914 -2.3448 -1.5250  1.9023
  905MOL0     H22117   3.442   7.007   1.737 -0.8156  1.0615  0.5120
  905MOL0     H22118   3.253   7.105   1.786 -0.1828  0.0314  0.7708
  905MOL0     H22119   3.207   6.956   1.706  1.1640  0.2471 -0.4193
  905MOL0     H22120   3.163   6.852   1.925  0.7995  0.3019  2.6290
  905MOL0     H22121   3.203   6.997   2.021 -1.1774  1.3820 -0.3028
  905MOL0     H22122   2.963   7.012   1.840 -1.2635  1.5024  0.5053
  905MOL0     H22123   2.956   6.975   2.012  2.2268 -2.9654  0.3804
  905MOL0     H22124   3.087   7.208   1.867  0.1110  0.5493 -0.0662
  905MOL0     H22125   3.090   7.192   2.046  1.6362 -0.2701 -0.1905
  905MOL0     H22126   2.768   7.096   2.019  1.6959 -0.6575 -1.6150
  905MOL0     H22127   2.520   7.214   2.028  0.7867 -1.1252  0.8476
  905MOL0     H22128   2.559   7.342   2.139  1.4586 -1.6605  0.1117
  905MOL0     H22129   2.495   7.390   1.833  1.0729  0.3715  0.1383
  905MOL0     H22130   2.525   7.518   1.947 -1.2783  0.0840  0.8301
  905MOL0     H22131   2.329   7.467   2.083 -1.2452 -1.3090  1.3468
  905MOL0     H22132   2.280   7.336   1.984 -0.6845 -0.6116  2.4266
  905MOL0     H22133   2.233   7.488   1.801 -1.2603  1.1788 -0.8097
  905MOL0     H22134   2.324   7.627   1.879  0.0026  0.0302 -1.7133
  905MOL0     H22135   2.111   7.620   1.680  2.2996 -0.6856  1.3341
  905MOL0     H22136   1.897   7.731   1.473 -1.5106 -1.7689  2.8156
  905MOL0     H22137   1.928   7.895   1.532  1.1533  0.1948 -0.8771
  905MOL0     H22138   2.060   7.780   1.503 -0.9941 -0.7178 -4.6610
  905MOL0     H22139   1.739   8.130   1.559 -0.1706  2.2309 -1.7795
  905MOL0     H22140   1.578   8.274   1.441  1.8792 -0.2200  1.0792
  905MOL0     H22141   1.401   8.401   1.352  0.8747 -1.7086 -1.2658
  905MOL0     H22142   1.293   8.270   1.312 -0.6811  2.5836 -0.7768
  905MOL0     H22143   1.191   8.525   1.422  0.6233  1.2518 -1.0661
  905MOL0     H22144   1.203   8.468   1.244  1.9950 -0.4815  0.0492
  905MOL0     H22145   1.055   8.314   1.464  2.5828 -0.6306  0.5125
  905MOL0     H22146   1.074   8.277   1.294  1.3101 -1.3431  1.8314
  905MOL0     H22147   0.942   8.517   1.427  1.4967 -1.8722  1.6006
  905MOL0     H22148   0.974   8.514   1.251  0.0483  0.1332  1.3452
  905MOL0     H22149   0.797   8.328   1.403  1.0614 -2.2658 -1.2321
  905MOL0     H22150   0.831   8.327   1.221  0.0077 -0.4518 -0.2662
  905MOL0     H22151   0.689   8.550   1.355  2.7405  2.2507  0.1644
  905MOL0     H22152   0.737   8.536   1.186  0.5384  0.2098  0.4695
  905MOL0     H22153   0.577   8.303   1.280 -1.5753  0.0862  1.3717
  905MOL0     H22154   0.569   8.396   1.128  0.9448  0.7325 -0.2959
  905MOL0     H22155   0.472   8.472   1.398  0.5082  0.8785 -0.5642
  905MOL0     H22156   0.364   8.413   1.283 -0.9177  1.2066  0.5427
  905MOL0     H22157   1.267   8.181   1.718  1.8569  0.8666  2.9625
  905MOL0     H22158   1.424   8.032   1.837 -0.8424  1.4857  0.4794
  905MOL0     H22159   1.795   7.862   1.984 -0.3900 -0.0141 -0.3025
  905MOL0     H22160   1.972   7.745   2.083 -0.4311  2.5118 -0.0949
  905MOL0     H22161   3.973   6.620   1.844 -2.1219 -0.7432 -1.2799
  905MOL0     H22162   4.193   6.699   1.826 -1.4297 -0.8454 -0.7278
  905MOL0     H22163   4.608   6.713   1.489 -1.3772  0.3064  0.1896
  905MOL0     H22164   4.823   6.816   1.461  0.4218 -1.1083  0.4311
  905MOL0     H22165   4.851   7.244   1.538 -0.6343 -0.3394  1.2544
  905MOL0     H22166   4.918   7.194   1.694  1.1327 -1.0928 -0.1506
  905MOL0     H22167   5.097   7.302   1.560  1.8843 -0.4802 -1.0185
  905MOL0     H22168   5.071   7.189   1.426  2.7081  2.5021 -0.2731
  905MOL0     H22169   5.156   7.002   1.552 -0.4839  1.0359 -2.0429
  905MOL0     H22170   5.158   7.110   1.705 -0.9355  2.5059 -0.2925
  905MOL0     H22171   5.389   7.090   1.611 -0.7090 -1.8975 -1.4672
  905MOL0     H22172   5.339   7.245   1.576  1.1884 -0.2245  2.5730
  905MOL0     H22173   5.379   7.099   1.186  0.3568  3.0334  0.0935
  905MOL0     H22174   4.689   7.145   1.694  3.4024 -0.7751 -0.4987
  905MOL0     H22175   4.467   7.071   1.692  2.7149  0.2018  1.8583
  906MOL0     O22176   3.117  11.046   0.207 -0.0250  0.5916 -0.0316
  906MOL0     C22177   3.227  11.097   0.187  0.2201 -0.7590  0.1862
  906MOL0     O22178   3.242  11.220   0.116 -0.2688 -0.1780  0.0593
  906MOL0     C22179   3.136  11.277   0.055 -0.3752  0.3395 -0.4824
  906MOL0     C22180   3.013  11.314   0.124 -0.2406 -0.1022  0.6781
  906MOL0     C22181   2.915  11.382   0.042 -0.8389  0.0792 -0.0960
  906MOL0     C22182   2.935  11.409  -0.094  0.1240  0.3401 -0.0823
  906MOL0     O22183   2.847  11.484  -0.168 -1.1641 -0.1986 -0.1414
  906MOL0     C22184   2.714  11.514  -0.123 -0.0042  0.5180  0.7537
  906MOL0     C22185   2.637  11.592  -0.231 -0.9149 -0.7172  0.7008
  906MOL0     C22186   2.687  11.723  -0.278 -0.4492  0.0826 -0.1499
  906MOL0     C22187   2.572  11.787  -0.352 -0.1759  0.6795 -0.2588
  906MOL0     C22188   2.618  11.906  -0.441  0.6864 -0.2663 -0.1170
  906MOL0     C22189   2.678  12.025  -0.371  0.4572 -0.2254  0.7499
  906MOL0     C22190   2.586  12.086  -0.254 -0.5089  0.8005  0.1701
  906MOL0     C22191   2.660  12.206  -0.196 -0.7844 -0.0933 -0.5061
  906MOL0     N22192   2.581  12.306  -0.125 -0.0910  0.0326  0.0288
  906MOL0     C22193   2.476  12.298  -0.039 -0.1787  0.6914 -0.2231
  906MOL0     C22194   2.437  12.423  -0.026  0.5660  0.3190  0.2651
  906MOL0     C22195   2.323  12.471   0.069 -0.3466 -0.5371  0.3622
  906MOL0     C22196   2.176  12.430   0.026  0.4876  0.8331  0.5371
  906MOL0     C22197   2.081  12.458   0.143 -1.2686  0.1822 -0.0398
  906MOL0     C22198   1.942  12.412   0.116 -0.3763  0.4008 -0.5432
  906MOL0     O22199   1.872  12.481   0.008 -0.1201 -0.2188 -0.4908
  906MOL0     C22200   1.736  12.453  -0.007 -0.0343 -0.5040  0.3715
  906MOL0     C22201   1.657  12.543  -0.066 -0.3331 -1.5363 -0.1016
  906MOL0     C22202   1.517  12.537  -0.073 -0.2269  1.0509  0.0948
  906MOL0     C22203   1.441  12.662  -0.133  0.2379  0.0604  0.6154
  906MOL0     C22204   1.454  12.415  -0.035  0.0312  0.2415  0.1646
  906MOL0     C22205   1.305  12.397  -0.053 -0.9807  0.4076 -0.5013
  906MOL0     O22206   1.225  12.476  -0.130 -0.0586  0.0002 -0.2412
  906MOL0     C22207   1.090  12.443  -0.142  0.1513  0.2537 -0.4534
  906MOL0     C22208   0.994  12.546  -0.130  0.0497  0.2394 -0.3262
  906MOL0     C22209   0.854  12.528  -0.152 -0.2274  0.1484  0.1249
  906MOL0     C22210   0.805  12.402  -0.194  0.1641 -0.0312 -0.9259
  906MOL0     O22211   0.676  12.388  -0.218  0.1190  0.6115 -0.1473
  906MOL0     C22212   0.616  12.251  -0.213 -0.3683 -0.4835  0.0704
  906MOL0     C22213   0.475  12.254  -0.196 -0.1452  0.6068 -0.5943
  906MOL0     C22214   0.393  12.324  -0.309  0.7224  0.3299  0.0210
  906MOL0     C22215   0.253  12.365  -0.263 -0.2539 -0.2285  0.0394
  906MOL0     C22216   0.266  12.485  -0.172  0.2322  0.4613  0.1128
  906MOL0     C22217   0.319  12.611  -0.231 -0.4842 -0.4874  0.8089
  906MOL0     C22218   0.300  12.731  -0.139 -0.4372 -0.4623  0.1134
  906MOL0     C22219   0.388  12.725  -0.017  1.3940 -0.9965  0.2480
  906MOL0    Cl22220   0.557  12.723  -0.057  0.0559 -0.0235 -0.0493
  906MOL0     C22221   0.903  12.293  -0.206  0.1066 -0.4149  0.0573
  906MOL0     C22222   1.039  12.320  -0.184 -0.3780  0.1790  0.5929
  906MOL0     O22223   1.264  12.300   0.013  0.1091  0.0599  0.2986
  906MOL0     C22224   1.535  12.317   0.019  0.0810  0.1844 -0.6314
  906MOL0     C22225   1.668  12.344   0.055 -0.0303  0.9474 -0.0449
  906MOL0     N22226   2.509  12.511  -0.106 -0.0413  0.5686 -0.5286
  906MOL0     N22227   2.593  12.435  -0.163 -0.7101  0.1496  0.7432
  906MOL0     C22228   3.049  11.376  -0.152 -0.2317  0.3627 -0.5791
  906MOL0     C22229   3.148  11.303  -0.080 -0.0666 -0.5899 -0.1849
  906MOL0     C22230   3.349  11.033   0.236 -0.3489  0.5113  0.5273
  906MOL0     C22231   3.361  10.891   0.264  0.4617  0.4297  0.7514
  906MOL0     C22232   3.490  10.841   0.295 -0.0023 -0.3405 -0.3291
  906MOL0     C22233   3.602  10.927   0.311  0.5225 -0.0714 -0.4523
  906MOL0     O22234   3.730  10.881   0.327 -0.4561 -0.0079 -0.2351
  906MOL0     C22235   3.756  10.742   0.351  0.6604 -0.2547  0.7828
  906MOL0     C22236   3.902  10.718   0.335 -0.1907  1.2487  0.1798
  906MOL0     C22237   3.980  10.789   0.446 -0.0040 -0.1674 -0.0810
  906MOL0     C22238   4.130  10.773   0.415  0.1632  0.2713  0.7238
  906MOL0     C22239   4.206  10.847   0.519  0.2189  0.0377  0.0825
  906MOL0     C22240   4.266  10.906   0.613 -0.0549 -0.0066  0.3913
  906MOL0     C22241   3.587  11.056   0.285 -0.0869 -0.7663 -0.1919
  906MOL0     C22242   3.467  11.110   0.246  0.2447 -1.2316 -0.5533
  906MOL0     H22243   2.980  11.284   0.223 -2.5214  1.3785  0.4496
  906MOL0     H22244   2.832  11.419   0.102 -0.3409  2.6236 -0.8658
  906MOL0     H22245   2.666  11.426  -0.080 -0.0704  0.6964  1.0407
  906MOL0     H22246   2.730  11.583  -0.040  2.0660 -0.1040  0.9241
  906MOL0     H22247   2.610  11.533  -0.319  0.2947 -1.5031  0.8370
  906MOL0     H22248   2.542  11.627  -0.189 -2.0265  1.1127 -2.9488
  906MOL0     H22249   2.722  11.777  -0.189 -2.4641 -2.5878  2.4548
  906MOL0     H22250   2.777  11.716  -0.340  1.9193 -0.3803  3.0437
  906MOL0     H22251   2.529  11.710  -0.417 -3.0386  2.9534 -1.2813
  906MOL0     H22252   2.489  11.816  -0.287  1.8537  0.5627  2.5894
  906MOL0     H22253   2.681  11.856  -0.515  1.1468 -1.9473  1.3233
  906MOL0     H22254   2.538  11.944  -0.506  0.7499 -0.0405 -0.0622
  906MOL0     H22255   2.768  11.984  -0.324  1.6264  2.6378  1.1985
  906MOL0     H22256   2.700  12.100  -0.447 -2.8880 -0.4025 -0.5510
  906MOL0     H22257   2.487  12.106  -0.296  0.8545  0.6737 -3.4431
  906MOL0     H22258   2.590  12.007  -0.178 -2.1651  2.3702  2.0207
  906MOL0     H22259   2.718  12.248  -0.279 -1.5217 -1.2342 -1.6422
  906MOL0     H22260   2.726  12.160  -0.121 -3.2497 -3.1685  0.0018
  906MOL0     H22261   2.439  12.212   0.015 -0.7568  1.4253  0.5817
  906MOL0     H22262   2.336  12.418   0.164  0.4077 -0.4408  0.3224
  906MOL0     H22263   2.326  12.580   0.079 -0.6482 -0.4976  0.0236
  906MOL0     H22264   2.161  12.325   0.000  1.3507 -0.0651  3.4317
  906MOL0     H22265   2.145  12.487  -0.063  2.2442 -0.0444 -0.6835
  906MOL0     H22266   2.068  12.566   0.159 -2.3791  0.3137 -1.5470
  906MOL0     H22267   2.121  12.403   0.228  0.8920  0.4657 -0.7890
  906MOL0     H22268   1.893  12.433   0.211 -1.9694 -2.4628 -0.6244
  906MOL0     H22269   1.945  12.305   0.094  4.2788  0.5132 -1.4400
  906MOL0     H22270   1.705  12.629  -0.113 -0.0625 -0.3330  2.2395
  906MOL0     H22271   1.360  12.692  -0.065 -0.5017  0.4725 -0.4320
  906MOL0     H22272   1.505  12.750  -0.140 -0.3552  0.8640  3.6774
  906MOL0     H22273   1.402  12.629  -0.229  1.6156  1.1646 -0.3542
  906MOL0     H22274   1.038  12.637  -0.090  1.0225 -0.6771  0.7810
  906MOL0     H22275   0.778  12.604  -0.135 -0.7423 -0.5982  1.2804
  906MOL0     H22276   0.635  12.191  -0.303 -1.6248 -4.1709  2.0447
  906MOL0     H22277   0.660  12.196  -0.130 -1.7241 -2.1312 -0.2576
  906MOL0     H22278   0.445  12.150  -0.183  2.1398 -0.0144  0.1784
  906MOL0     H22279   0.453  12.301  -0.099 -0.8592  1.4405 -1.1411
  906MOL0     H22280   0.389  12.248  -0.387 -0.6620  0.9202 -0.5178
  906MOL0     H22281   0.455  12.403  -0.353 -0.2780 -2.0313 -6.7310
  906MOL0     H22282   0.199  12.393  -0.354 -0.2670  2.0934  0.6937
  906MOL0     H22283   0.211  12.275  -0.217 -0.2184 -1.1005 -1.5587
  906MOL0     H22284   0.332  12.471  -0.086 -0.4742  3.2987  1.2182
  906MOL0     H22285   0.168  12.506  -0.129  0.2224 -1.4573  1.1634
  906MOL0     H22286   0.424  12.611  -0.262 -0.7102  1.0943 -0.0917
  906MOL0     H22287   0.264  12.625  -0.325 -0.6972  0.4661  1.0616
  906MOL0     H22288   0.196  12.739  -0.108 -0.2322 -1.2366  1.0442
  906MOL0     H22289   0.336  12.823  -0.188  1.2351 -1.0465  0.1658
  906MOL0     H22290   0.347  12.645   0.046 -0.1496  0.0982  0.7098
  906MOL0     H22291   0.358  12.815   0.038 -1.8679 -0.9397 -1.3559
  906MOL0     H22292   0.879  12.190  -0.231  1.2996 -0.0408 -3.1512
  906MOL0     H22293   1.119  12.249  -0.201  0.3477  1.2809 -0.9080
  906MOL0     H22294   1.496  12.224   0.061 -0.5751  0.5627 -0.3859
  906MOL0     H22295   1.721  12.275   0.119  1.7103  2.7877  0.5979
  906MOL0     H22296   3.065  11.397  -0.257 -0.5122 -1.0213 -0.9175
  906MOL0     H22297   3.243  11.277  -0.124  0.1151  0.0209 -0.1711
  906MOL0     H22298   3.280  10.820   0.261  0.6490  0.2479 -1.1530
  906MOL0     H22299   3.497  10.734   0.304 -0.6653 -0.3941 -0.4131
  906MOL0     H22300   3.724  10.710   0.451 -0.6717 -0.1396  0.4120
  906MOL0     H22301   3.708  10.679   0.276  0.1905  0.1548  0.7290
  906MOL0     H22302   3.940  10.757   0.240 -1.6052  0.8520 -0.5768
  906MOL0     H22303   3.921  10.611   0.344 -0.4028  1.3660  2.9308
  906MOL0     H22304   3.948  10.749   0.543 -1.1990  1.7076  0.3449
  906MOL0     H22305   3.957  10.896   0.448 -0.2882 -0.2284  0.0641
  906MOL0     H22306   4.159  10.824   0.322 -0.2447 -1.7592 -0.5868
  906MOL0     H22307   4.155  10.667   0.407  1.9542  0.7695 -1.6450
  906MOL0     H22308   4.317  10.966   0.685 -1.2092  0.1752  1.0753
  906MOL0     H22309   3.678  11.116   0.289 -0.2580 -0.4851 -0.4379
  906MOL0     H22310   3.455  11.217   0.229 -1.0294 -1.0312  1.2827
  907MOL0     O22311   1.924   9.827   5.406  0.8792 -0.2664 -0.0128
  907MOL0     C22312   1.935   9.905   5.305  0.2488  0.3343 -0.0056
  907MOL0     O22313   1.828   9.945   5.231 -0.6694  0.2222  0.4539
  907MOL0     C22314   1.697   9.903   5.246  0.6490 -0.0455 -0.8073
  907MOL0     C22315   1.633   9.895   5.374  0.0082  0.5583 -0.5930
  907MOL0     C22316   1.496   9.848   5.377  0.4623 -0.3926 -0.5052
  907MOL0     C22317   1.420   9.835   5.260  0.3227  0.5821  0.2806
  907MOL0     O22318   1.283   9.809   5.258 -0.0264 -0.3402 -0.0728
  907MOL0     C22319   1.228   9.738   5.365 -0.2560  0.1348  0.3039
  907MOL0     C22320   1.084   9.694   5.342 -0.7228 -0.3937  0.2967
  907MOL0     C22321   0.982   9.812   5.337  0.6191  0.0761  0.2724
  907MOL0     C22322   0.849   9.745   5.307  0.5143  0.2687 -0.0077
  907MOL0     C22323   0.743   9.858   5.280  0.4693 -0.2981  0.0153
  907MOL0     C22324   0.616   9.811   5.207  0.3901  0.3521 -0.1134
  907MOL0     C22325   0.531   9.720   5.305  0.6712 -0.8601  0.4078
  907MOL0     C22326   0.418   9.644   5.248 -0.1301  0.2615  0.4582
  907MOL0     N22327   0.328   9.739   5.175  0.2414 -0.3608 -0.7364
  907MOL0     C22328   0.334   9.765   5.041 -0.0216 -0.0419  0.1185
  907MOL0     C22329   0.243   9.868   5.018  0.0874  1.0971 -0.3879
  907MOL0     C22330   0.231   9.929   4.882 -0.4249  0.1306  0.0626
  907MOL0     C22331   0.166   9.846   4.767  0.1774 -0.0860 -0.4179
  907MOL0     C22332   0.020   9.813   4.792  0.1891  0.3840 -0.4701
  907MOL0     C22333  -0.070   9.913   4.859  0.4389 -0.2738  0.1981
  907MOL0     O22334  -0.204   9.854   4.859 -0.4801  0.0712 -0.2564
  907MOL0     C22335  -0.310   9.923   4.904 -0.1515  0.1258 -0.5603
  907MOL0     C22336  -0.312  10.065   4.906 -0.5091  0.3225 -0.2703
  907MOL0     C22337  -0.427  10.141   4.925  0.1456 -0.1897 -0.0039
  907MOL0     C22338  -0.408  10.290   4.936  0.8659  0.5266  0.1446
  907MOL0     C22339  -0.544  10.064   4.957 -0.2799 -0.4882  0.0586
  907MOL0     C22340  -0.677  10.132   4.986 -0.0322  0.9836  0.1583
  907MOL0     O22341  -0.784  10.060   5.026 -0.3302 -0.3715 -0.2859
  907MOL0     C22342  -0.907  10.120   5.005  0.7888  0.7321  0.4221
  907MOL0     C22343  -0.966  10.172   5.118  0.4818 -1.5040  0.3226
  907MOL0     C22344  -1.093  10.225   5.102 -0.5158  0.0977 -0.2986
  907MOL0     C22345  -1.170  10.209   4.985  1.0364  0.3798 -0.1499
  907MOL0     O22346  -1.300  10.254   4.972  0.6575  1.0214 -0.2080
  907MOL0     C22347  -1.393  10.145   5.011 -0.8289  0.1237 -0.0116
  907MOL0     C22348  -1.527  10.179   4.963 -0.1684 -0.5350 -0.5752
  907MOL0     C22349  -1.625  10.103   5.042  0.5573 -0.9333 -0.5437
  907MOL0     C22350  -1.764  10.170   5.018  0.9290  0.8913 -0.0619
  907MOL0     C22351  -1.879  10.090   5.074 -0.9936  0.7969 -0.2521
  907MOL0     C22352  -2.016  10.148   5.051 -0.5676 -0.1108 -0.1782
  907MOL0     C22353  -2.029  10.287   5.115 -0.2126 -0.7265  0.1658
  907MOL0     C22354  -2.173  10.338   5.094 -1.0699 -0.2880  0.6637
  907MOL0    Cl22355  -2.291  10.252   5.197  0.4060  0.2634  0.4587
  907MOL0     C22356  -1.109  10.148   4.878  0.1009 -0.5169  0.8693
  907MOL0     C22357  -0.976  10.112   4.883 -0.0032 -0.3507  0.1322
  907MOL0     O22358  -0.684  10.255   4.973  0.1352 -0.3160  0.2689
  907MOL0     C22359  -0.548   9.924   4.944 -0.2119 -0.0809  0.2350
  907MOL0     C22360  -0.426   9.850   4.913 -0.3003  0.4948 -0.4288
  907MOL0     N22361   0.165   9.888   5.137 -0.9228 -0.3235  0.2565
  907MOL0     N22362   0.226   9.812   5.225 -0.0325 -0.2541 -0.3782
  907MOL0     C22363   1.490   9.843   5.137  0.4214  0.7371 -0.7455
  907MOL0     C22364   1.622   9.877   5.132 -0.7170  0.1757 -0.9500
  907MOL0     C22365   2.066   9.936   5.260 -0.0064  0.1141 -0.1009
  907MOL0     C22366   2.102   9.952   5.125  0.5829 -0.3582  0.6675
  907MOL0     C22367   2.231   9.987   5.094  1.2122 -0.2963 -0.5420
  907MOL0     C22368   2.334   9.985   5.192  0.6224 -0.7129  0.5943
  907MOL0     O22369   2.469  10.001   5.159 -0.0335 -0.4840  0.1185
  907MOL0     C22370   2.513  10.067   5.039 -0.1393 -0.3710  0.1342
  907MOL0     C22371   2.660  10.128   5.032 -0.9769 -0.8060 -0.2247
  907MOL0     C22372   2.695  10.215   4.912 -0.6739  0.2225 -0.8379
  907MOL0     C22373   2.845  10.197   4.872  0.0900 -0.2649  1.1492
  907MOL0     C22374   2.869  10.075   4.796  0.3488 -0.2613 -0.4287
  907MOL0     C22375   2.903   9.969   4.748 -0.3146 -0.3882  0.7608
  907MOL0     C22376   2.304   9.960   5.320  0.2211  0.7065 -0.5632
  907MOL0     C22377   2.173   9.953   5.354  0.3103  0.0136 -0.4885
  907MOL0     H22378   1.677   9.917   5.470  3.5881 -2.8565 -1.1482
  907MOL0     H22379   1.435   9.829   5.465 -1.1339 -0.4057 -1.5534
  907MOL0     H22380   1.282   9.643   5.374 -1.2230 -0.4276  0.2365
  907MOL0     H22381   1.245   9.792   5.458  0.2352  0.1257  0.2225
  907MOL0     H22382   1.070   9.626   5.258 -0.1290  2.5563 -2.3711
  907MOL0     H22383   1.052   9.643   5.433 -0.8824 -2.0499 -0.6558
  907MOL0     H22384   0.979   9.866   5.433 -0.8222  0.8800 -0.1954
  907MOL0     H22385   1.005   9.883   5.257 -2.1585  2.2643  1.2381
  907MOL0     H22386   0.859   9.678   5.221 -1.3759 -2.6874  1.9130
  907MOL0     H22387   0.820   9.677   5.388  1.2889 -1.1156 -0.8540
  907MOL0     H22388   0.720   9.911   5.373  1.3785  0.2230 -0.0499
  907MOL0     H22389   0.791   9.926   5.209 -0.9210  1.1048  0.3553
  907MOL0     H22390   0.563   9.905   5.186  0.9568  0.7896  0.3718
  907MOL0     H22391   0.642   9.752   5.119 -1.7287  1.5813 -1.6614
  907MOL0     H22392   0.597   9.650   5.356  1.8435  1.6788  2.6457
  907MOL0     H22393   0.495   9.785   5.385 -1.0823 -1.2881  0.0027
  907MOL0     H22394   0.359   9.596   5.327  2.2059 -0.4532  1.8581
  907MOL0     H22395   0.460   9.570   5.179  1.3866 -0.2836  1.9067
  907MOL0     H22396   0.402   9.722   4.969 -0.7905  1.4819 -1.5814
  907MOL0     H22397   0.164  10.014   4.899 -1.5064 -1.0801  2.3965
  907MOL0     H22398   0.329   9.970   4.854 -2.0762  3.8817 -0.9179
  907MOL0     H22399   0.215   9.748   4.758  1.0922  0.4292 -1.4537
  907MOL0     H22400   0.188   9.891   4.669  1.1855  0.1421 -0.1071
  907MOL0     H22401   0.014   9.724   4.856 -1.6673 -0.1754 -1.3402
  907MOL0     H22402  -0.029   9.782   4.699 -0.4131  0.3029 -0.1306
  907MOL0     H22403  -0.059  10.002   4.798  2.3705  0.1766  1.1235
  907MOL0     H22404  -0.034   9.939   4.959 -1.3371  2.9547  0.1354
  907MOL0     H22405  -0.229  10.125   4.871 -0.7115  0.0179 -1.3046
  907MOL0     H22406  -0.481  10.335   4.869 -1.7509 -0.9526  1.8290
  907MOL0     H22407  -0.424  10.330   5.037  2.1362 -0.5568  0.8117
  907MOL0     H22408  -0.306  10.322   4.912  1.5976 -0.1857  2.1430
  907MOL0     H22409  -0.910  10.179   5.211  2.1348 -0.3762 -0.7185
  907MOL0     H22410  -1.143  10.273   5.186  1.6946  2.2770 -0.1005
  907MOL0     H22411  -1.368  10.046   4.973 -1.3827 -0.0615  0.1070
  907MOL0     H22412  -1.384  10.148   5.120 -0.9669 -1.2857  0.0465
  907MOL0     H22413  -1.531  10.286   4.982  1.8004  0.0804 -3.1609
  907MOL0     H22414  -1.542  10.166   4.856 -2.8286 -0.6762 -0.2726
  907MOL0     H22415  -1.607  10.101   5.150 -1.9070 -1.9421 -0.0589
  907MOL0     H22416  -1.626   9.997   5.015  1.2219 -2.1112  3.3539
  907MOL0     H22417  -1.776  10.272   5.056 -1.4115  0.6535 -0.0190
  907MOL0     H22418  -1.768  10.181   4.909 -1.5417 -1.1900 -0.2771
  907MOL0     H22419  -1.866  10.075   5.181 -3.0227  2.9915  0.3996
  907MOL0     H22420  -1.879   9.993   5.023 -0.8928  1.2997 -1.2401
  907MOL0     H22421  -2.055  10.136   4.950 -0.4961 -1.7179 -0.0283
  907MOL0     H22422  -2.084  10.085   5.110 -1.3701 -1.0718 -2.0598
  907MOL0     H22423  -1.959  10.357   5.071  1.5175 -0.2279  3.4047
  907MOL0     H22424  -2.006  10.274   5.221 -0.7274  0.1284  0.3899
  907MOL0     H22425  -2.200  10.331   4.988 -1.4989  1.2718  0.6494
  907MOL0     H22426  -2.174  10.445   5.116  1.0623 -0.0983  0.0640
  907MOL0     H22427  -1.161  10.131   4.784  0.0527  1.6435  0.4545
  907MOL0     H22428  -0.924  10.068   4.799 -2.3397  0.8338 -2.0705
  907MOL0     H22429  -0.641   9.871   4.964 -3.6421  3.7204 -3.6975
  907MOL0     H22430  -0.417   9.744   4.894 -0.7921  0.5993 -1.3220
  907MOL0     H22431   1.428   9.838   5.048  0.9812 -0.5172 -1.0789
  907MOL0     H22432   1.671   9.889   5.035  1.2008  6.0575  0.3206
  907MOL0     H22433   2.018   9.950   5.057 -0.2024 -0.2361  1.6070
  907MOL0     H22434   2.250  10.002   4.989  2.1139 -1.4248 -0.5598
  907MOL0     H22435   2.498  10.006   4.950 -0.3402 -0.8208  0.4700
  907MOL0     H22436   2.452  10.157   5.029 -0.0629 -0.2206  0.9346
  907MOL0     H22437   2.735  10.049   5.042  0.3873  0.6719  2.0651
  907MOL0     H22438   2.674  10.175   5.130 -2.8261 -2.2957  0.8311
  907MOL0     H22439   2.675  10.322   4.917 -0.5290  0.1864  2.1213
  907MOL0     H22440   2.636  10.171   4.831  2.5712 -0.9070 -2.7868
  907MOL0     H22441   2.907  10.190   4.962  0.6580  2.9641  1.1247
  907MOL0     H22442   2.858  10.288   4.814 -3.8829 -1.2346 -1.7070
  907MOL0     H22443   2.939   9.875   4.710  1.2934  0.7849 -0.7528
  907MOL0     H22444   2.373   9.963   5.404 -2.7646 -1.4497  2.1933
  907MOL0     H22445   2.156   9.935   5.460  2.1391 -1.3674 -0.3700
  908MOL0     O22446   5.332   1.707  10.942  0.1690  0.2626 -0.0417
  908MOL0     C22447   5.395   1.797  10.995  0.8296 -0.1075 -0.1307
  908MOL0     O22448   5.337   1.898  11.066  0.8138  0.1376 -0.1490
  908MOL0     C22449   5.199   1.921  11.060 -0.4929  0.1367 -1.1889
  908MOL0     C22450   5.106   1.824  11.087  0.7524 -0.7932  0.6684
  908MOL0     C22451   4.968   1.854  11.089  0.0164  0.3393  0.5391
  908MOL0     C22452   4.918   1.977  11.049  0.3806  0.0293 -0.0235
  908MOL0     O22453   4.782   2.014  11.050 -0.2953 -1.7245  0.3156
  908MOL0     C22454   4.687   1.931  11.115 -0.9374  0.1508  0.0546
  908MOL0     C22455   4.556   1.988  11.098  0.7896 -0.4008  0.1955
  908MOL0     C22456   4.458   1.936  11.213  0.0643  0.0794 -0.0225
  908MOL0     C22457   4.322   1.997  11.192  0.7006  0.5565 -0.0530
  908MOL0     C22458   4.214   1.943  11.289 -0.6062  0.8886 -0.0998
  908MOL0     C22459   4.072   2.002  11.269  0.0003 -0.2538  0.3371
  908MOL0     C22460   3.984   1.983  11.392 -0.0721 -0.8357  0.6021
  908MOL0     C22461   3.841   2.048  11.365 -0.4425 -0.1928 -0.1646
  908MOL0     N22462   3.759   2.025  11.485  0.4172  0.6034  0.1387
  908MOL0     C22463   3.798   2.060  11.610 -0.2956 -0.4085 -0.0043
  908MOL0     C22464   3.705   2.029  11.698  0.0849  0.5351 -0.7718
  908MOL0     C22465   3.692   2.060  11.850  0.3251  0.5858  0.0451
  908MOL0     C22466   3.621   2.196  11.874 -0.2953 -0.6920  0.0562
  908MOL0     C22467   3.630   2.239  12.025  0.4437  0.5293  0.1290
  908MOL0     C22468   3.501   2.310  12.064  0.9564 -0.7573  0.7746
  908MOL0     O22469   3.529   2.370  12.191  0.3834  0.1092 -1.0676
  908MOL0     C22470   3.408   2.420  12.237 -0.6909  0.5621  0.2212
  908MOL0     C22471   3.363   2.539  12.182 -0.5977  0.8712  0.0662
  908MOL0     C22472   3.232   2.592  12.209 -0.1116  0.4947  0.3204
  908MOL0     C22473   3.197   2.725  12.133  0.1507 -0.4158 -0.8985
  908MOL0     C22474   3.150   2.517  12.292  0.6221  0.8749 -0.2854
  908MOL0     C22475   3.014   2.546  12.341  0.1380 -0.1388  0.4663
  908MOL0     O22476   2.998   2.513  12.474 -0.2280 -0.2685  0.3715
  908MOL0     C22477   2.866   2.515  12.520 -0.0999 -0.5619 -0.9328
  908MOL0     C22478   2.798   2.398  12.523 -0.1048 -0.6035 -0.4489
  908MOL0     C22479   2.675   2.396  12.595  1.3407 -0.2838 -0.5928
  908MOL0     C22480   2.608   2.508  12.649 -0.5879  0.2042  0.1275
  908MOL0     O22481   2.487   2.497  12.707 -0.0945  0.0839  0.3723
  908MOL0     C22482   2.398   2.614  12.705  0.1801  0.4824 -0.0174
  908MOL0     C22483   2.265   2.559  12.756  0.3472 -0.0023 -0.3749
  908MOL0     C22484   2.146   2.667  12.762 -0.1928  0.5153 -0.1657
  908MOL0     C22485   2.007   2.605  12.784  0.0433 -0.2814  1.1554
  908MOL0     C22486   1.887   2.707  12.787  0.2546 -0.6493 -0.4904
  908MOL0     C22487   1.747   2.655  12.800  0.2080 -0.9025 -0.5371
  908MOL0     C22488   1.648   2.774  12.785 -0.1780 -0.1173 -0.4134
  908MOL0     C22489   1.507   2.711  12.777  0.1479 -0.2010  0.7337
  908MOL0    Cl22490   1.381   2.840  12.730 -0.1737 -0.3014 -0.1621
  908MOL0     C22491   2.675   2.633  12.628  0.5821  0.2057  0.6422
  908MOL0     C22492   2.803   2.632  12.566  0.3330  0.0019  0.0051
  908MOL0     O22493   2.926   2.601  12.267  0.0184 -0.4132 -0.0121
  908MOL0     C22494   3.197   2.390  12.346 -0.1565 -0.2104  0.0357
  908MOL0     C22495   3.319   2.335  12.314 -0.5015 -0.0509  0.4535
  908MOL0     N22496   3.598   1.980  11.626 -0.1696 -0.0391  0.4177
  908MOL0     N22497   3.635   1.968  11.499 -0.2644  0.9850  0.0817
  908MOL0     C22498   5.014   2.075  11.020  0.1985  0.1646 -0.1638
  908MOL0     C22499   5.152   2.050  11.039 -0.0989 -0.7105  0.0767
  908MOL0     C22500   5.537   1.805  10.963 -0.0159 -0.6246  0.7820
  908MOL0     C22501   5.614   1.889  11.047  0.5330 -0.4405 -0.2492
  908MOL0     C22502   5.744   1.896  11.026 -0.3249 -0.8852 -0.8413
  908MOL0     C22503   5.817   1.817  10.931 -0.3857 -0.2277 -0.1246
  908MOL0     O22504   5.951   1.809  10.908  0.3674 -0.4126 -0.4854
  908MOL0     C22505   6.036   1.903  10.981  0.4095  1.1242  0.2643
  908MOL0     C22506   6.065   1.862  11.130  0.6690 -0.1918  0.5066
  908MOL0     C22507   6.092   1.712  11.138 -0.7746 -0.3436 -0.3774
  908MOL0     C22508   5.971   1.645  11.201  0.9665 -0.1783  0.0591
  908MOL0     C22509   5.997   1.502  11.207  0.0217  0.1734  1.2589
  908MOL0     C22510   6.005   1.377  11.196 -0.6780  0.4165 -0.0819
  908MOL0     C22511   5.741   1.726  10.859  0.2107 -0.0961  0.4030
  908MOL0     C22512   5.602   1.720  10.874 -0.1194 -0.0766  0.3796
  908MOL0     H22513   5.145   1.724  11.106  1.9465 -0.3577  0.6015
  908MOL0     H22514   4.902   1.774  11.122 -1.5570 -0.4897 -3.9330
  908MOL0     H22515   4.679   1.827  11.082 -0.7793 -0.7605  2.6166
  908MOL0     H22516   4.714   1.931  11.222 -0.4775  1.2344 -0.0465
  908MOL0     H22517   4.556   2.097  11.103 -0.1356 -0.3040 -1.1350
  908MOL0     H22518   4.520   1.949  11.002 -1.9533 -1.5991  1.5849
  908MOL0     H22519   4.471   1.828  11.227  2.9198  0.2267 -0.9182
  908MOL0     H22520   4.498   1.966  11.310  1.4999 -1.8399  0.0514
  908MOL0     H22521   4.323   2.105  11.209 -2.5795  0.6363  0.2862
  908MOL0     H22522   4.285   1.975  11.091 -0.1356  2.5007 -0.2074
  908MOL0     H22523   4.205   1.834  11.285  0.6044  0.7238  1.0429
  908MOL0     H22524   4.241   1.952  11.395  0.8237 -4.3762  0.2759
  908MOL0     H22525   4.085   2.111  11.262  0.3398 -0.2398  1.1491
  908MOL0     H22526   4.036   1.966  11.172  3.6199 -0.3731 -1.1030
  908MOL0     H22527   3.986   1.877  11.416 -0.2147 -0.3344  3.1191
  908MOL0     H22528   4.023   2.046  11.473  0.3909  0.4139 -0.5387
  908MOL0     H22529   3.792   1.992  11.285  1.2784 -3.0250  0.6117
  908MOL0     H22530   3.853   2.155  11.349 -1.4512  0.2709  1.7646
  908MOL0     H22531   3.886   2.120  11.630 -0.9975  0.8177 -0.4984
  908MOL0     H22532   3.624   1.989  11.900  0.5553  0.3939  0.0880
  908MOL0     H22533   3.786   2.059  11.906  0.5924 -2.4124 -0.2780
  908MOL0     H22534   3.519   2.172  11.840  0.1183 -1.2665 -0.8414
  908MOL0     H22535   3.674   2.268  11.812 -1.4736 -0.1960 -0.4171
  908MOL0     H22536   3.710   2.312  12.044  0.5631  0.4857 -0.1929
  908MOL0     H22537   3.652   2.148  12.081  3.6600  0.8009 -0.4838
  908MOL0     H22538   3.421   2.236  12.066 -0.3868  0.4289 -2.0805
  908MOL0     H22539   3.460   2.384  11.994 -0.2534  0.3877  2.6038
  908MOL0     H22540   3.419   2.610  12.122  4.3897 -1.5613  1.3459
  908MOL0     H22541   3.170   2.799  12.209  1.1519 -0.6449 -0.3006
  908MOL0     H22542   3.275   2.775  12.076 -0.3125 -0.5476 -1.6552
  908MOL0     H22543   3.111   2.703  12.069 -0.1797  1.3566 -1.0991
  908MOL0     H22544   2.835   2.300  12.494  0.3111 -0.2634 -1.0925
  908MOL0     H22545   2.625   2.303  12.618 -0.3500  0.3577 -1.4170
  908MOL0     H22546   2.435   2.695  12.769  1.9201 -1.1681  1.1645
  908MOL0     H22547   2.383   2.645  12.601  2.9450  3.6370  0.3494
  908MOL0     H22548   2.245   2.485  12.678  0.6819 -1.7969  1.1791
  908MOL0     H22549   2.274   2.499  12.846 -0.2856  1.7709  0.9220
  908MOL0     H22550   2.130   2.712  12.664 -7.1297  2.3696  1.3215
  908MOL0     H22551   2.155   2.738  12.845  0.2602  0.6843 -0.3542
  908MOL0     H22552   1.986   2.541  12.697 -0.0621 -0.0027  0.9761
  908MOL0     H22553   2.010   2.545  12.875  0.3344 -4.5051 -1.3750
  908MOL0     H22554   1.885   2.773  12.700 -1.7571 -0.9963 -0.7647
  908MOL0     H22555   1.902   2.775  12.871  0.0378  3.0708 -3.2230
  908MOL0     H22556   1.729   2.579  12.724  3.2011 -1.4324 -0.8410
  908MOL0     H22557   1.729   2.603  12.895  1.4118  1.3278  1.0316
  908MOL0     H22558   1.667   2.830  12.693 -1.6008  1.1828  0.0458
  908MOL0     H22559   1.652   2.832  12.877  2.6961 -2.8471  1.3915
  908MOL0     H22560   1.476   2.660  12.869 -1.7756 -1.3352 -0.4592
  908MOL0     H22561   1.501   2.628  12.706 -1.1991 -1.3184  2.0870
  908MOL0     H22562   2.623   2.724  12.656 -1.0455 -0.0021 -1.4337
  908MOL0     H22563   2.853   2.728  12.569 -0.8052  0.5846  1.1677
  908MOL0     H22564   3.151   2.319  12.415  0.8734 -0.7389  0.1932
  908MOL0     H22565   3.337   2.232  12.342 -1.3707 -0.8972 -1.7989
  908MOL0     H22566   4.981   2.165  10.968 -0.6019 -0.8974 -1.5738
  908MOL0     H22567   5.217   2.128  11.001 -0.3761 -0.6113 -0.1963
  908MOL0     H22568   5.559   1.953  11.115  1.9749 -2.8027  3.4445
  908MOL0     H22569   5.809   1.957  11.088  0.1095  0.1502 -2.2562
  908MOL0     H22570   6.136   1.917  10.936 -0.5176  3.2489 -1.3365
  908MOL0     H22571   5.988   2.000  10.968 -1.5847  0.0886 -0.5988
  908MOL0     H22572   5.980   1.883  11.196 -0.4716 -0.8638 -0.6814
  908MOL0     H22573   6.146   1.921  11.173  2.3221 -2.2375  0.3526
  908MOL0     H22574   6.181   1.695  11.199 -2.3503 -1.4192  1.7809
  908MOL0     H22575   6.099   1.685  11.033 -0.4161  0.3907 -0.5477
  908MOL0     H22576   5.886   1.657  11.133  0.2579 -1.7355  0.6295
  908MOL0     H22577   5.949   1.691  11.298  0.7452  0.0804 -0.1112
  908MOL0     H22578   6.004   1.270  11.194 -2.4716  0.3644  0.7039
  908MOL0     H22579   5.793   1.656  10.794 -2.9347 -0.8558 -1.5332
  908MOL0     H22580   5.536   1.643  10.835  0.2366 -0.9001  1.3663
  909MOL0     O22581   6.767   6.515   6.844  0.0152 -0.2365  0.7776
  909MOL0     C22582   6.806   6.413   6.787  0.1653 -0.6085  1.0745
  909MOL0     O22583   6.740   6.341   6.694 -0.5435  0.2527  0.5508
  909MOL0     C22584   6.611   6.381   6.652 -0.4242  0.3548  0.0397
  909MOL0     C22585   6.506   6.290   6.674 -0.6610  0.4294 -0.0173
  909MOL0     C22586   6.382   6.326   6.628  0.6381  0.2545 -0.2573
  909MOL0     C22587   6.357   6.457   6.580  0.4099 -0.7543 -0.6415
  909MOL0     O22588   6.232   6.498   6.555  0.0684  0.3379 -0.3014
  909MOL0     C22589   6.124   6.411   6.551  0.2758  0.4327 -0.0772
  909MOL0     C22590   5.992   6.485   6.514 -0.4999  1.1441  0.8873
  909MOL0     C22591   5.873   6.387   6.519 -0.3100  0.8675 -0.7357
  909MOL0     C22592   5.751   6.431   6.438  0.5785 -0.5512  0.1965
  909MOL0     C22593   5.642   6.326   6.424 -0.2676 -0.3539  0.3599
  909MOL0     C22594   5.562   6.342   6.293 -0.2257 -0.1458  0.9345
  909MOL0     C22595   5.454   6.228   6.274 -0.3427 -0.7480  0.9452
  909MOL0     C22596   5.355   6.215   6.392 -0.5675  1.0120 -0.2262
  909MOL0     N22597   5.271   6.335   6.417  0.3260 -0.0131 -0.6605
  909MOL0     C22598   5.168   6.375   6.336 -0.0768  0.1171 -0.2385
  909MOL0     C22599   5.116   6.484   6.401  0.0538  0.3724  1.1377
  909MOL0     C22600   5.019   6.586   6.337 -0.0361  0.3381  0.3456
  909MOL0     C22601   4.871   6.563   6.348 -0.2917  0.1702 -0.2818
  909MOL0     C22602   4.824   6.481   6.476  0.1243  0.2808 -0.3683
  909MOL0     C22603   4.679   6.482   6.503  0.0439  0.9891  0.6572
  909MOL0     O22604   4.638   6.625   6.510  0.2636  0.1618  0.7782
  909MOL0     C22605   4.503   6.650   6.518 -0.1350 -0.5767  0.7061
  909MOL0     C22606   4.403   6.552   6.560  0.3297  0.1136 -0.6595
  909MOL0     C22607   4.267   6.579   6.562 -0.7640 -0.6862 -0.3970
  909MOL0     C22608   4.168   6.468   6.592 -0.0827  0.0094 -0.1827
  909MOL0     C22609   4.222   6.715   6.528  0.4466 -0.0529  0.1207
  909MOL0     C22610   4.081   6.762   6.543  0.3824  1.4977 -0.3977
  909MOL0     O22611   4.042   6.854   6.457  0.3974 -0.4283  0.3843
  909MOL0     C22612   3.905   6.865   6.436 -0.4300  0.6224  0.5932
  909MOL0     C22613   3.846   6.785   6.339 -0.0348 -0.0106  0.3746
  909MOL0     C22614   3.715   6.818   6.302  1.3677 -0.3719 -0.0298
  909MOL0     C22615   3.636   6.918   6.366 -0.5196 -0.5841 -0.8596
  909MOL0     O22616   3.511   6.950   6.320 -0.0347 -0.0053 -0.3177
  909MOL0     C22617   3.413   6.996   6.409  0.1348  0.0971  0.2261
  909MOL0     C22618   3.278   6.962   6.335 -0.3445 -0.5233 -0.1747
  909MOL0     C22619   3.169   7.024   6.425 -0.1737  0.3002  0.5393
  909MOL0     C22620   3.039   7.032   6.339 -0.4793 -0.3304  0.3206
  909MOL0     C22621   2.917   7.063   6.409  0.6017 -0.7068 -0.2184
  909MOL0     C22622   2.802   7.083   6.313 -0.7049  0.8822  0.1463
  909MOL0     C22623   2.679   7.164   6.354  0.0602 -0.5869  0.4327
  909MOL0     C22624   2.626   7.118   6.495  0.0402  0.3982  0.7510
  909MOL0    Cl22625   2.624   6.949   6.496 -0.6529 -0.3492 -0.1921
  909MOL0     C22626   3.700   6.984   6.469 -0.6536  0.1150 -0.1071
  909MOL0     C22627   3.836   6.966   6.500 -0.0451 -0.5567 -0.0617
  909MOL0     O22628   4.014   6.719   6.636 -0.4554  0.7948 -0.0815
  909MOL0     C22629   4.324   6.806   6.490  0.6592  0.5069 -0.2728
  909MOL0     C22630   4.456   6.772   6.481 -0.0696 -0.2433 -0.1352
  909MOL0     N22631   5.177   6.491   6.526  0.3773 -0.2198 -0.3649
  909MOL0     N22632   5.272   6.401   6.535  0.3001 -0.2257 -1.1453
  909MOL0     C22633   6.455   6.542   6.565 -0.3798  0.1582 -0.1886
  909MOL0     C22634   6.589   6.500   6.584 -0.3018  0.1505 -0.6431
  909MOL0     C22635   6.933   6.359   6.831 -0.6949 -0.3361 -0.0687
  909MOL0     C22636   7.011   6.289   6.739 -0.6161  0.8888 -0.6351
  909MOL0     C22637   7.141   6.250   6.784  0.2511 -0.3457 -0.2220
  909MOL0     C22638   7.195   6.297   6.904  0.3073  0.9637  0.7027
  909MOL0     O22639   7.323   6.265   6.947  0.1116  0.4700 -0.3420
  909MOL0     C22640   7.412   6.209   6.854  1.2742  0.2197  0.1671
  909MOL0     C22641   7.553   6.212   6.895 -0.5483 -0.4300  0.1210
  909MOL0     C22642   7.653   6.157   6.784  0.7149 -0.9486  0.2915
  909MOL0     C22643   7.790   6.202   6.826  0.4638 -0.1430  0.0711
  909MOL0     C22644   7.806   6.338   6.785 -0.1133  0.2752  0.1646
  909MOL0     C22645   7.819   6.460   6.758  0.1030 -0.1910 -0.7864
  909MOL0     C22646   7.116   6.371   6.986 -1.1611 -0.3863  0.8378
  909MOL0     C22647   6.985   6.406   6.952 -0.3718  0.3577  0.3844
  909MOL0     H22648   6.531   6.199   6.728 -1.2395 -1.2193 -2.3694
  909MOL0     H22649   6.299   6.258   6.648  0.6958  0.4356  0.6437
  909MOL0     H22650   6.134   6.323   6.487  1.8294 -0.3851  1.2214
  909MOL0     H22651   6.107   6.360   6.647  0.9191 -3.1900 -1.6946
  909MOL0     H22652   5.966   6.569   6.579  1.3403  2.8015 -0.4091
  909MOL0     H22653   5.999   6.528   6.413  3.9470  0.1646  0.5926
  909MOL0     H22654   5.909   6.290   6.485 -0.5154 -0.6359  2.9246
  909MOL0     H22655   5.846   6.361   6.622  0.5482 -1.0685 -0.9591
  909MOL0     H22656   5.708   6.527   6.467  1.3639  0.3686 -1.4817
  909MOL0     H22657   5.789   6.439   6.335 -1.3450 -0.5802 -0.5719
  909MOL0     H22658   5.697   6.234   6.404 -0.2855 -0.3157  0.1282
  909MOL0     H22659   5.583   6.318   6.516  0.1584 -0.7672  0.5983
  909MOL0     H22660   5.509   6.437   6.286  1.3526  0.7529  0.9591
  909MOL0     H22661   5.634   6.337   6.211  0.3067 -1.7451  1.4473
  909MOL0     H22662   5.390   6.234   6.185  0.6561 -2.7853  0.0375
  909MOL0     H22663   5.515   6.140   6.253  0.5814  0.0995 -0.0799
  909MOL0     H22664   5.411   6.194   6.483 -0.2807  0.5516 -0.5012
  909MOL0     H22665   5.297   6.123   6.378  0.9097  0.1175 -0.7695
  909MOL0     H22666   5.153   6.340   6.234 -2.0660  0.4720 -0.1033
  909MOL0     H22667   5.045   6.684   6.378  0.6316 -0.0891  0.9755
  909MOL0     H22668   5.049   6.601   6.233  0.3548  2.6314  0.7389
  909MOL0     H22669   4.841   6.503   6.261 -0.4045  0.7312 -0.6360
  909MOL0     H22670   4.815   6.657   6.343  0.0827  0.3439 -1.8188
  909MOL0     H22671   4.874   6.529   6.560  0.7741  2.1918 -1.7695
  909MOL0     H22672   4.851   6.374   6.473 -3.5340 -0.7691 -0.5130
  909MOL0     H22673   4.660   6.438   6.601 -1.7454  0.7874  0.2538
  909MOL0     H22674   4.632   6.428   6.421 -0.8078 -1.4025  2.5813
  909MOL0     H22675   4.430   6.451   6.586 -1.8212  0.0768  1.9212
  909MOL0     H22676   4.225   6.375   6.586  0.3967  0.3510 -1.1306
  909MOL0     H22677   4.122   6.475   6.691  0.3397 -0.9446  0.0912
  909MOL0     H22678   4.098   6.464   6.507  2.3919  0.0806 -2.3430
  909MOL0     H22679   3.902   6.701   6.298  0.1834 -0.0362  0.7206
  909MOL0     H22680   3.680   6.762   6.216  1.6724 -0.1711 -0.2829
  909MOL0     H22681   3.407   6.948   6.508  0.0813 -0.4318 -0.0315
  909MOL0     H22682   3.408   7.102   6.436 -3.2805  0.1901 -0.3335
  909MOL0     H22683   3.282   7.004   6.235 -0.7505 -2.5863 -1.1235
  909MOL0     H22684   3.254   6.855   6.338  0.2474 -0.6435  0.5967
  909MOL0     H22685   3.188   7.130   6.444 -2.6819  1.3490 -1.9541
  909MOL0     H22686   3.153   6.968   6.517 -1.3828  1.8630  1.3361
  909MOL0     H22687   3.055   7.112   6.266 -2.5330  0.4558  0.6443
  909MOL0     H22688   3.024   6.933   6.296  1.0604 -1.3307  1.9440
  909MOL0     H22689   2.923   7.142   6.485  1.8730 -0.4919 -0.5127
  909MOL0     H22690   2.894   6.982   6.479 -0.0782 -0.8595 -0.6233
  909MOL0     H22691   2.840   7.131   6.222 -0.0468  0.9482  0.4425
  909MOL0     H22692   2.771   6.981   6.290  2.7259 -0.8357  2.3145
  909MOL0     H22693   2.599   7.151   6.280 -1.4119  4.7883  0.6036
  909MOL0     H22694   2.702   7.271   6.359  2.0212 -1.0073  0.9235
  909MOL0     H22695   2.524   7.151   6.518  0.4834  1.6214  1.0578
  909MOL0     H22696   2.691   7.151   6.577 -1.8092  1.4857  1.8557
  909MOL0     H22697   3.647   7.059   6.528 -0.6727 -0.5316  0.7168
  909MOL0     H22698   3.887   7.019   6.579  0.1469 -1.6689  0.5789
  909MOL0     H22699   4.293   6.907   6.464  0.4375  0.8485  1.1694
  909MOL0     H22700   4.527   6.837   6.430  1.7184 -1.5405  0.5970
  909MOL0     H22701   6.426   6.645   6.543  0.3941  1.0221  2.4212
  909MOL0     H22702   6.674   6.566   6.572  1.1763 -1.7209 -0.9306
  909MOL0     H22703   6.992   6.271   6.634 -1.5852  1.7871 -0.6268
  909MOL0     H22704   7.198   6.190   6.714  3.3934 -1.0299  2.6626
  909MOL0     H22705   7.375   6.108   6.836 -0.5534  0.7257  0.9016
  909MOL0     H22706   7.400   6.265   6.761  1.0512  2.9244  1.7206
  909MOL0     H22707   7.574   6.148   6.981 -1.5398 -1.0541 -0.0876
  909MOL0     H22708   7.581   6.314   6.925 -3.3775 -0.0694  1.8785
  909MOL0     H22709   7.612   6.202   6.694 -1.1897 -1.5659  0.8001
  909MOL0     H22710   7.638   6.050   6.767 -0.3477 -0.5830 -1.1952
  909MOL0     H22711   7.861   6.139   6.771  0.5951  0.5641 -0.5955
  909MOL0     H22712   7.812   6.200   6.933  0.4376  5.1855  0.4300
  909MOL0     H22713   7.820   6.565   6.737  0.8508 -0.6339 -3.3214
  909MOL0     H22714   7.161   6.393   7.082  1.0984 -2.4610  0.3657
  909MOL0     H22715   6.933   6.474   7.019  1.1725  1.3184  0.6771
  910MOL0     O22716   0.518   2.739   5.801  0.1471  0.1896  0.4431
  910MOL0     C22717   0.612   2.726   5.872 -0.3615  0.1602  0.5817
  910MOL0     O22718   0.649   2.815   5.974 -0.2656 -0.2982  0.1293
  910MOL0     C22719   0.585   2.928   6.014  0.6251 -0.3751 -0.2674
  910MOL0     C22720   0.460   2.979   5.971  0.2566  0.2847 -0.1168
  910MOL0     C22721   0.410   3.102   6.017  0.0017 -0.9007  0.7432
  910MOL0     C22722   0.474   3.179   6.121  0.5355  0.1670  0.4276
  910MOL0     O22723   0.437   3.302   6.170  0.3460  0.1373  0.2717
  910MOL0     C22724   0.306   3.342   6.121 -0.1151  0.0593 -0.1606
  910MOL0     C22725   0.270   3.471   6.197 -0.2125  0.2571 -0.0824
  910MOL0     C22726   0.133   3.507   6.159  0.4663  0.4563 -0.0237
  910MOL0     C22727   0.100   3.643   6.228 -0.2692 -0.1007 -0.8354
  910MOL0     C22728  -0.044   3.682   6.205  0.0780  0.1096 -1.1111
  910MOL0     C22729  -0.085   3.826   6.261  0.2919  0.9914 -0.6527
  910MOL0     C22730  -0.238   3.844   6.250  0.9772 -0.6035 -0.2142
  910MOL0     C22731  -0.296   3.976   6.317 -0.4403  0.3137  0.1907
  910MOL0     N22732  -0.448   3.960   6.315 -0.2055  0.0014 -0.5455
  910MOL0     C22733  -0.526   3.940   6.430 -0.0447  0.0863 -0.3574
  910MOL0     C22734  -0.652   3.958   6.391  1.2006 -0.2923  0.0001
  910MOL0     C22735  -0.769   3.947   6.483 -0.1201  0.0929  0.4781
  910MOL0     C22736  -0.883   4.056   6.499 -0.5829 -0.2370  0.1656
  910MOL0     C22737  -0.945   4.069   6.362  0.4842 -0.6942  0.1551
  910MOL0     C22738  -1.046   4.186   6.356  0.8180 -0.4073 -0.8743
  910MOL0     O22739  -1.128   4.179   6.241  0.3959  0.8497  0.5303
  910MOL0     C22740  -1.260   4.136   6.264 -0.5242 -0.9468 -0.7216
  910MOL0     C22741  -1.317   4.086   6.382  0.6388 -0.4797 -0.0077
  910MOL0     C22742  -1.453   4.044   6.388 -0.0638  0.5427 -0.5331
  910MOL0     C22743  -1.492   3.992   6.527  0.3218 -0.5881  0.3328
  910MOL0     C22744  -1.530   4.052   6.271 -0.3522  0.1929  0.5932
  910MOL0     C22745  -1.667   3.993   6.257  0.6556  0.0875  0.4579
  910MOL0     O22746  -1.723   4.024   6.147  0.3826 -0.1793  0.4902
  910MOL0     C22747  -1.848   3.991   6.109  0.2765  0.5514  0.1171
  910MOL0     C22748  -1.955   3.962   6.199  0.0851 -0.8622 -0.5667
  910MOL0     C22749  -2.081   3.923   6.157 -0.0763  0.1493 -0.5000
  910MOL0     C22750  -2.100   3.882   6.026 -0.6045 -0.6017  1.1983
  910MOL0     O22751  -2.222   3.837   5.978 -0.5615 -0.0070 -0.1451
  910MOL0     C22752  -2.335   3.925   5.968 -0.2653 -0.3466 -0.4775
  910MOL0     C22753  -2.358   3.936   5.821 -0.1099 -0.7517  0.0571
  910MOL0     C22754  -2.443   4.051   5.780 -0.2229 -0.6746 -0.2594
  910MOL0     C22755  -2.465   4.049   5.626 -0.1917 -1.0791  0.8374
  910MOL0     C22756  -2.550   4.177   5.593 -0.1405 -0.0165  0.1414
  910MOL0     C22757  -2.559   4.183   5.441  1.1241 -1.1251  0.1274
  910MOL0     C22758  -2.628   4.316   5.391 -0.6131  0.2313 -0.5678
  910MOL0     C22759  -2.622   4.321   5.241  0.0556 -0.4382  0.7144
  910MOL0    Cl22760  -2.657   4.486   5.180  0.1072  0.4750 -0.2838
  910MOL0     C22761  -1.994   3.896   5.933  0.3668  0.2529  0.3614
  910MOL0     C22762  -1.873   3.946   5.977 -0.6201 -0.0643 -0.4527
  910MOL0     O22763  -1.720   3.951   6.355  0.4567 -0.0397  0.0305
  910MOL0     C22764  -1.472   4.102   6.147  0.1973  0.4611 -0.0560
  910MOL0     C22765  -1.340   4.135   6.149 -0.0910  0.7029 -0.2116
  910MOL0     N22766  -0.652   3.978   6.255 -0.2827  0.0780  0.6308
  910MOL0     N22767  -0.529   3.972   6.209  0.3914  0.8026 -0.4159
  910MOL0     C22768   0.599   3.135   6.159 -0.2602 -0.5831 -0.4252
  910MOL0     C22769   0.652   3.008   6.110  0.8580  0.8541 -0.1962
  910MOL0     C22770   0.706   2.609   5.863 -0.0429  0.3695  0.1641
  910MOL0     C22771   0.700   2.521   5.759  0.0632  0.2176 -0.7829
  910MOL0     C22772   0.788   2.411   5.755 -0.0307 -0.3029 -0.6752
  910MOL0     C22773   0.880   2.388   5.858  0.1751  0.4610 -0.3861
  910MOL0     O22774   0.952   2.271   5.837  0.5781 -0.2027  0.7567
  910MOL0     C22775   1.045   2.225   5.938 -0.3089 -0.3203  0.2168
  910MOL0     C22776   0.984   2.091   5.979 -0.5718 -0.3449 -0.1380
  910MOL0     C22777   1.075   2.003   6.075 -0.0515 -0.1756  0.0368
  910MOL0     C22778   1.009   1.879   6.138  1.6939 -0.0116  0.2182
  910MOL0     C22779   0.867   1.915   6.193  0.2607 -0.6916  0.9205
  910MOL0     C22780   0.752   1.930   6.225 -0.0821  0.0064 -0.0715
  910MOL0     C22781   0.898   2.485   5.955 -0.9492 -0.6935 -0.1125
  910MOL0     C22782   0.817   2.596   5.959  0.9159 -0.1361 -0.1078
  910MOL0     H22783   0.412   2.918   5.895  0.7672  0.3866 -0.5290
  910MOL0     H22784   0.326   3.141   5.961  0.5347 -2.3841 -1.2211
  910MOL0     H22785   0.311   3.369   6.015  0.5600 -2.2645 -0.7648
  910MOL0     H22786   0.233   3.263   6.139 -1.0183  1.1645  1.3021
  910MOL0     H22787   0.275   3.451   6.304  0.9031  0.8172 -0.0106
  910MOL0     H22788   0.341   3.553   6.181  2.2267 -1.0929  2.7532
  910MOL0     H22789   0.147   3.520   6.051  0.6467 -1.2568 -0.2312
  910MOL0     H22790   0.060   3.428   6.174  1.5055 -0.4312  0.5335
  910MOL0     H22791   0.128   3.626   6.332  1.2536 -0.3241 -1.2600
  910MOL0     H22792   0.163   3.716   6.177  0.4588 -1.4207 -1.8893
  910MOL0     H22793  -0.073   3.687   6.099 -0.2043  0.8952 -1.0058
  910MOL0     H22794  -0.098   3.604   6.258 -0.3668  2.0144  1.4089
  910MOL0     H22795  -0.053   3.841   6.364 -4.6985  2.4501  0.9928
  910MOL0     H22796  -0.038   3.900   6.195  1.7944  0.1550 -0.5571
  910MOL0     H22797  -0.248   3.842   6.141  2.9782  0.5442 -0.4729
  910MOL0     H22798  -0.295   3.756   6.283 -1.3964  1.4752  1.5704
  910MOL0     H22799  -0.260   4.058   6.253  0.9453  2.1446  3.0752
  910MOL0     H22800  -0.255   3.993   6.417 -3.0935 -1.5160  1.7131
  910MOL0     H22801  -0.488   3.926   6.530 -1.0453 -1.2830 -0.1422
  910MOL0     H22802  -0.821   3.856   6.449  1.8349 -1.0106  0.2699
  910MOL0     H22803  -0.726   3.926   6.581  0.9552 -1.5053 -0.2828
  910MOL0     H22804  -0.854   4.154   6.539 -1.4489  0.0140  0.2086
  910MOL0     H22805  -0.959   4.022   6.569 -3.3010 -0.3312 -2.6262
  910MOL0     H22806  -0.997   3.975   6.340 -0.6806  0.3380 -1.7637
  910MOL0     H22807  -0.870   4.085   6.284  1.4011 -3.5712  0.3343
  910MOL0     H22808  -0.986   4.277   6.349 -1.8882  1.5321 -0.4666
  910MOL0     H22809  -1.100   4.190   6.451 -0.6235  2.0910 -1.6972
  910MOL0     H22810  -1.244   4.064   6.460  0.7874 -0.3047 -0.0970
  910MOL0     H22811  -1.499   3.883   6.530  1.7031 -0.7323 -0.6882
  910MOL0     H22812  -1.422   4.028   6.602 -0.2114 -1.1773  1.1298
  910MOL0     H22813  -1.590   4.031   6.557  0.4557 -0.1237  0.1792
  910MOL0     H22814  -1.950   3.989   6.304 -1.3913  3.7577 -1.4761
  910MOL0     H22815  -2.163   3.911   6.228  0.9310  0.9861  0.8504
  910MOL0     H22816  -2.416   3.884   6.029  2.5387 -2.4943  2.1521
  910MOL0     H22817  -2.310   4.026   6.000 -1.6790  0.1362 -0.8457
  910MOL0     H22818  -2.259   3.943   5.775  0.3341 -1.6494  0.8317
  910MOL0     H22819  -2.416   3.850   5.786 -0.9653 -1.0028  1.9788
  910MOL0     H22820  -2.402   4.149   5.804 -0.5946 -0.4915 -0.3517
  910MOL0     H22821  -2.539   4.055   5.833 -1.3711 -0.6083 -2.2145
  910MOL0     H22822  -2.372   4.042   5.569 -1.5955  2.3358 -2.2745
  910MOL0     H22823  -2.527   3.963   5.602 -1.7829  0.4984 -1.0177
  910MOL0     H22824  -2.505   4.262   5.644 -0.9653 -1.2288  3.0753
  910MOL0     H22825  -2.652   4.173   5.631  0.4802 -0.6098  1.8546
  910MOL0     H22826  -2.457   4.179   5.401  1.3841  2.3885  0.1786
  910MOL0     H22827  -2.619   4.095   5.416 -4.4722  1.2171  3.4172
  910MOL0     H22828  -2.579   4.400   5.441 -1.1981 -0.1497  0.6728
  910MOL0     H22829  -2.734   4.310   5.415 -0.3770 -0.1261  0.3874
  910MOL0     H22830  -2.696   4.254   5.197  0.3035  1.4143 -2.9441
  910MOL0     H22831  -2.525   4.290   5.199 -1.0991 -1.7883 -1.1046
  910MOL0     H22832  -2.014   3.869   5.829  0.1951  1.4267  0.0790
  910MOL0     H22833  -1.784   3.939   5.915 -0.8734 -0.4518 -0.7807
  910MOL0     H22834  -1.532   4.112   6.057  0.1302 -0.6509 -0.1393
  910MOL0     H22835  -1.297   4.170   6.056 -0.3964 -2.5134 -1.6919
  910MOL0     H22836   0.647   3.192   6.237 -0.2784 -2.2056  0.8262
  910MOL0     H22837   0.751   2.976   6.142  0.0759 -2.1618 -0.4841
  910MOL0     H22838   0.624   2.533   5.683 -2.9933 -0.5630  1.9530
  910MOL0     H22839   0.787   2.335   5.678  3.6822 -0.3099 -0.8720
  910MOL0     H22840   1.144   2.219   5.892  1.0882  0.5717  2.8409
  910MOL0     H22841   1.050   2.287   6.028  0.5419 -0.9363  0.6102
  910MOL0     H22842   0.975   2.038   5.884  0.1474 -0.3628 -0.1970
  910MOL0     H22843   0.887   2.107   6.028  0.1138  1.1265  0.7951
  910MOL0     H22844   1.110   2.060   6.162  1.2320 -0.4059 -0.3153
  910MOL0     H22845   1.163   1.975   6.018  0.1444  1.2142 -0.3757
  910MOL0     H22846   1.062   1.839   6.225 -1.3756 -2.8962  0.9947
  910MOL0     H22847   1.019   1.801   6.062  1.1950 -0.3923  0.5287
  910MOL0     H22848   0.650   1.946   6.251 -0.1553 -1.6779  0.8389
  910MOL0     H22849   0.976   2.467   6.029  2.3506  0.1821 -3.0621
  910MOL0     H22850   0.819   2.670   6.038 -0.6595  0.8093 -0.8960
  911MOL0     O22851   0.064   5.251  11.085  0.2381 -0.2447 -0.3572
  911MOL0     C22852   0.103   5.367  11.105 -0.9266  0.1267 -0.1991
  911MOL0     O22853   0.035   5.471  11.164  0.2501 -0.9912 -0.1789
  911MOL0     C22854  -0.105   5.450  11.186  0.0532  0.0822 -1.1877
  911MOL0     C22855  -0.193   5.387  11.089 -0.8615 -0.1679  0.0131
  911MOL0     C22856  -0.329   5.379  11.098  0.3639 -0.3467  0.2464
  911MOL0     C22857  -0.388   5.435  11.210  0.5234  0.5238 -0.0369
  911MOL0     O22858  -0.520   5.414  11.238  0.4188 -0.0671 -0.3073
  911MOL0     C22859  -0.548   5.336  11.357 -0.7549 -0.1260  0.2152
  911MOL0     C22860  -0.700   5.317  11.372 -0.1125 -0.9932  0.3522
  911MOL0     C22861  -0.778   5.449  11.411  0.1093 -0.1553  0.6248
  911MOL0     C22862  -0.922   5.399  11.436 -0.6245 -0.4715  0.3501
  911MOL0     C22863  -1.022   5.508  11.478  0.5337  0.4013  0.8920
  911MOL0     C22864  -1.164   5.458  11.477  0.5993 -0.2629 -0.0381
  911MOL0     C22865  -1.262   5.577  11.513  0.9542  0.3028  0.1007
  911MOL0     C22866  -1.253   5.610  11.670  0.2363 -1.0773  0.4330
  911MOL0     N22867  -1.378   5.657  11.722  0.0504  0.4230 -0.6509
  911MOL0     C22868  -1.518   5.630  11.689 -0.3019  0.4941  0.3166
  911MOL0     C22869  -1.590   5.692  11.790  0.4567  0.3803 -0.2142
  911MOL0     C22870  -1.737   5.686  11.805 -0.3698  0.0363  0.0448
  911MOL0     C22871  -1.820   5.786  11.723 -0.2941  0.2703 -0.2433
  911MOL0     C22872  -1.947   5.811  11.798  0.3212 -0.0701  0.1170
  911MOL0     C22873  -2.050   5.864  11.700  0.5743 -0.0763 -0.3412
  911MOL0     O22874  -2.140   5.954  11.770  0.5143  0.0320  0.4886
  911MOL0     C22875  -2.267   5.995  11.727 -0.3625  0.0369  0.0086
  911MOL0     C22876  -2.314   6.126  11.755  0.3258  0.3830 -0.5917
  911MOL0     C22877  -2.449   6.159  11.753  0.7380 -0.4676  0.2228
  911MOL0     C22878  -2.481   6.304  11.791  0.1985  0.2499  0.6727
  911MOL0     C22879  -2.544   6.064  11.710  0.7448 -1.1211  0.1228
  911MOL0     C22880  -2.699   6.100  11.702 -0.6292 -0.8932 -0.2803
  911MOL0     O22881  -2.769   6.028  11.601  0.4411  0.1200  0.0114
  911MOL0     C22882  -2.895   6.077  11.572  1.0312  0.4567 -0.1632
  911MOL0     C22883  -2.923   6.125  11.448 -0.2075  0.0665  0.2328
  911MOL0     C22884  -3.062   6.170  11.432 -0.7609  0.2734  0.5137
  911MOL0     C22885  -3.150   6.166  11.536  0.2303 -1.0443  0.4721
  911MOL0     O22886  -3.262   6.239  11.520  0.1449  0.7216  0.4779
  911MOL0     C22887  -3.370   6.238  11.622  0.5254  0.3773 -0.6353
  911MOL0     C22888  -3.499   6.324  11.585  0.4046  0.3856 -0.3756
  911MOL0     C22889  -3.585   6.249  11.489 -0.2817  0.6067 -0.1028
  911MOL0     C22890  -3.726   6.315  11.492 -0.0835  0.1309  0.3009
  911MOL0     C22891  -3.842   6.222  11.476 -0.2026  0.6914  0.7612
  911MOL0     C22892  -3.865   6.141  11.601  0.5543  0.1652  1.0531
  911MOL0     C22893  -3.947   6.018  11.572  0.1830 -0.5615 -0.0186
  911MOL0     C22894  -4.003   5.955  11.698  0.4485  0.3774  0.1534
  911MOL0    Cl22895  -3.881   5.878  11.808  0.0694  0.4901 -0.0391
  911MOL0     C22896  -3.119   6.101  11.651 -0.6263  0.0623 -0.5858
  911MOL0     C22897  -2.993   6.058  11.669 -0.1196  0.1462 -0.9362
  911MOL0     O22898  -2.746   6.190  11.773  0.9016  0.3110 -0.7586
  911MOL0     C22899  -2.496   5.941  11.665 -0.3569  0.5529 -0.3517
  911MOL0     C22900  -2.359   5.904  11.673 -0.0840  0.4993  0.4043
  911MOL0     N22901  -1.503   5.768  11.865  0.0602  0.2543  0.2364
  911MOL0     N22902  -1.389   5.743  11.827 -0.1586 -0.3858 -0.8105
  911MOL0     C22903  -0.310   5.515  11.301 -0.3561 -0.7238  0.1993
  911MOL0     C22904  -0.172   5.522  11.288  0.1360  0.3188  0.1539
  911MOL0     C22905   0.234   5.393  11.043 -0.1769 -0.2929  0.7859
  911MOL0     C22906   0.314   5.500  11.073  0.4575 -0.8730  0.5420
  911MOL0     C22907   0.446   5.516  11.029 -0.2888  0.5463 -0.7303
  911MOL0     C22908   0.504   5.425  10.943 -0.3928 -0.2631  0.7021
  911MOL0     O22909   0.636   5.444  10.903 -0.6085 -0.0890  0.3370
  911MOL0     C22910   0.688   5.358  10.802  0.2212 -0.5122 -0.5166
  911MOL0     C22911   0.813   5.431  10.733  0.9168 -0.4676 -1.0815
  911MOL0     C22912   0.927   5.474  10.819 -0.6977  0.1080  0.1084
  911MOL0     C22913   1.005   5.357  10.887  1.0401 -0.2605 -0.4919
  911MOL0     C22914   1.128   5.395  10.944  0.1015  0.1085  0.4312
  911MOL0     C22915   1.244   5.422  10.980  0.4227  0.1687 -0.2082
  911MOL0     C22916   0.432   5.311  10.914  1.0776  0.1834  0.7074
  911MOL0     C22917   0.297   5.294  10.961 -0.1063 -0.2035 -0.6987
  911MOL0     H22918  -0.149   5.357  10.995 -0.4159 -0.2586  0.2473
  911MOL0     H22919  -0.395   5.323  11.033  2.0797 -1.1996 -0.8485
  911MOL0     H22920  -0.506   5.236  11.347  2.6005  1.2437 -0.5167
  911MOL0     H22921  -0.512   5.375  11.453 -4.3114  0.6841  1.3958
  911MOL0     H22922  -0.738   5.287  11.274 -1.9504 -1.9580  1.3105
  911MOL0     H22923  -0.721   5.243  11.450 -0.3996  1.5928  2.9166
  911MOL0     H22924  -0.732   5.487  11.503 -0.7454 -1.5721  1.6769
  911MOL0     H22925  -0.774   5.519  11.328  3.6062 -1.7618 -0.7483
  911MOL0     H22926  -0.963   5.354  11.345 -0.4485 -0.8521  0.4556
  911MOL0     H22927  -0.908   5.336  11.524  1.3441  0.6060  0.8645
  911MOL0     H22928  -0.993   5.551  11.574 -0.4129  3.8228 -0.2036
  911MOL0     H22929  -1.007   5.591  11.407 -0.9783  1.0923  1.3426
  911MOL0     H22930  -1.182   5.406  11.383 -0.7535 -1.7591  1.0029
  911MOL0     H22931  -1.183   5.378  11.549 -1.0358  1.2307  1.2751
  911MOL0     H22932  -1.249   5.669  11.455 -2.8103  0.3804 -0.9075
  911MOL0     H22933  -1.361   5.536  11.493 -0.1518  2.7982  0.0705
  911MOL0     H22934  -1.187   5.697  11.678  1.3219 -1.8617  0.1346
  911MOL0     H22935  -1.218   5.530  11.736  2.8300 -0.5841 -0.2391
  911MOL0     H22936  -1.552   5.569  11.606  0.9207 -0.9368  0.8262
  911MOL0     H22937  -1.766   5.583  11.783  0.2858 -0.2911  0.6867
  911MOL0     H22938  -1.765   5.683  11.910  4.1671 -1.1697  1.4349
  911MOL0     H22939  -1.841   5.738  11.626 -1.0194 -1.0708  0.5497
  911MOL0     H22940  -1.761   5.878  11.713 -1.9182  1.2362 -1.5432
  911MOL0     H22941  -1.930   5.881  11.881  0.2333  3.4403 -2.5856
  911MOL0     H22942  -1.986   5.717  11.839  0.3163  0.4738  1.4419
  911MOL0     H22943  -2.096   5.780  11.647 -1.0868  1.2189 -1.0104
  911MOL0     H22944  -1.994   5.919  11.625  0.2456  1.1264  0.2680
  911MOL0     H22945  -2.245   6.198  11.796 -1.6701  2.1125 -0.1259
  911MOL0     H22946  -2.391   6.361  11.813  0.3268  0.9251 -1.4517
  911MOL0     H22947  -2.522   6.349  11.701  3.8923  2.2835 -0.1805
  911MOL0     H22948  -2.546   6.313  11.879  0.3992  0.6447  0.7829
  911MOL0     H22949  -2.847   6.146  11.373  1.0122  1.3266  1.7566
  911MOL0     H22950  -3.086   6.218  11.338 -1.8356 -0.2330  0.5085
  911MOL0     H22951  -3.402   6.135  11.639  3.3600 -0.1331  2.7850
  911MOL0     H22952  -3.329   6.265  11.720 -0.9577 -0.5028  0.2510
  911MOL0     H22953  -3.563   6.339  11.673  0.8823  0.6986 -0.0833
  911MOL0     H22954  -3.456   6.417  11.547  0.8044  0.0769 -0.6853
  911MOL0     H22955  -3.593   6.144  11.519 -2.9493  0.7833  0.0886
  911MOL0     H22956  -3.544   6.262  11.389 -0.2904 -1.9344 -0.5008
  911MOL0     H22957  -3.754   6.380  11.575  1.1499 -0.1503  0.9619
  911MOL0     H22958  -3.724   6.393  11.415 -0.8985 -1.3473 -1.2765
  911MOL0     H22959  -3.821   6.159  11.389  0.1461  0.8566  0.7223
  911MOL0     H22960  -3.937   6.270  11.450 -1.9384 -3.4247 -1.4654
  911MOL0     H22961  -3.772   6.103  11.644  0.6583 -2.4621 -1.2098
  911MOL0     H22962  -3.922   6.212  11.662 -0.7931 -0.4942  0.6033
  911MOL0     H22963  -3.892   5.934  11.528  3.0213  0.2379  1.7176
  911MOL0     H22964  -4.031   6.035  11.504  0.1624  0.3106  0.2111
  911MOL0     H22965  -4.078   5.884  11.662 -1.6150  2.4568  0.1759
  911MOL0     H22966  -4.059   6.029  11.756  1.0146  0.8627  0.0810
  911MOL0     H22967  -3.190   6.081  11.731  1.4416  1.0357  1.5832
  911MOL0     H22968  -2.963   6.017  11.765 -2.3507  0.0261 -0.2370
  911MOL0     H22969  -2.555   5.857  11.630 -1.7087  1.4539 -0.2821
  911MOL0     H22970  -2.333   5.800  11.655  0.0043  0.4664  0.7178
  911MOL0     H22971  -0.353   5.562  11.389  2.8974  0.6580  1.2216
  911MOL0     H22972  -0.114   5.578  11.361  2.4033 -4.4362  2.4043
  911MOL0     H22973   0.274   5.579  11.135 -0.5487 -0.3885 -0.6686
  911MOL0     H22974   0.509   5.600  11.057  1.8312 -0.2696 -2.7339
  911MOL0     H22975   0.714   5.269  10.859  0.3446 -0.3850 -0.3733
  911MOL0     H22976   0.608   5.333  10.732  0.6530 -0.9647 -0.8492
  911MOL0     H22977   0.757   5.516  10.693 -1.0332 -2.1983 -2.1952
  911MOL0     H22978   0.849   5.376  10.646 -1.8754 -2.6359 -1.0277
  911MOL0     H22979   0.899   5.554  10.888  2.0599  1.1285  0.2002
  911MOL0     H22980   0.998   5.522  10.751 -1.8396  0.0743 -1.1228
  911MOL0     H22981   1.030   5.280  10.814  2.5679  1.5041 -1.9218
  911MOL0     H22982   0.940   5.329  10.971  0.1825 -1.1096 -1.4084
  911MOL0     H22983   1.348   5.428  11.004  0.5269  2.2277 -0.9377
  911MOL0     H22984   0.462   5.231  10.847 -1.0310 -2.4587  2.7025
  911MOL0     H22985   0.242   5.202  10.943  1.0329 -0.6116 -2.3591
  912MOL0     O22986   2.074   5.489   4.532  0.4458 -0.5723  0.1412
  912MOL0     C22987   2.109   5.404   4.609 -0.6869 -0.6032 -0.2755
  912MOL0     O22988   2.102   5.263   4.585  1.0228 -0.6885 -0.2364
  912MOL0     C22989   2.055   5.207   4.469  0.0394  0.3328 -0.3099
  912MOL0     C22990   2.051   5.267   4.339  0.5308  0.1854 -0.2132
  912MOL0     C22991   2.002   5.191   4.229 -1.1092  0.4176 -0.5807
  912MOL0     C22992   1.963   5.058   4.242  0.1471 -0.4387  0.9017
  912MOL0     O22993   1.917   4.993   4.133  0.2603  0.0403  1.4133
  912MOL0     C22994   1.859   4.867   4.156 -0.4752  0.7822  0.1607
  912MOL0     C22995   1.777   4.812   4.043 -0.7557 -0.6620  0.1037
  912MOL0     C22996   1.640   4.879   4.033 -0.4231 -0.2999 -0.2886
  912MOL0     C22997   1.561   4.829   3.904  0.4344 -0.0846 -0.2739
  912MOL0     C22998   1.415   4.881   3.908  0.1217  0.8219  0.4049
  912MOL0     C22999   1.351   4.845   3.772 -0.3082 -0.0596  0.4136
  912MOL0     C23000   1.191   4.878   3.780  0.0221 -0.3093  0.9137
  912MOL0     C23001   1.118   4.826   3.661 -0.0710 -0.5103 -0.4501
  912MOL0     N23002   0.976   4.869   3.656  0.2805  0.3588 -0.2750
  912MOL0     C23003   0.876   4.780   3.617  0.3235 -0.1835 -0.0662
  912MOL0     C23004   0.775   4.858   3.581 -0.4288 -0.1994  0.2221
  912MOL0     C23005   0.644   4.808   3.522 -0.2049  0.8392 -0.3458
  912MOL0     C23006   0.558   4.739   3.629 -0.1468  1.1251  0.1825
  912MOL0     C23007   0.430   4.699   3.556  0.8450  0.4313  0.1659
  912MOL0     C23008   0.315   4.682   3.644  0.4958 -0.1719  0.1288
  912MOL0     O23009   0.313   4.554   3.707  0.1608  1.0282  0.4823
  912MOL0     C23010   0.206   4.457   3.695 -0.6941  0.5826 -0.3078
  912MOL0     C23011   0.202   4.361   3.795 -0.0918 -0.4302 -0.3176
  912MOL0     C23012   0.105   4.269   3.801 -0.2098  0.5017 -0.3491
  912MOL0     C23013   0.101   4.187   3.933 -0.1467  0.0765  0.7646
  912MOL0     C23014   0.026   4.249   3.697  0.3278  0.5532  0.5204
  912MOL0     C23015  -0.098   4.152   3.692 -0.2555  0.6432 -0.4790
  912MOL0     O23016  -0.190   4.174   3.591  0.0751 -0.6133 -0.1162
  912MOL0     C23017  -0.315   4.122   3.593 -0.7303  0.5566 -0.3501
  912MOL0     C23018  -0.379   4.114   3.467 -0.7118 -0.3214 -0.2760
  912MOL0     C23019  -0.504   4.075   3.457  0.3964  0.6129  1.1859
  912MOL0     C23020  -0.574   4.026   3.567 -0.0336  0.3265  0.4594
  912MOL0     O23021  -0.696   3.975   3.539  0.2296 -0.5923  0.0443
  912MOL0     C23022  -0.790   3.933   3.636 -0.6751 -0.3859 -0.7063
  912MOL0     C23023  -0.926   3.908   3.571  0.7870  0.2104  0.0118
  912MOL0     C23024  -0.932   3.794   3.464 -0.7043 -0.2318  0.5877
  912MOL0     C23025  -1.071   3.760   3.419 -0.0273  0.4395  0.6666
  912MOL0     C23026  -1.126   3.855   3.313 -0.0400 -0.6005 -0.9518
  912MOL0     C23027  -1.041   3.886   3.185  0.5845  0.2705 -0.5202
  912MOL0     C23028  -1.004   3.766   3.109 -0.5112  0.1080  0.4048
  912MOL0     C23029  -0.953   3.798   2.971  0.6955  0.6882  0.3444
  912MOL0    Cl23030  -1.054   3.884   2.855 -0.3953 -0.1119 -0.5786
  912MOL0     C23031  -0.508   4.030   3.694  0.1867 -0.0727  0.3225
  912MOL0     C23032  -0.383   4.087   3.708 -0.3797  0.2203 -0.4236
  912MOL0     O23033  -0.099   4.055   3.763 -0.2572 -0.0081  0.5269
  912MOL0     C23034   0.037   4.338   3.590 -0.3984 -0.0497 -0.4942
  912MOL0     C23035   0.119   4.448   3.586  0.5692  0.0179 -1.1349
  912MOL0     N23036   0.804   4.990   3.585  0.6438  0.1307  0.5814
  912MOL0     N23037   0.932   4.992   3.634  0.5317 -0.2674  0.2657
  912MOL0     C23038   1.970   5.004   4.375  0.3782 -0.4453 -0.5996
  912MOL0     C23039   2.020   5.070   4.480 -0.4686  0.1075  0.1961
  912MOL0     C23040   2.192   5.432   4.733 -0.0134 -0.0001 -0.3398
  912MOL0     C23041   2.230   5.563   4.767 -0.0987  0.5422  0.3867
  912MOL0     C23042   2.296   5.584   4.889 -1.5200  0.2543 -0.1891
  912MOL0     C23043   2.352   5.466   4.963  1.0223 -0.3745  0.4371
  912MOL0     O23044   2.445   5.483   5.067 -0.3147 -0.4604 -0.3501
  912MOL0     C23045   2.573   5.417   5.061  0.1844  0.2150  0.0527
  912MOL0     C23046   2.675   5.498   5.134 -0.3682  0.9957  0.7173
  912MOL0     C23047   2.632   5.525   5.277 -0.1129 -1.0158 -0.2265
  912MOL0     C23048   2.747   5.488   5.370 -0.2798  0.5854  0.0049
  912MOL0     C23049   2.726   5.516   5.517  0.0552 -0.8434  0.0926
  912MOL0     C23050   2.721   5.564   5.623  0.7442  0.4054 -0.0649
  912MOL0     C23051   2.328   5.335   4.910 -0.6305  0.4264 -0.5260
  912MOL0     C23052   2.248   5.321   4.800  0.0495 -0.0582  0.1566
  912MOL0     H23053   2.088   5.368   4.323 -1.5533  1.4100  1.9282
  912MOL0     H23054   2.028   5.234   4.133  1.5326 -0.2853 -0.2613
  912MOL0     H23055   1.935   4.793   4.178 -0.9421  0.0506 -0.6190
  912MOL0     H23056   1.793   4.869   4.244 -1.2184 -3.0225 -0.1256
  912MOL0     H23057   1.836   4.818   3.951 -2.1549  2.0253 -0.7161
  912MOL0     H23058   1.746   4.707   4.052 -0.2934 -0.8936 -0.8156
  912MOL0     H23059   1.584   4.857   4.124  0.4574 -0.2869  0.2682
  912MOL0     H23060   1.653   4.987   4.021  1.2519 -0.4755 -0.3546
  912MOL0     H23061   1.621   4.874   3.825  2.4157  3.5763  2.9288
  912MOL0     H23062   1.554   4.721   3.889 -1.1915  0.0536 -0.6562
  912MOL0     H23063   1.363   4.828   3.988 -1.4542 -1.3855 -1.9408
  912MOL0     H23064   1.414   4.989   3.927  2.2659  1.6261 -2.9760
  912MOL0     H23065   1.388   4.907   3.691 -0.8154 -0.8732 -0.4693
  912MOL0     H23066   1.359   4.739   3.746  2.4171 -0.5010  2.6269
  912MOL0     H23067   1.139   4.836   3.867 -3.0992 -3.2801 -2.0551
  912MOL0     H23068   1.187   4.986   3.794  2.3400 -0.4495  3.4717
  912MOL0     H23069   1.123   4.716   3.659 -0.6808 -0.5416 -1.8421
  912MOL0     H23070   1.179   4.854   3.575  0.3060 -1.4284 -0.4939
  912MOL0     H23071   0.873   4.671   3.623  2.3695 -0.2848  0.0917
  912MOL0     H23072   0.586   4.892   3.482  0.7072  1.9992  0.6833
  912MOL0     H23073   0.666   4.735   3.444  0.4275  0.0406  0.5683
  912MOL0     H23074   0.533   4.820   3.699 -0.6223  0.3207  0.9588
  912MOL0     H23075   0.609   4.662   3.687 -1.3729 -0.0796 -0.2866
  912MOL0     H23076   0.444   4.612   3.490 -1.2579  1.2650 -1.4777
  912MOL0     H23077   0.399   4.783   3.494  0.4379  0.0947 -0.0942
  912MOL0     H23078   0.231   4.706   3.579  1.3717 -2.0263 -1.7722
  912MOL0     H23079   0.315   4.758   3.724 -2.6865  0.7340 -0.5917
  912MOL0     H23080   0.268   4.373   3.880 -0.6620 -0.6951  0.1688
  912MOL0     H23081   0.130   4.085   3.905 -1.5792 -0.2617  0.4169
  912MOL0     H23082   0.169   4.213   4.015  1.2923 -0.9442 -0.0607
  912MOL0     H23083  -0.001   4.197   3.972  0.1988  0.2094  1.6447
  912MOL0     H23084  -0.330   4.154   3.378 -0.9737  3.9165  1.2598
  912MOL0     H23085  -0.548   4.054   3.360 -1.7532 -0.7643  2.3726
  912MOL0     H23086  -0.765   3.834   3.676 -1.4028  0.2555  1.5098
  912MOL0     H23087  -0.782   3.999   3.723  0.4824  1.2523 -1.9852
  912MOL0     H23088  -0.992   3.889   3.656  0.4015 -2.4384 -0.7876
  912MOL0     H23089  -0.955   3.999   3.519  2.9807  1.7076  1.2485
  912MOL0     H23090  -0.881   3.707   3.506  0.6042 -0.3980 -1.2299
  912MOL0     H23091  -0.869   3.825   3.381  1.8379 -1.8040  1.8088
  912MOL0     H23092  -1.054   3.659   3.380  2.5092  1.5492 -1.3830
  912MOL0     H23093  -1.140   3.757   3.504 -0.8830  3.9396  0.2634
  912MOL0     H23094  -1.140   3.943   3.376 -2.2027 -2.4496  1.3815
  912MOL0     H23095  -1.227   3.828   3.281  0.0701 -0.6362 -1.2652
  912MOL0     H23096  -1.099   3.958   3.127  2.6888  1.7458 -0.9106
  912MOL0     H23097  -0.949   3.940   3.210  0.4227  0.0123  0.7122
  912MOL0     H23098  -1.098   3.711   3.094  0.0561 -0.7965  0.0318
  912MOL0     H23099  -0.940   3.701   3.169  0.8743  1.0449 -0.0138
  912MOL0     H23100  -0.948   3.700   2.922 -1.0482  0.0913  1.2523
  912MOL0     H23101  -0.853   3.843   2.972  0.9480  0.1734 -0.5608
  912MOL0     H23102  -0.565   3.998   3.781 -0.3676 -0.9913 -0.3641
  912MOL0     H23103  -0.343   4.099   3.808 -1.5376 -0.3820  0.1227
  912MOL0     H23104  -0.035   4.333   3.509 -0.6482 -2.6088 -0.1757
  912MOL0     H23105   0.118   4.524   3.509 -1.8259  1.9263  0.6232
  912MOL0     H23106   1.939   4.903   4.401 -0.9379  0.3300  0.9885
  912MOL0     H23107   2.022   5.022   4.577 -0.2241 -0.3074 -0.0119
  912MOL0     H23108   2.188   5.644   4.707 -2.3366 -0.5507  0.3690
  912MOL0     H23109   2.325   5.686   4.914  0.0422 -0.2825  0.2704
  912MOL0     H23110   2.570   5.322   5.115 -3.7828  0.7008  1.0103
  912MOL0     H23111   2.611   5.398   4.960  0.0947  1.1626 -0.1681
  912MOL0     H23112   2.689   5.590   5.077  1.5781  1.3609  1.6782
  912MOL0     H23113   2.765   5.436   5.137 -0.5434  0.7742  1.4421
  912MOL0     H23114   2.550   5.457   5.304  0.0212 -0.4981  1.6213
  912MOL0     H23115   2.608   5.630   5.292  1.0538 -0.7009 -0.4201
  912MOL0     H23116   2.832   5.551   5.340 -1.3713  2.1631  0.1020
  912MOL0     H23117   2.761   5.381   5.354 -3.1224  0.4338 -2.1621
  912MOL0     H23118   2.694   5.607   5.717  0.4829  0.2029 -0.0448
  912MOL0     H23119   2.374   5.252   4.962 -3.4276 -0.5142  0.6369
  912MOL0     H23120   2.221   5.221   4.768 -1.3913  0.0733  0.8381
  913MOL0     O23121  10.869   9.984   8.863  0.2863  0.1740 -0.2479
  913MOL0     C23122  10.912  10.057   8.959  0.1207 -0.6669 -0.1466
  913MOL0     O23123  10.840  10.118   9.064  0.1255  0.3676 -0.9240
  913MOL0     C23124  10.720  10.063   9.079  0.0869 -0.3860  1.0968
  913MOL0     C23125  10.613  10.145   9.089  1.5004  0.5753  0.4636
  913MOL0     C23126  10.476  10.089   9.093  0.5016 -0.2136 -0.1979
  913MOL0     C23127  10.456   9.954   9.091 -0.4619 -0.3257  0.0125
  913MOL0     O23128  10.330   9.888   9.080 -0.2327  0.3787 -0.0767
  913MOL0     C23129  10.202   9.952   9.090  0.4160  0.2831 -0.1873
  913MOL0     C23130  10.181  10.018   8.958 -0.5690 -0.4174 -0.0380
  913MOL0     C23131  10.036  10.050   8.923  0.1543 -0.7595  0.0962
  913MOL0     C23132   9.971  10.107   9.053 -0.3717  0.2923  0.4679
  913MOL0     C23133   9.827  10.160   9.026 -0.3986 -0.3976  0.0661
  913MOL0     C23134   9.787  10.213   9.159 -0.5684 -0.5439 -0.4372
  913MOL0     C23135   9.637  10.209   9.167  0.2143 -0.0177 -0.3323
  913MOL0     C23136   9.600  10.300   9.286  0.1348  0.6550 -0.1072
  913MOL0     N23137   9.466  10.279   9.341 -0.0279  0.0650  0.8169
  913MOL0     C23138   9.420  10.182   9.422 -0.5255 -0.4587 -0.9188
  913MOL0     C23139   9.293  10.207   9.451 -0.3049  0.5122  0.4516
  913MOL0     C23140   9.196  10.145   9.540  0.7400 -0.2644  0.2211
  913MOL0     C23141   9.209   9.989   9.552  0.1205 -0.5161 -0.3689
  913MOL0     C23142   9.176   9.917   9.425 -1.1848  0.0441  0.3865
  913MOL0     C23143   9.027   9.916   9.385 -0.2883 -0.6687 -0.5635
  913MOL0     O23144   8.949   9.868   9.496 -0.4534  0.2644  0.6451
  913MOL0     C23145   8.813   9.864   9.489 -0.2116 -0.1139  0.1846
  913MOL0     C23146   8.741   9.872   9.362 -0.3452 -0.3293 -0.8065
  913MOL0     C23147   8.600   9.872   9.370  0.3647 -0.4748 -0.0269
  913MOL0     C23148   8.537   9.890   9.236 -0.0706 -0.0994 -0.9454
  913MOL0     C23149   8.522   9.861   9.496 -0.5363 -0.3884  0.7683
  913MOL0     C23150   8.376   9.862   9.507 -0.3131  0.0880 -0.2537
  913MOL0     O23151   8.324   9.763   9.585 -0.0840  0.1420 -0.0423
  913MOL0     C23152   8.197   9.782   9.621  0.1142 -0.5643  0.1085
  913MOL0     C23153   8.158   9.878   9.718 -0.1176 -0.8058 -0.9594
  913MOL0     C23154   8.029   9.902   9.756  0.6927 -0.1896  0.2919
  913MOL0     C23155   7.927   9.829   9.686 -0.0848 -0.0161  0.1813
  913MOL0     O23156   7.786   9.835   9.692  0.0372  0.3559 -0.3276
  913MOL0     C23157   7.720   9.941   9.766 -0.0134  0.2862  0.0829
  913MOL0     C23158   7.712   9.898   9.915  1.0153 -0.2546  0.3870
  913MOL0     C23159   7.632   9.994  10.006 -0.2726  0.0864  0.5225
  913MOL0     C23160   7.624   9.927  10.144  0.4259  0.3729 -0.0460
  913MOL0     C23161   7.532  10.014  10.236  0.3723  0.7150  0.4718
  913MOL0     C23162   7.572  10.006  10.384 -0.1186  1.1098 -0.8565
  913MOL0     C23163   7.458  10.023  10.483 -0.6014  0.2612  0.5290
  913MOL0     C23164   7.513  10.002  10.626  0.1184  0.2685  0.3618
  913MOL0    Cl23165   7.403  10.068  10.747 -0.0753  0.1717  0.2769
  913MOL0     C23166   7.971   9.730   9.597  0.1322 -0.2802  0.2016
  913MOL0     C23167   8.105   9.704   9.560 -0.0360 -1.2387 -0.0817
  913MOL0     O23168   8.311   9.937   9.439  0.1128 -0.5420  0.6264
  913MOL0     C23169   8.606   9.846   9.606  0.3730 -0.3175  0.0196
  913MOL0     C23170   8.739   9.848   9.611 -0.2328 -0.1566 -0.6503
  913MOL0     N23171   9.264  10.320   9.373  0.9055 -0.1582  0.3911
  913MOL0     N23172   9.361  10.367   9.313 -0.6342  0.1588 -0.4158
  913MOL0     C23173  10.566   9.867   9.113  0.3171  0.1058  0.1396
  913MOL0     C23174  10.693   9.926   9.097  0.0191  0.1285  0.9398
  913MOL0     C23175  11.043  10.119   8.937  0.0339 -0.3176 -0.3657
  913MOL0     C23176  11.071  10.246   8.996 -0.5646  0.0608  0.1963
  913MOL0     C23177  11.191  10.313   8.963 -0.1310 -0.4354  0.3618
  913MOL0     C23178  11.290  10.266   8.879  0.1982  0.9865  0.4440
  913MOL0     O23179  11.404  10.340   8.847  0.0741 -0.1277 -0.2831
  913MOL0     C23180  11.501  10.297   8.751 -0.5296 -1.1225 -0.6055
  913MOL0     C23181  11.590  10.181   8.799 -0.8289 -0.2914 -0.3076
  913MOL0     C23182  11.653  10.190   8.941  0.2684  0.7573  0.4028
  913MOL0     C23183  11.760  10.296   8.935  0.0324  0.5897 -0.4307
  913MOL0     C23184  11.819  10.306   9.066  0.0196 -0.1393 -0.4875
  913MOL0     C23185  11.890  10.317   9.165 -0.6941  0.6891 -0.2208
  913MOL0     C23186  11.256  10.141   8.826 -0.1201 -0.4071  0.2855
  913MOL0     C23187  11.136  10.067   8.852  0.5007  0.3843  0.3350
  913MOL0     H23188  10.620  10.253   9.076  0.8843  0.3140 -2.6819
  913MOL0     H23189  10.398  10.164   9.101  1.0930  0.2414  1.9994
  913MOL0     H23190  10.131   9.870   9.104  1.0655 -0.3325 -0.4413
  913MOL0     H23191  10.198  10.026   9.171 -0.4644  0.3645 -0.2984
  913MOL0     H23192  10.239  10.110   8.957  2.1306 -2.0176  0.6679
  913MOL0     H23193  10.221   9.958   8.875  0.2520  2.9242 -2.2507
  913MOL0     H23194  10.035  10.121   8.839  0.7976  0.6259  1.2174
  913MOL0     H23195   9.982   9.962   8.886 -3.4272  0.0563  2.7803
  913MOL0     H23196   9.969  10.034   9.134  4.6107  0.4449  1.0361
  913MOL0     H23197  10.038  10.187   9.087  0.9119 -0.3460 -0.4650
  913MOL0     H23198   9.819  10.239   8.950  0.3363  0.1541  0.5443
  913MOL0     H23199   9.761  10.078   8.999 -1.7777  0.9017 -0.6847
  913MOL0     H23200   9.832  10.151   9.237  0.7556 -1.3284 -1.7610
  913MOL0     H23201   9.822  10.317   9.162 -2.1065  0.0122 -0.8504
  913MOL0     H23202   9.604  10.262   9.078  1.6046 -0.9748 -1.4687
  913MOL0     H23203   9.603  10.106   9.180  3.6660 -1.5731 -2.2683
  913MOL0     H23204   9.622  10.403   9.256 -0.4074 -0.0444 -3.2269
  913MOL0     H23205   9.672  10.272   9.363 -0.4055 -0.1002  0.1364
  913MOL0     H23206   9.487  10.112   9.471  1.5090  2.2132  0.3929
  913MOL0     H23207   9.211  10.201   9.633 -2.2358  4.1525 -1.6275
  913MOL0     H23208   9.096  10.184   9.520 -0.0403 -1.3755  1.7641
  913MOL0     H23209   9.159   9.955   9.644 -2.2614 -0.9697 -1.7390
  913MOL0     H23210   9.314   9.967   9.570  0.3277  0.1274 -0.7901
  913MOL0     H23211   9.209   9.813   9.426  0.4858  0.4416 -2.3394
  913MOL0     H23212   9.233   9.960   9.342 -1.8818 -0.7785 -0.5424
  913MOL0     H23213   9.024   9.848   9.299  0.5854  0.3852 -1.4618
  913MOL0     H23214   8.979  10.008   9.351 -0.0012  0.2194  1.3322
  913MOL0     H23215   8.798   9.878   9.269  0.6251  1.3530 -0.1531
  913MOL0     H23216   8.612   9.903   9.156 -0.9666  1.1394 -1.6192
  913MOL0     H23217   8.471   9.806   9.214 -0.7782  0.4434 -0.9276
  913MOL0     H23218   8.485   9.986   9.244  1.8332  0.8143  3.3790
  913MOL0     H23219   8.237   9.925   9.775 -1.8079 -0.2119  1.0195
  913MOL0     H23220   8.002   9.973   9.833 -2.4592  0.2813 -1.0903
  913MOL0     H23221   7.770  10.037   9.752 -2.3299  1.1812 -3.3103
  913MOL0     H23222   7.618   9.953   9.727 -0.1057 -1.6826 -0.3634
  913MOL0     H23223   7.661   9.802   9.923  0.3698  0.0152 -0.3421
  913MOL0     H23224   7.813   9.890   9.957  1.1582  0.9627  0.3262
  913MOL0     H23225   7.539  10.002   9.948  1.2287  0.3855 -1.9761
  913MOL0     H23226   7.686  10.089  10.019  1.1997 -0.3491 -1.9016
  913MOL0     H23227   7.586   9.825  10.136  0.3411  0.3744  0.3056
  913MOL0     H23228   7.725   9.920  10.187  0.1083  2.0622  1.0987
  913MOL0     H23229   7.428   9.980  10.235  1.0834 -1.7815  2.1550
  913MOL0     H23230   7.536  10.120  10.209 -1.6727 -0.0061 -3.4335
  913MOL0     H23231   7.610   9.903  10.393  0.0670  1.0543 -2.0390
  913MOL0     H23232   7.651  10.078  10.406 -1.0771  1.6695  0.8913
  913MOL0     H23233   7.373   9.959  10.459 -1.2542  0.9550  0.9436
  913MOL0     H23234   7.436  10.130  10.477  0.4886  0.4664 -0.1167
  913MOL0     H23235   7.612  10.047  10.633  0.5650 -0.8598  1.8039
  913MOL0     H23236   7.521   9.895  10.647  0.7999  0.3686  0.6454
  913MOL0     H23237   7.896   9.669   9.546 -0.1296 -1.5416  1.9865
  913MOL0     H23238   8.130   9.636   9.479 -0.0180 -0.1652 -1.0052
  913MOL0     H23239   8.555   9.842   9.702  2.0969  0.3483  1.0066
  913MOL0     H23240   8.777   9.831   9.711 -0.3252 -2.7577 -0.9626
  913MOL0     H23241  10.541   9.762   9.126  2.0302 -0.4248 -0.4754
  913MOL0     H23242  10.779   9.861   9.092 -0.0552  0.1439 -1.3274
  913MOL0     H23243  11.001  10.301   9.058 -2.0807 -1.7164  0.1646
  913MOL0     H23244  11.211  10.411   9.005 -2.1618 -0.3197  1.1989
  913MOL0     H23245  11.449  10.270   8.658 -0.3746 -0.4376 -0.9003
  913MOL0     H23246  11.564  10.382   8.720  0.1403 -2.2917 -2.6723
  913MOL0     H23247  11.678  10.174   8.734  0.6050  1.4696  1.3163
  913MOL0     H23248  11.538  10.086   8.780  0.1092 -0.7950 -0.4523
  913MOL0     H23249  11.699  10.094   8.967  1.7155  1.4814  0.6471
  913MOL0     H23250  11.579  10.220   9.016 -0.6728 -1.6574  0.5535
  913MOL0     H23251  11.709  10.387   8.901  0.6150  1.9064  1.9793
  913MOL0     H23252  11.829  10.268   8.855 -1.1068 -1.0783 -0.8811
  913MOL0     H23253  11.967  10.329   9.238  1.3996  0.4906 -2.2786
  913MOL0     H23254  11.329  10.088   8.765 -1.7105 -0.1584 -1.9572
  913MOL0     H23255  11.101   9.966   8.834 -1.2549  0.8981  0.7220
  914MOL0     O23256   3.579   8.463   8.049  0.7901 -0.5558 -0.0205
  914MOL0     C23257   3.659   8.536   7.989 -0.2587 -0.3103 -0.2154
  914MOL0     O23258   3.633   8.640   7.902 -0.1348  0.1612  0.0366
  914MOL0     C23259   3.511   8.654   7.844  0.3337  0.2471 -0.9464
  914MOL0     C23260   3.488   8.583   7.727  0.0567  1.1220 -0.6903
  914MOL0     C23261   3.361   8.581   7.666 -0.0229  0.4812  0.2673
  914MOL0     C23262   3.264   8.657   7.738 -0.0050  0.6767 -0.4287
  914MOL0     O23263   3.140   8.669   7.678 -0.1347  0.0032  0.2114
  914MOL0     C23264   3.027   8.634   7.759 -0.5728 -0.1522  0.2782
  914MOL0     C23265   2.902   8.619   7.669  0.5706  0.5607 -0.7567
  914MOL0     C23266   2.884   8.744   7.583  0.3676 -0.0785  0.1238
  914MOL0     C23267   2.735   8.748   7.524  0.2732  0.1287  0.7818
  914MOL0     C23268   2.716   8.830   7.399 -0.1397  0.6931 -0.3010
  914MOL0     C23269   2.568   8.857   7.357  0.2107 -1.1019 -0.6278
  914MOL0     C23270   2.558   8.940   7.227  0.2047 -0.2092  1.4520
  914MOL0     C23271   2.408   8.960   7.197  0.0482 -0.8298 -0.1728
  914MOL0     N23272   2.384   9.046   7.088  0.7211  0.2068  0.3552
  914MOL0     C23273   2.422   9.029   6.958  0.2446  1.0189 -0.2997
  914MOL0     C23274   2.341   9.114   6.888 -0.7689 -0.1123 -0.9856
  914MOL0     C23275   2.342   9.150   6.740 -0.6606 -0.5193 -0.5672
  914MOL0     C23276   2.200   9.163   6.691 -0.2733  0.8500  0.3298
  914MOL0     C23277   2.199   9.187   6.537 -0.5693 -0.2209  0.1496
  914MOL0     C23278   2.068   9.147   6.472  0.0815 -0.0873  0.3196
  914MOL0     O23279   1.972   9.252   6.506 -0.2616 -0.4044  0.1469
  914MOL0     C23280   1.836   9.224   6.492 -0.0442 -0.5833  0.3505
  914MOL0     C23281   1.733   9.310   6.537 -0.4951 -0.2646  0.1351
  914MOL0     C23282   1.594   9.287   6.537  0.8031 -0.0727 -0.7733
  914MOL0     C23283   1.511   9.394   6.610 -0.3476 -0.4558 -0.0300
  914MOL0     C23284   1.547   9.167   6.479 -0.8012  0.0919  0.3132
  914MOL0     C23285   1.405   9.125   6.483  0.0971 -0.4591  0.4720
  914MOL0     O23286   1.374   9.004   6.426  0.1260  0.0589  0.0560
  914MOL0     C23287   1.254   8.939   6.425  0.3782 -0.3224 -0.5354
  914MOL0     C23288   1.228   8.831   6.519 -0.8681  0.5774 -0.9541
  914MOL0     C23289   1.098   8.775   6.538 -0.0623 -0.1396  0.2131
  914MOL0     C23290   0.998   8.827   6.456 -0.9661  0.0152  0.4066
  914MOL0     O23291   0.879   8.783   6.462  0.6675 -0.2046  0.5397
  914MOL0     C23292   0.874   8.648   6.420 -0.0977 -0.3074  0.6704
  914MOL0     C23293   0.735   8.588   6.441  0.2157 -0.5680 -0.0469
  914MOL0     C23294   0.734   8.437   6.432  0.2962 -0.0488 -0.1077
  914MOL0     C23295   0.597   8.383   6.422  0.6432 -0.4294 -0.0379
  914MOL0     C23296   0.602   8.237   6.387 -0.7198  0.3839  0.3335
  914MOL0     C23297   0.469   8.172   6.353  0.3870 -0.0778  0.3877
  914MOL0     C23298   0.404   8.088   6.457  0.8213  0.1514 -1.4853
  914MOL0     C23299   0.343   8.170   6.572 -0.3009 -0.3030  0.3922
  914MOL0    Cl23300   0.212   8.084   6.657 -0.1774 -0.1664  0.0076
  914MOL0     C23301   1.021   8.936   6.366 -0.4743  0.2472  0.4846
  914MOL0     C23302   1.150   8.987   6.346  0.0344  0.7384 -0.3650
  914MOL0     O23303   1.322   9.205   6.524 -0.3100 -0.5398 -0.1836
  914MOL0     C23304   1.647   9.084   6.421  0.3334  0.6320  0.1339
  914MOL0     C23305   1.782   9.113   6.422  0.0463 -0.3219 -0.7983
  914MOL0     N23306   2.261   9.183   6.982 -0.5535 -0.2300  0.1242
  914MOL0     N23307   2.290   9.139   7.094 -0.4585  0.8516  0.1950
  914MOL0     C23308   3.293   8.735   7.851  0.3284  0.2170 -0.5933
  914MOL0     C23309   3.418   8.734   7.904  0.0459 -0.1468 -0.0181
  914MOL0     C23310   3.798   8.525   8.032 -0.1996  0.8000 -0.7267
  914MOL0     C23311   3.894   8.623   8.000  0.1522  1.0219 -0.5763
  914MOL0     C23312   4.018   8.613   8.062 -0.3885 -0.2945 -0.3790
  914MOL0     C23313   4.059   8.506   8.141  1.4163  0.0610  0.2265
  914MOL0     O23314   4.188   8.503   8.193 -0.0394  0.6389  0.1670
  914MOL0     C23315   4.239   8.375   8.232  0.2549  1.0110  0.2232
  914MOL0     C23316   4.259   8.284   8.109 -0.1460 -0.2262  0.5122
  914MOL0     C23317   4.390   8.295   8.031 -0.2938  0.8873 -0.5515
  914MOL0     C23318   4.404   8.427   7.960 -0.3902  0.3987  0.3864
  914MOL0     C23319   4.518   8.432   7.871  0.3393  0.3778 -0.7527
  914MOL0     C23320   4.608   8.459   7.786 -0.6651  0.7914 -0.1027
  914MOL0     C23321   3.966   8.409   8.166 -1.0208 -0.2661 -0.4019
  914MOL0     C23322   3.838   8.411   8.104 -0.8063  0.6024 -0.7146
  914MOL0     H23323   3.567   8.530   7.674  0.7335  1.9209 -0.5037
  914MOL0     H23324   3.333   8.531   7.573 -0.3226  2.2387 -0.6313
  914MOL0     H23325   3.039   8.538   7.810 -2.5203 -1.0657 -0.8278
  914MOL0     H23326   3.015   8.709   7.837  1.1186  0.7385 -0.2857
  914MOL0     H23327   2.913   8.521   7.621  2.1282 -0.0599  0.7920
  914MOL0     H23328   2.812   8.616   7.731  0.3157  1.1113 -1.0888
  914MOL0     H23329   2.885   8.838   7.639 -0.9891 -0.0414  0.1022
  914MOL0     H23330   2.966   8.748   7.511 -0.8623 -2.9372 -1.5932
  914MOL0     H23331   2.697   8.646   7.511 -0.9949  0.6548  0.2331
  914MOL0     H23332   2.668   8.797   7.595 -0.4716  1.2684 -0.6597
  914MOL0     H23333   2.761   8.929   7.413 -0.6187  0.8306  0.3308
  914MOL0     H23334   2.783   8.799   7.318  0.7862 -0.2946  0.8154
  914MOL0     H23335   2.530   8.756   7.341  2.3415 -1.9370 -0.6861
  914MOL0     H23336   2.518   8.911   7.438 -0.8488 -2.6334 -0.2265
  914MOL0     H23337   2.612   9.033   7.246 -0.2527  0.0058  1.7130
  914MOL0     H23338   2.602   8.894   7.138 -3.4393 -1.3996  0.0744
  914MOL0     H23339   2.370   9.004   7.290  1.3521  1.0667 -0.5027
  914MOL0     H23340   2.357   8.864   7.182  0.8165 -1.0800 -1.2948
  914MOL0     H23341   2.492   8.961   6.910  0.6051  1.0576  0.1579
  914MOL0     H23342   2.390   9.248   6.735 -0.0265 -0.7039  1.0547
  914MOL0     H23343   2.399   9.078   6.680  2.4162  1.2600  0.0279
  914MOL0     H23344   2.159   9.245   6.751 -1.8333 -0.4863  1.1728
  914MOL0     H23345   2.152   9.066   6.706  2.4965 -0.6973 -0.1574
  914MOL0     H23346   2.274   9.122   6.492 -0.0934 -0.9676  1.9593
  914MOL0     H23347   2.212   9.293   6.512  0.1312  0.0862  1.6993
  914MOL0     H23348   2.039   9.048   6.507 -2.0485  0.6426  0.7795
  914MOL0     H23349   2.087   9.139   6.365  1.1385 -0.0615  0.4951
  914MOL0     H23350   1.775   9.385   6.603 -2.2214  1.4773 -0.6610
  914MOL0     H23351   1.476   9.458   6.528 -0.6773 -0.9070 -0.2422
  914MOL0     H23352   1.425   9.360   6.670 -0.3037  0.0307  0.3184
  914MOL0     H23353   1.570   9.453   6.680 -0.0797 -1.2534  0.4217
  914MOL0     H23354   1.312   8.800   6.581 -0.1351  0.6858 -1.8784
  914MOL0     H23355   1.087   8.696   6.612  0.8451 -0.3761  0.1061
  914MOL0     H23356   0.906   8.627   6.318  2.5212 -0.3787  1.4307
  914MOL0     H23357   0.943   8.589   6.481  0.7010 -1.3714 -1.1724
  914MOL0     H23358   0.688   8.622   6.534  0.5092 -2.1356  0.7136
  914MOL0     H23359   0.680   8.622   6.353  1.2888 -2.8369 -1.7129
  914MOL0     H23360   0.783   8.386   6.516 -2.3544 -1.0790  0.9158
  914MOL0     H23361   0.793   8.416   6.343  0.8190  2.2373 -0.3664
  914MOL0     H23362   0.538   8.402   6.513  0.8147  5.2661 -0.7628
  914MOL0     H23363   0.543   8.436   6.343  0.0072  0.1239  0.7458
  914MOL0     H23364   0.648   8.176   6.465 -0.3436  0.4275  0.1442
  914MOL0     H23365   0.665   8.215   6.301 -0.8587 -0.4684  0.4361
  914MOL0     H23366   0.397   8.241   6.308  1.2331 -0.4890 -1.7330
  914MOL0     H23367   0.481   8.094   6.277  0.1040  0.3519 -0.1015
  914MOL0     H23368   0.457   8.001   6.494  2.9618  0.8405 -2.7580
  914MOL0     H23369   0.316   8.045   6.407 -0.4867 -0.4268  1.1620
  914MOL0     H23370   0.297   8.260   6.531 -1.1366 -1.1651 -0.6042
  914MOL0     H23371   0.418   8.195   6.648 -0.2426 -1.4580  0.7340
  914MOL0     H23372   0.939   8.961   6.298  1.5411 -1.4674 -2.8515
  914MOL0     H23373   1.152   9.078   6.286  0.0690  0.6715 -0.4666
  914MOL0     H23374   1.614   8.994   6.369 -0.2883  1.6583 -1.3149
  914MOL0     H23375   1.852   9.035   6.395  0.5731  0.1327 -0.7673
  914MOL0     H23376   3.214   8.800   7.886  1.6917  2.0014 -0.6863
  914MOL0     H23377   3.446   8.806   7.981 -2.1065 -0.6245  1.2837
  914MOL0     H23378   3.860   8.705   7.937 -4.0970  0.9309  1.2011
  914MOL0     H23379   4.096   8.687   8.049 -2.2984  1.8009 -0.4806
  914MOL0     H23380   4.337   8.383   8.281  1.2633 -2.0561 -1.0339
  914MOL0     H23381   4.174   8.333   8.310  1.0202  0.3899  0.5425
  914MOL0     H23382   4.175   8.290   8.041 -1.2501  0.5062  1.8890
  914MOL0     H23383   4.250   8.178   8.137 -0.1474 -0.8395 -1.6400
  914MOL0     H23384   4.385   8.221   7.950  0.1537  0.3401 -0.0889
  914MOL0     H23385   4.480   8.282   8.093  0.1249  0.5888 -1.2095
  914MOL0     H23386   4.396   8.513   8.027  0.4280  0.4659  0.4164
  914MOL0     H23387   4.308   8.443   7.911 -1.3122  1.9319  2.5364
  914MOL0     H23388   4.677   8.475   7.705 -0.1930 -0.2730  0.0772
  914MOL0     H23389   3.999   8.321   8.221  4.8357  0.7896 -1.5590
  914MOL0     H23390   3.761   8.336   8.124 -0.7762  1.0270  1.2487
  915MOL0     O23391   6.777   3.847   5.819 -0.2743  0.8099 -0.3475
  915MOL0     C23392   6.877   3.793   5.872 -0.3004  0.6597  0.8928
  915MOL0     O23393   6.879   3.684   5.953 -1.0738  0.3198 -0.0523
  915MOL0     C23394   6.771   3.608   5.964  0.7789  0.6089  0.6334
  915MOL0     C23395   6.681   3.619   6.070 -0.0731 -1.1068 -0.1543
  915MOL0     C23396   6.569   3.544   6.069  0.2697  0.1569  0.3376
  915MOL0     C23397   6.534   3.455   5.962 -0.7021  0.4605 -0.3691
  915MOL0     O23398   6.419   3.385   5.943  0.5101  0.2857 -0.0384
  915MOL0     C23399   6.318   3.397   6.043 -0.3291  0.7170  0.0663
  915MOL0     C23400   6.227   3.275   6.041 -0.8167 -0.1631 -0.5902
  915MOL0     C23401   6.091   3.320   6.083 -0.6438 -0.8624  0.2233
  915MOL0     C23402   6.007   3.194   6.111  0.1028 -0.1980 -1.1836
  915MOL0     C23403   5.873   3.234   6.146 -0.4352 -0.3583 -0.5986
  915MOL0     C23404   5.794   3.107   6.181  0.2124 -0.0068  0.2507
  915MOL0     C23405   5.658   3.139   6.236  0.3507  0.0245  0.0581
  915MOL0     C23406   5.671   3.181   6.381  0.2064 -0.2958  0.1126
  915MOL0     N23407   5.541   3.196   6.441 -0.2785 -0.4935  0.5178
  915MOL0     C23408   5.463   3.312   6.457 -0.0625 -0.2047  1.2710
  915MOL0     C23409   5.346   3.268   6.505 -0.2654  0.9910 -0.7731
  915MOL0     C23410   5.236   3.363   6.544 -0.2868 -0.0131 -0.0929
  915MOL0     C23411   5.100   3.292   6.517  0.8662 -0.3777  0.1874
  915MOL0     C23412   4.977   3.384   6.510 -0.5486  0.4676 -0.4490
  915MOL0     C23413   4.854   3.305   6.555 -0.6709  0.0816  0.0288
  915MOL0     O23414   4.759   3.401   6.604 -0.1397 -0.2747 -0.3742
  915MOL0     C23415   4.626   3.370   6.583  0.0992 -1.0613  0.2797
  915MOL0     C23416   4.543   3.463   6.636  0.1478 -0.1674 -0.6712
  915MOL0     C23417   4.408   3.447   6.647  0.2116 -0.5838 -0.3976
  915MOL0     C23418   4.328   3.572   6.690  0.3976  0.6302 -0.0552
  915MOL0     C23419   4.353   3.322   6.609  0.5684 -0.7363  0.4818
  915MOL0     C23420   4.212   3.280   6.628 -0.7036  0.1902  0.4410
  915MOL0     O23421   4.175   3.172   6.555 -0.4325  0.4424  0.8281
  915MOL0     C23422   4.048   3.124   6.573 -0.9582 -0.3512  0.7288
  915MOL0     C23423   3.941   3.189   6.521 -0.0119  0.5087 -0.6053
  915MOL0     C23424   3.815   3.131   6.526  0.1789 -0.0039 -0.0666
  915MOL0     C23425   3.798   2.999   6.568  1.0879 -0.0448  0.7655
  915MOL0     O23426   3.675   2.940   6.569 -0.2129  0.0099 -0.6130
  915MOL0     C23427   3.657   2.805   6.526 -0.3246  1.4461 -0.5833
  915MOL0     C23428   3.525   2.750   6.572  0.4727 -0.9498 -0.2844
  915MOL0     C23429   3.481   2.628   6.501 -0.1531  0.5097  0.5767
  915MOL0     C23430   3.333   2.580   6.504 -0.4672  0.3996  0.1276
  915MOL0     C23431   3.316   2.437   6.427 -1.2187 -0.1702  0.2879
  915MOL0     C23432   3.190   2.373   6.485  0.8837 -0.1941 -0.9113
  915MOL0     C23433   3.167   2.234   6.423 -0.4622 -0.1213 -0.2229
  915MOL0     C23434   3.025   2.189   6.438  0.5769  0.4230 -0.1904
  915MOL0    Cl23435   3.015   2.012   6.439  0.2169  0.0404  0.3121
  915MOL0     C23436   3.911   2.929   6.621  0.0083  0.5870  0.7662
  915MOL0     C23437   4.034   2.990   6.620 -0.1150 -0.1267 -1.1209
  915MOL0     O23438   4.145   3.326   6.722 -0.1668 -0.0160  1.1276
  915MOL0     C23439   4.441   3.224   6.554 -0.3707 -0.3511  0.2878
  915MOL0     C23440   4.575   3.251   6.543  1.2680  0.5725 -0.3703
  915MOL0     N23441   5.357   3.123   6.508 -0.0561  0.2429  0.2494
  915MOL0     N23442   5.475   3.090   6.485  0.2464  0.2811 -0.4716
  915MOL0     C23443   6.625   3.448   5.857 -0.6356 -0.0227 -0.2321
  915MOL0     C23444   6.748   3.514   5.867 -0.8085  0.4352 -0.4245
  915MOL0     C23445   7.006   3.839   5.818 -0.5279 -0.5762  0.7885
  915MOL0     C23446   7.126   3.789   5.863 -1.1648 -0.1728 -1.0138
  915MOL0     C23447   7.241   3.856   5.830 -0.7498  0.5745 -0.1858
  915MOL0     C23448   7.247   3.968   5.749  0.0475 -0.1818  0.2382
  915MOL0     O23449   7.374   4.035   5.744  0.1465  0.2303  0.6510
  915MOL0     C23450   7.371   4.170   5.715  0.7302 -0.6801  1.9059
  915MOL0     C23451   7.486   4.254   5.776  0.0537 -0.1878 -0.1483
  915MOL0     C23452   7.626   4.192   5.753 -0.1757 -0.2994 -0.2992
  915MOL0     C23453   7.754   4.258   5.806 -0.2199 -0.3262 -0.2067
  915MOL0     C23454   7.732   4.336   5.930 -0.9328  0.5634 -0.0641
  915MOL0     C23455   7.716   4.404   6.030  0.1674  0.4827  0.4853
  915MOL0     C23456   7.124   4.011   5.696  0.7038 -0.2304 -0.2129
  915MOL0     C23457   7.005   3.956   5.737 -0.8264  0.5722  0.0190
  915MOL0     H23458   6.700   3.694   6.146 -0.8993 -3.4110  2.5288
  915MOL0     H23459   6.494   3.546   6.147 -2.2608 -2.9951 -1.7659
  915MOL0     H23460   6.361   3.406   6.143 -1.2558  3.0551  0.3204
  915MOL0     H23461   6.248   3.480   6.028 -0.6491  0.7068  1.3579
  915MOL0     H23462   6.230   3.232   5.940 -0.7353 -1.4169 -0.0737
  915MOL0     H23463   6.268   3.193   6.102 -0.5782  0.2791 -0.1515
  915MOL0     H23464   6.091   3.374   6.178 -0.8649 -2.3111  1.0818
  915MOL0     H23465   6.039   3.385   6.013 -0.6505 -0.1475  0.8827
  915MOL0     H23466   5.994   3.144   6.015 -1.8179 -0.5556 -0.7622
  915MOL0     H23467   6.047   3.124   6.185 -2.0327  0.9883  1.2194
  915MOL0     H23468   5.879   3.297   6.235 -2.4405  0.6537 -1.1064
  915MOL0     H23469   5.810   3.283   6.072 -0.4209 -1.7403 -1.5789
  915MOL0     H23470   5.785   3.054   6.086  2.6799 -0.5131  0.2075
  915MOL0     H23471   5.848   3.040   6.249 -2.1463 -0.0148  2.2472
  915MOL0     H23472   5.612   3.219   6.178 -0.6981 -0.4451  0.2189
  915MOL0     H23473   5.596   3.050   6.220  1.6244 -0.6838 -1.2496
  915MOL0     H23474   5.705   3.285   6.394 -4.1791  1.3647  0.1554
  915MOL0     H23475   5.734   3.116   6.443  2.8044  0.5488 -1.4532
  915MOL0     H23476   5.501   3.411   6.436 -0.8530 -0.4830 -1.9444
  915MOL0     H23477   5.246   3.396   6.647 -0.7760 -1.0471  0.3000
  915MOL0     H23478   5.239   3.456   6.487 -1.1648  0.9326  1.3509
  915MOL0     H23479   5.083   3.218   6.596 -0.2426 -1.3249 -0.8957
  915MOL0     H23480   5.103   3.234   6.424  2.7218 -2.5294  1.4646
  915MOL0     H23481   4.951   3.420   6.409 -0.1889  0.7229 -0.4518
  915MOL0     H23482   4.994   3.472   6.573 -0.7321 -0.3899  0.8316
  915MOL0     H23483   4.879   3.233   6.633  1.8272  1.3488  0.5003
  915MOL0     H23484   4.816   3.249   6.470 -0.9188  0.2921  0.0001
  915MOL0     H23485   4.583   3.552   6.684  0.6519 -0.9482  0.4151
  915MOL0     H23486   4.368   3.662   6.642 -0.1949 -0.3681 -2.6394
  915MOL0     H23487   4.221   3.568   6.663 -0.7524  2.8332  3.5168
  915MOL0     H23488   4.335   3.596   6.796 -1.5637  3.3716 -0.4157
  915MOL0     H23489   3.961   3.289   6.484  0.0842  0.0592 -1.8093
  915MOL0     H23490   3.730   3.181   6.480 -1.1140  0.0249  2.1962
  915MOL0     H23491   3.680   2.785   6.421 -1.0572 -2.1702 -0.1866
  915MOL0     H23492   3.728   2.738   6.575 -2.3665  1.8129  3.3152
  915MOL0     H23493   3.512   2.731   6.679  3.2839  0.7940  0.4866
  915MOL0     H23494   3.458   2.835   6.553  1.5219  0.3067  1.3161
  915MOL0     H23495   3.528   2.540   6.547 -0.2307  0.0987 -0.1096
  915MOL0     H23496   3.510   2.641   6.397  0.6570 -2.5176  0.3157
  915MOL0     H23497   3.306   2.564   6.609  0.2035 -3.7673 -0.1623
  915MOL0     H23498   3.259   2.646   6.459 -0.3029 -0.0916 -0.8934
  915MOL0     H23499   3.401   2.371   6.446  0.1481  0.1181 -3.7692
  915MOL0     H23500   3.308   2.440   6.318 -0.4100 -0.2430  0.2224
  915MOL0     H23501   3.184   2.369   6.594 -0.1538  4.3375 -0.5839
  915MOL0     H23502   3.107   2.433   6.447 -1.8164 -1.7644  2.0692
  915MOL0     H23503   3.226   2.167   6.486  1.7952  1.6739 -0.2924
  915MOL0     H23504   3.188   2.230   6.315 -0.6246  1.2244 -0.3322
  915MOL0     H23505   2.960   2.233   6.361  0.0302  0.8334  0.5031
  915MOL0     H23506   2.994   2.232   6.533 -1.3631  0.3381 -0.7319
  915MOL0     H23507   3.917   2.834   6.673 -0.6358 -0.0517 -0.3003
  915MOL0     H23508   4.127   2.953   6.661 -0.4199  2.5482  2.4260
  915MOL0     H23509   4.413   3.125   6.519  1.2140 -0.3367 -1.2054
  915MOL0     H23510   4.639   3.167   6.518 -0.2707 -0.7339 -0.0817
  915MOL0     H23511   6.613   3.375   5.778 -0.9071  0.4563 -0.6374
  915MOL0     H23512   6.833   3.504   5.801  1.5662  0.1200  2.4726
  915MOL0     H23513   7.130   3.705   5.932 -0.2933  0.9781  0.3932
  915MOL0     H23514   7.332   3.816   5.874 -1.4784  0.1983  1.0385
  915MOL0     H23515   7.366   4.174   5.606  0.3185  0.0746  1.9502
  915MOL0     H23516   7.277   4.210   5.753 -0.0600  1.6676 -1.9478
  915MOL0     H23517   7.460   4.262   5.882  0.2380 -0.0254 -0.1158
  915MOL0     H23518   7.495   4.349   5.723 -0.6273  0.5954  1.0750
  915MOL0     H23519   7.631   4.197   5.644 -0.0828 -0.4854 -0.3018
  915MOL0     H23520   7.601   4.097   5.801 -2.2247 -0.1883 -1.0513
  915MOL0     H23521   7.791   4.328   5.731 -0.2442 -1.0742 -0.9280
  915MOL0     H23522   7.832   4.182   5.813 -1.6632 -1.7957  0.7616
  915MOL0     H23523   7.688   4.474   6.107 -3.5497  0.7838 -0.9126
  915MOL0     H23524   7.126   4.094   5.626  1.9778  0.1137  0.1955
  915MOL0     H23525   6.917   4.010   5.703 -0.3091  1.3635 -0.1090
  916MOL0     O23526   8.699   9.072   5.429 -0.1415 -0.2496 -0.3847
  916MOL0     C23527   8.656   8.957   5.440 -0.2586  0.2141 -1.0168
  916MOL0     O23528   8.546   8.901   5.376 -0.6570 -0.3244 -0.1499
  916MOL0     C23529   8.480   8.986   5.291 -0.3141  0.0333  0.4977
  916MOL0     C23530   8.357   8.933   5.264 -0.3455  0.0359 -0.5602
  916MOL0     C23531   8.261   8.996   5.190 -0.9667  0.4237 -0.0672
  916MOL0     C23532   8.285   9.125   5.149 -0.3469  0.6364  0.8305
  916MOL0     O23533   8.203   9.190   5.068 -0.0077 -0.2130 -0.1849
  916MOL0     C23534   8.080   9.122   5.027  0.2747 -0.5024  0.1609
  916MOL0     C23535   7.969   9.150   5.121  0.3754 -0.7255  0.6116
  916MOL0     C23536   7.831   9.086   5.090 -0.1866 -0.8150 -0.3330
  916MOL0     C23537   7.740   9.180   5.005  0.3522 -0.4475  0.4624
  916MOL0     C23538   7.594   9.146   5.018  0.0294 -0.3035 -0.4916
  916MOL0     C23539   7.508   9.230   4.924  0.0286  0.6266  1.2922
  916MOL0     C23540   7.369   9.178   4.932  0.6617  1.2397 -0.7821
  916MOL0     C23541   7.280   9.254   4.836 -0.2189 -0.7745  0.1465
  916MOL0     N23542   7.140   9.211   4.837  0.3068 -0.1398  0.4363
  916MOL0     C23543   7.085   9.086   4.806 -0.1294  0.1066  0.6517
  916MOL0     C23544   6.953   9.103   4.800  0.6499  0.5734 -0.4280
  916MOL0     C23545   6.861   8.988   4.775  0.5425 -0.5170 -0.2520
  916MOL0     C23546   6.711   9.029   4.753 -1.0074 -0.1627  0.6622
  916MOL0     C23547   6.626   8.904   4.700  0.1517 -0.2782  0.4467
  916MOL0     C23548   6.487   8.932   4.644 -0.6435 -0.1941 -0.5546
  916MOL0     O23549   6.408   9.022   4.725 -0.2491 -0.6193 -0.9680
  916MOL0     C23550   6.277   9.056   4.696  0.1840 -0.2474  0.2222
  916MOL0     C23551   6.186   9.111   4.795 -0.0508 -0.0011 -0.2937
  916MOL0     C23552   6.050   9.129   4.776  0.3547 -0.4490 -0.1202
  916MOL0     C23553   5.967   9.203   4.893  0.8169 -0.6334  0.0376
  916MOL0     C23554   5.987   9.088   4.653 -0.7215 -0.1394  0.6159
  916MOL0     C23555   5.838   9.066   4.629  0.0795  0.1961  0.1584
  916MOL0     O23556   5.813   9.046   4.502  0.5813 -0.4091  0.0326
  916MOL0     C23557   5.683   9.037   4.453 -0.2589 -0.5877 -0.7574
  916MOL0     C23558   5.561   9.022   4.529 -0.0482  0.2159  0.6810
  916MOL0     C23559   5.435   9.015   4.467  0.0675  0.7677 -0.0179
  916MOL0     C23560   5.423   9.020   4.326  1.1254 -1.2599  0.1384
  916MOL0     O23561   5.302   9.020   4.265 -0.7227 -0.0253  0.4645
  916MOL0     C23562   5.241   8.894   4.261 -0.0499  0.1535  0.2170
  916MOL0     C23563   5.093   8.892   4.317 -0.1211 -0.1971 -0.4589
  916MOL0     C23564   5.085   8.843   4.459  0.4469  0.5478 -0.3271
  916MOL0     C23565   4.943   8.774   4.494 -0.8409  0.2972 -0.3940
  916MOL0     C23566   4.829   8.869   4.478 -0.2221 -0.2422 -0.0694
  916MOL0     C23567   4.800   8.966   4.597  0.4436  0.4120 -0.7805
  916MOL0     C23568   4.682   9.068   4.573  0.2208  0.6803  0.6787
  916MOL0     C23569   4.548   9.001   4.597 -0.7816  0.6938 -0.6054
  916MOL0    Cl23570   4.488   8.925   4.449  0.0303  0.0319  0.3242
  916MOL0     C23571   5.538   9.033   4.251 -0.7356  0.5345 -0.0347
  916MOL0     C23572   5.667   9.040   4.310 -0.0661 -0.7119 -0.6954
  916MOL0     O23573   5.757   9.087   4.716  0.2516  0.1028 -0.1542
  916MOL0     C23574   6.073   9.033   4.559 -0.1406 -0.2593 -0.7041
  916MOL0     C23575   6.212   9.018   4.577 -0.1622 -0.6177  0.4297
  916MOL0     N23576   6.932   9.231   4.850  0.0877 -0.5078  0.2458
  916MOL0     N23577   7.040   9.294   4.879  0.0658  0.2425  0.0312
  916MOL0     C23578   8.405   9.198   5.189  0.2500  0.8213  0.3094
  916MOL0     C23579   8.502   9.119   5.250  0.0388 -0.5451  0.2495
  916MOL0     C23580   8.718   8.864   5.532  0.0638 -0.2530  0.1769
  916MOL0     C23581   8.696   8.722   5.520  0.2540 -0.0483 -0.5508
  916MOL0     C23582   8.761   8.628   5.602 -0.8027  0.2271  0.2853
  916MOL0     C23583   8.858   8.678   5.699  0.6024 -0.0158  0.6812
  916MOL0     O23584   8.933   8.609   5.787  0.1683  0.5344 -0.3779
  916MOL0     C23585   8.932   8.467   5.777  0.2738 -0.0758  0.9234
  916MOL0     C23586   8.972   8.400   5.908  1.1463  0.0064 -0.0173
  916MOL0     C23587   9.123   8.376   5.907  0.7994  0.8270 -0.2449
  916MOL0     C23588   9.172   8.344   6.044 -0.4130  0.4430 -1.0128
  916MOL0     C23589   9.301   8.284   6.028  0.9392  0.1036  0.1887
  916MOL0     C23590   9.415   8.249   6.018  0.0596  0.8089  0.2106
  916MOL0     C23591   8.882   8.818   5.704 -1.0529 -0.3165  0.0567
  916MOL0     C23592   8.812   8.908   5.630  0.0253  0.2356 -0.0693
  916MOL0     H23593   8.335   8.833   5.300 -0.8275  0.6135  0.8151
  916MOL0     H23594   8.171   8.940   5.168 -0.0810 -0.7098 -0.9239
  916MOL0     H23595   8.040   9.176   4.940  0.1738  1.4893  1.3810
  916MOL0     H23596   8.077   9.018   4.993  2.5845 -0.1780 -1.2370
  916MOL0     H23597   7.988   9.111   5.221 -1.2491 -1.5458  0.6284
  916MOL0     H23598   7.956   9.259   5.130 -0.1971 -0.8238  0.9782
  916MOL0     H23599   7.845   8.985   5.050 -0.5483 -1.4533  1.0978
  916MOL0     H23600   7.784   9.084   5.189 -2.8652  0.7635 -1.4664
  916MOL0     H23601   7.757   9.282   5.039  0.0231  0.5299 -2.0634
  916MOL0     H23602   7.772   9.184   4.900 -0.4330  1.3039  0.2628
  916MOL0     H23603   7.578   9.038   5.005  1.2587 -0.9114  2.3222
  916MOL0     H23604   7.564   9.175   5.119  1.6496  1.9633 -0.5814
  916MOL0     H23605   7.513   9.334   4.959 -0.1593  0.4414  1.8804
  916MOL0     H23606   7.547   9.221   4.822 -0.6877 -1.1602  1.1363
  916MOL0     H23607   7.382   9.073   4.904 -0.9575  0.4413  1.2305
  916MOL0     H23608   7.332   9.191   5.034  1.8009  2.2398 -0.4765
  916MOL0     H23609   7.319   9.239   4.735  2.5123 -0.2392  1.0388
  916MOL0     H23610   7.270   9.360   4.860  0.4367  0.3683 -3.8810
  916MOL0     H23611   7.134   8.991   4.784 -1.3343 -0.1229 -1.2148
  916MOL0     H23612   6.907   8.942   4.687 -1.1669  1.5986 -2.3742
  916MOL0     H23613   6.859   8.916   4.858  3.9521 -0.8774 -0.3679
  916MOL0     H23614   6.700   9.110   4.680  2.1099  1.0009  1.3352
  916MOL0     H23615   6.679   9.076   4.846 -0.2617  4.3531 -1.0843
  916MOL0     H23616   6.616   8.843   4.790  0.8443  1.4103  1.7261
  916MOL0     H23617   6.689   8.856   4.624 -0.0752 -0.0208  0.0911
  916MOL0     H23618   6.421   8.851   4.610 -0.5781 -0.3504 -0.3072
  916MOL0     H23619   6.512   8.979   4.548 -0.0404 -1.1625 -0.8844
  916MOL0     H23620   6.236   9.135   4.888 -0.5508 -0.2654  0.0473
  916MOL0     H23621   5.872   9.155   4.915 -0.0698  0.9720 -0.1018
  916MOL0     H23622   6.023   9.198   4.987 -1.6971 -0.8877  1.6117
  916MOL0     H23623   5.938   9.305   4.863  0.6889 -0.9425 -0.9378
  916MOL0     H23624   5.557   9.005   4.636  0.3178  1.0075  0.8304
  916MOL0     H23625   5.345   9.006   4.528 -0.0673  0.6367 -0.2369
  916MOL0     H23626   5.235   8.873   4.154  2.5268 -0.5713  0.1684
  916MOL0     H23627   5.300   8.810   4.299 -0.4537 -0.1472  0.1920
  916MOL0     H23628   5.045   8.990   4.308 -1.1849 -0.7532 -0.9499
  916MOL0     H23629   5.036   8.821   4.258 -0.8834  0.6216 -0.7361
  916MOL0     H23630   5.086   8.928   4.528 -0.9874 -0.7971  1.4385
  916MOL0     H23631   5.174   8.787   4.489  1.3604  2.4924  0.7483
  916MOL0     H23632   4.932   8.683   4.435  1.9104 -0.8530  0.6799
  916MOL0     H23633   4.951   8.734   4.596 -0.1404  0.3380 -0.4284
  916MOL0     H23634   4.736   8.813   4.467  0.1003 -1.0165  0.9996
  916MOL0     H23635   4.842   8.928   4.386 -0.8357 -1.0715 -0.7027
  916MOL0     H23636   4.771   8.902   4.682 -1.0841 -2.5532 -3.3351
  916MOL0     H23637   4.884   9.032   4.619 -0.2075  0.7828  0.7723
  916MOL0     H23638   4.682   9.112   4.472 -0.9832 -1.9106 -0.5460
  916MOL0     H23639   4.679   9.148   4.646 -2.6332  0.8636  0.4752
  916MOL0     H23640   4.479   9.079   4.629  0.9258  2.1079 -0.1676
  916MOL0     H23641   4.558   8.920   4.670 -1.3867  0.7099 -0.5031
  916MOL0     H23642   5.529   9.029   4.143 -0.5842  0.4044 -0.0436
  916MOL0     H23643   5.763   9.032   4.261 -0.0980 -1.1086 -0.7000
  916MOL0     H23644   6.036   8.982   4.471  0.7592  0.6123 -1.6199
  916MOL0     H23645   6.267   8.978   4.493 -0.1483  0.9743 -0.3465
  916MOL0     H23646   8.417   9.304   5.167 -0.0314  0.7314 -0.2868
  916MOL0     H23647   8.583   9.181   5.286  0.1073 -0.2466 -0.4136
  916MOL0     H23648   8.630   8.678   5.446 -0.7763 -1.1598  0.9635
  916MOL0     H23649   8.736   8.524   5.584 -1.0888  0.3927 -0.3029
  916MOL0     H23650   8.829   8.437   5.759 -0.1774  0.7442  2.0354
  916MOL0     H23651   8.989   8.439   5.688 -1.1254  0.8499 -0.3134
  916MOL0     H23652   8.928   8.301   5.897 -0.6155  1.0127 -3.9267
  916MOL0     H23653   8.939   8.457   5.995  0.1844  1.8675 -1.5239
  916MOL0     H23654   9.175   8.468   5.878 -2.8022  3.8483  1.9752
  916MOL0     H23655   9.131   8.293   5.836 -4.1558  0.5287 -0.7860
  916MOL0     H23656   9.111   8.274   6.103  0.5948  0.7130  0.3929
  916MOL0     H23657   9.178   8.433   6.107  1.8424 -0.3870  0.0195
  916MOL0     H23658   9.520   8.227   6.018 -0.0696 -0.5254  3.9269
  916MOL0     H23659   8.966   8.857   5.760  0.4157 -1.8170 -0.9949
  916MOL0     H23660   8.830   9.014   5.644  0.6575  0.0947  0.2262
  917MOL0     O23661   1.326   7.730   1.900 -0.3496 -0.4930 -0.4554
  917MOL0     C23662   1.296   7.623   1.841 -0.0929  0.0229 -0.3038
  917MOL0     O23663   1.173   7.581   1.817  0.0089 -0.3155  0.2302
  917MOL0     C23664   1.065   7.637   1.878 -0.1286  0.1767 -0.0578
  917MOL0     C23665   0.943   7.647   1.817  0.0732  0.6547  0.8345
  917MOL0     C23666   0.830   7.690   1.894 -0.3870 -0.6875  0.2442
  917MOL0     C23667   0.838   7.709   2.028  0.3409 -1.0540 -0.0052
  917MOL0     O23668   0.728   7.742   2.108 -0.7653  0.1360  0.5045
  917MOL0     C23669   0.589   7.762   2.056 -0.5347 -0.3793  0.0934
  917MOL0     C23670   0.501   7.821   2.163  0.1720  0.4299 -0.0981
  917MOL0     C23671   0.357   7.839   2.121 -0.8205  0.1377  0.1913
  917MOL0     C23672   0.293   7.711   2.074 -0.6100 -1.0057 -0.5703
  917MOL0     C23673   0.138   7.734   2.059  0.1063  0.5982 -0.3947
  917MOL0     C23674   0.078   7.602   2.024  0.3889 -0.0498 -0.4428
  917MOL0     C23675  -0.073   7.624   1.998  0.0338 -0.0052  0.0370
  917MOL0     C23676  -0.138   7.507   1.929  0.2618 -0.3001  0.0352
  917MOL0     N23677  -0.269   7.546   1.860 -0.7755 -0.1540 -0.6609
  917MOL0     C23678  -0.269   7.600   1.737  0.1722  0.2634  0.1725
  917MOL0     C23679  -0.391   7.636   1.719 -0.0274 -0.4448  0.2026
  917MOL0     C23680  -0.446   7.677   1.588  0.0581  0.1638  0.4734
  917MOL0     C23681  -0.476   7.563   1.492  0.2865 -0.7745 -0.2706
  917MOL0     C23682  -0.627   7.544   1.466  0.2658  0.3497  0.3194
  917MOL0     C23683  -0.689   7.642   1.369 -0.9462  0.5457  0.6792
  917MOL0     O23684  -0.825   7.624   1.388  0.5375  0.2151  0.5537
  917MOL0     C23685  -0.910   7.696   1.305  0.0055  0.1707 -0.3018
  917MOL0     C23686  -0.866   7.815   1.237  1.1437  0.4986  0.2748
  917MOL0     C23687  -0.960   7.885   1.154 -0.9087 -0.0771 -0.4659
  917MOL0     C23688  -0.907   7.997   1.072 -0.0586 -0.0566  0.5066
  917MOL0     C23689  -1.098   7.852   1.148 -0.9549  0.0243 -0.6370
  917MOL0     C23690  -1.201   7.917   1.066  0.3545  0.2667  1.0261
  917MOL0     O23691  -1.320   7.858   1.044  0.0836 -0.5006 -0.5331
  917MOL0     C23692  -1.413   7.916   0.962  0.2739  0.3583 -0.7911
  917MOL0     C23693  -1.422   7.864   0.836  0.1347  0.2505  0.5831
  917MOL0     C23694  -1.544   7.877   0.762 -0.2785  0.5376 -0.0737
  917MOL0     C23695  -1.650   7.962   0.808  0.5170  0.7442 -0.0277
  917MOL0     O23696  -1.770   7.980   0.744  0.0079  0.0693  0.3371
  917MOL0     C23697  -1.836   7.881   0.660 -0.7225  0.5396  0.1432
  917MOL0     C23698  -1.919   7.786   0.748  0.3030  0.5691 -0.6313
  917MOL0     C23699  -1.989   7.677   0.662  0.2301 -1.4799 -0.0497
  917MOL0     C23700  -2.031   7.565   0.761  0.3504  0.4206  0.3734
  917MOL0     C23701  -2.053   7.425   0.688  0.9524 -0.0619 -0.2512
  917MOL0     C23702  -1.939   7.382   0.599  0.2459  0.0367  0.1992
  917MOL0     C23703  -1.800   7.376   0.654 -0.8559  0.1249  0.0703
  917MOL0     C23704  -1.699   7.299   0.570 -0.1736  0.5819 -0.2726
  917MOL0    Cl23705  -1.694   7.123   0.600 -0.3002  0.3451 -0.4799
  917MOL0     C23706  -1.630   8.033   0.926 -0.4234  0.3295 -0.6493
  917MOL0     C23707  -1.506   8.012   0.998 -0.1148  0.2255  0.3790
  917MOL0     O23708  -1.182   8.030   1.031  0.2744  0.0979  0.0087
  917MOL0     C23709  -1.136   7.737   1.225  0.3468  0.2309 -0.2595
  917MOL0     C23710  -1.044   7.665   1.299 -0.5527  0.4048 -0.0395
  917MOL0     N23711  -0.452   7.644   1.838  0.4228  0.8687 -0.7882
  917MOL0     N23712  -0.375   7.585   1.928  0.2614  0.1127  0.1148
  917MOL0     C23713   0.956   7.683   2.093  0.2168  0.2995  0.3258
  917MOL0     C23714   1.070   7.664   2.019 -0.0519 -0.4296 -0.5552
  917MOL0     C23715   1.410   7.536   1.794  0.0869  0.4574 -0.3496
  917MOL0     C23716   1.392   7.402   1.765 -0.5292 -0.9864  0.1858
  917MOL0     C23717   1.499   7.328   1.719 -0.9158  0.2085 -0.4278
  917MOL0     C23718   1.628   7.376   1.690  0.1955  0.2552  0.4823
  917MOL0     O23719   1.722   7.278   1.645  1.1824  0.4412 -0.1262
  917MOL0     C23720   1.862   7.307   1.639  0.6669  0.4044  0.3051
  917MOL0     C23721   1.921   7.293   1.776  0.3516  0.2806  0.0133
  917MOL0     C23722   1.913   7.145   1.820  1.2060 -0.2767  0.6304
  917MOL0     C23723   1.993   7.057   1.728  0.1020  0.5863  0.2850
  917MOL0     C23724   2.137   7.076   1.750  0.1153  0.4930 -0.3994
  917MOL0     C23725   2.252   7.101   1.781 -0.3205 -0.1129  0.9680
  917MOL0     C23726   1.654   7.514   1.716  0.3210  0.0235  0.1732
  917MOL0     C23727   1.540   7.585   1.764  0.2332 -0.4612 -0.2988
  917MOL0     H23728   0.930   7.623   1.712  0.1096  2.1174  0.4751
  917MOL0     H23729   0.738   7.707   1.838 -0.8579 -0.6875  1.0132
  917MOL0     H23730   0.603   7.837   1.977  2.9754 -1.9737 -1.0073
  917MOL0     H23731   0.550   7.668   2.016  0.3432 -0.1669 -1.3348
  917MOL0     H23732   0.498   7.748   2.244 -2.8018 -2.0490 -2.1991
  917MOL0     H23733   0.548   7.913   2.199  1.9345 -0.8915  1.1985
  917MOL0     H23734   0.309   7.880   2.210 -1.7280  2.5063 -1.3075
  917MOL0     H23735   0.344   7.915   2.044  0.4492  0.5493  0.3522
  917MOL0     H23736   0.331   7.686   1.975 -2.0724  3.6860 -2.6072
  917MOL0     H23737   0.317   7.632   2.146  1.2312  0.5263  0.6095
  917MOL0     H23738   0.099   7.782   2.149 -0.8473 -1.1972  0.1953
  917MOL0     H23739   0.121   7.799   1.973 -0.3477 -1.1161 -1.6574
  917MOL0     H23740   0.136   7.563   1.940  0.5647 -0.4793 -0.1268
  917MOL0     H23741   0.087   7.532   2.108 -2.5072  0.7760  0.6765
  917MOL0     H23742  -0.119   7.646   2.095  0.2325  1.3398 -0.1494
  917MOL0     H23743  -0.096   7.707   1.931  0.3900 -0.1757 -0.2932
  917MOL0     H23744  -0.148   7.430   2.006 -0.6544  1.8209  2.1888
  917MOL0     H23745  -0.076   7.468   1.848  0.3300  2.0444 -1.1216
  917MOL0     H23746  -0.188   7.587   1.666  1.7699 -0.6510  2.0621
  917MOL0     H23747  -0.540   7.731   1.603  0.5161  1.1957 -0.2336
  917MOL0     H23748  -0.382   7.754   1.544 -0.2626 -0.0973 -0.4863
  917MOL0     H23749  -0.425   7.472   1.527  1.5406 -0.4009 -1.0564
  917MOL0     H23750  -0.430   7.601   1.400 -2.2585 -0.2162 -1.3702
  917MOL0     H23751  -0.687   7.535   1.557 -0.2718 -0.2834 -0.0852
  917MOL0     H23752  -0.638   7.448   1.415  0.0396 -0.4514  1.8083
  917MOL0     H23753  -0.666   7.616   1.265  1.2087  0.0980  1.2240
  917MOL0     H23754  -0.659   7.744   1.394  0.1227  0.6491 -0.8874
  917MOL0     H23755  -0.765   7.850   1.256  1.6308  0.4635 -1.9663
  917MOL0     H23756  -0.907   8.094   1.124 -3.0009  1.3456 -1.7777
  917MOL0     H23757  -0.803   7.977   1.045 -1.3061 -1.5820 -4.2482
  917MOL0     H23758  -0.955   8.001   0.974  0.9631 -0.2322 -0.0133
  917MOL0     H23759  -1.353   7.786   0.805  0.0678  0.9122 -1.3342
  917MOL0     H23760  -1.561   7.817   0.674  0.8361  0.1785 -0.0624
  917MOL0     H23761  -1.908   7.933   0.596 -3.3845 -1.6302  1.1335
  917MOL0     H23762  -1.766   7.826   0.596 -0.4714 -1.1879  1.8126
  917MOL0     H23763  -1.844   7.734   0.809  0.1873  1.6542  0.4685
  917MOL0     H23764  -1.994   7.839   0.808 -1.0174  0.0978 -1.8181
  917MOL0     H23765  -1.912   7.642   0.593  0.8400 -1.6870  0.7179
  917MOL0     H23766  -2.082   7.710   0.616  0.2817 -0.2484  0.6732
  917MOL0     H23767  -1.950   7.549   0.833  0.3561 -2.3240 -0.1391
  917MOL0     H23768  -2.124   7.586   0.814 -0.1482 -0.1796 -0.2486
  917MOL0     H23769  -2.143   7.428   0.627  0.4618  0.6491  0.4858
  917MOL0     H23770  -2.066   7.354   0.770 -1.9310  0.7614  0.1222
  917MOL0     H23771  -1.962   7.281   0.564 -1.0180 -0.6819  2.8770
  917MOL0     H23772  -1.948   7.441   0.508  1.5729  1.6215  1.0372
  917MOL0     H23773  -1.805   7.329   0.753  0.5651  1.8635  1.0117
  917MOL0     H23774  -1.760   7.477   0.667  1.0015 -0.3961 -1.1698
  917MOL0     H23775  -1.597   7.338   0.577  0.0429 -0.1939  1.5868
  917MOL0     H23776  -1.722   7.306   0.463 -5.3726 -0.3910  0.5379
  917MOL0     H23777  -1.698   8.111   0.955 -2.3702 -1.0926 -1.1973
  917MOL0     H23778  -1.488   8.063   1.092 -2.0237 -1.9019  1.9945
  917MOL0     H23779  -1.242   7.710   1.221  0.7104 -1.1257 -1.5561
  917MOL0     H23780  -1.069   7.578   1.359  1.5813 -2.4129 -2.8704
  917MOL0     H23781   0.946   7.681   2.201  1.7895 -0.8675  0.4881
  917MOL0     H23782   1.165   7.655   2.071  0.6380 -0.2927 -1.7725
  917MOL0     H23783   1.290   7.367   1.767 -1.3103  0.6530 -3.3756
  917MOL0     H23784   1.497   7.221   1.700 -0.0908  0.2237 -0.6369
  917MOL0     H23785   1.910   7.244   1.563  1.4025  2.0604 -0.6596
  917MOL0     H23786   1.884   7.410   1.608  1.1353 -0.6855 -3.4969
  917MOL0     H23787   1.876   7.359   1.850  2.2371 -0.0657  1.5362
  917MOL0     H23788   2.025   7.326   1.771  0.0920  1.0628 -0.2842
  917MOL0     H23789   1.806   7.120   1.827  0.9771  0.3438 -0.4671
  917MOL0     H23790   1.943   7.143   1.925 -0.5104 -0.4828  1.1430
  917MOL0     H23791   1.966   7.074   1.624  0.0056 -0.3220  0.1552
  917MOL0     H23792   1.981   6.952   1.754 -0.1846  0.1358 -1.5745
  917MOL0     H23793   2.350   7.127   1.817  0.5223 -3.2220  1.2097
  917MOL0     H23794   1.753   7.559   1.715  0.2836  0.1355  0.9163
  917MOL0     H23795   1.557   7.689   1.790 -0.4621 -0.7586  1.4955
  918MOL0     O23796  10.820   8.892   8.321 -0.9062 -0.2478  0.5157
  918MOL0     C23797  10.881   8.803   8.375 -0.2022 -0.8418  0.4778
  918MOL0     O23798  10.835   8.683   8.406 -0.4306 -0.0308 -0.3085
  918MOL0     C23799  10.716   8.649   8.352 -0.3680  0.6140 -0.1611
  918MOL0     C23800  10.616   8.617   8.439 -0.1543  0.3764  0.2288
  918MOL0     C23801  10.492   8.570   8.392  0.1242 -0.2313 -0.8316
  918MOL0     C23802  10.464   8.563   8.260 -0.0141  0.2178 -0.4806
  918MOL0     O23803  10.344   8.517   8.219  0.1170  0.3706 -0.8355
  918MOL0     C23804  10.336   8.395   8.141  0.0346  0.1984  0.2861
  918MOL0     C23805  10.192   8.358   8.149 -0.1986  0.4929  0.3024
  918MOL0     C23806  10.110   8.445   8.059  0.4889  0.8088  0.0169
  918MOL0     C23807   9.959   8.405   8.066  0.4238  0.3776 -0.6557
  918MOL0     C23808   9.872   8.505   7.980 -0.0991  0.8789 -1.0680
  918MOL0     C23809   9.892   8.493   7.831  0.1980  0.1168  0.4231
  918MOL0     C23810   9.781   8.547   7.746 -0.0498 -0.5830  0.0971
  918MOL0     C23811   9.664   8.446   7.755 -0.4051 -0.1594 -0.7364
  918MOL0     N23812   9.572   8.472   7.643  0.0122 -0.2704  0.2307
  918MOL0     C23813   9.446   8.517   7.662 -0.5566 -0.6068  0.3028
  918MOL0     C23814   9.380   8.491   7.549 -0.2696 -0.5546  0.1853
  918MOL0     C23815   9.241   8.527   7.514 -0.2102  1.2531  0.2541
  918MOL0     C23816   9.171   8.569   7.643 -0.0437 -0.1528 -0.5505
  918MOL0     C23817   9.022   8.585   7.618  0.0338 -1.1725 -0.3530
  918MOL0     C23818   8.947   8.446   7.615 -0.0571  0.2877 -0.5169
  918MOL0     O23819   8.902   8.422   7.482 -0.5930  0.0889  0.8426
  918MOL0     C23820   8.777   8.366   7.477 -0.3474 -0.0565 -0.2089
  918MOL0     C23821   8.666   8.441   7.503  0.5433 -0.5290 -0.1832
  918MOL0     C23822   8.541   8.379   7.514  0.6662 -0.4853 -0.5558
  918MOL0     C23823   8.430   8.481   7.556 -0.2838  0.4217  0.5700
  918MOL0     C23824   8.533   8.240   7.500  0.6493  0.0353 -1.5364
  918MOL0     C23825   8.405   8.160   7.508 -0.1276 -0.1039 -0.8000
  918MOL0     O23826   8.303   8.222   7.439 -0.0020  0.5609  0.0256
  918MOL0     C23827   8.185   8.151   7.416 -0.5355  0.6422 -0.0568
  918MOL0     C23828   8.198   8.036   7.339  0.3619 -0.2678  0.7097
  918MOL0     C23829   8.088   7.959   7.295 -0.7695  0.1747  0.6072
  918MOL0     C23830   7.959   8.008   7.320  0.2773  0.3046  0.3574
  918MOL0     O23831   7.850   7.940   7.275 -0.3409 -0.4855 -0.8406
  918MOL0     C23832   7.743   8.020   7.231 -0.1206  0.1336  0.7892
  918MOL0     C23833   7.617   7.973   7.293  0.7385 -0.6626  0.1285
  918MOL0     C23834   7.503   8.071   7.250 -1.7592 -0.0715 -0.1627
  918MOL0     C23835   7.362   8.014   7.278  0.1154 -0.0306 -0.4595
  918MOL0     C23836   7.256   8.115   7.225  0.3284  0.5344 -0.8574
  918MOL0     C23837   7.123   8.080   7.282  0.1759  0.5017  0.2165
  918MOL0     C23838   7.053   7.968   7.208 -0.4414 -0.3945 -0.3643
  918MOL0     C23839   6.911   7.947   7.272 -0.0091 -0.9160 -0.2433
  918MOL0    Cl23840   6.825   7.809   7.183  0.1401 -0.1877  0.4312
  918MOL0     C23841   7.948   8.118   7.405  0.4915  0.0574  0.1646
  918MOL0     C23842   8.060   8.191   7.452 -0.5847  0.5297 -0.4080
  918MOL0     O23843   8.401   8.048   7.565  0.5221 -0.6659  0.0874
  918MOL0     C23844   8.652   8.169   7.472  0.6630  0.8206  0.1196
  918MOL0     C23845   8.771   8.233   7.471 -0.1593  0.0918 -1.0431
  918MOL0     N23846   9.461   8.430   7.459  0.0536  0.2648 -0.0211
  918MOL0     N23847   9.581   8.418   7.516 -0.5481  0.5006  0.0694
  918MOL0     C23848  10.566   8.601   8.165  0.7322 -0.0337  0.2174
  918MOL0     C23849  10.688   8.646   8.217 -0.2636  0.4640 -0.6527
  918MOL0     C23850  11.026   8.818   8.366 -0.9853 -0.5088  0.2911
  918MOL0     C23851  11.086   8.944   8.326  0.4507 -1.0470 -0.1053
  918MOL0     C23852  11.218   8.953   8.292 -0.9756  0.4871  0.1876
  918MOL0     C23853  11.307   8.853   8.322 -0.6371 -0.3891  0.4834
  918MOL0     O23854  11.440   8.846   8.292 -0.3902  1.0078  0.6395
  918MOL0     C23855  11.510   8.965   8.250 -0.1393  0.0421 -0.3452
  918MOL0     C23856  11.660   8.934   8.231 -0.6324 -0.1552  0.2600
  918MOL0     C23857  11.733   8.870   8.347 -0.0648  0.3426  0.1406
  918MOL0     C23858  11.879   8.834   8.338  0.1486  0.0234 -0.3473
  918MOL0     C23859  11.955   8.908   8.232 -0.1904  0.7018 -0.1113
  918MOL0     C23860  12.013   8.970   8.151 -0.6796 -0.4123  0.9909
  918MOL0     C23861  11.256   8.729   8.364  0.5307 -0.4274 -0.1163
  918MOL0     C23862  11.118   8.709   8.383  0.0293  0.4370 -0.4462
  918MOL0     H23863  10.630   8.636   8.545  1.5760 -1.5994  0.4280
  918MOL0     H23864  10.408   8.566   8.461  0.1283  0.2792 -0.7897
  918MOL0     H23865  10.363   8.410   8.036 -1.3453 -1.4916 -0.3616
  918MOL0     H23866  10.402   8.316   8.176 -0.0193 -1.2227 -2.5389
  918MOL0     H23867  10.182   8.257   8.109  1.0752  1.0003 -1.3799
  918MOL0     H23868  10.159   8.359   8.254  0.5350 -0.1602  0.5571
  918MOL0     H23869  10.116   8.551   8.082 -0.6418  0.8342  0.2519
  918MOL0     H23870  10.142   8.426   7.956  2.6857  0.3930  0.7170
  918MOL0     H23871   9.943   8.300   8.039 -1.7399  0.3987  0.2703
  918MOL0     H23872   9.919   8.414   8.168 -1.8239 -2.2690 -1.1635
  918MOL0     H23873   9.765   8.493   7.997  0.0445 -1.2346 -1.4267
  918MOL0     H23874   9.898   8.605   8.018 -2.4151 -0.0665  3.8054
  918MOL0     H23875   9.977   8.557   7.807  1.4354 -1.2260  1.1141
  918MOL0     H23876   9.907   8.387   7.808 -2.1635 -0.8076  2.6276
  918MOL0     H23877   9.757   8.651   7.769 -1.5954 -0.9754  0.3971
  918MOL0     H23878   9.819   8.549   7.644 -0.3257  0.0401  0.0038
  918MOL0     H23879   9.601   8.458   7.843 -0.7092  2.2074 -1.1982
  918MOL0     H23880   9.701   8.344   7.740  1.0257  0.6192 -3.0804
  918MOL0     H23881   9.401   8.563   7.749 -0.1918 -2.4778  1.5223
  918MOL0     H23882   9.244   8.600   7.432  1.5128 -1.7622 -2.6181
  918MOL0     H23883   9.192   8.438   7.474 -1.7035  1.7132  0.9834
  918MOL0     H23884   9.211   8.664   7.679 -0.4607 -0.4474  0.7610
  918MOL0     H23885   9.180   8.493   7.721  1.5970  0.1188 -0.4358
  918MOL0     H23886   8.995   8.646   7.532  1.1287 -0.6056 -0.3117
  918MOL0     H23887   8.992   8.640   7.708 -0.4546 -3.6728  1.1119
  918MOL0     H23888   8.866   8.450   7.688  0.8133  2.3206  0.4398
  918MOL0     H23889   9.011   8.362   7.643  2.8070  1.8941 -1.7195
  918MOL0     H23890   8.684   8.548   7.515 -1.9569  0.0084 -0.6121
  918MOL0     H23891   8.464   8.585   7.557 -0.8312  0.6089  0.1958
  918MOL0     H23892   8.349   8.483   7.482  0.0325 -0.7976  0.1668
  918MOL0     H23893   8.382   8.457   7.651 -0.5233  0.2526  0.4081
  918MOL0     H23894   8.295   8.005   7.302  0.3188 -1.8783  1.8904
  918MOL0     H23895   8.108   7.875   7.230  2.1306  0.8590  0.4522
  918MOL0     H23896   7.757   8.128   7.236  1.2466  0.0919 -1.1608
  918MOL0     H23897   7.737   8.007   7.123 -0.2592  0.9526  0.6909
  918MOL0     H23898   7.590   7.872   7.259  0.2391 -0.3861 -0.2916
  918MOL0     H23899   7.631   7.977   7.402  0.2019 -2.7280  0.3178
  918MOL0     H23900   7.504   8.081   7.141 -1.9638 -1.3595 -0.2937
  918MOL0     H23901   7.522   8.168   7.298 -0.8891 -1.4643  2.4849
  918MOL0     H23902   7.348   7.918   7.227 -0.1557  0.6806 -1.7573
  918MOL0     H23903   7.353   7.992   7.385 -1.5960 -0.5344 -0.6770
  918MOL0     H23904   7.253   8.103   7.117 -1.3498  0.1755 -0.7997
  918MOL0     H23905   7.277   8.222   7.238 -5.2071  1.9688 -1.1910
  918MOL0     H23906   7.134   8.044   7.385  1.5416 -0.0466 -0.0937
  918MOL0     H23907   7.062   8.170   7.279 -3.0188 -1.3159  3.1099
  918MOL0     H23908   7.112   7.876   7.216  1.0931  0.5721 -0.2282
  918MOL0     H23909   7.048   7.991   7.101  0.6195 -0.3418 -0.4199
  918MOL0     H23910   6.869   8.048   7.272  2.0433  0.0026  0.0870
  918MOL0     H23911   6.931   7.919   7.376 -0.6005  0.3852  0.2351
  918MOL0     H23912   7.849   8.161   7.417  0.9112  1.9849 -2.3658
  918MOL0     H23913   8.043   8.285   7.503  0.8077 -1.1600  3.5903
  918MOL0     H23914   8.652   8.061   7.461  0.4066  0.9120 -0.9534
  918MOL0     H23915   8.859   8.169   7.470  0.3769  0.8103 -1.2920
  918MOL0     H23916  10.541   8.601   8.060  0.0880  0.4999  0.3655
  918MOL0     H23917  10.761   8.671   8.141  1.3387  0.8956  0.9549
  918MOL0     H23918  11.017   9.019   8.289  0.6675 -1.7229 -1.9346
  918MOL0     H23919  11.244   9.041   8.234 -2.1899 -0.6172 -2.2018
  918MOL0     H23920  11.469   9.009   8.159 -0.5208  3.8482  1.4942
  918MOL0     H23921  11.500   9.035   8.333 -0.0184 -1.0297  0.6064
  918MOL0     H23922  11.712   9.030   8.220 -1.6819  0.6426  1.8144
  918MOL0     H23923  11.665   8.869   8.144 -1.1866 -1.1426  0.9413
  918MOL0     H23924  11.675   8.785   8.382 -0.2797  0.7488  0.7901
  918MOL0     H23925  11.714   8.938   8.431 -1.2371 -0.9456  0.9428
  918MOL0     H23926  11.882   8.731   8.299 -2.3735 -0.3378  0.2592
  918MOL0     H23927  11.917   8.834   8.441 -3.2296 -1.7816  1.0737
  918MOL0     H23928  12.067   9.010   8.068  0.0276 -1.3328  0.9864
  918MOL0     H23929  11.329   8.652   8.388  0.1360 -1.1165 -1.0350
  918MOL0     H23930  11.076   8.609   8.394 -0.6245  0.6886 -0.5945
  919MOL0     O23931   5.329   5.776   0.426  0.5968 -0.3887 -0.8513
  919MOL0     C23932   5.379   5.688   0.351 -0.1504  0.2004  0.0238
  919MOL0     O23933   5.313   5.596   0.273  0.0363  0.4774  0.0598
  919MOL0     C23934   5.175   5.618   0.262 -0.1418  0.3145  0.6246
  919MOL0     C23935   5.085   5.567   0.352  0.6357  0.9027 -1.0261
  919MOL0     C23936   4.948   5.597   0.345 -0.4772  0.4196 -0.0594
  919MOL0     C23937   4.901   5.685   0.238 -0.4743 -0.1924 -0.9116
  919MOL0     O23938   4.770   5.728   0.226  0.2513 -0.0153 -0.2404
  919MOL0     C23939   4.670   5.679   0.310  0.0946  0.0598  0.1017
  919MOL0     C23940   4.544   5.776   0.305 -0.0904 -0.2072  0.3854
  919MOL0     C23941   4.488   5.775   0.158 -0.5168  0.1582  0.2063
  919MOL0     C23942   4.430   5.635   0.119 -1.3866 -0.0363 -0.8564
  919MOL0     C23943   4.287   5.631   0.161  0.1448 -0.0066  0.1617
  919MOL0     C23944   4.207   5.695   0.054 -0.2445 -0.2846 -0.0971
  919MOL0     C23945   4.051   5.665   0.053  0.1243 -0.0819  0.4942
  919MOL0     C23946   3.986   5.753   0.157 -0.9357 -0.1987 -0.1224
  919MOL0     N23947   3.842   5.731   0.161 -0.2035  0.2940 -0.4962
  919MOL0     C23948   3.745   5.761   0.064 -0.2524 -0.0013 -0.8190
  919MOL0     C23949   3.622   5.733   0.117 -0.2067 -0.6536  0.2753
  919MOL0     C23950   3.489   5.740   0.054 -0.3442  0.1842 -0.4645
  919MOL0     C23951   3.439   5.600   0.024 -0.5441 -0.0776 -0.4298
  919MOL0     C23952   3.306   5.609  -0.046  0.1514 -0.1805 -0.1870
  919MOL0     C23953   3.188   5.623   0.045 -0.3158  0.0201 -0.4103
  919MOL0     O23954   3.074   5.595  -0.040 -0.0636 -0.2934 -0.5155
  919MOL0     C23955   2.946   5.625  -0.001 -1.4167 -0.1615  0.1207
  919MOL0     C23956   2.850   5.611  -0.103  0.8356 -0.5072  0.1483
  919MOL0     C23957   2.715   5.629  -0.090  0.1811  0.5481  0.1218
  919MOL0     C23958   2.631   5.608  -0.208 -0.3928  0.5424  0.0457
  919MOL0     C23959   2.668   5.675   0.035  0.1084 -0.4305 -0.2308
  919MOL0     C23960   2.533   5.714   0.074 -0.2182 -0.7253 -0.9485
  919MOL0     O23961   2.498   5.711   0.207 -1.0095 -0.0200  0.5431
  919MOL0     C23962   2.366   5.735   0.235  0.7380  0.2743 -0.3545
  919MOL0     C23963   2.258   5.667   0.171 -1.0154 -0.1004  0.4372
  919MOL0     C23964   2.124   5.705   0.201 -0.7856  0.1355  0.0696
  919MOL0     C23965   2.097   5.800   0.293  0.6464 -0.2063 -0.1785
  919MOL0     O23966   1.968   5.852   0.324 -0.0198  0.2687 -0.0931
  919MOL0     C23967   1.860   5.826   0.231  0.4887  0.2614  0.3780
  919MOL0     C23968   1.721   5.847   0.278 -0.3657 -0.1835 -0.1782
  919MOL0     C23969   1.682   5.993   0.302 -1.2249  0.4250 -0.7399
  919MOL0     C23970   1.532   6.002   0.325  0.7328  0.1098 -0.1291
  919MOL0     C23971   1.491   5.993   0.471  0.4121 -0.0912  0.3795
  919MOL0     C23972   1.349   6.046   0.490  0.5578  0.1107 -0.5169
  919MOL0     C23973   1.255   5.924   0.483 -1.8929  0.1462 -0.6028
  919MOL0     C23974   1.114   5.971   0.515  0.2119  0.3830  0.0467
  919MOL0    Cl23975   1.099   6.041   0.673  0.2876  0.0762  0.0164
  919MOL0     C23976   2.203   5.877   0.349  0.3394 -0.4580  0.3731
  919MOL0     C23977   2.337   5.830   0.328 -0.9229 -0.6305  0.0446
  919MOL0     O23978   2.456   5.750  -0.016 -0.0004  0.4262  0.0073
  919MOL0     C23979   2.764   5.675   0.143  0.3566  0.0014  0.5729
  919MOL0     C23980   2.899   5.656   0.130  0.1699 -0.0757 -0.1437
  919MOL0     N23981   3.645   5.702   0.249 -0.0899 -0.4239  0.5734
  919MOL0     N23982   3.771   5.697   0.277  0.6249  0.2406 -0.0857
  919MOL0     C23983   4.992   5.737   0.145 -0.8751 -0.0124 -0.6406
  919MOL0     C23984   5.127   5.707   0.165 -0.9614  0.6736 -0.2683
  919MOL0     C23985   5.528   5.669   0.357 -0.8208 -1.1792  0.2081
  919MOL0     C23986   5.606   5.733   0.452  0.6689  0.7323  0.1665
  919MOL0     C23987   5.741   5.701   0.457 -0.0982  0.9942 -0.6219
  919MOL0     C23988   5.806   5.611   0.369 -0.0967 -0.0611 -0.8255
  919MOL0     O23989   5.937   5.587   0.384  0.2218 -0.8183 -0.1564
  919MOL0     C23990   5.997   5.473   0.318 -0.4407  0.1591 -0.6640
  919MOL0     C23991   6.138   5.452   0.376  1.3307  0.3810 -0.4231
  919MOL0     C23992   6.224   5.576   0.346  0.2195  0.2115  0.3566
  919MOL0     C23993   6.372   5.582   0.384  0.4554  0.5668  0.2868
  919MOL0     C23994   6.401   5.559   0.525  0.3106  0.2028  0.1010
  919MOL0     C23995   6.420   5.529   0.640  0.1348 -0.3895  0.2465
  919MOL0     C23996   5.724   5.557   0.261 -0.0269 -0.2473 -0.1816
  919MOL0     C23997   5.588   5.586   0.264 -1.2095  0.4781 -0.1528
  919MOL0     H23998   5.125   5.506   0.433 -2.0331 -0.3090 -0.5156
  919MOL0     H23999   4.892   5.550   0.425 -0.0600 -0.8537 -0.4956
  919MOL0     H24000   4.652   5.573   0.292  1.8310  0.1347 -2.6780
  919MOL0     H24001   4.711   5.686   0.411 -1.0686 -0.9004  0.6626
  919MOL0     H24002   4.471   5.747   0.380 -1.8318 -0.8669 -1.4807
  919MOL0     H24003   4.561   5.881   0.327  2.5408 -0.5632  0.4390
  919MOL0     H24004   4.415   5.854   0.143 -0.2268  0.0824 -1.8119
  919MOL0     H24005   4.573   5.794   0.092  1.2459 -2.3719  1.5442
  919MOL0     H24006   4.450   5.619   0.013  1.0651 -1.1762 -0.2955
  919MOL0     H24007   4.482   5.556   0.174  0.9582  1.9650 -0.0054
  919MOL0     H24008   4.251   5.529   0.178  1.8528 -0.6476  0.1101
  919MOL0     H24009   4.278   5.685   0.256  0.3800 -2.5626  1.7425
  919MOL0     H24010   4.212   5.804   0.048 -1.2680 -0.1003  1.8112
  919MOL0     H24011   4.248   5.661  -0.042  0.1357  0.8987 -0.3735
  919MOL0     H24012   4.007   5.684  -0.044 -1.6848 -1.7192  0.9301
  919MOL0     H24013   4.039   5.559   0.078 -0.5097 -0.1552 -0.1183
  919MOL0     H24014   3.998   5.861   0.142 -2.7363  0.2056  1.0932
  919MOL0     H24015   4.035   5.720   0.249  0.1698 -1.2122 -1.0481
  919MOL0     H24016   3.772   5.780  -0.040  3.1403  0.2497 -0.0350
  919MOL0     H24017   3.429   5.796   0.126  3.0716  2.0701  1.1330
  919MOL0     H24018   3.492   5.806  -0.033 -1.4498  0.4529 -0.3174
  919MOL0     H24019   3.424   5.536   0.111 -2.1499 -1.3197 -1.5406
  919MOL0     H24020   3.512   5.544  -0.036 -1.4918 -0.2963 -1.4113
  919MOL0     H24021   3.290   5.520  -0.108  0.3826 -1.2285  1.2358
  919MOL0     H24022   3.305   5.697  -0.112 -1.3387  0.9761  1.2824
  919MOL0     H24023   3.184   5.716   0.102  0.4961  0.4276 -1.0059
  919MOL0     H24024   3.199   5.549   0.125  2.6212 -0.0846 -0.8212
  919MOL0     H24025   2.890   5.572  -0.196  1.7194 -1.0998  0.7560
  919MOL0     H24026   2.614   5.699  -0.267  1.6196  0.5160 -0.6724
  919MOL0     H24027   2.679   5.542  -0.281  0.4360  2.3682 -1.1449
  919MOL0     H24028   2.531   5.570  -0.187 -1.9135  3.2341 -1.6255
  919MOL0     H24029   2.275   5.592   0.095 -2.2502 -2.9029  2.7516
  919MOL0     H24030   2.054   5.641   0.149 -1.5465  1.4126 -0.5311
  919MOL0     H24031   1.876   5.888   0.143 -3.2336  0.0457 -0.6193
  919MOL0     H24032   1.876   5.721   0.204  0.5928  0.4145 -0.1618
  919MOL0     H24033   1.655   5.813   0.199 -2.0461 -0.0704  1.1162
  919MOL0     H24034   1.707   5.791   0.371 -0.6182 -1.3177 -0.8877
  919MOL0     H24035   1.703   6.038   0.204  0.2745  0.9490 -0.1914
  919MOL0     H24036   1.741   6.051   0.373 -1.7721  0.2316 -0.1178
  919MOL0     H24037   1.511   6.103   0.288  2.6087  0.0935 -1.3666
  919MOL0     H24038   1.477   5.925   0.271  0.0907  0.2506  0.3116
  919MOL0     H24039   1.561   6.060   0.521 -0.4894  0.6750  0.6334
  919MOL0     H24040   1.509   5.897   0.520 -0.0599 -0.4053 -0.0489
  919MOL0     H24041   1.345   6.085   0.592  0.1411  2.8373 -1.5039
  919MOL0     H24042   1.312   6.117   0.415 -1.4951 -0.2150  0.1101
  919MOL0     H24043   1.284   5.844   0.552  0.8036  2.4179  1.1678
  919MOL0     H24044   1.264   5.879   0.384  2.0221 -1.9761  0.4982
  919MOL0     H24045   1.040   5.890   0.512 -2.7998  2.7904  2.5000
  919MOL0     H24046   1.075   6.036   0.437 -1.7407 -2.5007 -1.5994
  919MOL0     H24047   2.190   5.972   0.400 -0.7652 -0.2504 -0.2503
  919MOL0     H24048   2.410   5.891   0.379 -1.3861  0.4101 -0.5156
  919MOL0     H24049   2.729   5.702   0.242 -1.6800  1.2162 -0.4111
  919MOL0     H24050   2.974   5.653   0.209  2.1817 -0.5156 -1.9963
  919MOL0     H24051   4.959   5.805   0.067  1.3475  0.8175 -0.9566
  919MOL0     H24052   5.204   5.749   0.101 -1.1320  2.7715  0.8204
  919MOL0     H24053   5.562   5.792   0.532 -1.8534 -0.6020 -0.1173
  919MOL0     H24054   5.796   5.743   0.541 -2.1914 -1.0647  1.9853
  919MOL0     H24055   5.935   5.388   0.347  2.5292 -1.7694  0.4992
  919MOL0     H24056   5.995   5.491   0.210  1.2660 -0.0666 -0.7586
  919MOL0     H24057   6.174   5.372   0.311  1.8413  0.1806  0.1042
  919MOL0     H24058   6.126   5.428   0.482 -1.9649 -0.2474 -0.8481
  919MOL0     H24059   6.180   5.657   0.405 -0.5958 -0.2896  0.4675
  919MOL0     H24060   6.218   5.605   0.241  0.4265  2.0002  0.8052
  919MOL0     H24061   6.408   5.684   0.370  0.7050  0.2567 -1.6696
  919MOL0     H24062   6.430   5.515   0.320 -2.4578 -3.0732  1.0808
  919MOL0     H24063   6.437   5.504   0.743  1.5128 -1.5508 -0.2156
  919MOL0     H24064   5.762   5.486   0.188  0.0331 -0.5395  0.1314
  919MOL0     H24065   5.531   5.532   0.188 -1.3058  1.8743 -1.0984
  920MOL0     O24066   9.946   9.871   7.616 -0.0743 -0.1896 -0.2661
  920MOL0     C24067   9.955   9.758   7.567  0.1044 -0.3486  0.1019
  920MOL0     O24068   9.850   9.666   7.547 -0.3608 -1.1112  0.1052
  920MOL0     C24069   9.728   9.682   7.610 -0.8540 -0.2110  0.2078
  920MOL0     C24070   9.700   9.775   7.719 -0.1509  0.1087  0.2340
  920MOL0     C24071   9.568   9.802   7.754  1.0819  0.2182 -0.5222
  920MOL0     C24072   9.461   9.717   7.711 -0.1548 -0.6400  0.3318
  920MOL0     O24073   9.336   9.726   7.753 -0.2352  0.5474  0.3826
  920MOL0     C24074   9.304   9.836   7.830  0.5661 -0.1519 -0.0980
  920MOL0     C24075   9.162   9.816   7.885  0.0645  0.2344  0.5531
  920MOL0     C24076   9.149   9.671   7.949  0.1252 -0.1277 -0.5427
  920MOL0     C24077   9.007   9.648   8.011 -0.9972 -0.4257  0.2976
  920MOL0     C24078   9.011   9.534   8.105  0.0318 -0.1456 -0.2165
  920MOL0     C24079   9.009   9.399   8.036 -0.7954  0.1537  0.1460
  920MOL0     C24080   9.038   9.280   8.133  0.1968  0.0194  0.0784
  920MOL0     C24081   8.933   9.266   8.246 -0.8078 -0.4552  0.5851
  920MOL0     N24082   8.800   9.268   8.183  0.0562 -0.9033  0.4154
  920MOL0     C24083   8.742   9.150   8.134  0.0433 -0.6063 -0.9719
  920MOL0     C24084   8.620   9.185   8.099 -0.7416  1.1459 -0.4452
  920MOL0     C24085   8.518   9.085   8.044  1.0588 -0.7435 -0.3076
  920MOL0     C24086   8.377   9.133   8.093  0.1982 -0.9773 -0.1668
  920MOL0     C24087   8.284   9.027   8.031  0.0797 -0.0671  0.2751
  920MOL0     C24088   8.155   9.072   8.075  1.4562 -1.1620 -0.0500
  920MOL0     O24089   8.060   8.989   8.003  0.4655 -0.5544  0.5404
  920MOL0     C24090   7.924   9.018   8.019  0.0465  0.1842 -0.2206
  920MOL0     C24091   7.830   8.929   7.975  1.0023  0.1808 -0.0342
  920MOL0     C24092   7.694   8.950   7.987  0.1911  0.0828 -0.3415
  920MOL0     C24093   7.616   8.832   7.939 -0.4779 -0.3475 -0.2117
  920MOL0     C24094   7.643   9.073   8.042 -1.0906  0.2105  1.6059
  920MOL0     C24095   7.504   9.102   8.076 -0.0325  0.1727 -0.0207
  920MOL0     O24096   7.415   9.000   8.096  0.4172 -0.2007 -0.2303
  920MOL0     C24097   7.284   9.035   8.138 -0.7749 -0.4292  0.7332
  920MOL0     C24098   7.254   9.107   8.250 -0.4261  0.5923 -0.5632
  920MOL0     C24099   7.120   9.138   8.291 -0.7789  0.2793 -0.0195
  920MOL0     C24100   7.019   9.071   8.226  1.1666 -0.2804  0.1615
  920MOL0     O24101   6.883   9.083   8.265 -0.5005 -0.0431  0.3424
  920MOL0     C24102   6.859   9.123   8.404 -0.1774 -0.1882 -0.0524
  920MOL0     C24103   6.709   9.117   8.431  0.0017 -0.1463 -0.0307
  920MOL0     C24104   6.658   9.047   8.560 -0.4207 -0.3270  0.7772
  920MOL0     C24105   6.510   9.039   8.583  1.1259 -0.0183  0.6843
  920MOL0     C24106   6.446   8.903   8.560 -0.6506 -0.7209 -0.3929
  920MOL0     C24107   6.294   8.926   8.549 -0.4750  0.0667 -0.4416
  920MOL0     C24108   6.235   8.782   8.551  0.4055 -0.0479  0.7676
  920MOL0     C24109   6.098   8.767   8.494 -0.2883  0.2356 -0.7200
  920MOL0    Cl24110   5.974   8.822   8.613 -0.0529 -0.3179 -0.0767
  920MOL0     C24111   7.050   8.986   8.117 -0.1854  0.1746  0.8638
  920MOL0     C24112   7.179   8.981   8.064 -0.6878 -0.7816 -0.2176
  920MOL0     O24113   7.487   9.222   8.082  0.3325 -0.0191 -0.0353
  920MOL0     C24114   7.743   9.168   8.085 -0.5549 -0.4237 -0.1137
  920MOL0     C24115   7.878   9.135   8.069  0.4956 -1.0766  0.5204
  920MOL0     N24116   8.609   9.319   8.098  0.0325 -0.0526  0.1916
  920MOL0     N24117   8.714   9.375   8.145  0.1633 -0.3311  0.0932
  920MOL0     C24118   9.492   9.619   7.614 -0.2020  0.2169  0.1293
  920MOL0     C24119   9.620   9.601   7.559 -0.6806  0.1486 -0.4565
  920MOL0     C24120  10.094   9.729   7.509 -0.0298  0.3126 -0.2262
  920MOL0     C24121  10.122   9.591   7.482  0.2166 -0.5827  0.1846
  920MOL0     C24122  10.256   9.557   7.453  0.2091  0.2718 -0.3098
  920MOL0     C24123  10.358   9.657   7.457  0.1837  0.5928  0.2316
  920MOL0     O24124  10.480   9.607   7.439 -0.0415 -0.1744 -0.2522
  920MOL0     C24125  10.582   9.691   7.384 -0.3923 -0.1117  0.4088
  920MOL0     C24126  10.675   9.747   7.490 -0.2450 -0.4350  0.5070
  920MOL0     C24127  10.745   9.639   7.570 -0.8161  0.6852 -0.0512
  920MOL0     C24128  10.803   9.690   7.707  0.9384 -0.1085 -0.2587
  920MOL0     C24129  10.922   9.762   7.688  0.4373  0.7411  0.5859
  920MOL0     C24130  11.021   9.826   7.664 -0.0229  0.0652 -0.3861
  920MOL0     C24131  10.327   9.787   7.495  0.3341  0.5009 -0.4398
  920MOL0     C24132  10.198   9.824   7.519  0.8435  0.1516 -0.8601
  920MOL0     H24133   9.781   9.829   7.767 -0.1691  1.8063 -1.4844
  920MOL0     H24134   9.552   9.867   7.838 -1.1826 -0.4471 -0.3733
  920MOL0     H24135   9.369   9.835   7.918  0.3112  1.3295  0.1270
  920MOL0     H24136   9.313   9.928   7.772  1.0733 -0.8563 -1.1783
  920MOL0     H24137   9.138   9.893   7.958 -1.0575 -0.4024  0.8863
  920MOL0     H24138   9.091   9.830   7.803  0.7200  2.8531  0.3510
  920MOL0     H24139   9.171   9.590   7.878  3.0629 -1.0435  1.2574
  920MOL0     H24140   9.217   9.666   8.034 -0.1997 -2.6520 -0.3345
  920MOL0     H24141   8.973   9.737   8.066  2.6582  0.6293  1.1188
  920MOL0     H24142   8.947   9.629   7.922 -1.9796 -0.1486  0.8837
  920MOL0     H24143   9.086   9.541   8.185 -1.9595  3.2717  1.5918
  920MOL0     H24144   8.923   9.533   8.170  0.4692  1.2545  0.4406
  920MOL0     H24145   8.914   9.385   7.983 -1.0361  0.1872  0.5677
  920MOL0     H24146   9.090   9.396   7.962 -1.7082 -2.1464 -0.8378
  920MOL0     H24147   9.029   9.193   8.067 -0.3199  0.0437  0.1166
  920MOL0     H24148   9.144   9.291   8.156  0.5224 -0.6755 -1.0167
  920MOL0     H24149   8.956   9.347   8.315  0.1855  1.9576 -2.3763
  920MOL0     H24150   8.963   9.174   8.298 -0.8517  0.0291  1.4912
  920MOL0     H24151   8.776   9.047   8.131  0.7062 -0.4981  1.1275
  920MOL0     H24152   8.507   9.102   7.936 -0.3145  3.8863  0.3276
  920MOL0     H24153   8.543   8.982   8.070  0.2816 -1.0027 -0.5862
  920MOL0     H24154   8.368   9.239   8.067 -0.1230 -0.9852 -0.0971
  920MOL0     H24155   8.373   9.137   8.203  1.4870  0.2573 -0.1420
  920MOL0     H24156   8.296   8.923   8.061 -0.3567 -0.4550 -0.8777
  920MOL0     H24157   8.293   9.017   7.923 -0.6086 -1.4625  0.3270
  920MOL0     H24158   8.140   9.180   8.066 -0.9631 -1.3305  1.2196
  920MOL0     H24159   8.158   9.053   8.183 -0.4982  3.1922  0.9628
  920MOL0     H24160   7.867   8.837   7.931  3.7332  0.7507  0.8486
  920MOL0     H24161   7.562   8.785   8.022  1.8004 -0.4827  1.2686
  920MOL0     H24162   7.537   8.870   7.873  1.1562  0.1844 -1.9335
  920MOL0     H24163   7.680   8.761   7.887  0.6732  0.4786  0.0380
  920MOL0     H24164   7.331   9.147   8.315  1.4461 -1.2971 -1.5099
  920MOL0     H24165   7.105   9.206   8.374 -0.3016  0.6564 -0.2417
  920MOL0     H24166   6.912   9.063   8.478 -1.3900  1.3283  2.1691
  920MOL0     H24167   6.886   9.228   8.419 -0.4322  0.0915 -1.4461
  920MOL0     H24168   6.680   9.222   8.440 -1.5769 -0.5786  0.0720
  920MOL0     H24169   6.671   9.067   8.341 -1.9983  1.3496 -0.0781
  920MOL0     H24170   6.695   9.100   8.648 -2.1720  3.3343 -0.4979
  920MOL0     H24171   6.697   8.945   8.549  0.2236  0.0658 -0.8450
  920MOL0     H24172   6.481   9.066   8.685  0.1796 -0.6361  0.6004
  920MOL0     H24173   6.461   9.107   8.512  0.3216  0.3426  1.5688
  920MOL0     H24174   6.471   8.837   8.643  1.1075  0.1701 -0.1647
  920MOL0     H24175   6.487   8.856   8.470 -3.2766 -1.0972 -1.4926
  920MOL0     H24176   6.252   8.975   8.638 -1.0474 -2.3142  0.7047
  920MOL0     H24177   6.281   8.980   8.455 -1.7328  1.4514  0.4911
  920MOL0     H24178   6.226   8.747   8.654  2.4993  1.5663  1.5792
  920MOL0     H24179   6.293   8.709   8.494 -1.6261 -0.5799 -0.7257
  920MOL0     H24180   6.072   8.662   8.477 -3.0936  0.5936  0.7067
  920MOL0     H24181   6.086   8.818   8.398  0.8432  0.1571 -0.9136
  920MOL0     H24182   6.971   8.951   8.051  2.0711  1.6161 -2.9721
  920MOL0     H24183   7.198   8.906   7.987  2.4968  1.9721 -2.3714
  920MOL0     H24184   7.713   9.266   8.121 -1.6103 -1.2220  1.2713
  920MOL0     H24185   7.942   9.200   8.127  0.6381 -0.8308  0.0946
  920MOL0     H24186   9.413   9.558   7.571 -2.4219  1.3260  2.3420
  920MOL0     H24187   9.636   9.527   7.482  1.7234 -0.6359  0.7286
  920MOL0     H24188  10.040   9.519   7.480 -0.5306  0.2550 -1.8426
  920MOL0     H24189  10.279   9.458   7.414  0.2982  0.9389 -2.0663
  920MOL0     H24190  10.633   9.633   7.306 -2.6809 -0.9427 -0.5836
  920MOL0     H24191  10.531   9.774   7.334 -0.6332 -0.7133 -0.3712
  920MOL0     H24192  10.618   9.807   7.562 -1.2925 -0.7109 -0.0702
  920MOL0     H24193  10.755   9.809   7.449  0.6041 -2.0099 -0.3001
  920MOL0     H24194  10.829   9.591   7.517 -0.0859  1.7530  0.1141
  920MOL0     H24195  10.674   9.559   7.590 -2.4144  1.6937 -1.4603
  920MOL0     H24196  10.813   9.610   7.782  1.7164 -0.6568 -0.9280
  920MOL0     H24197  10.736   9.762   7.754 -0.8071 -1.9501  0.2732
  920MOL0     H24198  11.104   9.880   7.624  0.2700 -1.6862 -2.3314
  920MOL0     H24199  10.412   9.850   7.521 -0.2261  1.0467  0.1109
  920MOL0     H24200  10.162   9.921   7.550  0.3392  0.2994 -1.8667
  921MOL0     O24201   2.505   7.941   0.313  0.0783 -0.3417 -0.9103
  921MOL0     C24202   2.518   8.016   0.212 -0.2196  0.6418 -0.7518
  921MOL0     O24203   2.418   8.091   0.148 -0.1902  0.3873 -0.0027
  921MOL0     C24204   2.288   8.089   0.188 -0.1734  0.0240 -0.2109
  921MOL0     C24205   2.248   8.132   0.317 -0.5541  0.6063  0.6110
  921MOL0     C24206   2.108   8.126   0.346 -0.3020 -0.2086  1.3759
  921MOL0     C24207   2.013   8.108   0.244  0.2786  0.5039 -0.6476
  921MOL0     O24208   1.876   8.132   0.260 -0.1129 -0.9094  0.4960
  921MOL0     C24209   1.818   8.126   0.390 -1.1464  0.3441 -0.5269
  921MOL0     C24210   1.662   8.118   0.369 -0.4294  0.5489 -0.0767
  921MOL0     C24211   1.579   8.085   0.490 -0.9102  0.6093  0.1785
  921MOL0     C24212   1.513   8.211   0.550 -0.1808 -0.1089 -0.1814
  921MOL0     C24213   1.380   8.250   0.474  1.0261  0.2373 -0.2361
  921MOL0     C24214   1.287   8.359   0.535 -0.4052  0.6235 -0.1838
  921MOL0     C24215   1.168   8.378   0.452  0.4778 -0.1433 -0.0675
  921MOL0     C24216   1.071   8.481   0.531  0.4385 -0.0986 -0.3839
  921MOL0     N24217   0.943   8.476   0.464 -0.8496  0.0985 -0.7366
  921MOL0     C24218   0.845   8.385   0.500  0.4742 -0.0686  1.3840
  921MOL0     C24219   0.729   8.433   0.440  0.0475  0.3830 -0.3533
  921MOL0     C24220   0.599   8.358   0.458 -0.6287 -0.6076  1.2354
  921MOL0     C24221   0.603   8.226   0.387 -0.1818 -0.4211  0.4627
  921MOL0     C24222   0.685   8.115   0.444  0.4975 -0.3647  0.2561
  921MOL0     C24223   0.667   7.975   0.370 -0.2083 -0.0748 -0.0213
  921MOL0     O24224   0.562   7.975   0.273 -0.1440 -0.5248 -0.3524
  921MOL0     C24225   0.432   7.949   0.301 -0.1108  0.2308  0.8584
  921MOL0     C24226   0.336   7.963   0.198 -0.3016 -0.7371 -0.5305
  921MOL0     C24227   0.201   7.957   0.211 -0.0818  0.2176  0.2130
  921MOL0     C24228   0.122   7.989   0.087  0.1782 -0.2488  0.2505
  921MOL0     C24229   0.139   7.924   0.338 -0.9132 -0.2407 -0.2743
  921MOL0     C24230  -0.006   7.892   0.354  0.1602  0.1104 -0.3517
  921MOL0     O24231  -0.093   7.919   0.249 -0.7858  0.3495 -0.0766
  921MOL0     C24232  -0.221   7.864   0.243  0.3764 -1.0839 -1.2131
  921MOL0     C24233  -0.260   7.805   0.120  0.1921 -0.6729  0.3383
  921MOL0     C24234  -0.392   7.770   0.096  0.1138 -0.5937 -0.4252
  921MOL0     C24235  -0.495   7.796   0.194  0.0398 -0.0231 -0.5949
  921MOL0     O24236  -0.627   7.782   0.153 -0.6156  0.0247  0.3459
  921MOL0     C24237  -0.722   7.845   0.240 -0.1419 -0.7269 -0.2650
  921MOL0     C24238  -0.864   7.863   0.182  0.3268  0.1418  0.6153
  921MOL0     C24239  -0.972   7.881   0.286 -0.0550  0.0501  0.4090
  921MOL0     C24240  -1.100   7.906   0.209 -0.0578  0.6443 -0.3424
  921MOL0     C24241  -1.213   7.921   0.299  0.5916  0.0559 -0.2121
  921MOL0     C24242  -1.345   7.906   0.224  0.5431 -0.6251  0.7629
  921MOL0     C24243  -1.465   7.899   0.320 -0.1138 -0.2952 -0.1160
  921MOL0     C24244  -1.541   8.037   0.336 -0.5610 -0.3106 -0.4082
  921MOL0    Cl24245  -1.624   8.065   0.177 -0.2063 -0.1881  0.1492
  921MOL0     C24246  -0.445   7.847   0.316 -0.2143 -0.9035 -0.4029
  921MOL0     C24247  -0.311   7.880   0.345  0.9999  0.4528  0.2740
  921MOL0     O24248  -0.046   7.835   0.460 -0.2298 -0.0397 -0.1381
  921MOL0     C24249   0.228   7.917   0.447  0.2090 -0.2395 -0.2246
  921MOL0     C24250   0.376   7.928   0.434 -0.5480 -0.0914  0.5131
  921MOL0     N24251   0.768   8.545   0.374  0.6524  0.2851 -0.2837
  921MOL0     N24252   0.890   8.579   0.388 -0.4590  0.1747 -0.0794
  921MOL0     C24253   2.058   8.085   0.115 -0.2240  0.6130  0.1382
  921MOL0     C24254   2.195   8.066   0.094  0.2797  0.9100 -0.4709
  921MOL0     C24255   2.651   8.026   0.160  0.8646 -0.4005  1.1581
  921MOL0     C24256   2.762   7.991   0.240  0.1341  0.2349  0.0982
  921MOL0     C24257   2.895   8.018   0.194  0.0750  0.6951 -0.6229
  921MOL0     C24258   2.914   8.068   0.066 -0.9643  0.5349  0.4007
  921MOL0     O24259   3.037   8.062   0.006 -0.2657  0.0535  0.4132
  921MOL0     C24260   3.155   8.061   0.078 -0.5567 -0.0509 -0.4719
  921MOL0     C24261   3.270   8.091  -0.013 -0.2717 -0.3730 -0.0600
  921MOL0     C24262   3.401   8.101   0.065 -0.1713 -0.0752  0.1719
  921MOL0     C24263   3.516   8.159  -0.022  0.2861 -0.3973  0.4327
  921MOL0     C24264   3.635   8.182   0.058 -0.5986  1.3988 -0.2411
  921MOL0     C24265   3.741   8.208   0.114  0.5247 -0.3192 -0.3023
  921MOL0     C24266   2.807   8.111  -0.005  0.2751 -0.2773  0.7368
  921MOL0     C24267   2.677   8.094   0.036  0.7176 -0.7346 -0.4232
  921MOL0     H24268   2.322   8.178   0.381 -0.2903  1.2852 -0.1641
  921MOL0     H24269   2.087   8.171   0.443  1.1141  1.1227  1.1087
  921MOL0     H24270   1.852   8.036   0.442 -0.4483  0.6975 -0.3447
  921MOL0     H24271   1.849   8.211   0.452 -1.4238 -0.8486  1.3148
  921MOL0     H24272   1.627   8.199   0.305  1.4967  0.8349 -0.8401
  921MOL0     H24273   1.653   8.033   0.301 -3.1087  1.9192 -1.5898
  921MOL0     H24274   1.499   8.016   0.464 -0.7494 -0.1751  1.6652
  921MOL0     H24275   1.649   8.041   0.561 -0.5182 -0.2845 -0.7533
  921MOL0     H24276   1.493   8.196   0.656 -0.5163 -3.0220 -0.5697
  921MOL0     H24277   1.581   8.296   0.536 -0.9311  0.3441 -1.1950
  921MOL0     H24278   1.396   8.267   0.368 -1.0466  0.4491 -0.5612
  921MOL0     H24279   1.321   8.157   0.476  2.6114 -1.1619 -5.2437
  921MOL0     H24280   1.257   8.326   0.634  0.3346 -0.5384 -0.3225
  921MOL0     H24281   1.334   8.457   0.548  0.7813  0.0440  0.0492
  921MOL0     H24282   1.201   8.429   0.361  3.4585  0.0063  0.9690
  921MOL0     H24283   1.113   8.286   0.431 -0.2539 -0.4630  2.8021
  921MOL0     H24284   1.104   8.585   0.516 -0.4447  1.0746  4.2596
  921MOL0     H24285   1.055   8.461   0.637 -0.8090 -1.3419 -0.7722
  921MOL0     H24286   0.854   8.298   0.564  0.0158  0.1620  1.7763
  921MOL0     H24287   0.573   8.364   0.564 -0.4786 -1.7085  1.3476
  921MOL0     H24288   0.538   8.427   0.398  0.8638 -2.7335 -3.1604
  921MOL0     H24289   0.641   8.240   0.285 -0.4661  1.7465  0.6214
  921MOL0     H24290   0.499   8.201   0.362 -0.9924  0.8406  2.3814
  921MOL0     H24291   0.640   8.099   0.543 -1.5826 -0.4976 -0.6539
  921MOL0     H24292   0.791   8.137   0.454  0.3191  1.5626 -1.5213
  921MOL0     H24293   0.646   7.898   0.445  0.3936 -0.3039 -0.0771
  921MOL0     H24294   0.766   7.952   0.328  0.3926 -2.4102  2.3638
  921MOL0     H24295   0.374   7.987   0.099  0.0846 -1.7767 -0.6530
  921MOL0     H24296   0.062   8.078   0.104  0.6702  0.1827 -0.2378
  921MOL0     H24297   0.177   7.999  -0.007  1.8395 -1.5523  1.0358
  921MOL0     H24298   0.053   7.907   0.064  1.3007 -1.7456  1.8761
  921MOL0     H24299  -0.185   7.776   0.047  0.2292  0.2179  0.0089
  921MOL0     H24300  -0.430   7.743  -0.001 -2.6745  1.5415 -0.0588
  921MOL0     H24301  -0.728   7.786   0.332  3.3486  0.5067  0.9109
  921MOL0     H24302  -0.685   7.944   0.269 -3.2728  0.6335 -0.5495
  921MOL0     H24303  -0.860   7.958   0.128 -1.0250  0.6994  1.4599
  921MOL0     H24304  -0.880   7.781   0.110  1.5711  1.5041 -1.3046
  921MOL0     H24305  -0.968   7.963   0.359 -0.1605  2.2453 -1.9306
  921MOL0     H24306  -0.984   7.783   0.334  0.4875  0.2243  0.9094
  921MOL0     H24307  -1.070   7.997   0.157  2.6166  0.7784  1.2686
  921MOL0     H24308  -1.126   7.826   0.139 -1.1394  0.9020 -0.2530
  921MOL0     H24309  -1.214   8.017   0.352 -2.2911  1.0412 -1.8597
  921MOL0     H24310  -1.209   7.840   0.373 -1.5869 -0.3347 -0.4700
  921MOL0     H24311  -1.356   7.993   0.159  0.4673 -0.4807  0.9697
  921MOL0     H24312  -1.334   7.811   0.169  2.0699 -0.1089  0.1315
  921MOL0     H24313  -1.433   7.871   0.421 -1.0077 -1.6224 -0.1680
  921MOL0     H24314  -1.540   7.827   0.287  0.5520 -2.7948  3.3040
  921MOL0     H24315  -1.471   8.119   0.356 -1.3809 -0.0581  1.6831
  921MOL0     H24316  -1.610   8.038   0.421 -1.6031  1.4670 -1.2327
  921MOL0     H24317  -0.513   7.882   0.393 -0.9587  0.8825 -1.7702
  921MOL0     H24318  -0.276   7.924   0.438 -0.9058  2.5411  0.0835
  921MOL0     H24319   0.183   7.891   0.543  4.3817 -2.2232  1.4756
  921MOL0     H24320   0.443   7.914   0.518  1.3856  3.8698 -0.1438
  921MOL0     H24321   1.988   8.074   0.032 -0.5836  0.8781  0.4044
  921MOL0     H24322   2.220   8.041  -0.009  2.3871 -0.3596  0.2731
  921MOL0     H24323   2.754   7.953   0.341  2.9305  0.4485  0.4870
  921MOL0     H24324   2.976   7.972   0.250  0.5994  0.8247 -1.2678
  921MOL0     H24325   3.158   8.124   0.167  4.1887  0.6325 -0.8512
  921MOL0     H24326   3.171   7.958   0.111 -1.8046  0.1895  0.9880
  921MOL0     H24327   3.252   8.187  -0.064 -1.3542  0.2709  1.4396
  921MOL0     H24328   3.283   8.015  -0.090  3.1603  0.8325 -0.8712
  921MOL0     H24329   3.434   8.001   0.096  0.1733 -1.2020 -3.3751
  921MOL0     H24330   3.384   8.161   0.155 -1.9350 -2.1673  1.3281
  921MOL0     H24331   3.472   8.248  -0.069 -1.0645 -1.2453  0.0250
  921MOL0     H24332   3.537   8.078  -0.093 -1.6363  0.1905 -0.8802
  921MOL0     H24333   3.837   8.240   0.148 -0.0830  1.4822 -0.1790
  921MOL0     H24334   2.823   8.174  -0.093  0.9905  0.0670  1.1072
  921MOL0     H24335   2.607   8.163  -0.010  0.9933  0.1942  0.5139
  922MOL0     O24336   8.294   1.693   2.665 -0.1055  0.4823  0.1636
  922MOL0     C24337   8.363   1.767   2.743 -0.5828  0.5185  0.4551
  922MOL0     O24338   8.317   1.877   2.815 -0.1974 -0.0525  0.6986
  922MOL0     C24339   8.185   1.909   2.810  0.1052  0.2995 -0.5760
  922MOL0     C24340   8.152   2.039   2.777  0.7026  0.0845 -0.6849
  922MOL0     C24341   8.021   2.085   2.794  0.2169  0.1348  0.8546
  922MOL0     C24342   7.916   2.005   2.832 -0.8785  0.9523 -0.6857
  922MOL0     O24343   7.794   2.070   2.839 -0.1056  0.3445  0.2452
  922MOL0     C24344   7.693   2.001   2.899  0.4930 -0.0522  0.0720
  922MOL0     C24345   7.568   2.085   2.906 -0.3753 -0.7013 -0.6520
  922MOL0     C24346   7.563   2.189   3.020 -0.5953  0.4030 -0.1371
  922MOL0     C24347   7.657   2.311   2.987 -0.3479 -0.8359  0.5769
  922MOL0     C24348   7.596   2.436   3.052  0.0188 -0.0419  0.3650
  922MOL0     C24349   7.685   2.557   3.067 -0.1295  0.0193  0.2611
  922MOL0     C24350   7.587   2.674   3.086 -0.6075 -0.4078 -0.1126
  922MOL0     C24351   7.656   2.803   3.117 -0.1380 -0.4434 -0.2853
  922MOL0     N24352   7.555   2.910   3.130 -0.5522  0.1518 -0.1780
  922MOL0     C24353   7.568   3.027   3.068 -0.7501  0.1504  0.0296
  922MOL0     C24354   7.471   3.109   3.113  0.3314 -0.8284  0.4517
  922MOL0     C24355   7.420   3.237   3.056  0.2178 -0.4189 -0.3358
  922MOL0     C24356   7.430   3.357   3.153  0.3178 -0.4991 -0.0848
  922MOL0     C24357   7.327   3.474   3.124  0.6367 -0.7248  0.4003
  922MOL0     C24358   7.348   3.542   2.991  0.0109  0.1359 -0.1476
  922MOL0     O24359   7.281   3.668   2.981 -0.6471  0.4731 -0.3318
  922MOL0     C24360   7.142   3.668   2.974 -1.0092  0.0362  0.0748
  922MOL0     C24361   7.068   3.596   2.873  0.1504  0.3763  0.0177
  922MOL0     C24362   6.923   3.594   2.881 -0.1247 -0.1581 -0.8108
  922MOL0     C24363   6.844   3.521   2.778 -0.0496 -0.5662 -0.1237
  922MOL0     C24364   6.858   3.674   2.987 -0.7194 -0.3521 -0.4296
  922MOL0     C24365   6.714   3.696   3.004  0.9454  0.2942  0.5154
  922MOL0     O24366   6.673   3.814   3.055  0.1395  0.3713 -0.6835
  922MOL0     C24367   6.538   3.828   3.042 -0.2918  0.3069 -0.1517
  922MOL0     C24368   6.451   3.794   3.142 -0.0920  0.3262  0.4253
  922MOL0     C24369   6.312   3.821   3.133 -0.6316  0.3099  0.9376
  922MOL0     C24370   6.254   3.893   3.028 -0.4671 -0.4248 -0.6040
  922MOL0     O24371   6.122   3.917   3.029  1.0072  0.7834  0.2750
  922MOL0     C24372   6.079   4.024   2.955  0.0009 -0.6537  0.4086
  922MOL0     C24373   5.939   4.065   3.002  0.0052  0.3103  0.7356
  922MOL0     C24374   5.838   3.949   2.969  0.8506 -0.9788  0.1741
  922MOL0     C24375   5.717   3.960   3.056  0.2945  0.3265 -0.1336
  922MOL0     C24376   5.636   3.838   3.066  1.0306 -0.1716  0.1854
  922MOL0     C24377   5.516   3.849   3.162 -0.5962 -0.4083 -0.6418
  922MOL0     C24378   5.401   3.939   3.115  0.2867  0.1492 -0.8573
  922MOL0     C24379   5.283   3.935   3.214  1.0775  0.3920 -0.2691
  922MOL0    Cl24380   5.214   3.772   3.220 -0.0549 -0.0041  0.4184
  922MOL0     C24381   6.351   3.934   2.931  0.8194  0.2189 -0.5077
  922MOL0     C24382   6.485   3.901   2.932 -0.5253 -0.3387 -0.3722
  922MOL0     O24383   6.633   3.613   2.950 -0.5681 -0.1324  0.0605
  922MOL0     C24384   6.935   3.754   3.083  0.4021  0.2994 -0.1391
  922MOL0     C24385   7.079   3.751   3.066  0.1685 -0.1842 -0.2695
  922MOL0     N24386   7.400   3.034   3.210 -0.4263  0.1723 -0.1543
  922MOL0     N24387   7.449   2.913   3.216  1.1202  0.2451 -0.4504
  922MOL0     C24388   7.952   1.868   2.867 -0.3338 -0.3549  0.7047
  922MOL0     C24389   8.081   1.821   2.852  0.0751 -0.3439 -0.1971
  922MOL0     C24390   8.512   1.740   2.736  0.4330  0.4278  0.6364
  922MOL0     C24391   8.560   1.649   2.646 -0.1437  0.0739 -0.8652
  922MOL0     C24392   8.696   1.621   2.648 -0.2676  0.0245  0.4290
  922MOL0     C24393   8.787   1.674   2.741  0.4025  1.1878 -0.6129
  922MOL0     O24394   8.921   1.641   2.755 -0.2791  0.3220 -0.4134
  922MOL0     C24395   8.978   1.548   2.652  1.3338  0.1989  0.1106
  922MOL0     C24396   9.129   1.547   2.648  0.6944 -0.1288 -0.0920
  922MOL0     C24397   9.182   1.694   2.657  0.0207 -0.0959  0.5506
  922MOL0     C24398   9.329   1.706   2.622  0.2433  0.0094  0.4571
  922MOL0     C24399   9.387   1.826   2.677 -0.2356  0.3437  0.7255
  922MOL0     C24400   9.431   1.933   2.723 -0.0948 -0.1981  0.0150
  922MOL0     C24401   8.729   1.767   2.832 -0.3906 -0.2455  0.2319
  922MOL0     C24402   8.594   1.805   2.826 -0.1524 -0.1320  0.3390
  922MOL0     H24403   8.228   2.113   2.752 -0.1079  0.7734 -1.1538
  922MOL0     H24404   8.005   2.191   2.781  0.7135  0.3281  1.7055
  922MOL0     H24405   7.668   1.905   2.853 -1.0781  0.5739 -0.4506
  922MOL0     H24406   7.721   1.979   3.003  3.0155 -1.9327 -0.8826
  922MOL0     H24407   7.530   2.134   2.816 -1.5131 -1.1733 -0.4535
  922MOL0     H24408   7.490   2.011   2.931  0.4233 -0.4999  2.9464
  922MOL0     H24409   7.462   2.230   3.015  0.2198  2.4084 -0.9670
  922MOL0     H24410   7.592   2.147   3.117  0.9888  1.8924  0.0784
  922MOL0     H24411   7.755   2.282   3.025  0.6910  0.1341 -1.2477
  922MOL0     H24412   7.674   2.331   2.881 -0.0361  0.6239  0.8783
  922MOL0     H24413   7.511   2.463   2.988 -1.0035  0.3588  1.8362
  922MOL0     H24414   7.552   2.410   3.149 -0.7936  4.2354  1.3326
  922MOL0     H24415   7.759   2.545   3.146 -0.6288 -0.3328  0.6809
  922MOL0     H24416   7.743   2.582   2.977 -2.6996  1.3666 -1.1545
  922MOL0     H24417   7.532   2.678   2.992 -4.2201 -0.0046  1.8154
  922MOL0     H24418   7.519   2.646   3.167 -0.2127  1.6516  0.9891
  922MOL0     H24419   7.708   2.826   3.024 -3.4305 -0.0626 -2.1758
  922MOL0     H24420   7.724   2.797   3.203 -1.6163 -1.6769  0.8414
  922MOL0     H24421   7.647   3.052   2.999  0.7817 -2.7607  0.5807
  922MOL0     H24422   7.465   3.264   2.960  0.0358  2.2586  0.2396
  922MOL0     H24423   7.314   3.219   3.037  0.2949  0.1704 -1.4249
  922MOL0     H24424   7.530   3.400   3.138  0.5950 -1.7969 -2.5226
  922MOL0     H24425   7.421   3.309   3.250  1.8482 -1.9866 -0.6211
  922MOL0     H24426   7.334   3.545   3.207  0.3409 -0.7664  0.4613
  922MOL0     H24427   7.224   3.436   3.122 -0.2531  1.5400 -2.5213
  922MOL0     H24428   7.304   3.474   2.917 -0.7342 -0.6370  0.9712
  922MOL0     H24429   7.452   3.558   2.962  0.1382 -1.4651 -0.6744
  922MOL0     H24430   7.129   3.554   2.793 -1.8806  0.6288 -1.7388
  922MOL0     H24431   6.901   3.513   2.684 -0.1816  2.0277 -0.4871
  922MOL0     H24432   6.812   3.423   2.815  0.9693 -0.6892  0.4743
  922MOL0     H24433   6.756   3.577   2.745  0.8014 -0.0436 -1.6118
  922MOL0     H24434   6.495   3.766   3.237  1.1306  0.1251 -0.1840
  922MOL0     H24435   6.254   3.805   3.224  1.0861  1.9181  2.4067
  922MOL0     H24436   6.142   4.112   2.967 -0.9171  0.0678  0.0581
  922MOL0     H24437   6.075   4.004   2.847 -2.1409  2.0245 -0.1067
  922MOL0     H24438   5.934   4.085   3.109 -2.3546  1.0385  0.5441
  922MOL0     H24439   5.903   4.150   2.943 -1.7277 -0.2505  0.9467
  922MOL0     H24440   5.885   3.851   2.980  1.8116 -0.4437  1.0438
  922MOL0     H24441   5.817   3.957   2.862  1.4302  0.1741  0.1247
  922MOL0     H24442   5.756   3.978   3.157  2.3384  0.5260 -0.9221
  922MOL0     H24443   5.658   4.048   3.028 -1.0960 -0.3904  0.4714
  922MOL0     H24444   5.705   3.762   3.103  1.5205 -0.4099 -1.1326
  922MOL0     H24445   5.603   3.810   2.965 -1.8533  0.4312  0.8756
  922MOL0     H24446   5.475   3.748   3.166  0.7076 -0.9655 -0.7570
  922MOL0     H24447   5.546   3.876   3.264 -2.7472  1.8820 -0.5281
  922MOL0     H24448   5.366   3.904   3.018  2.6899  0.5873 -1.9652
  922MOL0     H24449   5.430   4.044   3.107 -2.5823  1.2061  0.8395
  922MOL0     H24450   5.209   4.007   3.177 -0.1878 -2.1795 -3.2335
  922MOL0     H24451   5.316   3.960   3.315  1.0404  0.4765 -0.2776
  922MOL0     H24452   6.315   3.992   2.847 -1.5478  1.0102  0.9689
  922MOL0     H24453   6.550   3.945   2.858 -1.0161 -2.4116 -2.1160
  922MOL0     H24454   6.886   3.820   3.154 -0.4244  2.0494 -2.2091
  922MOL0     H24455   7.129   3.813   3.140 -1.2393 -0.4137  0.9092
  922MOL0     H24456   7.868   1.810   2.904 -0.4252  0.3814  1.7098
  922MOL0     H24457   8.093   1.715   2.869  0.9269 -0.3739 -0.8902
  922MOL0     H24458   8.495   1.595   2.578  1.2768 -5.5153  1.6033
  922MOL0     H24459   8.724   1.563   2.560 -0.3126  0.4710  0.1185
  922MOL0     H24460   8.940   1.446   2.665 -0.2164  0.2724 -3.0528
  922MOL0     H24461   8.943   1.582   2.555  0.3754 -3.3573 -0.9322
  922MOL0     H24462   9.156   1.506   2.551  1.1701  1.9943 -0.9070
  922MOL0     H24463   9.175   1.482   2.723  0.1998 -2.0175 -1.3581
  922MOL0     H24464   9.156   1.740   2.753  2.5912  1.3239  0.6748
  922MOL0     H24465   9.124   1.744   2.579 -0.8111 -0.1173  1.1416
  922MOL0     H24466   9.346   1.693   2.515 -1.0050 -0.9543  0.3520
  922MOL0     H24467   9.372   1.617   2.667  0.4305  0.5918  1.4468
  922MOL0     H24468   9.469   2.029   2.751  0.9879 -0.4161 -0.6258
  922MOL0     H24469   8.795   1.806   2.908  0.3470  1.3741 -1.1814
  922MOL0     H24470   8.558   1.891   2.882 -0.6246 -0.5635  0.7046
  923MOL0     O24471   1.459   8.693   0.708 -0.4920 -0.6077 -1.5694
  923MOL0     C24472   1.509   8.774   0.784  0.0959 -0.2053 -0.1553
  923MOL0     O24473   1.434   8.887   0.820  0.7819  0.0321 -0.1177
  923MOL0     C24474   1.339   8.955   0.742  0.6491  0.9069  0.0666
  923MOL0     C24475   1.306   8.919   0.611  0.4040  0.3986  0.3844
  923MOL0     C24476   1.233   9.007   0.523  0.4761  0.6700 -0.0969
  923MOL0     C24477   1.191   9.133   0.572  0.6073 -0.6194  0.6338
  923MOL0     O24478   1.103   9.218   0.517 -0.1566  0.2012  0.4724
  923MOL0     C24479   1.015   9.164   0.415 -0.0842 -0.1167 -0.3580
  923MOL0     C24480   0.898   9.271   0.405  0.1208  0.5272  0.4785
  923MOL0     C24481   0.936   9.379   0.297 -0.4104  0.4728  0.2575
  923MOL0     C24482   0.921   9.326   0.161 -0.6001  0.1624  0.1103
  923MOL0     C24483   1.013   9.392   0.058 -0.1866 -0.2712  0.4702
  923MOL0     C24484   1.014   9.304  -0.069 -0.1850 -0.4625  0.6313
  923MOL0     C24485   1.102   9.358  -0.189  0.8203 -0.4181 -0.0947
  923MOL0     C24486   1.035   9.439  -0.295 -0.1323  0.5078  0.0646
  923MOL0     N24487   1.006   9.581  -0.263 -0.1515  0.4468 -0.0539
  923MOL0     C24488   0.881   9.640  -0.265 -0.0054  0.8169  0.7827
  923MOL0     C24489   0.906   9.764  -0.221  0.2262 -0.2874  0.0865
  923MOL0     C24490   0.803   9.876  -0.222 -0.3158  0.0257 -0.0099
  923MOL0     C24491   0.665   9.860  -0.273  0.6027 -0.1524 -0.2516
  923MOL0     C24492   0.609   9.994  -0.309  0.4509  0.1141  0.1565
  923MOL0     C24493   0.452   9.981  -0.312 -0.3809  0.1300  0.3604
  923MOL0     O24494   0.401  10.111  -0.350 -0.2008 -0.0429  0.0224
  923MOL0     C24495   0.266  10.098  -0.354  0.3824 -0.5167 -0.0184
  923MOL0     C24496   0.214  10.111  -0.483 -0.5702 -0.0104  0.1730
  923MOL0     C24497   0.074  10.098  -0.508 -0.1006 -0.6476  0.2433
  923MOL0     C24498   0.038  10.091  -0.645  0.0620 -0.1085 -0.0128
  923MOL0     C24499  -0.013  10.082  -0.398 -0.6984  0.0022  0.0215
  923MOL0     C24500  -0.161  10.051  -0.406 -0.1219 -0.4364 -0.5722
  923MOL0     O24501  -0.223  10.012  -0.286 -0.0956  0.0527  0.1018
  923MOL0     C24502  -0.354   9.972  -0.288 -0.6771  0.5098 -0.8487
  923MOL0     C24503  -0.410   9.905  -0.393 -0.1148  0.5593  0.0702
  923MOL0     C24504  -0.551   9.878  -0.391 -0.1245  0.6721  0.2433
  923MOL0     C24505  -0.628   9.920  -0.289 -0.4173 -0.4701 -0.6518
  923MOL0     O24506  -0.762   9.907  -0.282 -0.9723 -0.2643 -0.3386
  923MOL0     C24507  -0.825   9.814  -0.373  0.1279 -0.6087  0.3341
  923MOL0     C24508  -0.979   9.835  -0.385  0.1189  0.2809  0.1283
  923MOL0     C24509  -1.055   9.791  -0.258 -0.2907  0.3353 -0.1615
  923MOL0     C24510  -1.063   9.636  -0.263 -0.1934 -0.1798  0.2935
  923MOL0     C24511  -1.193   9.592  -0.336  0.5394  0.8149  0.4545
  923MOL0     C24512  -1.224   9.444  -0.327 -0.3085 -0.3032  0.5800
  923MOL0     C24513  -1.206   9.382  -0.194 -0.7083 -0.8110  0.7365
  923MOL0     C24514  -1.266   9.245  -0.197  1.1402  0.1984 -0.4873
  923MOL0    Cl24515  -1.442   9.242  -0.230 -0.0212  0.3568 -0.0073
  923MOL0     C24516  -0.561   9.979  -0.181  0.1114 -0.1992 -0.2057
  923MOL0     C24517  -0.425  10.011  -0.181  0.9252  0.6214  0.3311
  923MOL0     O24518  -0.211  10.069  -0.514 -0.3810 -0.2887  0.3808
  923MOL0     C24519   0.038  10.075  -0.264  0.1355 -0.5247  0.3209
  923MOL0     C24520   0.173  10.087  -0.241 -0.1107  0.7375  0.2257
  923MOL0     N24521   1.039   9.776  -0.175  0.2539  0.0756 -0.2078
  923MOL0     N24522   1.095   9.664  -0.202 -1.0605 -0.5500  0.5201
  923MOL0     C24523   1.213   9.156   0.708  0.1232  0.0391  0.0053
  923MOL0     C24524   1.276   9.067   0.796 -0.4844  0.2428  0.4330
  923MOL0     C24525   1.642   8.752   0.847  0.5282  0.0456 -0.5442
  923MOL0     C24526   1.718   8.638   0.826 -0.0449  0.1796  0.4154
  923MOL0     C24527   1.839   8.618   0.880 -0.2761 -0.4419  0.0942
  923MOL0     C24528   1.887   8.716   0.969  0.7240 -0.6409 -0.8625
  923MOL0     O24529   2.017   8.722   1.027 -0.5914 -0.3401  0.3195
  923MOL0     C24530   2.105   8.610   1.007 -0.3832  0.2115 -0.1523
  923MOL0     C24531   2.232   8.607   1.093 -0.6780 -0.6818 -0.9280
  923MOL0     C24532   2.329   8.709   1.041  0.8141  0.7710  0.8422
  923MOL0     C24533   2.466   8.708   1.113 -0.0380 -0.0958 -0.8287
  923MOL0     C24534   2.451   8.785   1.239 -0.9267  0.0310 -0.1840
  923MOL0     C24535   2.433   8.848   1.341  0.2268 -0.4709 -0.7558
  923MOL0     C24536   1.805   8.830   1.003 -0.1558 -0.8689  0.1347
  923MOL0     C24537   1.684   8.852   0.936  0.5070  0.1976 -0.3172
  923MOL0     H24538   1.345   8.826   0.571 -0.2934 -0.9715  2.7302
  923MOL0     H24539   1.220   8.982   0.418  3.1755 -0.4552 -0.2418
  923MOL0     H24540   1.062   9.133   0.322 -0.9060  1.0446 -1.1884
  923MOL0     H24541   0.970   9.073   0.457 -0.4623  0.2664  0.0864
  923MOL0     H24542   0.804   9.232   0.366 -2.3048  1.2261  4.9339
  923MOL0     H24543   0.889   9.315   0.505  1.8907  0.9368  0.4999
  923MOL0     H24544   0.874   9.468   0.314  0.7831  1.2640  0.6274
  923MOL0     H24545   1.038   9.412   0.317 -1.3668  3.0074  1.4648
  923MOL0     H24546   0.950   9.220   0.159  1.8207  0.7455 -2.2437
  923MOL0     H24547   0.820   9.328   0.118 -0.1403 -1.3280 -1.1518
  923MOL0     H24548   0.979   9.492   0.030 -2.3477 -1.2672 -0.6937
  923MOL0     H24549   1.113   9.407   0.100 -1.2341  2.9949  2.1469
  923MOL0     H24550   1.059   9.207  -0.045  1.1076 -0.9627 -3.0725
  923MOL0     H24551   0.913   9.298  -0.111  0.1732  0.4222 -0.4262
  923MOL0     H24552   1.189   9.412  -0.152 -0.9855  2.7471 -0.1797
  923MOL0     H24553   1.132   9.269  -0.245  0.1490 -0.5175 -0.3153
  923MOL0     H24554   0.954   9.369  -0.315 -1.4577  1.1539  2.7775
  923MOL0     H24555   1.096   9.451  -0.386 -0.0868  1.2728  0.1818
  923MOL0     H24556   0.793   9.602  -0.317  0.7001  1.7657 -1.2041
  923MOL0     H24557   0.806   9.902  -0.116  1.5227 -0.9321  0.2138
  923MOL0     H24558   0.856   9.958  -0.271  4.0812 -0.9745  2.5552
  923MOL0     H24559   0.616   9.805  -0.191  1.6721 -0.6277  0.0934
  923MOL0     H24560   0.673   9.796  -0.361 -2.0390 -0.3141 -0.4500
  923MOL0     H24561   0.643  10.030  -0.406  0.8334  2.3265  1.0456
  923MOL0     H24562   0.635  10.068  -0.232 -1.0033  0.9247 -0.1025
  923MOL0     H24563   0.408   9.942  -0.220  1.5500 -2.5738  0.2611
  923MOL0     H24564   0.426   9.898  -0.379 -3.2516 -1.9834  3.6934
  923MOL0     H24565   0.289  10.134  -0.558 -0.6520  0.6124  0.2823
  923MOL0     H24566   0.121  10.107  -0.714  1.3876 -2.1399  1.0130
  923MOL0     H24567  -0.014   9.998  -0.668 -1.4029  1.0872 -1.7214
  923MOL0     H24568  -0.026  10.179  -0.649  0.0603 -0.0531  0.9063
  923MOL0     H24569  -0.347   9.864  -0.471  1.2925  0.0688  1.4094
  923MOL0     H24570  -0.595   9.817  -0.469 -2.0245  2.0238  0.1882
  923MOL0     H24571  -0.784   9.835  -0.472 -3.0821  1.4493 -0.6979
  923MOL0     H24572  -0.802   9.711  -0.344  0.7557 -0.6679 -0.3285
  923MOL0     H24573  -0.986   9.942  -0.409  3.4831  0.7033  0.4848
  923MOL0     H24574  -1.028   9.783  -0.468  0.8204 -2.5694  1.3692
  923MOL0     H24575  -1.153   9.840  -0.252 -0.4926 -0.1109  0.1755
  923MOL0     H24576  -1.007   9.832  -0.168 -1.9107 -1.4681  1.6269
  923MOL0     H24577  -0.975   9.594  -0.313 -0.5840 -0.4569 -0.1632
  923MOL0     H24578  -1.058   9.606  -0.158 -2.5704  1.4282  0.9651
  923MOL0     H24579  -1.198   9.620  -0.442 -1.3346 -1.6113 -0.1947
  923MOL0     H24580  -1.276   9.645  -0.289  1.0211 -0.0966  2.4171
  923MOL0     H24581  -1.330   9.437  -0.353 -0.1369  1.7954 -0.9578
  923MOL0     H24582  -1.169   9.391  -0.406 -0.8560  0.4946 -0.3625
  923MOL0     H24583  -1.264   9.438  -0.121 -0.4144 -0.0952  0.4292
  923MOL0     H24584  -1.101   9.373  -0.164 -0.5642 -1.1189  0.1591
  923MOL0     H24585  -1.252   9.201  -0.098 -3.2959 -1.9718 -0.5962
  923MOL0     H24586  -1.215   9.178  -0.267  0.8932 -1.5306  0.9053
  923MOL0     H24587  -0.620  10.009  -0.095 -0.4542  0.4049 -0.7926
  923MOL0     H24588  -0.388  10.074  -0.101 -1.9666  0.9249  1.5716
  923MOL0     H24589  -0.026  10.051  -0.180  3.5337 -3.7818  2.2962
  923MOL0     H24590   0.210  10.076  -0.140 -0.6748  0.1520  0.3799
  923MOL0     H24591   1.143   9.224   0.755 -0.1089 -0.4157  0.3243
  923MOL0     H24592   1.284   9.091   0.901  1.8883 -0.3312  0.4327
  923MOL0     H24593   1.695   8.566   0.748  0.2615  2.1679 -1.6006
  923MOL0     H24594   1.897   8.531   0.852 -2.6856 -1.7488 -1.2717
  923MOL0     H24595   2.054   8.519   1.039  1.2644 -0.6555  0.1436
  923MOL0     H24596   2.122   8.593   0.900  2.5520  1.2513  0.0633
  923MOL0     H24597   2.284   8.511   1.091  0.0112 -0.8561  5.1147
  923MOL0     H24598   2.211   8.620   1.200  0.7912 -0.4389 -0.6403
  923MOL0     H24599   2.289   8.810   1.028 -2.3655 -0.1034  2.8528
  923MOL0     H24600   2.350   8.688   0.935 -0.3556 -1.0578  0.9424
  923MOL0     H24601   2.546   8.749   1.050  2.7257 -1.8300  1.3171
  923MOL0     H24602   2.495   8.605   1.135 -3.0540 -1.4664 -2.6464
  923MOL0     H24603   2.429   8.899   1.434  0.4074  0.1271 -1.0730
  923MOL0     H24604   1.834   8.905   1.075 -1.0500 -0.8152  0.4486
  923MOL0     H24605   1.619   8.935   0.960  0.8634  0.5500 -0.5736
  924MOL0     O24606   5.494   9.927   4.057  0.5256 -0.5812 -0.1475
  924MOL0     C24607   5.527  10.034   4.107 -0.1661 -0.0180 -0.9333
  924MOL0     O24608   5.448  10.145   4.111 -0.0297 -0.4782 -0.0687
  924MOL0     C24609   5.327  10.135   4.053 -0.2984  0.0690  0.4711
  924MOL0     C24610   5.326  10.131   3.917  0.5275 -0.0724  1.1256
  924MOL0     C24611   5.209  10.141   3.844  0.5356  0.3080  0.5849
  924MOL0     C24612   5.083  10.143   3.909  0.2574 -0.7678  0.3944
  924MOL0     O24613   4.960  10.159   3.843 -0.0733  1.2709 -0.5646
  924MOL0     C24614   4.908  10.031   3.796  0.8639  0.0588  0.0558
  924MOL0     C24615   4.840   9.946   3.903  0.5167  0.2079  0.0135
  924MOL0     C24616   4.706   9.998   3.978  0.0437 -0.6902  0.0707
  924MOL0     C24617   4.643   9.895   4.076  0.1823  0.3780  0.0484
  924MOL0     C24618   4.517   9.952   4.164 -0.2651 -0.1036  0.8918
  924MOL0     C24619   4.468   9.848   4.261  0.1140  0.8518 -1.0238
  924MOL0     C24620   4.355   9.887   4.355 -0.1346 -0.1255  0.0322
  924MOL0     C24621   4.317   9.779   4.446  0.0483 -0.2308  0.0552
  924MOL0     N24622   4.205   9.813   4.533  0.1654  0.0304 -0.4275
  924MOL0     C24623   4.085   9.867   4.496  0.3356 -0.3327 -0.6130
  924MOL0     C24624   3.999   9.872   4.601 -0.9133  0.5055  0.1460
  924MOL0     C24625   3.856   9.912   4.604  0.2299 -0.2040 -0.0741
  924MOL0     C24626   3.756   9.820   4.543  0.1218  0.9964  1.6754
  924MOL0     C24627   3.697   9.694   4.619  0.0790  0.2645  0.1184
  924MOL0     C24628   3.577   9.635   4.538  0.1888  0.0336  0.0301
  924MOL0     O24629   3.638   9.572   4.423  0.4184 -0.4741  0.2938
  924MOL0     C24630   3.552   9.547   4.322  0.6893  0.4642 -0.2011
  924MOL0     C24631   3.600   9.525   4.190 -0.0001  0.2794  0.2415
  924MOL0     C24632   3.515   9.528   4.075  0.3739 -0.8071  0.0900
  924MOL0     C24633   3.586   9.495   3.936 -0.4110 -0.2373 -0.1074
  924MOL0     C24634   3.386   9.540   4.089 -1.2794 -0.0832  0.0856
  924MOL0     C24635   3.301   9.547   3.973 -0.6355  0.2102  0.0228
  924MOL0     O24636   3.210   9.447   3.954  0.3139 -0.5961  0.2602
  924MOL0     C24637   3.134   9.440   3.837  0.6031 -0.2184  0.2182
  924MOL0     C24638   3.005   9.400   3.864 -0.1605  0.2718 -0.2440
  924MOL0     C24639   2.914   9.389   3.755 -0.0437 -0.1242 -0.0188
  924MOL0     C24640   2.947   9.419   3.624  0.8745 -1.1276 -0.1753
  924MOL0     O24641   2.851   9.401   3.528 -0.6308 -0.2847  0.6595
  924MOL0     C24642   2.856   9.512   3.426 -0.3050  1.0819  0.3056
  924MOL0     C24643   2.725   9.512   3.347  0.0201  0.5361 -0.6869
  924MOL0     C24644   2.603   9.508   3.443 -0.2165 -0.5083  0.6441
  924MOL0     C24645   2.471   9.537   3.369  0.1964  0.2335 -0.5815
  924MOL0     C24646   2.352   9.521   3.456 -0.1926 -0.7582 -0.8365
  924MOL0     C24647   2.350   9.626   3.572 -0.5306 -0.0899 -0.0664
  924MOL0     C24648   2.212   9.624   3.640 -0.4522 -0.1446  0.3257
  924MOL0     C24649   2.226   9.677   3.782  0.2940 -0.1134  0.0483
  924MOL0    Cl24650   2.070   9.737   3.829 -0.5569 -0.4773  0.2933
  924MOL0     C24651   3.079   9.458   3.600 -0.2092 -0.1753 -0.6104
  924MOL0     C24652   3.169   9.469   3.706 -0.2230 -0.6729 -0.3129
  924MOL0     O24653   3.325   9.637   3.889 -0.0312  0.4771  0.1292
  924MOL0     C24654   3.332   9.570   4.219  0.1120  0.4648  0.2160
  924MOL0     C24655   3.412   9.570   4.334 -0.7580 -0.2522 -0.5230
  924MOL0     N24656   4.070   9.809   4.707 -0.3104 -0.4278  0.6771
  924MOL0     N24657   4.186   9.773   4.664  0.2269 -0.1238 -0.4804
  924MOL0     C24658   5.081  10.142   4.047 -0.0796 -0.2633 -0.4421
  924MOL0     C24659   5.202  10.140   4.122 -0.4211 -0.2456  0.4720
  924MOL0     C24660   5.656  10.037   4.180  0.6077 -0.2841  0.1375
  924MOL0     C24661   5.722   9.913   4.207  0.3653 -0.9723  0.4743
  924MOL0     C24662   5.852   9.910   4.260  0.3009  0.2997 -0.4367
  924MOL0     C24663   5.919  10.027   4.299 -0.3585  0.9280  0.8629
  924MOL0     O24664   6.041  10.026   4.358 -0.4022  1.0144 -0.8048
  924MOL0     C24665   6.101   9.907   4.411  0.2931 -0.3862  0.2895
  924MOL0     C24666   6.218   9.916   4.510  0.3811  0.7118 -0.5773
  924MOL0     C24667   6.322  10.001   4.436 -1.1417 -0.0372 -0.0609
  924MOL0     C24668   6.463  10.000   4.507  0.6065  0.9638  0.0197
  924MOL0     C24669   6.566  10.054   4.422 -0.4287  0.2715  0.1919
  924MOL0     C24670   6.650  10.090   4.336  0.5708 -0.2370  0.1572
  924MOL0     C24671   5.859  10.150   4.279  0.1738 -0.3155  0.1126
  924MOL0     C24672   5.724  10.153   4.219 -0.0813  0.1501  0.1666
  924MOL0     H24673   5.419  10.125   3.861 -0.5002 -1.0074 -0.5816
  924MOL0     H24674   5.222  10.135   3.737  1.9863  0.6454  0.7241
  924MOL0     H24675   4.824  10.050   3.728  0.8925  0.9885  0.2744
  924MOL0     H24676   4.998   9.985   3.754  1.0997  0.0132  0.6016
  924MOL0     H24677   4.815   9.845   3.868  0.0511 -0.5720  2.4323
  924MOL0     H24678   4.922   9.935   3.975  0.6109  1.6893  0.1532
  924MOL0     H24679   4.735  10.087   4.035  0.5712  1.1094 -2.7633
  924MOL0     H24680   4.641  10.029   3.895  0.5137 -1.8852 -0.7723
  924MOL0     H24681   4.613   9.808   4.017 -2.0148  0.8283  0.3984
  924MOL0     H24682   4.713   9.858   4.151 -0.1308  0.4991  0.4039
  924MOL0     H24683   4.530  10.050   4.210  0.4334  1.0591 -1.6530
  924MOL0     H24684   4.433   9.972   4.097  0.4936  0.2887  0.0476
  924MOL0     H24685   4.438   9.757   4.207 -0.8281 -1.1728  2.5528
  924MOL0     H24686   4.549   9.820   4.328  0.7274 -2.5079 -2.9418
  924MOL0     H24687   4.392   9.980   4.398  2.1879  0.1516 -2.3191
  924MOL0     H24688   4.277   9.892   4.279  0.5029  1.0432 -0.5721
  924MOL0     H24689   4.398   9.755   4.515 -3.8999 -1.2680  4.9318
  924MOL0     H24690   4.282   9.695   4.385  0.1180 -0.3055  0.1194
  924MOL0     H24691   4.061   9.907   4.398 -1.3217  2.0612  0.6631
  924MOL0     H24692   3.822   9.926   4.707  0.7602 -0.8582  0.1904
  924MOL0     H24693   3.834  10.008   4.555 -4.3071 -0.3112  1.3009
  924MOL0     H24694   3.786   9.783   4.444 -0.6808 -0.0269  1.7957
  924MOL0     H24695   3.669   9.879   4.513 -0.7250 -0.4005  1.2968
  924MOL0     H24696   3.660   9.719   4.719  2.0143  0.0223  0.9280
  924MOL0     H24697   3.771   9.616   4.638  1.5308  1.2101 -1.3689
  924MOL0     H24698   3.511   9.718   4.512  1.5529  1.2643  0.3389
  924MOL0     H24699   3.535   9.548   4.591  0.1388 -1.6837 -2.6380
  924MOL0     H24700   3.706   9.506   4.180  0.1890  1.8219 -1.3659
  924MOL0     H24701   3.693   9.488   3.957 -0.5549  1.5949  1.5614
  924MOL0     H24702   3.553   9.396   3.905  2.0741 -1.1499 -0.0492
  924MOL0     H24703   3.574   9.579   3.867 -2.9047 -2.0361 -2.0253
  924MOL0     H24704   2.978   9.382   3.968 -1.1317 -0.2522 -0.5740
  924MOL0     H24705   2.812   9.357   3.775 -0.2337 -0.7744 -1.7939
  924MOL0     H24706   2.863   9.603   3.486 -0.1760  1.1811  0.1397
  924MOL0     H24707   2.945   9.493   3.366 -0.7533  3.8292 -1.4116
  924MOL0     H24708   2.721   9.597   3.278  2.8438  1.6472  0.3705
  924MOL0     H24709   2.723   9.420   3.288  2.8003  0.4925 -0.8274
  924MOL0     H24710   2.608   9.591   3.514 -3.5721 -0.5833  1.1492
  924MOL0     H24711   2.589   9.411   3.493 -3.1604  0.9935  3.0821
  924MOL0     H24712   2.464   9.638   3.327 -1.9493  0.2794 -0.2056
  924MOL0     H24713   2.469   9.474   3.279  2.4075  0.3748 -0.7872
  924MOL0     H24714   2.343   9.415   3.482  0.2794 -0.6455 -0.2009
  924MOL0     H24715   2.265   9.541   3.392  0.8954  1.8940 -1.6207
  924MOL0     H24716   2.428   9.594   3.642  0.9311 -0.5681 -1.8292
  924MOL0     H24717   2.367   9.728   3.537 -0.4128  0.0932  0.5111
  924MOL0     H24718   2.160   9.528   3.634 -3.4636  1.3204  1.1632
  924MOL0     H24719   2.146   9.697   3.592 -2.0878 -0.0543  2.5642
  924MOL0     H24720   2.300   9.758   3.789 -1.6493  1.6809  1.0841
  924MOL0     H24721   2.238   9.596   3.854 -3.0867 -1.3611 -0.5694
  924MOL0     H24722   3.117   9.462   3.498  0.4348 -0.0245 -0.3670
  924MOL0     H24723   3.271   9.500   3.683  0.3427 -2.2988 -0.1892
  924MOL0     H24724   3.224   9.577   4.230  0.1315  0.6640  0.2695
  924MOL0     H24725   3.364   9.586   4.430 -2.2561  0.5680 -1.3702
  924MOL0     H24726   4.991  10.159   4.105 -0.2552  3.3673 -1.5045
  924MOL0     H24727   5.226  10.133   4.227  1.4117 -0.6297  0.0615
  924MOL0     H24728   5.666   9.821   4.189  0.1977 -0.7104 -0.4024
  924MOL0     H24729   5.891   9.811   4.280 -1.2773 -0.0294  1.2278
  924MOL0     H24730   6.022   9.853   4.465  1.5992 -1.6633  0.9851
  924MOL0     H24731   6.143   9.843   4.333  1.7989  0.5154  0.3136
  924MOL0     H24732   6.242   9.814   4.540 -1.7560  0.3533  0.0456
  924MOL0     H24733   6.182   9.971   4.597  0.7571 -1.9654  1.3701
  924MOL0     H24734   6.287  10.101   4.410 -4.1058 -1.3588 -1.5665
  924MOL0     H24735   6.345   9.948   4.343  0.5573  0.8071 -0.1770
  924MOL0     H24736   6.491   9.896   4.528  1.7741  1.6609  2.3278
  924MOL0     H24737   6.459  10.062   4.598 -0.5705  2.2983 -0.9084
  924MOL0     H24738   6.726  10.137   4.276 -1.1986  1.0434 -1.1881
  924MOL0     H24739   5.897  10.239   4.328 -1.1746 -0.5149  1.6225
  924MOL0     H24740   5.660  10.239   4.205 -1.1594 -1.1383 -4.3421
  925MOL0     O24741   4.952   9.980   6.273  0.2670 -0.3352 -1.1333
  925MOL0     C24742   5.038  10.038   6.210 -0.4549 -0.4423 -0.2344
  925MOL0     O24743   5.016  10.131   6.109  1.0866 -0.0168  0.0795
  925MOL0     C24744   4.889  10.128   6.057 -0.6993  0.3989 -0.8790
  925MOL0     C24745   4.817  10.006   6.049  0.3608  0.2887 -0.1141
  925MOL0     C24746   4.696  10.009   5.985  0.8697  0.1157 -0.5068
  925MOL0     C24747   4.640  10.134   5.928  0.7824  1.5103  0.1147
  925MOL0     O24748   4.510  10.154   5.879  0.3723 -0.1682  0.4957
  925MOL0     C24749   4.441  10.033   5.844  0.3034  0.9445  0.0278
  925MOL0     C24750   4.303  10.063   5.799 -0.1235 -0.3169 -0.1996
  925MOL0     C24751   4.221   9.952   5.728 -0.3504 -0.0434  0.6370
  925MOL0     C24752   4.065   9.981   5.739 -0.6537 -0.2526 -0.2185
  925MOL0     C24753   3.976   9.865   5.674 -0.0784  0.6889 -0.0474
  925MOL0     C24754   3.831   9.896   5.712 -0.0509 -0.2108 -0.0392
  925MOL0     C24755   3.738   9.781   5.664  0.1321  0.2566  0.0065
  925MOL0     C24756   3.606   9.791   5.742  0.8483  0.1361 -0.5509
  925MOL0     N24757   3.489   9.719   5.690  0.3063  0.4747 -0.3141
  925MOL0     C24758   3.415   9.735   5.573 -0.3534 -0.5420 -0.8579
  925MOL0     C24759   3.324   9.639   5.586  0.4146  1.1109 -0.1371
  925MOL0     C24760   3.239   9.598   5.463 -0.3697 -0.0902 -0.0721
  925MOL0     C24761   3.100   9.664   5.498 -0.2615  0.2325  0.2336
  925MOL0     C24762   3.011   9.549   5.564 -0.3162 -1.5817  0.3517
  925MOL0     C24763   2.881   9.616   5.609 -0.7991  0.2461  0.2207
  925MOL0     O24764   2.798   9.512   5.664 -0.4028  0.1944 -0.0134
  925MOL0     C24765   2.658   9.531   5.672  0.0470  0.2289 -0.3068
  925MOL0     C24766   2.591   9.562   5.555 -0.1889 -0.2313  0.0646
  925MOL0     C24767   2.456   9.584   5.567 -0.4256 -0.7931  0.5492
  925MOL0     C24768   2.392   9.635   5.436  0.0387  0.2572 -0.4381
  925MOL0     C24769   2.385   9.579   5.690  0.2380  1.0256  0.8225
  925MOL0     C24770   2.235   9.615   5.716 -1.0592 -0.6333  0.4714
  925MOL0     O24771   2.202   9.634   5.850 -0.5497 -0.3126  0.0988
  925MOL0     C24772   2.072   9.639   5.906  0.3812  0.0541  0.8651
  925MOL0     C24773   2.042   9.738   6.001  0.8536 -0.6988 -0.2601
  925MOL0     C24774   1.919   9.738   6.067 -1.0136 -0.4811  0.7832
  925MOL0     C24775   1.825   9.647   6.030 -0.0661 -0.1527  0.9682
  925MOL0     O24776   1.692   9.657   6.070 -0.2912  0.0424 -0.3469
  925MOL0     C24777   1.636   9.791   6.070 -1.0492  0.6256 -0.0853
  925MOL0     C24778   1.488   9.780   6.104 -0.1325  0.3097 -0.1789
  925MOL0     C24779   1.420   9.919   6.096  0.3449  0.5954 -0.3215
  925MOL0     C24780   1.275   9.901   6.115  0.3248 -0.2964 -0.2513
  925MOL0     C24781   1.214  10.041   6.122 -0.8999 -0.2103  0.2426
  925MOL0     C24782   1.064  10.032   6.149  0.3258  0.0211 -0.1545
  925MOL0     C24783   1.009  10.173   6.165  0.0555  0.0117  0.0655
  925MOL0     C24784   0.856  10.171   6.141  0.2711 -0.0771  0.5169
  925MOL0    Cl24785   0.797  10.343   6.122 -0.1396 -0.2986  0.3499
  925MOL0     C24786   1.852   9.543   5.942 -0.3505 -0.1907  0.0916
  925MOL0     C24787   1.980   9.545   5.870 -0.1296  0.0129  0.4165
  925MOL0     O24788   2.159   9.614   5.624 -0.5771 -0.1453  0.0945
  925MOL0     C24789   2.453   9.538   5.798  0.0759  0.3041 -0.0364
  925MOL0     C24790   2.592   9.511   5.787 -0.7109 -1.0640 -0.0659
  925MOL0     N24791   3.326   9.584   5.715 -0.5094 -0.3378  0.6287
  925MOL0     N24792   3.423   9.637   5.778 -0.1833 -0.5357 -0.3774
  925MOL0     C24793   4.720  10.246   5.948  0.8813  0.4578  0.6080
  925MOL0     C24794   4.837  10.242   6.018  0.6645 -0.4126  0.7041
  925MOL0     C24795   5.181  10.006   6.247  0.2158  1.0464 -0.3443
  925MOL0     C24796   5.282  10.048   6.162 -0.5335  0.9610 -0.5922
  925MOL0     C24797   5.415  10.022   6.203  0.3061  1.3295 -0.8844
  925MOL0     C24798   5.448   9.972   6.329 -0.0856 -0.8160  0.8708
  925MOL0     O24799   5.578   9.964   6.349  0.4284  0.1289 -0.0561
  925MOL0     C24800   5.624   9.876   6.445  0.4533 -0.9219  0.4612
  925MOL0     C24801   5.606   9.733   6.394  0.5081  0.0164 -0.5586
  925MOL0     C24802   5.645   9.718   6.245 -0.8853 -0.0960  0.3113
  925MOL0     C24803   5.655   9.571   6.197 -0.2437  0.2190 -0.3771
  925MOL0     C24804   5.796   9.519   6.199 -0.5636 -1.5957 -1.0996
  925MOL0     C24805   5.911   9.486   6.209  0.6448  0.6294 -0.3826
  925MOL0     C24806   5.347   9.940   6.410  0.1632 -0.6076 -0.4008
  925MOL0     C24807   5.213   9.961   6.377 -0.3668 -0.7799 -0.4946
  925MOL0     H24808   4.849   9.906   6.077  2.2305  1.5442  2.8214
  925MOL0     H24809   4.648   9.911   5.983  0.9467  0.0609  0.1379
  925MOL0     H24810   4.494   9.976   5.768  0.5766 -1.6531  2.0163
  925MOL0     H24811   4.432   9.967   5.930 -2.4966  0.3477 -0.5968
  925MOL0     H24812   4.247  10.104   5.884 -2.9551  0.8818 -2.4792
  925MOL0     H24813   4.306  10.153   5.737 -1.3405  0.1277  0.3460
  925MOL0     H24814   4.240   9.950   5.620  0.7500 -2.8432  0.8136
  925MOL0     H24815   4.236   9.854   5.773 -3.8316 -1.0169 -0.0244
  925MOL0     H24816   4.046   9.979   5.847  0.3789 -1.4280 -0.0355
  925MOL0     H24817   4.031  10.074   5.693  1.2550 -1.0615 -3.6098
  925MOL0     H24818   3.982   9.866   5.565 -0.4697  0.9101 -0.0672
  925MOL0     H24819   4.001   9.771   5.724  0.4341  1.2388  0.7563
  925MOL0     H24820   3.808   9.914   5.817  2.8303  4.9154  0.0701
  925MOL0     H24821   3.797   9.985   5.658 -0.6338  2.3469  4.1453
  925MOL0     H24822   3.730   9.784   5.555  0.8061 -0.6233 -0.0814
  925MOL0     H24823   3.788   9.687   5.691 -1.1695  0.2167  2.6082
  925MOL0     H24824   3.585   9.898   5.731  1.9098  0.3256 -0.9116
  925MOL0     H24825   3.622   9.761   5.845  2.1584  0.4480 -0.6494
  925MOL0     H24826   3.450   9.800   5.493 -0.5851  1.4310  0.5548
  925MOL0     H24827   3.277   9.639   5.369  0.7618  1.4531  1.0105
  925MOL0     H24828   3.239   9.489   5.453 -2.9557 -0.1495 -0.0406
  925MOL0     H24829   3.047   9.709   5.413 -2.0895 -0.5711  0.8817
  925MOL0     H24830   3.114   9.750   5.564  1.2383 -1.0341  1.6366
  925MOL0     H24831   3.066   9.494   5.641 -0.2632 -0.8938  0.8228
  925MOL0     H24832   2.973   9.476   5.493  0.2915 -1.0238 -0.5654
  925MOL0     H24833   2.833   9.667   5.525 -0.2560 -1.7799 -1.3719
  925MOL0     H24834   2.909   9.689   5.687  0.5497 -0.9460  0.9056
  925MOL0     H24835   2.646   9.581   5.463 -2.1290 -1.2588 -1.3993
  925MOL0     H24836   2.316   9.713   5.449  0.1686  0.4670 -0.9441
  925MOL0     H24837   2.462   9.676   5.363 -0.2516  0.3154 -0.6830
  925MOL0     H24838   2.348   9.545   5.392 -2.8192 -0.6489  3.6006
  925MOL0     H24839   2.115   9.812   6.033  0.1805 -0.9477  2.0371
  925MOL0     H24840   1.903   9.811   6.146  2.7562 -0.4345  1.6995
  925MOL0     H24841   1.676   9.847   6.156 -1.6210  2.4147 -0.9460
  925MOL0     H24842   1.643   9.854   5.981  1.2293  0.7297  0.1027
  925MOL0     H24843   1.435   9.707   6.041 -0.1353 -1.6434  1.9526
  925MOL0     H24844   1.483   9.755   6.210  0.9899  2.8363  0.5372
  925MOL0     H24845   1.434   9.961   5.996  0.2300 -1.3537 -1.2000
  925MOL0     H24846   1.468   9.990   6.163  0.4759  0.2749 -0.0705
  925MOL0     H24847   1.220   9.849   6.036  1.2228 -0.5032 -0.7606
  925MOL0     H24848   1.248   9.847   6.207  3.6196 -1.5567  0.1268
  925MOL0     H24849   1.239  10.087   6.026 -1.0086 -1.5057 -0.4184
  925MOL0     H24850   1.269  10.103   6.194  1.3182  2.1623 -3.1306
  925MOL0     H24851   1.021   9.984   6.060 -2.3808  0.9887  0.5274
  925MOL0     H24852   1.042   9.973   6.238 -1.2831  0.0237 -0.5145
  925MOL0     H24853   1.056  10.239   6.091 -1.2070 -0.2926 -1.0539
  925MOL0     H24854   1.030  10.218   6.262 -2.1660  0.2274  0.5066
  925MOL0     H24855   0.801  10.133   6.228 -1.3383  3.4666  1.2327
  925MOL0     H24856   0.832  10.115   6.051  0.3378  1.3807 -0.4457
  925MOL0     H24857   1.782   9.462   5.921  0.5688 -1.0123  0.1095
  925MOL0     H24858   1.997   9.479   5.786 -2.4192 -0.2684  0.0847
  925MOL0     H24859   2.406   9.539   5.896  0.9790  0.2893  0.4076
  925MOL0     H24860   2.646   9.476   5.875  0.0613  2.8939  1.2611
  925MOL0     H24861   4.691  10.340   5.901  0.0220 -0.3040 -0.4271
  925MOL0     H24862   4.902  10.329   6.018 -0.3712  0.4600 -1.6341
  925MOL0     H24863   5.267  10.075   6.058  1.9713 -0.4838 -1.4030
  925MOL0     H24864   5.494  10.061   6.139  1.1619  0.0435 -0.6401
  925MOL0     H24865   5.729   9.906   6.453  0.2786 -0.6811  2.3484
  925MOL0     H24866   5.582   9.909   6.541  0.1197 -0.2251  0.0809
  925MOL0     H24867   5.500   9.706   6.403  0.3966  0.7633  0.5786
  925MOL0     H24868   5.671   9.682   6.465  1.2193  1.6470  0.0061
  925MOL0     H24869   5.743   9.767   6.240 -1.2985  0.5856 -1.9331
  925MOL0     H24870   5.573   9.771   6.182 -1.0752 -2.0017 -1.1717
  925MOL0     H24871   5.614   9.569   6.096  1.2601  1.2807 -1.0382
  925MOL0     H24872   5.581   9.514   6.254 -1.0137  1.3295 -0.2239
  925MOL0     H24873   6.009   9.456   6.241  0.0008 -2.2261 -0.8399
  925MOL0     H24874   5.364   9.914   6.514  1.6423  4.4339  0.9002
  925MOL0     H24875   5.128   9.940   6.441 -2.0675  3.0404 -1.2353
  926MOL0     O24876   4.766   7.944   6.727 -0.4404 -0.0658 -0.3572
  926MOL0     C24877   4.777   7.946   6.604 -0.0764 -0.3280  0.8745
  926MOL0     O24878   4.674   7.990   6.518 -0.2588 -0.0091 -0.4023
  926MOL0     C24879   4.551   8.021   6.566  0.2690  0.3420  0.5849
  926MOL0     C24880   4.438   7.952   6.518  0.0379 -0.1684 -0.8404
  926MOL0     C24881   4.305   7.989   6.551 -0.6881 -0.0905  0.8790
  926MOL0     C24882   4.287   8.084   6.651  0.4291  1.0733 -0.6472
  926MOL0     O24883   4.165   8.125   6.700  1.0885 -0.1523 -0.4120
  926MOL0     C24884   4.050   8.038   6.669  0.8451  1.5516 -0.5734
  926MOL0     C24885   3.930   8.080   6.745 -0.1415 -1.5925  0.6368
  926MOL0     C24886   3.804   8.009   6.675 -0.0432 -0.6187 -0.7117
  926MOL0     C24887   3.684   8.020   6.768  1.1591 -0.2416 -0.1420
  926MOL0     C24888   3.560   8.015   6.674  0.5508  0.3405 -0.4843
  926MOL0     C24889   3.543   7.895   6.583  0.1412 -0.4681 -0.6119
  926MOL0     C24890   3.403   7.890   6.533 -0.0580  0.2327 -0.0292
  926MOL0     C24891   3.374   8.010   6.445 -1.2332  0.1400 -0.0114
  926MOL0     N24892   3.239   8.006   6.410 -0.2164  0.0836  0.2829
  926MOL0     C24893   3.145   8.067   6.493  0.4175 -0.0804  0.5043
  926MOL0     C24894   3.031   8.058   6.417 -0.1908  0.4492  0.4992
  926MOL0     C24895   2.899   8.120   6.456  0.0252  0.6442 -0.2755
  926MOL0     C24896   2.782   8.038   6.396  0.5412 -0.0833 -0.1241
  926MOL0     C24897   2.640   8.083   6.443  0.3546  0.7065  0.5672
  926MOL0     C24898   2.533   7.978   6.419  0.4257 -0.3129  0.4392
  926MOL0     O24899   2.413   8.047   6.435  0.5070  0.2431 -0.2137
  926MOL0     C24900   2.302   7.968   6.417  0.3294  0.6110 -0.1740
  926MOL0     C24901   2.247   7.906   6.524  0.4315  0.5041  0.7978
  926MOL0     C24902   2.134   7.816   6.516 -0.1783 -0.5693  0.2530
  926MOL0     C24903   2.095   7.751   6.643  0.0202 -0.3242 -1.1339
  926MOL0     C24904   2.062   7.796   6.399  0.5126 -0.6882  0.3915
  926MOL0     C24905   1.933   7.731   6.389  0.0531  0.3218  0.6359
  926MOL0     O24906   1.844   7.731   6.487 -0.5703  0.3819 -0.1548
  926MOL0     C24907   1.725   7.658   6.487 -0.2797  0.0522  0.8329
  926MOL0     C24908   1.635   7.695   6.585  0.7203  0.3250 -0.4552
  926MOL0     C24909   1.509   7.639   6.598  0.3806  0.2375  0.1048
  926MOL0     C24910   1.467   7.552   6.503 -0.6060 -0.0136 -0.6067
  926MOL0     O24911   1.342   7.496   6.500 -0.2927  0.2573 -0.0990
  926MOL0     C24912   1.235   7.596   6.505  0.7812 -0.0063  0.3030
  926MOL0     C24913   1.104   7.528   6.484 -0.2415 -0.3815 -0.2806
  926MOL0     C24914   1.053   7.485   6.629 -0.6102 -0.1818  0.4398
  926MOL0     C24915   0.908   7.445   6.619  1.0020 -0.2099  0.0899
  926MOL0     C24916   0.861   7.387   6.755 -0.1791 -0.2815 -0.2129
  926MOL0     C24917   0.706   7.363   6.743  0.0235 -0.0068 -0.3249
  926MOL0     C24918   0.650   7.313   6.882  0.4850  0.3699  0.1926
  926MOL0     C24919   0.499   7.301   6.877  0.5800  0.0208 -0.5460
  926MOL0    Cl24920   0.462   7.168   6.767  0.1459 -0.5898 -0.2361
  926MOL0     C24921   1.557   7.496   6.416  0.5507 -0.5380  0.4293
  926MOL0     C24922   1.683   7.549   6.401  0.8832 -1.6248 -0.0358
  926MOL0     O24923   1.910   7.683   6.278  0.5044 -0.4778 -0.4808
  926MOL0     C24924   2.118   7.857   6.284 -0.8662 -0.0414  0.1554
  926MOL0     C24925   2.232   7.941   6.295  0.4110  0.3931  0.9835
  926MOL0     N24926   3.055   7.984   6.301 -0.3538  0.0469 -0.1281
  926MOL0     N24927   3.183   7.951   6.299  0.5390  0.2109 -0.1202
  926MOL0     C24928   4.399   8.140   6.708 -0.1718 -0.6187  0.4258
  926MOL0     C24929   4.527   8.113   6.662 -0.5627 -0.4125  0.1023
  926MOL0     C24930   4.903   7.909   6.552  0.2089 -0.6903  0.0422
  926MOL0     C24931   4.905   7.896   6.413  0.1164  0.0369 -0.2420
  926MOL0     C24932   5.015   7.843   6.348 -0.9307 -0.3782  0.0944
  926MOL0     C24933   5.131   7.808   6.417 -0.4109 -0.5929  0.2519
  926MOL0     O24934   5.252   7.753   6.365 -0.1623  0.3700  0.3722
  926MOL0     C24935   5.264   7.748   6.223  0.1514 -0.2478 -0.2662
  926MOL0     C24936   5.417   7.744   6.192  0.0149  0.1273  0.6589
  926MOL0     C24937   5.478   7.633   6.279 -0.1360  0.6756 -0.4480
  926MOL0     C24938   5.626   7.593   6.263 -0.1212 -0.4922 -0.6481
  926MOL0     C24939   5.712   7.716   6.269  0.6557 -0.0460  0.1572
  926MOL0     C24940   5.783   7.814   6.279  0.3275  0.2760  0.2963
  926MOL0     C24941   5.126   7.818   6.557 -0.4222  0.6032 -0.8241
  926MOL0     C24942   5.019   7.870   6.630  0.6865 -0.0845  0.3860
  926MOL0     H24943   4.453   7.873   6.445 -1.1683 -0.3406 -0.9286
  926MOL0     H24944   4.226   7.935   6.502 -1.0262  0.5031  0.7613
  926MOL0     H24945   4.027   8.046   6.562  1.4781 -1.8264 -1.0834
  926MOL0     H24946   4.069   7.936   6.704 -0.4716  1.1420 -1.0094
  926MOL0     H24947   3.946   8.051   6.849 -1.8923  1.9905  2.0395
  926MOL0     H24948   3.909   8.186   6.756  0.6944 -1.4490  0.8765
  926MOL0     H24949   3.791   8.071   6.586 -1.0823  1.0119  0.5273
  926MOL0     H24950   3.832   7.904   6.662  3.0060 -0.2993  1.9086
  926MOL0     H24951   3.683   7.946   6.848  1.7242  1.4415  1.4946
  926MOL0     H24952   3.685   8.113   6.825  2.6360 -0.9146  1.0235
  926MOL0     H24953   3.474   8.033   6.740  2.1202  1.9207  1.2409
  926MOL0     H24954   3.566   8.107   6.615  0.0958 -0.4554 -1.8161
  926MOL0     H24955   3.614   7.904   6.501 -0.1244  0.5375 -0.7379
  926MOL0     H24956   3.575   7.808   6.642  0.9284  1.4497  1.9588
  926MOL0     H24957   3.387   7.797   6.478 -2.6140  0.7560 -0.3467
  926MOL0     H24958   3.336   7.890   6.619 -1.0387  1.0410 -0.7611
  926MOL0     H24959   3.436   8.006   6.355  2.1321  0.8671  2.0829
  926MOL0     H24960   3.389   8.105   6.496 -2.7894  0.8568 -0.8137
  926MOL0     H24961   3.148   8.121   6.587 -0.4827  1.3023 -0.2389
  926MOL0     H24962   2.884   8.109   6.564 -0.1764 -2.2922 -0.5076
  926MOL0     H24963   2.906   8.223   6.421 -0.5258  0.6889 -0.2602
  926MOL0     H24964   2.803   7.940   6.439 -0.6121  0.1100  0.9238
  926MOL0     H24965   2.794   8.034   6.287  1.3632 -1.5699  0.0016
  926MOL0     H24966   2.610   8.169   6.383  0.2744  0.3395  0.0742
  926MOL0     H24967   2.651   8.111   6.549 -1.8953 -1.1381  1.3831
  926MOL0     H24968   2.541   7.914   6.507  2.2341  2.4328  2.4257
  926MOL0     H24969   2.534   7.932   6.319 -2.4111  1.1009 -0.3286
  926MOL0     H24970   2.310   7.908   6.612  4.4856 -0.0566 -1.8472
  926MOL0     H24971   2.091   7.642   6.628 -0.1984 -0.6705  1.1325
  926MOL0     H24972   2.172   7.771   6.719 -1.2050  0.0064  0.0477
  926MOL0     H24973   2.009   7.799   6.690  1.4988 -0.4923  2.0120
  926MOL0     H24974   1.668   7.763   6.664  2.1697 -2.8320  1.8703
  926MOL0     H24975   1.444   7.676   6.676 -1.5141  3.5293 -2.7565
  926MOL0     H24976   1.237   7.642   6.605  6.5202  1.3638 -0.1075
  926MOL0     H24977   1.259   7.683   6.444 -1.6172  2.2749  2.3315
  926MOL0     H24978   1.025   7.602   6.466  1.2076  1.9321  2.2128
  926MOL0     H24979   1.108   7.447   6.410 -1.8114  0.2202 -1.0640
  926MOL0     H24980   1.068   7.564   6.703 -2.2869 -0.5200  1.1933
  926MOL0     H24981   1.106   7.394   6.660  1.2212 -0.2670 -2.4760
  926MOL0     H24982   0.845   7.530   6.592 -0.0864 -0.7695  0.7656
  926MOL0     H24983   0.889   7.369   6.543 -2.8012  0.5319  0.1020
  926MOL0     H24984   0.887   7.468   6.824  0.0376 -0.6689  0.1651
  926MOL0     H24985   0.913   7.292   6.771 -0.4934 -0.6697 -1.4065
  926MOL0     H24986   0.647   7.442   6.697 -2.4416 -2.3094 -1.4057
  926MOL0     H24987   0.687   7.278   6.676  0.6822 -1.2458  0.9927
  926MOL0     H24988   0.677   7.381   6.963 -0.2257  1.3340 -0.3648
  926MOL0     H24989   0.684   7.210   6.900 -1.6902 -0.1832  1.5652
  926MOL0     H24990   0.455   7.397   6.848 -2.0697 -1.2150 -0.9015
  926MOL0     H24991   0.461   7.275   6.976  1.8509 -3.8414 -0.9376
  926MOL0     H24992   1.514   7.428   6.343 -3.6936 -0.2790  2.4315
  926MOL0     H24993   1.748   7.502   6.329  0.4534 -2.5871  0.1953
  926MOL0     H24994   2.064   7.858   6.190  1.5124  2.3153 -1.3365
  926MOL0     H24995   2.266   7.976   6.198  0.9068 -2.2522  0.1307
  926MOL0     H24996   4.384   8.222   6.778 -1.5920 -0.2356 -0.2870
  926MOL0     H24997   4.614   8.166   6.699  0.9008 -0.6076 -2.7671
  926MOL0     H24998   4.814   7.903   6.353  0.4853  0.3829 -0.7663
  926MOL0     H24999   5.025   7.842   6.240  4.6780 -3.0360  0.2775
  926MOL0     H25000   5.217   7.654   6.194 -0.5616 -0.6238  1.9422
  926MOL0     H25001   5.222   7.826   6.159 -0.1803 -2.5147 -3.0270
  926MOL0     H25002   5.473   7.837   6.204  0.5914 -0.2789  1.1775
  926MOL0     H25003   5.428   7.713   6.088  2.7015  1.2470  0.5372
  926MOL0     H25004   5.410   7.548   6.278  3.3414 -2.4088  1.0352
  926MOL0     H25005   5.483   7.663   6.385 -0.0506 -0.4273 -0.1269
  926MOL0     H25006   5.636   7.550   6.163 -0.5128 -1.4564 -0.2849
  926MOL0     H25007   5.665   7.525   6.339  2.6854  1.9759  0.2966
  926MOL0     H25008   5.839   7.904   6.263 -1.3032  0.8663 -2.8240
  926MOL0     H25009   5.208   7.778   6.615  0.4654 -0.8318 -2.9659
  926MOL0     H25010   5.013   7.889   6.736  0.4493  0.2816  0.3088
  927MOL0     O25011  10.750   0.219   4.418  0.1931  0.0999  0.1964
  927MOL0     C25012  10.808   0.280   4.508 -0.2866 -0.3025 -0.3312
  927MOL0     O25013  10.746   0.349   4.609  0.5049 -0.0787  0.3807
  927MOL0     C25014  10.615   0.371   4.578 -0.0578  0.2937  0.4448
  927MOL0     C25015  10.576   0.491   4.516 -0.0407  0.3654 -0.4598
  927MOL0     C25016  10.438   0.520   4.534  0.1617 -0.4037  0.6271
  927MOL0     C25017  10.341   0.440   4.601 -0.2922  0.6139 -0.2414
  927MOL0     O25018  10.217   0.483   4.635  0.4848  0.5650  0.8122
  927MOL0     C25019  10.189   0.615   4.686 -1.0092  0.1592 -0.4208
  927MOL0     C25020  10.043   0.615   4.734  0.0983 -0.5322 -0.0078
  927MOL0     C25021  10.014   0.506   4.841 -0.3107  0.4036 -0.9359
  927MOL0     C25022   9.872   0.454   4.833 -0.0728 -0.5059  0.3015
  927MOL0     C25023   9.764   0.567   4.874  0.9883 -0.1486 -0.4716
  927MOL0     C25024   9.710   0.572   5.015 -0.0533 -0.4093 -0.4209
  927MOL0     C25025   9.572   0.643   5.033  0.2639 -0.0391  0.4110
  927MOL0     C25026   9.465   0.557   4.968  0.1653  1.2475  0.5914
  927MOL0     N25027   9.334   0.581   5.021  0.5329  0.4680  0.9285
  927MOL0     C25028   9.279   0.505   5.120 -0.0074 -0.2102  0.2176
  927MOL0     C25029   9.162   0.567   5.140 -0.3115  0.4723  0.2163
  927MOL0     C25030   9.052   0.522   5.233  0.3067  0.0850 -0.1372
  927MOL0     C25031   8.921   0.494   5.161  0.1059  0.8785  0.7245
  927MOL0     C25032   8.853   0.618   5.107  0.0988 -0.3977  0.5938
  927MOL0     C25033   8.712   0.584   5.057  0.2004  0.1987 -0.7165
  927MOL0     O25034   8.633   0.703   5.072  0.2310 -0.6766  0.2469
  927MOL0     C25035   8.504   0.701   5.025 -0.2572  1.0647 -0.0288
  927MOL0     C25036   8.429   0.816   5.056 -0.4823 -0.0381  0.2970
  927MOL0     C25037   8.300   0.837   5.021  0.4850 -0.5102  0.1632
  927MOL0     C25038   8.263   0.979   5.036 -0.3767 -0.1902  0.0591
  927MOL0     C25039   8.227   0.724   4.981 -0.1145 -0.1667 -0.6624
  927MOL0     C25040   8.082   0.717   4.965 -0.0512 -0.1017  0.2241
  927MOL0     O25041   8.022   0.605   4.932 -0.2221 -0.2852  0.4255
  927MOL0     C25042   7.887   0.586   4.965 -0.4891  0.0485  0.4883
  927MOL0     C25043   7.797   0.637   4.868 -0.2443 -0.1812  0.1785
  927MOL0     C25044   7.661   0.612   4.878  0.3076 -0.2754  0.4739
  927MOL0     C25045   7.610   0.515   4.967 -0.4695  0.1944  1.0854
  927MOL0     O25046   7.475   0.488   4.958 -0.0787 -0.3233  0.0190
  927MOL0     C25047   7.419   0.420   5.065 -0.6952  0.1018  0.3790
  927MOL0     C25048   7.270   0.377   5.048  0.1160  0.1051 -0.5506
  927MOL0     C25049   7.206   0.313   5.179  0.0896 -0.6236 -0.0713
  927MOL0     C25050   7.056   0.298   5.156 -0.8643 -0.5754  0.7552
  927MOL0     C25051   6.988   0.209   5.261 -0.0919  0.2046 -0.0443
  927MOL0     C25052   6.833   0.201   5.244 -0.0724  0.1905 -0.1099
  927MOL0     C25053   6.765   0.174   5.384  0.0969 -0.3237  0.0868
  927MOL0     C25054   6.611   0.203   5.376 -0.3888 -0.4825  0.4884
  927MOL0    Cl25055   6.588   0.378   5.381 -0.1178  0.4383  0.2489
  927MOL0     C25056   7.699   0.469   5.061 -0.0980 -0.1308 -0.3577
  927MOL0     C25057   7.835   0.498   5.063 -0.9673 -0.6715  1.0447
  927MOL0     O25058   8.017   0.814   4.988  0.0002  0.5407  0.5655
  927MOL0     C25059   8.293   0.604   4.954  0.2339  0.0186 -0.0084
  927MOL0     C25060   8.435   0.600   4.967 -0.0502  0.4744 -0.5441
  927MOL0     N25061   9.154   0.682   5.063  0.0732  0.7040  0.1161
  927MOL0     N25062   9.262   0.695   4.990  0.0958  0.3960  0.1017
  927MOL0     C25063  10.383   0.310   4.645 -1.1995  0.2462  0.2970
  927MOL0     C25064  10.519   0.281   4.628 -0.1238 -0.8498 -0.0715
  927MOL0     C25065  10.954   0.264   4.520 -0.5093 -0.2186  0.0474
  927MOL0     C25066  11.023   0.358   4.604  0.3914  0.5207  0.0728
  927MOL0     C25067  11.157   0.336   4.631  0.4424  0.6660  0.8164
  927MOL0     C25068  11.230   0.241   4.565  0.3149 -0.3417  0.0933
  927MOL0     O25069  11.358   0.228   4.593 -0.5179  0.8994 -0.0730
  927MOL0     C25070  11.422   0.118   4.532  0.1570 -1.0404 -0.5042
  927MOL0     C25071  11.554   0.107   4.611 -0.0249  0.1671  0.4601
  927MOL0     C25072  11.530   0.059   4.755 -0.2297  0.8256 -0.4610
  927MOL0     C25073  11.666   0.027   4.825  0.2749  0.6703  0.1989
  927MOL0     C25074  11.753   0.141   4.832  0.4462 -0.0447  0.3561
  927MOL0     C25075  11.817   0.242   4.840 -0.2495  0.9773 -0.7511
  927MOL0     C25076  11.166   0.162   4.463 -0.3024  1.0051  0.0014
  927MOL0     C25077  11.024   0.163   4.448  0.2254 -0.4368 -0.4982
  927MOL0     H25078  10.646   0.561   4.473 -1.7645  1.9306 -0.8841
  927MOL0     H25079  10.414   0.619   4.496 -1.2503 -0.7451  0.5765
  927MOL0     H25080  10.258   0.646   4.764 -1.0908  2.4738 -1.2094
  927MOL0     H25081  10.203   0.692   4.610 -0.2455 -0.8799 -1.3691
  927MOL0     H25082  10.027   0.715   4.775 -0.2355  0.0551 -1.5081
  927MOL0     H25083   9.982   0.605   4.644  1.8675 -0.0782 -1.3099
  927MOL0     H25084  10.075   0.415   4.837  0.3943  0.8652 -0.9514
  927MOL0     H25085  10.032   0.547   4.941  0.3673 -0.4849 -0.6863
  927MOL0     H25086   9.863   0.425   4.728  3.5715  0.5569 -0.4675
  927MOL0     H25087   9.868   0.371   4.904  0.3179  0.9389  2.0996
  927MOL0     H25088   9.809   0.667   4.873  0.4177  0.2032  2.0184
  927MOL0     H25089   9.692   0.574   4.792  1.2491 -0.0050 -0.6917
  927MOL0     H25090   9.710   0.470   5.053 -0.4256 -0.3510 -0.2578
  927MOL0     H25091   9.770   0.625   5.090 -1.2063 -1.2020  1.1346
  927MOL0     H25092   9.557   0.649   5.141  0.2897 -0.2651  0.4275
  927MOL0     H25093   9.573   0.743   4.989 -0.4506 -0.2861 -0.1967
  927MOL0     H25094   9.482   0.449   4.975 -0.6151  0.9696 -1.3198
  927MOL0     H25095   9.455   0.576   4.861 -1.3927 -0.8988  0.3024
  927MOL0     H25096   9.325   0.415   5.159  0.8075  0.8094  1.7162
  927MOL0     H25097   9.082   0.430   5.284  2.0256 -0.3588 -1.8467
  927MOL0     H25098   9.035   0.607   5.300 -0.3365  0.6386 -0.9757
  927MOL0     H25099   8.855   0.455   5.239  1.2582  2.7775  2.7766
  927MOL0     H25100   8.940   0.416   5.086  0.4071 -0.5160  2.1904
  927MOL0     H25101   8.910   0.646   5.018  0.4925 -0.4013  0.8445
  927MOL0     H25102   8.864   0.698   5.180  1.5916  1.1639 -1.2166
  927MOL0     H25103   8.669   0.505   5.119  0.8829  1.2225  1.1290
  927MOL0     H25104   8.731   0.552   4.954  1.7988 -1.6201  0.0526
  927MOL0     H25105   8.489   0.889   5.110 -0.0829  0.7565 -1.1586
  927MOL0     H25106   8.171   0.975   5.095 -1.0336 -0.5276 -0.9655
  927MOL0     H25107   8.341   1.032   5.092  0.8443 -0.5656 -1.2183
  927MOL0     H25108   8.244   1.027   4.940  0.1751 -0.2706 -0.0958
  927MOL0     H25109   7.830   0.693   4.782 -0.0031 -2.0139 -0.9789
  927MOL0     H25110   7.589   0.645   4.804 -0.3551  0.1726  1.2879
  927MOL0     H25111   7.476   0.330   5.092 -0.1700  0.5060  0.6327
  927MOL0     H25112   7.425   0.484   5.153 -2.9383 -0.9539  1.3717
  927MOL0     H25113   7.210   0.459   5.008 -0.6725 -0.2507 -0.1237
  927MOL0     H25114   7.265   0.292   4.979  1.3304 -1.5205  1.2498
  927MOL0     H25115   7.221   0.376   5.267 -0.0238 -1.8593  0.8595
  927MOL0     H25116   7.249   0.214   5.195  1.8164 -0.2912 -2.2225
  927MOL0     H25117   7.001   0.392   5.159 -0.2055 -0.1075 -0.7640
  927MOL0     H25118   7.048   0.254   5.056  1.2501 -1.6062  0.9818
  927MOL0     H25119   7.016   0.234   5.364 -0.2744  0.6978 -0.1116
  927MOL0     H25120   7.028   0.108   5.252 -2.0608 -0.5808 -0.6051
  927MOL0     H25121   6.818   0.302   5.206  2.7359  0.7727  0.1021
  927MOL0     H25122   6.795   0.117   5.186 -0.6479  0.1701  0.2865
  927MOL0     H25123   6.793   0.249   5.459 -0.0698 -0.3248  0.1502
  927MOL0     H25124   6.790   0.073   5.416 -0.5253 -0.5446 -0.1040
  927MOL0     H25125   6.554   0.170   5.463 -1.7837  0.5100 -0.0091
  927MOL0     H25126   6.575   0.166   5.280  1.2011  0.3301 -0.4670
  927MOL0     H25127   7.684   0.392   5.136  0.1339 -0.0614 -0.2404
  927MOL0     H25128   7.904   0.459   5.137  0.4356  0.7807  0.5833
  927MOL0     H25129   8.244   0.515   4.918 -1.0582  0.8240 -0.2978
  927MOL0     H25130   8.491   0.516   4.928  0.2079  0.6669 -0.5906
  927MOL0     H25131  10.316   0.236   4.689 -1.9701 -0.0552 -1.3181
  927MOL0     H25132  10.558   0.196   4.682  3.7314  0.5632 -0.3162
  927MOL0     H25133  10.967   0.440   4.650  0.0312  1.9654 -2.7468
  927MOL0     H25134  11.209   0.402   4.700 -2.9933  1.2986  3.0284
  927MOL0     H25135  11.364   0.024   4.531  1.8330 -2.1340  0.2450
  927MOL0     H25136  11.439   0.129   4.424 -2.8641  1.9362 -0.8413
  927MOL0     H25137  11.615   0.197   4.623 -2.7875  2.0049  1.8288
  927MOL0     H25138  11.624   0.042   4.558  0.6573  0.7614  0.6189
  927MOL0     H25139  11.463  -0.027   4.746  1.1136 -0.0497 -3.7027
  927MOL0     H25140  11.491   0.138   4.819 -0.2554  0.9705 -0.6538
  927MOL0     H25141  11.717  -0.059   4.781  3.1094  1.0308  2.4667
  927MOL0     H25142  11.652  -0.016   4.925  0.9571  0.9726  0.4253
  927MOL0     H25143  11.891   0.320   4.846  1.6225 -0.5484 -2.7212
  927MOL0     H25144  11.210   0.096   4.389 -1.0221  0.6568 -0.1183
  927MOL0     H25145  10.975   0.089   4.386  1.1728 -1.6321  0.1427
  928MOL0     O25146   7.395   2.746   6.301  0.1918  0.2664  0.1555
  928MOL0     C25147   7.429   2.718   6.418 -0.6007  0.1911  0.1843
  928MOL0     O25148   7.539   2.768   6.484 -1.0369  0.1714 -0.3218
  928MOL0     C25149   7.658   2.804   6.422 -0.0251  0.6828 -0.1287
  928MOL0     C25150   7.761   2.850   6.516  0.6580  0.5096  0.2494
  928MOL0     C25151   7.886   2.894   6.479 -0.5679 -0.7373  0.6037
  928MOL0     C25152   7.918   2.908   6.343 -0.3804  0.5286 -0.0821
  928MOL0     O25153   8.038   2.962   6.298  0.1108  0.4425  0.0201
  928MOL0     C25154   8.078   3.094   6.332  0.0695 -0.1993 -0.7288
  928MOL0     C25155   8.232   3.108   6.356 -0.1686  0.0746  0.4201
  928MOL0     C25156   8.278   3.019   6.472 -0.4001 -0.0909 -0.3433
  928MOL0     C25157   8.424   2.995   6.483  0.6267 -0.1563  0.2242
  928MOL0     C25158   8.496   2.936   6.367 -0.0574  0.6886  0.9306
  928MOL0     C25159   8.644   2.930   6.381 -0.1747 -0.5941  0.1082
  928MOL0     C25160   8.703   2.845   6.265 -0.0405  0.7284 -0.4914
  928MOL0     C25161   8.695   2.694   6.307 -0.1224  0.1709  0.5441
  928MOL0     N25162   8.774   2.613   6.214 -0.0932 -1.3834 -0.3109
  928MOL0     C25163   8.907   2.646   6.184 -0.1937 -0.6329 -0.6995
  928MOL0     C25164   8.930   2.564   6.077  0.4553 -0.0656 -0.6063
  928MOL0     C25165   9.059   2.566   6.010 -0.4807  0.5232 -0.2165
  928MOL0     C25166   9.150   2.476   6.091  0.4288  0.0968  0.2183
  928MOL0     C25167   9.292   2.478   6.027  0.9969  0.2933 -0.9313
  928MOL0     C25168   9.349   2.616   6.046  0.0013 -0.9052  0.1428
  928MOL0     O25169   9.491   2.608   6.052  0.3319 -0.5972  0.0611
  928MOL0     C25170   9.561   2.590   5.942  0.6995  0.1435  0.4531
  928MOL0     C25171   9.694   2.572   5.962 -0.1421 -0.0199 -0.4929
  928MOL0     C25172   9.782   2.553   5.852  0.1046  1.0702  0.0213
  928MOL0     C25173   9.932   2.517   5.882  0.3907 -0.1947  0.7869
  928MOL0     C25174   9.730   2.553   5.722  0.2454 -0.3642 -0.0071
  928MOL0     C25175   9.806   2.543   5.601 -0.7627 -0.5086  0.0443
  928MOL0     O25176   9.736   2.495   5.488  0.1787 -0.8105 -0.1713
  928MOL0     C25177   9.805   2.493   5.366  0.6960  0.6231 -0.3425
  928MOL0     C25178   9.877   2.595   5.320  0.4616  0.3577  1.1363
  928MOL0     C25179   9.942   2.596   5.191 -0.0657  0.3178 -0.0555
  928MOL0     C25180   9.931   2.496   5.112  0.0311  0.2927  0.0976
  928MOL0     O25181   9.996   2.512   4.992 -0.3757  0.0470 -0.2856
  928MOL0     C25182   9.977   2.416   4.890 -0.0651  0.4098  0.2868
  928MOL0     C25183  10.066   2.451   4.770  0.2082  0.3050 -0.8188
  928MOL0     C25184  10.210   2.428   4.813 -0.8950  0.9950 -0.0433
  928MOL0     C25185  10.316   2.469   4.704  0.1749  0.2716 -0.1852
  928MOL0     C25186  10.464   2.402   4.726  0.6700  0.8986  0.3897
  928MOL0     C25187  10.578   2.484   4.671  0.5466  0.6697  0.5868
  928MOL0     C25188  10.576   2.481   4.515 -0.2097 -0.2757  0.6780
  928MOL0     C25189  10.655   2.598   4.454  0.7369 -0.1262 -0.5646
  928MOL0    Cl25190  10.825   2.592   4.498  0.2527  0.1966  0.5055
  928MOL0     C25191   9.846   2.384   5.154  0.3641  0.0250 -0.3656
  928MOL0     C25192   9.791   2.382   5.286  0.4801  0.9092 -0.0466
  928MOL0     O25193   9.920   2.577   5.593  0.1408 -0.2802  0.4393
  928MOL0     C25194   9.589   2.545   5.705 -0.1014 -0.4541  0.7054
  928MOL0     C25195   9.503   2.559   5.812 -0.5392 -0.4288 -0.1926
  928MOL0     N25196   8.820   2.482   6.066  0.5061 -0.8342 -0.0472
  928MOL0     N25197   8.727   2.509   6.148 -1.0369 -0.1118 -0.6736
  928MOL0     C25198   7.827   2.862   6.253 -0.1624  0.1467  0.0482
  928MOL0     C25199   7.699   2.808   6.286 -0.3997 -0.0283  0.0722
  928MOL0     C25200   7.326   2.646   6.506  0.0883 -1.0891 -0.0452
  928MOL0     C25201   7.185   2.646   6.472  0.1577  0.0415  0.4233
  928MOL0     C25202   7.088   2.580   6.545  0.3180 -0.3450 -0.3348
  928MOL0     C25203   7.128   2.522   6.667 -0.0961 -0.0155  0.2594
  928MOL0     O25204   7.048   2.476   6.767 -0.3639  0.2892  0.9044
  928MOL0     C25205   6.912   2.520   6.763  0.0577  0.0790  0.1141
  928MOL0     C25206   6.839   2.451   6.879  0.0071 -0.3494  0.3225
  928MOL0     C25207   6.686   2.475   6.868 -0.4656  0.1727 -0.4397
  928MOL0     C25208   6.612   2.415   6.742 -0.1379 -0.1140 -1.1521
  928MOL0     C25209   6.611   2.271   6.773 -0.0367 -0.4442  0.4118
  928MOL0     C25210   6.626   2.157   6.798 -0.7076  0.2813  0.4096
  928MOL0     C25211   7.262   2.526   6.705  0.0448  0.8399  0.4062
  928MOL0     C25212   7.362   2.583   6.623  0.1344  1.0783 -0.3143
  928MOL0     H25213   7.739   2.846   6.622  1.3787  1.0455  0.4237
  928MOL0     H25214   7.955   2.926   6.556 -1.5772  0.2215  1.1273
  928MOL0     H25215   8.047   3.162   6.253 -1.3074 -1.9429 -1.7612
  928MOL0     H25216   8.019   3.120   6.421  1.0716  0.7081 -0.3101
  928MOL0     H25217   8.281   3.083   6.261 -0.4248  0.7406  0.1093
  928MOL0     H25218   8.268   3.208   6.379  1.4063 -0.2222 -0.6176
  928MOL0     H25219   8.240   3.057   6.568  2.5655  0.1353  0.8512
  928MOL0     H25220   8.232   2.920   6.468  0.0010 -0.5692  3.1099
  928MOL0     H25221   8.477   3.087   6.509 -1.5190  0.5989  2.2033
  928MOL0     H25222   8.426   2.939   6.577  1.3097  0.9998  0.9178
  928MOL0     H25223   8.452   2.836   6.361  1.2580  0.0413  1.5856
  928MOL0     H25224   8.481   2.986   6.272  3.5289  1.6130  0.7105
  928MOL0     H25225   8.679   3.034   6.371  0.9997 -0.5978  3.0381
  928MOL0     H25226   8.675   2.906   6.483 -0.0015  2.9224  1.0192
  928MOL0     H25227   8.642   2.850   6.174  0.3535 -2.3570 -1.0363
  928MOL0     H25228   8.808   2.871   6.245  1.0433 -3.6711 -1.5472
  928MOL0     H25229   8.589   2.666   6.310  0.2780 -1.3513  1.7339
  928MOL0     H25230   8.736   2.679   6.407 -1.3682 -1.6320  0.8321
  928MOL0     H25231   8.970   2.717   6.236  2.8260 -1.2388 -3.2361
  928MOL0     H25232   9.054   2.526   5.908  2.1731 -0.0571 -0.1874
  928MOL0     H25233   9.096   2.669   6.010  0.0696  0.3300 -0.2897
  928MOL0     H25234   9.112   2.374   6.085 -0.1044  0.1557  2.1108
  928MOL0     H25235   9.143   2.509   6.195 -2.9263  1.0050 -0.1621
  928MOL0     H25236   9.296   2.442   5.924  0.2376  0.2751 -0.9614
  928MOL0     H25237   9.354   2.410   6.084 -2.4763  0.2257  3.3384
  928MOL0     H25238   9.314   2.661   6.140 -2.0472 -4.1031  1.0712
  928MOL0     H25239   9.329   2.688   5.966  0.4077  0.8098  1.5347
  928MOL0     H25240   9.732   2.578   6.063 -2.8207 -0.1408  0.5922
  928MOL0     H25241   9.999   2.556   5.805 -1.8894 -1.4775 -2.0409
  928MOL0     H25242   9.976   2.553   5.976  1.2922 -0.9717  0.6786
  928MOL0     H25243   9.953   2.410   5.879  1.7863  0.0779 -0.0616
  928MOL0     H25244   9.888   2.688   5.374  2.7722  0.3675  0.7722
  928MOL0     H25245   9.997   2.684   5.158 -0.4417 -0.0333 -1.7482
  928MOL0     H25246  10.008   2.317   4.926 -2.7587 -0.4406  0.5039
  928MOL0     H25247   9.876   2.402   4.851  0.7024  0.8404 -1.9876
  928MOL0     H25248  10.038   2.386   4.686 -0.9921  3.0917 -2.7414
  928MOL0     H25249  10.046   2.555   4.741  0.5127  0.5133 -0.3035
  928MOL0     H25250  10.225   2.321   4.832 -4.2975  0.5994  1.1096
  928MOL0     H25251  10.239   2.482   4.904  0.3119  1.9474 -0.9604
  928MOL0     H25252  10.274   2.433   4.609 -0.1391  0.2830 -0.0489
  928MOL0     H25253  10.333   2.576   4.690  1.8204  0.2426  1.2727
  928MOL0     H25254  10.461   2.311   4.666  2.2785  1.1557 -0.1175
  928MOL0     H25255  10.487   2.383   4.832  0.2601 -1.4140  0.1093
  928MOL0     H25256  10.571   2.587   4.707  0.6865  1.2474 -0.9670
  928MOL0     H25257  10.673   2.441   4.705 -0.0392 -0.6660  0.5826
  928MOL0     H25258  10.475   2.478   4.475  0.6982  0.2329 -1.8013
  928MOL0     H25259  10.614   2.386   4.475 -1.6772  0.4704 -2.8479
  928MOL0     H25260  10.613   2.695   4.481 -2.2896 -1.8660  1.5811
  928MOL0     H25261  10.641   2.596   4.346  0.7267  2.3459 -0.6752
  928MOL0     H25262   9.832   2.295   5.095 -2.0179 -2.2341  3.1989
  928MOL0     H25263   9.724   2.302   5.315 -0.2683  0.7504 -2.1106
  928MOL0     H25264   9.542   2.523   5.610 -0.3514 -0.1183  0.7487
  928MOL0     H25265   9.396   2.564   5.798 -0.4384  0.6594 -0.6593
  928MOL0     H25266   7.859   2.863   6.149 -0.0988  1.6315  0.0673
  928MOL0     H25267   7.629   2.778   6.208 -2.0832 -1.8185  2.1366
  928MOL0     H25268   7.145   2.691   6.382 -1.4141 -0.6766  0.7290
  928MOL0     H25269   6.987   2.570   6.508 -0.2462 -0.0148  1.0364
  928MOL0     H25270   6.920   2.628   6.779  5.6667 -0.1909  1.1983
  928MOL0     H25271   6.856   2.505   6.670  2.9064 -0.0720 -1.7205
  928MOL0     H25272   6.872   2.495   6.973 -1.3535 -0.4852  0.8867
  928MOL0     H25273   6.861   2.344   6.873 -0.2258 -0.3990  0.3303
  928MOL0     H25274   6.665   2.582   6.873 -3.2194 -0.1012 -3.1959
  928MOL0     H25275   6.650   2.425   6.958  1.5983  1.9243  1.4766
  928MOL0     H25276   6.654   2.434   6.643  3.4756 -0.2314  0.1910
  928MOL0     H25277   6.509   2.451   6.743  0.0487  0.4486  0.0652
  928MOL0     H25278   6.642   2.051   6.799 -0.2898  0.2376 -2.4514
  928MOL0     H25279   7.294   2.484   6.799 -0.4563  3.4481  1.8343
  928MOL0     H25280   7.469   2.579   6.640  0.4730  1.9307 -2.0525
  929MOL0     O25281   6.806   7.518   8.169  1.0539  0.3163 -0.6447
  929MOL0     C25282   6.844   7.622   8.118 -0.0248 -0.7190 -0.1940
  929MOL0     O25283   6.776   7.694   8.023 -0.4871  0.0238  0.4254
  929MOL0     C25284   6.655   7.657   7.970  0.8750  0.5159  0.1834
  929MOL0     C25285   6.576   7.766   7.921 -0.7561  0.5856 -0.4778
  929MOL0     C25286   6.451   7.739   7.872 -0.4778  0.0474  0.1651
  929MOL0     C25287   6.409   7.609   7.846  0.0404  0.5995 -0.5714
  929MOL0     O25288   6.281   7.596   7.780 -0.5905  0.6066  0.6627
  929MOL0     C25289   6.286   7.494   7.685  0.3741  0.1757  0.1782
  929MOL0     C25290   6.144   7.487   7.634  0.0819 -0.3432  0.1225
  929MOL0     C25291   6.128   7.382   7.524  0.2137  0.2677  0.3916
  929MOL0     C25292   5.982   7.358   7.489  0.3156  0.0768  0.0500
  929MOL0     C25293   5.930   7.472   7.411  0.2079 -0.1284  0.1771
  929MOL0     C25294   5.804   7.426   7.345  0.1645  0.3607 -0.8214
  929MOL0     C25295   5.717   7.548   7.297  0.6035 -0.6770  0.1078
  929MOL0     C25296   5.569   7.516   7.245 -0.4119  0.2295 -0.1872
  929MOL0     N25297   5.567   7.427   7.128  0.0991  0.3497  0.8329
  929MOL0     C25298   5.561   7.470   6.996 -0.3063 -0.5127 -0.7768
  929MOL0     C25299   5.553   7.359   6.927 -1.0179  0.2900 -0.1563
  929MOL0     C25300   5.548   7.356   6.774 -0.9017  0.0372 -0.3768
  929MOL0     C25301   5.406   7.383   6.728 -0.3194  0.5223  0.8105
  929MOL0     C25302   5.386   7.335   6.579  0.9764 -0.4155  0.3028
  929MOL0     C25303   5.253   7.388   6.542 -0.7307 -0.6560  0.6614
  929MOL0     O25304   5.149   7.313   6.604 -0.3030 -0.0639  0.0748
  929MOL0     C25305   5.032   7.384   6.620 -0.6455  0.4846  0.0656
  929MOL0     C25306   4.936   7.338   6.711  0.3355  0.3897 -0.0953
  929MOL0     C25307   4.812   7.395   6.730 -0.0060  0.1181  0.2964
  929MOL0     C25308   4.717   7.326   6.831  0.3892  0.2133  0.3269
  929MOL0     C25309   4.781   7.513   6.662 -0.2326  0.5143 -0.1118
  929MOL0     C25310   4.664   7.588   6.682 -0.0229  0.8687  0.2198
  929MOL0     O25311   4.603   7.587   6.807  0.0043 -0.2942 -0.4102
  929MOL0     C25312   4.471   7.618   6.828  0.2903  0.3497 -0.4441
  929MOL0     C25313   4.425   7.746   6.813  0.8152 -0.2793  0.3096
  929MOL0     C25314   4.290   7.782   6.847  0.3474  0.4123  0.8615
  929MOL0     C25315   4.195   7.684   6.881 -0.3123 -0.1189  0.5953
  929MOL0     O25316   4.065   7.712   6.900 -0.1326 -0.2944 -0.1629
  929MOL0     C25317   3.975   7.662   6.791 -0.2893 -0.5558  0.1310
  929MOL0     C25318   3.834   7.655   6.842 -0.4392 -0.1109 -0.4794
  929MOL0     C25319   3.742   7.571   6.750  0.2041  0.0637  0.7846
  929MOL0     C25320   3.750   7.423   6.787 -0.5230 -0.6475  0.5669
  929MOL0     C25321   3.653   7.330   6.707  0.0924  0.1727 -0.6046
  929MOL0     C25322   3.508   7.344   6.750  0.2294 -0.8404 -0.2086
  929MOL0     C25323   3.413   7.233   6.721  0.4012 -0.4707  0.3511
  929MOL0     C25324   3.287   7.240   6.805  0.2029 -0.6792  0.0071
  929MOL0    Cl25325   3.163   7.137   6.738  0.2900 -0.1630 -0.0783
  929MOL0     C25326   4.245   7.553   6.894  0.1754  0.3580  0.0239
  929MOL0     C25327   4.376   7.519   6.868 -0.2798  0.4732  0.2758
  929MOL0     O25328   4.626   7.659   6.585  0.1856  0.4296 -0.0255
  929MOL0     C25329   4.868   7.549   6.556 -0.1286 -0.1562  0.3045
  929MOL0     C25330   4.994   7.492   6.538  0.2431  0.1850  0.2029
  929MOL0     N25331   5.551   7.251   7.015 -0.8931  0.0405  0.5119
  929MOL0     N25332   5.560   7.293   7.134 -0.3238 -0.9191 -0.3946
  929MOL0     C25333   6.479   7.502   7.897 -0.3777  0.6766  0.7891
  929MOL0     C25334   6.595   7.525   7.965 -0.1949 -0.3987 -0.8272
  929MOL0     C25335   6.981   7.665   8.157  0.1752 -0.1926 -0.1459
  929MOL0     C25336   7.032   7.781   8.094 -0.6991  0.8187 -0.2666
  929MOL0     C25337   7.155   7.825   8.135 -0.5654  0.0933  1.2822
  929MOL0     C25338   7.224   7.773   8.241  0.9088  0.1629 -0.8055
  929MOL0     O25339   7.335   7.823   8.307  0.6112  0.5096  0.3949
  929MOL0     C25340   7.423   7.913   8.228 -0.2085  0.0426  0.2615
  929MOL0     C25341   7.428   8.053   8.291 -0.1851  0.1016 -0.0509
  929MOL0     C25342   7.292   8.123   8.301  0.2687  0.4190  0.2665
  929MOL0     C25343   7.299   8.249   8.389 -0.6519 -0.0541  0.1809
  929MOL0     C25344   7.178   8.323   8.377 -0.8157  0.5105 -1.2333
  929MOL0     C25345   7.080   8.389   8.367  0.1007 -0.2468  0.5096
  929MOL0     C25346   7.169   7.663   8.306 -0.0435  0.3137 -0.1161
  929MOL0     C25347   7.042   7.608   8.269 -0.5955  0.0684  0.4285
  929MOL0     H25348   6.612   7.868   7.923  0.7162  0.0928  0.2463
  929MOL0     H25349   6.385   7.819   7.839 -2.4816 -1.0185  1.4134
  929MOL0     H25350   6.358   7.518   7.607  1.2686  2.9523  1.7236
  929MOL0     H25351   6.308   7.390   7.711 -1.1980 -0.7649 -1.9382
  929MOL0     H25352   6.076   7.464   7.717 -2.2872 -0.2824 -1.7045
  929MOL0     H25353   6.117   7.587   7.600  1.5017 -0.0341 -0.1612
  929MOL0     H25354   6.186   7.416   7.438 -1.9577  0.0929 -1.2256
  929MOL0     H25355   6.164   7.287   7.564 -1.9376 -0.0516  1.7653
  929MOL0     H25356   5.971   7.268   7.429  0.6946 -0.2484  0.4651
  929MOL0     H25357   5.920   7.346   7.579 -0.2113 -1.9530 -0.5335
  929MOL0     H25358   5.889   7.550   7.477  0.2739 -0.7160  0.9229
  929MOL0     H25359   5.994   7.520   7.336 -0.4328  1.3114  0.4978
  929MOL0     H25360   5.828   7.360   7.260  0.0501 -0.8783  0.0814
  929MOL0     H25361   5.751   7.370   7.422  1.9123 -1.0826 -0.6039
  929MOL0     H25362   5.699   7.607   7.388  2.1840 -0.6071  0.3930
  929MOL0     H25363   5.773   7.613   7.229 -0.9477 -0.3444 -0.9222
  929MOL0     H25364   5.507   7.604   7.225 -1.5534 -0.8158 -1.3475
  929MOL0     H25365   5.515   7.461   7.323 -0.0581  1.3014  0.8634
  929MOL0     H25366   5.560   7.567   6.948 -0.4457 -0.4891 -0.7254
  929MOL0     H25367   5.610   7.440   6.745 -0.1577  0.1411  1.3771
  929MOL0     H25368   5.582   7.263   6.727 -2.0497 -0.2226 -0.7466
  929MOL0     H25369   5.374   7.486   6.739  2.0589  1.8762 -3.0752
  929MOL0     H25370   5.332   7.329   6.788 -2.3518  0.2305 -1.8053
  929MOL0     H25371   5.379   7.228   6.559 -0.6571  0.0500 -2.0867
  929MOL0     H25372   5.460   7.386   6.516 -2.0880  1.3238 -2.1880
  929MOL0     H25373   5.244   7.378   6.433  1.4225  3.9222 -0.1881
  929MOL0     H25374   5.243   7.494   6.564  1.1003 -0.4737  0.8053
  929MOL0     H25375   4.958   7.250   6.770 -4.8819 -0.4125  1.1521
  929MOL0     H25376   4.697   7.376   6.927 -3.4444 -1.6247  0.6496
  929MOL0     H25377   4.621   7.302   6.785  0.8533 -0.1462 -0.4694
  929MOL0     H25378   4.746   7.222   6.846  1.9999  0.6806  0.7289
  929MOL0     H25379   4.496   7.821   6.780 -0.8390  1.2361  0.0057
  929MOL0     H25380   4.264   7.887   6.840 -0.8744  0.0292 -0.9166
  929MOL0     H25381   3.989   7.725   6.702  1.9639  1.8576  2.0559
  929MOL0     H25382   4.004   7.562   6.757  3.2404  0.4736 -0.3020
  929MOL0     H25383   3.833   7.602   6.938 -1.5271  0.2905 -0.2518
  929MOL0     H25384   3.795   7.755   6.860  0.4731  0.0399  0.7526
  929MOL0     H25385   3.776   7.592   6.648  1.5342  1.6654  1.5044
  929MOL0     H25386   3.642   7.611   6.764  1.2110  3.0797  0.1469
  929MOL0     H25387   3.852   7.395   6.761  0.0549  0.8426  1.1521
  929MOL0     H25388   3.725   7.420   6.893  0.7843  0.2976  0.9167
  929MOL0     H25389   3.687   7.230   6.732  1.1591  1.1024  2.0092
  929MOL0     H25390   3.664   7.332   6.598  2.7414 -1.4297 -0.4433
  929MOL0     H25391   3.499   7.352   6.859  0.6244 -1.5935 -0.1112
  929MOL0     H25392   3.464   7.440   6.720  3.5111  1.1960  0.9737
  929MOL0     H25393   3.447   7.132   6.742 -1.5932 -1.4396 -0.8141
  929MOL0     H25394   3.389   7.242   6.615  4.2509  0.6112 -0.6033
  929MOL0     H25395   3.259   7.345   6.796 -0.3286 -0.9018 -1.1762
  929MOL0     H25396   3.311   7.215   6.909  2.2412 -1.1781 -0.5227
  929MOL0     H25397   4.185   7.465   6.917  1.6517 -0.7222 -0.0955
  929MOL0     H25398   4.408   7.415   6.878 -0.2265  0.2287 -1.9295
  929MOL0     H25399   4.843   7.630   6.488  2.3667 -0.2332 -0.8449
  929MOL0     H25400   5.062   7.525   6.460  2.0427  1.4877  2.2268
  929MOL0     H25401   6.449   7.398   7.884  0.4557  0.1408  2.7826
  929MOL0     H25402   6.661   7.446   8.000  1.3375  1.2468  0.2115
  929MOL0     H25403   6.980   7.822   8.008 -0.7373  0.3016 -0.5003
  929MOL0     H25404   7.188   7.904   8.068 -0.7241 -0.6973  0.2501
  929MOL0     H25405   7.522   7.866   8.229 -0.7934 -1.2238  1.1697
  929MOL0     H25406   7.387   7.922   8.126 -1.0064  0.0771  0.5422
  929MOL0     H25407   7.497   8.109   8.227 -0.3972 -1.5079 -1.7721
  929MOL0     H25408   7.484   8.051   8.385 -0.5689 -0.8415  0.1623
  929MOL0     H25409   7.218   8.053   8.341 -0.8666  0.0185 -2.3644
  929MOL0     H25410   7.251   8.150   8.203  1.3852 -0.9466 -0.6226
  929MOL0     H25411   7.390   8.297   8.351  0.2625 -1.5787  0.3342
  929MOL0     H25412   7.320   8.210   8.489 -0.7002 -1.2200 -0.2495
  929MOL0     H25413   6.993   8.451   8.371 -0.7344 -1.4308  2.6488
  929MOL0     H25414   7.216   7.624   8.395 -1.2358  1.0344  0.8660
  929MOL0     H25415   6.994   7.525   8.320 -0.9356 -0.1173 -0.1838
  930MOL0     O25416   0.061   9.288   8.237  0.5578  0.3011 -0.0134
  930MOL0     C25417   0.132   9.339   8.326  0.0420 -0.2331  0.0255
  930MOL0     O25418   0.087   9.363   8.447  0.2791 -0.0234  0.4474
  930MOL0     C25419  -0.028   9.308   8.493  0.5851  0.1586  0.5028
  930MOL0     C25420  -0.017   9.193   8.576 -0.1266  0.6271  0.5347
  930MOL0     C25421  -0.133   9.126   8.628 -0.5768 -0.2219 -0.3050
  930MOL0     C25422  -0.256   9.169   8.575  0.4836  0.1015 -0.5494
  930MOL0     O25423  -0.362   9.101   8.633 -0.6994  0.0418  0.6016
  930MOL0     C25424  -0.494   9.128   8.591  0.5751 -0.2799 -0.1418
  930MOL0     C25425  -0.593   9.034   8.666 -0.5572 -0.2099  0.5387
  930MOL0     C25426  -0.736   9.056   8.624  0.4275  0.2401  0.3229
  930MOL0     C25427  -0.818   8.939   8.664  0.0959  0.0647 -0.8389
  930MOL0     C25428  -0.963   8.947   8.613 -0.8676  0.0098 -0.3157
  930MOL0     C25429  -1.058   9.026   8.697  0.6163  0.3135 -0.6733
  930MOL0     C25430  -1.188   9.036   8.628  0.1001  0.4241  0.5039
  930MOL0     C25431  -1.285   9.096   8.719  0.4347  0.1540  0.3764
  930MOL0     N25432  -1.401   9.147   8.643 -0.0937 -0.2074 -0.7906
  930MOL0     C25433  -1.464   9.086   8.535  0.0919 -0.4405  0.0925
  930MOL0     C25434  -1.544   9.177   8.474  0.3704 -0.0583 -0.3728
  930MOL0     C25435  -1.621   9.162   8.343  0.1915  0.3802  0.2809
  930MOL0     C25436  -1.746   9.074   8.368  0.8783 -0.1849  0.0158
  930MOL0     C25437  -1.799   9.035   8.234  0.0889 -0.2390  0.0008
  930MOL0     C25438  -1.946   8.985   8.250 -0.1763 -0.7170 -0.1945
  930MOL0     O25439  -1.992   8.915   8.137 -0.4999  0.0889  0.4226
  930MOL0     C25440  -2.121   8.887   8.118 -0.1744  0.0272 -0.0976
  930MOL0     C25441  -2.223   8.872   8.216  0.4463 -0.8431  0.3664
  930MOL0     C25442  -2.355   8.840   8.183  0.4229  0.7976  0.0475
  930MOL0     C25443  -2.460   8.822   8.285 -0.0342  0.7390 -0.0289
  930MOL0     C25444  -2.391   8.835   8.043  0.0186 -0.3275  0.2169
  930MOL0     C25445  -2.533   8.798   7.992 -0.2883 -0.7344  0.4346
  930MOL0     O25446  -2.555   8.834   7.861 -0.2746 -0.0205 -0.0448
  930MOL0     C25447  -2.682   8.836   7.812 -0.0702 -1.1209  0.4368
  930MOL0     C25448  -2.697   8.931   7.709 -0.3879 -0.2122  0.6050
  930MOL0     C25449  -2.821   8.960   7.654 -0.3489  0.0808 -0.5105
  930MOL0     C25450  -2.927   8.885   7.695  0.1298 -0.5452 -0.2023
  930MOL0     O25451  -3.047   8.920   7.633 -0.4109 -1.0643 -0.3626
  930MOL0     C25452  -3.175   8.882   7.688 -0.1599  0.5787 -0.2070
  930MOL0     C25453  -3.208   8.755   7.617 -0.2135 -0.1711 -0.6270
  930MOL0     C25454  -3.348   8.706   7.669 -0.6244  0.1395  0.4447
  930MOL0     C25455  -3.413   8.590   7.582  0.0733  0.2281 -0.4662
  930MOL0     C25456  -3.480   8.650   7.456  0.5540 -0.4164 -0.6409
  930MOL0     C25457  -3.532   8.547   7.356 -0.4708 -0.1148  0.0322
  930MOL0     C25458  -3.639   8.461   7.418  0.3441  0.7971  0.1567
  930MOL0     C25459  -3.768   8.524   7.468  1.0108  0.2366 -0.0305
  930MOL0    Cl25460  -3.851   8.598   7.323  0.0219 -0.1232  0.2077
  930MOL0     C25461  -2.918   8.784   7.789 -0.5990  0.5029  0.1884
  930MOL0     C25462  -2.796   8.765   7.852  0.1944 -0.0289 -0.1405
  930MOL0     O25463  -2.612   8.739   8.061  0.1130  0.3038  0.4001
  930MOL0     C25464  -2.292   8.862   7.952 -0.7840  0.3756  0.6489
  930MOL0     C25465  -2.157   8.884   7.986  0.6718  0.5024  0.2657
  930MOL0     N25466  -1.534   9.293   8.553 -0.0102 -0.5810 -0.2416
  930MOL0     N25467  -1.442   9.274   8.640  0.1352 -1.0750 -0.2311
  930MOL0     C25468  -0.269   9.281   8.495  0.4057 -0.2759 -0.3790
  930MOL0     C25469  -0.156   9.347   8.456 -0.2722 -0.1015  0.6993
  930MOL0     C25470   0.281   9.351   8.301  0.3613  0.0958 -1.3801
  930MOL0     C25471   0.368   9.295   8.403  0.0887  0.5441  0.1432
  930MOL0     C25472   0.508   9.294   8.387 -0.1923 -0.4563  0.4453
  930MOL0     C25473   0.567   9.328   8.268 -0.7549 -0.1531 -1.0753
  930MOL0     O25474   0.703   9.287   8.266  0.5847  0.0075 -0.0232
  930MOL0     C25475   0.781   9.329   8.161 -0.4892  0.7620  0.1229
  930MOL0     C25476   0.927   9.281   8.161  0.3130 -0.1780  0.4008
  930MOL0     C25477   1.018   9.358   8.060  1.0283  0.2745  0.2140
  930MOL0     C25478   1.164   9.321   8.087 -0.1468  0.2148 -0.3923
  930MOL0     C25479   1.249   9.362   7.968  0.2419 -0.6518 -0.2734
  930MOL0     C25480   1.324   9.381   7.878 -0.0200 -0.2739 -0.0510
  930MOL0     C25481   0.487   9.394   8.169 -0.1246 -0.1837 -0.2860
  930MOL0     C25482   0.350   9.413   8.196 -0.4056 -0.1271 -0.4592
  930MOL0     H25483   0.079   9.156   8.611 -0.7273 -0.6373  0.8924
  930MOL0     H25484  -0.121   9.042   8.696  0.3816  0.6576  0.6615
  930MOL0     H25485  -0.523   9.231   8.616 -0.5488 -0.7015  0.3733
  930MOL0     H25486  -0.515   9.124   8.484 -1.6670 -2.1898  0.2904
  930MOL0     H25487  -0.568   8.929   8.647 -0.6247 -0.5386  2.1015
  930MOL0     H25488  -0.593   9.063   8.771 -1.0360 -0.3701  0.5880
  930MOL0     H25489  -0.775   9.146   8.673 -1.1816  0.3160 -0.9975
  930MOL0     H25490  -0.740   9.068   8.515  0.7842 -0.7258  0.1964
  930MOL0     H25491  -0.774   8.846   8.625 -1.0391 -2.6917  3.6593
  930MOL0     H25492  -0.809   8.925   8.773 -0.9498  1.2667 -0.5794
  930MOL0     H25493  -0.967   8.982   8.509  2.5613  1.0457 -0.2436
  930MOL0     H25494  -1.009   8.849   8.602 -1.7423  0.4221 -0.4582
  930MOL0     H25495  -1.077   8.960   8.783 -2.1391 -0.6677 -1.8956
  930MOL0     H25496  -1.009   9.117   8.732  0.8714 -0.0869  0.0548
  930MOL0     H25497  -1.180   9.094   8.536 -1.1475 -0.5871 -0.2916
  930MOL0     H25498  -1.221   8.940   8.587 -0.4237  0.2600  1.2875
  930MOL0     H25499  -1.244   9.183   8.771 -0.6887  1.4782 -0.8680
  930MOL0     H25500  -1.327   9.024   8.790  0.4594 -2.2383 -1.8933
  930MOL0     H25501  -1.450   8.985   8.497 -0.9384 -1.3873  2.0479
  930MOL0     H25502  -1.650   9.259   8.302  2.0816  0.3780 -1.2152
  930MOL0     H25503  -1.547   9.107   8.283  0.2683 -0.7672  1.3857
  930MOL0     H25504  -1.821   9.133   8.421 -0.0143 -1.5968  0.3824
  930MOL0     H25505  -1.724   8.989   8.434 -2.1428 -1.3064 -0.2273
  930MOL0     H25506  -1.734   8.960   8.189 -0.7306 -0.4298 -0.9081
  930MOL0     H25507  -1.805   9.111   8.156 -2.4069  1.7871  1.9703
  930MOL0     H25508  -2.015   9.066   8.277  0.2126 -0.4928  0.1295
  930MOL0     H25509  -1.947   8.915   8.334 -1.4596 -1.4076 -0.7551
  930MOL0     H25510  -2.196   8.884   8.321 -2.5345  2.7891  0.9088
  930MOL0     H25511  -2.491   8.719   8.304  1.3175  0.6457  1.9343
  930MOL0     H25512  -2.422   8.863   8.379 -0.5603  0.2587  0.3990
  930MOL0     H25513  -2.553   8.873   8.257 -1.0231 -1.8126 -1.7436
  930MOL0     H25514  -2.609   8.985   7.676  1.2666 -2.2428  1.4533
  930MOL0     H25515  -2.841   9.031   7.574  0.8613  0.9285 -0.0879
  930MOL0     H25516  -3.166   8.864   7.796 -0.2382  1.1989 -0.0946
  930MOL0     H25517  -3.252   8.955   7.663  1.3456  2.4455  0.3734
  930MOL0     H25518  -3.210   8.778   7.510 -1.0459  1.8887 -0.2226
  930MOL0     H25519  -3.125   8.685   7.632 -0.6185 -0.5830 -0.2650
  930MOL0     H25520  -3.414   8.794   7.664  0.5835  1.0425 -0.1532
  930MOL0     H25521  -3.332   8.677   7.773  3.1707 -2.0302 -0.5565
  930MOL0     H25522  -3.341   8.514   7.552  1.1140  1.9292 -2.5962
  930MOL0     H25523  -3.480   8.537   7.650  0.2771  2.9275  2.0293
  930MOL0     H25524  -3.413   8.715   7.399 -0.2484 -0.1010 -1.2383
  930MOL0     H25525  -3.564   8.709   7.494 -0.8275 -0.6579 -3.0956
  930MOL0     H25526  -3.565   8.600   7.266 -0.1511  0.5854  0.3171
  930MOL0     H25527  -3.447   8.487   7.320 -0.7660 -1.8921  2.1208
  930MOL0     H25528  -3.592   8.404   7.498  0.0229  0.1152 -0.1379
  930MOL0     H25529  -3.669   8.390   7.341  3.0683  0.3348 -0.5946
  930MOL0     H25530  -3.748   8.600   7.544  0.1241  0.4046  0.0441
  930MOL0     H25531  -3.827   8.449   7.521  0.8557  1.7763  2.1235
  930MOL0     H25532  -3.009   8.743   7.832 -0.9023  0.9645  0.0088
  930MOL0     H25533  -2.794   8.694   7.934 -1.5288  1.6994  1.5214
  930MOL0     H25534  -2.316   8.858   7.846 -0.9662 -0.7994  0.7168
  930MOL0     H25535  -2.080   8.908   7.913  3.9574 -0.2056  3.2037
  930MOL0     H25536  -0.369   9.306   8.459 -0.3894  3.4495  3.5864
  930MOL0     H25537  -0.169   9.434   8.392  4.1166  0.3084  0.0102
  930MOL0     H25538   0.324   9.259   8.496  0.5030 -2.7941 -0.8231
  930MOL0     H25539   0.568   9.261   8.470 -0.7488 -2.6228  0.0426
  930MOL0     H25540   0.732   9.284   8.074 -1.4332 -3.0509  2.4049
  930MOL0     H25541   0.775   9.438   8.157 -1.7800  0.6678 -0.9940
  930MOL0     H25542   0.920   9.173   8.146  1.3818 -0.1410 -0.4661
  930MOL0     H25543   0.964   9.283   8.264  3.5176 -2.4272 -0.5711
  930MOL0     H25544   0.996   9.464   8.048  1.2731  0.3156  0.1186
  930MOL0     H25545   0.981   9.321   7.964 -3.7232 -0.6730  2.1249
  930MOL0     H25546   1.168   9.214   8.107 -1.9661  0.5482  2.3602
  930MOL0     H25547   1.189   9.394   8.165 -1.2496  2.9142 -2.3867
  930MOL0     H25548   1.392   9.402   7.799 -1.2088 -0.8124 -1.2564
  930MOL0     H25549   0.532   9.429   8.077 -1.4423  1.4016 -0.3875
  930MOL0     H25550   0.297   9.462   8.115  2.7586  2.1653 -1.3363
  931MOL0     O25551   8.675   6.613   4.090 -0.0350 -0.2070 -0.3426
  931MOL0     C25552   8.747   6.514   4.098  0.6699  0.5296  1.5093
  931MOL0     O25553   8.704   6.389   4.091 -0.5916  0.0782 -0.4571
  931MOL0     C25554   8.573   6.362   4.070 -0.4431 -0.4079 -0.1822
  931MOL0     C25555   8.480   6.415   4.169  0.8721  0.3443  0.0863
  931MOL0     C25556   8.346   6.401   4.144 -0.0278  0.4896 -0.1546
  931MOL0     C25557   8.305   6.342   4.028  0.3289  0.0961  0.3794
  931MOL0     O25558   8.173   6.329   3.996  0.0562  0.4715 -0.3020
  931MOL0     C25559   8.076   6.335   4.110 -0.3782  0.6656  0.4693
  931MOL0     C25560   7.951   6.261   4.061 -0.0593 -0.1908  0.5672
  931MOL0     C25561   7.849   6.243   4.172  0.8391 -0.2546 -0.7434
  931MOL0     C25562   7.781   6.109   4.129  0.0680  0.8924 -0.2632
  931MOL0     C25563   7.654   6.084   4.210  0.3592  0.2013 -0.8758
  931MOL0     C25564   7.607   5.946   4.207  0.6510  0.5233 -0.6731
  931MOL0     C25565   7.465   5.930   4.275  0.2880 -0.1304 -0.2638
  931MOL0     C25566   7.420   5.788   4.241 -0.7412 -0.3196  0.0789
  931MOL0     N25567   7.286   5.754   4.287 -0.5699 -0.5579  0.2463
  931MOL0     C25568   7.176   5.769   4.207  0.3892  0.0817  0.8510
  931MOL0     C25569   7.079   5.708   4.272 -0.0513 -0.1533 -0.0838
  931MOL0     C25570   6.938   5.671   4.220 -0.2221 -0.1620  0.2460
  931MOL0     C25571   6.822   5.694   4.315 -0.4720  0.4126  0.6488
  931MOL0     C25572   6.693   5.663   4.232 -0.0908 -0.3442 -0.4286
  931MOL0     C25573   6.552   5.679   4.296  0.0254  0.1124  0.0549
  931MOL0     O25574   6.510   5.816   4.312 -0.1650 -0.7650 -0.1414
  931MOL0     C25575   6.384   5.864   4.328  0.3315 -0.1797  0.4937
  931MOL0     C25576   6.272   5.783   4.317  0.2431 -0.9486 -0.3501
  931MOL0     C25577   6.141   5.835   4.320 -0.3906  0.6640  0.0372
  931MOL0     C25578   6.034   5.726   4.299  0.4933  0.4520  0.2370
  931MOL0     C25579   6.113   5.973   4.323  0.1273  1.0087  0.2849
  931MOL0     C25580   5.976   6.032   4.306 -0.2794  0.1162 -0.2547
  931MOL0     O25581   5.878   5.955   4.259 -0.5003 -0.4799 -0.0433
  931MOL0     C25582   5.746   5.991   4.283 -0.3072 -0.1218 -0.0365
  931MOL0     C25583   5.655   5.984   4.179  0.0172 -0.6742  0.1738
  931MOL0     C25584   5.514   6.004   4.203 -0.2823  0.3970 -0.3750
  931MOL0     C25585   5.471   6.034   4.331  0.8647  0.0666  0.2897
  931MOL0     O25586   5.348   6.071   4.355  0.0829  0.3987  0.0799
  931MOL0     C25587   5.286   6.170   4.268 -0.2262  1.2543  0.6103
  931MOL0     C25588   5.158   6.204   4.338 -0.0546  0.0929  0.0671
  931MOL0     C25589   5.066   6.282   4.243 -0.1068  0.0907 -0.1889
  931MOL0     C25590   5.134   6.420   4.209 -0.0044  0.2481 -0.1422
  931MOL0     C25591   5.033   6.534   4.171 -0.2569 -0.4694  0.3332
  931MOL0     C25592   4.949   6.584   4.291 -0.3108  0.2291  0.4762
  931MOL0     C25593   4.873   6.702   4.239  0.2684  0.0222 -0.2706
  931MOL0     C25594   4.780   6.749   4.347 -0.4084  0.6252  0.3699
  931MOL0    Cl25595   4.630   6.643   4.367  0.0114 -0.5625  0.2069
  931MOL0     C25596   5.560   6.019   4.436 -0.7474 -0.4929 -0.5227
  931MOL0     C25597   5.698   6.006   4.414  0.0421 -0.3851 -0.2017
  931MOL0     O25598   5.956   6.148   4.353  0.1235 -0.4122 -0.4928
  931MOL0     C25599   6.226   6.054   4.342 -0.1099 -0.4257 -0.6158
  931MOL0     C25600   6.360   5.998   4.345 -0.2768  0.5150  0.1257
  931MOL0     N25601   7.127   5.661   4.394  0.1473  0.7195  0.6069
  931MOL0     N25602   7.260   5.681   4.397  0.2440  0.1987  0.5162
  931MOL0     C25603   8.389   6.291   3.928  0.0520 -0.0351  0.0541
  931MOL0     C25604   8.527   6.305   3.950 -0.3971 -0.0308  0.5083
  931MOL0     C25605   8.887   6.540   4.107 -0.1410 -0.5999 -0.5706
  931MOL0     C25606   8.977   6.443   4.081 -0.2219  0.5756  0.1137
  931MOL0     C25607   9.113   6.483   4.061  0.5578  0.0822  0.4079
  931MOL0     C25608   9.162   6.602   4.101  0.7329  0.6021  0.7368
  931MOL0     O25609   9.292   6.629   4.087 -0.2217  0.3785  0.5347
  931MOL0     C25610   9.359   6.733   4.173  0.6107  0.7703  0.3079
  931MOL0     C25611   9.510   6.711   4.158  0.1865 -0.0753 -0.3046
  931MOL0     C25612   9.562   6.569   4.177  0.2432  0.7852 -0.3333
  931MOL0     C25613   9.705   6.539   4.217 -0.4484 -0.0575  0.3133
  931MOL0     C25614   9.746   6.559   4.354 -0.2591  0.1289  0.3503
  931MOL0     C25615   9.791   6.580   4.463 -0.3604 -0.0416 -0.1421
  931MOL0     C25616   9.076   6.705   4.138  0.3292  0.1325 -0.0398
  931MOL0     C25617   8.938   6.668   4.142 -0.9547 -0.2360 -0.0872
  931MOL0     H25618   8.506   6.466   4.261 -1.1565 -0.4993  1.1860
  931MOL0     H25619   8.284   6.423   4.230  2.4876 -0.8728  2.1551
  931MOL0     H25620   8.125   6.284   4.194  0.8643 -1.9852 -1.7172
  931MOL0     H25621   8.057   6.439   4.137 -1.1854  0.0546  2.4404
  931MOL0     H25622   7.905   6.319   3.980  4.4697 -1.0043 -2.9462
  931MOL0     H25623   7.984   6.167   4.016 -0.7556 -0.0379 -0.2953
  931MOL0     H25624   7.898   6.247   4.269  1.0578 -1.5995 -0.7875
  931MOL0     H25625   7.777   6.325   4.160  1.6558  1.0166  2.2119
  931MOL0     H25626   7.745   6.117   4.026 -2.1318 -1.0912  0.2623
  931MOL0     H25627   7.851   6.025   4.130  0.7503  1.4206  1.7776
  931MOL0     H25628   7.670   6.106   4.316 -2.9911  0.7705 -0.3883
  931MOL0     H25629   7.578   6.157   4.183 -1.8445  0.1577  4.1332
  931MOL0     H25630   7.602   5.907   4.105  0.2440  0.5789 -0.6789
  931MOL0     H25631   7.677   5.884   4.264  0.8139  0.7239 -0.6553
  931MOL0     H25632   7.473   5.949   4.382  1.3219  2.4549 -0.7147
  931MOL0     H25633   7.398   6.004   4.231  0.7514  1.0681  0.9734
  931MOL0     H25634   7.493   5.719   4.284 -1.4506 -0.7770  0.5789
  931MOL0     H25635   7.417   5.779   4.132 -2.5308 -1.2781  0.1624
  931MOL0     H25636   7.160   5.816   4.110  2.5768  0.2807  0.5270
  931MOL0     H25637   6.913   5.725   4.128 -0.3552 -0.1983  0.2605
  931MOL0     H25638   6.935   5.564   4.201 -1.0426  0.2190 -2.1485
  931MOL0     H25639   6.819   5.793   4.361 -3.7621 -0.0909  1.7805
  931MOL0     H25640   6.832   5.625   4.400  1.6642 -1.8395 -1.2808
  931MOL0     H25641   6.710   5.562   4.193  0.5434 -0.7294  0.8050
  931MOL0     H25642   6.686   5.726   4.143  0.1708 -0.4737 -0.5430
  931MOL0     H25643   6.536   5.616   4.385 -0.5691  2.4156  1.6750
  931MOL0     H25644   6.489   5.639   4.217  0.4330  0.3136 -0.3780
  931MOL0     H25645   6.274   5.674   4.311 -1.7511 -1.0923  0.7686
  931MOL0     H25646   5.951   5.745   4.367  0.5868 -0.2514  0.5541
  931MOL0     H25647   5.997   5.741   4.197  0.6507 -3.0763 -0.4632
  931MOL0     H25648   6.070   5.624   4.308  1.8918  0.7286 -1.5498
  931MOL0     H25649   5.676   5.955   4.076 -1.4706  0.1773 -0.4062
  931MOL0     H25650   5.445   5.990   4.121 -0.4698 -3.5454  0.2638
  931MOL0     H25651   5.349   6.260   4.265  0.7184  0.6090 -1.8230
  931MOL0     H25652   5.267   6.139   4.165 -1.0210  1.1695  0.7791
  931MOL0     H25653   5.097   6.117   4.363 -0.2441 -0.1139 -1.0257
  931MOL0     H25654   5.171   6.268   4.426 -1.4449  3.3828 -1.8971
  931MOL0     H25655   4.974   6.302   4.298 -2.3168  0.8184 -3.8153
  931MOL0     H25656   5.042   6.225   4.153  0.5788 -0.3958 -0.0719
  931MOL0     H25657   5.191   6.463   4.292 -2.4030  1.3126  1.0268
  931MOL0     H25658   5.208   6.398   4.131 -1.0332  1.9602 -1.6680
  931MOL0     H25659   4.967   6.492   4.093 -0.3954  0.4474 -0.0589
  931MOL0     H25660   5.080   6.620   4.122  1.1736  0.1092  2.5960
  931MOL0     H25661   4.883   6.510   4.336  1.0047 -2.8761 -2.2796
  931MOL0     H25662   5.015   6.617   4.372 -0.7521 -1.1678  1.4295
  931MOL0     H25663   4.808   6.700   4.151 -1.3479  1.8423  0.7763
  931MOL0     H25664   4.952   6.772   4.210  2.2299 -1.9305  0.1221
  931MOL0     H25665   4.747   6.850   4.320  0.6434  0.9847  0.3777
  931MOL0     H25666   4.840   6.747   4.439 -0.0066 -0.4521  0.0957
  931MOL0     H25667   5.515   6.038   4.533  1.1012  1.2223  0.0650
  931MOL0     H25668   5.765   5.999   4.499 -1.1295  0.8575  0.8771
  931MOL0     H25669   6.217   6.162   4.352  1.3754 -0.3530  0.2273
  931MOL0     H25670   6.434   6.078   4.342  0.7578 -0.2415  2.7163
  931MOL0     H25671   8.354   6.240   3.839  0.7729  1.8398 -1.3688
  931MOL0     H25672   8.603   6.277   3.878  1.8844  1.8060  2.0655
  931MOL0     H25673   8.950   6.343   4.048  0.2478  0.2464  0.7095
  931MOL0     H25674   9.189   6.420   4.016  1.3754 -0.3734  2.3074
  931MOL0     H25675   9.336   6.835   4.142  0.7948  0.0660 -2.3794
  931MOL0     H25676   9.334   6.718   4.279  2.7032 -1.7003  0.5586
  931MOL0     H25677   9.562   6.789   4.213 -1.1486 -0.0742  1.0186
  931MOL0     H25678   9.529   6.729   4.051 -1.8717 -0.3362 -0.7666
  931MOL0     H25679   9.544   6.530   4.076  2.5815 -0.1261 -0.4561
  931MOL0     H25680   9.504   6.520   4.256  1.1544  0.3061  0.0544
  931MOL0     H25681   9.768   6.597   4.149 -3.3389  2.3035 -0.5626
  931MOL0     H25682   9.716   6.436   4.182 -1.1585 -0.4982  1.3422
  931MOL0     H25683   9.811   6.589   4.568  0.3885 -0.9283 -0.2067
  931MOL0     H25684   9.112   6.806   4.154 -0.8846  0.6559 -0.5267
  931MOL0     H25685   8.859   6.743   4.141 -0.9845 -0.2503  0.6582
  932MOL0     O25686   1.153   8.753   4.780  0.1458 -0.6220  0.2277
  932MOL0     C25687   1.205   8.776   4.887  0.2091  0.0956 -0.3924
  932MOL0     O25688   1.138   8.821   5.003 -0.0423 -0.2143  0.4134
  932MOL0     C25689   1.006   8.849   4.994  0.2605 -0.1159 -0.4391
  932MOL0     C25690   0.934   8.798   5.101 -0.7378 -0.0066  1.1018
  932MOL0     C25691   0.796   8.818   5.115  0.1525 -0.8579 -0.6148
  932MOL0     C25692   0.729   8.903   5.030  0.1804 -0.1552  0.5956
  932MOL0     O25693   0.593   8.924   5.052  0.5974 -0.0537 -0.0402
  932MOL0     C25694   0.502   8.816   5.053 -0.7467 -0.2553 -0.5912
  932MOL0     C25695   0.396   8.842   4.941  0.7826  0.3542 -0.0547
  932MOL0     C25696   0.454   8.776   4.814  0.7334  0.6199  0.7647
  932MOL0     C25697   0.378   8.839   4.692 -0.0551  0.6088 -0.0013
  932MOL0     C25698   0.398   8.755   4.567  0.2445  0.1262 -1.0461
  932MOL0     C25699   0.306   8.799   4.450  0.4322 -0.0921  0.0945
  932MOL0     C25700   0.328   8.713   4.323 -0.4592  0.4048  0.4770
  932MOL0     C25701   0.287   8.560   4.335 -0.2041  0.0037  0.6538
  932MOL0     N25702   0.146   8.539   4.368 -0.5930  0.1785  0.1570
  932MOL0     C25703   0.036   8.599   4.309 -0.7254  0.5279  0.0002
  932MOL0     C25704  -0.067   8.563   4.383 -0.3515  0.5441  0.1434
  932MOL0     C25705  -0.213   8.597   4.359 -0.5893  0.3234  0.4955
  932MOL0     C25706  -0.278   8.495   4.257 -0.2593 -1.1374 -0.6259
  932MOL0     C25707  -0.410   8.540   4.207  0.5037  0.4021  0.5960
  932MOL0     C25708  -0.528   8.535   4.309 -0.5680 -0.6723  0.5843
  932MOL0     O25709  -0.584   8.400   4.324 -0.7722 -0.1594  0.5673
  932MOL0     C25710  -0.662   8.350   4.223  0.5122 -0.1610 -0.3467
  932MOL0     C25711  -0.710   8.218   4.247 -0.8054 -0.2462 -0.5192
  932MOL0     C25712  -0.790   8.148   4.157 -0.3740  0.8437  0.1192
  932MOL0     C25713  -0.831   8.002   4.193  0.3315 -0.1848 -0.9688
  932MOL0     C25714  -0.836   8.214   4.035 -0.5253 -0.5117  0.1092
  932MOL0     C25715  -0.902   8.149   3.917  0.0370 -0.5685  0.2848
  932MOL0     O25716  -0.950   8.030   3.942  0.6781  1.1061 -0.1504
  932MOL0     C25717  -0.952   7.944   3.832 -0.7880  0.6909  0.2899
  932MOL0     C25718  -1.045   7.844   3.829 -0.3540 -0.5906 -0.1962
  932MOL0     C25719  -1.038   7.740   3.731  0.0602 -0.4562 -0.5192
  932MOL0     C25720  -0.931   7.735   3.641 -0.2668 -0.0633 -0.3350
  932MOL0     O25721  -0.912   7.622   3.567 -0.2537  0.0891  0.3617
  932MOL0     C25722  -0.776   7.577   3.544  0.4400 -0.3282 -0.1676
  932MOL0     C25723  -0.797   7.435   3.502  0.2619  0.5383  0.7471
  932MOL0     C25724  -0.686   7.381   3.408  0.5734 -0.9810 -0.5004
  932MOL0     C25725  -0.546   7.410   3.480  0.0873 -0.0890 -0.2476
  932MOL0     C25726  -0.437   7.339   3.399 -0.1921 -0.7276 -0.1559
  932MOL0     C25727  -0.303   7.394   3.451  0.3150 -0.7462  0.6059
  932MOL0     C25728  -0.196   7.348   3.350 -0.0809  0.3925  0.3300
  932MOL0     C25729  -0.063   7.416   3.366 -1.2873 -0.3496  0.9800
  932MOL0    Cl25730  -0.087   7.580   3.297 -0.5782  0.2284 -0.3783
  932MOL0     C25731  -0.848   7.845   3.642  0.7603 -0.1504  0.4849
  932MOL0     C25732  -0.846   7.938   3.733  1.1400 -0.2079 -0.4758
  932MOL0     O25733  -0.919   8.204   3.808 -0.9878  0.1995  0.3968
  932MOL0     C25734  -0.796   8.345   4.020  0.7513 -0.0826 -0.3803
  932MOL0     C25735  -0.704   8.413   4.107  0.2659 -0.1109  1.3791
  932MOL0     N25736  -0.026   8.474   4.480  0.1461  0.3554  0.1417
  932MOL0     N25737   0.105   8.447   4.466 -0.7002 -0.6919  0.6067
  932MOL0     C25738   0.797   8.961   4.927  0.2393 -0.5142 -0.2100
  932MOL0     C25739   0.936   8.945   4.917  0.6461  0.7472 -0.0868
  932MOL0     C25740   1.348   8.728   4.915  1.2560 -0.3565 -0.1508
  932MOL0     C25741   1.419   8.673   4.809  0.0475  0.4563 -0.2538
  932MOL0     C25742   1.552   8.635   4.824  0.1069  0.3986  0.3891
  932MOL0     C25743   1.611   8.649   4.951  0.2212 -0.3958  0.5738
  932MOL0     O25744   1.730   8.595   4.972  0.1486 -0.1880  0.3210
  932MOL0     C25745   1.844   8.678   4.941  0.6093  0.0804  0.1949
  932MOL0     C25746   1.868   8.616   4.799  0.7387  0.4168  0.4303
  932MOL0     C25747   2.010   8.635   4.749 -0.4584  0.0887 -0.2092
  932MOL0     C25748   2.055   8.784   4.763 -0.5891 -0.3139  0.2566
  932MOL0     C25749   1.966   8.875   4.677  0.0605  0.2495 -0.7137
  932MOL0     C25750   1.901   8.935   4.597  0.2684 -0.7672  1.0050
  932MOL0     C25751   1.531   8.698   5.057 -0.9136 -1.2710 -0.0343
  932MOL0     C25752   1.403   8.742   5.039  0.2102  0.0626 -0.8030
  932MOL0     H25753   0.981   8.740   5.180 -1.1436 -1.3945  0.3622
  932MOL0     H25754   0.750   8.770   5.200  2.8543 -1.5172  0.5941
  932MOL0     H25755   0.554   8.721   5.037  1.7883 -0.2576  5.0959
  932MOL0     H25756   0.463   8.819   5.155  4.4032  4.3250  1.8152
  932MOL0     H25757   0.301   8.798   4.974 -0.8321  2.0617 -2.1103
  932MOL0     H25758   0.377   8.949   4.931 -0.9104  0.2823  1.6360
  932MOL0     H25759   0.560   8.792   4.792  0.7062 -0.0198  0.1466
  932MOL0     H25760   0.448   8.667   4.825 -1.2598  0.5299 -0.7569
  932MOL0     H25761   0.269   8.838   4.699 -0.0990 -1.0001 -0.3947
  932MOL0     H25762   0.412   8.941   4.674 -2.2963  1.5131  0.5394
  932MOL0     H25763   0.499   8.773   4.530  0.6118 -1.7134 -1.0467
  932MOL0     H25764   0.398   8.648   4.591 -1.9785 -1.4271 -6.3410
  932MOL0     H25765   0.206   8.788   4.493  1.3246 -3.4095  1.6616
  932MOL0     H25766   0.327   8.898   4.410 -0.2368 -1.2063 -3.3194
  932MOL0     H25767   0.274   8.768   4.246  1.0297  0.5225 -0.5132
  932MOL0     H25768   0.430   8.736   4.291  0.0442 -2.0570  0.0765
  932MOL0     H25769   0.348   8.513   4.413 -1.5389  1.3707  2.6210
  932MOL0     H25770   0.302   8.507   4.241 -4.4052  0.7284 -0.6110
  932MOL0     H25771   0.034   8.662   4.220 -0.4346 -1.9307 -1.8716
  932MOL0     H25772  -0.268   8.595   4.453 -0.5489  0.2493  0.5180
  932MOL0     H25773  -0.213   8.697   4.313  1.5861  0.0896 -0.1698
  932MOL0     H25774  -0.290   8.405   4.318  3.1866 -2.2529 -1.3252
  932MOL0     H25775  -0.210   8.471   4.175 -1.5844  0.4012 -2.2299
  932MOL0     H25776  -0.444   8.491   4.115  0.3547  2.9902 -0.8182
  932MOL0     H25777  -0.398   8.646   4.182  0.8902  0.0018 -1.0846
  932MOL0     H25778  -0.601   8.613   4.286  2.3335  1.9820 -0.2580
  932MOL0     H25779  -0.489   8.568   4.405  1.8497  0.6768 -0.7553
  932MOL0     H25780  -0.693   8.170   4.343 -1.6233 -0.2809 -0.3851
  932MOL0     H25781  -0.801   7.929   4.117 -0.3752  0.1961 -1.6368
  932MOL0     H25782  -0.785   7.961   4.283 -0.6890 -1.4994 -1.0056
  932MOL0     H25783  -0.939   8.001   4.214  0.6855  0.9994  1.2342
  932MOL0     H25784  -1.131   7.844   3.895 -0.4678 -0.3985 -0.3413
  932MOL0     H25785  -1.115   7.664   3.723  0.5958 -1.5041  2.9630
  932MOL0     H25786  -0.733   7.642   3.467  0.2635  0.8392  0.7012
  932MOL0     H25787  -0.713   7.582   3.633 -1.7288  0.7680  1.3918
  932MOL0     H25788  -0.811   7.382   3.597  0.0446 -2.3189 -0.7769
  932MOL0     H25789  -0.890   7.426   3.446  0.5844  0.4371  0.2246
  932MOL0     H25790  -0.696   7.438   3.315  2.1763  0.8904  0.4005
  932MOL0     H25791  -0.704   7.275   3.389 -1.6410 -0.7135 -0.1512
  932MOL0     H25792  -0.525   7.517   3.493  2.1279 -0.4273 -0.4112
  932MOL0     H25793  -0.553   7.368   3.581 -1.8992  0.7811  0.0231
  932MOL0     H25794  -0.450   7.374   3.296  3.4531 -1.2115 -0.9046
  932MOL0     H25795  -0.445   7.230   3.391  1.8285 -0.9320  0.2652
  932MOL0     H25796  -0.305   7.504   3.452  1.4400 -0.5514 -3.2792
  932MOL0     H25797  -0.291   7.355   3.552 -1.0644  1.0548  1.5230
  932MOL0     H25798  -0.241   7.362   3.251 -0.8343 -2.9613  0.0782
  932MOL0     H25799  -0.173   7.242   3.368  2.0245  0.8422  0.5799
  932MOL0     H25800   0.015   7.358   3.318  0.4082  1.5211  1.3409
  932MOL0     H25801  -0.032   7.426   3.470  2.0143 -1.0345  0.1641
  932MOL0     H25802  -0.762   7.855   3.575  0.0481  3.0752 -0.1365
  932MOL0     H25803  -0.777   8.021   3.722 -0.2149  1.3525  1.8737
  932MOL0     H25804  -0.825   8.401   3.932 -1.9424 -1.9502 -0.8301
  932MOL0     H25805  -0.674   8.514   4.079  0.1165 -0.5039 -0.3518
  932MOL0     H25806   0.757   9.031   4.854 -1.6832 -1.5193 -0.1891
  932MOL0     H25807   0.986   8.997   4.837  0.0648  2.4888  0.6405
  932MOL0     H25808   1.382   8.659   4.708 -0.0168 -0.8612 -0.0635
  932MOL0     H25809   1.603   8.597   4.736 -1.9038 -1.0168 -0.2387
  932MOL0     H25810   1.823   8.785   4.937 -0.7437 -0.1819 -0.5207
  932MOL0     H25811   1.928   8.650   5.004 -0.6996 -2.8982  0.8109
  932MOL0     H25812   1.796   8.655   4.727  1.9047  0.5498 -0.6951
  932MOL0     H25813   1.844   8.509   4.802 -1.6586  0.9026  0.0980
  932MOL0     H25814   2.014   8.589   4.650  2.6716 -2.1173  0.7672
  932MOL0     H25815   2.085   8.586   4.812  1.1713  0.9587 -1.3802
  932MOL0     H25816   2.156   8.805   4.727 -1.7780  1.2339 -2.5549
  932MOL0     H25817   2.046   8.825   4.864 -2.4501  2.8494 -1.0568
  932MOL0     H25818   1.848   8.990   4.522  0.5399  0.5503  1.7456
  932MOL0     H25819   1.580   8.719   5.152 -0.0133  1.8369 -1.0453
  932MOL0     H25820   1.353   8.788   5.123  0.0635 -0.0018 -0.8545
  933MOL0     O25821   6.715   3.715   4.713 -0.0172 -0.5759 -0.8624
  933MOL0     C25822   6.769   3.679   4.817 -0.6114 -0.2544  0.0929
  933MOL0     O25823   6.711   3.684   4.941 -0.8081  0.0710 -0.6346
  933MOL0     C25824   6.571   3.694   4.962  0.0590 -0.2214 -0.0140
  933MOL0     C25825   6.536   3.799   5.055 -0.5349  0.3823 -0.0763
  933MOL0     C25826   6.405   3.832   5.084  0.7797  0.4520  0.4085
  933MOL0     C25827   6.295   3.776   5.008  0.0591  0.3995 -0.9322
  933MOL0     O25828   6.165   3.799   5.057 -0.5900  0.6307  1.1726
  933MOL0     C25829   6.085   3.676   5.082 -0.0469 -0.7454 -0.7511
  933MOL0     C25830   5.926   3.703   5.085 -0.7099 -0.1541 -0.0114
  933MOL0     C25831   5.884   3.752   4.945 -0.5915 -0.0045 -0.3221
  933MOL0     C25832   5.838   3.635   4.858  0.3951  0.7249  0.0192
  933MOL0     C25833   5.788   3.672   4.712  0.1456  0.1334 -0.0992
  933MOL0     C25834   5.697   3.579   4.630 -0.0562 -0.0286  0.0686
  933MOL0     C25835   5.647   3.645   4.505 -0.0660 -0.4625  0.2764
  933MOL0     C25836   5.551   3.566   4.408  0.0329 -0.6877  0.3921
  933MOL0     N25837   5.411   3.562   4.445 -0.6343  0.0409 -0.1690
  933MOL0     C25838   5.337   3.458   4.496  0.0647 -0.5884 -0.9065
  933MOL0     C25839   5.203   3.504   4.501 -0.3161  0.2526 -0.0916
  933MOL0     C25840   5.089   3.431   4.560 -0.4606 -0.4756  0.9283
  933MOL0     C25841   5.003   3.358   4.461  0.3770 -0.1112  0.5795
  933MOL0     C25842   4.899   3.279   4.536  0.3619 -0.8387  0.4569
  933MOL0     C25843   4.788   3.360   4.621 -0.3764  0.3898  0.1887
  933MOL0     O25844   4.720   3.440   4.525 -0.0661 -0.0890 -0.5261
  933MOL0     C25845   4.587   3.463   4.540  0.5083 -0.2368  0.8214
  933MOL0     C25846   4.479   3.379   4.503  0.2674  0.0143 -0.6736
  933MOL0     C25847   4.348   3.406   4.534  0.6461  0.2038 -0.8938
  933MOL0     C25848   4.246   3.298   4.488  0.3443  0.4928 -0.5535
  933MOL0     C25849   4.303   3.532   4.599 -1.5314  0.9384 -0.6612
  933MOL0     C25850   4.161   3.561   4.629 -0.1076  0.0577  0.0934
  933MOL0     O25851   4.137   3.690   4.682 -0.0189 -0.7032 -0.1672
  933MOL0     C25852   4.006   3.727   4.710  0.0870  0.5888 -0.1638
  933MOL0     C25853   3.934   3.695   4.827 -0.0677 -0.4723  0.4530
  933MOL0     C25854   3.809   3.746   4.869 -1.1763 -0.7935 -0.1054
  933MOL0     C25855   3.748   3.834   4.775 -0.3855  0.2615  0.2293
  933MOL0     O25856   3.626   3.889   4.820 -0.1667 -0.2166  0.0512
  933MOL0     C25857   3.553   3.985   4.739  0.2676  0.1335  0.7444
  933MOL0     C25858   3.442   4.053   4.817 -0.5176 -0.2767 -0.5424
  933MOL0     C25859   3.487   4.142   4.934  0.8867  0.8138  0.2667
  933MOL0     C25860   3.382   4.260   4.934 -0.1973 -0.1868  0.5648
  933MOL0     C25861   3.384   4.343   5.060 -0.4494  0.2221 -1.3702
  933MOL0     C25862   3.524   4.403   5.090  0.1416  0.1904  0.4494
  933MOL0     C25863   3.540   4.450   5.230 -0.1063  0.8945 -0.2627
  933MOL0     C25864   3.689   4.470   5.270 -0.0307 -0.2579 -0.5141
  933MOL0    Cl25865   3.772   4.595   5.172 -0.4561  0.4343 -0.2876
  933MOL0     C25866   3.812   3.869   4.654 -0.0853 -0.0192  0.3460
  933MOL0     C25867   3.939   3.822   4.628 -0.8392  0.2247  0.2825
  933MOL0     O25868   4.070   3.484   4.604  0.5732  0.2907 -0.3369
  933MOL0     C25869   4.417   3.611   4.636  0.2963 -0.0645 -0.8744
  933MOL0     C25870   4.549   3.580   4.605 -0.1214  0.6627  0.2395
  933MOL0     N25871   5.201   3.624   4.440 -0.3396 -0.5595  0.3877
  933MOL0     N25872   5.326   3.650   4.405  0.0058 -0.4283  0.0609
  933MOL0     C25873   6.331   3.668   4.918  0.3616  0.1043 -0.4108
  933MOL0     C25874   6.469   3.628   4.897  0.8577 -0.5170 -0.2539
  933MOL0     C25875   6.917   3.643   4.812 -0.8396 -0.3554  0.2903
  933MOL0     C25876   6.997   3.643   4.692  0.8296 -0.6575 -0.4936
  933MOL0     C25877   7.134   3.607   4.692 -0.6862 -0.4097 -0.0464
  933MOL0     C25878   7.202   3.559   4.810  0.1747  0.9567  0.5925
  933MOL0     O25879   7.329   3.520   4.802  0.0691 -0.3106 -0.0980
  933MOL0     C25880   7.381   3.422   4.896  0.6025  0.1489 -0.3678
  933MOL0     C25881   7.480   3.347   4.810  0.0408  0.6380 -0.2659
  933MOL0     C25882   7.601   3.436   4.767  0.8791  0.1456 -0.0219
  933MOL0     C25883   7.716   3.344   4.718 -0.2097  0.5324 -0.4123
  933MOL0     C25884   7.798   3.285   4.828 -0.4678 -0.9077  0.0613
  933MOL0     C25885   7.887   3.258   4.907  0.2660  0.1323  0.2777
  933MOL0     C25886   7.124   3.554   4.926 -0.4177 -0.5733  0.2863
  933MOL0     C25887   6.985   3.589   4.924  0.0256 -0.5726  0.1954
  933MOL0     H25888   6.615   3.848   5.111  0.0539 -2.1864  1.5576
  933MOL0     H25889   6.371   3.885   5.172  0.4991  0.9488  0.0104
  933MOL0     H25890   6.103   3.605   5.000  0.4955  1.1108 -2.3130
  933MOL0     H25891   6.101   3.631   5.180  0.5364  0.4533 -0.2760
  933MOL0     H25892   5.869   3.614   5.112 -0.3938 -0.5162 -0.5298
  933MOL0     H25893   5.904   3.777   5.163  4.8176 -0.2282  2.0444
  933MOL0     H25894   5.799   3.820   4.954 -1.3647 -0.9574 -0.3086
  933MOL0     H25895   5.969   3.809   4.905 -0.4998 -2.2261 -3.6958
  933MOL0     H25896   5.918   3.561   4.849 -2.3296 -2.4614 -0.0013
  933MOL0     H25897   5.764   3.576   4.913  1.6109 -0.1977  0.7247
  933MOL0     H25898   5.744   3.772   4.716  5.4215  2.8027  0.1838
  933MOL0     H25899   5.882   3.674   4.656 -0.2744 -0.3072 -0.8349
  933MOL0     H25900   5.754   3.494   4.590 -1.2191 -0.7763 -0.0731
  933MOL0     H25901   5.614   3.544   4.693  1.0121 -1.8391  0.5536
  933MOL0     H25902   5.600   3.741   4.528 -0.9127 -0.3977 -1.4812
  933MOL0     H25903   5.740   3.661   4.450  1.0667  0.6877  2.4047
  933MOL0     H25904   5.597   3.467   4.405  1.2325 -0.1532 -2.6006
  933MOL0     H25905   5.552   3.612   4.309  0.0149 -0.0222  0.6924
  933MOL0     H25906   5.369   3.363   4.539 -3.0203 -1.5140 -0.3731
  933MOL0     H25907   5.134   3.359   4.628  1.5921  2.2211  2.6554
  933MOL0     H25908   5.026   3.494   4.624 -1.2573  0.6933 -0.9258
  933MOL0     H25909   5.066   3.289   4.405  1.3274  0.9013  0.3421
  933MOL0     H25910   4.961   3.422   4.383  2.9730  0.1182 -0.7365
  933MOL0     H25911   4.948   3.208   4.604 -0.0206 -1.1792  0.3851
  933MOL0     H25912   4.849   3.216   4.462 -0.1159 -0.3455  0.3570
  933MOL0     H25913   4.847   3.413   4.696  1.1537 -1.0932  0.0819
  933MOL0     H25914   4.722   3.296   4.680 -0.4885 -1.4083 -1.7838
  933MOL0     H25915   4.500   3.288   4.448 -1.3871  0.4096 -2.0718
  933MOL0     H25916   4.182   3.264   4.570 -1.1239 -0.1942 -1.9187
  933MOL0     H25917   4.189   3.351   4.411  1.6635  2.6020 -0.1717
  933MOL0     H25918   4.283   3.207   4.441 -0.8439  0.9918 -2.5883
  933MOL0     H25919   3.983   3.621   4.890  0.7295 -2.5620 -2.3846
  933MOL0     H25920   3.760   3.718   4.961  1.9916  0.0814  2.0276
  933MOL0     H25921   3.622   4.064   4.712  1.1782 -1.1923 -1.0297
  933MOL0     H25922   3.517   3.946   4.643 -2.4935  0.6713  1.4592
  933MOL0     H25923   3.373   4.107   4.752 -4.6561 -3.0381  1.1695
  933MOL0     H25924   3.379   3.974   4.857 -1.7224  0.4556 -0.9431
  933MOL0     H25925   3.585   4.186   4.910  1.1176 -0.5773 -1.6212
  933MOL0     H25926   3.490   4.084   5.026 -1.0525 -0.9747 -0.7057
  933MOL0     H25927   3.401   4.328   4.851  3.6378 -0.1033  1.3085
  933MOL0     H25928   3.283   4.214   4.925  0.9576 -2.7850  0.1050
  933MOL0     H25929   3.350   4.286   5.147 -0.8038  2.0634 -0.2311
  933MOL0     H25930   3.310   4.423   5.044  2.0043  2.9794  0.1863
  933MOL0     H25931   3.608   4.333   5.076 -0.2379 -0.3388  0.7727
  933MOL0     H25932   3.540   4.488   5.023 -0.7201  1.4434  1.7722
  933MOL0     H25933   3.514   4.361   5.289 -0.6478 -0.2704 -2.1644
  933MOL0     H25934   3.478   4.539   5.246 -0.1655  1.2147 -2.0771
  933MOL0     H25935   3.746   4.377   5.263  2.4728  0.8766  2.4261
  933MOL0     H25936   3.692   4.487   5.378 -1.2321 -0.7238 -0.3845
  933MOL0     H25937   3.771   3.948   4.591  1.0477 -0.4929 -1.0011
  933MOL0     H25938   3.982   3.840   4.530 -0.9063 -0.3797  0.1388
  933MOL0     H25939   4.412   3.708   4.685  0.3807 -0.7359  0.5222
  933MOL0     H25940   4.632   3.646   4.627  1.7133 -1.9044  1.4831
  933MOL0     H25941   6.265   3.598   4.867 -0.2332  1.6679 -1.8497
  933MOL0     H25942   6.489   3.564   4.811 -1.1094 -0.2564 -0.9493
  933MOL0     H25943   6.936   3.659   4.603 -1.7637  0.5677  1.3494
  933MOL0     H25944   7.193   3.603   4.601  0.4230 -1.3964  0.6886
  933MOL0     H25945   7.431   3.474   4.978  0.8382 -0.9953  0.2261
  933MOL0     H25946   7.302   3.359   4.938  0.3421  0.5837 -0.1990
  933MOL0     H25947   7.432   3.303   4.723  0.6121 -1.0706  0.2496
  933MOL0     H25948   7.513   3.268   4.878  1.1072  0.9884 -0.3512
  933MOL0     H25949   7.635   3.488   4.857  0.9982  1.1615 -0.6334
  933MOL0     H25950   7.562   3.501   4.688  1.2099  2.6699  1.7604
  933MOL0     H25951   7.782   3.409   4.660  2.9755 -1.5195  0.7002
  933MOL0     H25952   7.668   3.258   4.669 -0.6057 -0.0623  0.9625
  933MOL0     H25953   7.971   3.241   4.972  1.5009  1.9933 -0.7420
  933MOL0     H25954   7.159   3.512   5.020 -0.0479 -0.4296  0.2120
  933MOL0     H25955   6.933   3.588   5.020  1.0203  0.4571  0.7766
  934MOL0     O25956  11.061   2.350   4.593 -0.1688  0.5186  0.0297
  934MOL0     C25957  11.155   2.294   4.650 -0.4652 -0.2543  0.1605
  934MOL0     O25958  11.154   2.234   4.770 -0.0511 -0.8761  0.4369
  934MOL0     C25959  11.033   2.214   4.823  0.1936  0.2793  0.3271
  934MOL0     C25960  10.962   2.297   4.894  0.1769 -0.3163  0.5287
  934MOL0     C25961  10.841   2.255   4.956 -0.9334 -0.9146  0.4612
  934MOL0     C25962  10.792   2.127   4.937  0.4483  0.1713 -0.2840
  934MOL0     O25963  10.673   2.078   4.980 -0.2514  0.1582 -0.6453
  934MOL0     C25964  10.580   2.154   5.049  0.1310 -0.0529 -0.5750
  934MOL0     C25965  10.477   2.061   5.089 -0.1117 -0.4054 -0.2659
  934MOL0     C25966  10.342   2.128   5.113 -0.5325 -0.5978  0.1899
  934MOL0     C25967  10.229   2.033   5.131  0.4732  0.1798 -0.3680
  934MOL0     C25968  10.086   2.089   5.167 -0.5025  0.3294  0.4713
  934MOL0     C25969  10.011   1.996   5.271 -0.3439 -0.4340  0.4137
  934MOL0     C25970   9.993   1.853   5.219 -0.5943 -0.6677  0.4810
  934MOL0     C25971   9.899   1.829   5.092 -0.1140 -0.1076 -0.0317
  934MOL0     N25972   9.753   1.838   5.128 -0.0356 -0.1423  0.3602
  934MOL0     C25973   9.683   1.918   5.215 -1.0641 -0.2583  0.3687
  934MOL0     C25974   9.556   1.904   5.175  0.0349  0.5449  0.2239
  934MOL0     C25975   9.441   1.967   5.253 -0.5173  0.4843 -0.4236
  934MOL0     C25976   9.304   1.949   5.180 -0.6823 -0.2043 -0.6765
  934MOL0     C25977   9.184   1.959   5.268  0.3370  0.0145  0.0501
  934MOL0     C25978   9.055   1.986   5.192 -0.6088  0.4034 -0.4913
  934MOL0     O25979   9.028   1.890   5.093  0.1303  0.6480  0.3044
  934MOL0     C25980   8.901   1.856   5.056  0.1527 -0.3626 -0.1742
  934MOL0     C25981   8.787   1.939   5.074 -0.3453 -0.5339 -0.2198
  934MOL0     C25982   8.663   1.901   5.035  0.3187 -0.0618 -0.3454
  934MOL0     C25983   8.550   1.989   5.086  0.1943  0.6494 -0.0574
  934MOL0     C25984   8.651   1.780   4.959  0.0471 -0.2237 -0.8643
  934MOL0     C25985   8.517   1.733   4.911 -0.2836  0.6466  1.1889
  934MOL0     O25986   8.523   1.615   4.837  0.1966 -0.0847 -0.0680
  934MOL0     C25987   8.403   1.549   4.805  0.3040 -0.7874  0.4187
  934MOL0     C25988   8.359   1.565   4.675  0.1408 -0.0686  0.1755
  934MOL0     C25989   8.229   1.528   4.635 -0.5693 -0.5828  0.7924
  934MOL0     C25990   8.150   1.459   4.719  1.0112  0.5654 -0.0826
  934MOL0     O25991   8.027   1.422   4.672 -0.2016  0.2626  0.4933
  934MOL0     C25992   7.967   1.318   4.743  0.8969 -0.1425  0.8100
  934MOL0     C25993   7.865   1.279   4.641 -0.1545  0.2940 -0.8723
  934MOL0     C25994   7.763   1.393   4.627  0.0104 -0.0581  0.2916
  934MOL0     C25995   7.661   1.351   4.517 -0.0074  0.7911  0.6995
  934MOL0     C25996   7.533   1.431   4.513 -0.2016  0.4301 -0.2602
  934MOL0     C25997   7.442   1.389   4.406  0.1665 -0.3972 -0.7006
  934MOL0     C25998   7.311   1.462   4.410  0.0284 -0.6764 -0.0312
  934MOL0     C25999   7.207   1.398   4.508 -0.0988  1.0223 -0.2785
  934MOL0    Cl26000   7.035   1.435   4.462  0.3511  0.1250 -0.2891
  934MOL0     C26001   8.199   1.433   4.850 -0.2807  0.6246 -0.2229
  934MOL0     C26002   8.318   1.484   4.895 -1.3950  0.3416 -0.7440
  934MOL0     O26003   8.419   1.802   4.918 -0.4562  0.6391  0.9401
  934MOL0     C26004   8.765   1.702   4.941 -0.2027 -0.2506  0.5311
  934MOL0     C26005   8.891   1.731   4.988 -0.1765  0.0152  0.3899
  934MOL0     N26006   9.555   1.814   5.072 -0.3514 -0.8800 -0.2474
  934MOL0     N26007   9.669   1.774   5.046 -0.3103  1.0603  0.0852
  934MOL0     C26008  10.860   2.041   4.851  0.0421 -0.1857  0.1016
  934MOL0     C26009  10.976   2.085   4.793 -0.3693 -0.5633  0.1026
  934MOL0     C26010  11.297   2.298   4.593 -0.3219  0.4536 -0.5051
  934MOL0     C26011  11.387   2.201   4.634  0.1984 -0.1310  0.4566
  934MOL0     C26012  11.510   2.173   4.566 -0.0814  0.4417 -0.1406
  934MOL0     C26013  11.550   2.251   4.462 -0.4127 -0.5861  0.5926
  934MOL0     O26014  11.671   2.233   4.400 -0.5444 -0.5452  0.5365
  934MOL0     C26015  11.695   2.142   4.293 -0.4684  0.3940 -0.0401
  934MOL0     C26016  11.699   1.992   4.340 -0.4093 -0.9839 -0.1734
  934MOL0     C26017  11.825   1.959   4.420  0.5537 -1.1400  1.1762
  934MOL0     C26018  11.820   1.809   4.461 -0.9844 -0.4697  1.2471
  934MOL0     C26019  11.833   1.712   4.347  0.3975  0.6695 -0.7997
  934MOL0     C26020  11.847   1.648   4.247 -0.1217  0.7970  0.3721
  934MOL0     C26021  11.475   2.362   4.428  0.6176 -0.0053  0.5531
  934MOL0     C26022  11.343   2.382   4.486 -0.5674 -0.5410  0.1903
  934MOL0     H26023  11.001   2.395   4.921 -1.3467  0.2342  0.8059
  934MOL0     H26024  10.793   2.325   5.023 -2.2881  0.1712 -1.5305
  934MOL0     H26025  10.621   2.212   5.132 -0.2159 -0.8898  0.1960
  934MOL0     H26026  10.532   2.232   4.989 -0.2418  0.6637  0.6370
  934MOL0     H26027  10.464   1.978   5.019  1.8441  0.8004 -2.1779
  934MOL0     H26028  10.516   2.018   5.182  0.5816  0.7904  0.0203
  934MOL0     H26029  10.334   2.197   5.197  2.5935 -1.3475  1.2196
  934MOL0     H26030  10.311   2.189   5.028  1.2992  2.9421  1.8716
  934MOL0     H26031  10.204   1.973   5.043 -0.5438 -1.1996  0.8190
  934MOL0     H26032  10.249   1.958   5.208 -0.6962  1.0767  0.8607
  934MOL0     H26033  10.089   2.196   5.192  2.4000  1.1034 -2.4556
  934MOL0     H26034  10.026   2.099   5.076 -0.2319 -3.1643 -0.2282
  934MOL0     H26035  10.068   1.998   5.364 -0.7565 -2.2859  0.7472
  934MOL0     H26036   9.913   2.036   5.299 -1.6197 -1.4186 -2.2394
  934MOL0     H26037  10.090   1.806   5.202  0.1510  0.2695  1.8969
  934MOL0     H26038   9.956   1.797   5.305 -2.0093  2.7007  2.2616
  934MOL0     H26039   9.921   1.735   5.041 -1.3157 -1.2023  1.3763
  934MOL0     H26040   9.928   1.907   5.022  0.9048 -0.5418 -0.1150
  934MOL0     H26041   9.719   1.974   5.300  2.1179 -0.4481 -0.6799
  934MOL0     H26042   9.433   1.923   5.352 -1.2211 -1.9625 -1.5035
  934MOL0     H26043   9.470   2.073   5.254  0.9181  0.2121 -3.2260
  934MOL0     H26044   9.293   1.858   5.119  1.3191  0.0488 -1.4774
  934MOL0     H26045   9.300   2.036   5.114  1.6923  0.4020 -0.1090
  934MOL0     H26046   9.191   2.043   5.338 -2.7044 -2.8985  4.2752
  934MOL0     H26047   9.187   1.869   5.329 -0.2409  0.2600  0.4439
  934MOL0     H26048   9.044   2.087   5.151  0.7234  1.7172  2.1031
  934MOL0     H26049   8.973   1.995   5.265 -0.6401  1.8487 -0.6662
  934MOL0     H26050   8.789   2.034   5.126 -1.6754 -0.6348  0.0543
  934MOL0     H26051   8.474   1.934   5.142 -0.0629  0.6916 -0.3627
  934MOL0     H26052   8.573   2.075   5.149 -3.0960  1.0287  0.8253
  934MOL0     H26053   8.490   2.027   5.004  0.6272  1.7916  0.1328
  934MOL0     H26054   8.425   1.623   4.612  0.0316 -2.2675 -2.0939
  934MOL0     H26055   8.214   1.548   4.529 -0.7229 -1.8687  0.5637
  934MOL0     H26056   8.034   1.233   4.758  0.5432 -0.8938 -1.4902
  934MOL0     H26057   7.915   1.347   4.835  0.8030  0.4186  0.5818
  934MOL0     H26058   7.907   1.262   4.542 -0.6452  0.3762 -1.0985
  934MOL0     H26059   7.819   1.187   4.679 -1.7783  1.5240  0.2565
  934MOL0     H26060   7.803   1.483   4.578  0.3578  0.1821  0.9971
  934MOL0     H26061   7.714   1.426   4.719 -0.2606  2.1031 -0.5536
  934MOL0     H26062   7.700   1.349   4.415 -0.7094  0.9561  0.4203
  934MOL0     H26063   7.634   1.246   4.535  0.8034  0.4858  0.2231
  934MOL0     H26064   7.554   1.536   4.495 -2.7212  0.7156 -2.0493
  934MOL0     H26065   7.496   1.410   4.614  0.1119  2.4020  0.3000
  934MOL0     H26066   7.490   1.413   4.311  2.6731  1.3725  0.9039
  934MOL0     H26067   7.435   1.281   4.417 -1.3034 -0.1011  2.0261
  934MOL0     H26068   7.271   1.445   4.310 -0.8868 -2.9445  0.6384
  934MOL0     H26069   7.325   1.569   4.426 -0.9009 -0.5078 -0.2829
  934MOL0     H26070   7.236   1.426   4.610  2.3835 -0.1899 -0.5668
  934MOL0     H26071   7.222   1.290   4.496  0.7060  1.3569 -3.2593
  934MOL0     H26072   8.127   1.397   4.923  0.1266  1.3586  0.5498
  934MOL0     H26073   8.338   1.475   5.001  0.0772 -1.6864 -1.1377
  934MOL0     H26074   8.759   1.611   4.883  0.1617 -0.5618  0.9718
  934MOL0     H26075   8.978   1.673   4.960  0.0244  0.9091 -0.9541
  934MOL0     H26076  10.817   1.942   4.838 -3.3087  1.1923 -0.3477
  934MOL0     H26077  11.043   2.019   4.740  1.0484 -1.0180  2.3288
  934MOL0     H26078  11.374   2.139   4.723  1.8061  0.4844  1.1542
  934MOL0     H26079  11.572   2.086   4.587 -2.0663 -1.4463 -1.6658
  934MOL0     H26080  11.610   2.158   4.227 -0.4466 -0.1149 -0.2020
  934MOL0     H26081  11.789   2.168   4.243 -1.1321  0.8491 -1.0868
  934MOL0     H26082  11.704   1.923   4.255 -2.9175 -1.6886  0.1768
  934MOL0     H26083  11.603   1.979   4.390 -0.9939 -1.2251 -1.3391
  934MOL0     H26084  11.832   2.033   4.500  0.9497  3.1008 -2.3574
  934MOL0     H26085  11.906   1.974   4.348 -0.1789  0.7241  0.6837
  934MOL0     H26086  11.724   1.791   4.511 -1.5702 -0.4100  0.1729
  934MOL0     H26087  11.904   1.802   4.531  0.3226  0.0726 -0.2035
  934MOL0     H26088  11.870   1.598   4.155 -0.2931  2.7314 -0.7697
  934MOL0     H26089  11.511   2.439   4.361 -2.4255  1.4638  0.4458
  934MOL0     H26090  11.275   2.459   4.451  1.9789  2.2200  0.9356
  935MOL0     O26091   9.937   0.116   6.577  0.2444 -0.0357  0.4000
  935MOL0     C26092   9.996   0.055   6.667 -0.3923 -0.5110 -0.1263
  935MOL0     O26093   9.940   0.007   6.783  0.3199 -0.1736  0.4918
  935MOL0     C26094   9.808   0.031   6.799  0.4448 -0.2409  1.5259
  935MOL0     C26095   9.767   0.132   6.881 -0.0857 -0.8940  1.1926
  935MOL0     C26096   9.633   0.142   6.915  0.1978 -0.0079  0.2426
  935MOL0     C26097   9.536   0.058   6.857 -0.3710 -0.4955  0.1582
  935MOL0     O26098   9.405   0.069   6.885  0.7822 -0.4089  0.3272
  935MOL0     C26099   9.363   0.125   7.017  0.2249  0.0491  1.3845
  935MOL0     C26100   9.237   0.040   7.053 -0.2238 -0.7913 -0.6981
  935MOL0     C26101   9.170   0.099   7.174  0.1097  0.3125  0.6422
  935MOL0     C26102   9.051   0.008   7.214  0.2284  0.8391  0.6393
  935MOL0     C26103   8.977   0.056   7.335 -0.2123 -0.3231 -0.1825
  935MOL0     C26104   8.863  -0.039   7.393  0.1366 -0.0560 -0.3589
  935MOL0     C26105   8.762   0.035   7.481 -0.2913 -0.2555 -0.9037
  935MOL0     C26106   8.612   0.032   7.442  0.0682 -0.4373  0.9863
  935MOL0     N26107   8.571  -0.083   7.362 -0.2597  0.0471  0.1360
  935MOL0     C26108   8.515  -0.069   7.231  0.3620 -0.5896 -0.2134
  935MOL0     C26109   8.484  -0.196   7.191  0.3588  0.0875 -0.2484
  935MOL0     C26110   8.427  -0.245   7.067 -0.5412  0.3940 -1.0104
  935MOL0     C26111   8.279  -0.214   7.063 -0.2119 -0.0835 -0.0924
  935MOL0     C26112   8.193  -0.340   7.070  0.0028  0.7544 -0.0301
  935MOL0     C26113   8.038  -0.318   7.050  0.6569  0.0308 -0.4472
  935MOL0     O26114   7.967  -0.425   7.107  0.6181  0.5008  0.3183
  935MOL0     C26115   7.850  -0.404   7.167  0.6255  0.3393 -0.0097
  935MOL0     C26116   7.793  -0.512   7.232  0.2664  0.4340  0.8063
  935MOL0     C26117   7.672  -0.490   7.303  0.5604  0.2247 -0.7497
  935MOL0     C26118   7.631  -0.612   7.379 -0.2395  0.6245 -0.3376
  935MOL0     C26119   7.596  -0.371   7.294 -0.2054  1.0408 -0.2983
  935MOL0     C26120   7.474  -0.332   7.365  0.3066  0.7943  0.1599
  935MOL0     O26121   7.417  -0.215   7.337  0.0676  0.0122 -0.1011
  935MOL0     C26122   7.301  -0.184   7.403  0.6233 -0.2073 -0.1479
  935MOL0     C26123   7.171  -0.219   7.356 -0.7846  0.1064 -0.1893
  935MOL0     C26124   7.058  -0.182   7.425  0.4516  0.2295  0.2718
  935MOL0     C26125   7.061  -0.078   7.517  0.2842 -0.0543 -0.9762
  935MOL0     O26126   6.953  -0.002   7.554  0.0156  0.4911  0.2525
  935MOL0     C26127   6.840  -0.081   7.591 -0.7279 -0.1536  0.4252
  935MOL0     C26128   6.720   0.013   7.600 -0.1152 -0.3732  0.2490
  935MOL0     C26129   6.586  -0.066   7.632  0.4075  0.7510 -0.1098
  935MOL0     C26130   6.534  -0.014   7.774  0.8531  0.0462 -0.7057
  935MOL0     C26131   6.403  -0.086   7.806  0.5539  0.1797 -0.2612
  935MOL0     C26132   6.340  -0.070   7.946 -0.2049 -1.1902 -0.4074
  935MOL0     C26133   6.188  -0.100   7.947  1.1394 -0.6760 -0.3189
  935MOL0     C26134   6.158  -0.245   7.905 -0.2971  0.5197  0.0168
  935MOL0    Cl26135   5.983  -0.275   7.926 -0.0135  0.0898 -0.2813
  935MOL0     C26136   7.189  -0.040   7.566 -0.0437  0.1880 -0.1007
  935MOL0     C26137   7.305  -0.093   7.512 -1.1747 -0.0230 -0.6324
  935MOL0     O26138   7.451  -0.395   7.464 -0.3595  0.6927 -0.4526
  935MOL0     C26139   7.660  -0.271   7.209  0.1604  0.2684 -0.6475
  935MOL0     C26140   7.778  -0.290   7.151 -0.1616  0.4028  0.1280
  935MOL0     N26141   8.518  -0.279   7.300  0.1796 -0.9678 -0.3943
  935MOL0     N26142   8.560  -0.208   7.393  0.1957  0.0242  0.1359
  935MOL0     C26143   9.575  -0.037   6.772 -0.0196 -0.2959  0.2986
  935MOL0     C26144   9.708  -0.051   6.733 -0.0294 -0.1988  0.6549
  935MOL0     C26145  10.143   0.064   6.676 -0.5063  0.3955 -0.0033
  935MOL0     C26146  10.215  -0.020   6.761 -0.8446 -0.2337 -0.3946
  935MOL0     C26147  10.354   0.006   6.770 -0.3183 -0.4116 -0.0425
  935MOL0     C26148  10.418   0.108   6.691 -0.7240  1.0898  0.3927
  935MOL0     O26149  10.553   0.141   6.679  0.2441  0.0290 -0.6281
  935MOL0     C26150  10.650   0.105   6.777  0.3387  0.4852 -0.3643
  935MOL0     C26151  10.764   0.209   6.764 -0.1675  0.9906  0.4315
  935MOL0     C26152  10.732   0.355   6.795 -0.9910 -0.6731 -0.8336
  935MOL0     C26153  10.840   0.451   6.732 -0.0142  0.4008  0.7498
  935MOL0     C26154  10.966   0.440   6.809 -0.3347  0.4225  0.3542
  935MOL0     C26155  11.065   0.416   6.878  0.2100 -0.2684 -0.4139
  935MOL0     C26156  10.345   0.180   6.597  0.5138  0.3038  0.0847
  935MOL0     C26157  10.206   0.166   6.596  0.1075 -0.4270  0.5929
  935MOL0     H26158   9.845   0.196   6.920  0.3883  0.7264 -2.0499
  935MOL0     H26159   9.616   0.219   6.990  0.1114 -0.2521  0.4774
  935MOL0     H26160   9.445   0.115   7.088  1.9826 -0.6231 -0.6341
  935MOL0     H26161   9.339   0.231   7.002  0.8475  0.0904  0.5809
  935MOL0     H26162   9.169   0.028   6.969 -3.4082 -1.7912  1.7920
  935MOL0     H26163   9.267  -0.063   7.076 -0.2216 -0.3667  1.4179
  935MOL0     H26164   9.243   0.115   7.254  1.5913  1.4482 -0.8647
  935MOL0     H26165   9.143   0.203   7.153 -1.9451 -0.4660 -0.8576
  935MOL0     H26166   8.973  -0.000   7.138  0.3695 -1.2893  0.6616
  935MOL0     H26167   9.094  -0.091   7.232  2.4680  0.7803 -3.8130
  935MOL0     H26168   9.045   0.078   7.418  1.3494  0.8424 -1.6939
  935MOL0     H26169   8.944   0.156   7.304  1.8939 -0.2547 -2.5190
  935MOL0     H26170   8.806  -0.081   7.309  1.1278 -1.1653 -0.4991
  935MOL0     H26171   8.908  -0.124   7.445 -1.0204  1.2187  2.9695
  935MOL0     H26172   8.763  -0.010   7.581  2.7449 -1.4269 -1.3570
  935MOL0     H26173   8.794   0.140   7.486 -0.7982 -0.0812 -1.2956
  935MOL0     H26174   8.583   0.123   7.389 -1.9279 -0.5983  1.7367
  935MOL0     H26175   8.550   0.026   7.532  0.3926 -1.5595  1.1503
  935MOL0     H26176   8.515   0.017   7.165  4.5641 -1.0384 -1.1121
  935MOL0     H26177   8.479  -0.193   6.986  0.6908  1.4628  0.4267
  935MOL0     H26178   8.439  -0.354   7.062  0.4216  0.4334  0.0168
  935MOL0     H26179   8.256  -0.165   6.968 -1.9365 -0.1666  0.2376
  935MOL0     H26180   8.243  -0.144   7.139 -0.2768  1.6539 -1.6631
  935MOL0     H26181   8.201  -0.395   7.164  1.0172 -2.2379 -1.7272
  935MOL0     H26182   8.227  -0.397   6.983 -1.6037  0.9819 -0.8426
  935MOL0     H26183   8.015  -0.297   6.946 -1.4982  0.5315  0.0727
  935MOL0     H26184   8.011  -0.222   7.096 -1.8278 -0.5825 -0.5008
  935MOL0     H26185   7.842  -0.608   7.219 -1.4124 -0.3852  0.2004
  935MOL0     H26186   7.533  -0.650   7.350  0.1239 -1.3812  0.8239
  935MOL0     H26187   7.704  -0.688   7.349 -1.5562  0.9014 -4.8756
  935MOL0     H26188   7.653  -0.597   7.486 -0.9599  0.2957 -0.1379
  935MOL0     H26189   7.151  -0.293   7.280 -2.2209  0.4832 -0.2033
  935MOL0     H26190   6.961  -0.218   7.392 -1.5270  3.4295  2.1087
  935MOL0     H26191   6.808  -0.151   7.513  2.0483 -3.0843  1.6940
  935MOL0     H26192   6.860  -0.135   7.685 -0.1189 -0.8133 -0.0740
  935MOL0     H26193   6.738   0.088   7.677 -0.1877  1.1559 -1.1759
  935MOL0     H26194   6.714   0.073   7.509  0.6584  0.7641  0.9252
  935MOL0     H26195   6.592  -0.175   7.626 -1.3783  0.6546 -0.7539
  935MOL0     H26196   6.511  -0.052   7.554  0.1619 -0.8454 -0.1901
  935MOL0     H26197   6.610  -0.027   7.851 -2.4405  1.9728  3.2374
  935MOL0     H26198   6.509   0.091   7.761 -2.3011 -0.8551 -3.4173
  935MOL0     H26199   6.431  -0.190   7.789 -0.8164  0.0440 -1.9529
  935MOL0     H26200   6.329  -0.061   7.728  0.6163 -0.1361 -0.4218
  935MOL0     H26201   6.387  -0.130   8.024 -1.5787  1.1314  2.3894
  935MOL0     H26202   6.349   0.030   7.989 -0.4997 -0.1721 -2.5922
  935MOL0     H26203   6.137  -0.041   7.870 -0.8692  0.0931  1.5099
  935MOL0     H26204   6.145  -0.078   8.045 -1.2395 -3.2259 -0.6683
  935MOL0     H26205   6.214  -0.310   7.974 -0.3684  1.3774  0.9057
  935MOL0     H26206   6.185  -0.266   7.801  0.3188  0.7401  0.1240
  935MOL0     H26207   7.202   0.039   7.639  3.6130 -0.8543  0.5993
  935MOL0     H26208   7.401  -0.082   7.560 -0.8636 -2.2741 -0.6416
  935MOL0     H26209   7.608  -0.179   7.184  0.3853  0.5149 -0.2303
  935MOL0     H26210   7.813  -0.211   7.084  3.1870 -0.7008  0.4344
  935MOL0     H26211   9.497  -0.100   6.729 -0.8230  1.8069 -1.5167
  935MOL0     H26212   9.743  -0.117   6.654  1.4512 -0.8464  1.7916
  935MOL0     H26213  10.165  -0.099   6.816  2.0214 -0.7379  1.6859
  935MOL0     H26214  10.415  -0.063   6.828 -0.0449 -0.3371 -0.2445
  935MOL0     H26215  10.609   0.106   6.878  0.9126 -0.5600 -0.1099
  935MOL0     H26216  10.693   0.005   6.764  3.1412  1.6325 -0.6618
  935MOL0     H26217  10.781   0.198   6.656 -1.0076 -2.9688  0.5571
  935MOL0     H26218  10.855   0.188   6.821  1.1292  0.0118 -1.8552
  935MOL0     H26219  10.720   0.373   6.903 -4.5264  3.3689 -1.6025
  935MOL0     H26220  10.634   0.379   6.753 -1.6390 -1.1563  0.3563
  935MOL0     H26221  10.803   0.552   6.749 -3.0570 -0.6801  1.1789
  935MOL0     H26222  10.855   0.424   6.627 -0.3883 -2.9393  1.4405
  935MOL0     H26223  11.163   0.397   6.918 -0.2487 -1.0002  0.3973
  935MOL0     H26224  10.397   0.256   6.540  1.0421  1.7778  2.3947
  935MOL0     H26225  10.149   0.227   6.527  0.3165  0.1227  0.9080
  936MOL0     O26226   2.422   8.849   5.645  0.2116  0.0127 -0.3345
  936MOL0     C26227   2.484   8.777   5.724 -0.3838  0.7580 -0.6292
  936MOL0     O26228   2.434   8.683   5.807 -1.2176 -0.5636 -0.5987
  936MOL0     C26229   2.303   8.680   5.854 -0.4258  0.2513 -0.8575
  936MOL0     C26230   2.195   8.764   5.818  0.2195  0.0692  0.8037
  936MOL0     C26231   2.075   8.752   5.884  0.7743 -0.1730 -0.8768
  936MOL0     C26232   2.045   8.641   5.976  0.5414 -0.8238  0.4862
  936MOL0     O26233   1.917   8.617   6.028  1.0303 -0.0291 -0.2110
  936MOL0     C26234   1.822   8.728   6.019  0.0605  0.3712 -0.6539
  936MOL0     C26235   1.696   8.700   6.102  0.0906 -0.8955  0.6507
  936MOL0     C26236   1.605   8.818   6.088  0.2275  0.4778 -0.3588
  936MOL0     C26237   1.483   8.816   6.178 -0.5130 -0.0117 -0.0986
  936MOL0     C26238   1.366   8.728   6.134 -0.1304 -0.1251 -0.1658
  936MOL0     C26239   1.312   8.748   5.994  0.6230  0.1263 -0.8619
  936MOL0     C26240   1.189   8.662   5.946  0.6950 -0.1498  0.5828
  936MOL0     C26241   1.210   8.505   5.965  0.3541 -0.1605  0.2307
  936MOL0     N26242   1.116   8.429   5.883  0.7146  0.1101  0.2114
  936MOL0     C26243   1.131   8.391   5.758 -0.0560  1.1225  0.5215
  936MOL0     C26244   1.023   8.321   5.722  0.1359  0.4636 -0.4825
  936MOL0     C26245   0.995   8.259   5.592 -0.0361  0.7407  0.2756
  936MOL0     C26246   1.112   8.245   5.503 -0.2875 -0.0883 -0.0626
  936MOL0     C26247   1.068   8.201   5.363  0.1228 -0.1523 -0.1355
  936MOL0     C26248   0.976   8.077   5.361 -0.4763  1.4663  0.5465
  936MOL0     O26249   0.841   8.109   5.372  0.1946 -0.9450  0.7566
  936MOL0     C26250   0.756   8.005   5.378  0.4822  0.6045 -0.3014
  936MOL0     C26251   0.622   8.035   5.397 -0.4124  1.0854 -0.1901
  936MOL0     C26252   0.519   7.942   5.387  0.7841  0.1651 -0.6234
  936MOL0     C26253   0.387   8.008   5.398 -0.3209 -0.6623  0.1084
  936MOL0     C26254   0.544   7.804   5.365 -0.6696  1.0273  0.1449
  936MOL0     C26255   0.439   7.698   5.380  0.6658 -1.0044  0.3789
  936MOL0     O26256   0.325   7.733   5.319  0.0591  0.4389  0.3654
  936MOL0     C26257   0.212   7.652   5.322  0.8566  0.2900 -0.3821
  936MOL0     C26258   0.176   7.547   5.415  0.2542 -0.4742  0.5182
  936MOL0     C26259   0.051   7.492   5.435 -0.1838  0.0450  0.1276
  936MOL0     C26260  -0.054   7.535   5.345 -0.0780  0.5329 -0.9769
  936MOL0     O26261  -0.188   7.510   5.374 -0.4839  0.1687 -0.1333
  936MOL0     C26262  -0.212   7.382   5.441  0.2369 -0.1310 -0.3166
  936MOL0     C26263  -0.351   7.348   5.411  0.4627 -0.5406 -0.5610
  936MOL0     C26264  -0.444   7.422   5.512 -0.0479  1.0809  0.1884
  936MOL0     C26265  -0.586   7.397   5.465 -0.0991 -0.6860 -0.3065
  936MOL0     C26266  -0.697   7.479   5.540  0.5847 -0.2933  0.3690
  936MOL0     C26267  -0.830   7.448   5.487  0.1194  0.4110  0.7409
  936MOL0     C26268  -0.941   7.535   5.532  0.7315 -0.9585 -0.0321
  936MOL0     C26269  -1.081   7.496   5.485  0.5854  0.1761  0.8211
  936MOL0    Cl26270  -1.157   7.367   5.578  0.3175  0.1597 -0.2246
  936MOL0     C26271  -0.019   7.627   5.247 -0.4638  0.5903 -0.3157
  936MOL0     C26272   0.106   7.683   5.236 -0.0580 -0.1389  0.4591
  936MOL0     O26273   0.467   7.591   5.422  0.4461 -0.4108 -0.4788
  936MOL0     C26274   0.685   7.771   5.355  0.1919 -0.0210 -0.5194
  936MOL0     C26275   0.782   7.866   5.360 -0.2931  0.3234  0.6901
  936MOL0     N26276   0.945   8.309   5.828  0.4062  0.6312  0.3831
  936MOL0     N26277   0.995   8.375   5.922  0.2937  0.0971  0.1932
  936MOL0     C26278   2.154   8.559   6.006 -0.2926 -0.0146  1.1218
  936MOL0     C26279   2.278   8.576   5.948  0.6292  0.2552 -0.8600
  936MOL0     C26280   2.628   8.785   5.717 -0.1320  0.7243 -0.1346
  936MOL0     C26281   2.697   8.891   5.659  0.5705 -0.8095  0.6772
  936MOL0     C26282   2.837   8.898   5.652  0.4924 -0.0613  0.0556
  936MOL0     C26283   2.911   8.801   5.717 -0.0384  0.2419 -0.2676
  936MOL0     O26284   3.051   8.819   5.704 -0.5702  0.4627  0.3375
  936MOL0     C26285   3.138   8.712   5.750 -0.4908  0.6040 -0.5088
  936MOL0     C26286   3.288   8.745   5.743 -0.6243 -0.3095  0.4104
  936MOL0     C26287   3.330   8.814   5.869 -0.4803 -0.5693 -0.1647
  936MOL0     C26288   3.483   8.845   5.882  0.9511 -0.3063  0.0842
  936MOL0     C26289   3.552   8.722   5.939 -0.1269  1.4138  0.9655
  936MOL0     C26290   3.599   8.623   5.999  0.1667  0.6543  0.6320
  936MOL0     C26291   2.846   8.700   5.789 -0.4657 -0.1708  0.6022
  936MOL0     C26292   2.711   8.690   5.776  0.9710  0.1025 -0.2104
  936MOL0     H26293   2.207   8.828   5.731 -1.6556 -0.3196  0.2012
  936MOL0     H26294   1.998   8.824   5.859 -0.6243 -0.6587  1.6328
  936MOL0     H26295   1.860   8.823   6.057  1.0678  0.3758 -1.6274
  936MOL0     H26296   1.786   8.737   5.916  1.2822  2.4898 -0.9429
  936MOL0     H26297   1.643   8.612   6.065 -0.5725 -0.0381 -0.5370
  936MOL0     H26298   1.726   8.679   6.205  1.5399  0.0427  0.4554
  936MOL0     H26299   1.661   8.907   6.119 -0.3704  0.7586 -0.0531
  936MOL0     H26300   1.562   8.827   5.988 -3.4352 -2.0466  0.7767
  936MOL0     H26301   1.514   8.780   6.276  1.8390  0.0310 -0.7638
  936MOL0     H26302   1.453   8.920   6.189  0.7739  0.3743 -0.0868
  936MOL0     H26303   1.409   8.628   6.140  1.2099  0.4286 -0.0433
  936MOL0     H26304   1.282   8.742   6.203  1.1202  0.6002  1.2736
  936MOL0     H26305   1.278   8.852   5.998  0.2190 -0.0299 -0.1504
  936MOL0     H26306   1.399   8.735   5.928  0.8027  0.0657 -0.6140
  936MOL0     H26307   1.097   8.687   5.999 -0.9244 -0.9157 -1.7057
  936MOL0     H26308   1.171   8.695   5.843  0.5372 -0.8071  0.3923
  936MOL0     H26309   1.189   8.493   6.072 -0.6945 -0.0116  0.0484
  936MOL0     H26310   1.310   8.473   5.936  1.1654  2.6583 -0.3288
  936MOL0     H26311   1.216   8.414   5.694  1.0937 -1.3551  1.0721
  936MOL0     H26312   0.952   8.160   5.613 -1.9276  1.5540  0.3657
  936MOL0     H26313   0.916   8.316   5.543 -1.1091 -0.3417  0.6804
  936MOL0     H26314   1.172   8.162   5.542 -0.4699 -0.1310  0.1262
  936MOL0     H26315   1.172   8.337   5.493 -1.2348  0.5584  0.0732
  936MOL0     H26316   1.156   8.185   5.301  0.8760 -1.1501  1.1403
  936MOL0     H26317   1.009   8.278   5.313 -1.0475 -1.7179 -1.3168
  936MOL0     H26318   1.006   8.016   5.446 -1.6998  1.1004  0.7404
  936MOL0     H26319   0.989   8.024   5.266  2.0322  1.5718  0.7605
  936MOL0     H26320   0.606   8.139   5.424  0.3287  0.6981  1.9537
  936MOL0     H26321   0.343   7.989   5.299 -1.4633  0.9551  0.2657
  936MOL0     H26322   0.322   7.982   5.482  0.1243  0.5797  0.8650
  936MOL0     H26323   0.401   8.116   5.403 -0.7959 -0.6102  0.3430
  936MOL0     H26324   0.254   7.523   5.486 -0.3289  0.0279  1.3428
  936MOL0     H26325   0.036   7.416   5.510  1.7103 -1.3994 -0.8883
  936MOL0     H26326  -0.146   7.303   5.405 -0.9451 -1.1552 -0.2764
  936MOL0     H26327  -0.198   7.398   5.548 -3.6226 -0.3505  0.3616
  936MOL0     H26328  -0.377   7.370   5.307 -1.7595  1.3452  0.2880
  936MOL0     H26329  -0.363   7.241   5.431  0.0185 -0.4471 -0.2959
  936MOL0     H26330  -0.418   7.528   5.511  2.4066  0.5234  0.2671
  936MOL0     H26331  -0.421   7.379   5.610  1.6678  2.2344  0.3273
  936MOL0     H26332  -0.590   7.436   5.363  0.7590  2.6168  0.8258
  936MOL0     H26333  -0.608   7.290   5.462  0.0821 -0.7421  0.2091
  936MOL0     H26334  -0.679   7.586   5.525 -1.6780  0.3163  1.6394
  936MOL0     H26335  -0.691   7.458   5.647 -1.0653  2.3622  1.0843
  936MOL0     H26336  -0.830   7.459   5.378 -0.9260  1.0053  0.7873
  936MOL0     H26337  -0.847   7.344   5.518  0.0382  0.3805  0.5996
  936MOL0     H26338  -0.923   7.632   5.484 -4.9189  0.0984 -0.7594
  936MOL0     H26339  -0.935   7.539   5.641  2.7866  2.2187 -0.1184
  936MOL0     H26340  -1.065   7.464   5.382  0.5272  0.2150  0.8001
  936MOL0     H26341  -1.154   7.577   5.500 -1.2006 -1.7433  3.3553
  936MOL0     H26342  -0.091   7.645   5.168 -1.8398  0.7162  0.9234
  936MOL0     H26343   0.126   7.766   5.168 -0.4603 -0.9453 -0.6825
  936MOL0     H26344   0.729   7.675   5.329  0.6981 -0.0944  0.5602
  936MOL0     H26345   0.882   7.828   5.337 -0.8767 -1.8108  1.4107
  936MOL0     H26346   2.159   8.466   6.062  1.6801  0.1023  1.2212
  936MOL0     H26347   2.363   8.513   5.973  0.6097  0.3930 -0.4312
  936MOL0     H26348   2.637   8.968   5.613 -1.0507 -2.7836 -0.7321
  936MOL0     H26349   2.872   8.984   5.597  0.9602 -1.4781 -2.0062
  936MOL0     H26350   3.121   8.690   5.856 -3.3383  1.2512 -0.7373
  936MOL0     H26351   3.114   8.622   5.692 -2.9956 -0.0397  1.3436
  936MOL0     H26352   3.313   8.799   5.651 -1.9884 -0.1028  0.1354
  936MOL0     H26353   3.338   8.648   5.741  1.1596  0.5576  0.8349
  936MOL0     H26354   3.285   8.764   5.955 -0.6356  1.4559  1.0054
  936MOL0     H26355   3.281   8.912   5.863  1.8884  0.7233  0.2977
  936MOL0     H26356   3.494   8.924   5.958  1.0894 -1.4176  1.2517
  936MOL0     H26357   3.519   8.884   5.786  0.7636  0.6034  0.3711
  936MOL0     H26358   3.670   8.551   6.033  1.8312  0.4548 -2.8911
  936MOL0     H26359   2.908   8.628   5.841  2.0686  0.2195 -1.6898
  936MOL0     H26360   2.661   8.610   5.831 -1.2659  0.3398 -1.7597
  937MOL0     O26361   1.040  10.813   0.233  0.1870 -0.4093  0.1558
  937MOL0     C26362   1.102  10.710   0.260  0.2972 -0.3905 -0.2951
  937MOL0     O26363   1.048  10.597   0.326  0.1543 -0.6538  0.8606
  937MOL0     C26364   0.912  10.599   0.352 -0.8100 -0.0235  0.0241
  937MOL0     C26365   0.855  10.699   0.435  0.1102  0.4212 -0.2390
  937MOL0     C26366   0.714  10.696   0.445  0.3837 -0.2584 -0.9383
  937MOL0     C26367   0.636  10.596   0.388 -0.5350 -0.2203  0.2435
  937MOL0     O26368   0.504  10.600   0.379  0.0243  0.5886  1.0570
  937MOL0     C26369   0.422  10.711   0.405 -0.3982  0.2201 -0.3982
  937MOL0     C26370   0.278  10.706   0.367  0.8040  0.1156  0.5627
  937MOL0     C26371   0.187  10.651   0.479  0.1157  0.2588 -0.3242
  937MOL0     C26372   0.058  10.612   0.404  0.0504 -0.2694 -0.3295
  937MOL0     C26373  -0.042  10.559   0.500  0.0010  1.1246 -0.1026
  937MOL0     C26374  -0.187  10.604   0.456  0.6357  0.2022 -0.1296
  937MOL0     C26375  -0.298  10.569   0.560  0.4827 -0.2615 -0.5054
  937MOL0     C26376  -0.331  10.420   0.592  1.1851  0.2418  0.0900
  937MOL0     N26377  -0.425  10.359   0.494 -0.4326  0.4110 -0.1629
  937MOL0     C26378  -0.556  10.384   0.461 -0.5956  0.0121 -0.9261
  937MOL0     C26379  -0.589  10.291   0.379  0.2913  0.4692  0.8927
  937MOL0     C26380  -0.729  10.275   0.321  0.0396  0.2435  0.0033
  937MOL0     C26381  -0.825  10.229   0.432 -0.5828  0.5064  0.6727
  937MOL0     C26382  -0.957  10.197   0.376  0.3958 -0.0592  0.1263
  937MOL0     C26383  -1.065  10.190   0.482 -0.2319  0.2082  0.3423
  937MOL0     O26384  -1.180  10.115   0.428  0.6634  0.3669 -0.3476
  937MOL0     C26385  -1.278  10.097   0.527 -1.2643  0.5382  0.1192
  937MOL0     C26386  -1.412  10.096   0.488  0.2637 -0.1644  0.1115
  937MOL0     C26387  -1.519  10.067   0.575 -0.3081  0.6497 -0.1917
  937MOL0     C26388  -1.659  10.075   0.505  0.0907  0.3500  0.6948
  937MOL0     C26389  -1.494  10.043   0.712 -0.0939 -0.2681  0.4212
  937MOL0     C26390  -1.599  10.030   0.814 -0.3214 -0.6122 -0.0971
  937MOL0     O26391  -1.733  10.031   0.775  0.3744  0.1102  0.2884
  937MOL0     C26392  -1.826   9.967   0.859  0.2049 -0.0081  0.1611
  937MOL0     C26393  -1.800   9.887   0.966 -0.3316 -0.3803 -1.0829
  937MOL0     C26394  -1.907   9.848   1.050  0.1271  0.0120  0.1009
  937MOL0     C26395  -2.043   9.863   1.012  1.1053 -0.6370  0.5605
  937MOL0     O26396  -2.147   9.817   1.079 -0.4139 -0.0114 -0.2068
  937MOL0     C26397  -2.282   9.850   1.047  0.0223 -0.2161 -0.1478
  937MOL0     C26398  -2.337   9.761   0.930  0.1829 -0.4460  0.5768
  937MOL0     C26399  -2.370   9.621   0.970 -0.0127  0.5119  0.3838
  937MOL0     C26400  -2.268   9.544   1.042 -0.3613  0.8480  0.3242
  937MOL0     C26401  -2.308   9.398   1.055 -0.7429  0.3017  0.6680
  937MOL0     C26402  -2.209   9.348   1.159  0.1978  0.4801  0.1968
  937MOL0     C26403  -2.244   9.206   1.185  0.0995 -0.3973 -0.0225
  937MOL0     C26404  -2.162   9.152   1.306  0.6267 -0.1439  0.1155
  937MOL0    Cl26405  -1.988   9.132   1.264 -0.0205 -0.2361 -0.2799
  937MOL0     C26406  -2.062   9.941   0.889 -0.0682 -0.3619 -0.2936
  937MOL0     C26407  -1.958   9.995   0.812  0.1884  0.5484  0.3518
  937MOL0     O26408  -1.558  10.032   0.934  0.0312 -0.1536  0.1722
  937MOL0     C26409  -1.357  10.030   0.754 -0.5557  0.4950 -0.0147
  937MOL0     C26410  -1.254  10.055   0.659 -0.3780  0.3898 -0.0011
  937MOL0     N26411  -0.486  10.197   0.363  0.1005  0.2508  0.0032
  937MOL0     N26412  -0.388  10.248   0.421  0.1386  0.0830  0.1897
  937MOL0     C26413   0.707  10.488   0.330  0.6331 -0.4985  0.3018
  937MOL0     C26414   0.841  10.493   0.299  0.2528  0.1322 -1.0523
  937MOL0     C26415   1.249  10.709   0.217  0.3801  0.6794  0.4300
  937MOL0     C26416   1.318  10.828   0.177  0.3385 -0.0356 -0.1092
  937MOL0     C26417   1.448  10.819   0.139 -0.2059 -0.5863 -0.0866
  937MOL0     C26418   1.523  10.694   0.142 -0.1459  0.0770  0.7138
  937MOL0     O26419   1.656  10.685   0.114  0.3214  0.7466  0.2995
  937MOL0     C26420   1.717  10.813   0.106 -0.0772 -0.1552  0.2713
  937MOL0     C26421   1.865  10.799   0.114  0.0502 -0.9700  0.3822
  937MOL0     C26422   1.948  10.886   0.012 -0.0094  0.4023 -0.3854
  937MOL0     C26423   1.964  11.032   0.058 -0.0424 -1.0190 -0.1021
  937MOL0     C26424   2.051  11.042   0.167 -0.0511  0.2278 -0.9638
  937MOL0     C26425   2.107  11.061   0.267 -0.3686 -0.6291 -0.4435
  937MOL0     C26426   1.455  10.582   0.183 -0.3833 -0.1295 -0.1099
  937MOL0     C26427   1.320  10.589   0.224  0.5018 -0.3020  0.8171
  937MOL0     H26428   0.920  10.774   0.478  1.4348 -0.7531 -0.1440
  937MOL0     H26429   0.671  10.772   0.509 -0.5473 -1.5741  0.0703
  937MOL0     H26430   0.433  10.731   0.512 -0.0854 -1.2115 -0.1382
  937MOL0     H26431   0.465  10.798   0.355  0.2128 -0.2409 -0.6756
  937MOL0     H26432   0.248  10.808   0.340  0.7409 -0.3571 -1.3099
  937MOL0     H26433   0.261  10.654   0.272 -0.3875  0.0279  0.8059
  937MOL0     H26434   0.229  10.567   0.535 -2.2787 -0.8693 -0.1107
  937MOL0     H26435   0.159  10.726   0.553 -3.8345 -0.1421 -1.1498
  937MOL0     H26436   0.020  10.706   0.364 -3.1854 -1.0234  0.6716
  937MOL0     H26437   0.082  10.543   0.323  1.0118 -2.4974  1.7122
  937MOL0     H26438  -0.037  10.450   0.507  0.0792  1.2386  2.8221
  937MOL0     H26439  -0.019  10.602   0.598  2.9713 -0.5070  0.0379
  937MOL0     H26440  -0.194  10.712   0.439 -0.1827 -0.0519 -1.5426
  937MOL0     H26441  -0.219  10.560   0.361  0.8382  2.0352 -1.0962
  937MOL0     H26442  -0.264  10.616   0.652 -0.0803 -0.7681 -0.0305
  937MOL0     H26443  -0.395  10.619   0.547 -0.4345 -1.5948  0.7963
  937MOL0     H26444  -0.384  10.426   0.688  0.3557  2.9560 -0.4437
  937MOL0     H26445  -0.246  10.354   0.608 -0.2129 -1.9417 -0.9582
  937MOL0     H26446  -0.615  10.471   0.486  0.1578  0.8139 -1.8804
  937MOL0     H26447  -0.763  10.368   0.275  1.6464  0.2573 -1.2864
  937MOL0     H26448  -0.740  10.196   0.245 -2.0018 -0.0665  0.5862
  937MOL0     H26449  -0.845  10.309   0.504 -1.8049 -0.4047  1.3792
  937MOL0     H26450  -0.795  10.136   0.482 -0.4696 -0.3075 -0.8503
  937MOL0     H26451  -0.948  10.097   0.332 -0.0343 -0.2336  0.4291
  937MOL0     H26452  -0.993  10.270   0.302 -0.2401 -0.1994  0.2950
  937MOL0     H26453  -1.099  10.291   0.511 -0.7091  0.4496 -0.9927
  937MOL0     H26454  -1.022  10.138   0.568  1.5034 -1.5105 -1.4739
  937MOL0     H26455  -1.436  10.131   0.388 -0.6058  1.8866  0.9735
  937MOL0     H26456  -1.642  10.091   0.398  1.6467  1.7850  1.1154
  937MOL0     H26457  -1.713   9.980   0.512 -1.1202  0.8010 -1.6633
  937MOL0     H26458  -1.718  10.157   0.545  0.4850  1.9540 -1.8048
  937MOL0     H26459  -1.701   9.869   1.006 -0.8135  1.4084  1.1553
  937MOL0     H26460  -1.883   9.789   1.138 -1.1212 -0.2264  0.3041
  937MOL0     H26461  -2.345   9.828   1.133 -1.4239 -0.8548 -1.3347
  937MOL0     H26462  -2.285   9.958   1.033 -0.9002  0.4073  3.6492
  937MOL0     H26463  -2.426   9.811   0.890  1.2893 -0.1386 -1.6443
  937MOL0     H26464  -2.270   9.761   0.844 -0.1779  1.7389  0.2321
  937MOL0     H26465  -2.412   9.568   0.884  2.9533  1.2666 -1.6891
  937MOL0     H26466  -2.462   9.625   1.030 -1.4315  0.7820 -1.6823
  937MOL0     H26467  -2.166   9.555   1.006  0.5706  2.7901  3.1320
  937MOL0     H26468  -2.249   9.591   1.140  0.9002  2.7259 -0.7516
  937MOL0     H26469  -2.289   9.343   0.963  0.5832  0.4094  0.8559
  937MOL0     H26470  -2.414   9.385   1.079 -1.2111  0.1957 -1.2672
  937MOL0     H26471  -2.104   9.359   1.131  0.4496 -1.9121 -0.0256
  937MOL0     H26472  -2.215   9.400   1.255 -0.4473 -0.3576  0.6247
  937MOL0     H26473  -2.217   9.142   1.100 -1.0623 -0.7537 -0.1523
  937MOL0     H26474  -2.350   9.186   1.207 -0.0515 -0.4408 -0.7417
  937MOL0     H26475  -2.211   9.057   1.329 -0.0750  0.6856  2.3500
  937MOL0     H26476  -2.163   9.223   1.389 -0.3126  0.7412 -0.6198
  937MOL0     H26477  -2.163   9.967   0.858  0.2261  1.0172 -0.1372
  937MOL0     H26478  -1.983  10.058   0.727 -1.4395 -0.8999 -0.3216
  937MOL0     H26479  -1.324  10.002   0.853 -0.1392  2.0996  0.3343
  937MOL0     H26480  -1.151  10.049   0.694  0.3456  0.8233 -1.8961
  937MOL0     H26481   0.651  10.400   0.299  0.5020 -0.2829 -0.0849
  937MOL0     H26482   0.902  10.413   0.256  0.7504 -0.7897  1.2430
  937MOL0     H26483   1.270  10.925   0.177 -0.9178 -0.6015  2.3090
  937MOL0     H26484   1.490  10.916   0.117  0.1269 -1.0829 -1.7270
  937MOL0     H26485   1.693  10.853   0.006  2.4927 -1.4994 -0.9782
  937MOL0     H26486   1.687  10.893   0.174 -0.5022  3.3138 -3.5874
  937MOL0     H26487   1.891  10.695   0.093  1.8838 -0.6077  0.6678
  937MOL0     H26488   1.900  10.824   0.215  2.3021 -1.7567 -0.1459
  937MOL0     H26489   1.899  10.872  -0.084  1.1560 -1.9855 -0.6920
  937MOL0     H26490   2.046  10.839  -0.000  0.2606  0.8889 -0.1302
  937MOL0     H26491   1.865  11.069   0.084 -1.6328 -3.6425 -1.8262
  937MOL0     H26492   2.000  11.094  -0.024 -2.5824  4.2869  2.3425
  937MOL0     H26493   2.151  11.075   0.364 -0.3517 -1.2847 -0.3509
  937MOL0     H26494   1.510  10.488   0.188  1.4932  0.9025 -0.3695
  937MOL0     H26495   1.259  10.503   0.250  1.1821 -0.5647  1.5738
  938MOL0     O26496   2.802   1.918   4.450 -0.1047  0.4759 -0.8467
  938MOL0     C26497   2.813   2.039   4.428  0.5974 -0.4573 -0.0028
  938MOL0     O26498   2.717   2.132   4.434  0.3409  0.0490 -0.4645
  938MOL0     C26499   2.589   2.101   4.452  0.4466  1.0905 -0.1208
  938MOL0     C26500   2.512   2.179   4.539 -0.6218  0.0860  0.4799
  938MOL0     C26501   2.376   2.173   4.532  0.6154 -0.1270  0.6711
  938MOL0     C26502   2.311   2.078   4.448  0.0263  0.0176 -1.2612
  938MOL0     O26503   2.181   2.095   4.412 -0.8816  0.2888  0.9829
  938MOL0     C26504   2.083   2.090   4.514  0.4097 -0.9680 -0.0670
  938MOL0     C26505   1.942   2.133   4.459 -0.3521  0.8465  0.1104
  938MOL0     C26506   1.942   2.276   4.413  0.4844 -0.8090  0.5994
  938MOL0     C26507   1.810   2.314   4.369 -0.1098 -0.4642 -0.3032
  938MOL0     C26508   1.807   2.464   4.347  0.4863  0.1482  0.0149
  938MOL0     C26509   1.669   2.514   4.310 -0.5031 -1.1525 -0.4460
  938MOL0     C26510   1.663   2.667   4.307  0.1477 -0.9825 -0.4824
  938MOL0     C26511   1.729   2.730   4.184 -0.5141  0.0553  0.2306
  938MOL0     N26512   1.679   2.865   4.145  0.8935 -0.2467  0.9441
  938MOL0     C26513   1.563   2.889   4.079 -0.0817 -0.1462 -0.2303
  938MOL0     C26514   1.554   3.014   4.050 -0.1760 -0.3626 -0.1631
  938MOL0     C26515   1.436   3.081   3.991 -0.6640  0.1203 -0.3994
  938MOL0     C26516   1.465   3.225   3.944 -0.3160 -0.6996  1.1861
  938MOL0     C26517   1.486   3.244   3.789  0.5336 -0.8604 -0.0781
  938MOL0     C26518   1.593   3.151   3.726  1.1287  0.0210 -0.0799
  938MOL0     O26519   1.643   3.232   3.618 -0.4456 -0.1449 -0.0359
  938MOL0     C26520   1.589   3.216   3.496 -0.4153 -0.2778  0.0819
  938MOL0     C26521   1.652   3.283   3.393 -0.1939 -0.0540 -0.4162
  938MOL0     C26522   1.620   3.269   3.256 -0.1966  0.2210 -0.2393
  938MOL0     C26523   1.715   3.322   3.147  0.2624  0.1633  0.4317
  938MOL0     C26524   1.503   3.196   3.228 -0.3013 -0.1237 -0.2584
  938MOL0     C26525   1.450   3.182   3.097  1.1801  0.0304  0.2481
  938MOL0     O26526   1.359   3.084   3.085 -0.0253 -0.2371  0.0723
  938MOL0     C26527   1.289   3.067   2.968 -0.4596  0.2036  0.2169
  938MOL0     C26528   1.346   3.050   2.843 -0.0389  0.0571  0.3652
  938MOL0     C26529   1.269   3.017   2.727 -0.2874 -0.4522  0.6712
  938MOL0     C26530   1.131   2.993   2.732 -0.5145 -0.4464 -1.1068
  938MOL0     O26531   1.063   2.970   2.617  0.1144 -0.0874 -0.3522
  938MOL0     C26532   0.922   2.937   2.610  0.1890  0.2694 -0.0880
  938MOL0     C26533   0.895   2.795   2.660 -0.4773 -1.2677  0.3951
  938MOL0     C26534   0.744   2.757   2.653  0.3955 -0.1426  0.6225
  938MOL0     C26535   0.697   2.734   2.507 -1.0616 -0.0575 -0.4204
  938MOL0     C26536   0.548   2.735   2.491  0.2241  0.1603 -0.0919
  938MOL0     C26537   0.494   2.869   2.505  0.1921  0.0972 -0.2868
  938MOL0     C26538   0.340   2.863   2.472  0.3519 -1.1520 -0.2205
  938MOL0     C26539   0.278   2.991   2.511 -0.3214 -0.3717  0.0558
  938MOL0    Cl26540   0.105   2.974   2.496  0.1978 -0.1986  0.1908
  938MOL0     C26541   1.070   3.012   2.860 -0.2320 -0.3921 -0.0411
  938MOL0     C26542   1.150   3.051   2.970  0.2613 -0.2465  0.1695
  938MOL0     O26543   1.496   3.251   3.004  0.4888 -0.5747 -0.4976
  938MOL0     C26544   1.430   3.134   3.337 -0.4912 -0.4678 -0.4288
  938MOL0     C26545   1.477   3.136   3.467 -0.7863 -0.1194  0.3243
  938MOL0     N26546   1.659   3.073   4.123  0.2969 -0.1848  0.6327
  938MOL0     N26547   1.739   2.986   4.166 -0.5296 -0.1917 -0.0643
  938MOL0     C26548   2.385   1.993   4.368  0.2557  1.2241  0.7472
  938MOL0     C26549   2.521   2.000   4.381  0.0776 -0.1747  0.0130
  938MOL0     C26550   2.943   2.095   4.395  0.0963  0.1312  0.9564
  938MOL0     C26551   3.061   2.016   4.404 -0.1459 -0.2979  0.0111
  938MOL0     C26552   3.187   2.076   4.373  0.0226 -0.2246 -0.5550
  938MOL0     C26553   3.201   2.211   4.333  0.1685  0.3494 -0.4645
  938MOL0     O26554   3.325   2.247   4.307 -0.3841 -0.4826 -0.2289
  938MOL0     C26555   3.346   2.359   4.218 -0.6836  0.5419  0.6784
  938MOL0     C26556   3.474   2.337   4.138  0.9788 -0.7020 -0.2345
  938MOL0     C26557   3.501   2.447   4.039 -0.1243  0.3954  0.1146
  938MOL0     C26558   3.617   2.402   3.955 -0.3340  0.2037 -0.8304
  938MOL0     C26559   3.695   2.517   3.902 -0.1122  0.7165 -0.7464
  938MOL0     C26560   3.760   2.603   3.849  0.2786 -0.4682 -0.1764
  938MOL0     C26561   3.079   2.284   4.327  0.0808 -0.5799 -0.6218
  938MOL0     C26562   2.963   2.229   4.367  0.4495 -0.9551  0.3237
  938MOL0     H26563   2.566   2.257   4.592  1.2223  0.1075 -1.2679
  938MOL0     H26564   2.317   2.248   4.584  1.2179 -1.6431  3.7960
  938MOL0     H26565   2.083   1.989   4.557  1.3749 -1.5579 -1.3764
  938MOL0     H26566   2.116   2.157   4.594  0.6068 -1.0129 -0.1096
  938MOL0     H26567   1.908   2.059   4.386 -1.5896 -0.3917  1.8576
  938MOL0     H26568   1.872   2.124   4.543 -0.5699 -1.3785 -0.2568
  938MOL0     H26569   1.980   2.334   4.497 -0.0629 -3.9759  3.2221
  938MOL0     H26570   2.010   2.295   4.329  0.3077  1.0683  0.8356
  938MOL0     H26571   1.772   2.262   4.280 -0.5146 -2.0141  0.7283
  938MOL0     H26572   1.739   2.297   4.451  1.3458  0.0315  1.1285
  938MOL0     H26573   1.810   2.515   4.444 -1.4844 -2.2502  1.4247
  938MOL0     H26574   1.887   2.497   4.279  0.4634 -0.4759 -0.3160
  938MOL0     H26575   1.638   2.475   4.213 -4.1542  2.9750 -1.2266
  938MOL0     H26576   1.595   2.473   4.379 -1.7615 -0.0777 -1.1133
  938MOL0     H26577   1.557   2.694   4.311  0.1685 -0.6969 -1.5478
  938MOL0     H26578   1.698   2.710   4.401 -2.6561 -1.0172  0.6656
  938MOL0     H26579   1.722   2.665   4.096  2.8485 -0.0401 -0.1002
  938MOL0     H26580   1.836   2.747   4.192 -0.5774  0.5176  0.1311
  938MOL0     H26581   1.490   2.817   4.046 -0.0655 -0.2328 -0.0784
  938MOL0     H26582   1.396   3.020   3.909  0.3695 -0.6573 -0.3431
  938MOL0     H26583   1.366   3.086   4.075 -0.3299  0.5329 -0.1499
  938MOL0     H26584   1.552   3.262   3.999 -0.9644  4.3462 -0.5857
  938MOL0     H26585   1.388   3.297   3.973  1.8514  2.3833 -0.1516
  938MOL0     H26586   1.505   3.348   3.761 -1.7927 -0.9111 -2.3059
  938MOL0     H26587   1.394   3.217   3.735  1.5654  0.8549 -2.9256
  938MOL0     H26588   1.555   3.051   3.703  0.5023  0.3281 -0.4121
  938MOL0     H26589   1.676   3.129   3.794 -0.9408 -4.1234  1.4838
  938MOL0     H26590   1.730   3.352   3.423 -0.2680  0.5409 -1.5570
  938MOL0     H26591   1.751   3.239   3.086  1.2085  0.3375  0.7335
  938MOL0     H26592   1.676   3.399   3.079  1.2843 -0.3273 -0.7643
  938MOL0     H26593   1.810   3.364   3.181  3.1224 -5.1633  0.0959
  938MOL0     H26594   1.451   3.056   2.820  0.4539 -0.2218  2.3687
  938MOL0     H26595   1.319   3.009   2.631  1.8120 -0.9248  1.7463
  938MOL0     H26596   0.863   3.014   2.660  0.2960  0.9618 -1.0118
  938MOL0     H26597   0.894   2.946   2.505  2.9433  0.2119 -0.8989
  938MOL0     H26598   0.959   2.735   2.594 -2.2233  1.0969 -3.7883
  938MOL0     H26599   0.935   2.780   2.761 -0.8365  0.5345  0.8427
  938MOL0     H26600   0.682   2.833   2.702 -1.7309 -3.0061  2.7699
  938MOL0     H26601   0.733   2.668   2.716  0.3004 -1.0161 -0.5977
  938MOL0     H26602   0.749   2.801   2.437 -0.9008  1.6094  1.2114
  938MOL0     H26603   0.733   2.635   2.481 -0.0525  0.1118  0.2832
  938MOL0     H26604   0.494   2.668   2.559 -1.8059  1.5818 -0.2181
  938MOL0     H26605   0.533   2.696   2.390  0.2940 -1.5594  0.5214
  938MOL0     H26606   0.516   2.922   2.598 -0.9703  0.3782 -0.1583
  938MOL0     H26607   0.534   2.935   2.427 -0.6271  1.1572  0.1630
  938MOL0     H26608   0.294   2.784   2.530  1.2653 -1.8937 -0.4833
  938MOL0     H26609   0.325   2.858   2.363 -0.0357 -1.1757 -0.1664
  938MOL0     H26610   0.317   3.071   2.447 -1.8460 -0.6749 -1.3137
  938MOL0     H26611   0.299   3.015   2.616 -2.3778  1.0162  0.1967
  938MOL0     H26612   0.962   3.007   2.869 -0.2136 -0.5323  0.0882
  938MOL0     H26613   1.104   3.070   3.066  2.4294 -1.7535  1.5626
  938MOL0     H26614   1.335   3.084   3.322 -0.0865 -1.2432 -0.4519
  938MOL0     H26615   1.424   3.067   3.532 -0.7703  1.5249  2.1656
  938MOL0     H26616   2.346   1.912   4.308  1.0969 -1.5948  3.7364
  938MOL0     H26617   2.591   1.937   4.326 -0.6009 -1.5406  0.6537
  938MOL0     H26618   3.039   1.911   4.421 -0.8225 -0.3602 -1.1514
  938MOL0     H26619   3.280   2.023   4.393 -0.3266 -0.2998  1.0606
  938MOL0     H26620   3.254   2.364   4.159 -0.2909  1.2042  0.1033
  938MOL0     H26621   3.365   2.454   4.269 -0.0047  0.3218  0.8413
  938MOL0     H26622   3.467   2.239   4.089  5.1634 -1.9269  1.1520
  938MOL0     H26623   3.547   2.329   4.219 -0.7885  2.5114  1.8866
  938MOL0     H26624   3.525   2.542   4.087 -1.7908  0.8898  0.0380
  938MOL0     H26625   3.413   2.466   3.977 -0.9454  0.4195  1.2615
  938MOL0     H26626   3.568   2.343   3.877 -1.9701 -0.7389  0.8202
  938MOL0     H26627   3.676   2.346   4.028 -4.1447 -1.2018  1.4871
  938MOL0     H26628   3.822   2.679   3.804  0.0652  1.0223  1.9232
  938MOL0     H26629   3.086   2.392   4.317  0.7317 -0.4883  0.5493
  938MOL0     H26630   2.881   2.299   4.370  0.8082 -0.5635  1.4851
  939MOL0     O26631   9.862   2.688   9.212 -0.2420 -0.1921 -0.1908
  939MOL0     C26632   9.828   2.779   9.285 -0.8072 -0.0668 -0.1849
  939MOL0     O26633   9.696   2.811   9.323  0.2429 -0.0551  0.8424
  939MOL0     C26634   9.584   2.757   9.264 -0.1018 -0.1319  1.1253
  939MOL0     C26635   9.456   2.757   9.319 -0.4953 -0.3912 -0.0152
  939MOL0     C26636   9.341   2.708   9.259  0.7452  0.1606 -0.6515
  939MOL0     C26637   9.345   2.638   9.135  0.7644 -0.4485 -0.4046
  939MOL0     O26638   9.233   2.566   9.104 -0.0584 -0.1448  0.6195
  939MOL0     C26639   9.246   2.481   8.993 -0.1686 -0.3310 -0.5639
  939MOL0     C26640   9.120   2.391   8.986 -0.4349  0.6264  0.1737
  939MOL0     C26641   9.135   2.301   8.865 -0.4909  0.2945  0.3506
  939MOL0     C26642   9.013   2.219   8.830 -0.5785 -0.1399 -0.1275
  939MOL0     C26643   9.032   2.136   8.708  0.2152 -0.8561  0.5887
  939MOL0     C26644   8.913   2.038   8.693 -0.3075 -0.5287  0.0507
  939MOL0     C26645   8.895   2.005   8.543  0.1539  0.7221  0.4204
  939MOL0     C26646   8.813   1.869   8.521  0.5519  0.3609 -0.8030
  939MOL0     N26647   8.691   1.867   8.602  0.0215  0.2233  0.7094
  939MOL0     C26648   8.586   1.954   8.576  0.2562  0.2715  0.3287
  939MOL0     C26649   8.480   1.892   8.634 -1.0978 -0.2633  0.1685
  939MOL0     C26650   8.339   1.952   8.648 -0.7527 -0.1178  0.2584
  939MOL0     C26651   8.213   1.869   8.615 -0.3420  0.9706 -0.4607
  939MOL0     C26652   8.203   1.834   8.468  0.1105  0.0224 -0.2370
  939MOL0     C26653   8.079   1.743   8.429  0.4888 -0.2913  0.6980
  939MOL0     O26654   7.958   1.812   8.467 -0.7673 -0.0331  0.5270
  939MOL0     C26655   7.837   1.794   8.392  0.1723  0.6824 -0.7246
  939MOL0     C26656   7.821   1.696   8.298 -1.0885  0.1936  0.1726
  939MOL0     C26657   7.692   1.680   8.240 -0.2537 -1.3550  1.1271
  939MOL0     C26658   7.672   1.572   8.142 -0.7489 -0.9658  0.2889
  939MOL0     C26659   7.580   1.763   8.283  0.2348 -0.4527 -0.2859
  939MOL0     C26660   7.436   1.727   8.239 -0.8602  0.1069 -0.5282
  939MOL0     O26661   7.345   1.833   8.222  0.2171 -0.2555  0.4172
  939MOL0     C26662   7.239   1.810   8.137  0.3479  0.3074  0.0303
  939MOL0     C26663   7.142   1.715   8.169 -0.4782  0.1339  0.0690
  939MOL0     C26664   7.029   1.692   8.085  0.7624 -0.0119  0.5902
  939MOL0     C26665   7.021   1.756   7.963 -0.0986  0.0670  0.0493
  939MOL0     O26666   6.920   1.716   7.878 -0.7526  0.3509 -1.0933
  939MOL0     C26667   6.835   1.804   7.814 -0.2084  0.3860  0.0728
  939MOL0     C26668   6.740   1.874   7.909 -0.8430  0.0448 -0.2137
  939MOL0     C26669   6.650   1.770   7.980 -0.0307  0.0323 -0.4161
  939MOL0     C26670   6.523   1.829   8.049 -0.1170 -0.4111  0.2363
  939MOL0     C26671   6.413   1.870   7.949  0.3545 -1.0582  0.2765
  939MOL0     C26672   6.292   1.927   8.022  0.0467 -0.2100 -0.5305
  939MOL0     C26673   6.202   2.000   7.925 -0.1746  0.8370  0.5694
  939MOL0     C26674   6.117   2.108   7.993 -0.1780 -1.1624  0.3710
  939MOL0    Cl26675   5.996   2.040   8.112 -0.1658  0.1668  0.0933
  939MOL0     C26676   7.122   1.855   7.928  0.5058  0.3676  0.2704
  939MOL0     C26677   7.223   1.884   8.016 -0.2925 -0.7487  0.3910
  939MOL0     O26678   7.413   1.609   8.215 -0.2525 -0.6078 -0.2649
  939MOL0     C26679   7.605   1.866   8.372  0.2585 -0.4873 -0.0564
  939MOL0     C26680   7.731   1.873   8.434  0.0747  0.2074  0.8487
  939MOL0     N26681   8.522   1.763   8.676 -0.3773 -0.3608  0.3737
  939MOL0     N26682   8.645   1.749   8.663 -0.6728 -0.0934  0.5442
  939MOL0     C26683   9.469   2.647   9.071  0.2437  0.2221 -0.1168
  939MOL0     C26684   9.588   2.704   9.133  0.5165  0.4836  0.0822
  939MOL0     C26685   9.936   2.844   9.363 -0.4901  0.3742 -0.3236
  939MOL0     C26686   9.904   2.929   9.480 -0.4297  0.4293 -0.1521
  939MOL0     C26687  10.006   2.982   9.552  0.4036 -0.4051  0.6001
  939MOL0     C26688  10.137   2.977   9.511  0.6840 -0.8536 -0.6453
  939MOL0     O26689  10.217   3.051   9.600  0.3549 -1.0645  0.5903
  939MOL0     C26690  10.355   3.019   9.595 -0.3739 -0.1135 -0.4202
  939MOL0     C26691  10.439   3.109   9.687  0.3637 -0.6268  0.1740
  939MOL0     C26692  10.588   3.101   9.668 -1.2197 -0.0761  0.2118
  939MOL0     C26693  10.665   3.001   9.760  0.0662 -0.4767 -0.1265
  939MOL0     C26694  10.808   3.006   9.716 -0.1881 -0.1283  0.2564
  939MOL0     C26695  10.928   3.014   9.703 -0.1763  0.2304  0.0178
  939MOL0     C26696  10.174   2.894   9.407  0.2989  0.9106  0.6268
  939MOL0     C26697  10.075   2.821   9.340  0.9586 -0.0679  0.2482
  939MOL0     H26698   9.441   2.794   9.420 -1.1449 -2.2199  0.5923
  939MOL0     H26699   9.251   2.709   9.319  1.6498  0.8532  0.7744
  939MOL0     H26700   9.267   2.548   8.909 -1.5242  1.7387  0.6873
  939MOL0     H26701   9.335   2.418   9.002  0.2650  0.1494 -1.3590
  939MOL0     H26702   9.107   2.335   9.079 -2.3953 -2.0112 -1.5522
  939MOL0     H26703   9.026   2.444   8.967 -1.6794 -1.6954 -0.4939
  939MOL0     H26704   9.160   2.362   8.778 -2.4883  1.6179  0.6398
  939MOL0     H26705   9.216   2.230   8.887 -1.3598 -0.8873 -0.1553
  939MOL0     H26706   8.981   2.144   8.903  1.2182 -1.7622 -0.9094
  939MOL0     H26707   8.924   2.282   8.827 -0.6921 -0.2442  0.7261
  939MOL0     H26708   9.020   2.210   8.628 -1.4925 -1.9481 -0.2195
  939MOL0     H26709   9.132   2.093   8.703 -0.0583 -1.3586 -0.9397
  939MOL0     H26710   8.939   1.947   8.746 -0.5259 -0.6062  0.0259
  939MOL0     H26711   8.825   2.096   8.723  0.5196  1.4653 -1.1338
  939MOL0     H26712   8.859   2.093   8.489 -1.6860 -0.0853  0.2443
  939MOL0     H26713   8.999   1.996   8.512 -0.2494 -0.6087 -0.6739
  939MOL0     H26714   8.874   1.781   8.539 -0.6218 -0.4477 -0.6696
  939MOL0     H26715   8.782   1.868   8.416  1.1880 -1.0743 -0.9954
  939MOL0     H26716   8.580   2.052   8.531 -1.2921  1.0325  2.0488
  939MOL0     H26717   8.322   1.979   8.752 -0.1052  2.7899 -0.3017
  939MOL0     H26718   8.339   2.046   8.592 -3.1599 -0.6493 -0.7464
  939MOL0     H26719   8.126   1.920   8.657  1.4329  1.3860  3.1596
  939MOL0     H26720   8.235   1.770   8.656  1.8297  1.0187 -1.3663
  939MOL0     H26721   8.291   1.780   8.433 -0.4293  0.8633 -3.1642
  939MOL0     H26722   8.199   1.921   8.402  2.1145 -0.5481 -1.1968
  939MOL0     H26723   8.086   1.642   8.471 -0.5625 -1.1895 -1.1575
  939MOL0     H26724   8.071   1.730   8.321  0.0601 -0.2824  0.7268
  939MOL0     H26725   7.906   1.636   8.266 -0.4572  0.1751  1.7977
  939MOL0     H26726   7.634   1.478   8.181  0.3950 -0.6263  2.3316
  939MOL0     H26727   7.608   1.613   8.063  0.1683  2.9279  1.3652
  939MOL0     H26728   7.769   1.543   8.099  0.6067  1.3071  1.5858
  939MOL0     H26729   7.168   1.649   8.252  1.1304  0.1668 -0.3810
  939MOL0     H26730   6.957   1.616   8.112  1.5712 -0.8248  0.4774
  939MOL0     H26731   6.898   1.884   7.776  2.2275 -2.0302 -1.3830
  939MOL0     H26732   6.773   1.757   7.737 -0.1112 -0.2526  0.3753
  939MOL0     H26733   6.789   1.930   7.989 -1.6359  0.0934  0.2430
  939MOL0     H26734   6.673   1.941   7.855 -2.8424 -1.5141  0.2341
  939MOL0     H26735   6.709   1.730   8.063 -0.9297  0.4327  0.4348
  939MOL0     H26736   6.623   1.688   7.913 -0.5963 -2.0118  2.1728
  939MOL0     H26737   6.473   1.752   8.108 -0.6405 -0.0865  0.2307
  939MOL0     H26738   6.543   1.913   8.117  1.9829  0.6102 -1.5350
  939MOL0     H26739   6.381   1.783   7.891 -0.7543 -1.0578  0.8471
  939MOL0     H26740   6.443   1.948   7.878 -2.7968  0.4473  0.3761
  939MOL0     H26741   6.236   1.842   8.062  1.2267 -1.3479 -1.1942
  939MOL0     H26742   6.320   2.002   8.097 -0.3451 -0.3067 -0.2853
  939MOL0     H26743   6.132   1.920   7.900  1.2755 -0.2900 -0.0274
  939MOL0     H26744   6.258   2.043   7.841  0.8763 -1.4306  0.0370
  939MOL0     H26745   6.054   2.161   7.922  1.2867 -1.3462 -1.1441
  939MOL0     H26746   6.175   2.189   8.038 -0.1448 -0.3923 -1.0251
  939MOL0     H26747   7.110   1.909   7.835  0.4171  1.1624  0.7349
  939MOL0     H26748   7.298   1.958   7.987  0.2172 -1.2331  0.4609
  939MOL0     H26749   7.527   1.924   8.421  1.8887 -1.7008  4.5117
  939MOL0     H26750   7.744   1.952   8.507  0.4898  0.5255  0.4327
  939MOL0     H26751   9.482   2.594   8.977  0.6582 -1.6137  0.9486
  939MOL0     H26752   9.680   2.687   9.079 -0.7443 -0.8766 -1.7724
  939MOL0     H26753   9.800   2.946   9.505 -0.8489 -0.3381 -1.2942
  939MOL0     H26754   9.973   3.042   9.636  0.1371 -0.5685  0.6116
  939MOL0     H26755  10.358   2.923   9.647  0.1123  1.1825  2.1269
  939MOL0     H26756  10.396   3.022   9.494 -0.0716  0.4522 -0.2874
  939MOL0     H26757  10.421   3.080   9.790  1.4202 -0.5716  0.3940
  939MOL0     H26758  10.414   3.215   9.679  0.7355 -0.3796  1.9895
  939MOL0     H26759  10.629   3.199   9.691 -0.0068 -0.6854  0.7422
  939MOL0     H26760  10.614   3.084   9.563 -1.8090  0.8331 -0.0965
  939MOL0     H26761  10.626   2.901   9.737  0.3389 -0.2651 -1.6053
  939MOL0     H26762  10.658   3.008   9.869  1.7249 -3.4833  0.3022
  939MOL0     H26763  11.035   3.020   9.703 -0.2416  1.9090  0.4108
  939MOL0     H26764  10.273   2.886   9.365 -0.2163 -0.4871 -0.4277
  939MOL0     H26765  10.095   2.748   9.261  1.5963 -1.5945  1.7671
  940MOL0     O26766   1.806   2.891   8.556  0.0914  0.0570 -0.4973
  940MOL0     C26767   1.732   2.989   8.553 -0.4575 -0.0723  0.2138
  940MOL0     O26768   1.775   3.102   8.503  0.7187  0.0767 -0.3473
  940MOL0     C26769   1.908   3.118   8.477 -0.1851 -0.0528  0.7279
  940MOL0     C26770   1.959   3.089   8.348  0.2670 -1.5104 -0.2015
  940MOL0     C26771   2.100   3.114   8.333  0.7765 -0.3851 -0.1342
  940MOL0     C26772   2.181   3.156   8.438 -0.4704  0.1164  0.2639
  940MOL0     O26773   2.316   3.167   8.426  0.3737  0.1816  0.7068
  940MOL0     C26774   2.398   3.090   8.336  0.7689 -0.4118 -0.6108
  940MOL0     C26775   2.428   2.947   8.392  0.9786  0.7501  0.6274
  940MOL0     C26776   2.507   2.943   8.522 -0.0386 -0.5099  0.2732
  940MOL0     C26777   2.536   2.805   8.562 -0.1600  0.1499  0.4831
  940MOL0     C26778   2.611   2.790   8.687  0.3498  0.5736 -0.5181
  940MOL0     C26779   2.622   2.644   8.728  0.1459  0.4374 -0.3991
  940MOL0     C26780   2.503   2.574   8.795 -0.2147  0.5799  1.6448
  940MOL0     C26781   2.536   2.430   8.812  0.3334 -0.1656 -0.0909
  940MOL0     N26782   2.559   2.334   8.699 -0.9245 -0.0885  0.0839
  940MOL0     C26783   2.484   2.319   8.585 -0.4733 -0.1215  0.0757
  940MOL0     C26784   2.512   2.186   8.551 -0.5666  0.3119  0.2944
  940MOL0     C26785   2.441   2.122   8.428 -0.5413  0.1949 -0.7664
  940MOL0     C26786   2.442   2.221   8.318  0.2382 -0.1192 -0.6513
  940MOL0     C26787   2.390   2.156   8.185 -0.2556  0.3870  0.7307
  940MOL0     C26788   2.228   2.134   8.187 -0.9451  0.0897  0.4824
  940MOL0     O26789   2.167   2.072   8.072 -0.1798  0.0560 -0.2552
  940MOL0     C26790   2.032   2.042   8.080  0.0258 -1.0309  0.2090
  940MOL0     C26791   1.975   1.963   7.980  0.2389 -1.1697 -0.1221
  940MOL0     C26792   1.835   1.943   7.970  0.7902 -0.2765  0.0051
  940MOL0     C26793   1.783   1.873   7.850 -0.1252  0.7026  0.2690
  940MOL0     C26794   1.752   1.997   8.069  0.5995 -0.1418  0.3345
  940MOL0     C26795   1.605   1.985   8.067 -0.1139  0.3966  0.1829
  940MOL0     O26796   1.537   2.092   8.113  0.5840 -0.0448  0.4080
  940MOL0     C26797   1.403   2.112   8.102  0.5661 -0.6199 -0.0145
  940MOL0     C26798   1.321   2.077   7.993 -0.1591  0.0031 -0.6895
  940MOL0     C26799   1.185   2.095   8.005  0.9461  0.0415  0.6489
  940MOL0     C26800   1.123   2.152   8.110  0.2477 -0.0947 -0.4545
  940MOL0     O26801   0.985   2.164   8.124 -0.4178  0.0024  1.4046
  940MOL0     C26802   0.899   2.114   8.024 -0.4771  0.0752 -0.5041
  940MOL0     C26803   0.763   2.087   8.085  0.3667  0.2685 -0.3123
  940MOL0     C26804   0.646   2.074   7.981  0.2748 -0.1984  0.0820
  940MOL0     C26805   0.631   1.932   7.928 -0.3479  0.4663 -0.6101
  940MOL0     C26806   0.500   1.925   7.835 -0.3302 -0.1856  0.3919
  940MOL0     C26807   0.509   2.010   7.705 -0.0623 -0.3876 -0.1213
  940MOL0     C26808   0.394   2.014   7.615 -1.0960 -0.2114  0.2774
  940MOL0     C26809   0.410   2.083   7.484 -0.5748 -1.2542  0.3825
  940MOL0    Cl26810   0.257   2.066   7.387 -0.2517  0.1446 -0.3465
  940MOL0     C26811   1.208   2.200   8.212  0.6294 -0.7517  0.7901
  940MOL0     C26812   1.343   2.176   8.213 -0.3214 -0.4233 -0.0902
  940MOL0     O26813   1.560   1.876   8.049 -0.4224  0.0072  0.1327
  940MOL0     C26814   1.812   2.064   8.177 -0.3214  0.0426  0.3567
  940MOL0     C26815   1.945   2.088   8.189  0.7248  0.5596 -0.0071
  940MOL0     N26816   2.595   2.123   8.643  0.3376 -0.0087  0.5503
  940MOL0     N26817   2.628   2.214   8.725  0.0479  0.2510 -0.0249
  940MOL0     C26818   2.128   3.187   8.563 -0.4294 -0.8653 -0.2385
  940MOL0     C26819   1.987   3.169   8.584 -0.3182  0.5507  0.3201
  940MOL0     C26820   1.590   2.986   8.604 -0.2933 -0.2818 -0.2469
  940MOL0     C26821   1.496   3.092   8.566  0.3019  0.3222  0.5887
  940MOL0     C26822   1.357   3.066   8.605 -0.6472  0.3487 -0.4734
  940MOL0     C26823   1.315   2.936   8.658  0.1798  0.0302 -0.0388
  940MOL0     O26824   1.185   2.922   8.685 -0.2906  0.1228  0.2710
  940MOL0     C26825   1.116   2.800   8.654  0.2073 -0.4240  0.0504
  940MOL0     C26826   0.985   2.801   8.731 -0.1991 -0.0902 -0.1923
  940MOL0     C26827   0.912   2.661   8.707  1.1069  0.0562 -0.4363
  940MOL0     C26828   0.757   2.672   8.730 -0.1786  0.4285 -0.1290
  940MOL0     C26829   0.704   2.533   8.710  0.0600 -0.9207  0.2894
  940MOL0     C26830   0.651   2.430   8.717  0.4055  0.0155 -0.2710
  940MOL0     C26831   1.410   2.838   8.686 -0.4308 -0.0315 -0.5237
  940MOL0     C26832   1.547   2.869   8.659  0.5736  0.0464 -0.6320
  940MOL0     H26833   1.899   3.049   8.266  0.4943 -1.0150 -0.6180
  940MOL0     H26834   2.146   3.084   8.240  0.8667 -0.9751  0.0991
  940MOL0     H26835   2.354   3.077   8.237  0.4005 -2.9472 -0.1713
  940MOL0     H26836   2.488   3.151   8.328  0.3444  0.6938  2.0298
  940MOL0     H26837   2.333   2.893   8.393  0.9318  0.6759 -1.9052
  940MOL0     H26838   2.489   2.895   8.317 -1.3928  1.3105 -1.8272
  940MOL0     H26839   2.604   2.993   8.514 -0.0271  0.3660  4.0259
  940MOL0     H26840   2.448   2.994   8.598  1.5669 -0.4684  1.5460
  940MOL0     H26841   2.445   2.744   8.563  0.6409 -1.3199 -2.7510
  940MOL0     H26842   2.601   2.759   8.488  0.8408  1.1958  0.6794
  940MOL0     H26843   2.713   2.823   8.668  0.8126 -0.5329 -0.0813
  940MOL0     H26844   2.554   2.845   8.762  1.5628  1.7376 -0.4250
  940MOL0     H26845   2.660   2.585   8.645 -1.5679  0.9100 -1.5867
  940MOL0     H26846   2.694   2.638   8.810 -1.7338 -1.4259  1.2306
  940MOL0     H26847   2.487   2.629   8.888  0.0844  2.5495  0.6029
  940MOL0     H26848   2.411   2.578   8.736 -1.4158  0.5173  3.4585
  940MOL0     H26849   2.453   2.387   8.869 -0.9013  0.1001 -1.6372
  940MOL0     H26850   2.616   2.432   8.887 -1.3714  1.3932  1.7834
  940MOL0     H26851   2.429   2.397   8.534 -0.3816  2.8671  4.0486
  940MOL0     H26852   2.497   2.033   8.397 -1.8494 -1.2196  0.7767
  940MOL0     H26853   2.341   2.087   8.454  0.3660 -2.5636 -0.6788
  940MOL0     H26854   2.539   2.270   8.308  0.7477 -0.5226  1.8703
  940MOL0     H26855   2.369   2.302   8.333 -0.4781 -0.1280 -3.4354
  940MOL0     H26856   2.442   2.063   8.164 -0.8999  0.2420 -0.3306
  940MOL0     H26857   2.412   2.224   8.102 -1.4664 -1.0365 -0.8290
  940MOL0     H26858   2.182   2.232   8.204  0.1992  1.3051 -2.7181
  940MOL0     H26859   2.201   2.071   8.272 -3.6129  0.6010  0.1143
  940MOL0     H26860   2.051   1.920   7.915  2.5162 -0.1186  1.7117
  940MOL0     H26861   1.827   1.911   7.757  0.3803  3.2697  1.4561
  940MOL0     H26862   1.802   1.766   7.854 -0.2743  0.4198 -3.5108
  940MOL0     H26863   1.675   1.882   7.835 -0.1993 -0.3925  0.0723
  940MOL0     H26864   1.363   2.029   7.906 -0.7071 -0.5700 -0.6401
  940MOL0     H26865   1.134   2.053   7.919 -0.1816  0.9528  0.8429
  940MOL0     H26866   0.898   2.192   7.947  0.4705  1.4379  0.8281
  940MOL0     H26867   0.932   2.017   7.985  0.5599 -0.7421  2.2077
  940MOL0     H26868   0.768   1.994   8.144 -1.6586 -1.4324 -2.6219
  940MOL0     H26869   0.735   2.169   8.151  0.3364  1.7412 -2.0897
  940MOL0     H26870   0.673   2.144   7.902 -1.1880  1.9527  1.3818
  940MOL0     H26871   0.555   2.118   8.023 -0.7480 -0.2185 -1.9694
  940MOL0     H26872   0.726   1.905   7.881 -0.6921 -0.1491 -0.9551
  940MOL0     H26873   0.621   1.863   8.012  0.6102  3.1698  1.8965
  940MOL0     H26874   0.419   1.956   7.901  1.5055  3.3423  1.2318
  940MOL0     H26875   0.474   1.820   7.822  1.0684 -1.1945  4.1694
  940MOL0     H26876   0.508   2.113   7.739 -2.1948 -0.4584  0.1564
  940MOL0     H26877   0.602   1.984   7.653  2.1595  2.1818  2.2503
  940MOL0     H26878   0.313   2.062   7.669 -0.5319  2.4995 -1.1390
  940MOL0     H26879   0.359   1.911   7.602 -0.8737 -0.1647 -0.8013
  940MOL0     H26880   0.487   2.037   7.421  0.4478 -3.0617  2.7897
  940MOL0     H26881   0.431   2.191   7.490 -2.2630 -0.8556 -0.5373
  940MOL0     H26882   1.160   2.244   8.299 -0.7328 -2.7183  1.0910
  940MOL0     H26883   1.396   2.205   8.302  1.2744 -1.6612 -0.5939
  940MOL0     H26884   1.748   2.089   8.261 -4.2067  2.0550 -2.8712
  940MOL0     H26885   1.984   2.128   8.282  1.0538  0.9211 -0.2979
  940MOL0     H26886   2.194   3.222   8.642  0.2027  0.5824 -1.3668
  940MOL0     H26887   1.946   3.191   8.682 -3.6862 -2.0261 -0.3313
  940MOL0     H26888   1.521   3.189   8.526  0.3486  0.9826  2.1530
  940MOL0     H26889   1.285   3.144   8.586  0.1913  1.1828 -0.3206
  940MOL0     H26890   1.100   2.786   8.547  0.5872  0.1600 -0.0880
  940MOL0     H26891   1.178   2.713   8.678 -1.0752 -1.3410  0.1242
  940MOL0     H26892   0.918   2.879   8.692  1.2403  0.2253 -2.1397
  940MOL0     H26893   1.011   2.819   8.836 -2.4630 -1.1006  0.5966
  940MOL0     H26894   0.954   2.584   8.773  0.0825 -1.4818 -1.5103
  940MOL0     H26895   0.926   2.626   8.604 -2.4074 -4.7965  0.3814
  940MOL0     H26896   0.703   2.748   8.672 -0.6620  1.8137  2.0352
  940MOL0     H26897   0.743   2.710   8.831 -2.9698  2.9417 -1.3009
  940MOL0     H26898   0.613   2.330   8.713  0.2631  0.1067 -1.9502
  940MOL0     H26899   1.394   2.745   8.740  3.1321 -0.8367 -0.6175
  940MOL0     H26900   1.622   2.790   8.668  1.2042  0.4645 -1.9230
  941MOL0     O26901   2.407   4.588   4.986  0.6115  1.0609 -0.0582
  941MOL0     C26902   2.412   4.573   5.107 -0.2827  0.0268 -0.1435
  941MOL0     O26903   2.308   4.561   5.186 -0.6090  0.5606  0.4829
  941MOL0     C26904   2.177   4.566   5.153 -1.2811  0.1461  0.0425
  941MOL0     C26905   2.092   4.609   5.254 -0.1017  0.1014 -0.7451
  941MOL0     C26906   1.955   4.624   5.241 -0.7575 -0.0957 -1.2976
  941MOL0     C26907   1.893   4.601   5.122  0.6168  0.7163  0.4556
  941MOL0     O26908   1.759   4.610   5.090  0.2877 -0.0599  0.1626
  941MOL0     C26909   1.665   4.595   5.199  0.6960 -0.0333 -0.1892
  941MOL0     C26910   1.531   4.545   5.139  0.1511  0.3122  0.5836
  941MOL0     C26911   1.441   4.662   5.094 -0.4981 -0.0771  0.0458
  941MOL0     C26912   1.334   4.594   5.000  0.6741  0.5254 -0.5044
  941MOL0     C26913   1.220   4.700   4.960 -0.5073 -0.4850 -0.5592
  941MOL0     C26914   1.114   4.630   4.867 -1.0066 -0.0643  0.0962
  941MOL0     C26915   1.003   4.744   4.844  1.0687  0.2599 -0.1461
  941MOL0     C26916   0.876   4.681   4.791 -0.4636  0.3159 -0.3194
  941MOL0     N26917   0.762   4.775   4.797  0.4998  0.3625 -0.9218
  941MOL0     C26918   0.674   4.803   4.898  0.2108  0.8385  0.1040
  941MOL0     C26919   0.576   4.865   4.829  0.1861 -0.3637  0.7802
  941MOL0     C26920   0.450   4.925   4.892 -0.5600  0.2034  0.4211
  941MOL0     C26921   0.334   4.843   4.884  0.4038  0.8181  1.0573
  941MOL0     C26922   0.303   4.759   4.757 -0.4344 -0.1282 -0.1330
  941MOL0     C26923   0.161   4.712   4.740  0.2961 -0.4489 -0.9688
  941MOL0     O26924   0.073   4.824   4.750  0.5606 -0.2051  0.0121
  941MOL0     C26925  -0.041   4.806   4.671 -0.3390 -0.7058  0.0196
  941MOL0     C26926  -0.052   4.882   4.555  0.5452  0.2122  0.3360
  941MOL0     C26927  -0.158   4.870   4.465  0.0724  0.9808 -0.4440
  941MOL0     C26928  -0.142   4.933   4.324  0.2488 -0.5089 -0.4550
  941MOL0     C26929  -0.272   4.787   4.503 -0.3623  0.6244 -0.5653
  941MOL0     C26930  -0.387   4.755   4.413 -0.3079  0.5997  0.6331
  941MOL0     O26931  -0.482   4.668   4.454  0.1824 -0.2898  1.1334
  941MOL0     C26932  -0.595   4.640   4.370 -0.4161 -0.7188 -0.5779
  941MOL0     C26933  -0.722   4.654   4.434 -0.3720 -0.4734 -0.4457
  941MOL0     C26934  -0.839   4.632   4.366  0.5403 -0.8039  0.1195
  941MOL0     C26935  -0.833   4.583   4.234 -0.4184 -0.0568 -0.2540
  941MOL0     O26936  -0.956   4.572   4.172  0.5323  0.0215 -0.0486
  941MOL0     C26937  -0.981   4.516   4.047 -0.3661 -0.0591 -0.1800
  941MOL0     C26938  -1.128   4.531   4.016 -0.6366  0.1711  0.0498
  941MOL0     C26939  -1.205   4.443   4.115 -0.6702  0.4892 -0.4855
  941MOL0     C26940  -1.362   4.461   4.114  0.1520 -0.0338  0.2144
  941MOL0     C26941  -1.444   4.381   4.215 -0.3146  0.1348  0.0188
  941MOL0     C26942  -1.590   4.410   4.206  0.3109 -0.4775  0.8118
  941MOL0     C26943  -1.665   4.360   4.333 -0.2556  0.0355 -0.7467
  941MOL0     C26944  -1.627   4.437   4.467 -0.2411  0.4616  0.9121
  941MOL0    Cl26945  -1.487   4.370   4.546 -0.4213 -0.1849  0.2557
  941MOL0     C26946  -0.712   4.560   4.174  0.3065 -0.1203  0.2246
  941MOL0     C26947  -0.591   4.588   4.236  0.0432  0.3140 -0.3639
  941MOL0     O26948  -0.392   4.828   4.312 -0.0064  0.1784  0.1577
  941MOL0     C26949  -0.267   4.723   4.629 -0.0961 -0.8014  0.2235
  941MOL0     C26950  -0.150   4.722   4.704  0.4145  0.4250 -0.9365
  941MOL0     N26951   0.608   4.891   4.695  0.7396  0.1124 -0.3005
  941MOL0     N26952   0.724   4.832   4.681  0.3603  0.6551  0.0130
  941MOL0     C26953   1.972   4.554   5.022  0.4552  0.0469 -0.1428
  941MOL0     C26954   2.112   4.533   5.033  0.0839  0.0878 -0.0305
  941MOL0     C26955   2.547   4.592   5.178  0.0303  0.3985 -0.3263
  941MOL0     C26956   2.654   4.633   5.101 -0.7220 -0.2533  0.2663
  941MOL0     C26957   2.783   4.654   5.157  1.1204  0.2330  1.6336
  941MOL0     C26958   2.793   4.646   5.300 -0.7561  0.3397  1.0308
  941MOL0     O26959   2.900   4.666   5.382  0.9687 -0.3516 -0.9406
  941MOL0     C26960   3.024   4.697   5.320  0.0211 -1.0337 -0.2530
  941MOL0     C26961   3.139   4.716   5.421 -0.1545  0.3510  0.1362
  941MOL0     C26962   3.271   4.714   5.344  0.4307  0.5910  0.8287
  941MOL0     C26963   3.396   4.719   5.435  0.0643 -0.0248 -0.7556
  941MOL0     C26964   3.505   4.801   5.384 -0.2340 -0.1102  0.2479
  941MOL0     C26965   3.593   4.873   5.341  0.1939 -0.9398 -0.5542
  941MOL0     C26966   2.683   4.608   5.384  0.3668  0.0137  0.3411
  941MOL0     C26967   2.563   4.575   5.319 -0.7760  0.5828 -0.0849
  941MOL0     H26968   2.136   4.618   5.353  0.9203  0.8052 -1.2368
  941MOL0     H26969   1.902   4.661   5.329  3.0930  3.5744 -0.1661
  941MOL0     H26970   1.699   4.523   5.274  1.6497 -0.7725 -1.3026
  941MOL0     H26971   1.635   4.689   5.247  0.8701 -0.5670  0.9911
  941MOL0     H26972   1.560   4.488   5.049 -2.6051  2.7695 -2.0652
  941MOL0     H26973   1.484   4.475   5.209 -3.9441 -1.4635 -3.4124
  941MOL0     H26974   1.383   4.718   5.167 -2.2231  0.2685 -1.5085
  941MOL0     H26975   1.507   4.734   5.045  1.7024 -2.0672 -0.0946
  941MOL0     H26976   1.386   4.557   4.911  2.3467 -0.8418  0.9724
  941MOL0     H26977   1.288   4.511   5.054 -2.2803  2.3180 -0.0507
  941MOL0     H26978   1.177   4.732   5.056 -0.0744 -1.2120 -0.1066
  941MOL0     H26979   1.273   4.776   4.903 -4.0921  2.5626 -0.1698
  941MOL0     H26980   1.150   4.595   4.770  0.4454 -3.2723  1.6407
  941MOL0     H26981   1.067   4.543   4.913 -6.5884  1.0470 -2.6911
  941MOL0     H26982   0.988   4.812   4.928 -0.7359  0.4920 -0.6316
  941MOL0     H26983   1.036   4.815   4.768  0.5342  0.6506 -0.0147
  941MOL0     H26984   0.861   4.582   4.835  3.5000 -0.2466  0.1589
  941MOL0     H26985   0.890   4.648   4.688 -0.5157 -2.6386  0.5217
  941MOL0     H26986   0.668   4.778   5.004 -1.1829  2.1592  0.3776
  941MOL0     H26987   0.468   4.951   4.996 -0.8793  0.5247  0.3967
  941MOL0     H26988   0.427   5.019   4.841  1.1622  1.2524  1.4623
  941MOL0     H26989   0.248   4.910   4.888  0.0510  0.8299 -2.6467
  941MOL0     H26990   0.333   4.769   4.964 -0.0683 -1.0473 -0.5887
  941MOL0     H26991   0.367   4.671   4.772 -2.0673 -1.1454  1.2089
  941MOL0     H26992   0.330   4.812   4.665 -2.2131  1.7279  0.3409
  941MOL0     H26993   0.134   4.651   4.827  0.0225 -0.4159 -1.0290
  941MOL0     H26994   0.149   4.654   4.648  1.9592 -0.3813 -1.2475
  941MOL0     H26995   0.033   4.946   4.532  2.0619 -0.8067  2.7707
  941MOL0     H26996  -0.223   5.003   4.304 -0.8355 -1.5930 -0.0185
  941MOL0     H26997  -0.067   5.012   4.329 -0.3787  0.0157  1.1683
  941MOL0     H26998  -0.122   4.856   4.249  3.1225 -2.6402  2.1992
  941MOL0     H26999  -0.714   4.692   4.535  0.2722 -3.1703  0.5964
  941MOL0     H27000  -0.941   4.648   4.398 -0.1672 -2.5393 -1.1275
  941MOL0     H27001  -0.921   4.564   3.969  1.1460 -0.4976  0.6576
  941MOL0     H27002  -0.959   4.408   4.044  1.6680  0.2630  0.9578
  941MOL0     H27003  -1.155   4.637   4.021  1.6144  0.7883  0.4881
  941MOL0     H27004  -1.141   4.491   3.915  2.3875 -1.6680  0.2659
  941MOL0     H27005  -1.185   4.483   4.215 -0.9988  3.0046 -1.3638
  941MOL0     H27006  -1.180   4.337   4.108 -3.0049 -0.1286 -0.4862
  941MOL0     H27007  -1.384   4.565   4.138 -0.6943 -0.5812  1.9910
  941MOL0     H27008  -1.393   4.440   4.012  0.1576 -0.7912  0.3644
  941MOL0     H27009  -1.404   4.416   4.311  0.6780 -0.6694 -0.0805
  941MOL0     H27010  -1.427   4.273   4.210  2.7618  0.5415 -0.4856
  941MOL0     H27011  -1.592   4.519   4.209  3.4662 -0.3016 -0.3423
  941MOL0     H27012  -1.631   4.384   4.108 -2.3343  1.8659  1.1599
  941MOL0     H27013  -1.645   4.256   4.359  2.5041  0.4413 -1.0380
  941MOL0     H27014  -1.768   4.366   4.296 -0.0126 -0.0497 -1.4511
  941MOL0     H27015  -1.713   4.419   4.532 -0.9081  2.5703  0.6704
  941MOL0     H27016  -1.618   4.544   4.447 -0.8603  0.6386  1.5456
  941MOL0     H27017  -0.708   4.533   4.069  0.7739  1.4094 -0.1669
  941MOL0     H27018  -0.501   4.579   4.175  0.4465 -1.0722  0.3731
  941MOL0     H27019  -0.354   4.675   4.671  0.7295 -1.6185  1.0454
  941MOL0     H27020  -0.143   4.661   4.794 -0.0856  0.8054 -0.6298
  941MOL0     H27021   1.916   4.535   4.930 -0.2922 -0.8680  0.4870
  941MOL0     H27022   2.171   4.508   4.945 -0.4645  0.4929 -0.5200
  941MOL0     H27023   2.657   4.666   4.998  2.0264  1.8068  0.8851
  941MOL0     H27024   2.862   4.693   5.094  0.4042  0.1365  0.6735
  941MOL0     H27025   3.047   4.616   5.250  2.3509  0.6774 -1.6203
  941MOL0     H27026   3.024   4.781   5.250 -1.1635 -1.5453 -0.8913
  941MOL0     H27027   3.133   4.635   5.494  1.6000 -2.4341 -2.5459
  941MOL0     H27028   3.120   4.809   5.475  1.5402  0.6932  0.1979
  941MOL0     H27029   3.273   4.796   5.272  1.4095 -2.1898 -2.6252
  941MOL0     H27030   3.272   4.624   5.281 -2.0290 -0.3063  1.9314
  941MOL0     H27031   3.427   4.614   5.436 -0.9938 -0.3441 -0.0585
  941MOL0     H27032   3.374   4.749   5.537 -0.7585 -3.6549  0.2646
  941MOL0     H27033   3.675   4.936   5.310 -1.0961  1.1172  0.0345
  941MOL0     H27034   2.704   4.602   5.490 -1.3685 -1.2379  0.6462
  941MOL0     H27035   2.493   4.529   5.387  1.4045 -1.1298  1.1302
  942MOL0     O27036   5.570   6.957   8.654  0.1039 -0.5817 -0.3799
  942MOL0     C27037   5.558   6.843   8.696 -1.1209  0.7802 -0.4945
  942MOL0     O27038   5.450   6.769   8.690  0.8224 -0.8533 -0.5549
  942MOL0     C27039   5.333   6.822   8.645 -0.9002 -0.4220 -0.0487
  942MOL0     C27040   5.270   6.929   8.710 -0.2121 -0.2779  0.0727
  942MOL0     C27041   5.142   6.965   8.670  0.4486 -0.8076  0.2264
  942MOL0     C27042   5.077   6.897   8.564 -0.6961 -0.4701  0.2151
  942MOL0     O27043   4.953   6.925   8.512  0.5314 -0.3701 -0.9548
  942MOL0     C27044   4.867   7.010   8.590  0.3230  0.5987 -0.3843
  942MOL0     C27045   4.739   7.036   8.519  0.7267 -0.1468  0.3227
  942MOL0     C27046   4.660   7.160   8.566  0.3732  0.3581 -0.0501
  942MOL0     C27047   4.571   7.209   8.448 -1.0890 -0.0522 -0.1729
  942MOL0     C27048   4.496   7.327   8.479  0.3422  0.0143  0.3061
  942MOL0     C27049   4.407   7.362   8.356  0.3447  1.1033  0.4563
  942MOL0     C27050   4.324   7.486   8.365  0.1163 -0.6853 -0.2816
  942MOL0     C27051   4.216   7.483   8.472 -0.4089  0.2428  0.1256
  942MOL0     N27052   4.093   7.556   8.435 -0.2134 -0.5097  0.0238
  942MOL0     C27053   4.023   7.528   8.318 -0.1517 -0.7860 -0.5243
  942MOL0     C27054   3.902   7.579   8.345  0.7865 -0.3042  0.8160
  942MOL0     C27055   3.782   7.571   8.256 -1.2522 -0.1734  0.6847
  942MOL0     C27056   3.783   7.701   8.176 -0.1663 -0.4093 -0.3176
  942MOL0     C27057   3.657   7.709   8.086 -0.2804 -0.2606  0.4850
  942MOL0     C27058   3.529   7.731   8.147  0.9837  0.0825  0.1781
  942MOL0     O27059   3.420   7.665   8.075  0.1455 -0.6262  0.7183
  942MOL0     C27060   3.293   7.720   8.080 -0.5994  0.1291  0.1948
  942MOL0     C27061   3.184   7.641   8.065  0.4749 -0.1611 -0.1036
  942MOL0     C27062   3.054   7.681   8.078 -0.1786  0.2120 -0.0877
  942MOL0     C27063   2.944   7.578   8.038  0.0217  0.1585 -0.8075
  942MOL0     C27064   3.022   7.812   8.121 -0.1776 -0.6412 -0.2740
  942MOL0     C27065   2.886   7.862   8.133 -0.2177 -0.5263 -0.6670
  942MOL0     O27066   2.880   7.996   8.141 -1.0287 -0.0317  0.0285
  942MOL0     C27067   2.756   8.053   8.143 -0.3267 -0.2475  1.1016
  942MOL0     C27068   2.698   8.076   8.265 -0.2817 -0.1198 -1.0702
  942MOL0     C27069   2.576   8.135   8.283  0.0296  0.4431  0.1214
  942MOL0     C27070   2.505   8.177   8.170  0.3185  0.0923 -0.2922
  942MOL0     O27071   2.377   8.229   8.175  0.2710  0.6672  0.8709
  942MOL0     C27072   2.307   8.251   8.296 -0.0457  0.4941  0.1977
  942MOL0     C27073   2.164   8.285   8.259  0.3233  1.0898  0.8202
  942MOL0     C27074   2.150   8.423   8.205  0.3184 -0.5275  0.0985
  942MOL0     C27075   2.002   8.470   8.214 -0.1087 -0.2374  0.2870
  942MOL0     C27076   1.978   8.571   8.098  0.4080  0.4095  0.0684
  942MOL0     C27077   1.869   8.667   8.136  0.2610 -0.7321 -0.6097
  942MOL0     C27078   1.917   8.791   8.205 -0.6630  0.0610 -0.0609
  942MOL0     C27079   1.813   8.905   8.190 -0.4484  0.0484 -0.3974
  942MOL0    Cl27080   1.871   9.049   8.287 -0.3336 -0.4203  0.2467
  942MOL0     C27081   2.553   8.137   8.046  0.6985 -0.6804 -0.6096
  942MOL0     C27082   2.688   8.088   8.026  0.0993 -0.6903 -0.3610
  942MOL0     O27083   2.792   7.780   8.144 -0.0064 -0.0067 -0.3759
  942MOL0     C27084   3.134   7.903   8.119  0.0860 -0.3919  1.0047
  942MOL0     C27085   3.265   7.858   8.114  0.4208  0.6290  0.2498
  942MOL0     N27086   3.902   7.638   8.467 -0.7662 -0.6187  0.4363
  942MOL0     N27087   4.019   7.632   8.514  0.6159  0.1112 -0.3511
  942MOL0     C27088   5.149   6.808   8.498 -0.2512  0.0573 -0.5213
  942MOL0     C27089   5.273   6.769   8.531 -0.3207 -0.3606 -0.5353
  942MOL0     C27090   5.686   6.777   8.736 -0.2943  0.7812  0.1226
  942MOL0     C27091   5.698   6.631   8.722 -0.3149  0.1302  0.5533
  942MOL0     C27092   5.818   6.565   8.756  0.1544  0.4744 -0.7110
  942MOL0     C27093   5.933   6.627   8.795 -0.0045 -0.9252  0.5722
  942MOL0     O27094   6.040   6.550   8.834 -0.5089  0.8553 -0.5622
  942MOL0     C27095   6.166   6.614   8.866  1.0817  0.2805 -0.2695
  942MOL0     C27096   6.276   6.512   8.856  0.5906 -0.0026  0.1410
  942MOL0     C27097   6.381   6.519   8.972 -0.1116  0.2139  0.1804
  942MOL0     C27098   6.442   6.658   8.986  0.0570  0.1696 -0.8639
  942MOL0     C27099   6.528   6.661   9.107  0.0558  0.5168 -0.1943
  942MOL0     C27100   6.600   6.646   9.203  0.7435  0.6639 -0.4300
  942MOL0     C27101   5.922   6.765   8.816 -0.0745 -1.3962  0.3358
  942MOL0     C27102   5.803   6.841   8.793 -0.4000 -0.1495  0.1404
  942MOL0     H27103   5.317   6.975   8.796  3.8814  2.2224 -3.1582
  942MOL0     H27104   5.096   7.055   8.710  1.4552 -0.5614  0.8778
  942MOL0     H27105   4.845   6.973   8.691 -0.1420 -0.8903 -0.9886
  942MOL0     H27106   4.916   7.106   8.605 -1.8387  1.7137  0.0552
  942MOL0     H27107   4.766   7.043   8.413  0.1976 -1.2649  0.0966
  942MOL0     H27108   4.665   6.956   8.532 -0.6849  1.2700  1.3319
  942MOL0     H27109   4.594   7.129   8.648 -0.8702  0.0397 -1.1478
  942MOL0     H27110   4.726   7.235   8.609  1.2983 -0.4177 -0.0730
  942MOL0     H27111   4.634   7.235   8.362  0.8404 -0.5759  1.0134
  942MOL0     H27112   4.505   7.126   8.419 -0.1666 -0.8217 -0.1319
  942MOL0     H27113   4.425   7.315   8.561  1.0910  4.0715  1.7933
  942MOL0     H27114   4.564   7.407   8.511  2.9089 -1.1652 -1.7820
  942MOL0     H27115   4.475   7.367   8.271  2.5275 -0.6365  1.9738
  942MOL0     H27116   4.347   7.272   8.336  3.8003 -0.9495 -1.8730
  942MOL0     H27117   4.388   7.569   8.396 -0.4179 -1.0653  2.0179
  942MOL0     H27118   4.296   7.510   8.262 -0.9925  0.1117  0.1756
  942MOL0     H27119   4.263   7.522   8.563  1.0820 -0.1803 -0.4320
  942MOL0     H27120   4.184   7.382   8.498 -0.0767  0.2926  0.7714
  942MOL0     H27121   4.061   7.474   8.232 -1.5900 -1.4951 -0.7579
  942MOL0     H27122   3.793   7.481   8.194 -0.3945 -1.6153  2.8133
  942MOL0     H27123   3.689   7.562   8.312 -1.3791 -1.9263  0.2648
  942MOL0     H27124   3.867   7.716   8.108 -1.5355 -0.2686 -2.0596
  942MOL0     H27125   3.780   7.783   8.248  2.2085 -1.9762  1.7217
  942MOL0     H27126   3.641   7.616   8.032 -1.0369 -1.3457  2.4448
  942MOL0     H27127   3.672   7.790   8.015  0.7986 -1.5216 -0.7658
  942MOL0     H27128   3.514   7.840   8.140  0.0288 -0.1340 -4.1642
  942MOL0     H27129   3.526   7.702   8.253  1.6311  1.5967  0.6400
  942MOL0     H27130   3.197   7.536   8.040 -1.9763  0.0995 -3.1026
  942MOL0     H27131   2.976   7.492   7.978 -0.9407 -0.8125  0.0311
  942MOL0     H27132   2.891   7.550   8.129  2.5587  2.3427  1.5070
  942MOL0     H27133   2.866   7.623   7.976 -1.5486  0.1395  1.0855
  942MOL0     H27134   2.739   8.041   8.360 -5.2292 -0.3619  1.2626
  942MOL0     H27135   2.540   8.157   8.383 -0.4214 -3.9007  1.1097
  942MOL0     H27136   2.308   8.162   8.360  2.0346  0.7187  0.5487
  942MOL0     H27137   2.349   8.329   8.359 -2.6368  1.0583  1.3361
  942MOL0     H27138   2.125   8.224   8.176  0.2694  0.2290  1.4677
  942MOL0     H27139   2.102   8.269   8.347 -3.5057  0.0367 -1.7777
  942MOL0     H27140   2.181   8.420   8.100  2.7969  1.4232  0.6864
  942MOL0     H27141   2.213   8.491   8.263 -2.0105  0.8121  1.2244
  942MOL0     H27142   1.935   8.383   8.214  2.6034 -2.5566 -2.1493
  942MOL0     H27143   1.997   8.542   8.296  1.4595  1.6745 -1.2136
  942MOL0     H27144   1.940   8.510   8.015  0.1270  0.1452  0.3899
  942MOL0     H27145   2.071   8.623   8.073  0.6278  0.7417  1.5162
  942MOL0     H27146   1.831   8.699   8.038  2.4636 -0.2611 -1.3839
  942MOL0     H27147   1.786   8.626   8.193 -0.5157 -0.0111 -1.1882
  942MOL0     H27148   2.002   8.821   8.143 -0.7071  3.0041  1.1418
  942MOL0     H27149   1.949   8.786   8.310  0.7540  1.0430 -0.4255
  942MOL0     H27150   1.715   8.867   8.221 -0.1654 -0.6829 -0.3711
  942MOL0     H27151   1.804   8.931   8.084  0.0586 -0.3004 -0.5312
  942MOL0     H27152   2.491   8.153   7.958  3.1098  0.3601 -2.2337
  942MOL0     H27153   2.727   8.060   7.928  1.7747  1.7145 -0.4479
  942MOL0     H27154   3.130   8.011   8.132  2.9228 -0.2383  1.2856
  942MOL0     H27155   3.340   7.933   8.137  0.1782  1.2870 -1.0131
  942MOL0     H27156   5.104   6.770   8.407 -1.5115 -0.0096  0.1008
  942MOL0     H27157   5.324   6.694   8.472 -0.2404 -1.4518  0.8659
  942MOL0     H27158   5.622   6.561   8.688  1.0106 -0.7128 -0.8081
  942MOL0     H27159   5.835   6.458   8.751 -1.4672  0.1026  0.7410
  942MOL0     H27160   6.199   6.690   8.794 -0.4172  0.0521 -1.2689
  942MOL0     H27161   6.156   6.647   8.969  3.7212 -1.3006  0.5626
  942MOL0     H27162   6.329   6.529   8.762 -1.8080 -2.4898 -1.8258
  942MOL0     H27163   6.234   6.411   8.854  2.2347 -0.7221  0.3358
  942MOL0     H27164   6.456   6.445   8.944  1.6156  1.7039  0.6778
  942MOL0     H27165   6.324   6.490   9.061 -0.9064 -2.2856 -1.0533
  942MOL0     H27166   6.372   6.741   8.997  0.5657  0.2918  3.2348
  942MOL0     H27167   6.504   6.683   8.900  0.2725  3.1005  0.0396
  942MOL0     H27168   6.660   6.620   9.287  0.6299  0.6491 -0.3536
  942MOL0     H27169   6.012   6.819   8.846 -2.0544  1.8733  0.9102
  942MOL0     H27170   5.801   6.948   8.807  1.0593  0.3356 -2.5955
  943MOL0     O27171   0.540   8.801   5.426  0.5280 -0.4736  0.1805
  943MOL0     C27172   0.590   8.749   5.527  0.0480  0.7892  0.2008
  943MOL0     O27173   0.515   8.670   5.615 -0.1698 -0.3166  0.2364
  943MOL0     C27174   0.382   8.643   5.592 -0.3320  0.5690 -0.0645
  943MOL0     C27175   0.330   8.512   5.596  0.4925 -0.6693  0.6836
  943MOL0     C27176   0.191   8.484   5.595  0.0398 -0.5266 -0.3924
  943MOL0     C27177   0.103   8.596   5.560 -0.4096  0.0503  0.1620
  943MOL0     O27178  -0.029   8.578   5.543  0.9672  0.3687 -0.2595
  943MOL0     C27179  -0.056   8.501   5.423  0.0980  0.5363  0.0034
  943MOL0     C27180  -0.170   8.570   5.333 -0.6439  0.0438  0.1394
  943MOL0     C27181  -0.301   8.564   5.405 -1.1162 -0.5501  0.7969
  943MOL0     C27182  -0.383   8.433   5.386 -0.1744  0.7638 -0.3481
  943MOL0     C27183  -0.539   8.463   5.380  0.3137  0.1529 -0.8754
  943MOL0     C27184  -0.620   8.330   5.367 -0.8255 -1.0570 -0.1349
  943MOL0     C27185  -0.763   8.348   5.431  0.6604  0.6122 -0.1009
  943MOL0     C27186  -0.858   8.427   5.338  0.0896 -0.5851 -0.2806
  943MOL0     N27187  -0.991   8.462   5.392 -0.0700  0.0809 -0.5477
  943MOL0     C27188  -1.014   8.528   5.513 -0.2022 -0.9370  0.6835
  943MOL0     C27189  -1.152   8.534   5.532 -0.1256 -0.1062  0.5456
  943MOL0     C27190  -1.227   8.620   5.634  0.5451  0.2791 -0.1364
  943MOL0     C27191  -1.322   8.539   5.724 -0.8422  0.2450  0.1290
  943MOL0     C27192  -1.371   8.605   5.841 -0.4205 -0.1841 -0.5729
  943MOL0     C27193  -1.454   8.735   5.831 -0.2870 -0.0160 -0.6354
  943MOL0     O27194  -1.488   8.766   5.969 -0.6187  0.6808 -0.1532
  943MOL0     C27195  -1.593   8.852   6.007 -0.4700 -0.8464 -0.7698
  943MOL0     C27196  -1.634   8.969   5.936  0.5957  0.5867  0.0582
  943MOL0     C27197  -1.738   9.056   5.979  0.0826  1.1430  0.1440
  943MOL0     C27198  -1.804   9.133   5.875  0.3651  0.1784  0.2746
  943MOL0     C27199  -1.801   9.029   6.109 -0.5642 -0.2570 -0.7715
  943MOL0     C27200  -1.906   9.116   6.169  0.1805  0.4889  0.5176
  943MOL0     O27201  -1.949   9.077   6.293 -0.3189  0.2148 -0.3022
  943MOL0     C27202  -2.034   9.164   6.369 -0.2958 -0.5568 -1.0893
  943MOL0     C27203  -2.154   9.222   6.333  0.3218 -0.5187  0.4834
  943MOL0     C27204  -2.240   9.291   6.414  0.2983  0.1757 -0.1563
  943MOL0     C27205  -2.205   9.311   6.552 -0.4683  0.1981  0.3111
  943MOL0     O27206  -2.280   9.385   6.639  0.4556  0.2798 -0.0033
  943MOL0     C27207  -2.417   9.409   6.612  0.2619 -0.2498 -0.3064
  943MOL0     C27208  -2.495   9.271   6.610  0.1017 -0.2490  0.0694
  943MOL0     C27209  -2.646   9.291   6.623  0.7961 -0.7263 -0.8341
  943MOL0     C27210  -2.696   9.357   6.498 -0.3089  0.1285  0.1112
  943MOL0     C27211  -2.835   9.309   6.442  0.5859 -0.4523  0.3104
  943MOL0     C27212  -2.941   9.333   6.561  0.7155  0.8153 -0.0794
  943MOL0     C27213  -2.985   9.482   6.571  0.1663 -0.0657 -0.2575
  943MOL0     C27214  -3.040   9.536   6.706  0.7420  0.0790  0.2805
  943MOL0    Cl27215  -3.187   9.442   6.756  0.3331 -0.1808  0.4569
  943MOL0     C27216  -2.087   9.257   6.597  0.2669  0.1268 -0.2922
  943MOL0     C27217  -2.000   9.190   6.507 -0.1025 -0.3538  0.5592
  943MOL0     O27218  -1.957   9.210   6.101  0.0711 -0.2496 -0.1843
  943MOL0     C27219  -1.754   8.918   6.182  0.0258  0.1620 -0.1231
  943MOL0     C27220  -1.655   8.835   6.133 -0.0024 -0.5998 -1.0474
  943MOL0     N27221  -1.209   8.483   5.416  0.2497  0.4239 -0.1712
  943MOL0     N27222  -1.113   8.438   5.343 -0.0942  0.2465  0.0975
  943MOL0     C27223   0.158   8.723   5.580  0.8123  0.7970  0.3457
  943MOL0     C27224   0.290   8.744   5.588  0.4717 -0.0875  0.4148
  943MOL0     C27225   0.732   8.762   5.541 -1.0665 -0.1270  0.2546
  943MOL0     C27226   0.809   8.671   5.615  0.6326 -0.3874  0.3819
  943MOL0     C27227   0.944   8.688   5.633  0.2336 -0.4607  0.2919
  943MOL0     C27228   1.006   8.801   5.594 -0.0013  0.2379 -0.3585
  943MOL0     O27229   1.142   8.800   5.619 -0.3960 -0.2133 -0.1711
  943MOL0     C27230   1.212   8.930   5.607  0.8930  0.9305  0.4191
  943MOL0     C27231   1.340   8.932   5.688  0.2235  0.8732 -0.2426
  943MOL0     C27232   1.453   8.828   5.632  0.7701 -0.6008 -0.1114
  943MOL0     C27233   1.483   8.844   5.488  0.5229  0.9748 -0.5215
  943MOL0     C27234   1.531   8.975   5.455 -0.0437  0.3838  0.0664
  943MOL0     C27235   1.574   9.090   5.457 -0.6084 -0.3216 -1.0438
  943MOL0     C27236   0.932   8.903   5.538  0.6026 -0.2976 -0.6846
  943MOL0     C27237   0.797   8.881   5.504 -0.4412  0.0470 -0.4240
  943MOL0     H27238   0.401   8.430   5.598  2.1696  0.6977 -0.3038
  943MOL0     H27239   0.149   8.384   5.601 -1.7071  0.1912 -0.2134
  943MOL0     H27240   0.040   8.495   5.372 -0.2466  1.9123 -0.8883
  943MOL0     H27241  -0.082   8.397   5.445  1.6253  0.3507  1.0797
  943MOL0     H27242  -0.141   8.670   5.300 -2.1727 -0.4657 -3.2665
  943MOL0     H27243  -0.182   8.509   5.242  2.1299 -1.3845  0.6078
  943MOL0     H27244  -0.287   8.596   5.509 -1.2314 -0.4683  0.7872
  943MOL0     H27245  -0.360   8.646   5.362 -1.2807 -0.9929  0.1812
  943MOL0     H27246  -0.352   8.373   5.300  0.5765  0.9957 -0.2418
  943MOL0     H27247  -0.354   8.372   5.472  0.1098  1.1210 -0.1885
  943MOL0     H27248  -0.565   8.511   5.475 -0.0758 -0.4389 -0.6779
  943MOL0     H27249  -0.572   8.536   5.305 -1.2091  2.3445  1.7382
  943MOL0     H27250  -0.623   8.291   5.264  1.6245 -0.3820 -0.5373
  943MOL0     H27251  -0.568   8.255   5.426 -0.2152 -1.5448 -1.2511
  943MOL0     H27252  -0.813   8.251   5.443  2.2581 -0.2807 -0.3130
  943MOL0     H27253  -0.750   8.395   5.529 -0.3428 -1.1795  0.9431
  943MOL0     H27254  -0.864   8.383   5.239  5.1806  0.9935 -1.5666
  943MOL0     H27255  -0.801   8.518   5.319 -0.8338 -0.3395 -2.0519
  943MOL0     H27256  -0.945   8.576   5.582 -1.2512 -0.4719  1.4459
  943MOL0     H27257  -1.159   8.675   5.700  0.6201 -0.1037  0.1076
  943MOL0     H27258  -1.281   8.705   5.592  0.2654  0.2533  0.1715
  943MOL0     H27259  -1.274   8.449   5.762 -1.1223  0.5150  1.1649
  943MOL0     H27260  -1.406   8.500   5.665 -1.0094 -0.2731  0.6996
  943MOL0     H27261  -1.280   8.632   5.897 -2.1421  0.4507  2.1063
  943MOL0     H27262  -1.438   8.534   5.890 -2.6786  2.0917 -0.1597
  943MOL0     H27263  -1.547   8.718   5.777 -1.3316  3.0190  0.0003
  943MOL0     H27264  -1.395   8.818   5.792  1.6939 -0.5031  1.1643
  943MOL0     H27265  -1.595   8.981   5.835 -1.0118  1.2323 -0.5081
  943MOL0     H27266  -1.890   9.083   5.830  0.9684  0.5028 -1.2863
  943MOL0     H27267  -1.844   9.230   5.907  0.4352  0.1715  0.3823
  943MOL0     H27268  -1.734   9.160   5.795 -1.2708  1.5344 -0.7855
  943MOL0     H27269  -2.182   9.224   6.228 -0.4823 -1.8483  0.6469
  943MOL0     H27270  -2.327   9.343   6.375 -0.3957 -0.9639 -0.1604
  943MOL0     H27271  -2.470   9.469   6.687 -3.2674 -2.5761 -0.6557
  943MOL0     H27272  -2.431   9.466   6.519 -1.6866  0.1149  0.1470
  943MOL0     H27273  -2.477   9.208   6.523  2.2064 -1.8503  1.5593
  943MOL0     H27274  -2.454   9.218   6.697 -1.4671 -1.5830  0.0631
  943MOL0     H27275  -2.672   9.354   6.708 -0.8420  0.3929 -2.0919
  943MOL0     H27276  -2.696   9.194   6.629  0.5300 -0.5113  1.2539
  943MOL0     H27277  -2.694   9.465   6.514  0.1901 -0.1188  1.9198
  943MOL0     H27278  -2.637   9.327   6.411 -3.5492 -3.0346 -1.2906
  943MOL0     H27279  -2.829   9.202   6.420  1.4679 -0.4517  0.5264
  943MOL0     H27280  -2.868   9.362   6.352  0.4441 -0.7870  0.1645
  943MOL0     H27281  -3.025   9.264   6.548  2.2486 -1.0697 -0.4953
  943MOL0     H27282  -2.900   9.301   6.657  0.9717 -0.5559 -0.6231
  943MOL0     H27283  -3.063   9.502   6.497 -2.2271  0.2482  2.1824
  943MOL0     H27284  -2.900   9.547   6.552  2.0255 -2.7922 -1.8422
  943MOL0     H27285  -3.077   9.639   6.695  0.4998 -0.1509 -1.3224
  943MOL0     H27286  -2.968   9.535   6.788  0.5752  2.6223  0.5635
  943MOL0     H27287  -2.063   9.278   6.700  0.7075  2.7372 -0.8539
  943MOL0     H27288  -1.902   9.164   6.544  0.7288  2.0498  0.2479
  943MOL0     H27289  -1.788   8.902   6.284  1.0320 -0.5073  0.1251
  943MOL0     H27290  -1.635   8.749   6.197  0.2794  0.3425  0.1824
  943MOL0     H27291   0.104   8.816   5.597  2.1643  1.9000 -1.1142
  943MOL0     H27292   0.325   8.846   5.597  2.8653 -0.2376 -4.0992
  943MOL0     H27293   0.770   8.575   5.647 -0.9470 -0.5122 -1.7241
  943MOL0     H27294   0.994   8.605   5.682  0.1448 -0.0049  1.1780
  943MOL0     H27295   1.229   8.953   5.501 -1.8386 -0.0532 -0.3335
  943MOL0     H27296   1.150   9.006   5.656 -0.1055  1.6398 -1.8129
  943MOL0     H27297   1.324   8.908   5.794  0.9513 -3.6993 -0.9468
  943MOL0     H27298   1.386   9.031   5.676  0.2946  0.6282 -2.4867
  943MOL0     H27299   1.407   8.730   5.644  1.1488 -0.7888 -0.1625
  943MOL0     H27300   1.549   8.828   5.685  1.5186  1.6397 -1.3202
  943MOL0     H27301   1.398   8.806   5.430 -0.6180  1.6838  0.6467
  943MOL0     H27302   1.557   8.767   5.465 -0.7358 -0.2923 -0.5233
  943MOL0     H27303   1.626   9.183   5.445  0.4898 -0.4625  1.8720
  943MOL0     H27304   0.971   8.998   5.502  1.8587 -1.0007 -1.2213
  943MOL0     H27305   0.746   8.970   5.468  0.3068  0.9589  0.6589
  944MOL0     O27306   8.914  11.119  11.263  0.6065 -0.3497  0.5825
  944MOL0     C27307   8.980  11.184  11.346  0.3693  0.3224  0.0459
  944MOL0     O27308   8.938  11.220  11.466 -1.0562 -0.0364 -0.1545
  944MOL0     C27309   8.814  11.181  11.510  0.4452 -0.4512 -0.4477
  944MOL0     C27310   8.704  11.267  11.494  0.1008 -0.6153 -0.9451
  944MOL0     C27311   8.578  11.234  11.544 -0.2969  0.3650  0.8064
  944MOL0     C27312   8.560  11.101  11.598 -0.2506  0.1744 -0.3224
  944MOL0     O27313   8.431  11.062  11.629  0.0901 -0.3526 -0.1544
  944MOL0     C27314   8.406  10.942  11.701  0.4622 -0.6305  0.4319
  944MOL0     C27315   8.256  10.906  11.704 -0.9396  0.3698  0.0084
  944MOL0     C27316   8.171  11.002  11.781 -0.0382  0.4567 -0.7878
  944MOL0     C27317   8.014  10.968  11.768  0.5571  0.9522 -0.6453
  944MOL0     C27318   7.946  11.020  11.899 -0.7440 -0.0244  0.1804
  944MOL0     C27319   7.797  10.989  11.906 -0.2500  0.1383  0.8043
  944MOL0     C27320   7.737  11.045  12.034  0.9190 -0.1626 -0.0751
  944MOL0     C27321   7.588  11.025  12.044 -0.1796 -0.6988  0.5673
  944MOL0     N27322   7.544  10.892  12.029  0.9170  0.1604 -0.2792
  944MOL0     C27323   7.429  10.867  11.960  0.0147 -0.3282  0.5685
  944MOL0     C27324   7.394  10.740  11.989 -0.0074  0.0614 -0.3818
  944MOL0     C27325   7.278  10.667  11.932 -0.0078 -0.2615 -0.1317
  944MOL0     C27326   7.259  10.534  11.991 -0.0711  0.3884  0.0875
  944MOL0     C27327   7.131  10.462  11.943 -0.1773  0.6970 -0.2178
  944MOL0     C27328   7.142  10.422  11.795  0.8587 -0.0372  0.7260
  944MOL0     O27329   7.052  10.315  11.759  0.1129  0.3673 -0.2153
  944MOL0     C27330   6.913  10.322  11.776  0.2435 -1.2628  1.0496
  944MOL0     C27331   6.844  10.443  11.781  0.2572 -0.3812  0.1604
  944MOL0     C27332   6.701  10.431  11.793 -0.0732  0.2488  0.3809
  944MOL0     C27333   6.627  10.564  11.803 -0.8133  0.5545  0.4289
  944MOL0     C27334   6.638  10.305  11.805  0.0515  0.6131  0.2172
  944MOL0     C27335   6.490  10.287  11.831 -0.3767 -0.3847 -0.2335
  944MOL0     O27336   6.448  10.157  11.856 -0.1764  0.0753  0.1229
  944MOL0     C27337   6.316  10.136  11.879  0.2450 -0.2401 -0.4491
  944MOL0     C27338   6.247  10.191  11.992  0.1531  0.1651 -0.3539
  944MOL0     C27339   6.108  10.181  12.005  0.1467 -0.4131  0.2077
  944MOL0     C27340   6.035  10.127  11.892 -0.4042 -0.2298  0.8138
  944MOL0     O27341   5.904  10.127  11.891 -0.0894  0.3142  0.1999
  944MOL0     C27342   5.834  10.161  12.009  0.8994  0.3006  0.2614
  944MOL0     C27343   5.688  10.129  11.986 -0.2936 -0.0594 -0.1711
  944MOL0     C27344   5.603  10.179  12.103  0.8518  0.3042 -0.9052
  944MOL0     C27345   5.470  10.216  12.034  0.2664  0.7370 -0.3939
  944MOL0     C27346   5.369  10.260  12.143 -0.3664 -0.0065  1.0201
  944MOL0     C27347   5.276  10.145  12.173  0.2923  0.1351  0.0080
  944MOL0     C27348   5.181  10.175  12.297  0.1826  0.9068  1.0094
  944MOL0     C27349   5.053  10.094  12.276 -0.1970 -0.6067  0.2353
  944MOL0    Cl27350   5.085   9.919  12.273 -0.0816  0.0073 -0.2802
  944MOL0     C27351   6.110  10.063  11.789  0.6497  0.1154 -0.2999
  944MOL0     C27352   6.245  10.066  11.783 -0.1958 -0.3314  0.0139
  944MOL0     O27353   6.412  10.385  11.827 -0.2886  0.2087 -0.0106
  944MOL0     C27354   6.716  10.187  11.804  0.1896 -0.3983  0.4824
  944MOL0     C27355   6.856  10.197  11.783  0.7091  1.0535  0.7055
  944MOL0     N27356   7.484  10.703  12.085 -0.6800 -0.2355 -0.0733
  944MOL0     N27357   7.580  10.790  12.105 -0.1096 -0.1741  0.1202
  944MOL0     C27358   8.673  11.019  11.620 -0.0053  0.6653 -0.0831
  944MOL0     C27359   8.793  11.061  11.583 -0.9378  0.3026 -0.5073
  944MOL0     C27360   9.118  11.214  11.316 -0.4694  0.0963  0.1022
  944MOL0     C27361   9.208  11.242  11.416  0.6492 -0.4610  0.4689
  944MOL0     C27362   9.350  11.249  11.396 -0.2607  0.1857  0.3258
  944MOL0     C27363   9.408  11.222  11.279  0.9343  0.9197 -0.3747
  944MOL0     O27364   9.540  11.243  11.264 -0.3670 -0.2385 -0.2141
  944MOL0     C27365   9.598  11.251  11.127  0.7070 -0.5904 -0.1728
  944MOL0     C27366   9.732  11.327  11.112 -0.7635  1.1084 -0.0523
  944MOL0     C27367   9.711  11.478  11.126 -0.3137  0.2469  0.5764
  944MOL0     C27368   9.829  11.561  11.054  0.1871  0.5898  0.9023
  944MOL0     C27369   9.820  11.557  10.911  0.4112 -0.1337  0.6597
  944MOL0     C27370   9.817  11.554  10.791 -0.0076  0.8047  0.9419
  944MOL0     C27371   9.325  11.189  11.178  0.6968 -0.4005  0.0636
  944MOL0     C27372   9.180  11.192  11.195 -0.0452  0.7750 -0.0966
  944MOL0     H27373   8.713  11.365  11.449  1.1094 -1.2309 -2.1318
  944MOL0     H27374   8.493  11.301  11.545  0.7369  1.7717 -0.2773
  944MOL0     H27375   8.446  10.859  11.642 -0.0204  0.7371 -1.9645
  944MOL0     H27376   8.438  10.954  11.805 -1.3543 -2.4509  1.2872
  944MOL0     H27377   8.222  10.900  11.600 -3.0954 -0.5122  0.7283
  944MOL0     H27378   8.241  10.807  11.746 -2.1752  0.6692  0.3023
  944MOL0     H27379   8.201  10.995  11.886 -1.6490  3.1819 -0.0251
  944MOL0     H27380   8.189  11.103  11.743 -0.0305 -0.2759 -2.8682
  944MOL0     H27381   7.974  11.033  11.690  1.0485  1.6648 -0.3105
  944MOL0     H27382   8.008  10.859  11.755 -0.3011  0.4204  2.9208
  944MOL0     H27383   7.993  10.987  11.992 -2.7924 -1.1315  0.8889
  944MOL0     H27384   7.972  11.126  11.904  1.2601 -0.3717 -1.2512
  944MOL0     H27385   7.749  11.028  11.816 -0.8649 -0.5982  0.7994
  944MOL0     H27386   7.784  10.880  11.905  1.1393 -0.0538 -0.8282
  944MOL0     H27387   7.785  10.992  12.117 -0.2909 -1.6392 -0.2704
  944MOL0     H27388   7.759  11.152  12.040  2.9603 -0.5507  0.1536
  944MOL0     H27389   7.537  11.090  11.973 -0.3771 -2.2525 -0.7729
  944MOL0     H27390   7.557  11.057  12.144  1.1044 -1.5236  1.2643
  944MOL0     H27391   7.378  10.930  11.888 -1.2213 -1.1980  0.6335
  944MOL0     H27392   7.186  10.722  11.954 -1.1501 -2.8040  1.9375
  944MOL0     H27393   7.296  10.658  11.825  1.0285 -1.4281  0.1201
  944MOL0     H27394   7.264  10.544  12.099  1.8791  0.4619  0.0209
  944MOL0     H27395   7.347  10.475  11.963 -0.0879 -0.0466  0.9206
  944MOL0     H27396   7.044  10.524  11.968  0.3851  0.7749  1.7064
  944MOL0     H27397   7.119  10.369  11.999 -1.8332  0.7900 -0.3859
  944MOL0     H27398   7.233  10.376  11.755 -0.3186  1.0580 -3.7215
  944MOL0     H27399   7.123  10.504  11.725  2.4042  0.3410  0.7120
  944MOL0     H27400   6.890  10.541  11.776  0.9430 -0.7120 -0.1469
  944MOL0     H27401   6.575  10.565  11.899 -1.9591  0.4995 -0.1627
  944MOL0     H27402   6.696  10.648  11.802  0.1245 -0.1919 -0.8296
  944MOL0     H27403   6.554  10.571  11.721 -1.5526 -3.8113  0.4646
  944MOL0     H27404   6.300  10.261  12.056  1.5230  0.3470 -1.6392
  944MOL0     H27405   6.073  10.238  12.090 -0.0214  0.6484 -0.5557
  944MOL0     H27406   5.862  10.111  12.102  1.0996 -0.7878 -0.3629
  944MOL0     H27407   5.848  10.268  12.025  1.5224  0.2713 -0.0657
  944MOL0     H27408   5.662  10.177  11.891  0.1575  1.4145  0.4348
  944MOL0     H27409   5.672  10.026  11.951 -0.2528  0.2841 -1.2447
  944MOL0     H27410   5.642  10.267  12.155  1.9565 -0.9251  0.4451
  944MOL0     H27411   5.584  10.096  12.171 -0.7043  0.7927 -0.7137
  944MOL0     H27412   5.482  10.298  11.962 -2.0079  1.1424 -0.3884
  944MOL0     H27413   5.420  10.139  11.973  0.9700  2.0570 -2.7424
  944MOL0     H27414   5.303  10.338  12.102 -1.3572 -0.9415  0.8109
  944MOL0     H27415   5.425  10.299  12.228  2.5138 -1.6206 -0.0089
  944MOL0     H27416   5.219  10.106  12.088 -0.7422  1.2880  0.1574
  944MOL0     H27417   5.338  10.057  12.193  2.1159  0.8490 -2.0871
  944MOL0     H27418   5.148  10.279  12.310  1.0811  1.2948  0.3435
  944MOL0     H27419   5.238  10.149  12.387  1.5097  1.1005  0.2511
  944MOL0     H27420   5.009  10.120  12.179 -0.1795 -1.6157 -0.0498
  944MOL0     H27421   4.989  10.116  12.362  0.2467 -1.3318  0.7532
  944MOL0     H27422   6.048  10.023  11.710  0.0777  0.5679 -0.1002
  944MOL0     H27423   6.299  10.035  11.694  0.2272 -1.3657  0.6148
  944MOL0     H27424   6.668  10.090  11.799 -0.3735 -0.0777 -1.0280
  944MOL0     H27425   6.913  10.105  11.770 -2.3116 -0.8544 -0.0873
  944MOL0     H27426   8.658  10.922  11.667 -0.0322 -1.0073 -3.2776
  944MOL0     H27427   8.873  10.988  11.589 -0.1749  1.0939 -0.7871
  944MOL0     H27428   9.170  11.251  11.518  0.4855 -1.3786  0.4920
  944MOL0     H27429   9.412  11.276  11.481  3.2076 -0.2628 -1.8403
  944MOL0     H27430   9.608  11.149  11.089 -2.0550  0.0151 -2.9376
  944MOL0     H27431   9.527  11.304  11.063  1.5313 -0.0557 -0.6602
  944MOL0     H27432   9.769  11.295  11.014 -1.6965  4.0740 -1.4804
  944MOL0     H27433   9.791  11.291  11.197  0.4658  0.2619 -1.2273
  944MOL0     H27434   9.709  11.502  11.232 -1.4031 -3.0425  1.4188
  944MOL0     H27435   9.617  11.501  11.075  0.7742 -0.4236 -1.9154
  944MOL0     H27436   9.932  11.527  11.068 -0.2605 -2.0672 -1.4375
  944MOL0     H27437   9.826  11.669  11.071 -1.3267  0.7005  0.0357
  944MOL0     H27438   9.810  11.548  10.684 -1.4238  1.8212  0.9486
  944MOL0     H27439   9.370  11.166  11.082 -0.6506  1.2417 -1.0223
  944MOL0     H27440   9.110  11.148  11.124  3.4216 -3.5760 -1.2875
  945MOL0     O27441   1.066   6.232   5.986 -0.4116  0.5011 -0.1830
  945MOL0     C27442   1.141   6.185   5.899  0.0049  0.2980  0.0469
  945MOL0     O27443   1.103   6.164   5.771 -0.2873 -0.6777  0.4699
  945MOL0     C27444   0.972   6.184   5.743 -0.0206 -1.4863  0.1865
  945MOL0     C27445   0.948   6.300   5.661  0.0715 -0.4960 -0.7639
  945MOL0     C27446   0.812   6.328   5.636  0.8307  0.2646 -0.1666
  945MOL0     C27447   0.704   6.241   5.684  0.0436 -0.2009  0.0644
  945MOL0     O27448   0.581   6.277   5.655  0.5001 -0.4952 -0.3888
  945MOL0     C27449   0.471   6.198   5.698  0.9990  0.3179  0.8836
  945MOL0     C27450   0.359   6.293   5.649 -0.0823  0.2459  0.2047
  945MOL0     C27451   0.217   6.249   5.702 -0.9135  0.9901  0.3537
  945MOL0     C27452   0.106   6.319   5.627  0.2633 -0.0419 -0.3144
  945MOL0     C27453  -0.027   6.277   5.687  0.7470 -0.7566 -0.4532
  945MOL0     C27454  -0.079   6.150   5.635  0.7231  0.0412 -0.4468
  945MOL0     C27455  -0.224   6.116   5.697  0.4227  0.3080 -0.2338
  945MOL0     C27456  -0.207   6.053   5.841  0.6228 -0.4430  0.3405
  945MOL0     N27457  -0.093   5.968   5.868  0.0950  0.2804 -0.1564
  945MOL0     C27458  -0.078   5.837   5.830 -0.4157 -0.1799 -0.8847
  945MOL0     C27459   0.048   5.808   5.873 -0.9187  1.0249 -0.3091
  945MOL0     C27460   0.114   5.671   5.838 -0.3078 -0.8156  0.0751
  945MOL0     C27461   0.057   5.557   5.923 -0.1435  0.5079 -0.0158
  945MOL0     C27462   0.126   5.423   5.872  1.4912 -0.0355  0.1111
  945MOL0     C27463   0.121   5.316   5.985 -0.2761  0.0404  0.7114
  945MOL0     O27464   0.176   5.188   5.952 -0.6585  0.3443 -0.1635
  945MOL0     C27465   0.311   5.164   5.930 -0.9960  0.3613 -0.5858
  945MOL0     C27466   0.342   5.038   5.882 -0.2101  0.1027  0.4015
  945MOL0     C27467   0.477   5.005   5.866 -0.4746  0.7579  0.0678
  945MOL0     C27468   0.497   4.856   5.829  0.1907  0.1438 -0.3086
  945MOL0     C27469   0.583   5.096   5.896 -0.0008 -0.5259  1.2920
  945MOL0     C27470   0.728   5.054   5.882  0.9545 -0.4365  1.3681
  945MOL0     O27471   0.812   5.161   5.911  0.1339 -0.3584 -0.0786
  945MOL0     C27472   0.951   5.163   5.888  0.3614  0.1158 -0.2163
  945MOL0     C27473   1.008   5.113   5.773 -0.1414  0.4550 -0.4620
  945MOL0     C27474   1.146   5.132   5.748 -0.6412  0.6128  0.4565
  945MOL0     C27475   1.228   5.208   5.838 -0.5125  0.0222  0.8205
  945MOL0     O27476   1.365   5.232   5.816  0.2276  0.2171 -0.7662
  945MOL0     C27477   1.417   5.186   5.692  0.0735 -0.1601  0.0546
  945MOL0     C27478   1.558   5.241   5.686  0.1527  0.4786  0.1253
  945MOL0     C27479   1.641   5.200   5.800  0.1939  0.2137 -0.5100
  945MOL0     C27480   1.788   5.165   5.768  0.9325 -0.2319 -0.4195
  945MOL0     C27481   1.887   5.190   5.882 -0.2514 -0.3618  0.1566
  945MOL0     C27482   2.032   5.153   5.842  0.0751  0.5943  0.2909
  945MOL0     C27483   2.130   5.150   5.960 -0.1774 -0.1565 -0.5356
  945MOL0     C27484   2.256   5.098   5.912 -0.1731  0.1614 -0.3329
  945MOL0    Cl27485   2.380   5.119   6.040 -0.3757 -0.4026  0.4624
  945MOL0     C27486   1.166   5.258   5.951 -0.5638 -0.3573 -0.6037
  945MOL0     C27487   1.028   5.237   5.978  0.4762 -0.1118 -0.0275
  945MOL0     O27488   0.760   4.938   5.871  0.7519  0.2108  0.2545
  945MOL0     C27489   0.546   5.223   5.943 -0.9679  0.7847 -0.5100
  945MOL0     C27490   0.411   5.257   5.972 -0.2609 -0.7912 -0.5420
  945MOL0     N27491   0.098   5.916   5.949 -0.5703  0.2373  0.5558
  945MOL0     N27492   0.011   6.007   5.946 -0.2833 -0.2003  0.3633
  945MOL0     C27493   0.734   6.124   5.754  0.2462  0.0473  0.5515
  945MOL0     C27494   0.868   6.099   5.784  0.8936  0.7143 -0.4484
  945MOL0     C27495   1.279   6.171   5.935  0.3509 -0.2330 -0.8730
  945MOL0     C27496   1.374   6.158   5.840  0.1946 -0.4537 -0.2487
  945MOL0     C27497   1.502   6.131   5.876  0.0008  0.1696 -0.2910
  945MOL0     C27498   1.547   6.120   6.008 -0.3589 -0.9210 -0.2150
  945MOL0     O27499   1.678   6.083   6.025 -0.2959 -0.3184 -0.4630
  945MOL0     C27500   1.760   6.193   6.072  0.9943 -0.7310 -0.2726
  945MOL0     C27501   1.905   6.159   6.043  0.4731  0.4147  0.6036
  945MOL0     C27502   2.009   6.269   6.080  0.9328 -0.6323  0.3446
  945MOL0     C27503   2.125   6.261   5.980  0.1693  0.5358 -0.0306
  945MOL0     C27504   2.187   6.126   5.979 -0.0819 -0.2317 -0.2899
  945MOL0     C27505   2.241   6.017   5.986 -0.5310  0.2764 -0.4537
  945MOL0     C27506   1.451   6.167   6.109 -0.3501  0.4559  0.1559
  945MOL0     C27507   1.315   6.181   6.076  0.1354  0.0729 -0.6195
  945MOL0     H27508   1.025   6.367   5.624 -2.6977  1.1551 -4.0448
  945MOL0     H27509   0.793   6.417   5.578  3.0860 -0.4125 -2.1178
  945MOL0     H27510   0.459   6.107   5.637  3.0112  1.0780 -0.7606
  945MOL0     H27511   0.452   6.182   5.805 -2.5821 -3.0761 -0.0203
  945MOL0     H27512   0.375   6.393   5.691  1.8318 -1.4504  4.0002
  945MOL0     H27513   0.373   6.289   5.541 -0.3350 -1.0679  0.2017
  945MOL0     H27514   0.198   6.142   5.692  1.6173  0.4352  0.9958
  945MOL0     H27515   0.209   6.264   5.810 -0.4208 -2.7074  1.0172
  945MOL0     H27516   0.118   6.426   5.645  0.0125 -0.4400  2.7730
  945MOL0     H27517   0.109   6.297   5.520  1.8312 -3.5868  0.3078
  945MOL0     H27518  -0.019   6.269   5.796 -4.2877 -0.6281  0.1661
  945MOL0     H27519  -0.096   6.361   5.669  1.5429  1.5253  4.9896
  945MOL0     H27520  -0.088   6.149   5.526 -3.8021  1.4456 -0.3032
  945MOL0     H27521  -0.002   6.077   5.659  1.1445  0.5636 -0.2032
  945MOL0     H27522  -0.277   6.211   5.705  0.2728  0.2922 -0.9578
  945MOL0     H27523  -0.276   6.053   5.624 -1.2903  1.3067  0.0856
  945MOL0     H27524  -0.298   5.994   5.860 -0.8766  1.5356 -0.3096
  945MOL0     H27525  -0.206   6.139   5.909 -0.9920  0.6425 -0.9120
  945MOL0     H27526  -0.137   5.768   5.771 -1.6955 -0.9087  1.1644
  945MOL0     H27527   0.103   5.655   5.730  1.8027  1.5292 -0.5634
  945MOL0     H27528   0.219   5.690   5.860 -1.1879  3.0271  1.7862
  945MOL0     H27529  -0.051   5.548   5.909 -0.2744 -1.2747  1.6605
  945MOL0     H27530   0.078   5.586   6.026 -0.0790  3.6274 -0.8063
  945MOL0     H27531   0.231   5.442   5.846  1.2721  0.6691 -0.2832
  945MOL0     H27532   0.081   5.396   5.775 -0.2976  2.9543 -0.0074
  945MOL0     H27533   0.017   5.299   6.014 -0.3392 -0.4543  0.2038
  945MOL0     H27534   0.173   5.349   6.076 -1.1971 -0.6519  1.4985
  945MOL0     H27535   0.265   4.964   5.864  1.7131 -1.5992 -1.3148
  945MOL0     H27536   0.406   4.810   5.790 -0.8868  0.6300  1.4948
  945MOL0     H27537   0.573   4.841   5.752  0.3564 -0.2619 -0.0751
  945MOL0     H27538   0.529   4.794   5.914  0.0234  2.3234  1.4451
  945MOL0     H27539   0.936   5.074   5.702 -2.1060 -0.8742  2.1082
  945MOL0     H27540   1.175   5.070   5.664  2.0488  0.6851  1.2496
  945MOL0     H27541   1.418   5.077   5.686 -0.3672 -0.2766  1.5933
  945MOL0     H27542   1.360   5.225   5.607  0.1197  2.2851  1.0360
  945MOL0     H27543   1.605   5.204   5.594  1.6638  0.5808  0.8295
  945MOL0     H27544   1.555   5.349   5.672  0.2365  0.3208 -1.2961
  945MOL0     H27545   1.597   5.112   5.849 -0.5893 -0.9259 -3.1166
  945MOL0     H27546   1.641   5.279   5.876 -0.4938 -2.2484  2.2445
  945MOL0     H27547   1.797   5.062   5.731  2.4801 -0.9091  1.6306
  945MOL0     H27548   1.814   5.228   5.682  0.3111 -2.1184 -2.0810
  945MOL0     H27549   1.861   5.122   5.964 -1.1847  0.3532  0.4658
  945MOL0     H27550   1.881   5.295   5.912 -1.1189 -0.4111  0.1680
  945MOL0     H27551   2.028   5.058   5.788  0.3888  0.6336  0.1954
  945MOL0     H27552   2.064   5.222   5.763  1.5015 -0.3400  0.0127
  945MOL0     H27553   2.094   5.096   6.048 -0.7182 -1.1165 -1.3232
  945MOL0     H27554   2.149   5.251   5.997  0.4548 -0.6021  0.4041
  945MOL0     H27555   2.287   5.142   5.817 -2.2380 -2.0993 -2.2190
  945MOL0     H27556   2.250   4.991   5.889  2.0317  0.2149 -1.3365
  945MOL0     H27557   1.225   5.313   6.023 -3.6989  1.1431  1.0093
  945MOL0     H27558   0.988   5.287   6.066  1.4190  0.5243  0.0501
  945MOL0     H27559   0.624   5.295   5.967 -0.5858  0.4295 -0.6794
  945MOL0     H27560   0.394   5.356   6.014 -2.4532 -1.5280  0.4248
  945MOL0     H27561   0.661   6.053   5.790 -1.2182 -0.0009 -2.2544
  945MOL0     H27562   0.901   6.011   5.839  0.6025  0.4022 -0.7632
  945MOL0     H27563   1.351   6.175   5.735 -0.9455 -0.3672  0.0075
  945MOL0     H27564   1.570   6.095   5.799  0.6934  0.4705  0.1719
  945MOL0     H27565   1.740   6.293   6.033 -0.0015 -0.4173  1.0164
  945MOL0     H27566   1.747   6.206   6.179 -0.7149 -1.7780 -0.3204
  945MOL0     H27567   1.894   6.144   5.935  0.9883 -1.2733  0.7601
  945MOL0     H27568   1.928   6.066   6.096 -1.7188 -0.6603 -0.1942
  945MOL0     H27569   2.052   6.248   6.178 -0.2721 -0.0169  1.0165
  945MOL0     H27570   1.955   6.364   6.081  1.0499 -0.5569 -0.0186
  945MOL0     H27571   2.197   6.339   6.008  1.3246  0.3307 -2.2589
  945MOL0     H27572   2.091   6.269   5.876  0.1218  0.5606 -0.0132
  945MOL0     H27573   2.311   5.937   5.997 -0.7360  0.2571  0.8550
  945MOL0     H27574   1.489   6.167   6.210 -1.8427 -1.4995  0.7932
  945MOL0     H27575   1.244   6.206   6.155 -0.2214  1.6283 -1.3887
  946MOL0     O27576   9.267   4.445   1.139 -0.2129 -0.1521  0.0725
  946MOL0     C27577   9.288   4.561   1.163  0.6904  0.8200 -0.1893
  946MOL0     O27578   9.196   4.664   1.176  0.4785  0.0714  0.3130
  946MOL0     C27579   9.065   4.632   1.137  0.1033 -0.4152 -0.2978
  946MOL0     C27580   8.980   4.557   1.219  0.4503  0.2154 -0.3886
  946MOL0     C27581   8.845   4.545   1.182  0.3732 -0.0150 -0.1103
  946MOL0     C27582   8.791   4.610   1.073 -0.6476 -0.5890 -0.0632
  946MOL0     O27583   8.650   4.611   1.056 -0.8146  0.7153  0.0316
  946MOL0     C27584   8.583   4.676   0.952 -0.6013  0.0300  0.4098
  946MOL0     C27585   8.441   4.688   0.977 -0.2001 -0.2282 -0.1426
  946MOL0     C27586   8.382   4.551   1.009 -0.0566 -0.3612  0.4940
  946MOL0     C27587   8.237   4.555   0.988  0.2402  0.1974 -0.3644
  946MOL0     C27588   8.185   4.546   0.846 -0.1832 -0.1172  0.3617
  946MOL0     C27589   8.032   4.562   0.852 -0.3819  0.0538  0.9410
  946MOL0     C27590   7.986   4.709   0.827 -0.8653  0.2976  0.4437
  946MOL0     C27591   7.836   4.724   0.836 -0.5548 -0.2768 -0.7538
  946MOL0     N27592   7.814   4.872   0.853 -0.5701 -0.6256 -0.3220
  946MOL0     C27593   7.741   4.931   0.958 -0.0668  0.7693 -0.3940
  946MOL0     C27594   7.726   5.056   0.918  0.0529 -0.5453  0.7863
  946MOL0     C27595   7.645   5.162   0.986  0.8571 -0.0963 -0.2674
  946MOL0     C27596   7.500   5.131   0.964  0.3981 -0.2861 -0.2708
  946MOL0     C27597   7.414   5.244   1.011 -0.3744 -0.3480  0.2431
  946MOL0     C27598   7.277   5.215   1.050  0.1582 -0.0401 -0.3353
  946MOL0     O27599   7.208   5.160   0.939  0.5048  0.3425 -0.8468
  946MOL0     C27600   7.072   5.168   0.967  0.5396  0.2170 -0.3831
  946MOL0     C27601   6.994   5.275   0.927 -0.0101 -0.8036  0.7786
  946MOL0     C27602   6.856   5.279   0.952 -0.4126 -0.0477  0.0997
  946MOL0     C27603   6.796   5.405   0.899 -0.5187 -0.0121 -0.1441
  946MOL0     C27604   6.786   5.184   1.024  0.5099 -0.0079 -0.8713
  946MOL0     C27605   6.645   5.197   1.069 -0.3527 -1.4124  0.1261
  946MOL0     O27606   6.605   5.104   1.152 -0.0020  0.3936  0.0493
  946MOL0     C27607   6.468   5.097   1.173 -0.0347  0.3595  0.0510
  946MOL0     C27608   6.423   5.133   1.304  0.6094 -0.3482  0.7513
  946MOL0     C27609   6.296   5.103   1.355  0.6144 -0.5881  0.0426
  946MOL0     C27610   6.209   5.043   1.271  0.2813 -0.1885  0.2426
  946MOL0     O27611   6.085   5.004   1.315 -0.0370  0.0420 -1.2926
  946MOL0     C27612   6.080   4.873   1.367  0.1636  0.5360 -0.2737
  946MOL0     C27613   5.939   4.824   1.391  0.2485 -1.1114 -0.3381
  946MOL0     C27614   5.857   4.825   1.259 -0.1561  0.5767 -0.0568
  946MOL0     C27615   5.718   4.756   1.274 -0.5959  0.6675 -0.1323
  946MOL0     C27616   5.633   4.815   1.385 -0.0728 -0.5213 -0.0497
  946MOL0     C27617   5.584   4.955   1.356  0.5248  0.0909 -0.2124
  946MOL0     C27618   5.473   5.003   1.459 -0.0078  0.8593 -0.1638
  946MOL0     C27619   5.396   5.126   1.414  0.7303  0.1423  0.8688
  946MOL0    Cl27620   5.299   5.097   1.271  0.2896  0.2532 -0.3717
  946MOL0     C27621   6.245   5.007   1.140 -0.0820  1.3276 -0.4825
  946MOL0     C27622   6.376   5.026   1.097 -0.0846 -0.7550  0.5078
  946MOL0     O27623   6.583   5.296   1.029 -0.1892 -0.0716 -0.2406
  946MOL0     C27624   6.866   5.071   1.072  0.1620  0.1725  0.6771
  946MOL0     C27625   6.999   5.062   1.035  0.1874 -0.0151  0.1673
  946MOL0     N27626   7.788   5.076   0.794  0.3624  0.7905 -0.3769
  946MOL0     N27627   7.836   4.964   0.755  0.1611 -0.3263 -0.4873
  946MOL0     C27628   8.882   4.664   0.980  0.7373  0.1218  0.5335
  946MOL0     C27629   9.013   4.689   1.018 -0.2399 -0.0425  0.7382
  946MOL0     C27630   9.424   4.600   1.212  0.2263 -0.6644  0.1219
  946MOL0     C27631   9.443   4.715   1.285 -0.7961 -0.9059  0.9260
  946MOL0     C27632   9.570   4.755   1.322 -0.3907 -0.7471  0.3744
  946MOL0     C27633   9.680   4.675   1.307  0.4100 -0.6109  0.3373
  946MOL0     O27634   9.802   4.713   1.356 -1.0727  0.4398 -0.0229
  946MOL0     C27635   9.931   4.655   1.313  0.2583 -0.3053 -0.3877
  946MOL0     C27636  10.052   4.690   1.402  0.1165  0.4703 -0.5728
  946MOL0     C27637  10.032   4.630   1.546  0.6945 -0.1366 -0.5787
  946MOL0     C27638  10.154   4.654   1.635  0.2403 -0.7319 -0.4319
  946MOL0     C27639  10.263   4.584   1.573  1.5356 -0.1788  1.2500
  946MOL0     C27640  10.344   4.514   1.521  0.3457 -0.1239 -0.6294
  946MOL0     C27641   9.660   4.547   1.245  0.6395  0.1950  0.5069
  946MOL0     C27642   9.535   4.514   1.198 -0.6090  0.6218  0.4356
  946MOL0     H27643   9.032   4.512   1.303  0.2060 -0.1010 -0.4028
  946MOL0     H27644   8.773   4.491   1.242  0.0794 -2.2211 -2.3045
  946MOL0     H27645   8.637   4.768   0.928 -0.1410  0.2901  2.3047
  946MOL0     H27646   8.598   4.605   0.870 -0.0406 -0.2259  0.7270
  946MOL0     H27647   8.411   4.745   1.066 -1.8607 -0.0090 -0.8256
  946MOL0     H27648   8.402   4.733   0.886  2.9684  2.2619 -0.4494
  946MOL0     H27649   8.426   4.478   0.941  1.6878 -2.4799  3.6223
  946MOL0     H27650   8.403   4.514   1.110  2.8901 -1.5655 -0.4696
  946MOL0     H27651   8.202   4.470   1.047  2.0293 -0.0629  0.3749
  946MOL0     H27652   8.199   4.650   1.028  1.4087 -0.4404  2.4565
  946MOL0     H27653   8.241   4.615   0.782  2.5982 -1.5969  1.0335
  946MOL0     H27654   8.204   4.445   0.809 -2.5869 -1.4133  2.3529
  946MOL0     H27655   7.990   4.509   0.767  0.8118  0.5114  0.0414
  946MOL0     H27656   7.990   4.532   0.949 -3.0642 -0.4778 -0.3003
  946MOL0     H27657   8.035   4.771   0.903 -1.1386  0.6454  0.3376
  946MOL0     H27658   8.023   4.744   0.730  2.3618  0.1316  1.4845
  946MOL0     H27659   7.786   4.662   0.910  0.7232 -2.9550 -2.0126
  946MOL0     H27660   7.796   4.692   0.739 -1.2616  1.1172 -0.9579
  946MOL0     H27661   7.689   4.889   1.044 -2.9769 -0.2955 -2.5171
  946MOL0     H27662   7.652   5.157   1.095 -1.1895 -2.2037 -0.1771
  946MOL0     H27663   7.672   5.261   0.947  1.1439  0.4208  1.1778
  946MOL0     H27664   7.468   5.037   1.011 -2.4696  1.2757  1.2363
  946MOL0     H27665   7.479   5.111   0.859  0.1886 -1.9564  0.0643
  946MOL0     H27666   7.408   5.316   0.928  0.1793  0.9529  1.2946
  946MOL0     H27667   7.461   5.297   1.094 -1.2988  2.7274 -1.0606
  946MOL0     H27668   7.229   5.300   1.099 -1.0528 -0.6147 -0.5071
  946MOL0     H27669   7.289   5.133   1.121  3.0317 -1.1066 -1.8950
  946MOL0     H27670   7.042   5.359   0.878 -2.3932  0.4069  0.4092
  946MOL0     H27671   6.765   5.469   0.982 -2.1135 -2.5800  1.3807
  946MOL0     H27672   6.867   5.460   0.837  0.7208  1.3668  2.3352
  946MOL0     H27673   6.706   5.385   0.840 -0.2812 -2.0200  0.1093
  946MOL0     H27674   6.501   5.183   1.360  0.6151  0.9470 -0.3492
  946MOL0     H27675   6.262   5.138   1.452 -1.4941  1.6333 -1.3974
  946MOL0     H27676   6.130   4.813   1.290  0.8411  0.9902 -0.1914
  946MOL0     H27677   6.149   4.868   1.451  1.0036  0.1155 -0.9734
  946MOL0     H27678   5.936   4.723   1.434  4.0393 -1.2067  0.0213
  946MOL0     H27679   5.892   4.883   1.471 -0.6592 -2.7175  0.3598
  946MOL0     H27680   5.904   4.763   1.183  1.1362  3.0438 -1.4130
  946MOL0     H27681   5.839   4.923   1.213 -2.8842 -0.1757 -0.8276
  946MOL0     H27682   5.676   4.755   1.173  3.1244  2.8163 -1.9466
  946MOL0     H27683   5.722   4.651   1.305  0.0665  0.5842 -0.4800
  946MOL0     H27684   5.688   4.821   1.480 -0.6900 -2.9122  0.5210
  946MOL0     H27685   5.545   4.753   1.405 -0.8298 -0.2696 -2.3277
  946MOL0     H27686   5.670   5.023   1.353  0.6551 -0.1245 -2.6149
  946MOL0     H27687   5.543   4.962   1.255 -0.5236  1.0848  0.2582
  946MOL0     H27688   5.507   5.024   1.560 -3.3416  0.0682  1.2478
  946MOL0     H27689   5.404   4.919   1.467  0.6555  0.4983  2.7090
  946MOL0     H27690   5.461   5.212   1.394 -0.0558  0.6543  0.4667
  946MOL0     H27691   5.326   5.158   1.491 -1.3954  1.6439 -1.5093
  946MOL0     H27692   6.166   4.956   1.086 -0.9254  1.6192  0.4516
  946MOL0     H27693   6.404   4.993   0.998 -2.2870 -0.7942 -0.1660
  946MOL0     H27694   6.824   4.987   1.127  0.7295  0.7428  2.0284
  946MOL0     H27695   7.045   4.968   1.064 -1.9553 -1.2284 -0.1699
  946MOL0     H27696   8.849   4.703   0.885 -0.8934 -0.6754  0.7436
  946MOL0     H27697   9.078   4.755   0.961 -1.3137 -0.3636 -0.9177
  946MOL0     H27698   9.357   4.781   1.294 -2.4255 -3.1197  2.7447
  946MOL0     H27699   9.568   4.857   1.358 -2.2063  0.6639 -3.2286
  946MOL0     H27700   9.913   4.547   1.323 -0.7699 -0.0505  0.7979
  946MOL0     H27701   9.956   4.692   1.214  0.9359  0.0935 -0.0776
  946MOL0     H27702  10.076   4.797   1.400  2.6868  0.0160  1.0041
  946MOL0     H27703  10.137   4.647   1.349 -1.7907 -2.5111 -1.4418
  946MOL0     H27704  10.007   4.525   1.530 -2.3684  0.3789  0.1437
  946MOL0     H27705   9.946   4.673   1.598  1.4796 -0.7267  1.3271
  946MOL0     H27706  10.130   4.607   1.731 -2.2933 -2.3221 -1.7342
  946MOL0     H27707  10.181   4.759   1.645 -0.5205 -0.5529 -0.1785
  946MOL0     H27708  10.421   4.463   1.466  3.0159  1.0910  1.7367
  946MOL0     H27709   9.748   4.487   1.226 -0.7314 -2.0886  1.0281
  946MOL0     H27710   9.524   4.418   1.147 -0.4939 -0.2038  1.9075
  947MOL0     O27711   7.418   0.750   2.307  0.0820 -0.3975 -0.5473
  947MOL0     C27712   7.466   0.741   2.196  0.3319  0.6870 -0.3020
  947MOL0     O27713   7.402   0.774   2.083 -0.5621  0.0347  0.2535
  947MOL0     C27714   7.269   0.780   2.080  0.7543 -0.4463 -0.8924
  947MOL0     C27715   7.193   0.684   2.152  1.4493  0.6421 -0.3675
  947MOL0     C27716   7.057   0.666   2.137  0.1592  1.1431  0.3249
  947MOL0     C27717   6.991   0.753   2.048  0.7230  0.3905  0.2468
  947MOL0     O27718   6.855   0.745   2.020  0.1268  0.2822  0.3408
  947MOL0     C27719   6.765   0.785   2.128 -0.3356 -0.0550 -0.1871
  947MOL0     C27720   6.753   0.938   2.125 -0.4339  0.0547  0.3493
  947MOL0     C27721   6.681   0.992   2.000 -0.1685 -0.9276  0.2921
  947MOL0     C27722   6.635   1.137   2.014 -0.4058 -0.1939 -0.6802
  947MOL0     C27723   6.540   1.180   1.891 -0.4594  0.3423  0.2920
  947MOL0     C27724   6.402   1.128   1.894 -0.7099  0.5077  0.0403
  947MOL0     C27725   6.309   1.180   1.780 -0.2601 -1.4553 -0.7363
  947MOL0     C27726   6.167   1.130   1.813 -0.3118 -0.2985  0.0437
  947MOL0     N27727   6.079   1.165   1.701  0.1619  0.1920  0.6161
  947MOL0     C27728   5.966   1.237   1.694  0.0357  0.2791  0.1225
  947MOL0     C27729   5.922   1.226   1.561 -0.8420 -0.7170  0.1995
  947MOL0     C27730   5.790   1.287   1.502 -0.5285  0.6146 -0.7252
  947MOL0     C27731   5.791   1.297   1.348 -0.9613  0.5092 -0.2463
  947MOL0     C27732   5.790   1.169   1.270 -0.2192  0.1491  0.9777
  947MOL0     C27733   5.656   1.105   1.294  0.8982 -0.4812  0.7105
  947MOL0     O27734   5.542   1.201   1.274 -0.5766  0.0266 -1.3125
  947MOL0     C27735   5.421   1.149   1.282 -0.2933  0.1480  0.8005
  947MOL0     C27736   5.375   1.019   1.247 -0.0387 -0.3012  0.2590
  947MOL0     C27737   5.235   0.994   1.247 -0.1777 -0.3491  0.2733
  947MOL0     C27738   5.188   0.853   1.188  0.6223 -0.3090 -0.0014
  947MOL0     C27739   5.141   1.096   1.281  0.5961  0.0961 -1.2275
  947MOL0     C27740   4.995   1.080   1.270  0.8567  0.0048 -0.1548
  947MOL0     O27741   4.917   1.193   1.297  0.9027  0.3787  1.3211
  947MOL0     C27742   4.785   1.154   1.295 -0.2280 -0.0063  0.0924
  947MOL0     C27743   4.708   1.178   1.181 -0.5415  0.3649  0.1796
  947MOL0     C27744   4.566   1.174   1.188  0.2331  1.0597  0.3418
  947MOL0     C27745   4.502   1.129   1.303  0.3732 -1.1878 -0.2734
  947MOL0     O27746   4.368   1.114   1.298  0.5858  0.1098  1.4954
  947MOL0     C27747   4.302   1.008   1.377 -0.6744 -0.4971 -0.0227
  947MOL0     C27748   4.166   0.987   1.320 -0.5728  0.2935  0.5507
  947MOL0     C27749   4.111   0.844   1.356 -0.0019  0.0938 -0.0180
  947MOL0     C27750   3.968   0.819   1.304 -0.3709  0.6557  0.0328
  947MOL0     C27751   3.870   0.925   1.334 -0.1946 -1.0049 -0.1682
  947MOL0     C27752   3.727   0.885   1.338 -0.4751  0.3840  0.7345
  947MOL0     C27753   3.626   0.992   1.389 -0.6401 -0.9636 -0.0555
  947MOL0     C27754   3.484   0.934   1.404  0.2219  0.0893 -0.1428
  947MOL0    Cl27755   3.378   1.075   1.468 -0.6146 -0.2654 -0.0632
  947MOL0     C27756   4.584   1.100   1.418  1.0325  0.1073  0.0138
  947MOL0     C27757   4.727   1.114   1.410  0.5771  0.1713  0.4802
  947MOL0     O27758   4.951   0.968   1.236 -0.2114  0.0577  0.3215
  947MOL0     C27759   5.190   1.219   1.326 -0.5802 -0.0521  0.6359
  947MOL0     C27760   5.324   1.245   1.328  0.0678 -0.0025 -0.0558
  947MOL0     N27761   6.015   1.152   1.493 -0.1846 -0.3399 -0.2565
  947MOL0     N27762   6.099   1.122   1.579 -0.4380  0.7884  0.0795
  947MOL0     C27763   7.066   0.852   1.981 -0.1500  0.3221 -0.2861
  947MOL0     C27764   7.200   0.868   1.996  0.0034 -0.4867  0.4305
  947MOL0     C27765   7.609   0.699   2.194  0.0236  0.0724 -0.1620
  947MOL0     C27766   7.685   0.664   2.309 -0.8669 -0.5949  0.2099
  947MOL0     C27767   7.814   0.616   2.297 -0.1666 -0.4372  0.0236
  947MOL0     C27768   7.881   0.621   2.173 -0.5267  0.4017 -0.7156
  947MOL0     O27769   8.017   0.595   2.163  0.1895  0.0535  0.7449
  947MOL0     C27770   8.111   0.702   2.180 -0.0960  0.6547  0.0619
  947MOL0     C27771   8.159   0.733   2.322 -0.1169 -0.0918  0.6513
  947MOL0     C27772   8.202   0.606   2.395  0.1295 -0.1947  0.4161
  947MOL0     C27773   8.356   0.602   2.419 -0.9892 -0.0176  0.5701
  947MOL0     C27774   8.400   0.719   2.503 -0.1585  0.4790 -0.3715
  947MOL0     C27775   8.429   0.809   2.580 -0.0768  0.4030 -0.5872
  947MOL0     C27776   7.800   0.653   2.061 -0.1215  0.9049 -0.2128
  947MOL0     C27777   7.670   0.692   2.074 -0.0213 -0.7676  0.6960
  947MOL0     H27778   7.232   0.609   2.220  1.2331  0.7131 -0.1648
  947MOL0     H27779   7.008   0.581   2.183  0.6208 -0.1469 -1.4832
  947MOL0     H27780   6.665   0.744   2.111  0.2321 -2.6636  2.0506
  947MOL0     H27781   6.793   0.732   2.219 -1.4598 -0.6704 -0.1831
  947MOL0     H27782   6.700   0.959   2.218  1.5965 -2.1309  2.1549
  947MOL0     H27783   6.845   0.996   2.115 -2.5660  3.4113 -1.4442
  947MOL0     H27784   6.746   0.991   1.912 -0.5896 -0.3865 -0.0356
  947MOL0     H27785   6.596   0.925   1.982 -0.3960  0.1417 -3.4596
  947MOL0     H27786   6.582   1.156   2.108  1.0740  0.4043  0.0740
  947MOL0     H27787   6.724   1.201   2.013 -1.4144  1.2949  0.5882
  947MOL0     H27788   6.528   1.288   1.900  0.0576  0.4026  0.2502
  947MOL0     H27789   6.600   1.150   1.804  1.0326  2.1242  0.6600
  947MOL0     H27790   6.424   1.025   1.866  1.0341  1.6284 -3.3509
  947MOL0     H27791   6.358   1.142   1.993 -1.2772 -1.3815  0.1009
  947MOL0     H27792   6.308   1.288   1.761 -3.8461 -1.3674 -0.7592
  947MOL0     H27793   6.338   1.130   1.687  0.8571 -0.5786 -0.8800
  947MOL0     H27794   6.126   1.185   1.897  0.8841  0.6475  0.0339
  947MOL0     H27795   6.162   1.026   1.846  5.7221  0.2322  4.1906
  947MOL0     H27796   5.917   1.280   1.781 -1.3267  0.7274 -0.8289
  947MOL0     H27797   5.705   1.231   1.541 -0.7442  1.5591  0.2027
  947MOL0     H27798   5.773   1.385   1.548  2.9991  0.7272  0.6673
  947MOL0     H27799   5.884   1.344   1.314  0.0370 -0.8775  0.5227
  947MOL0     H27800   5.703   1.361   1.335 -2.6849 -1.1878  2.3343
  947MOL0     H27801   5.867   1.101   1.307 -2.0425 -1.5200  1.8626
  947MOL0     H27802   5.796   1.191   1.163 -6.3061  0.8660  0.4502
  947MOL0     H27803   5.655   1.062   1.394 -1.4230 -1.6219  0.2777
  947MOL0     H27804   5.638   1.021   1.225  1.3458 -0.7767  0.9523
  947MOL0     H27805   5.451   0.951   1.210  4.1344  4.1240 -0.2755
  947MOL0     H27806   5.142   0.849   1.089  0.3501 -1.8840  0.1491
  947MOL0     H27807   5.272   0.783   1.187 -0.2217 -1.3714 -1.1794
  947MOL0     H27808   5.128   0.795   1.259 -0.8856 -3.7676 -3.6670
  947MOL0     H27809   4.748   1.209   1.085 -1.0474  0.5436  0.0280
  947MOL0     H27810   4.509   1.192   1.098 -0.8188  0.6820  0.9077
  947MOL0     H27811   4.365   0.919   1.367  1.8120  1.1838 -0.2864
  947MOL0     H27812   4.298   1.050   1.478  0.8162  0.7812 -0.4422
  947MOL0     H27813   4.103   1.072   1.347 -1.8641 -0.2006 -0.7891
  947MOL0     H27814   4.184   0.988   1.212  2.2380  3.6404  0.8434
  947MOL0     H27815   4.112   0.830   1.465  0.1014 -2.6279 -0.2870
  947MOL0     H27816   4.172   0.762   1.317  1.8122  1.0094  0.8046
  947MOL0     H27817   3.976   0.821   1.195 -1.0300 -1.5477 -0.1033
  947MOL0     H27818   3.931   0.722   1.339 -1.9835  0.8599 -1.0377
  947MOL0     H27819   3.879   1.012   1.267  1.6412 -1.8639 -1.1072
  947MOL0     H27820   3.883   0.977   1.429 -1.1660 -1.4374  0.2217
  947MOL0     H27821   3.705   0.869   1.232 -2.6563  3.8214  0.5270
  947MOL0     H27822   3.711   0.799   1.404 -1.3233  1.0146  1.3661
  947MOL0     H27823   3.623   1.079   1.323  0.5298  0.9779  2.2743
  947MOL0     H27824   3.655   1.029   1.488 -1.8329 -2.1164  0.7693
  947MOL0     H27825   3.482   0.864   1.489 -0.6605 -1.0866 -1.1094
  947MOL0     H27826   3.445   0.894   1.310  0.1244 -1.0040  0.3449
  947MOL0     H27827   4.535   1.068   1.510 -0.4214  1.7746 -0.1209
  947MOL0     H27828   4.779   1.083   1.500 -0.6053 -2.0367  0.4878
  947MOL0     H27829   5.132   1.307   1.349  0.1843  0.8378 -0.7253
  947MOL0     H27830   5.371   1.338   1.358  2.1359 -0.8311 -0.5236
  947MOL0     H27831   7.016   0.915   1.908 -0.4889 -0.6316 -0.8992
  947MOL0     H27832   7.262   0.938   1.941  0.4942  0.9571  2.6590
  947MOL0     H27833   7.636   0.674   2.405  1.2016  0.0325  1.2535
  947MOL0     H27834   7.870   0.604   2.389 -0.9634  1.7843  0.8840
  947MOL0     H27835   8.198   0.684   2.115 -1.1099 -0.6968 -0.9796
  947MOL0     H27836   8.066   0.794   2.142  2.9030  2.5904  0.7771
  947MOL0     H27837   8.070   0.769   2.375  0.8208 -0.4839  2.5701
  947MOL0     H27838   8.230   0.815   2.316 -1.7457  1.3899  0.7907
  947MOL0     H27839   8.189   0.519   2.331  0.0201  1.7183 -2.3500
  947MOL0     H27840   8.139   0.590   2.483  0.7395 -1.6116  0.6319
  947MOL0     H27841   8.414   0.602   2.326 -3.1750  1.8522 -0.9057
  947MOL0     H27842   8.368   0.504   2.466 -0.2150  0.4730  1.4230
  947MOL0     H27843   8.455   0.890   2.645 -2.1569  0.5420  0.1349
  947MOL0     H27844   7.852   0.628   1.968 -1.7597 -0.4542 -0.8079
  947MOL0     H27845   7.623   0.710   1.978 -1.2867 -4.0017  0.6016
  948MOL0     O27846   7.399   2.012   6.450  0.2881 -0.0680  0.1124
  948MOL0     C27847   7.366   2.115   6.400 -0.4653 -0.1288 -0.7682
  948MOL0     O27848   7.242   2.174   6.402 -0.0131  0.3049 -0.4736
  948MOL0     C27849   7.129   2.100   6.434 -0.1981  0.0995  0.1508
  948MOL0     C27850   7.101   1.970   6.388  0.0896  0.4946 -0.6419
  948MOL0     C27851   6.982   1.909   6.419 -0.3481 -0.4651  0.0672
  948MOL0     C27852   6.888   1.975   6.498 -0.5249  0.8284 -0.8868
  948MOL0     O27853   6.763   1.934   6.514  0.5025 -0.0608 -0.5636
  948MOL0     C27854   6.746   1.789   6.537 -0.5915  1.0369  0.0461
  948MOL0     C27855   6.621   1.748   6.608  0.4382 -0.3310 -0.5225
  948MOL0     C27856   6.496   1.753   6.510 -0.6522  0.1745  0.0458
  948MOL0     C27857   6.363   1.760   6.584  0.6381  0.1865 -0.1346
  948MOL0     C27858   6.253   1.750   6.485 -0.2444  0.9248  0.4442
  948MOL0     C27859   6.228   1.612   6.425 -0.0603 -0.0292  0.4586
  948MOL0     C27860   6.124   1.624   6.319 -0.9651  1.2982 -0.5658
  948MOL0     C27861   5.998   1.697   6.349  0.1662 -0.6217  0.4673
  948MOL0     N27862   5.920   1.639   6.462  0.7374  0.2289  0.2160
  948MOL0     C27863   5.861   1.517   6.449 -0.3077  0.5233  0.8475
  948MOL0     C27864   5.806   1.489   6.565 -0.5712  0.0885 -0.6447
  948MOL0     C27865   5.743   1.366   6.613 -0.2546 -0.0999  0.2047
  948MOL0     C27866   5.593   1.387   6.610 -0.0576  0.2377 -0.3273
  948MOL0     C27867   5.547   1.485   6.714  0.1790 -0.0654 -0.2499
  948MOL0     C27868   5.396   1.481   6.737  0.4171  0.0414  0.4663
  948MOL0     O27869   5.359   1.371   6.824  1.0862 -0.0299  0.1044
  948MOL0     C27870   5.230   1.370   6.864  0.4442  0.1587  0.4886
  948MOL0     C27871   5.197   1.247   6.919  0.0816  0.6887  0.9472
  948MOL0     C27872   5.066   1.207   6.966 -0.5459 -0.2005 -0.5588
  948MOL0     C27873   5.038   1.064   7.009 -0.5616  0.2555  0.5705
  948MOL0     C27874   4.972   1.316   6.974  0.5316  0.3250  0.6459
  948MOL0     C27875   4.838   1.301   7.041  0.5948 -0.0242  0.5986
  948MOL0     O27876   4.805   1.181   7.093  0.1825  0.2879  0.5303
  948MOL0     C27877   4.692   1.162   7.164  0.1454  0.9474  0.1621
  948MOL0     C27878   4.708   1.109   7.295 -0.4193  0.1047  0.3281
  948MOL0     C27879   4.596   1.089   7.374 -0.2551  0.5433 -0.2072
  948MOL0     C27880   4.468   1.121   7.322 -0.4579  0.0447 -0.0862
  948MOL0     O27881   4.375   1.088   7.417  0.2734  0.4270  0.8937
  948MOL0     C27882   4.233   1.121   7.411 -0.0659  0.1874  0.2137
  948MOL0     C27883   4.127   1.002   7.395  0.6122  0.6328 -0.5699
  948MOL0     C27884   4.030   1.011   7.274  0.5850 -0.0626 -0.2653
  948MOL0     C27885   4.102   0.989   7.146  0.2541  0.5324 -0.2622
  948MOL0     C27886   4.009   0.935   7.039 -0.3193  0.1222  0.2544
  948MOL0     C27887   4.101   0.875   6.930  1.2402 -0.1802 -0.5756
  948MOL0     C27888   4.017   0.864   6.799  0.1840  0.3322  0.5936
  948MOL0     C27889   4.103   0.788   6.694  0.2725 -0.5903 -0.7672
  948MOL0    Cl27890   4.018   0.754   6.540  0.4258 -0.3619 -0.2890
  948MOL0     C27891   4.452   1.172   7.195  0.3881  0.2838  0.0900
  948MOL0     C27892   4.566   1.187   7.115 -0.4491  0.6549 -0.2374
  948MOL0     O27893   4.771   1.402   7.045 -0.8221  0.0804  0.3329
  948MOL0     C27894   5.008   1.443   6.926 -0.6884 -0.3997  0.3415
  948MOL0     C27895   5.134   1.469   6.868 -0.0197 -0.0869  0.1178
  948MOL0     N27896   5.827   1.598   6.646 -0.4332  0.4792  0.8122
  948MOL0     N27897   5.903   1.676   6.591 -0.7951 -0.4296 -0.0917
  948MOL0     C27898   6.912   2.113   6.534 -0.4675  0.8045  0.4126
  948MOL0     C27899   7.033   2.165   6.509 -0.4782  0.3358 -0.3051
  948MOL0     C27900   7.486   2.193   6.343 -0.2998  0.3491 -0.2224
  948MOL0     C27901   7.618   2.138   6.330  0.2043 -0.0834 -0.6117
  948MOL0     C27902   7.728   2.211   6.287 -0.4802 -0.6983 -0.0835
  948MOL0     C27903   7.700   2.345   6.241  0.2653 -0.2269 -0.5659
  948MOL0     O27904   7.810   2.411   6.199  0.4007 -1.0026  0.6257
  948MOL0     C27905   7.897   2.479   6.294 -0.8439 -0.7669 -0.0315
  948MOL0     C27906   8.022   2.517   6.216 -0.1567 -0.3928 -0.2206
  948MOL0     C27907   8.127   2.588   6.309 -0.4095 -0.4777  0.1118
  948MOL0     C27908   8.243   2.648   6.231 -0.0048 -0.4934 -0.1334
  948MOL0     C27909   8.338   2.549   6.169  0.3562  0.1152  0.9175
  948MOL0     C27910   8.412   2.465   6.117 -0.9832  0.1442  1.1469
  948MOL0     C27911   7.572   2.391   6.246 -0.6159 -0.9361  0.8393
  948MOL0     C27912   7.455   2.319   6.294 -0.3693  0.2520 -0.2061
  948MOL0     H27913   7.175   1.910   6.335  1.6585 -0.4941  2.4054
  948MOL0     H27914   6.958   1.811   6.380 -1.7287 -0.2750  0.4075
  948MOL0     H27915   6.752   1.733   6.444  1.2512 -0.2764  0.8911
  948MOL0     H27916   6.829   1.742   6.591 -1.4439 -0.5648  0.0266
  948MOL0     H27917   6.627   1.648   6.653  2.2904 -0.9194 -1.9629
  948MOL0     H27918   6.604   1.822   6.687 -2.0118 -0.3778 -0.9362
  948MOL0     H27919   6.512   1.845   6.454 -1.2364  0.8672  0.9893
  948MOL0     H27920   6.509   1.669   6.441  0.5023  0.8204 -0.5535
  948MOL0     H27921   6.347   1.684   6.662 -2.5794  0.8300 -0.0071
  948MOL0     H27922   6.346   1.857   6.631 -2.3944 -0.1203 -0.3792
  948MOL0     H27923   6.162   1.775   6.542  1.5781  0.4391  3.7990
  948MOL0     H27924   6.274   1.824   6.407  1.2692  0.5806  0.5049
  948MOL0     H27925   6.314   1.563   6.380 -2.6684 -3.7665 -0.9355
  948MOL0     H27926   6.181   1.552   6.504 -2.0322  0.7118 -0.0775
  948MOL0     H27927   6.175   1.656   6.228 -1.1843 -3.5059 -2.6612
  948MOL0     H27928   6.106   1.520   6.290  4.0322 -0.7585  2.4017
  948MOL0     H27929   5.934   1.698   6.260 -1.0902  0.2248  1.3456
  948MOL0     H27930   6.024   1.803   6.360  1.1538 -0.4154 -2.7030
  948MOL0     H27931   5.856   1.452   6.362  0.2920  3.1137 -1.2243
  948MOL0     H27932   5.764   1.279   6.551  0.3333  0.6626 -0.6997
  948MOL0     H27933   5.789   1.341   6.710 -1.6273  0.0621  0.9167
  948MOL0     H27934   5.537   1.295   6.624 -1.4105  1.3145  1.9989
  948MOL0     H27935   5.562   1.428   6.513 -2.9408  1.3938  0.9513
  948MOL0     H27936   5.583   1.585   6.689 -1.6869  0.2751 -1.7767
  948MOL0     H27937   5.594   1.458   6.809  2.1659 -2.1570 -1.7212
  948MOL0     H27938   5.339   1.474   6.644  0.1076  0.5650  0.6124
  948MOL0     H27939   5.366   1.574   6.786 -3.5699 -2.2807  3.0863
  948MOL0     H27940   5.266   1.164   6.909 -1.9037 -1.2590  2.4544
  948MOL0     H27941   5.033   1.057   7.118 -2.5193 -1.3951  0.4256
  948MOL0     H27942   4.950   1.029   6.956 -0.5698  1.7990 -0.5159
  948MOL0     H27943   5.125   1.013   6.967  0.1128  1.5085  0.3910
  948MOL0     H27944   4.799   1.066   7.335 -2.4277 -1.7542  3.2916
  948MOL0     H27945   4.619   1.046   7.471  0.6827 -2.4424 -1.6294
  948MOL0     H27946   4.216   1.193   7.491  1.1416  0.7202  0.0010
  948MOL0     H27947   4.228   1.176   7.316  0.1347  0.6997  0.4984
  948MOL0     H27948   4.186   0.910   7.381  1.2396  0.8659  0.4171
  948MOL0     H27949   4.070   0.985   7.487 -2.3378  1.2591 -2.1745
  948MOL0     H27950   3.985   1.110   7.280  0.3713 -0.2109  0.7810
  948MOL0     H27951   3.959   0.929   7.288 -1.3637  1.4973 -0.6919
  948MOL0     H27952   4.149   1.076   7.100 -0.4707  0.1592 -1.7597
  948MOL0     H27953   4.171   0.907   7.166 -0.1642  0.5598  1.5489
  948MOL0     H27954   3.945   1.016   7.000 -1.3279 -0.0618  1.4603
  948MOL0     H27955   3.944   0.854   7.075  1.4414 -0.7898  1.4859
  948MOL0     H27956   4.187   0.941   6.917  0.6260  0.8298  0.3686
  948MOL0     H27957   4.135   0.776   6.961 -0.8673 -0.1381  2.2524
  948MOL0     H27958   3.998   0.963   6.756 -1.1096  0.4475  1.3851
  948MOL0     H27959   3.924   0.808   6.811  0.7171 -1.0292 -1.2399
  948MOL0     H27960   4.131   0.690   6.735 -1.5612 -0.5490  0.7328
  948MOL0     H27961   4.194   0.843   6.669  1.1434 -1.2779  0.7136
  948MOL0     H27962   4.359   1.190   7.143  0.7094 -1.6656 -1.2862
  948MOL0     H27963   4.556   1.233   7.017 -3.2466  0.4448 -0.1357
  948MOL0     H27964   4.954   1.536   6.941  1.3424  0.5519  2.3250
  948MOL0     H27965   5.153   1.569   6.830 -3.3029 -0.1226 -2.0574
  948MOL0     H27966   6.846   2.164   6.603  0.1650 -0.4254  1.9713
  948MOL0     H27967   7.058   2.265   6.543  1.9169 -0.5232  0.6590
  948MOL0     H27968   7.634   2.035   6.359  0.5477 -0.7340 -2.8579
  948MOL0     H27969   7.828   2.169   6.295 -0.3495 -1.2071 -3.0421
  948MOL0     H27970   7.838   2.559   6.340  0.8050 -0.9637  2.6864
  948MOL0     H27971   7.927   2.411   6.375  2.1868  0.1541 -0.2795
  948MOL0     H27972   7.991   2.577   6.130 -0.9813  2.4599  1.8924
  948MOL0     H27973   8.065   2.425   6.174  0.4050 -0.7998  1.1923
  948MOL0     H27974   8.158   2.518   6.387 -1.1254  0.0098  0.8534
  948MOL0     H27975   8.067   2.666   6.357 -1.8202 -1.4302 -0.0209
  948MOL0     H27976   8.295   2.708   6.307 -0.3618  0.5917 -0.7175
  948MOL0     H27977   8.205   2.721   6.159 -3.3845  0.2069  2.1319
  948MOL0     H27978   8.476   2.391   6.073  1.2277  1.2790  2.2966
  948MOL0     H27979   7.565   2.493   6.207  0.0109 -0.9674  0.6327
  948MOL0     H27980   7.354   2.357   6.297 -0.2751  0.5754 -0.8338
  949MOL0     O27981   1.602   2.558  11.274 -0.2731 -0.0166  0.1956
  949MOL0     C27982   1.649   2.613  11.373  0.3407  0.3375 -0.0430
  949MOL0     O27983   1.578   2.680  11.467  0.5548  0.1894  0.1913
  949MOL0     C27984   1.436   2.658  11.458  0.2336 -0.2784  0.4576
  949MOL0     C27985   1.345   2.767  11.462  0.8144  0.1532 -0.7020
  949MOL0     C27986   1.205   2.751  11.452 -0.7207 -0.4159 -0.3813
  949MOL0     C27987   1.145   2.623  11.476  0.9443  0.1455 -0.2591
  949MOL0     O27988   1.016   2.591  11.479  0.1446 -0.4224  0.0554
  949MOL0     C27989   0.925   2.698  11.440 -1.0864 -0.4094 -0.7879
  949MOL0     C27990   0.772   2.661  11.420 -0.9180 -0.6843  0.2957
  949MOL0     C27991   0.709   2.778  11.343 -0.7033 -0.4969  0.4158
  949MOL0     C27992   0.565   2.752  11.299 -0.5855  0.4892  0.9216
  949MOL0     C27993   0.506   2.847  11.188  0.9496 -0.5620  0.3152
  949MOL0     C27994   0.362   2.793  11.155 -0.3378 -0.0355 -0.2628
  949MOL0     C27995   0.277   2.910  11.114 -0.1066 -0.7135 -0.1601
  949MOL0     C27996   0.324   2.979  10.976 -0.0542 -0.8584 -0.5992
  949MOL0     N27997   0.325   2.894  10.856  0.1330 -0.6136  0.1020
  949MOL0     C27998   0.212   2.847  10.793  0.4895 -0.3616  0.1302
  949MOL0     C27999   0.263   2.747  10.728 -1.6516  0.4940 -0.4772
  949MOL0     C28000   0.178   2.648  10.649 -1.2372 -0.8515  0.0320
  949MOL0     C28001   0.111   2.711  10.514 -0.1497  0.4210  0.8128
  949MOL0     C28002   0.042   2.606  10.425  0.0270 -0.4063  0.5027
  949MOL0     C28003  -0.067   2.530  10.500 -0.2640 -0.3030  0.6106
  949MOL0     O28004  -0.164   2.470  10.414 -0.2763 -0.8608 -0.2851
  949MOL0     C28005  -0.274   2.539  10.373 -0.4190 -0.6749 -0.3277
  949MOL0     C28006  -0.390   2.468  10.337  0.5326 -0.1773 -0.1110
  949MOL0     C28007  -0.515   2.529  10.296 -0.7564  0.3178 -0.0222
  949MOL0     C28008  -0.629   2.444  10.269  0.2646  0.3088  0.3848
  949MOL0     C28009  -0.513   2.669  10.273  0.0788  0.0858  0.0466
  949MOL0     C28010  -0.627   2.757  10.218 -1.1168  0.0103  0.6131
  949MOL0     O28011  -0.620   2.885  10.247  0.7349  0.1001  0.0777
  949MOL0     C28012  -0.735   2.963  10.236  0.3160 -0.0386 -0.1831
  949MOL0     C28013  -0.844   2.953  10.328  0.4741  0.4498  0.8000
  949MOL0     C28014  -0.964   3.015  10.304 -0.2865 -0.5756 -0.7971
  949MOL0     C28015  -0.976   3.102  10.198  0.2727  0.0387 -0.1271
  949MOL0     O28016  -1.097   3.157  10.179  0.4736 -0.1709 -0.5364
  949MOL0     C28017  -1.096   3.302  10.168 -0.6774 -0.7176  0.1558
  949MOL0     C28018  -1.238   3.356  10.134 -0.4268  0.3157  0.4865
  949MOL0     C28019  -1.298   3.278  10.013  0.0065 -0.6171 -0.6377
  949MOL0     C28020  -1.439   3.335   9.981 -0.7519 -0.0097 -0.7227
  949MOL0     C28021  -1.470   3.311   9.837 -0.4952  0.3808  0.1850
  949MOL0     C28022  -1.605   3.351   9.771 -0.1467  0.5452  0.0882
  949MOL0     C28023  -1.594   3.303   9.628 -0.0981 -0.3930  0.1799
  949MOL0     C28024  -1.716   3.340   9.557  0.2431 -0.3811 -0.2177
  949MOL0    Cl28025  -1.704   3.277   9.389 -0.4326 -0.0551 -0.0778
  949MOL0     C28026  -0.861   3.132  10.117  0.9285  0.1903  0.4880
  949MOL0     C28027  -0.743   3.065  10.141 -0.8290 -0.0575 -0.7518
  949MOL0     O28028  -0.719   2.698  10.164  0.1417 -0.6153 -0.7614
  949MOL0     C28029  -0.399   2.735  10.317  0.7597 -0.8277 -0.2000
  949MOL0     C28030  -0.282   2.678  10.364 -0.0970 -0.3829 -0.8317
  949MOL0     N28031   0.401   2.738  10.732 -0.2226 -0.2932  1.0340
  949MOL0     N28032   0.439   2.826  10.819  1.5876  0.4266  0.6404
  949MOL0     C28033   1.233   2.513  11.471 -0.0900 -0.5340 -0.2490
  949MOL0     C28034   1.373   2.528  11.441  0.5946 -0.8675 -0.4783
  949MOL0     C28035   1.787   2.594  11.401  0.4125  0.4854 -0.8176
  949MOL0     C28036   1.841   2.631  11.535 -0.4389  0.8828  0.2709
  949MOL0     C28037   1.973   2.612  11.564  0.4287 -0.2099  0.5376
  949MOL0     C28038   2.063   2.557  11.470 -0.0072  0.6580 -0.7601
  949MOL0     O28039   2.196   2.537  11.495 -0.1515  0.1701  0.5590
  949MOL0     C28040   2.245   2.538  11.627 -0.2211  0.1903  0.4827
  949MOL0     C28041   2.390   2.505  11.623 -0.2554 -0.7852 -0.3331
  949MOL0     C28042   2.474   2.599  11.540  0.7842 -0.0876 -1.1489
  949MOL0     C28043   2.621   2.563  11.541 -0.1098  0.9019  0.0384
  949MOL0     C28044   2.678   2.602  11.673  1.3943  0.7211 -0.4887
  949MOL0     C28045   2.709   2.643  11.781  0.3740  0.1432 -0.2634
  949MOL0     C28046   2.011   2.526  11.341 -0.8426 -0.3506  0.1450
  949MOL0     C28047   1.876   2.536  11.307 -0.2414 -0.3527  0.2450
  949MOL0     H28048   1.392   2.863  11.443 -1.8190  1.0407 -3.5330
  949MOL0     H28049   1.136   2.833  11.436  1.0539  0.9313 -1.3884
  949MOL0     H28050   0.935   2.765  11.526 -3.9922 -0.3764 -0.3758
  949MOL0     H28051   0.960   2.739  11.344  1.5523 -0.0966  0.2192
  949MOL0     H28052   0.744   2.570  11.367  0.0328 -0.4320 -0.6593
  949MOL0     H28053   0.721   2.658  11.517  0.5539  3.7226  1.4400
  949MOL0     H28054   0.711   2.871  11.401  1.9641  0.8616 -1.6266
  949MOL0     H28055   0.767   2.804  11.255  0.1786 -1.1847  0.7760
  949MOL0     H28056   0.563   2.652  11.255 -0.0992  0.7863  0.2055
  949MOL0     H28057   0.505   2.742  11.391  0.8168 -0.0883  1.8006
  949MOL0     H28058   0.503   2.950  11.225  1.0025  0.3717 -2.0790
  949MOL0     H28059   0.561   2.848  11.094 -0.4152  1.0901 -0.5179
  949MOL0     H28060   0.353   2.709  11.085 -1.5600 -3.2845  3.4246
  949MOL0     H28061   0.319   2.765  11.252  0.0283  0.7980  0.1464
  949MOL0     H28062   0.170   2.889  11.110 -0.5136  1.2020 -0.6206
  949MOL0     H28063   0.286   2.983  11.195  0.3409 -2.8477  1.8153
  949MOL0     H28064   0.427   3.015  10.985 -0.9852  1.6902  0.8789
  949MOL0     H28065   0.265   3.068  10.954  0.9274 -0.1640 -0.4782
  949MOL0     H28066   0.106   2.865  10.807 -0.3972 -3.7741 -1.3329
  949MOL0     H28067   0.231   2.555  10.627 -1.0931 -0.3479 -1.9057
  949MOL0     H28068   0.101   2.614  10.719 -0.0125 -1.8830  0.9214
  949MOL0     H28069   0.191   2.755  10.454 -0.8255 -0.7584 -1.0269
  949MOL0     H28070   0.031   2.782  10.539  0.1800  0.7983  0.8054
  949MOL0     H28071   0.116   2.533  10.390 -2.1374 -1.5524 -1.9945
  949MOL0     H28072   0.009   2.649  10.330  2.6392  0.0479 -0.2905
  949MOL0     H28073  -0.109   2.605  10.567 -0.6030  0.9337 -0.9542
  949MOL0     H28074  -0.015   2.452  10.558  0.7035  1.1932  1.8417
  949MOL0     H28075  -0.383   2.361  10.326  0.0485 -0.0845 -1.4848
  949MOL0     H28076  -0.645   2.422  10.163 -0.4117  2.9257 -0.1254
  949MOL0     H28077  -0.608   2.351  10.322  0.6476  0.9693  1.4160
  949MOL0     H28078  -0.722   2.489  10.304  1.5428  1.2890  2.8025
  949MOL0     H28079  -0.835   2.887  10.413 -0.6626  1.6404  1.8988
  949MOL0     H28080  -1.047   2.991  10.369  0.6916 -1.0980  0.2944
  949MOL0     H28081  -1.060   3.352  10.258  0.4370  3.5297 -2.3665
  949MOL0     H28082  -1.025   3.331  10.090  0.7991  0.0570  1.7105
  949MOL0     H28083  -1.305   3.343  10.219 -0.7811 -2.7175 -0.1469
  949MOL0     H28084  -1.221   3.459  10.102 -0.1630  0.0263 -0.3325
  949MOL0     H28085  -1.308   3.178  10.056 -0.0897 -0.0006  0.8476
  949MOL0     H28086  -1.228   3.270   9.930  0.9472 -2.5209  0.2836
  949MOL0     H28087  -1.510   3.286  10.048 -0.0476 -0.7332 -0.4833
  949MOL0     H28088  -1.441   3.443   9.997  2.2314  0.2312 -1.3565
  949MOL0     H28089  -1.464   3.203   9.816  0.6275  0.8453 -2.2420
  949MOL0     H28090  -1.389   3.366   9.789 -0.5809 -0.2327 -0.7048
  949MOL0     H28091  -1.683   3.294   9.822  0.3470  0.7252  1.0744
  949MOL0     H28092  -1.624   3.459   9.772 -3.4445  0.0520  1.1464
  949MOL0     H28093  -1.581   3.195   9.619  1.0722 -0.3172  0.7755
  949MOL0     H28094  -1.511   3.361   9.586 -0.4710  0.5848  0.7604
  949MOL0     H28095  -1.722   3.448   9.544  1.0957 -0.5408 -2.3460
  949MOL0     H28096  -1.804   3.297   9.607  0.2017  0.5634  0.5394
  949MOL0     H28097  -0.882   3.192  10.030  1.9139 -1.9078 -1.3062
  949MOL0     H28098  -0.657   3.086  10.078 -1.6568  3.5416 -0.9021
  949MOL0     H28099  -0.395   2.844  10.323 -0.7242 -0.6735  6.2204
  949MOL0     H28100  -0.200   2.748  10.378  0.7405 -1.4053 -0.5059
  949MOL0     H28101   1.188   2.414  11.479 -1.2820  0.0725  0.9649
  949MOL0     H28102   1.438   2.441  11.446  0.0667 -1.3808 -2.0944
  949MOL0     H28103   1.778   2.667  11.616  0.8548  1.5418  1.0037
  949MOL0     H28104   2.004   2.643  11.663  2.0863 -0.4463  0.1205
  949MOL0     H28105   2.238   2.636  11.675 -0.5381  0.3754  0.0694
  949MOL0     H28106   2.185   2.474  11.692 -1.5656  1.0339  0.1158
  949MOL0     H28107   2.403   2.410  11.570  1.1480 -0.9699  0.2936
  949MOL0     H28108   2.426   2.507  11.727 -0.7417 -2.2650 -0.1017
  949MOL0     H28109   2.455   2.701  11.573 -0.6346 -0.3101 -1.1863
  949MOL0     H28110   2.435   2.594  11.438  0.5419 -1.0162 -1.0200
  949MOL0     H28111   2.678   2.622  11.469  1.9204  1.4960  2.0386
  949MOL0     H28112   2.628   2.459  11.508  0.8646  0.9291  0.1470
  949MOL0     H28113   2.748   2.674  11.875 -0.4814 -2.9969  1.2528
  949MOL0     H28114   2.080   2.482  11.269 -1.2346  0.1455 -0.5476
  949MOL0     H28115   1.844   2.498  11.211 -0.4121 -1.4570  0.7249
  950MOL0     O28116   8.545  10.087   6.841  0.0623 -0.6682  1.0141
  950MOL0     C28117   8.600  10.073   6.951 -0.2066  0.1856 -0.1856
  950MOL0     O28118   8.531  10.051   7.071 -0.1163  0.3873 -0.0500
  950MOL0     C28119   8.398  10.014   7.052 -0.2388  0.0921  0.2158
  950MOL0     C28120   8.296  10.108   7.076  0.3517 -0.6909  0.0830
  950MOL0     C28121   8.164  10.070   7.051  0.4890 -0.1050  0.0951
  950MOL0     C28122   8.132   9.936   7.023  0.6920  0.0968  1.5167
  950MOL0     O28123   8.002   9.897   7.004 -0.0289 -0.1867 -0.0356
  950MOL0     C28124   7.909   9.940   7.102 -0.4443  0.3363 -0.8527
  950MOL0     C28125   7.902   9.821   7.204  0.2054 -0.1349 -0.3179
  950MOL0     C28126   7.797   9.843   7.313 -0.3804  0.0825 -0.6551
  950MOL0     C28127   7.661   9.875   7.256 -0.3576  0.2097  0.3895
  950MOL0     C28128   7.548   9.873   7.360 -0.4680  0.2038  0.1373
  950MOL0     C28129   7.411   9.866   7.295 -0.4712 -0.2235 -0.2385
  950MOL0     C28130   7.291   9.923   7.378  0.1028 -0.8917 -0.0973
  950MOL0     C28131   7.169   9.971   7.293  0.5013 -0.1052 -0.8676
  950MOL0     N28132   7.087   9.861   7.245 -0.8374 -0.3929 -0.2776
  950MOL0     C28133   7.079   9.848   7.106 -0.6348  0.1501 -0.4584
  950MOL0     C28134   6.963   9.789   7.082  0.1943  0.2810  0.6746
  950MOL0     C28135   6.913   9.720   6.955 -0.0905 -0.4128 -0.7258
  950MOL0     C28136   6.762   9.741   6.947 -0.1166 -0.5947 -0.2436
  950MOL0     C28137   6.707   9.688   6.810  0.7227 -1.0544 -0.0617
  950MOL0     C28138   6.561   9.709   6.789 -0.2227 -0.1501 -0.3097
  950MOL0     O28139   6.511   9.845   6.789  0.1006 -0.5526  0.5131
  950MOL0     C28140   6.378   9.880   6.767  0.2511  0.5422 -0.3000
  950MOL0     C28141   6.264   9.791   6.763  0.5153  0.4372 -0.0421
  950MOL0     C28142   6.131   9.840   6.751  0.3101 -0.6035  0.4691
  950MOL0     C28143   6.020   9.729   6.748 -0.8306  0.1102  0.3134
  950MOL0     C28144   6.102   9.975   6.735  0.0979 -1.1149 -0.0253
  950MOL0     C28145   5.971  10.045   6.743 -0.3414 -0.5439  0.0733
  950MOL0     O28146   5.966  10.176   6.714  0.8106  0.5169 -0.0942
  950MOL0     C28147   5.845  10.235   6.690  0.2835  0.8049 -0.8119
  950MOL0     C28148   5.781  10.196   6.570 -0.3658 -0.1236  0.2628
  950MOL0     C28149   5.657  10.249   6.532 -0.1362 -0.0662  0.5900
  950MOL0     C28150   5.591  10.339   6.614  0.5186 -0.0551 -0.5203
  950MOL0     O28151   5.461  10.395   6.599  0.2351  0.9465  0.7267
  950MOL0     C28152   5.408  10.375   6.469  0.3084 -0.8994  0.0759
  950MOL0     C28153   5.282  10.465   6.478 -0.1845  0.0888  0.2965
  950MOL0     C28154   5.186  10.444   6.362  0.4281  0.0729 -0.0940
  950MOL0     C28155   5.072  10.548   6.347  0.7629  0.6913  0.8021
  950MOL0     C28156   4.956  10.476   6.285  0.0469  0.1874  0.2882
  950MOL0     C28157   4.815  10.533   6.316  0.6264  0.5401  0.6544
  950MOL0     C28158   4.693  10.483   6.238 -0.4151 -0.2311 -0.2815
  950MOL0     C28159   4.559  10.529   6.297  1.1361  0.0949  0.9481
  950MOL0    Cl28160   4.428  10.421   6.224  0.0413 -0.3189 -0.0579
  950MOL0     C28161   5.666  10.389   6.724  0.8019 -0.1563 -0.4446
  950MOL0     C28162   5.789  10.333   6.766  0.5911 -0.3923  0.0892
  950MOL0     O28163   5.874   9.974   6.761 -0.1982  0.0091  0.6052
  950MOL0     C28164   6.210  10.057   6.702 -0.7252  0.5126 -0.1348
  950MOL0     C28165   6.344  10.014   6.718 -0.0178  0.1712  0.3445
  950MOL0     N28166   6.902   9.763   7.206  0.5487 -0.3171 -0.9998
  950MOL0     N28167   6.973   9.810   7.303  0.5787 -0.2213 -0.4010
  950MOL0     C28168   8.232   9.843   6.985  0.2710  0.0812 -1.0493
  950MOL0     C28169   8.364   9.884   7.014  0.7395  0.1049  0.0359
  950MOL0     C28170   8.742  10.113   6.950  0.0146 -0.4635  0.5870
  950MOL0     C28171   8.816  10.115   6.834 -0.0501 -0.8114  0.4686
  950MOL0     C28172   8.952  10.141   6.841  0.0158  0.1002  0.3432
  950MOL0     C28173   9.014  10.156   6.962 -0.0378  0.2943 -0.0969
  950MOL0     O28174   9.152  10.161   6.961  0.5230 -0.0222 -0.2674
  950MOL0     C28175   9.216  10.169   7.086 -0.0082 -0.0660  0.0878
  950MOL0     C28176   9.364  10.163   7.072 -0.7450 -0.3216  0.6091
  950MOL0     C28177   9.412  10.055   6.967  0.2048  0.8873  0.5044
  950MOL0     C28178   9.565  10.066   6.952  0.5244  0.4339  0.8667
  950MOL0     C28179   9.609  10.181   6.872  0.4781 -0.4683  0.2095
  950MOL0     C28180   9.638  10.278   6.805  0.3280  0.8211  0.5340
  950MOL0     C28181   8.937  10.158   7.074 -0.1004  0.1384  0.3585
  950MOL0     C28182   8.802  10.144   7.065  0.3087  0.4974  0.1241
  950MOL0     H28183   8.325  10.202   7.121  0.2999 -0.2267 -0.8465
  950MOL0     H28184   8.084  10.142   7.066 -0.1915 -0.5988 -1.0969
  950MOL0     H28185   7.932  10.036   7.150  1.6267  0.3793 -1.8058
  950MOL0     H28186   7.806   9.944   7.067 -0.1225 -0.6144 -1.9900
  950MOL0     H28187   7.866   9.738   7.142  0.6786  0.1268 -0.9540
  950MOL0     H28188   8.003   9.806   7.241  0.0092  2.0097  1.2658
  950MOL0     H28189   7.784   9.749   7.368 -2.7370  0.1623 -0.9720
  950MOL0     H28190   7.821   9.918   7.389  3.3689 -2.7347  1.2650
  950MOL0     H28191   7.669   9.976   7.216  1.6910 -0.4313 -1.0039
  950MOL0     H28192   7.635   9.810   7.172 -0.7300  1.8866 -0.8621
  950MOL0     H28193   7.553   9.788   7.429 -1.4652 -0.5539 -0.6970
  950MOL0     H28194   7.556   9.963   7.422 -1.3105 -0.3398  1.0510
  950MOL0     H28195   7.414   9.920   7.200 -0.5681 -0.0425 -0.1386
  950MOL0     H28196   7.378   9.766   7.265 -3.0326 -0.1307  1.8127
  950MOL0     H28197   7.247   9.846   7.442 -1.0245 -0.8353 -0.7722
  950MOL0     H28198   7.318  10.010   7.439 -3.0354 -0.6725  1.1862
  950MOL0     H28199   7.203  10.039   7.214  2.9861  0.9842  0.9862
  950MOL0     H28200   7.100  10.025   7.358  0.8141  0.9809 -1.4157
  950MOL0     H28201   7.153   9.872   7.030  0.8497 -0.8078  0.6277
  950MOL0     H28202   6.962   9.763   6.867  3.4384  0.5356  1.4759
  950MOL0     H28203   6.935   9.613   6.956 -1.6856 -0.7598 -0.3532
  950MOL0     H28204   6.741   9.848   6.954 -2.0770 -1.0095  0.8461
  950MOL0     H28205   6.705   9.681   7.018 -1.3251 -2.2378 -2.4503
  950MOL0     H28206   6.724   9.580   6.813  0.5954 -1.0671  0.3664
  950MOL0     H28207   6.763   9.735   6.729 -1.3782 -3.3048 -3.0743
  950MOL0     H28208   6.517   9.650   6.870  0.0530  2.2368  1.6909
  950MOL0     H28209   6.532   9.670   6.691  0.0777 -2.4831  0.4710
  950MOL0     H28210   6.282   9.689   6.795 -0.3943  0.5132  0.7606
  950MOL0     H28211   5.943   9.744   6.671  0.1395  3.1485 -0.2087
  950MOL0     H28212   6.062   9.629   6.737 -0.3270  0.3276  0.1957
  950MOL0     H28213   5.963   9.727   6.841  0.0126 -2.2883  0.8486
  950MOL0     H28214   5.834  10.127   6.504  0.8314  0.0505  1.0064
  950MOL0     H28215   5.606  10.208   6.445  1.2041 -0.4599 -0.0388
  950MOL0     H28216   5.471  10.414   6.388 -2.0580  0.7029 -1.1322
  950MOL0     H28217   5.376  10.272   6.448  0.3408 -1.2829  1.8086
  950MOL0     H28218   5.225  10.439   6.567 -1.8116 -3.0122 -1.4851
  950MOL0     H28219   5.328  10.564   6.482  3.3314 -1.4420  2.9699
  950MOL0     H28220   5.144  10.344   6.372 -3.2291  1.5517  0.8845
  950MOL0     H28221   5.241  10.450   6.268  0.0452  1.5902 -0.2592
  950MOL0     H28222   5.046  10.584   6.447  0.8519  0.6243  0.8501
  950MOL0     H28223   5.103  10.633   6.286  0.5126 -1.4860 -2.6649
  950MOL0     H28224   4.948  10.374   6.325  1.8131 -0.2090 -0.2936
  950MOL0     H28225   4.972  10.479   6.177  1.8137 -0.4494  0.4971
  950MOL0     H28226   4.796  10.509   6.421  1.4185  1.8952  1.1294
  950MOL0     H28227   4.814  10.642   6.309 -0.3859  0.5349  0.6623
  950MOL0     H28228   4.704  10.374   6.236 -0.9979 -0.2882 -0.5427
  950MOL0     H28229   4.704  10.507   6.132 -0.4009 -0.3173 -0.3000
  950MOL0     H28230   4.539  10.631   6.262 -2.7899 -0.5427  0.7992
  950MOL0     H28231   4.550  10.510   6.404 -1.0609 -2.9712  0.3671
  950MOL0     H28232   5.622  10.475   6.773 -1.8264 -1.7535  0.2318
  950MOL0     H28233   5.828  10.381   6.855  0.4816  0.3388 -0.2554
  950MOL0     H28234   6.202  10.165   6.696  1.3569  0.7035 -0.2289
  950MOL0     H28235   6.425  10.085   6.705  1.0620 -1.1157 -0.3180
  950MOL0     H28236   8.195   9.747   6.952 -0.7680  0.5725 -1.3409
  950MOL0     H28237   8.447   9.818   6.993  0.7334 -0.7516  2.3925
  950MOL0     H28238   8.778  10.103   6.733 -0.9107  1.6275  0.4405
  950MOL0     H28239   9.002  10.145   6.745 -0.2048  2.2823  0.2680
  950MOL0     H28240   9.181  10.266   7.121 -0.7748  0.8356 -2.8728
  950MOL0     H28241   9.184  10.086   7.150 -1.2228 -0.2752 -0.7515
  950MOL0     H28242   9.406  10.144   7.171  0.3856  0.9015  0.3878
  950MOL0     H28243   9.391  10.263   7.037 -2.1951 -0.2938 -0.5240
  950MOL0     H28244   9.378  10.050   6.864  1.3056 -2.7193  0.1737
  950MOL0     H28245   9.385   9.956   7.006 -2.7685  1.2482 -0.4197
  950MOL0     H28246   9.604   9.979   6.897 -1.2771  2.3525 -3.9823
  950MOL0     H28247   9.628  10.062   7.041  0.5772 -0.5169  0.8042
  950MOL0     H28248   9.654  10.365   6.745  0.9759 -0.8916 -1.9311
  950MOL0     H28249   8.984  10.161   7.171 -2.6220  2.5015  1.6236
  950MOL0     H28250   8.745  10.150   7.157 -2.0182  1.1515 -1.2823
  951MOL0     O28251   7.052   5.191   5.629 -0.4945 -0.1449  0.5477
  951MOL0     C28252   7.064   5.088   5.567 -0.3435 -0.1072  0.8161
  951MOL0     O28253   7.182   5.050   5.496  0.0488 -0.8871 -0.4234
  951MOL0     C28254   7.278   5.142   5.463  0.0587  0.0557 -0.1133
  951MOL0     C28255   7.250   5.278   5.422 -0.1016 -0.6092 -0.3703
  951MOL0     C28256   7.360   5.357   5.397 -0.1625  0.1621  0.6058
  951MOL0     C28257   7.485   5.319   5.415  1.0928 -0.4123 -0.3317
  951MOL0     O28258   7.575   5.418   5.391  0.5512 -0.4325  0.5569
  951MOL0     C28259   7.709   5.389   5.405  0.9319 -0.0391 -0.2281
  951MOL0     C28260   7.784   5.512   5.430 -0.2425  0.3371 -0.1051
  951MOL0     C28261   7.936   5.504   5.434  0.3678 -1.3447  0.4379
  951MOL0     C28262   7.996   5.619   5.515 -0.3428 -0.6532  0.6553
  951MOL0     C28263   8.153   5.613   5.500 -0.4079  0.5334 -0.2496
  951MOL0     C28264   8.223   5.714   5.593  0.6006  0.2171 -0.0547
  951MOL0     C28265   8.369   5.737   5.556 -0.1472  0.5764  0.9081
  951MOL0     C28266   8.431   5.844   5.644 -0.4496 -0.6577 -0.8050
  951MOL0     N28267   8.486   5.778   5.770  0.3881 -0.1927 -0.4928
  951MOL0     C28268   8.419   5.741   5.880 -0.1847 -0.2227 -0.1064
  951MOL0     C28269   8.507   5.676   5.963 -0.0371 -0.2824  0.6839
  951MOL0     C28270   8.470   5.607   6.090  0.2225 -0.5197 -0.2299
  951MOL0     C28271   8.467   5.708   6.204 -0.2222 -0.2339 -0.4854
  951MOL0     C28272   8.455   5.633   6.345 -0.3228 -0.3547 -0.7557
  951MOL0     C28273   8.339   5.699   6.436  0.3013 -0.3608  0.3736
  951MOL0     O28274   8.214   5.661   6.376 -0.4432 -0.4023 -0.9253
  951MOL0     C28275   8.093   5.669   6.445 -0.6473 -0.3505  0.6156
  951MOL0     C28276   7.987   5.640   6.366  0.8038  0.2560  0.3091
  951MOL0     C28277   7.857   5.638   6.402 -0.2740  0.4435 -0.3463
  951MOL0     C28278   7.759   5.596   6.285  0.0913 -0.5715 -0.8729
  951MOL0     C28279   7.822   5.671   6.533 -0.3397 -0.1019 -0.4014
  951MOL0     C28280   7.682   5.664   6.587  0.8773  0.0766  0.1317
  951MOL0     O28281   7.608   5.559   6.562 -0.3208  0.0543  0.4520
  951MOL0     C28282   7.485   5.547   6.608  0.5939  0.6070  0.2105
  951MOL0     C28283   7.384   5.588   6.521 -0.1043  0.5124  0.3952
  951MOL0     C28284   7.251   5.591   6.563  0.1907  0.3397  0.5290
  951MOL0     C28285   7.214   5.559   6.695  0.2998  0.4524  0.1188
  951MOL0     O28286   7.096   5.576   6.758 -0.2893  0.0177 -0.1116
  951MOL0     C28287   6.977   5.544   6.690 -0.0225  0.0547  0.1644
  951MOL0     C28288   6.868   5.550   6.798  0.4520 -0.1623 -0.6785
  951MOL0     C28289   6.752   5.456   6.755  0.3573 -1.1450  0.0245
  951MOL0     C28290   6.692   5.515   6.630 -0.6824 -0.4661 -0.7594
  951MOL0     C28291   6.591   5.428   6.556 -0.5334  0.7425 -0.1394
  951MOL0     C28292   6.464   5.400   6.638 -0.1625  0.4899 -0.0357
  951MOL0     C28293   6.370   5.302   6.557 -1.4066  0.2179 -0.4963
  951MOL0     C28294   6.252   5.258   6.645  0.9010  0.2250 -1.1276
  951MOL0    Cl28295   6.109   5.219   6.539  0.0055  0.3021 -0.4912
  951MOL0     C28296   7.320   5.519   6.781 -0.3068 -0.2661  0.0226
  951MOL0     C28297   7.457   5.516   6.738  0.4413  0.2385 -0.1474
  951MOL0     O28298   7.641   5.765   6.643  0.5005 -0.2983  0.0398
  951MOL0     C28299   7.929   5.708   6.615 -0.4134 -0.0060 -1.5746
  951MOL0     C28300   8.065   5.704   6.580  0.3686 -0.4528  0.5976
  951MOL0     N28301   8.629   5.677   5.906 -0.2540 -0.3614 -0.2486
  951MOL0     N28302   8.614   5.740   5.792  0.3059  0.2025  1.0340
  951MOL0     C28303   7.513   5.183   5.463  0.4449 -0.3151  0.8998
  951MOL0     C28304   7.409   5.096   5.489  0.7708 -0.1781  0.3690
  951MOL0     C28305   6.955   4.986   5.583  0.0617 -0.5134  0.6338
  951MOL0     C28306   6.834   5.016   5.645 -0.1391 -1.1184 -0.3924
  951MOL0     C28307   6.735   4.924   5.651 -0.3682 -0.0421 -0.3395
  951MOL0     C28308   6.751   4.790   5.615  0.2345  0.5697  0.4236
  951MOL0     O28309   6.644   4.708   5.613  0.2991  0.2608  0.1836
  951MOL0     C28310   6.630   4.600   5.517 -0.6062  0.3847  0.0006
  951MOL0     C28311   6.540   4.636   5.394 -0.7116  0.5352 -0.5409
  951MOL0     C28312   6.389   4.619   5.434  0.0736  0.5341 -0.1236
  951MOL0     C28313   6.296   4.632   5.308 -0.8540 -0.4654  0.4005
  951MOL0     C28314   6.159   4.596   5.335 -0.1549 -0.0659 -0.0215
  951MOL0     C28315   6.040   4.567   5.353 -0.9390 -0.4612  0.1231
  951MOL0     C28316   6.873   4.758   5.554 -0.4500  0.7535  0.1518
  951MOL0     C28317   6.969   4.854   5.531 -0.7115 -0.4375  0.3001
  951MOL0     H28318   7.149   5.319   5.425  0.5803  1.2697 -1.0465
  951MOL0     H28319   7.355   5.464   5.382  1.9945  0.5123  1.8733
  951MOL0     H28320   7.728   5.323   5.490 -1.8761 -1.8953 -0.8932
  951MOL0     H28321   7.737   5.326   5.320 -0.0408  2.8403 -2.8527
  951MOL0     H28322   7.763   5.577   5.345 -1.2057 -0.4463 -0.4938
  951MOL0     H28323   7.754   5.562   5.522  3.8407  0.4860  1.3705
  951MOL0     H28324   7.965   5.406   5.472 -2.5365 -1.9645  1.3115
  951MOL0     H28325   7.964   5.514   5.329 -1.3800  1.3015  0.1391
  951MOL0     H28326   7.955   5.711   5.473 -1.1682  0.0499  2.8797
  951MOL0     H28327   7.962   5.619   5.619 -1.4060 -2.1466  0.3408
  951MOL0     H28328   8.172   5.508   5.524 -6.8180 -1.0422 -0.1080
  951MOL0     H28329   8.186   5.634   5.398 -2.8098 -0.9968 -1.4339
  951MOL0     H28330   8.174   5.812   5.585 -0.1266 -0.1604 -0.2893
  951MOL0     H28331   8.215   5.677   5.696 -0.7126  0.6653  0.0204
  951MOL0     H28332   8.425   5.644   5.567 -0.1782  0.3333 -0.7426
  951MOL0     H28333   8.379   5.762   5.450 -1.0851 -3.1674 -0.2207
  951MOL0     H28334   8.355   5.917   5.675  0.2750 -0.2082 -0.0519
  951MOL0     H28335   8.516   5.894   5.597  0.6534 -1.8711 -0.1674
  951MOL0     H28336   8.320   5.772   5.908 -0.3626  1.2075 -2.1144
  951MOL0     H28337   8.381   5.542   6.086  0.7284 -1.3311 -5.2215
  951MOL0     H28338   8.548   5.532   6.108  2.5638  2.1229  1.3829
  951MOL0     H28339   8.373   5.760   6.184 -1.1577 -1.8482 -0.4934
  951MOL0     H28340   8.552   5.777   6.204  0.1385 -0.6731 -0.1980
  951MOL0     H28341   8.551   5.641   6.398  0.2114 -1.0366 -1.5872
  951MOL0     H28342   8.448   5.524   6.337  2.4094 -0.7026  0.2986
  951MOL0     H28343   8.344   5.808   6.438 -1.4144 -0.2726  1.7673
  951MOL0     H28344   8.338   5.671   6.542  1.8384 -1.3839  0.1487
  951MOL0     H28345   8.014   5.631   6.261 -0.1163  0.3878  0.0526
  951MOL0     H28346   7.663   5.644   6.301  0.4619  1.0321 -3.0636
  951MOL0     H28347   7.792   5.604   6.181  0.7540 -3.1936 -0.9447
  951MOL0     H28348   7.754   5.487   6.296  2.5914 -0.5876  1.2682
  951MOL0     H28349   7.420   5.626   6.426  2.8404 -0.3370  1.0446
  951MOL0     H28350   7.168   5.623   6.500 -0.0375 -1.2926 -0.0601
  951MOL0     H28351   6.956   5.606   6.602 -0.3478 -1.4598 -0.8572
  951MOL0     H28352   6.983   5.439   6.661  0.7677  0.1416 -0.0322
  951MOL0     H28353   6.907   5.509   6.891  2.3778  0.9229 -0.9470
  951MOL0     H28354   6.825   5.650   6.814 -2.1709 -1.2707 -0.3580
  951MOL0     H28355   6.675   5.437   6.831  0.3069 -2.9872 -0.4305
  951MOL0     H28356   6.790   5.358   6.726 -0.0801 -1.7887  1.5319
  951MOL0     H28357   6.646   5.610   6.659 -0.4082 -0.6046  0.1650
  951MOL0     H28358   6.769   5.545   6.558  2.4563  0.7184  2.7710
  951MOL0     H28359   6.640   5.333   6.535 -1.6867 -0.0111  0.4670
  951MOL0     H28360   6.559   5.469   6.459 -2.2732  0.2606  0.1970
  951MOL0     H28361   6.482   5.348   6.732 -2.8172 -1.1894 -0.3669
  951MOL0     H28362   6.411   5.492   6.663 -0.0991  0.5119  0.0172
  951MOL0     H28363   6.429   5.212   6.537  0.0157  0.5880  1.6865
  951MOL0     H28364   6.341   5.356   6.466  2.0073 -0.7775 -2.3827
  951MOL0     H28365   6.215   5.328   6.721 -1.7267 -1.2875 -0.9120
  951MOL0     H28366   6.279   5.171   6.707 -0.8996  0.3390 -0.1186
  951MOL0     H28367   7.301   5.515   6.888 -0.8450 -1.9227 -0.1085
  951MOL0     H28368   7.543   5.493   6.801 -0.1260 -0.3865  0.4105
  951MOL0     H28369   7.922   5.727   6.721  1.4226  0.5923 -1.5232
  951MOL0     H28370   8.143   5.717   6.653  1.8750  1.7842 -1.2746
  951MOL0     H28371   7.614   5.148   5.478  0.5739  0.4568  2.0603
  951MOL0     H28372   7.421   4.992   5.519 -1.2312 -0.7577 -0.6559
  951MOL0     H28373   6.817   5.117   5.681 -0.4276 -0.4699 -2.2041
  951MOL0     H28374   6.636   4.940   5.691 -0.2094 -1.2415  0.5686
  951MOL0     H28375   6.726   4.559   5.485  0.5643  1.7201  1.6260
  951MOL0     H28376   6.579   4.515   5.565 -0.0584  0.1703  0.2113
  951MOL0     H28377   6.567   4.559   5.321  1.2520  0.4271  0.2317
  951MOL0     H28378   6.564   4.734   5.352  1.8007 -0.3104 -1.3062
  951MOL0     H28379   6.365   4.691   5.513  0.2610  1.3030 -0.7551
  951MOL0     H28380   6.379   4.520   5.479 -1.1936  0.5252 -0.3799
  951MOL0     H28381   6.336   4.568   5.228 -0.4708 -1.0894  1.0750
  951MOL0     H28382   6.309   4.731   5.265 -0.2335 -0.5673  0.3410
  951MOL0     H28383   5.935   4.548   5.357 -1.1080 -0.8983 -3.2132
  951MOL0     H28384   6.911   4.662   5.522 -0.2490  1.7179 -2.8312
  951MOL0     H28385   7.064   4.844   5.481  0.6948  3.9693  1.6669
  952MOL0     O28386   6.695   8.257   2.087  0.1829  0.0652  0.2258
  952MOL0     C28387   6.711   8.375   2.106 -0.2658 -0.0969  0.7995
  952MOL0     O28388   6.619   8.473   2.088 -0.0054 -0.2573 -0.1629
  952MOL0     C28389   6.482   8.439   2.073 -0.1524 -0.0953 -0.5978
  952MOL0     C28390   6.420   8.316   2.097 -0.7548 -0.2235  0.7203
  952MOL0     C28391   6.281   8.305   2.089 -1.1159 -0.6580  0.9632
  952MOL0     C28392   6.199   8.412   2.052  0.4893 -0.0542  0.2192
  952MOL0     O28393   6.068   8.382   2.047  0.1977  0.2608  0.5822
  952MOL0     C28394   5.976   8.478   1.999 -0.1597 -1.3069  0.3545
  952MOL0     C28395   5.835   8.415   1.971  0.0390 -0.5332 -0.9134
  952MOL0     C28396   5.772   8.363   2.099  0.0142  0.3960 -0.4167
  952MOL0     C28397   5.635   8.304   2.075  0.4026  0.1384  0.4608
  952MOL0     C28398   5.570   8.262   2.214  0.5871 -0.0234  0.5769
  952MOL0     C28399   5.426   8.207   2.187  0.7051  0.1030 -1.0521
  952MOL0     C28400   5.362   8.153   2.317 -0.3374  0.4047 -0.1418
  952MOL0     C28401   5.345   8.260   2.425 -0.2869  0.4229  1.0434
  952MOL0     N28402   5.221   8.328   2.410 -0.3738 -0.6063 -0.0792
  952MOL0     C28403   5.197   8.453   2.363 -0.2208  0.1335  0.1952
  952MOL0     C28404   5.070   8.486   2.383  0.1767  0.2551 -0.6788
  952MOL0     C28405   5.024   8.621   2.342  0.4261  0.0180 -0.3791
  952MOL0     C28406   4.888   8.599   2.277  0.4794  0.3261 -0.1903
  952MOL0     C28407   4.896   8.541   2.138  0.8897  0.1464 -0.3112
  952MOL0     C28408   4.762   8.541   2.063 -0.4781 -0.4456 -0.0007
  952MOL0     O28409   4.704   8.669   2.084  0.1903 -0.2280 -0.2914
  952MOL0     C28410   4.566   8.676   2.057 -0.0816 -0.2801  0.2612
  952MOL0     C28411   4.493   8.789   2.090 -0.1721  0.0219  0.3570
  952MOL0     C28412   4.357   8.790   2.063 -0.5799 -1.1020  0.2995
  952MOL0     C28413   4.279   8.915   2.100 -0.5778 -0.4785 -0.0558
  952MOL0     C28414   4.283   8.681   2.004  0.3628 -0.0778 -0.8614
  952MOL0     C28415   4.138   8.680   1.979  0.2321  0.1017 -0.0404
  952MOL0     O28416   4.044   8.733   2.066 -0.0850 -0.5010 -0.2554
  952MOL0     C28417   3.908   8.718   2.033 -0.1630 -0.4590  0.1491
  952MOL0     C28418   3.847   8.590   2.054 -0.4254 -0.3292 -0.2238
  952MOL0     C28419   3.707   8.587   2.050  0.0069 -0.2119 -0.2499
  952MOL0     C28420   3.635   8.691   1.999  0.7579  0.1590 -0.5338
  952MOL0     O28421   3.504   8.667   1.966  0.0214 -0.0767  0.4065
  952MOL0     C28422   3.413   8.775   1.950 -0.1596  0.3111  0.0375
  952MOL0     C28423   3.284   8.713   1.892 -0.8032  0.0606 -0.2625
  952MOL0     C28424   3.168   8.805   1.930  0.3216 -0.4495 -0.1097
  952MOL0     C28425   3.039   8.737   1.881 -0.2040 -0.2288  0.5304
  952MOL0     C28426   2.917   8.818   1.932  0.3761 -0.0625  0.3982
  952MOL0     C28427   2.794   8.789   1.848  0.0550  0.0182 -0.6934
  952MOL0     C28428   2.679   8.841   1.927 -0.0702 -0.2248 -0.5077
  952MOL0     C28429   2.551   8.775   1.875  0.4778  0.0882 -0.1970
  952MOL0    Cl28430   2.531   8.836   1.708 -0.0895 -0.1330 -0.2792
  952MOL0     C28431   3.702   8.813   1.972  0.2973 -0.5761 -0.0074
  952MOL0     C28432   3.841   8.828   1.996 -0.2032  0.3209 -0.0470
  952MOL0     O28433   4.114   8.605   1.886  0.1466 -0.3154 -0.2351
  952MOL0     C28434   4.366   8.578   1.965  0.1406 -0.0524 -0.0335
  952MOL0     C28435   4.505   8.571   1.989  0.9699 -0.1794 -0.1167
  952MOL0     N28436   5.013   8.387   2.461 -0.5560  0.0170  0.0468
  952MOL0     N28437   5.105   8.293   2.472 -0.0905  0.8775  0.4300
  952MOL0     C28438   6.261   8.537   2.022  0.1767 -0.4064 -0.2339
  952MOL0     C28439   6.403   8.548   2.035 -0.1740 -0.4383  0.0435
  952MOL0     C28440   6.854   8.428   2.114  0.5197  0.7629  0.4051
  952MOL0     C28441   6.883   8.560   2.128  0.0145  0.2707 -1.2528
  952MOL0     C28442   7.007   8.615   2.131 -0.7021 -0.0081 -0.4926
  952MOL0     C28443   7.120   8.538   2.130 -0.1224 -0.1218  0.0980
  952MOL0     O28444   7.242   8.610   2.137 -0.2339  0.5547 -0.6687
  952MOL0     C28445   7.354   8.529   2.176  0.1954 -0.2320  0.3173
  952MOL0     C28446   7.464   8.614   2.241 -0.2944  0.0813 -0.0342
  952MOL0     C28447   7.436   8.672   2.379  0.5728 -0.5850  0.5716
  952MOL0     C28448   7.381   8.809   2.346  0.3605  0.1982  0.1487
  952MOL0     C28449   7.386   8.896   2.457 -0.3403  0.3542  0.5802
  952MOL0     C28450   7.379   8.952   2.562  0.0984 -0.3669 -0.1734
  952MOL0     C28451   7.102   8.400   2.117 -0.2039 -0.4093  0.1371
  952MOL0     C28452   6.971   8.344   2.114  0.0551 -1.0189 -0.1758
  952MOL0     H28453   6.475   8.225   2.119  0.7001  0.7914  1.4165
  952MOL0     H28454   6.242   8.208   2.117 -1.3453 -0.3138  1.8917
  952MOL0     H28455   5.972   8.571   2.056  1.1546  0.2839 -1.9782
  952MOL0     H28456   6.012   8.518   1.903  0.5164 -0.4566  0.9394
  952MOL0     H28457   5.768   8.489   1.926 -2.9869 -2.9025 -0.5667
  952MOL0     H28458   5.839   8.346   1.887 -2.7917  1.8999 -3.2832
  952MOL0     H28459   5.836   8.283   2.136  1.3967  0.4886 -2.4318
  952MOL0     H28460   5.767   8.448   2.168 -2.7066 -0.2660  0.3161
  952MOL0     H28461   5.576   8.378   2.020  1.4247 -0.4533 -1.5497
  952MOL0     H28462   5.641   8.219   2.006  0.4066  1.9275 -1.9046
  952MOL0     H28463   5.628   8.188   2.269 -0.8729 -0.5273  1.4957
  952MOL0     H28464   5.566   8.355   2.271  1.2442  0.3249  0.0671
  952MOL0     H28465   5.345   8.276   2.159 -0.0084 -0.9279 -1.5793
  952MOL0     H28466   5.423   8.124   2.117  1.0068 -2.4879  1.7970
  952MOL0     H28467   5.271   8.101   2.287 -1.3366  0.9787  1.7445
  952MOL0     H28468   5.431   8.082   2.364 -0.5192 -0.3811 -1.0313
  952MOL0     H28469   5.428   8.332   2.431  1.6529 -1.4992 -0.9136
  952MOL0     H28470   5.350   8.202   2.518  0.8292 -3.9167 -1.4205
  952MOL0     H28471   5.270   8.513   2.309 -0.2689 -0.2646 -0.3219
  952MOL0     H28472   5.018   8.676   2.436  2.5716 -2.3766  1.3268
  952MOL0     H28473   5.097   8.675   2.281 -1.2831  0.5579 -2.0516
  952MOL0     H28474   4.843   8.698   2.268 -1.2829 -0.4683 -0.6645
  952MOL0     H28475   4.815   8.543   2.337 -0.6593  0.8666 -1.0158
  952MOL0     H28476   4.940   8.440   2.142  0.5997  0.0466  1.7874
  952MOL0     H28477   4.955   8.605   2.072 -0.0721 -0.8570 -2.2265
  952MOL0     H28478   4.690   8.476   2.113 -1.6232 -1.5848 -2.8927
  952MOL0     H28479   4.763   8.506   1.959 -3.1794 -0.9375  0.0574
  952MOL0     H28480   4.529   8.870   2.151  1.2229 -0.0629 -0.3208
  952MOL0     H28481   4.225   8.887   2.190  0.0399  1.0440  0.8297
  952MOL0     H28482   4.340   9.004   2.118 -1.0529 -0.0686 -0.4725
  952MOL0     H28483   4.202   8.939   2.027  1.1654  0.8173 -1.5699
  952MOL0     H28484   3.907   8.505   2.085  1.0066 -0.0695 -2.1466
  952MOL0     H28485   3.654   8.495   2.073  0.4872  0.1991  2.9317
  952MOL0     H28486   3.408   8.837   2.040 -0.8518  0.8109 -0.3318
  952MOL0     H28487   3.462   8.850   1.887  1.8268 -0.8417  0.1163
  952MOL0     H28488   3.297   8.704   1.784  1.1452  2.6130 -0.3202
  952MOL0     H28489   3.266   8.612   1.931  1.8009 -0.7343 -0.9323
  952MOL0     H28490   3.176   8.901   1.878  3.4622  0.8280  2.3814
  952MOL0     H28491   3.158   8.811   2.039 -0.7342  1.0722 -0.2647
  952MOL0     H28492   3.033   8.737   1.772 -2.1998 -3.4391  0.5075
  952MOL0     H28493   3.034   8.632   1.913 -0.1936 -0.4230 -0.0897
  952MOL0     H28494   2.922   8.927   1.927  1.0605 -0.1502 -1.7473
  952MOL0     H28495   2.909   8.783   2.035 -0.5912  0.5246  0.5412
  952MOL0     H28496   2.799   8.834   1.748 -1.3062  0.0891 -0.7493
  952MOL0     H28497   2.789   8.680   1.838  0.2087  0.1013 -1.9090
  952MOL0     H28498   2.654   8.946   1.907 -2.6470 -1.0164 -2.0567
  952MOL0     H28499   2.704   8.823   2.032  0.9131 -3.2947 -1.1719
  952MOL0     H28500   2.455   8.803   1.920 -0.9092  0.8311 -3.3668
  952MOL0     H28501   2.563   8.667   1.869 -2.9198 -0.4207  0.2852
  952MOL0     H28502   3.649   8.899   1.933  1.6364 -0.4748 -1.7244
  952MOL0     H28503   3.886   8.926   2.002 -1.9961  1.0948  1.6610
  952MOL0     H28504   4.323   8.484   1.930 -0.5746 -0.7741  2.5121
  952MOL0     H28505   4.544   8.473   1.965  0.9310 -0.2537  0.1208
  952MOL0     H28506   6.207   8.625   1.988 -2.0416 -1.7272 -0.2831
  952MOL0     H28507   6.452   8.644   2.018 -0.0521 -0.7138 -1.2615
  952MOL0     H28508   6.798   8.627   2.138 -0.1510 -0.0388 -0.5588
  952MOL0     H28509   7.007   8.723   2.139 -3.2011 -0.0588  1.6794
  952MOL0     H28510   7.330   8.440   2.234 -0.2975 -0.0484  0.3988
  952MOL0     H28511   7.395   8.482   2.086 -0.6263  0.8147 -0.6485
  952MOL0     H28512   7.498   8.683   2.163  1.7320  1.6984  2.1346
  952MOL0     H28513   7.546   8.548   2.271  0.3184  1.9231  2.7127
  952MOL0     H28514   7.527   8.689   2.437 -0.5488  2.5635  1.6122
  952MOL0     H28515   7.357   8.613   2.428  1.3004 -1.8077  0.3274
  952MOL0     H28516   7.281   8.797   2.303 -0.2661  1.7274  1.0856
  952MOL0     H28517   7.443   8.852   2.268 -0.3295 -2.6623 -2.1598
  952MOL0     H28518   7.379   8.995   2.660  0.2806 -0.1627 -0.2627
  952MOL0     H28519   7.195   8.346   2.106  1.3327  1.9962  0.6437
  952MOL0     H28520   6.955   8.237   2.113  0.3195 -1.0570 -0.8755
  953MOL0     O28521   7.146   7.982  11.210  0.8838  0.3956  0.1395
  953MOL0     C28522   7.222   8.000  11.116 -1.4367  0.0151 -0.2451
  953MOL0     O28523   7.199   8.071  11.006  0.2148  1.1683  0.0377
  953MOL0     C28524   7.090   8.156  11.008  0.4480  0.5825  0.4093
  953MOL0     C28525   7.100   8.290  11.056 -0.3105  0.0556 -0.3025
  953MOL0     C28526   6.992   8.376  11.052  0.0116 -0.2083 -0.2214
  953MOL0     C28527   6.872   8.336  10.982 -0.3424  0.7056 -0.4769
  953MOL0     O28528   6.785   8.433  10.957 -0.1859 -0.1365  0.0565
  953MOL0     C28529   6.679   8.422  10.862 -0.4657 -0.7615 -0.1176
  953MOL0     C28530   6.643   8.565  10.811  0.5447  0.2357  0.1660
  953MOL0     C28531   6.490   8.572  10.773  0.1249 -0.3429  0.7417
  953MOL0     C28532   6.437   8.471  10.672 -0.5447  0.6890  1.0091
  953MOL0     C28533   6.300   8.507  10.631  0.2266 -0.0625  0.5848
  953MOL0     C28534   6.266   8.417  10.510  0.8393 -0.2271  0.5479
  953MOL0     C28535   6.129   8.438  10.462  0.7282 -0.4457  0.6697
  953MOL0     C28536   6.109   8.573  10.401  0.4451  0.6950 -0.4201
  953MOL0     N28537   5.970   8.589  10.363  0.3784  0.5020 -0.0397
  953MOL0     C28538   5.865   8.518  10.410  0.2725 -0.2272 -0.4740
  953MOL0     C28539   5.755   8.565  10.351 -0.1871 -0.0849 -0.0512
  953MOL0     C28540   5.615   8.521  10.385 -0.3909  0.9209  0.5591
  953MOL0     C28541   5.526   8.639  10.424 -0.3400  0.1002 -1.0628
  953MOL0     C28542   5.387   8.601  10.480 -0.1903  0.1325 -0.0149
  953MOL0     C28543   5.313   8.491  10.394  0.0749 -0.2602  0.2686
  953MOL0     O28544   5.175   8.497  10.429 -0.1562 -0.2708 -0.2430
  953MOL0     C28545   5.073   8.450  10.356  0.0628 -0.8650  0.0793
  953MOL0     C28546   4.953   8.451  10.421  0.4785 -0.0644 -1.0981
  953MOL0     C28547   4.834   8.424  10.356  0.8481  0.2520  0.1732
  953MOL0     C28548   4.700   8.430  10.432 -0.4946  0.3755  0.8569
  953MOL0     C28549   4.841   8.388  10.216  0.2140 -0.4004 -0.4153
  953MOL0     C28550   4.711   8.359  10.143 -0.4548  0.0412  0.2986
  953MOL0     O28551   4.664   8.234  10.151 -0.0844  0.3271 -0.4884
  953MOL0     C28552   4.534   8.201  10.117 -0.6424 -1.1850 -0.2103
  953MOL0     C28553   4.512   8.112  10.012 -0.1593  0.3508 -0.6020
  953MOL0     C28554   4.382   8.076   9.971  0.0674  0.8190 -0.8492
  953MOL0     C28555   4.272   8.113  10.058  0.1946  0.0627  0.1879
  953MOL0     O28556   4.149   8.058  10.039  0.6344  0.5044  0.0224
  953MOL0     C28557   4.048   8.102  10.132  0.4350  0.8292 -0.0102
  953MOL0     C28558   3.923   8.041  10.076  0.3428 -0.2653 -0.4440
  953MOL0     C28559   3.791   8.058  10.147  0.9971  0.0683 -0.6501
  953MOL0     C28560   3.681   7.962  10.095  0.7489  0.4876  0.8388
  953MOL0     C28561   3.562   7.950  10.200 -0.0978 -0.2419  0.2687
  953MOL0     C28562   3.445   7.875  10.133  0.3798 -0.6753  0.0542
  953MOL0     C28563   3.333   7.874  10.241  0.1751  1.2721 -0.2675
  953MOL0     C28564   3.196   7.853  10.171 -0.3678  0.3227  0.3869
  953MOL0    Cl28565   3.062   7.827  10.291 -0.0208  0.2557  0.2449
  953MOL0     C28566   4.296   8.199  10.160 -0.3857 -0.5200  0.0936
  953MOL0     C28567   4.422   8.256  10.179  0.4665  0.7343 -1.2384
  953MOL0     O28568   4.649   8.457  10.096  0.3961 -0.0225  0.0908
  953MOL0     C28569   4.960   8.377  10.153  0.6754 -0.5451  0.3290
  953MOL0     C28570   5.076   8.405  10.224 -0.7252  0.2131 -0.2987
  953MOL0     N28571   5.793   8.669  10.263  0.3006 -0.8857  0.0132
  953MOL0     N28572   5.923   8.667  10.260  0.0567 -0.4336 -0.7015
  953MOL0     C28573   6.862   8.200  10.938  0.4256  0.2822 -0.0853
  953MOL0     C28574   6.968   8.111  10.954 -0.0179  0.0686 -0.1893
  953MOL0     C28575   7.344   7.922  11.105 -0.5165  0.0944  0.1300
  953MOL0     C28576   7.443   7.958  11.005  0.1647  0.4746 -0.2427
  953MOL0     C28577   7.568   7.902  11.014 -0.0568  0.1095 -1.2340
  953MOL0     C28578   7.598   7.802  11.110 -0.8791  0.5995 -0.0133
  953MOL0     O28579   7.730   7.769  11.115 -0.9017 -0.9438  0.7717
  953MOL0     C28580   7.782   7.652  11.187  0.6065 -0.1495 -0.0722
  953MOL0     C28581   7.928   7.631  11.136 -0.4949  0.1319  0.2729
  953MOL0     C28582   7.990   7.515  11.219  0.2663  0.0825 -0.1382
  953MOL0     C28583   8.140   7.510  11.212 -0.5498  1.2875  0.6755
  953MOL0     C28584   8.192   7.628  11.285  0.5108  0.1547 -0.1208
  953MOL0     C28585   8.231   7.720  11.354  0.1071  0.5136  0.4691
  953MOL0     C28586   7.505   7.764  11.203  0.1587  0.2291  0.8342
  953MOL0     C28587   7.380   7.827  11.199 -0.7223  0.4558 -0.9222
  953MOL0     H28588   7.195   8.319  11.100  0.4485 -1.0584 -1.1220
  953MOL0     H28589   7.004   8.479  11.086  1.4632  0.7023 -3.1259
  953MOL0     H28590   6.710   8.352  10.784  0.5788 -2.6688  1.9079
  953MOL0     H28591   6.597   8.369  10.910 -0.2609  0.2440  1.4159
  953MOL0     H28592   6.663   8.643  10.885 -0.1876  0.6707 -0.0772
  953MOL0     H28593   6.694   8.585  10.716 -1.3543  1.4877 -0.6583
  953MOL0     H28594   6.426   8.581  10.861 -2.0261  0.1333 -0.7947
  953MOL0     H28595   6.478   8.669  10.724 -0.1377  0.1046  1.6604
  953MOL0     H28596   6.500   8.466  10.583 -0.8850 -0.8091  0.8376
  953MOL0     H28597   6.440   8.366  10.702  2.2221  0.7673  1.2809
  953MOL0     H28598   6.230   8.498  10.715  1.4476 -0.3099  1.6174
  953MOL0     H28599   6.294   8.613  10.604 -1.1188 -0.8836 -2.8778
  953MOL0     H28600   6.334   8.438  10.427 -0.4159  1.1382 -0.1793
  953MOL0     H28601   6.277   8.311  10.535 -0.1100 -0.9063 -1.6714
  953MOL0     H28602   6.115   8.369  10.379  0.5391 -0.6469  0.8666
  953MOL0     H28603   6.066   8.408  10.546 -3.1659  1.3491 -1.3551
  953MOL0     H28604   6.180   8.599  10.322 -0.2573  0.8222 -1.0165
  953MOL0     H28605   6.128   8.655  10.471 -1.4120  1.0552 -0.2865
  953MOL0     H28606   5.856   8.444  10.489 -1.0933 -0.9217 -1.2547
  953MOL0     H28607   5.572   8.491  10.290  1.3966  2.2151 -0.7368
  953MOL0     H28608   5.620   8.435  10.453  1.6019  0.3415 -0.2555
  953MOL0     H28609   5.519   8.716  10.347 -0.4038  1.8619  0.6019
  953MOL0     H28610   5.564   8.685  10.517 -2.1761 -2.0348  0.8538
  953MOL0     H28611   5.325   8.691  10.485 -0.1025  0.3321 -1.8050
  953MOL0     H28612   5.389   8.571  10.585  1.0954 -0.2685 -0.1346
  953MOL0     H28613   5.347   8.388  10.396 -1.7679 -0.9120  0.4845
  953MOL0     H28614   5.332   8.524  10.292  1.1577 -1.0261  0.2132
  953MOL0     H28615   4.946   8.483  10.525  0.8604 -0.1338 -1.0512
  953MOL0     H28616   4.608   8.437  10.374 -0.4929 -1.2809  0.5917
  953MOL0     H28617   4.692   8.340  10.494  2.0077 -1.0419 -0.6760
  953MOL0     H28618   4.695   8.513  10.503  0.2889  2.3290 -1.2369
  953MOL0     H28619   4.600   8.088   9.953  0.6731  2.0413 -0.1044
  953MOL0     H28620   4.361   8.029   9.876 -2.2152  0.7948 -0.3733
  953MOL0     H28621   4.069   8.073  10.235  0.1526 -0.3194 -0.2605
  953MOL0     H28622   4.035   8.210  10.118  1.7830  0.7261 -2.7733
  953MOL0     H28623   3.909   8.073   9.972 -0.9504  1.2674  0.1712
  953MOL0     H28624   3.935   7.932  10.080 -0.8448 -0.4438 -1.1969
  953MOL0     H28625   3.744   8.156  10.147  1.0245  0.0902  0.1461
  953MOL0     H28626   3.808   8.039  10.254 -2.9753  2.2313  0.5596
  953MOL0     H28627   3.645   7.991   9.996 -0.3667 -2.3822  0.2871
  953MOL0     H28628   3.725   7.861  10.088  0.1665  0.1793  1.4624
  953MOL0     H28629   3.530   8.052  10.222  1.4150  0.3918 -0.3412
  953MOL0     H28630   3.594   7.904  10.294  1.6539 -0.0763 -0.2149
  953MOL0     H28631   3.416   7.920  10.037  1.1310  0.3584  0.2926
  953MOL0     H28632   3.466   7.769  10.120  2.0277 -0.1547 -2.2349
  953MOL0     H28633   3.329   7.969  10.294  0.6400  1.6875 -0.9614
  953MOL0     H28634   3.348   7.794  10.315 -1.9020  0.0193 -1.1154
  953MOL0     H28635   3.206   7.769  10.101  0.8883 -0.8549  1.9054
  953MOL0     H28636   3.177   7.937  10.103 -2.1323 -0.6659 -0.4169
  953MOL0     H28637   4.224   8.237  10.232  1.3479 -0.4032  1.8584
  953MOL0     H28638   4.424   8.326  10.262 -1.0059 -1.6144  0.9344
  953MOL0     H28639   4.971   8.334  10.054  1.1665 -2.4027  1.1397
  953MOL0     H28640   5.169   8.391  10.169 -0.4351  1.7387 -0.2378
  953MOL0     H28641   6.767   8.166  10.897  0.1360  0.6735  0.2538
  953MOL0     H28642   6.965   8.004  10.935  1.9725  0.2343 -1.8010
  953MOL0     H28643   7.434   8.045  10.941 -1.2049 -1.0867 -2.3013
  953MOL0     H28644   7.653   7.947  10.963  0.2917  2.2222  0.9995
  953MOL0     H28645   7.775   7.682  11.292 -2.0142 -0.7207 -0.0074
  953MOL0     H28646   7.714   7.568  11.171  0.2409  0.4987 -2.3244
  953MOL0     H28647   7.987   7.722  11.147  1.1693 -1.0569  1.5658
  953MOL0     H28648   7.935   7.612  11.028  0.9729  3.6171 -0.3729
  953MOL0     H28649   7.957   7.418  11.181 -0.9859  1.2699 -2.2781
  953MOL0     H28650   7.963   7.524  11.325  0.6986 -0.0583 -0.0169
  953MOL0     H28651   8.174   7.510  11.108  1.1796 -2.4304  1.0564
  953MOL0     H28652   8.174   7.410  11.241 -0.3232  1.0082 -0.5138
  953MOL0     H28653   8.274   7.792  11.421  0.5449  0.0696  0.6670
  953MOL0     H28654   7.534   7.692  11.279 -1.9411  0.6641  2.1197
  953MOL0     H28655   7.320   7.797  11.285 -0.0011  0.5563 -0.3736
  954MOL0     O28656   8.479   5.890   9.714  0.4775  0.6018  0.1696
  954MOL0     C28657   8.547   5.882   9.618  0.5019 -1.0443  0.0559
  954MOL0     O28658   8.532   5.797   9.514 -0.1409 -0.0624 -0.5431
  954MOL0     C28659   8.444   5.692   9.525 -0.0972 -0.2631  0.7634
  954MOL0     C28660   8.454   5.598   9.637  0.1448 -0.1056  0.6638
  954MOL0     C28661   8.380   5.485   9.649 -0.0101 -1.1194 -0.6022
  954MOL0     C28662   8.296   5.450   9.532 -0.4263  0.2168 -0.4934
  954MOL0     O28663   8.228   5.331   9.510  0.3182  1.0372  0.0304
  954MOL0     C28664   8.292   5.208   9.548  0.0398  0.6205  0.7380
  954MOL0     C28665   8.183   5.095   9.543  0.0277  0.0168 -0.3166
  954MOL0     C28666   8.255   4.967   9.549 -0.0148  0.5014 -0.1948
  954MOL0     C28667   8.147   4.854   9.578  0.0154  0.1167  0.1258
  954MOL0     C28668   8.203   4.709   9.556  0.1822  0.6652 -0.3146
  954MOL0     C28669   8.095   4.598   9.588 -0.7189 -0.7274 -0.6957
  954MOL0     C28670   7.964   4.614   9.508  0.2638 -0.1304  0.3052
  954MOL0     C28671   7.880   4.494   9.518  0.2654  0.3775  0.3940
  954MOL0     N28672   7.777   4.501   9.410 -0.0569 -0.1021  0.0768
  954MOL0     C28673   7.646   4.553   9.415 -1.1708 -0.3300  0.8651
  954MOL0     C28674   7.592   4.505   9.299 -0.1597  0.4329 -0.0904
  954MOL0     C28675   7.463   4.539   9.242  0.6870 -0.3661  0.0537
  954MOL0     C28676   7.374   4.418   9.243 -0.0014 -0.5783 -0.5391
  954MOL0     C28677   7.236   4.474   9.202 -0.5376 -0.4831  0.3462
  954MOL0     C28678   7.137   4.358   9.209 -0.1981 -0.8142  0.6605
  954MOL0     O28679   7.138   4.279   9.089  0.6206 -0.2880  0.6302
  954MOL0     C28680   7.029   4.294   9.008 -0.2401 -0.2345 -0.5768
  954MOL0     C28681   7.006   4.186   8.926  0.0522  0.5495  0.3392
  954MOL0     C28682   6.899   4.168   8.831 -0.4626 -0.2672  0.1889
  954MOL0     C28683   6.872   4.033   8.768 -0.7711  0.4152 -0.6393
  954MOL0     C28684   6.818   4.280   8.813  0.5406  0.9814 -0.6503
  954MOL0     C28685   6.696   4.280   8.736  0.5731  0.6652 -0.4585
  954MOL0     O28686   6.625   4.159   8.729  0.0473  0.4139  0.0520
  954MOL0     C28687   6.508   4.149   8.659 -0.4322 -0.0061  0.3858
  954MOL0     C28688   6.396   4.232   8.670  0.1293  0.5260  0.2762
  954MOL0     C28689   6.273   4.202   8.598 -0.1864 -0.5009 -0.1680
  954MOL0     C28690   6.260   4.079   8.524 -0.3689 -0.0595 -0.2135
  954MOL0     O28691   6.147   4.037   8.452 -0.0482  0.2403 -0.3274
  954MOL0     C28692   6.024   4.088   8.492  0.4653  0.1444  0.8270
  954MOL0     C28693   5.976   4.191   8.386 -0.8447  1.1459 -0.6957
  954MOL0     C28694   5.836   4.245   8.421 -0.1913 -0.0813 -1.3294
  954MOL0     C28695   5.726   4.145   8.405  0.9382  0.3353  0.3544
  954MOL0     C28696   5.589   4.218   8.401 -0.9837 -0.3983 -0.4090
  954MOL0     C28697   5.543   4.266   8.265  0.0142 -0.0825  0.7008
  954MOL0     C28698   5.425   4.368   8.277 -0.2111  0.7155 -0.0519
  954MOL0     C28699   5.453   4.486   8.185 -0.0335 -0.5176 -0.1269
  954MOL0    Cl28700   5.291   4.573   8.150 -0.1422 -0.8593 -0.1834
  954MOL0     C28701   6.380   3.998   8.509 -0.0963 -0.3917  0.7289
  954MOL0     C28702   6.497   4.039   8.578  0.2430  0.5517  1.3450
  954MOL0     O28703   6.662   4.375   8.670  0.0150 -0.4549 -0.0654
  954MOL0     C28704   6.835   4.390   8.899 -0.7179  0.7532  0.0445
  954MOL0     C28705   6.944   4.402   8.992 -0.0291 -0.1344 -0.0172
  954MOL0     N28706   7.681   4.416   9.240  0.2520 -0.0600  0.0845
  954MOL0     N28707   7.784   4.406   9.312  0.1897  0.2155  0.4510
  954MOL0     C28708   8.281   5.545   9.431 -0.9544  0.4181 -0.1128
  954MOL0     C28709   8.349   5.666   9.425  0.6583  0.3058 -0.3472
  954MOL0     C28710   8.674   5.963   9.625  0.0051 -0.8244  0.7256
  954MOL0     C28711   8.765   5.959   9.517 -0.1651  0.1034 -1.0234
  954MOL0     C28712   8.874   6.035   9.512 -0.3144  0.1615  0.2667
  954MOL0     C28713   8.910   6.107   9.627 -0.5134  0.1191  0.0066
  954MOL0     O28714   9.019   6.185   9.611 -0.0550  0.4875 -0.0920
  954MOL0     C28715   9.069   6.257   9.722 -0.0655 -0.5572  0.3130
  954MOL0     C28716   8.979   6.387   9.734 -1.2738 -0.6035 -0.2636
  954MOL0     C28717   9.086   6.501   9.752  0.7192 -0.2654 -0.3700
  954MOL0     C28718   9.037   6.633   9.824 -0.1977  0.9696 -0.5803
  954MOL0     C28719   8.911   6.675   9.760  0.4260  0.7509 -1.1335
  954MOL0     C28720   8.801   6.710   9.724  0.2136  0.0235  0.3573
  954MOL0     C28721   8.819   6.117   9.735 -0.3891  0.0292  0.5710
  954MOL0     C28722   8.702   6.054   9.736 -0.1818 -0.5259 -0.2357
  954MOL0     H28723   8.512   5.631   9.722 -1.3948  0.3369  1.5931
  954MOL0     H28724   8.365   5.435   9.744 -0.4789 -0.0555 -0.0919
  954MOL0     H28725   8.364   5.200   9.466 -1.5569 -2.9628 -0.5315
  954MOL0     H28726   8.336   5.213   9.648 -1.4121  0.7975  1.3872
  954MOL0     H28727   8.111   5.104   9.625  0.5130  2.2467 -0.0615
  954MOL0     H28728   8.126   5.118   9.453 -0.7833  4.7178  1.0996
  954MOL0     H28729   8.283   4.953   9.444 -0.2880  0.3068 -0.2451
  954MOL0     H28730   8.340   4.966   9.617  0.7571 -1.7613 -1.0947
  954MOL0     H28731   8.099   4.862   9.676  1.6232 -1.7150  1.1283
  954MOL0     H28732   8.064   4.871   9.510  0.3864 -0.8806 -0.5940
  954MOL0     H28733   8.244   4.702   9.455 -1.6838 -2.0025 -0.9741
  954MOL0     H28734   8.291   4.696   9.619  2.2630 -0.8466 -3.2915
  954MOL0     H28735   8.145   4.503   9.567  2.1541  0.0171  1.9221
  954MOL0     H28736   8.081   4.597   9.696  5.5845  0.5176  0.5404
  954MOL0     H28737   7.913   4.706   9.541 -1.1512 -0.0168 -1.9810
  954MOL0     H28738   7.979   4.621   9.400 -4.8634 -2.3178 -0.8280
  954MOL0     H28739   7.842   4.503   9.620  0.5123  2.3649  0.3480
  954MOL0     H28740   7.938   4.403   9.502 -0.6805  0.0768 -1.5478
  954MOL0     H28741   7.600   4.617   9.490 -0.8900  1.8371 -0.7148
  954MOL0     H28742   7.413   4.612   9.306 -2.9053 -0.7721 -2.0259
  954MOL0     H28743   7.470   4.576   9.139 -0.1326 -0.9819 -0.2398
  954MOL0     H28744   7.390   4.367   9.339  5.5208 -1.3039 -1.4637
  954MOL0     H28745   7.418   4.340   9.180  1.8471  0.6899 -0.8913
  954MOL0     H28746   7.237   4.518   9.102 -0.2003  3.3059  1.8621
  954MOL0     H28747   7.208   4.549   9.276 -2.2587 -0.9495  0.2169
  954MOL0     H28748   7.040   4.405   9.227  0.6770  1.1282  0.5237
  954MOL0     H28749   7.168   4.297   9.295  5.6430  2.1234  1.1068
  954MOL0     H28750   7.058   4.092   8.941  2.2521  1.6446 -0.0317
  954MOL0     H28751   6.790   3.971   8.803  0.0283  0.0290  0.6342
  954MOL0     H28752   6.850   4.032   8.661  1.8092 -0.6177 -1.2325
  954MOL0     H28753   6.966   3.977   8.766 -1.4706 -1.0758  2.2812
  954MOL0     H28754   6.415   4.320   8.730 -1.4523 -0.4020  2.2774
  954MOL0     H28755   6.188   4.271   8.598 -0.8249 -1.2693  0.2878
  954MOL0     H28756   5.955   4.003   8.497  0.4462  0.1087  0.1739
  954MOL0     H28757   6.018   4.131   8.592 -2.6052 -0.3205  0.9432
  954MOL0     H28758   6.046   4.274   8.376  1.8012 -1.0459 -1.6982
  954MOL0     H28759   5.977   4.135   8.292  1.4102  0.1703 -0.1482
  954MOL0     H28760   5.815   4.327   8.353 -2.9550  1.2042  0.8566
  954MOL0     H28761   5.838   4.291   8.520  3.4976  1.3151 -1.9086
  954MOL0     H28762   5.751   4.086   8.316 -2.5075 -1.6700  0.5649
  954MOL0     H28763   5.719   4.075   8.489  0.5985  0.7459  0.6714
  954MOL0     H28764   5.596   4.299   8.473 -2.0675  0.5033 -1.2842
  954MOL0     H28765   5.516   4.146   8.439 -0.3798 -0.6831  0.2467
  954MOL0     H28766   5.631   4.308   8.216  2.1056 -2.5076  2.1030
  954MOL0     H28767   5.521   4.176   8.206  0.3842  0.0078  0.4182
  954MOL0     H28768   5.403   4.398   8.380 -1.7375 -0.4411 -0.0037
  954MOL0     H28769   5.334   4.315   8.245 -1.3503  2.6275 -0.1419
  954MOL0     H28770   5.493   4.457   8.088 -0.3392  0.8117 -0.6847
  954MOL0     H28771   5.525   4.556   8.228 -0.9915  0.3155  0.1962
  954MOL0     H28772   6.377   3.916   8.438 -0.5085  1.0037 -0.9328
  954MOL0     H28773   6.585   3.978   8.565 -0.8359 -0.8123  0.2195
  954MOL0     H28774   6.763   4.471   8.900  1.9088  3.2258  0.0847
  954MOL0     H28775   6.953   4.491   9.053 -1.1256 -0.7649  1.1109
  954MOL0     H28776   8.214   5.528   9.348 -1.9816  2.3775  0.2526
  954MOL0     H28777   8.326   5.746   9.355 -1.6113 -0.6641 -0.8124
  954MOL0     H28778   8.740   5.893   9.435 -0.4558  3.2180 -3.6403
  954MOL0     H28779   8.929   6.022   9.419  1.0569 -2.3036  1.3318
  954MOL0     H28780   9.058   6.196   9.812  1.5011 -3.8123 -1.5082
  954MOL0     H28781   9.174   6.263   9.691 -0.2742 -0.8375 -0.4600
  954MOL0     H28782   8.921   6.387   9.826 -1.4724  2.8257 -0.2501
  954MOL0     H28783   8.908   6.393   9.651 -0.4935 -1.7645 -1.0479
  954MOL0     H28784   9.116   6.524   9.649 -1.2979  0.0617 -0.9299
  954MOL0     H28785   9.171   6.460   9.807 -0.3532 -3.4960 -0.8888
  954MOL0     H28786   9.109   6.714   9.818  0.2766  0.6387  0.4948
  954MOL0     H28787   9.015   6.621   9.930 -5.0270  1.1348 -1.2999
  954MOL0     H28788   8.702   6.730   9.690 -0.1509 -0.2925  1.2002
  954MOL0     H28789   8.854   6.180   9.816  0.3048 -0.2419  0.4917
  954MOL0     H28790   8.639   6.063   9.824 -1.7366 -0.9930 -1.2525
  955MOL0     O28791   1.276   5.913   9.139 -0.2847  0.1084 -0.3556
  955MOL0     C28792   1.239   6.001   9.058  1.5632  0.7404 -0.4854
  955MOL0     O28793   1.115   6.011   9.003 -0.2979  0.3420 -0.7730
  955MOL0     C28794   1.018   5.907   9.035 -0.3905 -0.6217 -0.4391
  955MOL0     C28795   0.962   5.829   8.937 -0.5664  0.4498 -0.4038
  955MOL0     C28796   0.867   5.737   8.979  0.1979  1.0251 -0.5677
  955MOL0     C28797   0.827   5.722   9.105 -0.0259 -0.0804  0.1425
  955MOL0     O28798   0.730   5.624   9.134 -0.2541  0.3692  0.4834
  955MOL0     C28799   0.659   5.643   9.255  1.0285 -0.2765  0.7403
  955MOL0     C28800   0.554   5.766   9.238 -0.1937  0.0514  0.2867
  955MOL0     C28801   0.419   5.732   9.306 -0.1679 -0.0717 -0.1614
  955MOL0     C28802   0.314   5.839   9.286  0.0260  0.4825  0.0886
  955MOL0     C28803   0.210   5.839   9.402 -0.1892  0.6042  0.7712
  955MOL0     C28804   0.144   5.701   9.440 -0.4126  0.5326  0.9347
  955MOL0     C28805   0.045   5.732   9.569  0.2215 -0.0478  0.0120
  955MOL0     C28806  -0.068   5.630   9.567  0.1730 -0.7114 -0.4229
  955MOL0     N28807  -0.191   5.703   9.603  0.1394  0.1267  0.7864
  955MOL0     C28808  -0.279   5.763   9.515 -0.0222 -0.5869  0.2201
  955MOL0     C28809  -0.395   5.792   9.584  0.4823  0.6019 -1.0624
  955MOL0     C28810  -0.528   5.849   9.543 -0.4226  0.3418 -0.1282
  955MOL0     C28811  -0.637   5.748   9.515 -0.1190  0.6408  0.0765
  955MOL0     C28812  -0.778   5.801   9.530 -0.0676 -0.9082 -0.2137
  955MOL0     C28813  -0.881   5.706   9.468 -0.0471  0.4548  1.0746
  955MOL0     O28814  -1.010   5.754   9.474  1.1757  0.0484  0.5260
  955MOL0     C28815  -1.116   5.668   9.462 -0.2360 -0.2052 -1.3946
  955MOL0     C28816  -1.233   5.710   9.536  0.0810  0.0402  0.7607
  955MOL0     C28817  -1.343   5.620   9.544 -0.4381 -0.5087  0.8087
  955MOL0     C28818  -1.468   5.672   9.618 -0.9772  0.1702 -0.3022
  955MOL0     C28819  -1.337   5.497   9.463  0.4938  1.0874  0.2692
  955MOL0     C28820  -1.453   5.406   9.456  0.2650  0.1168 -0.1765
  955MOL0     O28821  -1.568   5.438   9.516 -0.2596 -0.0551 -0.0273
  955MOL0     C28822  -1.675   5.357   9.499  0.5399  0.5036  0.7956
  955MOL0     C28823  -1.704   5.239   9.569  0.3205 -0.1982  0.9591
  955MOL0     C28824  -1.825   5.171   9.537 -0.0660  0.9582 -0.2112
  955MOL0     C28825  -1.919   5.211   9.450  0.2750 -0.0037 -0.5732
  955MOL0     O28826  -2.028   5.115   9.442 -0.3471 -0.6685 -0.0697
  955MOL0     C28827  -2.115   5.130   9.337  0.2838  0.7234  0.5165
  955MOL0     C28828  -2.227   5.030   9.353 -0.5412  0.3906 -0.3034
  955MOL0     C28829  -2.194   4.887   9.286  1.0485 -0.4505 -0.0518
  955MOL0     C28830  -2.318   4.807   9.264 -0.2473 -0.1646  0.8432
  955MOL0     C28831  -2.301   4.664   9.219  0.7184  0.3532  0.2644
  955MOL0     C28832  -2.441   4.599   9.216 -0.1814 -0.0186  0.8069
  955MOL0     C28833  -2.432   4.478   9.122 -0.5687  0.3621 -0.2966
  955MOL0     C28834  -2.577   4.415   9.118 -0.5967 -0.8062 -0.1801
  955MOL0    Cl28835  -2.620   4.338   9.278 -0.0996 -0.0317 -0.1397
  955MOL0     C28836  -1.894   5.330   9.376  0.2853  0.1234  0.5277
  955MOL0     C28837  -1.773   5.397   9.399  0.0700  0.1363 -0.5100
  955MOL0     O28838  -1.428   5.298   9.406 -0.0702 -0.2232  0.5659
  955MOL0     C28839  -1.214   5.461   9.397 -0.2067  1.0337  0.2896
  955MOL0     C28840  -1.106   5.548   9.401  0.2017 -0.0417 -0.5716
  955MOL0     N28841  -0.377   5.751   9.716 -0.3952  1.1013  0.4480
  955MOL0     N28842  -0.257   5.701   9.725 -0.0194 -0.6893  0.4051
  955MOL0     C28843   0.893   5.794   9.203  0.4438 -0.8018 -0.2805
  955MOL0     C28844   0.987   5.884   9.170 -0.4921  0.2552  0.0757
  955MOL0     C28845   1.328   6.107   9.022  0.0722 -0.3418  0.9634
  955MOL0     C28846   1.448   6.131   9.077  0.1939  0.1571  0.1112
  955MOL0     C28847   1.531   6.241   9.039 -0.6931  0.3929 -0.5442
  955MOL0     C28848   1.495   6.321   8.936  0.4639  0.2454  0.0550
  955MOL0     O28849   1.567   6.434   8.904  0.1366 -0.0936 -0.3924
  955MOL0     C28850   1.695   6.465   8.959 -0.4385  0.4733  0.2176
  955MOL0     C28851   1.758   6.579   8.872 -0.3721 -0.0056 -0.5067
  955MOL0     C28852   1.758   6.538   8.720  0.4828 -0.2532 -0.1843
  955MOL0     C28853   1.830   6.635   8.626 -0.0404  0.6668  0.7434
  955MOL0     C28854   1.818   6.604   8.487  0.1707  0.5361 -0.1503
  955MOL0     C28855   1.819   6.578   8.367  0.4813 -0.2614 -0.0884
  955MOL0     C28856   1.374   6.308   8.879  0.1824 -0.1848 -0.2853
  955MOL0     C28857   1.283   6.204   8.920  0.4993 -0.8086  0.3433
  955MOL0     H28858   0.990   5.835   8.833 -0.4088 -1.9804 -0.5625
  955MOL0     H28859   0.823   5.670   8.905 -0.4249  3.1113 -2.1700
  955MOL0     H28860   0.598   5.555   9.281 -0.4844  0.5402  0.0695
  955MOL0     H28861   0.726   5.648   9.341  0.0861  2.3295  1.4160
  955MOL0     H28862   0.596   5.863   9.264 -0.1626 -0.7132  3.5037
  955MOL0     H28863   0.537   5.772   9.130 -0.3507  1.0436  0.3586
  955MOL0     H28864   0.387   5.640   9.256  3.3398 -0.7808 -1.3434
  955MOL0     H28865   0.434   5.725   9.414 -0.9844  1.5733  0.0921
  955MOL0     H28866   0.362   5.937   9.285  1.4961 -0.2022  0.6043
  955MOL0     H28867   0.275   5.836   9.184  0.3424  1.7397 -0.0909
  955MOL0     H28868   0.254   5.883   9.492 -0.7124 -1.0441  1.8911
  955MOL0     H28869   0.136   5.911   9.368  0.4633  0.7600 -0.3740
  955MOL0     H28870   0.078   5.672   9.358  0.0426 -4.4207  2.0232
  955MOL0     H28871   0.216   5.619   9.445  0.2092  1.0650  0.9525
  955MOL0     H28872   0.110   5.731   9.657  0.7620  0.6683 -0.3753
  955MOL0     H28873   0.007   5.835   9.577  1.6328  0.5784 -1.0047
  955MOL0     H28874  -0.050   5.549   9.638  0.1685 -0.3271  0.0136
  955MOL0     H28875  -0.087   5.585   9.469 -0.6247  0.2641 -0.7354
  955MOL0     H28876  -0.262   5.780   9.409  1.4535 -0.8210  0.3997
  955MOL0     H28877  -0.570   5.908   9.625  1.9313 -0.6808  1.9369
  955MOL0     H28878  -0.513   5.914   9.457 -0.6152  0.4945 -0.0480
  955MOL0     H28879  -0.629   5.665   9.586  2.1408  1.2161  0.5863
  955MOL0     H28880  -0.629   5.721   9.409 -3.3501  0.9875 -0.3628
  955MOL0     H28881  -0.792   5.897   9.480 -2.8487  0.4294  2.7577
  955MOL0     H28882  -0.820   5.803   9.631 -1.2418 -0.7050 -0.6933
  955MOL0     H28883  -0.869   5.613   9.524 -1.5669 -1.1332 -1.0387
  955MOL0     H28884  -0.853   5.697   9.363 -0.2395  1.3194  0.9437
  955MOL0     H28885  -1.231   5.809   9.581  0.1367 -0.0146  0.8816
  955MOL0     H28886  -1.439   5.766   9.665  3.6427  0.5162 -3.1789
  955MOL0     H28887  -1.554   5.689   9.551 -2.3150 -1.5671  0.8873
  955MOL0     H28888  -1.502   5.607   9.699 -0.4244  1.5897  1.1174
  955MOL0     H28889  -1.628   5.210   9.641  0.1298 -3.6344 -0.0065
  955MOL0     H28890  -1.838   5.083   9.600  1.9006  1.6112  1.2289
  955MOL0     H28891  -2.153   5.233   9.329  2.0436  1.3258 -0.7417
  955MOL0     H28892  -2.065   5.107   9.242 -0.8432  1.6712 -0.3376
  955MOL0     H28893  -2.244   5.010   9.459  0.4747  0.1808 -0.1752
  955MOL0     H28894  -2.323   5.064   9.312 -0.9332  1.1021  1.1220
  955MOL0     H28895  -2.123   4.830   9.347  2.5136  2.0666  0.7406
  955MOL0     H28896  -2.148   4.909   9.189  3.2328 -1.4171  0.6943
  955MOL0     H28897  -2.373   4.799   9.359 -0.6525 -0.1124  0.6139
  955MOL0     H28898  -2.383   4.857   9.192 -1.8248 -0.8831  1.7126
  955MOL0     H28899  -2.240   4.597   9.280 -1.3639 -0.0126  2.0962
  955MOL0     H28900  -2.266   4.662   9.116 -3.0111  0.4570 -1.1802
  955MOL0     H28901  -2.467   4.579   9.321 -1.9573 -0.0610  0.3896
  955MOL0     H28902  -2.506   4.677   9.175  0.3300  0.1055  0.2186
  955MOL0     H28903  -2.361   4.402   9.158 -0.9063  0.5390  0.7804
  955MOL0     H28904  -2.412   4.505   9.018 -0.6336 -0.8997 -0.6528
  955MOL0     H28905  -2.571   4.345   9.034  1.2580 -1.7407  0.6732
  955MOL0     H28906  -2.650   4.493   9.094 -2.0841 -1.6452  1.4068
  955MOL0     H28907  -1.965   5.364   9.301 -0.6708  1.2624  1.9055
  955MOL0     H28908  -1.758   5.488   9.342 -0.4876  0.2871 -0.4202
  955MOL0     H28909  -1.209   5.364   9.348 -2.0960 -0.9334  3.6210
  955MOL0     H28910  -1.016   5.509   9.354 -0.4253 -1.5320 -0.5906
  955MOL0     H28911   0.860   5.803   9.306 -1.6494  2.0910 -1.0752
  955MOL0     H28912   1.030   5.952   9.243  2.2602  0.2473 -1.4027
  955MOL0     H28913   1.485   6.063   9.153  0.6417  0.3588  0.0803
  955MOL0     H28914   1.617   6.266   9.101 -0.6628 -0.7472 -0.1065
  955MOL0     H28915   1.674   6.481   9.065 -0.2030 -3.9721  1.1131
  955MOL0     H28916   1.761   6.378   8.955  0.5441  1.2305 -0.8045
  955MOL0     H28917   1.862   6.604   8.895  1.0144 -2.2048 -3.6075
  955MOL0     H28918   1.707   6.675   8.878  0.5285  0.5975 -2.0003
  955MOL0     H28919   1.654   6.531   8.687  0.8645 -1.4308 -1.1837
  955MOL0     H28920   1.800   6.437   8.713  0.1496 -0.5686  1.6538
  955MOL0     H28921   1.936   6.626   8.648  0.3494  2.7698 -0.0041
  955MOL0     H28922   1.799   6.739   8.641  3.9205  1.7473  2.5370
  955MOL0     H28923   1.832   6.552   8.264  0.8087  0.9888 -0.3838
  955MOL0     H28924   1.348   6.381   8.803  0.3901 -0.5583 -0.7216
  955MOL0     H28925   1.185   6.205   8.874  0.8063 -1.7076 -0.3646
  956MOL0     O28926   6.453   0.947   9.578  0.0997 -0.2825 -0.6219
  956MOL0     C28927   6.469   1.076   9.566  0.4748  0.6033 -0.0607
  956MOL0     O28928   6.373   1.159   9.524 -0.2968 -0.0322  1.0597
  956MOL0     C28929   6.242   1.128   9.549 -0.1499 -0.2218 -0.4620
  956MOL0     C28930   6.203   1.081   9.671 -0.2202  0.0552 -0.0946
  956MOL0     C28931   6.070   1.047   9.701  0.3341  0.2052 -1.0376
  956MOL0     C28932   5.972   1.049   9.601  0.1594 -0.1142 -0.4977
  956MOL0     O28933   5.844   0.995   9.606  0.2051  0.6602  0.2936
  956MOL0     C28934   5.783   0.956   9.733 -0.5359  0.0366  1.0062
  956MOL0     C28935   5.805   0.810   9.746 -0.3391 -0.8845 -0.5828
  956MOL0     C28936   5.713   0.759   9.854  0.1830 -0.5437 -0.3948
  956MOL0     C28937   5.712   0.613   9.871 -0.1188  0.1639 -0.5866
  956MOL0     C28938   5.597   0.571   9.967 -0.0466 -0.4012 -0.1891
  956MOL0     C28939   5.456   0.574   9.896 -0.4408  0.2176 -0.6099
  956MOL0     C28940   5.349   0.527   9.994 -0.6703  0.3153  0.7019
  956MOL0     C28941   5.217   0.498   9.921 -0.5606  0.0572  0.1926
  956MOL0     N28942   5.174   0.617   9.854 -0.6956 -0.8466 -0.5956
  956MOL0     C28943   5.216   0.652   9.726 -0.4530  0.0564  0.2146
  956MOL0     C28944   5.136   0.761   9.708  0.7868  0.4029  1.2321
  956MOL0     C28945   5.137   0.828   9.576  1.1246  0.1380  0.9607
  956MOL0     C28946   5.017   0.778   9.499 -0.1202 -0.1202 -0.0555
  956MOL0     C28947   4.902   0.862   9.557  0.1124 -0.0421  0.7896
  956MOL0     C28948   4.776   0.817   9.484 -0.7765  0.2887  0.3344
  956MOL0     O28949   4.664   0.889   9.530  0.0440 -0.4249 -0.7075
  956MOL0     C28950   4.539   0.833   9.511  0.2786 -0.6846  0.5269
  956MOL0     C28951   4.433   0.877   9.593 -0.1077 -0.0588  0.3013
  956MOL0     C28952   4.300   0.825   9.583 -0.2590  0.5393 -0.1822
  956MOL0     C28953   4.198   0.892   9.665 -0.6378  0.4272  0.7247
  956MOL0     C28954   4.275   0.719   9.490  1.2411  0.6011 -0.0195
  956MOL0     C28955   4.134   0.664   9.455 -0.0923  0.1821 -0.4520
  956MOL0     O28956   4.038   0.684   9.554  0.4736  0.3495 -0.5289
  956MOL0     C28957   3.912   0.636   9.539 -0.8275  0.5755  0.1784
  956MOL0     C28958   3.835   0.674   9.430 -0.1859 -0.4706 -0.3434
  956MOL0     C28959   3.700   0.634   9.413 -0.1398  0.5058 -0.9588
  956MOL0     C28960   3.659   0.526   9.497 -0.1163 -0.7405 -0.3346
  956MOL0     O28961   3.531   0.482   9.492 -0.3180 -0.1915  0.6484
  956MOL0     C28962   3.480   0.405   9.600 -0.9648 -0.4372 -0.2701
  956MOL0     C28963   3.334   0.403   9.599  0.8494 -1.1671  0.7559
  956MOL0     C28964   3.279   0.338   9.721 -0.3457 -0.2913  0.0637
  956MOL0     C28965   3.128   0.307   9.713 -0.1062  0.0512  0.6067
  956MOL0     C28966   3.098   0.237   9.844 -0.1048  0.2184 -1.2164
  956MOL0     C28967   2.947   0.259   9.886  0.5627 -0.1073  0.2911
  956MOL0     C28968   2.925   0.214  10.028  0.5008 -0.6389  0.0688
  956MOL0     C28969   2.797   0.131  10.054  0.1258 -0.3081  0.3702
  956MOL0    Cl28970   2.680   0.261  10.068 -0.0271  0.0118 -0.1631
  956MOL0     C28971   3.745   0.470   9.602 -0.4262 -0.4438 -0.2468
  956MOL0     C28972   3.869   0.531   9.624  0.6908  0.3295 -0.0059
  956MOL0     O28973   4.123   0.596   9.358 -0.5862 -0.1786  0.6521
  956MOL0     C28974   4.385   0.674   9.416 -0.2346  0.0620  0.1247
  956MOL0     C28975   4.513   0.732   9.422  0.5073  0.3546  0.1632
  956MOL0     N28976   5.072   0.800   9.828 -0.4794 -0.0078  0.0944
  956MOL0     N28977   5.099   0.709   9.919 -0.2215 -0.0819 -1.0687
  956MOL0     C28978   6.009   1.108   9.480  0.3535 -0.1464 -0.1084
  956MOL0     C28979   6.137   1.158   9.458 -0.2799 -0.0882  0.8592
  956MOL0     C28980   6.606   1.131   9.588 -0.7164 -1.4556 -0.0020
  956MOL0     C28981   6.624   1.274   9.610  0.2335 -0.0659 -0.0107
  956MOL0     C28982   6.744   1.325   9.657 -0.2755 -0.0701 -0.4853
  956MOL0     C28983   6.856   1.238   9.665 -0.6088  0.1608 -0.0693
  956MOL0     O28984   6.981   1.285   9.681 -0.4668 -0.7991 -0.1597
  956MOL0     C28985   7.006   1.300   9.822 -0.5441  0.4588 -0.5277
  956MOL0     C28986   7.154   1.344   9.828 -0.9366  0.3016 -0.2657
  956MOL0     C28987   7.195   1.345   9.969 -0.1610 -0.8228  0.3088
  956MOL0     C28988   7.337   1.395  10.000 -0.7772 -0.4094  0.8362
  956MOL0     C28989   7.358   1.533   9.956 -0.0482  0.1552  0.4649
  956MOL0     C28990   7.378   1.645   9.921  0.8772  0.2470  0.8499
  956MOL0     C28991   6.839   1.109   9.637 -0.2675 -0.2513 -0.5176
  956MOL0     C28992   6.713   1.052   9.601  0.4522  1.5224  0.5045
  956MOL0     H28993   6.277   1.071   9.750 -0.0061  1.8701 -0.0200
  956MOL0     H28994   6.035   1.014   9.798 -5.2879  1.1586 -2.3600
  956MOL0     H28995   5.803   1.022   9.818  3.3667 -1.1289  1.1770
  956MOL0     H28996   5.675   0.966   9.725 -0.4819 -0.0274  0.1520
  956MOL0     H28997   5.788   0.747   9.659 -1.5930 -1.6029  0.1540
  956MOL0     H28998   5.910   0.795   9.774 -0.1882  1.5947  0.4513
  956MOL0     H28999   5.734   0.809   9.949 -2.2069 -0.9583  0.4214
  956MOL0     H29000   5.610   0.787   9.830 -0.0267 -2.9303 -2.8125
  956MOL0     H29001   5.684   0.597   9.767 -2.4182  0.5034 -0.0723
  956MOL0     H29002   5.809   0.569   9.896 -0.8731 -1.4272 -0.3365
  956MOL0     H29003   5.602   0.468  10.003 -0.8964  0.3912  2.4562
  956MOL0     H29004   5.600   0.629  10.059  0.3440 -2.9130  1.4843
  956MOL0     H29005   5.436   0.679   9.874  0.7855  0.9735  1.5740
  956MOL0     H29006   5.460   0.509   9.807  1.9944 -1.0659  0.3199
  956MOL0     H29007   5.384   0.438  10.046 -2.2416 -1.0053 -0.4298
  956MOL0     H29008   5.324   0.600  10.071 -0.5622 -0.1351  1.1689
  956MOL0     H29009   5.146   0.460   9.994 -0.1162 -2.3202 -0.5111
  956MOL0     H29010   5.229   0.419   9.846  0.8871 -0.2743  0.7364
  956MOL0     H29011   5.284   0.598   9.662 -0.8708  1.1989 -1.2305
  956MOL0     H29012   5.133   0.937   9.591  1.4094  0.6927 -2.2856
  956MOL0     H29013   5.235   0.818   9.529  1.1733  0.1494  1.0593
  956MOL0     H29014   4.994   0.675   9.527 -0.6547 -0.0312 -0.1609
  956MOL0     H29015   5.038   0.787   9.392  3.5523 -2.0285  0.3407
  956MOL0     H29016   4.923   0.966   9.531 -1.5012 -0.1284 -1.1650
  956MOL0     H29017   4.878   0.854   9.663 -3.1837 -2.0677  0.0595
  956MOL0     H29018   4.767   0.708   9.486 -1.1676  0.1347 -3.2990
  956MOL0     H29019   4.777   0.831   9.376 -4.5847 -2.8202 -0.3179
  956MOL0     H29020   4.456   0.948   9.671 -3.2416 -0.8364  2.0968
  956MOL0     H29021   4.142   0.836   9.740 -0.8498  1.3761  1.2940
  956MOL0     H29022   4.251   0.975   9.714  1.3030 -0.9603  1.0824
  956MOL0     H29023   4.128   0.938   9.595 -3.3092 -1.2377  2.1414
  956MOL0     H29024   3.876   0.752   9.366 -1.2583  0.3940 -0.0049
  956MOL0     H29025   3.628   0.672   9.341  1.3569  3.6194 -1.0007
  956MOL0     H29026   3.516   0.302   9.592  0.9355  0.1639 -0.0708
  956MOL0     H29027   3.511   0.440   9.699  0.2122 -0.6780 -0.5361
  956MOL0     H29028   3.296   0.505   9.587 -1.2443 -2.2021 -3.5678
  956MOL0     H29029   3.301   0.363   9.502 -0.0323  0.4578  0.3349
  956MOL0     H29030   3.297   0.399   9.809 -1.2207  0.5187 -0.2946
  956MOL0     H29031   3.332   0.245   9.741 -5.3789 -3.0200  2.7342
  956MOL0     H29032   3.069   0.398   9.695  1.2785  0.7968 -0.3893
  956MOL0     H29033   3.110   0.238   9.630  1.2538  0.9276 -0.4585
  956MOL0     H29034   3.155   0.279   9.927 -1.7675 -2.4010  1.4643
  956MOL0     H29035   3.115   0.130   9.830 -0.4540 -0.0752  0.4469
  956MOL0     H29036   2.922   0.365   9.879  1.7520  0.1828  0.2791
  956MOL0     H29037   2.872   0.209   9.825 -1.1593  1.0865  1.3243
  956MOL0     H29038   2.922   0.303  10.092 -3.5422 -1.3300  1.0971
  956MOL0     H29039   3.011   0.154  10.059  1.6544  1.0065  0.1961
  956MOL0     H29040   2.802   0.081  10.151 -0.0813  2.2160  1.7507
  956MOL0     H29041   2.766   0.070   9.968 -2.4721  1.8544 -0.3805
  956MOL0     H29042   3.720   0.383   9.662  2.6805 -1.1926  0.1022
  956MOL0     H29043   3.939   0.501   9.701  1.9644 -1.9907 -1.9360
  956MOL0     H29044   4.377   0.597   9.340  1.8219  0.4974 -0.5916
  956MOL0     H29045   4.597   0.703   9.359 -0.5447  0.4677 -1.3627
  956MOL0     H29046   5.943   1.110   9.393  1.1179  1.5189 -0.7035
  956MOL0     H29047   6.175   1.202   9.366 -1.6878 -2.6582 -1.1116
  956MOL0     H29048   6.542   1.337   9.577 -0.2583 -1.2306 -1.0912
  956MOL0     H29049   6.751   1.432   9.674 -1.1937  0.3458 -2.4555
  956MOL0     H29050   6.948   1.373   9.880 -1.0852 -0.9860  0.8673
  956MOL0     H29051   6.987   1.210   9.882  1.0347  1.5717  1.8004
  956MOL0     H29052   7.186   1.437   9.780  2.6612  0.3905  1.9462
  956MOL0     H29053   7.210   1.270   9.770 -2.2272 -1.1561  0.2931
  956MOL0     H29054   7.172   1.248  10.015  1.2813 -0.1324  2.6273
  956MOL0     H29055   7.123   1.410  10.018  0.8249 -0.7578  1.7120
  956MOL0     H29056   7.412   1.336   9.947 -1.0894 -1.4070  1.4869
  956MOL0     H29057   7.367   1.375  10.103 -0.7103 -0.4506  0.8080
  956MOL0     H29058   7.393   1.749   9.899  1.2267  0.6143  2.6798
  956MOL0     H29059   6.918   1.035   9.645  0.2541  0.3923  0.5489
  956MOL0     H29060   6.704   0.950   9.565  1.5846  2.2119 -1.8984
  957MOL0     O29061  11.008  10.456   3.294 -0.0169 -0.2924  0.1250
  957MOL0     C29062  11.078  10.558   3.279  0.1349 -0.3611  0.3813
  957MOL0     O29063  11.060  10.684   3.341  0.2631  0.2516 -0.0111
  957MOL0     C29064  10.950  10.710   3.421  0.5908 -0.0345 -0.2471
  957MOL0     C29065  10.912  10.844   3.422 -0.4792 -0.6567 -0.0162
  957MOL0     C29066  10.808  10.886   3.501  0.7477 -0.4325 -0.1943
  957MOL0     C29067  10.741  10.805   3.591  0.3437 -0.5053 -0.4437
  957MOL0     O29068  10.647  10.845   3.687 -0.2364  0.4971 -0.6384
  957MOL0     C29069  10.600  10.986   3.700 -0.4369  0.5225 -0.0902
  957MOL0     C29070  10.504  11.041   3.598  0.0762 -0.7873  0.1297
  957MOL0     C29071  10.366  10.984   3.607  0.1676 -0.5844 -0.1173
  957MOL0     C29072  10.289  11.001   3.477  0.6340 -0.0675 -0.7393
  957MOL0     C29073  10.135  11.006   3.488  0.4408  0.5012 -0.7476
  957MOL0     C29074  10.063  11.024   3.350 -0.6298 -0.3011 -0.6049
  957MOL0     C29075   9.919  10.979   3.369  0.0838 -0.2689  0.2530
  957MOL0     C29076   9.854  10.929   3.242  0.6762  0.4034 -0.3656
  957MOL0     N29077   9.711  10.931   3.261  0.1676  0.2864  0.1994
  957MOL0     C29078   9.640  10.944   3.385 -0.6665  0.3505 -0.4194
  957MOL0     C29079   9.510  10.970   3.343  0.3347  0.0876 -0.5118
  957MOL0     C29080   9.399  11.004   3.445 -0.1548  0.2062 -0.9342
  957MOL0     C29081   9.262  10.954   3.413 -0.6493  0.3927 -0.2779
  957MOL0     C29082   9.170  10.968   3.529  0.5100  0.6937 -0.1240
  957MOL0     C29083   9.033  10.928   3.476  0.5212 -0.6852 -0.6539
  957MOL0     O29084   8.935  10.949   3.577 -0.4715 -0.3945 -0.2652
  957MOL0     C29085   8.815  10.898   3.559  0.5264 -0.5274  0.2514
  957MOL0     C29086   8.734  10.896   3.668  0.0889 -0.1643  0.4428
  957MOL0     C29087   8.611  10.837   3.673 -0.2099 -0.3845 -0.1578
  957MOL0     C29088   8.538  10.840   3.806  0.4709  1.0178  0.1261
  957MOL0     C29089   8.555  10.785   3.558  0.3210 -0.7283 -0.3750
  957MOL0     C29090   8.426  10.715   3.554  0.7437 -0.9230 -0.0398
  957MOL0     O29091   8.330  10.783   3.482  0.0876 -0.5221 -0.2581
  957MOL0     C29092   8.201  10.751   3.515  0.0401  0.4784 -0.7879
  957MOL0     C29093   8.149  10.805   3.634  0.8920  0.0709  0.1547
  957MOL0     C29094   8.010  10.801   3.654 -0.2505  0.7355  0.8911
  957MOL0     C29095   7.927  10.731   3.565 -0.0063 -0.2066 -0.0152
  957MOL0     O29096   7.787  10.726   3.575 -0.4547  1.0708 -0.1437
  957MOL0     C29097   7.735  10.773   3.703  0.8047  0.6764  0.1741
  957MOL0     C29098   7.714  10.930   3.724 -1.0586 -0.3946  0.2977
  957MOL0     C29099   7.608  10.992   3.629  0.4362  0.8341  0.0317
  957MOL0     C29100   7.609  11.138   3.639  1.0147 -0.4501  1.0638
  957MOL0     C29101   7.547  11.198   3.503 -0.1982  0.5967  0.3167
  957MOL0     C29102   7.399  11.173   3.506  0.1231 -0.2120  0.5151
  957MOL0     C29103   7.329  11.238   3.383  0.3474  0.0217  0.2676
  957MOL0     C29104   7.374  11.166   3.250 -0.7560  0.0555 -0.3632
  957MOL0    Cl29105   7.264  11.205   3.123 -0.2225 -0.2957 -0.1099
  957MOL0     C29106   7.979  10.660   3.451 -0.0229  0.0576 -0.5294
  957MOL0     C29107   8.117  10.681   3.422 -0.0195 -0.0544 -0.2748
  957MOL0     O29108   8.408  10.619   3.629  0.1942  0.5268 -0.5113
  957MOL0     C29109   8.631  10.796   3.441  0.6861  0.3950 -0.1651
  957MOL0     C29110   8.761  10.840   3.442 -0.8685 -0.3366  0.2936
  957MOL0     N29111   9.501  10.953   3.207 -0.5986  0.0911  0.7802
  957MOL0     N29112   9.626  10.940   3.154 -0.2537 -0.0745 -0.3734
  957MOL0     C29113  10.781  10.670   3.597  0.0650  0.2148  0.3914
  957MOL0     C29114  10.873  10.627   3.504  0.0038  0.6395  0.6971
  957MOL0     C29115  11.201  10.541   3.196  0.2865 -0.8917  0.3062
  957MOL0     C29116  11.303  10.633   3.210 -1.0708 -0.6225 -0.1640
  957MOL0     C29117  11.423  10.611   3.147 -1.1680 -0.5965  0.3118
  957MOL0     C29118  11.435  10.524   3.047  0.3025  0.3000 -0.7236
  957MOL0     O29119  11.557  10.524   2.976  0.0877 -0.7007 -0.1918
  957MOL0     C29120  11.595  10.403   2.907 -0.3545 -0.7315 -0.2291
  957MOL0     C29121  11.734  10.399   2.858 -0.8835  0.1761  0.6223
  957MOL0     C29122  11.770  10.501   2.746 -0.9144 -0.9766  1.1763
  957MOL0     C29123  11.928  10.522   2.758 -0.6983 -0.2567  0.6721
  957MOL0     C29124  12.005  10.410   2.708  0.2039  0.7620 -0.2471
  957MOL0     C29125  12.084  10.330   2.666  0.3528  0.9125  0.1499
  957MOL0     C29126  11.329  10.441   3.018 -0.0136  0.1056 -0.6790
  957MOL0     C29127  11.211  10.436   3.095 -0.7489 -0.0013  0.2837
  957MOL0     H29128  10.964  10.920   3.364  0.5522  0.3595  2.1020
  957MOL0     H29129  10.771  10.988   3.495 -0.5800 -0.8775  0.0664
  957MOL0     H29130  10.537  10.984   3.789 -1.2328  0.9736 -0.6347
  957MOL0     H29131  10.684  11.056   3.702  2.3916 -2.6352  0.6695
  957MOL0     H29132  10.484  11.147   3.619  0.8814 -0.5774 -0.1206
  957MOL0     H29133  10.539  11.036   3.495 -2.5003 -0.4645 -0.8168
  957MOL0     H29134  10.372  10.877   3.627  0.0097 -0.6171 -0.2479
  957MOL0     H29135  10.317  11.037   3.689  0.8012  0.3879 -0.3374
  957MOL0     H29136  10.321  11.092   3.424 -0.5079 -0.0557 -1.4409
  957MOL0     H29137  10.313  10.915   3.414  0.8516 -1.0220  0.6176
  957MOL0     H29138  10.103  10.914   3.536 -0.2668  1.2848  0.3377
  957MOL0     H29139  10.097  11.091   3.546  4.7574  4.1473 -2.6793
  957MOL0     H29140  10.056  11.127   3.314 -3.2687 -1.0671 -2.6146
  957MOL0     H29141  10.112  10.963   3.274  0.5092  0.4843 -0.5139
  957MOL0     H29142   9.917  10.903   3.448 -1.2594  1.1047  1.6067
  957MOL0     H29143   9.859  11.064   3.402 -1.2428 -0.3681 -1.7765
  957MOL0     H29144   9.892  10.826   3.235  0.2473 -0.3376  4.4883
  957MOL0     H29145   9.886  10.992   3.159 -0.2404  2.1313  0.5342
  957MOL0     H29146   9.686  10.939   3.483  0.6184 -0.2967 -1.0244
  957MOL0     H29147   9.437  10.958   3.537 -1.6774  2.0850  0.7267
  957MOL0     H29148   9.383  11.111   3.463 -1.8494 -0.2769  0.8123
  957MOL0     H29149   9.283  10.852   3.379  0.4171  0.7252 -0.6346
  957MOL0     H29150   9.217  11.006   3.328  1.4077  1.0082 -1.0504
  957MOL0     H29151   9.167  11.072   3.565 -2.2660 -0.4051  3.4674
  957MOL0     H29152   9.202  10.901   3.610  0.6082 -1.1526 -1.6201
  957MOL0     H29153   9.031  10.829   3.430 -1.7790  0.0684 -2.3703
  957MOL0     H29154   9.015  10.999   3.394 -1.8363 -0.3821  0.0672
  957MOL0     H29155   8.773  10.943   3.758  2.6482 -0.6320 -0.3564
  957MOL0     H29156   8.433  10.858   3.779 -0.1849  0.4523  2.1006
  957MOL0     H29157   8.532  10.747   3.863 -2.4615  1.8238  1.3801
  957MOL0     H29158   8.559  10.925   3.873  0.4638  0.4895  0.8073
  957MOL0     H29159   8.214  10.862   3.700  2.0104 -0.6900 -0.2480
  957MOL0     H29160   7.977  10.867   3.734 -0.1702  2.1006 -0.1740
  957MOL0     H29161   7.635  10.731   3.716  0.2564  2.6079  3.2873
  957MOL0     H29162   7.802  10.724   3.774  1.1121 -0.9001 -1.1498
  957MOL0     H29163   7.685  10.938   3.829  2.9016  0.2700  1.4944
  957MOL0     H29164   7.804  10.989   3.709 -2.2597  1.8452  1.4123
  957MOL0     H29165   7.507  10.952   3.642  1.1533  0.0034  5.8113
  957MOL0     H29166   7.634  10.965   3.526  1.8506 -2.0043  1.0227
  957MOL0     H29167   7.536  11.167   3.715 -1.2944 -0.7607 -0.9164
  957MOL0     H29168   7.706  11.186   3.654  0.6884  0.4481  0.3636
  957MOL0     H29169   7.593  11.153   3.414  0.0950 -0.6729  1.0904
  957MOL0     H29170   7.561  11.306   3.495 -0.5842  0.6437  0.2472
  957MOL0     H29171   7.369  11.068   3.518  1.2702 -0.6064  0.0889
  957MOL0     H29172   7.364  11.234   3.590  2.1378  1.4469  0.2318
  957MOL0     H29173   7.361  11.342   3.377  0.7810 -0.1327 -0.1664
  957MOL0     H29174   7.220  11.243   3.393  0.3834  0.8739  0.2788
  957MOL0     H29175   7.370  11.057   3.260  0.0296 -0.4365 -4.0319
  957MOL0     H29176   7.478  11.190   3.227 -0.9400 -0.2223 -1.5446
  957MOL0     H29177   7.914  10.603   3.384  1.2608 -3.4352  0.9692
  957MOL0     H29178   8.172  10.641   3.338 -0.3000 -2.4404  0.5962
  957MOL0     H29179   8.588  10.752   3.351  1.1526  0.6452 -0.5138
  957MOL0     H29180   8.817  10.859   3.350  2.5000  1.2454  2.4725
  957MOL0     H29181  10.731  10.598   3.661 -3.4738  0.8837 -1.3606
  957MOL0     H29182  10.898  10.521   3.507 -1.3683  0.1942 -1.5280
  957MOL0     H29183  11.293  10.707   3.289  1.8724 -3.8900  3.7518
  957MOL0     H29184  11.504  10.679   3.167 -0.6776 -1.0970  0.0440
  957MOL0     H29185  11.588  10.328   2.986 -1.6246 -0.1187  0.2690
  957MOL0     H29186  11.535  10.370   2.821 -1.0739  0.1230 -0.0665
  957MOL0     H29187  11.743  10.300   2.812 -1.7336  1.7080 -3.1868
  957MOL0     H29188  11.791  10.408   2.951 -0.4501  2.1294  0.2124
  957MOL0     H29189  11.724  10.599   2.763  1.4597  1.2109 -3.1483
  957MOL0     H29190  11.753  10.469   2.642  2.5727 -2.5378  0.9430
  957MOL0     H29191  11.956  10.535   2.863  0.6276  2.1524  0.1256
  957MOL0     H29192  11.964  10.612   2.706  0.2383  0.1079  1.8952
  957MOL0     H29193  12.169  10.274   2.632 -0.1074  0.0169  0.4522
  957MOL0     H29194  11.337  10.365   2.941 -0.1208 -0.9612  0.3451
  957MOL0     H29195  11.136  10.360   3.079 -0.2594 -1.0115  2.4578
  958MOL0     O29196   4.240   8.622  10.864 -0.0096  0.4562  0.5072
  958MOL0     C29197   4.321   8.706  10.894 -1.0421 -0.3521  0.5357
  958MOL0     O29198   4.291   8.826  10.949  0.4081  0.2581 -0.6019
  958MOL0     C29199   4.156   8.842  10.974 -0.3229  0.2345  0.2226
  958MOL0     C29200   4.098   8.829  11.100  0.1100 -0.7089  0.3933
  958MOL0     C29201   3.972   8.876  11.115  0.1851 -0.0145 -0.3141
  958MOL0     C29202   3.890   8.932  11.014  0.1170 -0.0854  0.5022
  958MOL0     O29203   3.761   8.981  11.028 -0.1792  0.1424 -0.0316
  958MOL0     C29204   3.685   8.939  11.144  1.1898  0.9518 -1.2298
  958MOL0     C29205   3.542   8.983  11.146 -1.4959  0.4113  0.0241
  958MOL0     C29206   3.473   8.946  11.018 -0.4473  0.4917  0.4594
  958MOL0     C29207   3.319   8.968  11.019 -0.7835  0.2749 -0.8375
  958MOL0     C29208   3.268   8.978  10.872 -0.2566  0.0378  0.5353
  958MOL0     C29209   3.113   8.955  10.861 -0.1677  0.5965 -0.0694
  958MOL0     C29210   3.033   9.053  10.947  0.7048 -0.2159 -0.5234
  958MOL0     C29211   2.890   8.987  10.976 -0.2278  0.3091  0.2913
  958MOL0     N29212   2.802   8.975  10.858 -0.8199 -0.2294 -0.2174
  958MOL0     C29213   2.801   9.061  10.753  0.1040 -0.5149 -1.4618
  958MOL0     C29214   2.701   9.029  10.668 -0.4585  0.4210 -0.4209
  958MOL0     C29215   2.664   9.095  10.541  0.2385  0.6575 -0.3733
  958MOL0     C29216   2.516   9.125  10.547  0.1112 -0.3939 -0.5153
  958MOL0     C29217   2.450   9.159  10.412 -0.0790  0.2652 -0.4653
  958MOL0     C29218   2.302   9.138  10.420 -0.5341 -0.4374  0.0940
  958MOL0     O29219   2.273   9.002  10.426  0.5588  0.0437 -0.4667
  958MOL0     C29220   2.140   8.972  10.396 -0.6789  0.3289 -0.6636
  958MOL0     C29221   2.030   9.056  10.400 -0.1739 -0.3415 -0.5893
  958MOL0     C29222   1.902   9.028  10.350 -0.3361 -0.1211  0.2390
  958MOL0     C29223   1.797   9.147  10.348  0.3107  0.2258  0.1030
  958MOL0     C29224   1.880   8.890  10.303  0.6949  0.3794  0.3224
  958MOL0     C29225   1.752   8.842  10.248 -0.8814 -0.0869 -0.5916
  958MOL0     O29226   1.743   8.723  10.179  0.1829 -0.5273 -0.3609
  958MOL0     C29227   1.623   8.692  10.129  0.6038  0.9464 -0.5518
  958MOL0     C29228   1.523   8.629  10.212 -0.8833  0.0077 -0.4725
  958MOL0     C29229   1.398   8.609  10.163  0.8588  0.2395 -0.4699
  958MOL0     C29230   1.359   8.661  10.039 -0.4220  0.3367  0.1502
  958MOL0     O29231   1.230   8.674  10.004 -0.1894  0.3382 -0.1331
  958MOL0     C29232   1.161   8.784  10.076 -0.4839 -0.0357 -0.4682
  958MOL0     C29233   1.045   8.726  10.148 -0.1341 -0.0288 -0.3847
  958MOL0     C29234   0.924   8.698  10.054 -0.0299  0.6229  0.0801
  958MOL0     C29235   0.805   8.629  10.130 -0.1327  0.2399  0.3012
  958MOL0     C29236   0.687   8.579  10.036 -0.4017 -0.3186 -0.0207
  958MOL0     C29237   0.578   8.501  10.105 -0.0903 -0.0064  0.5641
  958MOL0     C29238   0.520   8.585  10.221 -1.2237 -0.7001 -1.0566
  958MOL0     C29239   0.392   8.522  10.270  0.7063  0.0810 -0.8071
  958MOL0    Cl29240   0.413   8.358  10.356 -0.0394 -0.1544  0.3521
  958MOL0     C29241   1.454   8.725   9.955 -0.2594  0.1564 -0.3171
  958MOL0     C29242   1.590   8.737  10.001  0.3427  0.3211 -0.0012
  958MOL0     O29243   1.654   8.920  10.261 -0.0063  0.9026 -0.2574
  958MOL0     C29244   1.990   8.804  10.306 -0.4748 -0.8585  0.6041
  958MOL0     C29245   2.117   8.846  10.353  0.0585  0.2570  0.0539
  958MOL0     N29246   2.652   8.907  10.719 -0.2821  0.0380  0.4540
  958MOL0     N29247   2.712   8.878  10.832 -0.7180 -0.1115 -0.4236
  958MOL0     C29248   3.948   8.947  10.884 -0.9510  0.7275 -0.6473
  958MOL0     C29249   4.079   8.904  10.870 -0.5328 -0.2149 -0.3579
  958MOL0     C29250   4.460   8.669  10.871 -0.6291  0.3947  0.3570
  958MOL0     C29251   4.489   8.537  10.822  0.4561 -0.9656 -0.6799
  958MOL0     C29252   4.620   8.494  10.808 -0.0938 -0.3926 -0.0958
  958MOL0     C29253   4.732   8.577  10.851 -0.7996  0.9279  0.0004
  958MOL0     O29254   4.850   8.516  10.847  0.0763  0.1767  0.8667
  958MOL0     C29255   4.974   8.593  10.864  0.7127 -0.2312 -0.4058
  958MOL0     C29256   5.086   8.524  10.797  0.0266  0.5029 -0.0257
  958MOL0     C29257   5.121   8.396  10.876 -0.4483 -0.4401 -0.1845
  958MOL0     C29258   5.242   8.330  10.808 -0.2201 -0.4280 -0.6757
  958MOL0     C29259   5.277   8.209  10.886  0.6701 -0.1633  0.4931
  958MOL0     C29260   5.309   8.103  10.950  0.6905 -0.5762 -0.5589
  958MOL0     C29261   4.704   8.702  10.894 -0.3954 -0.4286 -0.1069
  958MOL0     C29262   4.573   8.753  10.894  0.1145  0.5102 -0.4951
  958MOL0     H29263   4.145   8.785  11.186  0.9204  0.5996  0.6505
  958MOL0     H29264   3.944   8.889  11.219 -1.1081 -1.6639 -0.4125
  958MOL0     H29265   3.709   8.833  11.151 -1.7934  0.0103 -3.5276
  958MOL0     H29266   3.725   8.996  11.229  0.6272  0.5812 -0.7123
  958MOL0     H29267   3.485   8.942  11.230 -1.0280 -1.1565 -0.3787
  958MOL0     H29268   3.538   9.090  11.166  1.4313  0.1790  2.6678
  958MOL0     H29269   3.517   8.992  10.929 -2.5481 -1.8793 -1.9967
  958MOL0     H29270   3.496   8.839  11.021  0.4772  0.6926  1.0911
  958MOL0     H29271   3.272   8.893  11.085 -0.3054  0.7703  0.0911
  958MOL0     H29272   3.287   9.066  11.058 -3.2861  0.0695 -2.1431
  958MOL0     H29273   3.301   9.073  10.830 -2.0237  1.1238  1.5251
  958MOL0     H29274   3.311   8.902  10.805 -1.1895  2.3476 -2.9608
  958MOL0     H29275   3.087   8.976  10.757  1.9114  1.9303 -0.3921
  958MOL0     H29276   3.088   8.851  10.883  0.4420  0.4711  0.0382
  958MOL0     H29277   3.082   9.079  11.041  1.5572  0.1602 -1.0726
  958MOL0     H29278   3.006   9.148  10.901 -0.1965  0.0052  0.4203
  958MOL0     H29279   2.841   9.056  11.046 -0.4941 -1.0637  1.5153
  958MOL0     H29280   2.888   8.885  11.015  0.6178  0.6432  1.2555
  958MOL0     H29281   2.856   9.154  10.760 -1.3917  0.2951  0.8993
  958MOL0     H29282   2.715   9.192  10.537  0.7177  0.3824 -1.0218
  958MOL0     H29283   2.694   9.033  10.457  0.9632  0.7069 -0.1534
  958MOL0     H29284   2.492   9.210  10.612  0.6832  0.8569 -1.8722
  958MOL0     H29285   2.464   9.035  10.583  1.1369 -0.7377  0.1371
  958MOL0     H29286   2.494   9.093  10.337  2.5962 -2.0865  2.8863
  958MOL0     H29287   2.466   9.265  10.392 -2.0667  1.4343  3.2109
  958MOL0     H29288   2.250   9.187  10.337 -1.1424  1.8937  1.7529
  958MOL0     H29289   2.271   9.195  10.507  1.9384 -1.0354  1.4536
  958MOL0     H29290   2.050   9.161  10.421  2.0318 -0.9421  0.5962
  958MOL0     H29291   1.851   9.240  10.371 -0.2651  0.3215  1.1694
  958MOL0     H29292   1.754   9.161  10.249  0.4768  1.8466  0.2228
  958MOL0     H29293   1.721   9.140  10.426  0.4187 -0.1189  0.1773
  958MOL0     H29294   1.548   8.616  10.317 -0.8672 -1.2955 -0.6293
  958MOL0     H29295   1.316   8.583  10.230 -0.0436 -0.5387 -1.8130
  958MOL0     H29296   1.232   8.829  10.146 -1.5690  1.6153 -0.3824
  958MOL0     H29297   1.145   8.860   9.999 -0.2257  1.3832  0.8374
  958MOL0     H29298   1.073   8.631  10.194 -0.6914  0.8131  1.7971
  958MOL0     H29299   1.015   8.800  10.222  1.8171  2.3833 -1.8521
  958MOL0     H29300   0.961   8.636   9.972 -3.0227  0.9064 -1.6276
  958MOL0     H29301   0.886   8.787  10.004 -0.2757  2.8025  3.7683
  958MOL0     H29302   0.849   8.534  10.162 -0.6878 -0.3913 -0.7562
  958MOL0     H29303   0.765   8.684  10.215 -1.0473 -0.6277  0.4506
  958MOL0     H29304   0.739   8.520   9.959  1.6808  3.3438 -1.6811
  958MOL0     H29305   0.636   8.652   9.972  0.9239 -0.1384 -0.9246
  958MOL0     H29306   0.499   8.485  10.031  1.3971  1.3620 -1.4144
  958MOL0     H29307   0.614   8.406  10.146  0.0742  0.6483  1.9983
  958MOL0     H29308   0.484   8.683  10.189 -2.2833  0.1566  2.4259
  958MOL0     H29309   0.592   8.592  10.303  0.2880 -1.2797 -2.2772
  958MOL0     H29310   0.316   8.524  10.191 -0.8507  1.1499  0.6451
  958MOL0     H29311   0.361   8.589  10.351 -0.6588  0.1044 -1.3212
  958MOL0     H29312   1.414   8.784   9.873  1.6540  1.4252 -0.4153
  958MOL0     H29313   1.663   8.792   9.942  0.3763  0.7438  0.4216
  958MOL0     H29314   1.985   8.704  10.264 -1.0304  0.0855 -1.7138
  958MOL0     H29315   2.205   8.783  10.342  1.5595  2.3946 -1.0024
  958MOL0     H29316   3.888   8.994  10.806 -1.1430  0.2976 -0.7625
  958MOL0     H29317   4.139   8.918  10.781  1.0637  0.6376  0.8171
  958MOL0     H29318   4.408   8.466  10.815 -0.0557 -0.4082 -0.4642
  958MOL0     H29319   4.644   8.393  10.775  2.2937  0.1624 -0.2551
  958MOL0     H29320   4.962   8.697  10.833  0.1790  0.5671  2.2084
  958MOL0     H29321   5.015   8.602  10.965  0.3355 -0.7196 -0.2054
  958MOL0     H29322   5.177   8.586  10.795  0.9514 -0.8150 -0.2028
  958MOL0     H29323   5.076   8.503  10.690  0.1000 -0.2036  0.1059
  958MOL0     H29324   5.043   8.320  10.879  2.3666 -3.5770  0.0232
  958MOL0     H29325   5.148   8.433  10.976  0.4045  1.4173 -1.0680
  958MOL0     H29326   5.329   8.397  10.805 -0.5420 -0.0030 -0.6392
  958MOL0     H29327   5.227   8.306  10.702 -0.1963 -3.3443 -0.1040
  958MOL0     H29328   5.334   8.008  10.994  2.1221  0.6995  1.5208
  958MOL0     H29329   4.779   8.770  10.933  0.0714 -0.5766 -0.7126
  958MOL0     H29330   4.569   8.853  10.936 -1.7667  0.0824  0.5082
  959MOL0     O29331   8.469   7.068   7.298  0.2784  0.4889  0.2585
  959MOL0     C29332   8.454   7.134   7.397  0.7776  0.4229  0.1423
  959MOL0     O29333   8.334   7.148   7.462  0.2879 -0.6862 -0.3383
  959MOL0     C29334   8.218   7.094   7.422  0.4236  0.2513 -0.0468
  959MOL0     C29335   8.107   7.173   7.460  0.1534 -0.1528 -0.0885
  959MOL0     C29336   7.975   7.140   7.418  0.1555  0.6323 -0.3069
  959MOL0     C29337   7.954   7.014   7.349  0.7400  0.5569  0.4835
  959MOL0     O29338   7.832   6.961   7.314 -0.5927  0.9888  0.2533
  959MOL0     C29339   7.715   7.043   7.311  0.3691 -0.4418 -0.1200
  959MOL0     C29340   7.587   6.966   7.272  0.9596 -0.5870 -0.0865
  959MOL0     C29341   7.544   6.889   7.392 -0.1589  0.4055  0.0136
  959MOL0     C29342   7.404   6.826   7.358  0.0733 -0.5102 -0.4194
  959MOL0     C29343   7.344   6.734   7.468  0.1400 -0.1694 -0.0480
  959MOL0     C29344   7.306   6.815   7.590 -0.8519  0.3830  0.1139
  959MOL0     C29345   7.248   6.724   7.698 -0.2060 -0.4555  0.0964
  959MOL0     C29346   7.227   6.812   7.824  0.5742  0.8007  0.1692
  959MOL0     N29347   7.096   6.801   7.888  0.2782  0.1566 -0.5262
  959MOL0     C29348   6.981   6.808   7.814 -0.0705  0.0660 -0.2316
  959MOL0     C29349   6.889   6.757   7.900 -1.0726  0.4534 -0.7224
  959MOL0     C29350   6.736   6.748   7.891 -0.4207 -0.7759  0.6212
  959MOL0     C29351   6.685   6.634   7.795 -0.2244 -0.5042  0.1904
  959MOL0     C29352   6.535   6.648   7.785 -0.3882 -0.1745  0.0181
  959MOL0     C29353   6.467   6.535   7.709 -0.2894  0.5813  0.2853
  959MOL0     O29354   6.493   6.402   7.775 -0.5664 -0.2329  0.5343
  959MOL0     C29355   6.426   6.288   7.753  0.6109  0.0965  0.4924
  959MOL0     C29356   6.294   6.284   7.709 -0.7258  0.8215  0.7220
  959MOL0     C29357   6.229   6.154   7.692  0.3341 -0.2933  0.2435
  959MOL0     C29358   6.091   6.156   7.641 -0.3069 -0.3735 -1.3712
  959MOL0     C29359   6.297   6.035   7.730 -0.8634 -0.9217  0.1896
  959MOL0     C29360   6.246   5.897   7.712  0.2382 -0.2715  0.4184
  959MOL0     O29361   6.160   5.871   7.606 -0.3520  0.1227 -0.8713
  959MOL0     C29362   6.123   5.736   7.591 -0.0031 -0.1420 -1.0370
  959MOL0     C29363   6.198   5.628   7.548 -0.1434 -1.5751  0.3598
  959MOL0     C29364   6.137   5.506   7.533  0.1710  0.3847  0.1341
  959MOL0     C29365   5.998   5.487   7.554 -1.1197 -1.5058 -0.1262
  959MOL0     O29366   5.933   5.368   7.531 -0.1601  0.0023 -0.2745
  959MOL0     C29367   5.933   5.328   7.394 -0.0483  0.3783  0.1253
  959MOL0     C29368   5.812   5.233   7.373  0.2848  0.3031  0.2738
  959MOL0     C29369   5.678   5.305   7.381  0.1672 -0.9031  0.0067
  959MOL0     C29370   5.592   5.304   7.249  0.3514  0.4228 -0.0176
  959MOL0     C29371   5.442   5.315   7.281  0.0068 -0.8084  0.4457
  959MOL0     C29372   5.363   5.266   7.161  1.2071 -0.6492  0.2111
  959MOL0     C29373   5.210   5.247   7.186  0.7889 -0.2939  0.8077
  959MOL0     C29374   5.144   5.383   7.224 -0.0445 -0.2179  0.0857
  959MOL0    Cl29375   4.965   5.361   7.215 -0.0388 -0.3211 -0.1996
  959MOL0     C29376   5.927   5.591   7.617  0.7679  0.0152  0.4404
  959MOL0     C29377   5.989   5.717   7.625 -0.1381  0.1037  0.4233
  959MOL0     O29378   6.269   5.829   7.810 -0.4488  0.0744 -0.6880
  959MOL0     C29379   6.418   6.048   7.797  0.9278 -0.2343 -0.3727
  959MOL0     C29380   6.485   6.174   7.806 -0.0483 -0.1765 -0.0787
  959MOL0     N29381   6.949   6.723   8.021 -0.2187 -1.2091  0.3377
  959MOL0     N29382   7.077   6.758   8.012  0.9848  0.0291 -0.9171
  959MOL0     C29383   8.060   6.941   7.313 -0.7705 -0.1844 -1.3188
  959MOL0     C29384   8.195   6.980   7.343 -0.2759 -0.6382 -0.2466
  959MOL0     C29385   8.563   7.225   7.440 -0.0443  0.3985  0.0747
  959MOL0     C29386   8.548   7.328   7.538  0.0515  0.1257 -0.0479
  959MOL0     C29387   8.657   7.407   7.578 -0.2762 -0.0420  0.3311
  959MOL0     C29388   8.781   7.379   7.535 -0.3282  0.2596  0.0118
  959MOL0     O29389   8.877   7.448   7.608  0.2896  0.0871 -0.1055
  959MOL0     C29390   9.004   7.455   7.539 -1.0715 -0.4148  0.6075
  959MOL0     C29391   9.109   7.549   7.598 -0.6048  0.5461 -0.3976
  959MOL0     C29392   9.170   7.505   7.732  0.6606  0.0105 -0.1226
  959MOL0     C29393   9.246   7.617   7.807  0.4543 -0.3885  0.1662
  959MOL0     C29394   9.371   7.659   7.734  0.2127  0.3277 -0.2622
  959MOL0     C29395   9.470   7.700   7.674 -0.0698  0.4594  0.1562
  959MOL0     C29396   8.802   7.277   7.441  0.3656 -0.1147 -0.5117
  959MOL0     C29397   8.690   7.204   7.386 -0.2705  0.3367 -1.1290
  959MOL0     H29398   8.136   7.265   7.510 -0.7977  0.8608 -1.3253
  959MOL0     H29399   7.890   7.201   7.449 -0.2394 -0.9637  2.0214
  959MOL0     H29400   7.702   7.101   7.404  1.3538  0.2778 -0.4202
  959MOL0     H29401   7.732   7.113   7.229  1.5329  0.2257  0.6478
  959MOL0     H29402   7.518   7.050   7.259 -0.3251 -1.5810  0.1074
  959MOL0     H29403   7.600   6.905   7.182  2.2538  0.2050 -0.4585
  959MOL0     H29404   7.615   6.809   7.415  0.4357  0.5850 -1.1203
  959MOL0     H29405   7.549   6.953   7.481  2.5363  1.5437 -0.8551
  959MOL0     H29406   7.330   6.902   7.330 -0.5935 -1.0997 -0.2753
  959MOL0     H29407   7.416   6.762   7.270  2.6911  2.1202 -2.1419
  959MOL0     H29408   7.256   6.679   7.433 -0.4972 -0.8335  2.3859
  959MOL0     H29409   7.415   6.654   7.489 -0.2370 -0.6386 -0.5170
  959MOL0     H29410   7.394   6.853   7.643 -1.7661 -0.5208  2.4424
  959MOL0     H29411   7.231   6.890   7.560 -2.3596 -0.7932  0.7885
  959MOL0     H29412   7.156   6.674   7.667  0.2076 -0.7902 -0.6033
  959MOL0     H29413   7.310   6.640   7.730  1.3544  0.2622 -0.8981
  959MOL0     H29414   7.247   6.916   7.799 -0.0196  1.0037  0.5271
  959MOL0     H29415   7.308   6.793   7.895  2.8522  3.7486 -1.4428
  959MOL0     H29416   6.962   6.821   7.708 -0.3281 -2.0929 -0.5109
  959MOL0     H29417   6.702   6.743   7.995 -1.7506  2.1464  0.4456
  959MOL0     H29418   6.699   6.846   7.859 -3.1287 -1.5992  0.9613
  959MOL0     H29419   6.708   6.538   7.842 -1.4079 -1.0577 -0.3211
  959MOL0     H29420   6.721   6.634   7.692  0.2963 -0.4298  0.3706
  959MOL0     H29421   6.508   6.744   7.737  0.5097  0.4944  0.8316
  959MOL0     H29422   6.504   6.657   7.889  0.4043  3.6226  0.0623
  959MOL0     H29423   6.477   6.536   7.600 -1.1868  2.5657  0.1846
  959MOL0     H29424   6.361   6.563   7.714 -0.7301 -0.1831 -2.7675
  959MOL0     H29425   6.246   6.377   7.681  0.4228  0.9964 -0.8311
  959MOL0     H29426   6.035   6.076   7.691 -0.5421  0.2666 -0.5866
  959MOL0     H29427   6.055   6.257   7.663 -0.5778 -0.4572 -1.4173
  959MOL0     H29428   6.086   6.131   7.535  1.0766 -0.2776 -1.4668
  959MOL0     H29429   6.303   5.642   7.527 -0.1858 -0.4025  0.8786
  959MOL0     H29430   6.192   5.418   7.503 -0.5161  0.0260 -0.1002
  959MOL0     H29431   5.931   5.413   7.326  1.8678 -0.7107 -1.4332
  959MOL0     H29432   6.017   5.260   7.374 -1.7653 -2.7955  2.5940
  959MOL0     H29433   5.831   5.179   7.279 -0.4180 -4.0327  2.3979
  959MOL0     H29434   5.817   5.150   7.443  1.1519 -1.0982 -1.3500
  959MOL0     H29435   5.695   5.412   7.401 -0.1698 -0.3512 -2.4259
  959MOL0     H29436   5.618   5.256   7.459 -2.1306 -1.1179 -1.7952
  959MOL0     H29437   5.629   5.379   7.179 -0.1081 -0.4856 -1.2860
  959MOL0     H29438   5.612   5.208   7.199 -2.0240 -0.6375  0.9137
  959MOL0     H29439   5.417   5.419   7.304  1.8138 -0.2602  0.1085
  959MOL0     H29440   5.403   5.248   7.358  1.4387  0.3187  2.2175
  959MOL0     H29441   5.376   5.339   7.081  2.7280 -1.0790  0.0392
  959MOL0     H29442   5.402   5.173   7.119  0.1286 -0.3883 -1.4568
  959MOL0     H29443   5.207   5.169   7.263 -0.2788 -1.0324  0.0473
  959MOL0     H29444   5.146   5.203   7.109 -1.4163  1.2689  1.6377
  959MOL0     H29445   5.175   5.476   7.175  1.1679 -0.6383  0.0190
  959MOL0     H29446   5.167   5.411   7.328 -0.3726 -1.3132  0.4620
  959MOL0     H29447   5.822   5.583   7.644  0.7455  0.4479  0.4736
  959MOL0     H29448   5.935   5.800   7.670  1.1409  2.2735 -1.7882
  959MOL0     H29449   6.466   5.965   7.848  2.4400  2.1303  2.3549
  959MOL0     H29450   6.586   6.180   7.846 -0.1906  1.5937  0.1060
  959MOL0     H29451   8.049   6.841   7.273  0.5076  0.6023 -3.8760
  959MOL0     H29452   8.278   6.918   7.311  0.6220  0.5059 -0.1968
  959MOL0     H29453   8.451   7.348   7.583  1.6167  0.7123  3.4693
  959MOL0     H29454   8.636   7.491   7.644 -2.8851 -2.2156  2.5052
  959MOL0     H29455   9.044   7.354   7.552  0.1684  0.2733  2.7810
  959MOL0     H29456   8.996   7.478   7.433  3.3061 -0.8936  0.0146
  959MOL0     H29457   9.074   7.652   7.607 -2.0658 -0.0709  3.7788
  959MOL0     H29458   9.194   7.548   7.530  0.4473 -0.3207  0.8670
  959MOL0     H29459   9.244   7.427   7.712  0.3204 -0.5752  0.8187
  959MOL0     H29460   9.091   7.481   7.804  1.6912  0.7703  1.3092
  959MOL0     H29461   9.289   7.575   7.898  2.4567 -0.8480 -0.9142
  959MOL0     H29462   9.193   7.710   7.829  1.1281  0.2944 -0.9677
  959MOL0     H29463   9.555   7.740   7.623 -0.9162 -0.5669 -2.2379
  959MOL0     H29464   8.901   7.258   7.400 -0.8979 -0.7971 -3.4964
  959MOL0     H29465   8.716   7.127   7.313  3.8027  0.2100  0.1974
  960MOL0     O29466   8.437   1.028   3.090 -0.3505  0.3146  0.1128
  960MOL0     C29467   8.477   0.959   3.189  0.1729 -0.1411 -0.1974
  960MOL0     O29468   8.437   0.834   3.219 -0.2328  0.5191  0.3189
  960MOL0     C29469   8.340   0.779   3.139 -0.1143  0.8182 -0.4518
  960MOL0     C29470   8.355   0.759   3.008 -0.1445 -0.1604  0.1835
  960MOL0     C29471   8.247   0.706   2.933 -0.0285  0.7206  0.0076
  960MOL0     C29472   8.135   0.647   2.995 -0.4162  0.2578  0.4142
  960MOL0     O29473   8.032   0.586   2.916  0.8427  0.1718 -0.3548
  960MOL0     C29474   7.915   0.540   2.983  0.3205  0.2294  0.8863
  960MOL0     C29475   7.832   0.465   2.873 -0.0632 -0.5646 -0.7725
  960MOL0     C29476   7.746   0.556   2.784  0.2726 -0.5768  0.4420
  960MOL0     C29477   7.626   0.633   2.852  0.1520 -0.2820  0.2507
  960MOL0     C29478   7.545   0.714   2.743 -0.6493 -0.4389  0.1540
  960MOL0     C29479   7.439   0.787   2.819 -0.1091 -0.2583  0.0789
  960MOL0     C29480   7.381   0.895   2.729  1.1219  0.7380 -0.0885
  960MOL0     C29481   7.245   0.930   2.787 -0.4710  0.7184 -1.0775
  960MOL0     N29482   7.166   1.023   2.700  0.4536  0.4793 -0.1074
  960MOL0     C29483   7.110   0.990   2.573  0.0804 -0.6168  0.4113
  960MOL0     C29484   7.027   1.093   2.549 -0.5666  0.1836  0.3092
  960MOL0     C29485   6.944   1.095   2.426 -0.5377 -1.1082  1.0226
  960MOL0     C29486   6.847   1.208   2.392 -0.2459 -0.1657  1.2418
  960MOL0     C29487   6.912   1.346   2.393 -0.6026  0.0078  0.2812
  960MOL0     C29488   6.809   1.451   2.405  0.8079 -0.4464  0.1025
  960MOL0     O29489   6.710   1.433   2.304 -0.0926  0.6513 -0.0958
  960MOL0     C29490   6.582   1.463   2.322 -0.4618 -0.3360 -0.2597
  960MOL0     C29491   6.494   1.423   2.225  0.2829  0.3035 -0.2188
  960MOL0     C29492   6.361   1.461   2.226 -0.3427  0.0974  0.0569
  960MOL0     C29493   6.280   1.390   2.119  0.5703  0.5233  0.4290
  960MOL0     C29494   6.314   1.525   2.345 -1.4493  0.4226 -0.3225
  960MOL0     C29495   6.167   1.560   2.372 -0.8421 -1.1135  0.0565
  960MOL0     O29496   6.144   1.632   2.485  0.5573 -0.2434  0.3168
  960MOL0     C29497   6.014   1.666   2.519  0.0290 -0.3632  0.2394
  960MOL0     C29498   5.979   1.639   2.653 -1.0303 -0.8710  0.8615
  960MOL0     C29499   5.850   1.651   2.709  0.6716  0.6981 -0.0937
  960MOL0     C29500   5.746   1.708   2.636  0.3029 -0.1434 -0.3162
  960MOL0     O29501   5.623   1.745   2.684 -0.2835  0.1126  0.3863
  960MOL0     C29502   5.558   1.635   2.753 -0.2495  0.1364 -1.0054
  960MOL0     C29503   5.403   1.651   2.751 -0.7548 -0.6312  0.2210
  960MOL0     C29504   5.356   1.671   2.611  0.5062  0.0134  0.2938
  960MOL0     C29505   5.201   1.654   2.603  0.3502  0.1985  0.1392
  960MOL0     C29506   5.133   1.719   2.481  1.1814 -0.2743 -0.2610
  960MOL0     C29507   4.980   1.701   2.497 -0.2584  0.3342  0.4849
  960MOL0     C29508   4.943   1.554   2.468  0.7470 -0.1697 -0.3989
  960MOL0     C29509   4.824   1.509   2.539 -0.4306  0.7120 -0.6206
  960MOL0    Cl29510   4.687   1.602   2.476 -0.3220 -0.0031 -0.4828
  960MOL0     C29511   5.779   1.731   2.504  0.7994  0.3268 -0.0451
  960MOL0     C29512   5.904   1.707   2.444  0.8095  0.1446  0.1622
  960MOL0     O29513   6.081   1.524   2.288  0.2717  0.4342 -0.1229
  960MOL0     C29514   6.407   1.577   2.438  0.3537 -0.3140  0.1960
  960MOL0     C29515   6.537   1.540   2.430 -0.3849  0.9469 -0.1771
  960MOL0     N29516   7.025   1.189   2.655 -1.0912  0.0851  0.3323
  960MOL0     N29517   7.112   1.139   2.743  0.1687  0.0314 -0.7648
  960MOL0     C29518   8.129   0.665   3.133  0.5155 -0.0081 -0.6119
  960MOL0     C29519   8.225   0.735   3.206 -0.0472 -0.7884 -0.1056
  960MOL0     C29520   8.572   1.017   3.288  0.2251 -0.6601 -0.4199
  960MOL0     C29521   8.619   0.943   3.395 -0.5593  0.5240  0.6463
  960MOL0     C29522   8.694   1.001   3.496 -0.2827 -0.2430  1.0127
  960MOL0     C29523   8.730   1.137   3.492  0.3205  0.9218  0.9628
  960MOL0     O29524   8.801   1.197   3.585 -0.5559 -0.3948 -0.5132
  960MOL0     C29525   8.868   1.127   3.686  0.9645 -0.5462 -0.1670
  960MOL0     C29526   8.963   1.222   3.764 -0.0472  1.0332 -0.0862
  960MOL0     C29527   9.038   1.149   3.881 -0.3166 -0.2062  0.3128
  960MOL0     C29528   9.121   1.258   3.961 -0.8934  0.4499  0.2971
  960MOL0     C29529   9.253   1.295   3.903 -0.0122  0.8030 -0.9331
  960MOL0     C29530   9.350   1.348   3.855  0.4095  0.0750 -0.2354
  960MOL0     C29531   8.680   1.213   3.390  0.1940  0.7487 -0.2316
  960MOL0     C29532   8.599   1.153   3.289  0.3693 -0.0285 -0.8053
  960MOL0     H29533   8.440   0.799   2.954  0.7144 -2.6488 -0.4200
  960MOL0     H29534   8.266   0.695   2.827  0.5708 -3.1566  0.3890
  960MOL0     H29535   7.929   0.463   3.060 -2.6156 -1.6937 -0.3501
  960MOL0     H29536   7.853   0.612   3.037 -2.0410 -2.5025  2.0498
  960MOL0     H29537   7.896   0.403   2.811  0.6325 -0.4889 -0.1491
  960MOL0     H29538   7.765   0.404   2.935  0.9072 -0.7908  0.0825
  960MOL0     H29539   7.814   0.625   2.734 -0.1054  1.5947  2.6703
  960MOL0     H29540   7.710   0.495   2.701  1.6868 -0.4881 -0.2695
  960MOL0     H29541   7.564   0.554   2.894 -0.5277 -0.3771 -0.8877
  960MOL0     H29542   7.671   0.697   2.929  0.9362 -1.2403  0.6176
  960MOL0     H29543   7.604   0.784   2.683 -2.4767 -0.1695 -1.4117
  960MOL0     H29544   7.492   0.643   2.680  0.9935 -1.5334 -0.0717
  960MOL0     H29545   7.365   0.713   2.851 -1.4567  2.3323  3.6502
  960MOL0     H29546   7.478   0.832   2.911 -0.5350 -1.9359  1.1131
  960MOL0     H29547   7.449   0.981   2.722  0.9186  0.9419  0.4516
  960MOL0     H29548   7.364   0.858   2.627  0.6508 -2.7065  1.1267
  960MOL0     H29549   7.260   0.967   2.889  2.1633  0.1268 -1.1795
  960MOL0     H29550   7.169   0.853   2.801 -1.3834  1.7676 -0.0494
  960MOL0     H29551   7.110   0.892   2.525 -0.2300 -0.2085 -0.4413
  960MOL0     H29552   7.012   1.086   2.340 -0.7195 -0.9083  0.8552
  960MOL0     H29553   6.898   0.996   2.427  0.1782 -1.4482  1.9817
  960MOL0     H29554   6.773   1.210   2.473 -1.0908  1.8919  0.4685
  960MOL0     H29555   6.792   1.198   2.298 -2.9098  0.1314  2.6666
  960MOL0     H29556   6.971   1.353   2.302 -0.6403 -3.2712 -0.1104
  960MOL0     H29557   6.979   1.364   2.478 -1.4532  3.1650  0.4234
  960MOL0     H29558   6.864   1.542   2.382  3.6945 -2.1732 -0.2704
  960MOL0     H29559   6.763   1.449   2.505  0.3935 -1.3138 -0.0918
  960MOL0     H29560   6.541   1.365   2.146  0.4417  0.6516 -0.3799
  960MOL0     H29561   6.337   1.381   2.026 -1.7988 -0.6532 -1.0041
  960MOL0     H29562   6.247   1.289   2.145 -2.1953  1.1203 -0.3316
  960MOL0     H29563   6.188   1.444   2.095 -0.3652 -1.4179 -0.5734
  960MOL0     H29564   6.062   1.599   2.710  0.1437 -0.6204 -0.5987
  960MOL0     H29565   5.837   1.620   2.812  0.5737  1.1866  0.0435
  960MOL0     H29566   5.590   1.537   2.717 -0.4958 -2.3217  4.4779
  960MOL0     H29567   5.600   1.643   2.854  1.1600 -0.5912 -1.5062
  960MOL0     H29568   5.365   1.556   2.790 -0.9487 -1.0694 -1.0005
  960MOL0     H29569   5.390   1.736   2.818  0.1192  0.8733 -1.4588
  960MOL0     H29570   5.410   1.611   2.537 -0.5681  1.9975 -2.2659
  960MOL0     H29571   5.375   1.775   2.582 -0.2331  0.3624  1.0482
  960MOL0     H29572   5.174   1.549   2.590  0.0073  0.0571  1.7809
  960MOL0     H29573   5.156   1.699   2.692 -3.8680 -0.5333 -1.3956
  960MOL0     H29574   5.175   1.683   2.387  2.0547  2.1046 -0.8571
  960MOL0     H29575   5.150   1.827   2.488  0.1443  0.1998 -3.4080
  960MOL0     H29576   4.943   1.736   2.595 -1.3748  1.2444 -0.2330
  960MOL0     H29577   4.920   1.757   2.425 -2.9685 -0.5043  1.9537
  960MOL0     H29578   5.025   1.483   2.485  0.9658  0.5868  2.0262
  960MOL0     H29579   4.924   1.552   2.360  3.1245 -1.2814 -0.8783
  960MOL0     H29580   4.834   1.503   2.647  0.3168  0.3306 -0.7069
  960MOL0     H29581   4.805   1.405   2.510  1.0879 -0.6031  2.6313
  960MOL0     H29582   5.691   1.776   2.457 -2.0909 -4.2791  0.3741
  960MOL0     H29583   5.911   1.724   2.337 -2.6747 -2.5414 -0.6837
  960MOL0     H29584   6.375   1.643   2.518  1.6951  0.8761 -0.1950
  960MOL0     H29585   6.605   1.577   2.506 -0.2048 -2.1165  1.3178
  960MOL0     H29586   8.052   0.619   3.195  0.3151  0.3033 -0.6318
  960MOL0     H29587   8.209   0.753   3.312 -0.1129  0.4332 -0.3060
  960MOL0     H29588   8.591   0.838   3.406  2.0793 -0.3258  0.0957
  960MOL0     H29589   8.742   0.930   3.563  2.9480 -0.7305 -1.5194
  960MOL0     H29590   8.798   1.090   3.762  3.2965 -3.1646  0.9003
  960MOL0     H29591   8.930   1.048   3.641 -0.1464 -0.1219 -2.5755
  960MOL0     H29592   8.900   1.297   3.812  1.8741  2.0501  0.9917
  960MOL0     H29593   9.033   1.264   3.691 -0.0035  1.5295  0.2368
  960MOL0     H29594   9.107   1.076   3.837 -3.5358 -1.6362 -2.8361
  960MOL0     H29595   8.965   1.090   3.937 -2.7073  1.2486 -1.1020
  960MOL0     H29596   9.143   1.225   4.063  1.2051 -0.9281 -0.5509
  960MOL0     H29597   9.059   1.348   3.969 -1.0487  0.4276 -0.6307
  960MOL0     H29598   9.443   1.397   3.836  0.8396 -0.0592  1.4310
  960MOL0     H29599   8.676   1.321   3.401 -3.3614  0.6366  0.9445
  960MOL0     H29600   8.551   1.223   3.222 -0.8895 -0.4539 -0.3745
  961MOL0     O29601   9.971   2.968   5.291  0.0865  0.5776 -0.6831
  961MOL0     C29602  10.002   3.062   5.373  1.0269  0.3737  0.4097
  961MOL0     O29603   9.970   3.199   5.347  0.1643 -0.6079  0.1498
  961MOL0     C29604   9.899   3.231   5.239 -0.2848  0.1615 -0.0374
  961MOL0     C29605   9.786   3.305   5.247 -0.3405 -0.3009  0.4342
  961MOL0     C29606   9.724   3.354   5.136  0.5136 -0.2828  0.0344
  961MOL0     C29607   9.761   3.321   5.011 -1.2363  0.2458 -0.0489
  961MOL0     O29608   9.687   3.371   4.906 -0.7615 -0.6803 -0.2800
  961MOL0     C29609   9.737   3.357   4.774 -0.7281  0.0728 -0.7681
  961MOL0     C29610   9.662   3.446   4.670  0.4815  0.6500  0.1492
  961MOL0     C29611   9.508   3.436   4.698  0.0338  0.1140  0.2324
  961MOL0     C29612   9.435   3.493   4.572 -0.4396  0.2672 -0.0593
  961MOL0     C29613   9.283   3.493   4.577  0.1257  0.2791 -0.3994
  961MOL0     C29614   9.232   3.550   4.711 -0.9538  0.0484  0.9399
  961MOL0     C29615   9.094   3.605   4.710  0.5483  0.1270  0.1887
  961MOL0     C29616   9.071   3.713   4.817 -0.4122 -0.1558 -0.3521
  961MOL0     N29617   8.941   3.772   4.804  0.1885  0.7496 -0.1662
  961MOL0     C29618   8.827   3.711   4.829  0.2073 -0.0386 -0.1160
  961MOL0     C29619   8.733   3.808   4.792 -0.6283  0.3886  0.2648
  961MOL0     C29620   8.584   3.779   4.804 -0.3875  0.1372 -0.6177
  961MOL0     C29621   8.512   3.773   4.670 -0.3432  1.3910  0.2902
  961MOL0     C29622   8.369   3.727   4.672 -0.2101  0.3495  0.1126
  961MOL0     C29623   8.295   3.749   4.808 -0.1184  0.9275 -0.3740
  961MOL0     O29624   8.158   3.709   4.780 -0.2439 -0.2342  0.1666
  961MOL0     C29625   8.068   3.739   4.883  0.0268  0.1008  0.2778
  961MOL0     C29626   8.092   3.811   4.999  0.1878  0.6092 -0.0699
  961MOL0     C29627   7.988   3.850   5.089 -0.1807  0.0182 -0.6390
  961MOL0     C29628   8.026   3.924   5.218  0.7682  0.3091 -0.1992
  961MOL0     C29629   7.854   3.798   5.065  0.5282 -0.1639 -0.1241
  961MOL0     C29630   7.730   3.832   5.146  0.3092 -1.4016  1.0613
  961MOL0     O29631   7.613   3.767   5.110 -0.0190 -0.3579 -0.6487
  961MOL0     C29632   7.495   3.780   5.176 -0.2875 -0.2808  0.2197
  961MOL0     C29633   7.382   3.788   5.096  0.4958  0.5655 -0.4142
  961MOL0     C29634   7.256   3.809   5.152  0.2157 -0.5628 -0.7464
  961MOL0     C29635   7.243   3.827   5.295  0.1229  0.0196 -0.1076
  961MOL0     O29636   7.119   3.864   5.348 -0.0917 -0.2871  0.6020
  961MOL0     C29637   7.000   3.825   5.280  0.2830 -0.1535 -0.6938
  961MOL0     C29638   6.903   3.803   5.393 -0.5717  0.6734 -0.6018
  961MOL0     C29639   6.759   3.795   5.340 -0.3087 -0.5118 -0.4434
  961MOL0     C29640   6.670   3.788   5.467  0.8505  0.0780  0.4706
  961MOL0     C29641   6.518   3.801   5.431 -0.6339  0.7332 -0.7769
  961MOL0     C29642   6.426   3.726   5.539 -0.0733  0.3380  0.2239
  961MOL0     C29643   6.436   3.788   5.682 -0.7842  1.2475  0.4066
  961MOL0     C29644   6.350   3.716   5.789 -0.4734  0.4381  0.5168
  961MOL0    Cl29645   6.188   3.729   5.733  0.1720  0.0864 -0.0594
  961MOL0     C29646   7.352   3.808   5.377 -0.1089  0.1443  0.0222
  961MOL0     C29647   7.475   3.775   5.316 -0.1188 -0.1404  0.1106
  961MOL0     O29648   7.732   3.922   5.228 -0.0471  0.3392  0.0558
  961MOL0     C29649   7.833   3.711   4.955  0.2980  0.1884  0.2469
  961MOL0     C29650   7.943   3.688   4.859  0.4602 -0.9740  0.0027
  961MOL0     N29651   8.793   3.921   4.745  0.6319 -0.2408  0.7612
  961MOL0     N29652   8.916   3.897   4.760 -0.8294 -0.2370 -0.0268
  961MOL0     C29653   9.877   3.238   5.002  0.3448  0.1346 -0.8593
  961MOL0     C29654   9.947   3.195   5.114  1.0215  1.3933  0.7460
  961MOL0     C29655  10.087   3.029   5.489 -0.7148 -0.9906  0.5678
  961MOL0     C29656  10.100   3.116   5.602 -0.0826 -0.4015  0.4492
  961MOL0     C29657  10.178   3.092   5.707  0.6536 -0.4259  0.1497
  961MOL0     C29658  10.242   2.967   5.709  0.0660  0.6744  0.3127
  961MOL0     O29659  10.321   2.915   5.813  0.1126  0.0627 -0.4940
  961MOL0     C29660  10.377   3.022   5.902  0.4034  0.8758  0.3792
  961MOL0     C29661  10.457   2.954   6.009 -0.4083  0.3835 -0.4947
  961MOL0     C29662  10.528   3.057   6.099  0.2776  0.3076 -0.2931
  961MOL0     C29663  10.614   2.984   6.207 -0.4012 -0.7628 -0.2096
  961MOL0     C29664  10.536   2.901   6.300 -0.7474 -0.3409 -0.5132
  961MOL0     C29665  10.476   2.821   6.364 -0.6857 -1.0229  0.1479
  961MOL0     C29666  10.228   2.874   5.599 -0.2915  0.8494  0.3568
  961MOL0     C29667  10.148   2.901   5.489  0.1377 -0.2662  0.3386
  961MOL0     H29668   9.745   3.333   5.344 -2.5365 -1.5336 -0.0778
  961MOL0     H29669   9.638   3.419   5.149  1.2365  0.9011 -0.9168
  961MOL0     H29670   9.843   3.383   4.770 -0.3705 -1.2974 -0.8775
  961MOL0     H29671   9.734   3.253   4.740  0.9550 -0.2647  0.0474
  961MOL0     H29672   9.687   3.552   4.680 -1.2370  1.4675 -2.9039
  961MOL0     H29673   9.693   3.407   4.572  0.4976  1.8913 -0.3561
  961MOL0     H29674   9.475   3.332   4.703 -0.7244  0.2786 -1.0259
  961MOL0     H29675   9.477   3.490   4.788 -0.6832  1.1403 -0.6059
  961MOL0     H29676   9.473   3.593   4.549 -0.6963 -0.0243 -1.9381
  961MOL0     H29677   9.466   3.430   4.488  3.0296  0.8209  0.6311
  961MOL0     H29678   9.242   3.534   4.485 -1.7185 -1.7314 -0.5517
  961MOL0     H29679   9.250   3.389   4.568  2.0636 -0.4319  0.2368
  961MOL0     H29680   9.245   3.475   4.790  0.6310 -0.8058 -0.0765
  961MOL0     H29681   9.296   3.636   4.737  0.8853 -1.6739  2.5039
  961MOL0     H29682   9.067   3.645   4.611  0.7961 -1.1430 -0.4171
  961MOL0     H29683   9.012   3.534   4.719  0.0562  0.7068  0.3248
  961MOL0     H29684   9.153   3.785   4.824  1.4968 -2.2184 -0.5388
  961MOL0     H29685   9.065   3.657   4.910 -0.7582  2.6553  1.4292
  961MOL0     H29686   8.820   3.609   4.866  3.9767  0.6139  3.1237
  961MOL0     H29687   8.563   3.695   4.871  0.9523  0.8930  0.8263
  961MOL0     H29688   8.543   3.862   4.863  0.1024 -0.2792  0.3409
  961MOL0     H29689   8.575   3.719   4.599 -0.5529  1.0570  0.3522
  961MOL0     H29690   8.506   3.876   4.636  2.7017  1.5706  0.0561
  961MOL0     H29691   8.369   3.620   4.650 -0.1665  0.9487 -3.4212
  961MOL0     H29692   8.315   3.773   4.588  1.6084  1.8967 -0.2680
  961MOL0     H29693   8.287   3.857   4.826  0.2121  1.0614 -1.0265
  961MOL0     H29694   8.346   3.700   4.892  2.3951  1.1457 -1.6949
  961MOL0     H29695   8.191   3.850   5.022  0.6684 -0.5728 -0.0595
  961MOL0     H29696   7.963   3.891   5.301  2.4475  0.4879  1.2099
  961MOL0     H29697   8.129   3.907   5.250 -0.0438  1.0342  3.1673
  961MOL0     H29698   8.007   4.031   5.202 -0.5365  0.1350  0.1347
  961MOL0     H29699   7.388   3.784   4.988 -0.0390 -1.6622 -0.4233
  961MOL0     H29700   7.169   3.820   5.087  1.4653 -1.1298 -2.5746
  961MOL0     H29701   6.959   3.895   5.208 -0.3481  0.5764  0.3455
  961MOL0     H29702   7.007   3.729   5.228 -1.0434  1.3115 -3.7972
  961MOL0     H29703   6.922   3.708   5.443 -1.6840  1.7836  2.1121
  961MOL0     H29704   6.901   3.884   5.466 -0.8199  1.7689 -1.7848
  961MOL0     H29705   6.752   3.718   5.263  2.1382 -0.1254 -1.1396
  961MOL0     H29706   6.736   3.892   5.296 -0.7339 -1.5433 -2.6388
  961MOL0     H29707   6.698   3.693   5.515  2.6188 -0.7163 -1.9403
  961MOL0     H29708   6.696   3.874   5.529  1.4883  2.3852 -2.7428
  961MOL0     H29709   6.497   3.752   5.335 -0.6474 -1.3140  0.2265
  961MOL0     H29710   6.492   3.908   5.433  1.7226  1.4332  3.6247
  961MOL0     H29711   6.323   3.733   5.503  0.3920 -0.6871 -1.4426
  961MOL0     H29712   6.450   3.620   5.550 -1.1346  0.0141 -0.4154
  961MOL0     H29713   6.402   3.892   5.685  0.1048  1.5960 -0.7249
  961MOL0     H29714   6.542   3.785   5.707 -0.0680  1.1600 -2.2795
  961MOL0     H29715   6.373   3.760   5.886  3.1212 -1.6909  0.7974
  961MOL0     H29716   6.379   3.610   5.787 -1.2490  0.0897  3.4544
  961MOL0     H29717   7.335   3.832   5.481 -5.1812  2.9335 -1.0937
  961MOL0     H29718   7.560   3.752   5.381 -0.4586 -1.5406  0.0974
  961MOL0     H29719   7.738   3.663   4.932  0.0399  0.5491  0.5374
  961MOL0     H29720   7.915   3.639   4.766 -2.6940  1.6877 -0.6031
  961MOL0     H29721   9.911   3.208   4.903  1.9749 -0.4825 -0.1547
  961MOL0     H29722  10.030   3.130   5.088 -1.3829 -1.0816 -1.2810
  961MOL0     H29723  10.043   3.208   5.616 -0.4868 -0.4612 -0.6551
  961MOL0     H29724  10.171   3.157   5.794  3.0617 -0.0101  0.1049
  961MOL0     H29725  10.434   3.101   5.852  1.7158 -1.4004 -1.9193
  961MOL0     H29726  10.293   3.071   5.952  0.0475 -2.7571  3.8518
  961MOL0     H29727  10.536   2.894   5.963  1.5213  2.1035  0.4299
  961MOL0     H29728  10.384   2.896   6.066 -2.0584  2.1034 -0.7572
  961MOL0     H29729  10.457   3.129   6.141  0.0651 -0.6354  1.0232
  961MOL0     H29730  10.601   3.110   6.036 -0.0952 -0.0309 -1.0168
  961MOL0     H29731  10.669   3.060   6.263  0.1518  0.0797 -1.8438
  961MOL0     H29732  10.696   2.931   6.158  3.7755  5.0850 -0.6826
  961MOL0     H29733  10.421   2.760   6.433 -0.0410 -1.9220 -0.1092
  961MOL0     H29734  10.275   2.776   5.604 -1.8954 -0.3797 -4.2017
  961MOL0     H29735  10.141   2.832   5.406 -2.8482  0.3033 -0.0175
  962MOL0     O29736   1.018   5.670   8.410  0.0682  0.3327 -0.2003
  962MOL0     C29737   1.001   5.729   8.521  0.5280  0.0435 -0.3137
  962MOL0     O29738   0.885   5.783   8.567  0.4582  0.3037 -0.7769
  962MOL0     C29739   0.768   5.754   8.501  0.1011 -0.3179 -0.2197
  962MOL0     C29740   0.716   5.861   8.418  0.0380 -0.4433  0.7890
  962MOL0     C29741   0.589   5.840   8.356  0.5900 -1.3031  0.4316
  962MOL0     C29742   0.519   5.716   8.370 -0.3679 -0.0202 -0.7944
  962MOL0     O29743   0.404   5.701   8.298  0.3176  0.2714 -0.4668
  962MOL0     C29744   0.335   5.575   8.292 -0.0755 -0.2693  0.6818
  962MOL0     C29745   0.264   5.530   8.416  0.8486  0.4998  0.2906
  962MOL0     C29746   0.113   5.528   8.407  0.2698  0.0506  0.3603
  962MOL0     C29747   0.057   5.514   8.546  0.6856  0.4707  0.1910
  962MOL0     C29748  -0.093   5.557   8.553 -0.1981 -0.7614  0.8707
  962MOL0     C29749  -0.195   5.478   8.469 -0.4327  0.2902 -0.3193
  962MOL0     C29750  -0.342   5.523   8.516  0.6792  0.2623  0.0026
  962MOL0     C29751  -0.465   5.454   8.442 -0.1471 -0.3082  0.0321
  962MOL0     N29752  -0.583   5.486   8.521 -0.4153  0.2231 -0.1316
  962MOL0     C29753  -0.635   5.614   8.544 -0.5496  0.7454 -0.3283
  962MOL0     C29754  -0.753   5.606   8.596  0.5816  0.3333 -0.6505
  962MOL0     C29755  -0.843   5.724   8.639 -0.0241  0.6003  0.0788
  962MOL0     C29756  -0.992   5.695   8.621  0.3793 -0.4298 -0.5879
  962MOL0     C29757  -1.030   5.656   8.481  0.7096 -0.6234 -0.4424
  962MOL0     C29758  -1.179   5.673   8.453 -0.0752  0.2539  0.5350
  962MOL0     O29759  -1.262   5.624   8.560  0.0084  0.1023 -0.0663
  962MOL0     C29760  -1.396   5.613   8.538 -1.0934 -1.0340  0.5060
  962MOL0     C29761  -1.460   5.518   8.601  0.7498  0.2836  0.9035
  962MOL0     C29762  -1.602   5.494   8.574 -0.8536 -0.4761  0.4940
  962MOL0     C29763  -1.662   5.381   8.649  0.9786  0.5981 -0.0122
  962MOL0     C29764  -1.667   5.564   8.472  0.7273  0.0911  0.2053
  962MOL0     C29765  -1.808   5.558   8.443  0.5539  0.3357  0.1995
  962MOL0     O29766  -1.841   5.568   8.315 -0.0126 -0.0481 -0.3754
  962MOL0     C29767  -1.960   5.507   8.281  0.1417 -0.3066  0.4533
  962MOL0     C29768  -2.061   5.574   8.220 -0.4502 -0.2836 -0.2386
  962MOL0     C29769  -2.182   5.516   8.186  0.1610  0.3110 -0.3886
  962MOL0     C29770  -2.209   5.379   8.215  0.0039  0.3188  0.4976
  962MOL0     O29771  -2.338   5.336   8.175 -0.2558 -0.2628  0.0173
  962MOL0     C29772  -2.387   5.207   8.222  0.2652  0.1326  0.3576
  962MOL0     C29773  -2.508   5.160   8.150  0.6273  0.3286  1.3371
  962MOL0     C29774  -2.483   5.159   7.994  0.1459 -0.1175 -0.6734
  962MOL0     C29775  -2.570   5.081   7.904 -0.2759 -0.7263  0.4575
  962MOL0     C29776  -2.536   5.073   7.752 -0.2400 -0.3316 -0.3042
  962MOL0     C29777  -2.612   4.964   7.674  0.0955 -1.2870 -0.4655
  962MOL0     C29778  -2.560   4.958   7.536  0.1528 -1.1537  0.6260
  962MOL0     C29779  -2.632   4.850   7.461 -1.0077 -0.1471 -0.4458
  962MOL0    Cl29780  -2.605   4.859   7.294 -0.5200 -0.2883  0.3277
  962MOL0     C29781  -2.103   5.308   8.272  0.2441 -0.0765 -0.0630
  962MOL0     C29782  -1.983   5.375   8.296  0.0750 -0.4549  1.4359
  962MOL0     O29783  -1.886   5.559   8.533 -0.0684  0.1858 -0.3308
  962MOL0     C29784  -1.596   5.665   8.414  0.2077 -0.7026 -0.1629
  962MOL0     C29785  -1.461   5.683   8.438 -0.7883 -0.6425  0.8701
  962MOL0     N29786  -0.792   5.470   8.590 -0.3326 -0.6296  0.2561
  962MOL0     N29787  -0.685   5.404   8.550  0.0940  0.3751  0.0552
  962MOL0     C29788   0.564   5.621   8.468 -0.0659 -0.1337 -0.2748
  962MOL0     C29789   0.686   5.643   8.533  0.0210 -0.7008  0.2717
  962MOL0     C29790   1.113   5.777   8.593 -0.7193 -0.6595 -1.1002
  962MOL0     C29791   1.190   5.893   8.568 -0.3901  0.5255 -0.7157
  962MOL0     C29792   1.304   5.919   8.641 -0.1077  0.1252 -1.5719
  962MOL0     C29793   1.373   5.818   8.725 -0.0023  0.1849  0.3066
  962MOL0     O29794   1.499   5.829   8.774 -0.0506  0.0630 -0.6600
  962MOL0     C29795   1.575   5.947   8.733  0.8755  0.0985 -0.8731
  962MOL0     C29796   1.703   5.947   8.804 -0.7043  0.2171 -0.8918
  962MOL0     C29797   1.791   5.829   8.768 -0.6528  0.7383  0.4573
  962MOL0     C29798   1.876   5.852   8.640 -0.5191 -0.7190  1.1569
  962MOL0     C29799   1.984   5.749   8.619  0.6456  0.4662 -0.2712
  962MOL0     C29800   2.066   5.659   8.612  0.0557  0.0465 -0.5403
  962MOL0     C29801   1.296   5.704   8.743  0.7375  0.1771 -0.4298
  962MOL0     C29802   1.173   5.690   8.684  0.1238 -0.1510 -0.3694
  962MOL0     H29803   0.772   5.953   8.408 -0.5168 -0.3689 -3.6262
  962MOL0     H29804   0.549   5.909   8.283  0.9508 -0.6628  0.8301
  962MOL0     H29805   0.267   5.585   8.206  1.4226  1.3518 -0.3913
  962MOL0     H29806   0.406   5.499   8.258  0.0008 -1.3247  3.0221
  962MOL0     H29807   0.299   5.427   8.426  1.6176  0.7790  0.5128
  962MOL0     H29808   0.302   5.602   8.489  1.6696  0.9619 -0.5749
  962MOL0     H29809   0.084   5.627   8.369  2.5676  0.4190 -0.6048
  962MOL0     H29810   0.068   5.464   8.330 -2.3027  2.3631 -0.2483
  962MOL0     H29811   0.061   5.410   8.581 -0.0483 -0.3134 -1.9161
  962MOL0     H29812   0.107   5.584   8.614  1.8156 -0.0819 -0.0549
  962MOL0     H29813  -0.137   5.554   8.653 -0.3597 -0.3112  0.8187
  962MOL0     H29814  -0.116   5.656   8.513  0.5100 -0.4813  1.1457
  962MOL0     H29815  -0.184   5.500   8.362  1.3008  2.4185  0.2241
  962MOL0     H29816  -0.177   5.372   8.489  3.1779  1.3114  3.0569
  962MOL0     H29817  -0.348   5.480   8.616 -0.5246  0.8866  0.2277
  962MOL0     H29818  -0.363   5.631   8.520 -1.4940 -0.1291  0.2249
  962MOL0     H29819  -0.463   5.345   8.447 -4.0025 -0.4750  2.5469
  962MOL0     H29820  -0.469   5.483   8.337 -0.8537 -2.6636 -0.6560
  962MOL0     H29821  -0.578   5.705   8.532  1.8313 -0.2573  2.1794
  962MOL0     H29822  -0.808   5.760   8.736  0.8946 -2.6282  1.0740
  962MOL0     H29823  -0.822   5.805   8.569 -3.4808  1.0773 -0.5877
  962MOL0     H29824  -1.048   5.782   8.656 -0.3650 -1.8749  2.0644
  962MOL0     H29825  -1.022   5.614   8.687  0.5849 -0.1286 -0.1157
  962MOL0     H29826  -1.008   5.550   8.464  0.2596 -1.3010  2.6402
  962MOL0     H29827  -0.980   5.707   8.398  0.7805  0.1038  0.0358
  962MOL0     H29828  -1.216   5.624   8.363 -1.3168 -0.5388  1.4493
  962MOL0     H29829  -1.199   5.780   8.446 -0.2777  0.1622 -0.4075
  962MOL0     H29830  -1.395   5.456   8.662  0.5308  0.1191  0.9755
  962MOL0     H29831  -1.585   5.308   8.676 -0.0403 -0.2045  0.8019
  962MOL0     H29832  -1.704   5.415   8.744  1.1313  0.2762  0.1722
  962MOL0     H29833  -1.736   5.328   8.588  0.0425  1.5014  0.3167
  962MOL0     H29834  -2.037   5.675   8.187  0.3023 -1.0121 -2.0933
  962MOL0     H29835  -2.265   5.569   8.139 -1.7159 -0.8298  1.4609
  962MOL0     H29836  -2.314   5.128   8.205  1.4886  1.1017  0.9168
  962MOL0     H29837  -2.403   5.218   8.330 -2.1688  0.6102  0.0057
  962MOL0     H29838  -2.538   5.062   8.188 -0.2546  0.7511  1.7471
  962MOL0     H29839  -2.592   5.223   8.179 -0.2055  0.8589 -1.8607
  962MOL0     H29840  -2.379   5.135   7.968 -0.0782  0.3721 -2.1012
  962MOL0     H29841  -2.494   5.263   7.962  3.7262  1.3238  2.0336
  962MOL0     H29842  -2.573   4.977   7.936 -1.0364 -1.4014 -1.5884
  962MOL0     H29843  -2.677   5.104   7.916 -0.1446 -0.4336  1.1045
  962MOL0     H29844  -2.430   5.047   7.747 -0.2357 -0.7257  1.1759
  962MOL0     H29845  -2.560   5.166   7.701 -1.6444  0.2767  1.3294
  962MOL0     H29846  -2.600   4.871   7.730 -0.7015  0.8297  3.6419
  962MOL0     H29847  -2.713   5.005   7.683  1.1045  1.0149  1.5655
  962MOL0     H29848  -2.455   4.943   7.559  0.6997  3.4114  2.1340
  962MOL0     H29849  -2.562   5.054   7.483  1.9322 -0.9524  0.8704
  962MOL0     H29850  -2.739   4.850   7.482 -1.0247 -0.7610 -0.5096
  962MOL0     H29851  -2.595   4.757   7.506 -2.5128  0.3834  2.0473
  962MOL0     H29852  -2.108   5.203   8.296  1.1123  0.3417  2.2059
  962MOL0     H29853  -1.899   5.315   8.327  0.1292  0.2079  2.6283
  962MOL0     H29854  -1.653   5.732   8.350 -0.5814 -0.4483  0.7767
  962MOL0     H29855  -1.417   5.768   8.387 -1.4887 -1.6548 -1.5462
  962MOL0     H29856   0.507   5.531   8.485  0.4951 -0.1821  1.5378
  962MOL0     H29857   0.724   5.568   8.602 -0.0079 -1.9414 -1.0151
  962MOL0     H29858   1.158   5.971   8.499  1.0281  0.8513 -1.0249
  962MOL0     H29859   1.350   6.017   8.635  3.7136 -1.3805 -0.3334
  962MOL0     H29860   1.597   5.945   8.626  1.8365  1.1825 -0.7144
  962MOL0     H29861   1.515   6.036   8.756 -0.0170 -0.2489 -1.7750
  962MOL0     H29862   1.684   5.954   8.912 -1.2104  2.3492 -1.0777
  962MOL0     H29863   1.754   6.040   8.777  1.0205 -1.0582 -2.3179
  962MOL0     H29864   1.725   5.745   8.743  0.6156 -0.3079  0.5393
  962MOL0     H29865   1.849   5.813   8.859 -1.9927 -0.1776  1.1941
  962MOL0     H29866   1.920   5.952   8.646  0.8995 -1.1846 -0.4633
  962MOL0     H29867   1.815   5.848   8.549  0.6610 -2.3709  0.3837
  962MOL0     H29868   2.138   5.580   8.615  0.4743  0.4425  2.5475
  962MOL0     H29869   1.316   5.617   8.805 -2.4607 -3.0409 -3.4844
  962MOL0     H29870   1.109   5.603   8.694 -2.1441  1.4721  0.1122
  963MOL0     O29871   4.779   3.335  10.857 -0.1899  0.0189 -0.1512
  963MOL0     C29872   4.816   3.218  10.850 -0.4096  0.1247 -0.8232
  963MOL0     O29873   4.733   3.111  10.823 -0.1877  0.2494  0.8806
  963MOL0     C29874   4.598   3.121  10.817  0.3243 -0.0177  0.2291
  963MOL0     C29875   4.531   3.013  10.875  0.4905  0.6090  0.1557
  963MOL0     C29876   4.383   3.006  10.869 -0.6169  0.4991 -0.3513
  963MOL0     C29877   4.312   3.110  10.815 -1.1729 -0.3119 -0.8089
  963MOL0     O29878   4.176   3.101  10.820  0.2003 -0.1085 -0.1918
  963MOL0     C29879   4.103   3.181  10.915 -0.8278 -0.3113 -0.4776
  963MOL0     C29880   3.961   3.184  10.881 -0.1601  0.9911  0.2615
  963MOL0     C29881   3.881   3.260  10.987  0.3891 -0.1551 -0.8856
  963MOL0     C29882   3.731   3.274  10.958  0.0184  0.3104  0.2471
  963MOL0     C29883   3.642   3.329  11.071 -0.8500  0.5159 -0.1374
  963MOL0     C29884   3.642   3.256  11.204 -0.6278  0.5202  0.5291
  963MOL0     C29885   3.619   3.098  11.200  0.9110  0.4682  0.7072
  963MOL0     C29886   3.658   3.027  11.327 -1.0702  0.5244 -0.4720
  963MOL0     N29887   3.793   2.970  11.309 -0.1123  0.1153  0.0636
  963MOL0     C29888   3.908   3.022  11.354 -0.7762  0.7718 -0.3643
  963MOL0     C29889   3.996   2.940  11.302 -0.6318  0.2104 -0.4435
  963MOL0     C29890   4.147   2.956  11.302 -0.4431  0.1704  0.3225
  963MOL0     C29891   4.205   2.893  11.428  0.2857 -0.3415  0.4285
  963MOL0     C29892   4.182   2.990  11.552 -0.7521  0.1507  0.1079
  963MOL0     C29893   4.197   2.907  11.682  0.1880  0.1169 -0.4437
  963MOL0     O29894   4.081   2.821  11.708  0.0393  0.7021 -0.1436
  963MOL0     C29895   3.964   2.888  11.732 -0.4413 -0.3739  0.3391
  963MOL0     C29896   3.937   2.961  11.847 -0.3077  0.2516 -0.1906
  963MOL0     C29897   3.824   3.035  11.861  0.0066  0.1733  1.0227
  963MOL0     C29898   3.825   3.137  11.968 -0.3075  0.8677  0.3661
  963MOL0     C29899   3.715   3.012  11.770 -0.0481  1.3832  0.4320
  963MOL0     C29900   3.576   3.048  11.803  0.5360 -0.7886  0.1971
  963MOL0     O29901   3.547   3.063  11.936 -0.3832 -0.0432  0.0015
  963MOL0     C29902   3.419   3.076  11.985 -1.6634  0.6310  0.0469
  963MOL0     C29903   3.407   3.129  12.110 -0.8303  0.2546  0.2763
  963MOL0     C29904   3.285   3.146  12.163  0.0922  0.7530 -0.4608
  963MOL0     C29905   3.172   3.113  12.089  0.0060 -0.4081 -0.7481
  963MOL0     O29906   3.055   3.135  12.154  0.8627 -0.2563 -0.2439
  963MOL0     C29907   2.937   3.079  12.098 -0.7852  0.7440 -0.1409
  963MOL0     C29908   2.824   3.070  12.204 -0.2959 -0.7488 -0.5676
  963MOL0     C29909   2.708   2.999  12.139 -0.2095 -0.2275  0.3718
  963MOL0     C29910   2.700   2.855  12.171 -0.3291 -0.4016 -0.2486
  963MOL0     C29911   2.563   2.790  12.147  0.1587  0.2185  0.6196
  963MOL0     C29912   2.577   2.643  12.185  0.1353  0.3342  0.6522
  963MOL0     C29913   2.451   2.563  12.159 -0.0896  0.2533  0.6705
  963MOL0     C29914   2.416   2.565  12.011  0.8525 -0.3093 -0.2205
  963MOL0    Cl29915   2.331   2.710  11.938  0.0476  0.3544 -0.1606
  963MOL0     C29916   3.179   3.069  11.950 -0.4987 -0.1063 -0.6933
  963MOL0     C29917   3.308   3.045  11.904  0.1180  0.5897 -0.1342
  963MOL0     O29918   3.498   3.080  11.715  1.1270  0.1654 -0.1682
  963MOL0     C29919   3.740   2.936  11.653 -0.2752  0.0225  0.7116
  963MOL0     C29920   3.870   2.881  11.630 -0.0319  0.7915  0.0512
  963MOL0     N29921   3.936   2.833  11.239  0.8194  0.5934  1.1432
  963MOL0     N29922   3.814   2.850  11.244 -0.6478 -0.5654 -0.4147
  963MOL0     C29923   4.378   3.217  10.762 -0.9650  0.7619  0.3598
  963MOL0     C29924   4.520   3.226  10.765 -0.1827 -0.0180  0.3155
  963MOL0     C29925   4.956   3.190  10.878  0.0691 -0.6460  0.0857
  963MOL0     C29926   5.043   3.300  10.898 -0.3485  0.2064  0.4461
  963MOL0     C29927   5.185   3.274  10.916 -0.2604  0.3838 -0.2382
  963MOL0     C29928   5.240   3.143  10.912  0.2779  0.0747  0.4492
  963MOL0     O29929   5.373   3.112  10.936  0.7475  0.6238  1.1577
  963MOL0     C29930   5.486   3.202  10.920 -0.8234  0.3524  0.2307
  963MOL0     C29931   5.506   3.267  10.789 -0.9018 -0.3823 -0.9114
  963MOL0     C29932   5.650   3.321  10.775 -0.1264 -0.8063 -0.0199
  963MOL0     C29933   5.651   3.454  10.692  0.0759  0.1850 -0.5416
  963MOL0     C29934   5.788   3.491  10.653 -0.4847 -0.0974 -0.1295
  963MOL0     C29935   5.900   3.534  10.628  0.0326  0.2679 -0.4482
  963MOL0     C29936   5.152   3.033  10.897  0.0375 -0.9535  0.7947
  963MOL0     C29937   5.012   3.058  10.878  0.8077  0.0783 -0.0928
  963MOL0     H29938   4.584   2.930  10.921 -3.8800 -3.6053 -1.5835
  963MOL0     H29939   4.320   2.932  10.917 -1.2710  0.6384 -0.9825
  963MOL0     H29940   4.130   3.148  11.016 -0.8484  0.9347 -0.0561
  963MOL0     H29941   4.138   3.284  10.903 -0.0622 -0.5219 -0.1058
  963MOL0     H29942   3.944   3.228  10.783  0.4377  0.3729 -0.1279
  963MOL0     H29943   3.929   3.079  10.878 -2.2306  1.4626  2.3146
  963MOL0     H29944   3.891   3.211  11.084  2.2019  0.6633 -0.6151
  963MOL0     H29945   3.909   3.365  10.997 -0.0672 -0.1643  0.8099
  963MOL0     H29946   3.711   3.325  10.863 -2.4193  1.1808  1.1413
  963MOL0     H29947   3.690   3.173  10.942 -1.8070  1.0894 -0.2142
  963MOL0     H29948   3.678   3.431  11.081  0.5679 -0.0731  1.0204
  963MOL0     H29949   3.539   3.324  11.033 -0.4594 -0.1755 -1.1325
  963MOL0     H29950   3.730   3.281  11.263 -0.7536 -0.7502  1.2714
  963MOL0     H29951   3.554   3.306  11.246 -1.3588  1.6816 -2.1628
  963MOL0     H29952   3.513   3.085  11.177  1.5830 -1.5206 -1.6092
  963MOL0     H29953   3.670   3.051  11.116 -0.6923  0.7457 -0.4701
  963MOL0     H29954   3.596   2.938  11.342  0.7337 -0.9053 -1.1511
  963MOL0     H29955   3.662   3.089  11.417  0.4702 -0.9986  0.5859
  963MOL0     H29956   3.929   3.118  11.400  0.7239  0.0803  0.4684
  963MOL0     H29957   4.181   2.912  11.208 -0.3926  0.4793  0.1936
  963MOL0     H29958   4.167   3.063  11.286  1.6727 -0.3951 -1.2755
  963MOL0     H29959   4.310   2.863  11.421 -0.0650 -1.3144 -1.2853
  963MOL0     H29960   4.152   2.800  11.453  0.4847  0.0257  2.4417
  963MOL0     H29961   4.084   3.040  11.556 -2.3044 -2.5977 -0.7447
  963MOL0     H29962   4.256   3.070  11.553 -1.3732  0.7649 -0.8954
  963MOL0     H29963   4.209   2.979  11.763 -0.3459 -0.6102  0.2970
  963MOL0     H29964   4.290   2.850  11.694  0.4154  0.6969  0.6454
  963MOL0     H29965   4.021   2.954  11.915  1.4618  1.2296 -2.1749
  963MOL0     H29966   3.926   3.174  11.984  0.1121  0.0400 -0.2763
  963MOL0     H29967   3.758   3.223  11.956  0.0048  1.1386  0.5633
  963MOL0     H29968   3.795   3.083  12.059 -0.8121  3.7017  1.9905
  963MOL0     H29969   3.501   3.149  12.161 -0.3994 -2.4960  0.7340
  963MOL0     H29970   3.266   3.194  12.259 -5.1682  0.0399 -0.8259
  963MOL0     H29971   2.905   3.135  12.010 -0.2754 -1.7775 -2.0507
  963MOL0     H29972   2.973   2.980  12.068  0.7774  1.0948  0.4707
  963MOL0     H29973   2.856   3.010  12.290 -0.7077 -0.9194 -0.5308
  963MOL0     H29974   2.788   3.168  12.236  0.4946  0.2631 -2.6345
  963MOL0     H29975   2.724   3.006  12.031 -0.4817  1.1166  0.4018
  963MOL0     H29976   2.612   3.050  12.154  0.6825  1.7753 -0.2894
  963MOL0     H29977   2.774   2.805  12.108  1.1017  2.0490 -0.6506
  963MOL0     H29978   2.731   2.836  12.274  0.8315 -0.0789 -0.5249
  963MOL0     H29979   2.558   2.798  12.038 -0.3454  2.8218  0.7564
  963MOL0     H29980   2.472   2.835  12.188  0.4769  2.1682 -0.6964
  963MOL0     H29981   2.662   2.609  12.125 -1.9597 -1.5180 -1.4646
  963MOL0     H29982   2.601   2.632  12.292 -1.3979 -2.9502  0.8048
  963MOL0     H29983   2.367   2.594  12.222  1.5543  3.6844  1.4199
  963MOL0     H29984   2.488   2.465  12.189  0.8084  0.4895  0.3850
  963MOL0     H29985   2.346   2.481  12.000  2.3875 -1.7623  0.6153
  963MOL0     H29986   2.505   2.526  11.961  0.8894 -1.0589  0.4002
  963MOL0     H29987   3.098   3.047  11.880 -0.0738 -2.5883 -0.4909
  963MOL0     H29988   3.310   2.987  11.812 -1.3049 -1.1415  0.8691
  963MOL0     H29989   3.651   2.923  11.591 -0.6173  1.8495  0.7534
  963MOL0     H29990   3.888   2.806  11.554  2.9973 -0.0992  1.4893
  963MOL0     H29991   4.323   3.295  10.711  0.4983  1.3630 -0.3755
  963MOL0     H29992   4.561   3.323  10.741 -0.8940  0.3070  0.4023
  963MOL0     H29993   5.006   3.401  10.884 -1.8522 -0.7454 -6.0986
  963MOL0     H29994   5.255   3.357  10.918 -1.8566  1.7764  0.5905
  963MOL0     H29995   5.483   3.274  11.003  0.6943 -1.6832  2.1652
  963MOL0     H29996   5.576   3.149  10.950 -2.3390 -0.3769  4.1807
  963MOL0     H29997   5.436   3.352  10.787 -1.5815 -0.8464  1.0320
  963MOL0     H29998   5.486   3.199  10.706 -0.1536  2.4590 -3.6134
  963MOL0     H29999   5.713   3.241  10.733 -1.9975 -2.3940  0.0543
  963MOL0     H30000   5.685   3.336  10.878  0.8212 -2.9611  0.0292
  963MOL0     H30001   5.609   3.541  10.744  0.7431 -0.2640  0.7926
  963MOL0     H30002   5.598   3.447  10.597  1.3012 -1.0397 -1.1636
  963MOL0     H30003   5.999   3.573  10.613 -0.4225  1.5954 -0.0646
  963MOL0     H30004   5.191   2.932  10.906  1.4319 -0.7076 -1.5640
  963MOL0     H30005   4.948   2.970  10.882  1.0413 -0.0810  2.9602
  964MOL0     O30006   9.466   3.836   1.932  0.4761 -0.9364  0.7533
  964MOL0     C30007   9.417   3.824   2.045 -0.2463 -0.2888 -0.2344
  964MOL0     O30008   9.295   3.779   2.075 -0.7084  0.2985  0.0585
  964MOL0     C30009   9.193   3.748   1.989  0.0675 -0.1420 -0.5071
  964MOL0     C30010   9.182   3.785   1.864 -0.8020  0.7941 -1.2772
  964MOL0     C30011   9.064   3.773   1.801  0.4676 -1.1268  0.1701
  964MOL0     C30012   8.960   3.692   1.850 -1.1368 -0.5637  0.0512
  964MOL0     O30013   8.841   3.676   1.788  0.0263 -0.1185  0.2557
  964MOL0     C30014   8.807   3.538   1.759 -0.4184  1.0732  0.4928
  964MOL0     C30015   8.702   3.541   1.648 -1.1730  0.6586  0.6336
  964MOL0     C30016   8.562   3.561   1.699 -0.7563  0.3833 -0.3420
  964MOL0     C30017   8.491   3.424   1.717 -0.2644  0.1405  0.2045
  964MOL0     C30018   8.406   3.384   1.591 -0.2005 -0.4880 -0.0319
  964MOL0     C30019   8.299   3.490   1.567 -0.9686 -0.0193  0.9793
  964MOL0     C30020   8.157   3.432   1.539  0.4660 -0.4706 -1.0792
  964MOL0     C30021   8.151   3.328   1.424  0.4221 -0.4558 -0.0581
  964MOL0     N30022   8.022   3.285   1.388  0.0015 -0.8819 -0.2431
  964MOL0     C30023   7.916   3.364   1.344 -0.7137 -0.3544  0.2492
  964MOL0     C30024   7.817   3.274   1.319 -0.2276  0.1147  0.7339
  964MOL0     C30025   7.688   3.324   1.256 -0.3503  0.2428  0.4673
  964MOL0     C30026   7.697   3.338   1.100 -0.1440  0.9879 -1.0834
  964MOL0     C30027   7.593   3.435   1.046 -0.1212  0.7248  0.0094
  964MOL0     C30028   7.457   3.379   1.059  0.2484 -0.6603  0.1116
  964MOL0     O30029   7.374   3.474   0.997 -0.5723  0.7264 -0.2524
  964MOL0     C30030   7.240   3.446   0.971 -0.3753  0.5101 -0.0708
  964MOL0     C30031   7.174   3.544   0.894 -0.1427 -0.2683 -0.6981
  964MOL0     C30032   7.037   3.526   0.860 -0.1847 -0.0556  0.1971
  964MOL0     C30033   6.964   3.651   0.807 -0.6400  0.2631 -0.0962
  964MOL0     C30034   6.964   3.420   0.913 -0.3889 -0.5261  0.5131
  964MOL0     C30035   6.818   3.404   0.892 -0.1766 -0.4127  0.4154
  964MOL0     O30036   6.760   3.449   0.777  0.4772 -0.2874  0.0992
  964MOL0     C30037   6.614   3.464   0.779  0.2589 -0.1969 -0.0427
  964MOL0     C30038   6.529   3.357   0.742 -0.0786 -0.5724  0.5505
  964MOL0     C30039   6.389   3.369   0.760  0.5941  0.2894 -0.3378
  964MOL0     C30040   6.331   3.481   0.824  0.5309  0.1313 -1.0795
  964MOL0     O30041   6.197   3.493   0.832 -0.7444  0.3572  0.5528
  964MOL0     C30042   6.140   3.621   0.794 -0.6557 -0.6445 -0.1993
  964MOL0     C30043   5.993   3.608   0.779  0.3313  0.4763  0.7398
  964MOL0     C30044   5.917   3.737   0.750 -0.3613  0.1762  0.2910
  964MOL0     C30045   5.770   3.712   0.746  1.0552  0.0512  0.5395
  964MOL0     C30046   5.682   3.822   0.697  0.4104 -0.3724 -0.1006
  964MOL0     C30047   5.532   3.815   0.747  0.6120  0.2442  0.2991
  964MOL0     C30048   5.444   3.921   0.682  0.2691  0.4136 -0.0729
  964MOL0     C30049   5.407   3.856   0.554 -0.0186 -0.0427 -0.8481
  964MOL0    Cl30050   5.300   3.955   0.467 -0.0339  0.1267  0.3319
  964MOL0     C30051   6.421   3.583   0.859  0.5302  0.4814  0.1491
  964MOL0     C30052   6.553   3.573   0.832  0.0955  0.0323 -1.0570
  964MOL0     O30053   6.760   3.345   0.982 -0.2483 -0.1939 -0.4662
  964MOL0     C30054   7.036   3.326   0.989  0.6810 -0.6467  0.5179
  964MOL0     C30055   7.169   3.339   1.027  0.2448  0.8213 -0.3584
  964MOL0     N30056   7.854   3.145   1.367 -0.1228 -0.1645  0.8212
  964MOL0     N30057   7.974   3.159   1.414  0.6369 -0.0715 -0.3060
  964MOL0     C30058   8.979   3.640   1.979 -0.1827 -0.5732 -0.3892
  964MOL0     C30059   9.092   3.671   2.055  1.1300  0.0368  0.7280
  964MOL0     C30060   9.513   3.853   2.166  0.1907 -0.9037  0.1523
  964MOL0     C30061   9.458   3.842   2.294 -0.7638 -0.2087  0.2080
  964MOL0     C30062   9.530   3.885   2.400  1.1579  0.6434  0.0579
  964MOL0     C30063   9.655   3.941   2.386  0.7236  1.1372 -0.5327
  964MOL0     O30064   9.732   3.978   2.491  0.2909  0.0988 -0.0706
  964MOL0     C30065   9.663   4.013   2.614 -0.4730  0.2813 -0.0625
  964MOL0     C30066   9.765   4.048   2.721 -1.1248 -0.5058 -0.1346
  964MOL0     C30067   9.874   3.946   2.743 -0.7126 -0.1963  0.7053
  964MOL0     C30068   9.838   3.830   2.828 -0.0443  0.5134  0.3752
  964MOL0     C30069   9.829   3.872   2.971  0.7776  0.1175  0.8865
  964MOL0     C30070   9.815   3.886   3.088  0.6159 -0.0145 -0.3614
  964MOL0     C30071   9.716   3.948   2.259 -1.3346 -0.0213 -0.1531
  964MOL0     C30072   9.645   3.906   2.151  0.1924 -0.3936 -0.0733
  964MOL0     H30073   9.259   3.848   1.820  1.1151  0.0575  0.8430
  964MOL0     H30074   9.065   3.816   1.702  0.3957  0.2414  0.7374
  964MOL0     H30075   8.898   3.486   1.726 -1.5828 -0.1121 -0.9806
  964MOL0     H30076   8.775   3.478   1.845  1.6609 -0.2899  0.3842
  964MOL0     H30077   8.737   3.626   1.589  3.4842 -0.0825  1.9712
  964MOL0     H30078   8.706   3.455   1.580  0.8930  0.0686  1.4331
  964MOL0     H30079   8.572   3.619   1.792  0.9247  2.0635 -1.4947
  964MOL0     H30080   8.508   3.642   1.650  0.0912  1.3393  0.2504
  964MOL0     H30081   8.564   3.344   1.734 -1.0060 -0.4024  0.9382
  964MOL0     H30082   8.432   3.421   1.809 -1.7054 -2.2263 -0.7155
  964MOL0     H30083   8.470   3.367   1.505  0.0463 -0.0116  0.0578
  964MOL0     H30084   8.359   3.288   1.618 -1.4150  0.8611  3.2147
  964MOL0     H30085   8.295   3.546   1.660 -2.2603 -1.9042  2.1450
  964MOL0     H30086   8.326   3.553   1.482 -3.7249 -0.7306 -0.5502
  964MOL0     H30087   8.139   3.371   1.628  0.8582  1.0261  0.0667
  964MOL0     H30088   8.086   3.515   1.544 -0.1369 -1.0424  0.1744
  964MOL0     H30089   8.206   3.245   1.470  2.3291  1.0717  0.5617
  964MOL0     H30090   8.204   3.367   1.337  1.8078 -0.7582  0.6196
  964MOL0     H30091   7.917   3.470   1.320 -0.4359 -0.3448  0.2920
  964MOL0     H30092   7.610   3.252   1.282  0.9817 -1.6717 -0.6676
  964MOL0     H30093   7.669   3.420   1.306  0.3480  1.2144 -1.0458
  964MOL0     H30094   7.686   3.236   1.063 -0.1371  0.0520  1.3137
  964MOL0     H30095   7.800   3.366   1.075  0.2599  0.5903  0.0568
  964MOL0     H30096   7.614   3.448   0.940 -1.7269  0.1196 -0.4061
  964MOL0     H30097   7.601   3.527   1.105  0.8615  0.2280  0.6756
  964MOL0     H30098   7.420   3.373   1.162 -0.3327 -1.3401 -0.1216
  964MOL0     H30099   7.459   3.275   1.023  4.1188 -1.0812  1.1156
  964MOL0     H30100   7.229   3.633   0.864  0.2050 -0.0366  0.5844
  964MOL0     H30101   6.888   3.684   0.878 -1.0328 -3.3182  1.3428
  964MOL0     H30102   7.025   3.738   0.780  0.5085  0.1111  1.8535
  964MOL0     H30103   6.909   3.619   0.717  0.5497  1.4979 -1.3079
  964MOL0     H30104   6.574   3.263   0.713  2.0228  1.1115 -2.0773
  964MOL0     H30105   6.330   3.285   0.725  1.7656 -0.1342 -1.4064
  964MOL0     H30106   6.174   3.703   0.859  2.3251  0.3250 -2.7484
  964MOL0     H30107   6.183   3.648   0.698  0.2051  1.1439  0.6446
  964MOL0     H30108   5.970   3.541   0.696 -2.1801 -0.5536  2.1258
  964MOL0     H30109   5.960   3.558   0.871 -1.6397  1.8253  0.8399
  964MOL0     H30110   5.954   3.777   0.655 -0.0431  1.0917  0.7859
  964MOL0     H30111   5.952   3.795   0.836 -0.2160 -1.4156  1.3470
  964MOL0     H30112   5.754   3.631   0.675  0.8561  1.6809 -1.3718
  964MOL0     H30113   5.735   3.680   0.844 -1.4544  2.0002  0.3723
  964MOL0     H30114   5.688   3.814   0.588 -0.1634 -2.3391 -0.0351
  964MOL0     H30115   5.721   3.918   0.731  0.2562  0.2493 -1.6240
  964MOL0     H30116   5.495   3.713   0.730 -0.3754  0.5825  0.3089
  964MOL0     H30117   5.510   3.819   0.854  0.1955 -0.6789  0.2588
  964MOL0     H30118   5.500   4.011   0.655 -1.0931  1.2482 -0.2108
  964MOL0     H30119   5.352   3.942   0.737 -0.4955  1.1994 -1.5840
  964MOL0     H30120   5.351   3.763   0.573  2.5576 -1.6853 -0.8162
  964MOL0     H30121   5.495   3.822   0.499 -0.5120  0.2932 -1.8672
  964MOL0     H30122   6.389   3.677   0.901 -3.8022  0.0330 -1.6071
  964MOL0     H30123   6.613   3.656   0.866 -1.6783  0.8094  0.3607
  964MOL0     H30124   6.981   3.242   1.028  1.9578 -0.3544  3.1771
  964MOL0     H30125   7.208   3.263   1.093 -1.0065  0.4746  0.0126
  964MOL0     H30126   8.914   3.581   2.042  1.7485 -1.1642  1.1198
  964MOL0     H30127   9.097   3.640   2.159 -0.8611 -1.0941  0.5472
  964MOL0     H30128   9.361   3.800   2.319  0.5342 -2.1051  2.3744
  964MOL0     H30129   9.493   3.866   2.501  2.2952 -0.0204  0.3603
  964MOL0     H30130   9.601   4.101   2.592 -0.4365  0.2027 -0.4964
  964MOL0     H30131   9.604   3.930   2.653  1.3817  0.3926  3.4057
  964MOL0     H30132   9.715   4.077   2.813  1.1905  1.6681  0.5634
  964MOL0     H30133   9.821   4.134   2.683 -0.6888 -1.0052 -0.6571
  964MOL0     H30134   9.968   3.977   2.788  1.4527 -2.6828 -1.7427
  964MOL0     H30135   9.894   3.890   2.651 -2.4901  0.8872 -0.3983
  964MOL0     H30136   9.915   3.753   2.821 -0.7393 -0.1929  0.3848
  964MOL0     H30137   9.744   3.789   2.791  1.0048 -1.4996 -0.2434
  964MOL0     H30138   9.801   3.895   3.194 -2.2107 -1.6610 -0.4844
  964MOL0     H30139   9.811   4.001   2.255 -0.4436 -1.1095  3.0801
  964MOL0     H30140   9.693   3.909   2.053 -1.4407 -0.6913 -0.9095
  965MOL0     O30141   4.495   0.480   5.710  0.4054 -0.4623 -0.5716
  965MOL0     C30142   4.573   0.396   5.670 -0.2638  0.8375 -0.1037
  965MOL0     O30143   4.543   0.272   5.613 -0.2349 -0.2437 -0.0463
  965MOL0     C30144   4.411   0.228   5.627 -0.0337 -1.0144 -0.7650
  965MOL0     C30145   4.371   0.156   5.510 -0.2181 -0.0673 -0.0179
  965MOL0     C30146   4.243   0.109   5.491  0.0308 -0.1865 -0.0426
  965MOL0     C30147   4.145   0.134   5.592 -0.2575 -0.8910 -0.7191
  965MOL0     O30148   4.012   0.104   5.569  0.0573  0.6309 -0.9133
  965MOL0     C30149   3.929   0.079   5.684  0.2359  0.5372 -0.2918
  965MOL0     C30150   3.796   0.021   5.628  0.4151 -1.1847 -0.1524
  965MOL0     C30151   3.693   0.031   5.750  0.8960  0.2829 -1.1778
  965MOL0     C30152   3.548   0.005   5.693 -0.1038 -0.2373 -0.8748
  965MOL0     C30153   3.447   0.054   5.797 -0.1024  0.1000  0.3790
  965MOL0     C30154   3.400   0.188   5.776  0.3377  0.1653  0.1532
  965MOL0     C30155   3.311   0.198   5.650 -0.1275  0.3262  0.2010
  965MOL0     C30156   3.239   0.328   5.631 -0.3930  0.1769 -0.2335
  965MOL0     N30157   3.124   0.335   5.710  0.5375 -0.2330  0.0794
  965MOL0     C30158   3.009   0.265   5.690 -0.8118  0.0537 -0.2565
  965MOL0     C30159   2.914   0.323   5.764 -0.0137 -0.1499 -0.1084
  965MOL0     C30160   2.767   0.277   5.788  0.1403 -0.2690 -0.5344
  965MOL0     C30161   2.655   0.346   5.716  0.0874 -0.2846 -0.1598
  965MOL0     C30162   2.622   0.490   5.776 -0.1903  0.0760  0.0628
  965MOL0     C30163   2.520   0.568   5.695  0.5496  0.0750  0.5194
  965MOL0     O30164   2.397   0.492   5.677  0.0692 -0.1081 -0.2906
  965MOL0     C30165   2.306   0.522   5.578  0.4432 -0.2724  0.2464
  965MOL0     C30166   2.180   0.468   5.603 -0.4234  0.2374 -0.8630
  965MOL0     C30167   2.069   0.484   5.521 -1.0344 -0.7560 -0.8327
  965MOL0     C30168   1.936   0.436   5.573  0.7744  0.8899  0.4171
  965MOL0     C30169   2.092   0.560   5.403  0.5665  0.0963  0.8891
  965MOL0     C30170   1.976   0.607   5.317 -0.5687  0.6382 -0.1994
  965MOL0     O30171   1.845   0.622   5.366  0.2540 -0.2701  0.2576
  965MOL0     C30172   1.750   0.689   5.301  0.7683 -0.0870  0.1810
  965MOL0     C30173   1.747   0.820   5.266 -1.1489  0.4578  0.0294
  965MOL0     C30174   1.633   0.875   5.200 -0.7798  0.3691  0.5108
  965MOL0     C30175   1.517   0.795   5.182 -0.4940  0.1277 -0.5214
  965MOL0     O30176   1.406   0.845   5.122  0.1271 -0.2463  0.0987
  965MOL0     C30177   1.397   0.987   5.109 -0.5622 -0.1437 -0.5828
  965MOL0     C30178   1.248   1.038   5.072  0.1306 -0.9179 -0.1173
  965MOL0     C30179   1.145   1.006   5.173 -0.2474 -0.6107 -0.9563
  965MOL0     C30180   1.007   1.043   5.128  0.0513  0.2065 -0.5915
  965MOL0     C30181   0.909   0.976   5.233  0.2238  0.2112 -0.0361
  965MOL0     C30182   0.767   0.988   5.180  0.1502 -0.4335  0.4415
  965MOL0     C30183   0.667   0.928   5.280 -0.3743  0.6835 -0.2071
  965MOL0     C30184   0.525   0.986   5.260 -0.6257  0.4380 -0.2767
  965MOL0    Cl30185   0.416   0.899   5.371 -0.1143  0.0424  0.0459
  965MOL0     C30186   1.517   0.668   5.231  0.2665 -0.9049 -0.0105
  965MOL0     C30187   1.628   0.620   5.298  0.0662  0.5064 -0.6866
  965MOL0     O30188   2.015   0.646   5.205 -0.2396  0.3850 -0.2328
  965MOL0     C30189   2.220   0.611   5.371 -0.0508 -0.4143 -0.4147
  965MOL0     C30190   2.325   0.604   5.463 -0.2891 -0.4560 -0.5094
  965MOL0     N30191   2.980   0.419   5.845  0.0435 -0.0615  0.3023
  965MOL0     N30192   3.102   0.416   5.816  0.1354 -0.0619 -0.1575
  965MOL0     C30193   4.182   0.204   5.709 -0.7444 -0.3009  0.8233
  965MOL0     C30194   4.317   0.253   5.725 -0.5610 -0.2482  0.0870
  965MOL0     C30195   4.722   0.418   5.678 -0.0969 -0.5452 -0.3658
  965MOL0     C30196   4.810   0.334   5.626 -0.8158  0.8413  0.2503
  965MOL0     C30197   4.943   0.366   5.629 -0.0336  0.0954 -0.2306
  965MOL0     C30198   4.986   0.491   5.676 -0.6510  0.2087  0.2321
  965MOL0     O30199   5.113   0.547   5.671  0.2982 -0.0793 -0.0639
  965MOL0     C30200   5.152   0.577   5.537  1.1974  0.6868 -0.5458
  965MOL0     C30201   5.273   0.660   5.536  0.1833  0.2046  0.5405
  965MOL0     C30202   5.397   0.587   5.602  1.1731 -0.4778  0.4046
  965MOL0     C30203   5.518   0.681   5.605  0.0179 -0.7053 -0.0994
  965MOL0     C30204   5.637   0.611   5.646  0.1429 -1.1885  0.4166
  965MOL0     C30205   5.739   0.555   5.672 -0.6653  0.2692 -0.4246
  965MOL0     C30206   4.897   0.575   5.739  0.1791 -0.1439  0.8867
  965MOL0     C30207   4.766   0.541   5.736 -0.5585  0.6037 -0.8523
  965MOL0     H30208   4.450   0.129   5.440 -3.0884 -1.6020 -2.9004
  965MOL0     H30209   4.195   0.054   5.411 -1.9048  0.5063  0.5913
  965MOL0     H30210   3.974   0.015   5.760  1.4100 -0.2738 -1.6198
  965MOL0     H30211   3.910   0.180   5.722  0.9229  2.0823 -3.6758
  965MOL0     H30212   3.776   0.097   5.552  1.5473 -2.0960 -1.4177
  965MOL0     H30213   3.799  -0.077   5.580 -1.0561 -0.7995 -1.0796
  965MOL0     H30214   3.711  -0.050   5.822 -0.4417 -0.2381 -1.3821
  965MOL0     H30215   3.709   0.126   5.802  1.6419 -0.5650  0.1897
  965MOL0     H30216   3.534   0.049   5.594 -3.9673  3.2474  0.9038
  965MOL0     H30217   3.535  -0.102   5.681  2.8022 -0.6796 -0.8627
  965MOL0     H30218   3.359  -0.012   5.796  0.5306 -0.7500 -0.4084
  965MOL0     H30219   3.494   0.043   5.895  0.3480  1.5107  0.3490
  965MOL0     H30220   3.332   0.201   5.861  0.0903 -0.4248  0.0570
  965MOL0     H30221   3.480   0.262   5.773 -0.9742  1.7023  1.3608
  965MOL0     H30222   3.367   0.186   5.557  0.5919  3.3119  0.1554
  965MOL0     H30223   3.240   0.114   5.650 -0.3109  0.4794 -0.0830
  965MOL0     H30224   3.193   0.328   5.532  1.7475 -1.8218 -1.3510
  965MOL0     H30225   3.305   0.412   5.654 -2.9612  1.5680  2.5502
  965MOL0     H30226   2.992   0.179   5.626  0.7529 -1.1261  0.8528
  965MOL0     H30227   2.760   0.173   5.754  0.8745 -0.0164 -1.4964
  965MOL0     H30228   2.733   0.284   5.892 -2.2605  2.8359 -1.3908
  965MOL0     H30229   2.566   0.288   5.738 -0.3059  0.4651  0.2650
  965MOL0     H30230   2.668   0.356   5.607 -0.0054 -1.9318 -0.3425
  965MOL0     H30231   2.713   0.550   5.774 -0.6526  0.9712  2.4202
  965MOL0     H30232   2.587   0.475   5.879 -1.9515 -2.4676 -0.8012
  965MOL0     H30233   2.560   0.589   5.595  2.2972  1.5170  1.4937
  965MOL0     H30234   2.497   0.663   5.744  1.4980  1.0294 -0.8033
  965MOL0     H30235   2.181   0.427   5.704  3.3872  1.5643 -0.2036
  965MOL0     H30236   1.950   0.340   5.623  0.7373  1.1518  0.9417
  965MOL0     H30237   1.891   0.506   5.644  0.8021 -0.8291  2.2338
  965MOL0     H30238   1.864   0.423   5.492  0.9006  2.4315  0.0293
  965MOL0     H30239   1.833   0.885   5.280 -0.5768  0.6204 -3.3522
  965MOL0     H30240   1.642   0.978   5.165  3.7240  0.9490  2.5687
  965MOL0     H30241   1.436   1.039   5.197 -2.7725  2.1248 -0.8297
  965MOL0     H30242   1.461   1.018   5.026 -2.1906  0.5683 -1.6084
  965MOL0     H30243   1.257   1.147   5.066 -3.0971 -0.5955 -1.6408
  965MOL0     H30244   1.214   1.002   4.974  0.4897 -0.1955 -0.5188
  965MOL0     H30245   1.171   1.070   5.258  0.9253 -0.1515 -1.6532
  965MOL0     H30246   1.152   0.904   5.211 -0.2372  0.4560  2.2000
  965MOL0     H30247   0.974   1.147   5.123 -1.3816 -0.2101 -0.5295
  965MOL0     H30248   0.993   1.003   5.028  1.1327  0.9838 -1.0644
  965MOL0     H30249   0.923   1.024   5.331  3.2214  2.2456 -1.2945
  965MOL0     H30250   0.932   0.870   5.245 -0.5839 -0.0103 -0.4154
  965MOL0     H30251   0.751   1.095   5.160 -0.4412 -1.1435 -3.7375
  965MOL0     H30252   0.749   0.949   5.080 -3.4094  3.6320 -0.8364
  965MOL0     H30253   0.684   0.967   5.381 -3.1952  1.2501  0.1186
  965MOL0     H30254   0.675   0.819   5.281  2.2399  0.8114  0.4135
  965MOL0     H30255   0.489   0.970   5.158 -0.7568 -2.1991  0.1279
  965MOL0     H30256   0.519   1.092   5.288 -0.5254  0.1269  0.9453
  965MOL0     H30257   1.416   0.628   5.223 -1.4016  2.8294  0.3120
  965MOL0     H30258   1.639   0.519   5.336 -2.7631  0.9509  1.6641
  965MOL0     H30259   2.231   0.678   5.286 -1.4028  0.0897 -0.2233
  965MOL0     H30260   2.421   0.643   5.433 -0.4362  0.5337  0.2538
  965MOL0     H30261   4.110   0.220   5.788 -0.4445  0.1657  1.0086
  965MOL0     H30262   4.336   0.312   5.815  2.5635 -0.9311  0.0016
  965MOL0     H30263   4.776   0.240   5.583  0.1417  0.2388  0.7629
  965MOL0     H30264   5.009   0.297   5.578 -0.3515 -1.3369  1.1959
  965MOL0     H30265   5.156   0.497   5.462 -1.0093  0.0545 -0.0870
  965MOL0     H30266   5.074   0.643   5.497  1.4239  1.4938  0.3272
  965MOL0     H30267   5.252   0.740   5.607  0.9375 -0.4835  1.5684
  965MOL0     H30268   5.305   0.701   5.439  0.0502 -1.8152 -0.4062
  965MOL0     H30269   5.425   0.500   5.541 -2.0921 -0.4876 -1.2903
  965MOL0     H30270   5.387   0.566   5.709  0.6623  1.3908  0.7632
  965MOL0     H30271   5.496   0.768   5.668 -0.4555  2.0134 -3.6915
  965MOL0     H30272   5.540   0.720   5.505  1.2301  1.8018  1.0528
  965MOL0     H30273   5.827   0.516   5.718 -0.1017  3.5679  1.6409
  965MOL0     H30274   4.945   0.666   5.772  1.3635 -0.4993  0.2385
  965MOL0     H30275   4.699   0.610   5.785  0.3868  1.4967 -0.7751
  966MOL0     O30276   5.516  10.931   0.849  0.5282  0.2193  0.3599
  966MOL0     C30277   5.587  10.878   0.933 -0.1438  0.1787  0.1439
  966MOL0     O30278   5.544  10.785   1.024 -0.3433 -0.2585  0.1534
  966MOL0     C30279   5.416  10.749   1.028  0.5416  0.5494  0.7834
  966MOL0     C30280   5.324  10.778   1.133  0.8214 -1.2150 -0.2877
  966MOL0     C30281   5.189  10.738   1.131 -0.5814 -0.6511 -0.3497
  966MOL0     C30282   5.140  10.651   1.031  0.4389  0.4072 -0.1178
  966MOL0     O30283   5.016  10.583   1.024  0.1437  0.2730  0.3392
  966MOL0     C30284   4.907  10.618   1.104  0.4358 -0.2773  0.0939
  966MOL0     C30285   4.781  10.547   1.054  0.5856  0.0719  0.0137
  966MOL0     C30286   4.789  10.398   1.064  0.4274  1.0673 -0.8226
  966MOL0     C30287   4.663  10.322   1.036  0.8299  0.7011  0.0746
  966MOL0     C30288   4.690  10.168   1.046  0.1804 -0.2641  0.4204
  966MOL0     C30289   4.562  10.090   1.000 -0.2041  0.2284 -0.5947
  966MOL0     C30290   4.440  10.107   1.099  0.6835  0.1474  0.8421
  966MOL0     C30291   4.329   9.988   1.074  0.0885 -0.5570 -0.1206
  966MOL0     N30292   4.358   9.848   1.094 -0.1403 -1.4259 -0.7456
  966MOL0     C30293   4.281   9.752   1.034  0.1984  0.8409  0.3595
  966MOL0     C30294   4.342   9.631   1.063  0.5515  0.4470  0.7999
  966MOL0     C30295   4.304   9.498   1.012 -0.0722 -0.9225 -0.3845
  966MOL0     C30296   4.256   9.391   1.117  0.7814  0.0487  0.4711
  966MOL0     C30297   4.114   9.420   1.165  0.5192 -0.2092 -1.0403
  966MOL0     C30298   4.010   9.416   1.057  1.0161 -0.1686 -0.0178
  966MOL0     O30299   3.956   9.543   1.009 -0.4294  0.2508  0.6726
  966MOL0     C30300   3.855   9.544   0.914 -0.8065  0.0042 -0.1265
  966MOL0     C30301   3.777   9.435   0.875 -0.2773 -0.4682  0.0806
  966MOL0     C30302   3.676   9.438   0.786  0.6730 -0.1133 -0.4689
  966MOL0     C30303   3.606   9.293   0.774 -0.1170  0.1572 -0.2873
  966MOL0     C30304   3.650   9.569   0.725  0.0002  0.0323 -0.5676
  966MOL0     C30305   3.534   9.581   0.635  0.3794 -0.0307 -1.1981
  966MOL0     O30306   3.486   9.470   0.568 -0.8748  0.2585 -0.3491
  966MOL0     C30307   3.364   9.469   0.502  0.8532 -0.0359 -1.1176
  966MOL0     C30308   3.277   9.576   0.480  0.5695 -0.3529  0.0426
  966MOL0     C30309   3.151   9.560   0.422 -0.0076 -0.4761  0.0689
  966MOL0     C30310   3.105   9.431   0.379  0.3222 -0.0162  0.1957
  966MOL0     O30311   2.973   9.426   0.331 -0.1673 -0.1827 -0.1795
  966MOL0     C30312   2.912   9.297   0.319  0.3374 -0.6891 -0.1979
  966MOL0     C30313   2.770   9.306   0.270  0.0789 -0.8601  0.1027
  966MOL0     C30314   2.663   9.360   0.365 -0.2619 -0.7637  0.2856
  966MOL0     C30315   2.608   9.252   0.457 -0.1833  0.4664 -0.3642
  966MOL0     C30316   2.497   9.301   0.542 -0.3374  0.8928 -0.4623
  966MOL0     C30317   2.547   9.406   0.641  0.0332 -0.2116 -0.6622
  966MOL0     C30318   2.664   9.372   0.746  0.5081 -0.7826  0.7473
  966MOL0     C30319   2.660   9.463   0.866 -0.1248 -0.3321 -0.0083
  966MOL0    Cl30320   2.526   9.417   0.964  0.2788  0.0500  0.4379
  966MOL0     C30321   3.194   9.323   0.400  0.5647 -0.5741 -0.6402
  966MOL0     C30322   3.314   9.343   0.467  0.4615 -0.3372 -0.5169
  966MOL0     O30323   3.489   9.690   0.614 -0.3538 -0.3192 -0.1593
  966MOL0     C30324   3.730   9.685   0.760 -0.0491  0.4877 -0.3792
  966MOL0     C30325   3.826   9.668   0.859  0.1158 -0.7051 -0.0153
  966MOL0     N30326   4.438   9.663   1.157  0.0678  0.0609 -0.0373
  966MOL0     N30327   4.448   9.789   1.177 -0.4871  0.4349  0.0041
  966MOL0     C30328   5.228  10.616   0.931 -0.0772  0.4733  0.1896
  966MOL0     C30329   5.358  10.673   0.925 -0.1482 -0.0831 -0.1464
  966MOL0     C30330   5.726  10.899   0.935 -1.1382 -0.7708 -0.5327
  966MOL0     C30331   5.790  10.954   0.824 -0.8492  0.1276 -0.1391
  966MOL0     C30332   5.927  10.988   0.829 -0.3685 -1.5578 -0.1691
  966MOL0     C30333   6.001  10.963   0.948 -0.0580 -0.7655 -0.2785
  966MOL0     O30334   6.134  10.987   0.966  0.7359 -0.9664  0.1672
  966MOL0     C30335   6.203  11.039   0.849 -0.7880  0.1480 -0.1253
  966MOL0     C30336   6.347  11.068   0.882 -0.0668 -0.2624  0.7883
  966MOL0     C30337   6.369  11.176   0.999 -0.2052  1.0590 -0.2836
  966MOL0     C30338   6.510  11.171   1.051 -0.0111 -0.7042  0.4204
  966MOL0     C30339   6.607  11.188   0.940  0.4289  0.0146 -0.1406
  966MOL0     C30340   6.685  11.198   0.847  0.5017  0.1389 -0.7558
  966MOL0     C30341   5.944  10.901   1.053  0.2045 -0.2523  0.4032
  966MOL0     C30342   5.803  10.869   1.053 -0.4420 -0.8234  0.4712
  966MOL0     H30343   5.368  10.827   1.219  0.9188 -2.1597  0.2118
  966MOL0     H30344   5.123  10.752   1.216 -1.3570  0.2100 -1.0630
  966MOL0     H30345   4.927  10.595   1.209  2.1981  0.9661  0.0920
  966MOL0     H30346   4.895  10.727   1.105 -1.9001 -0.4867  0.9472
  966MOL0     H30347   4.692  10.580   1.109  1.4853  1.1356  0.8607
  966MOL0     H30348   4.765  10.565   0.947 -1.5641  1.3884  0.4817
  966MOL0     H30349   4.874  10.366   1.003  2.4476  0.3301  2.1705
  966MOL0     H30350   4.826  10.365   1.161 -1.0088 -1.8280 -1.1587
  966MOL0     H30351   4.577  10.344   1.099 -1.2908 -0.3052 -2.2883
  966MOL0     H30352   4.631  10.344   0.933  1.9191 -2.3401 -1.0309
  966MOL0     H30353   4.766  10.149   0.970 -3.7030 -0.5611 -3.8134
  966MOL0     H30354   4.725  10.141   1.146  0.8653  1.7836  0.7837
  966MOL0     H30355   4.535  10.131   0.903  2.7894  1.7508 -0.9021
  966MOL0     H30356   4.591   9.986   0.986  1.2763  0.8476 -2.5399
  966MOL0     H30357   4.479  10.107   1.201  0.1397  0.2227  1.0537
  966MOL0     H30358   4.383  10.198   1.078 -0.1596 -0.8744 -1.7075
  966MOL0     H30359   4.289  10.007   0.974  2.2196 -0.3695 -0.9977
  966MOL0     H30360   4.248  10.008   1.144  1.8310  0.3475  1.7644
  966MOL0     H30361   4.193   9.758   0.972 -1.8038  0.9905  3.0563
  966MOL0     H30362   4.235   9.505   0.927 -0.4367  1.5387  0.0552
  966MOL0     H30363   4.394   9.462   0.961  1.5373  0.3031  1.4683
  966MOL0     H30364   4.322   9.371   1.202  2.7837 -2.3203 -1.4691
  966MOL0     H30365   4.262   9.295   1.064  0.3378 -0.6980  1.7155
  966MOL0     H30366   4.101   9.505   1.233 -1.4539 -0.4418 -1.0780
  966MOL0     H30367   4.080   9.331   1.218 -0.0520  0.8094  0.3858
  966MOL0     H30368   3.925   9.363   1.100 -0.2972  2.2809  0.5549
  966MOL0     H30369   4.040   9.356   0.970  0.0420 -0.6624 -0.0252
  966MOL0     H30370   3.789   9.340   0.926  0.4358 -0.9149 -0.8792
  966MOL0     H30371   3.583   9.241   0.868  0.7004  1.0300  0.4194
  966MOL0     H30372   3.513   9.286   0.718 -0.2474  0.9343 -0.1743
  966MOL0     H30373   3.680   9.237   0.715  0.3929  2.4339 -1.9425
  966MOL0     H30374   3.310   9.679   0.489  0.2991 -0.1109 -1.4642
  966MOL0     H30375   3.080   9.642   0.414 -0.5822 -1.1088 -2.3194
  966MOL0     H30376   2.962   9.231   0.247  0.2801 -1.2106  0.2308
  966MOL0     H30377   2.903   9.251   0.418 -1.5671  1.1868  0.5742
  966MOL0     H30378   2.767   9.362   0.176  1.1041 -1.3274 -0.2199
  966MOL0     H30379   2.743   9.205   0.238  1.1737 -0.4824 -2.2516
  966MOL0     H30380   2.584   9.401   0.302  0.4447 -2.1821 -1.6338
  966MOL0     H30381   2.719   9.439   0.415  0.9060  0.9053 -3.3156
  966MOL0     H30382   2.568   9.171   0.397  1.4889 -0.6693 -0.0209
  966MOL0     H30383   2.681   9.202   0.522  0.9649  0.1712 -1.8309
  966MOL0     H30384   2.462   9.216   0.602 -1.4029  1.5132 -0.1861
  966MOL0     H30385   2.415   9.338   0.481  1.1951  0.1540 -3.1279
  966MOL0     H30386   2.595   9.484   0.581  1.8058 -1.6821 -1.2403
  966MOL0     H30387   2.468   9.444   0.706  1.9041 -2.3778  3.2818
  966MOL0     H30388   2.759   9.375   0.691 -0.2170  0.9190 -0.5082
  966MOL0     H30389   2.642   9.271   0.781  0.1866 -1.1288 -0.4158
  966MOL0     H30390   2.659   9.571   0.849  2.0895  0.0666  1.8456
  966MOL0     H30391   2.756   9.445   0.915 -0.8159 -4.3402  0.2569
  966MOL0     H30392   3.166   9.220   0.381 -0.8026 -0.2533 -0.4887
  966MOL0     H30393   3.353   9.249   0.507 -1.3733 -0.4277  1.2084
  966MOL0     H30394   3.700   9.787   0.738 -0.2292  0.7428  0.9293
  966MOL0     H30395   3.889   9.752   0.887 -1.9300  0.5796  0.8820
  966MOL0     H30396   5.200  10.550   0.850  0.0255  1.4018 -0.6269
  966MOL0     H30397   5.408  10.661   0.830 -1.7924  0.7490 -1.1497
  966MOL0     H30398   5.739  10.985   0.734 -0.9182  0.3570 -0.0227
  966MOL0     H30399   5.970  11.045   0.748 -0.8477  1.5433  1.5758
  966MOL0     H30400   6.205  10.969   0.765  3.4599  2.4428 -2.3108
  966MOL0     H30401   6.163  11.133   0.810  0.3704  0.4092 -0.7364
  966MOL0     H30402   6.389  11.103   0.787  1.4098 -1.7852  0.8181
  966MOL0     H30403   6.392  10.971   0.906  0.4074 -0.3081 -0.2094
  966MOL0     H30404   6.300  11.143   1.077  0.3428  0.1342 -0.1751
  966MOL0     H30405   6.344  11.276   0.962 -0.0483  1.3623  0.4275
  966MOL0     H30406   6.530  11.070   1.089  1.9567 -0.1773  0.8495
  966MOL0     H30407   6.525  11.250   1.124 -0.5936 -0.6047  0.4386
  966MOL0     H30408   6.736  11.206   0.753 -1.9171 -1.2442 -2.3105
  966MOL0     H30409   6.007  10.867   1.136  0.7389 -1.5624 -0.5033
  966MOL0     H30410   5.754  10.831   1.142 -1.1289  0.3183  0.6037
  967MOL0     O30411   1.055   6.686   6.272  0.2126 -0.0385  0.3833
  967MOL0     C30412   1.088   6.755   6.173 -0.5099  0.4269 -0.6787
  967MOL0     O30413   1.021   6.764   6.061  0.8728 -0.8777 -0.1284
  967MOL0     C30414   0.893   6.714   6.051  0.5247  0.7158 -0.6485
  967MOL0     C30415   0.779   6.785   6.107  0.9014 -0.9690  0.2686
  967MOL0     C30416   0.650   6.735   6.090  0.5833  1.2338  0.6937
  967MOL0     C30417   0.628   6.612   6.024  1.0559  0.6318 -0.4248
  967MOL0     O30418   0.502   6.564   6.005  0.0608  0.1546  0.1546
  967MOL0     C30419   0.434   6.617   5.884 -1.0863 -0.3362 -1.0687
  967MOL0     C30420   0.281   6.595   5.904  0.2992 -0.4213  0.2117
  967MOL0     C30421   0.194   6.674   5.798  0.7810 -0.5304  0.6532
  967MOL0     C30422   0.044   6.650   5.816 -0.6616 -0.7623 -0.2510
  967MOL0     C30423  -0.036   6.757   5.734  0.5638 -0.4346 -0.3033
  967MOL0     C30424  -0.143   6.685   5.651  0.1208 -0.1182  0.5814
  967MOL0     C30425  -0.263   6.642   5.727 -0.4622 -0.0204  0.3375
  967MOL0     C30426  -0.375   6.620   5.624  0.8374  0.3576  0.0994
  967MOL0     N30427  -0.500   6.590   5.691  0.8288 -0.8245 -0.2472
  967MOL0     C30428  -0.575   6.680   5.760  0.3438  0.2590 -0.0090
  967MOL0     C30429  -0.693   6.620   5.789 -0.3786 -0.1059 -0.4772
  967MOL0     C30430  -0.815   6.682   5.849 -0.1892 -0.4027  1.0724
  967MOL0     C30431  -0.851   6.642   5.997  0.2175 -0.2462  0.3003
  967MOL0     C30432  -0.881   6.494   6.021  0.2625  0.1449 -0.3345
  967MOL0     C30433  -1.003   6.443   5.942 -0.2364  0.2737  0.2643
  967MOL0     O30434  -1.129   6.518   5.961 -0.2585  0.2086 -0.3172
  967MOL0     C30435  -1.206   6.495   6.065 -0.4226 -0.1249  0.9817
  967MOL0     C30436  -1.181   6.418   6.179 -0.1356  0.0936 -0.0768
  967MOL0     C30437  -1.286   6.377   6.264 -0.8993 -0.8825 -0.2040
  967MOL0     C30438  -1.254   6.280   6.374 -0.4852 -0.6569 -0.5267
  967MOL0     C30439  -1.416   6.436   6.247 -0.4402 -0.4120 -0.8466
  967MOL0     C30440  -1.532   6.408   6.330  0.4184 -0.2074  0.2446
  967MOL0     O30441  -1.647   6.489   6.316  1.1430  0.1322 -0.2112
  967MOL0     C30442  -1.759   6.467   6.398  0.3266 -1.0272 -0.2905
  967MOL0     C30443  -1.755   6.471   6.542  0.3121 -0.6444 -0.3625
  967MOL0     C30444  -1.861   6.430   6.620  0.2610  0.2092  0.6881
  967MOL0     C30445  -1.982   6.391   6.562 -0.0424  0.4445  0.2967
  967MOL0     O30446  -2.087   6.357   6.648  0.3539 -0.5518  0.1672
  967MOL0     C30447  -2.212   6.327   6.585  0.3230 -0.1338 -0.9380
  967MOL0     C30448  -2.321   6.309   6.689  0.6524  0.5617  1.0952
  967MOL0     C30449  -2.463   6.266   6.633  0.3048 -0.0063 -0.0753
  967MOL0     C30450  -2.560   6.243   6.742  0.4896 -0.4513  0.4185
  967MOL0     C30451  -2.709   6.242   6.708  0.4131 -0.6154  0.3716
  967MOL0     C30452  -2.797   6.224   6.836  1.2361 -0.0797  0.6218
  967MOL0     C30453  -2.948   6.229   6.803 -0.2428 -0.4419 -0.9118
  967MOL0     C30454  -3.014   6.092   6.786 -0.8567 -0.0552  0.0095
  967MOL0    Cl30455  -2.943   5.985   6.668 -0.2359  0.2475  0.2835
  967MOL0     C30456  -1.993   6.398   6.423 -0.3260  0.1712 -0.1890
  967MOL0     C30457  -1.878   6.422   6.346  0.3197 -0.4548  0.6925
  967MOL0     O30458  -1.527   6.314   6.411  0.4218  0.2760  0.0552
  967MOL0     C30459  -1.429   6.531   6.143 -0.1733  1.2334  0.5269
  967MOL0     C30460  -1.331   6.556   6.055  0.1564  0.1555 -0.0187
  967MOL0     N30461  -0.686   6.489   5.735 -0.7234 -1.2009  0.1780
  967MOL0     N30462  -0.562   6.466   5.679  0.1948 -0.3823 -0.2965
  967MOL0     C30463   0.736   6.548   5.970 -0.7841  0.2451  0.0788
  967MOL0     C30464   0.867   6.606   5.969 -0.3994  0.6273 -0.8896
  967MOL0     C30465   1.220   6.819   6.192 -0.9016  0.2568  0.1263
  967MOL0     C30466   1.292   6.808   6.310  0.3320 -0.1724  0.4635
  967MOL0     C30467   1.416   6.867   6.322 -0.6520  0.5385 -0.2139
  967MOL0     C30468   1.474   6.939   6.219 -0.3817  0.4140 -0.2356
  967MOL0     O30469   1.593   7.003   6.253 -0.6030 -0.7769  1.2822
  967MOL0     C30470   1.631   7.108   6.157  0.1845 -0.2277  0.3736
  967MOL0     C30471   1.751   7.181   6.218  0.0185 -0.0673  0.5660
  967MOL0     C30472   1.873   7.102   6.277  0.1667  0.5657  0.7609
  967MOL0     C30473   1.966   7.188   6.358  0.2310  0.5161 -0.5134
  967MOL0     C30474   1.909   7.256   6.474 -0.1092 -0.1668  0.1723
  967MOL0     C30475   1.849   7.315   6.561  0.4819  0.7070  0.3563
  967MOL0     C30476   1.396   6.961   6.101 -0.2806  0.0272  0.3038
  967MOL0     C30477   1.271   6.897   6.084 -0.1717  0.0944 -0.5867
  967MOL0     H30478   0.808   6.876   6.159  0.3247  0.4169 -1.7130
  967MOL0     H30479   0.558   6.780   6.126 -1.3846  0.8557 -3.3263
  967MOL0     H30480   0.447   6.725   5.878 -1.0849 -0.1113  1.7339
  967MOL0     H30481   0.481   6.576   5.794  2.4538 -1.2504  1.0059
  967MOL0     H30482   0.257   6.489   5.914  0.1291 -0.5305 -1.1450
  967MOL0     H30483   0.255   6.642   6.000 -2.4205 -2.8428  0.8018
  967MOL0     H30484   0.205   6.781   5.819 -0.2377 -0.2350 -0.2050
  967MOL0     H30485   0.216   6.635   5.698 -3.2538 -2.8718  0.4612
  967MOL0     H30486   0.016   6.548   5.788 -0.1856 -0.1911 -3.2180
  967MOL0     H30487   0.024   6.670   5.922 -0.5668 -1.5124 -0.0894
  967MOL0     H30488  -0.084   6.827   5.804 -1.1541  0.7044 -2.4922
  967MOL0     H30489   0.032   6.816   5.672  0.6475  0.8612  0.9597
  967MOL0     H30490  -0.174   6.768   5.586  0.0725  0.3717  1.2186
  967MOL0     H30491  -0.112   6.602   5.588 -1.5734 -0.8431  0.6571
  967MOL0     H30492  -0.243   6.549   5.780 -1.8488 -0.5435 -0.0238
  967MOL0     H30493  -0.277   6.730   5.791  0.8761  1.5403 -1.3975
  967MOL0     H30494  -0.358   6.529   5.564  0.8026  0.7537 -0.5227
  967MOL0     H30495  -0.383   6.698   5.547 -1.5861 -2.3323 -2.6635
  967MOL0     H30496  -0.529   6.773   5.793  2.0573  0.1554 -1.9299
  967MOL0     H30497  -0.801   6.790   5.849 -2.2501 -0.0915  0.9837
  967MOL0     H30498  -0.899   6.663   5.782 -0.7679 -0.3026  1.7559
  967MOL0     H30499  -0.934   6.705   6.028  0.6652  0.1605  0.6897
  967MOL0     H30500  -0.756   6.658   6.049  0.7251 -0.2555 -0.6000
  967MOL0     H30501  -0.902   6.479   6.127  1.8314 -2.0101 -0.2584
  967MOL0     H30502  -0.796   6.430   5.996  1.8758  0.7724  3.0224
  967MOL0     H30503  -1.021   6.340   5.972 -1.4268 -0.1190 -1.6630
  967MOL0     H30504  -0.982   6.437   5.835 -0.1478 -1.5196  0.3521
  967MOL0     H30505  -1.085   6.371   6.195 -0.8610 -1.1620  0.8340
  967MOL0     H30506  -1.146   6.290   6.394 -0.0169  1.4541 -3.4304
  967MOL0     H30507  -1.306   6.294   6.469  0.2587 -1.2297 -0.0197
  967MOL0     H30508  -1.270   6.174   6.351  0.5343 -1.2059  1.0982
  967MOL0     H30509  -1.665   6.508   6.588 -1.6744  1.6494  2.0099
  967MOL0     H30510  -1.867   6.448   6.727 -1.6273  1.2994  0.4424
  967MOL0     H30511  -2.258   6.393   6.510 -1.3540 -0.2166 -0.0454
  967MOL0     H30512  -2.199   6.234   6.530  0.3067  0.2295 -1.5729
  967MOL0     H30513  -2.298   6.225   6.755 -0.6148 -1.7034 -1.1544
  967MOL0     H30514  -2.323   6.408   6.735 -1.3872  2.1505 -2.0239
  967MOL0     H30515  -2.452   6.181   6.565  0.7499  1.8144 -2.4216
  967MOL0     H30516  -2.497   6.355   6.578 -1.0481 -1.6485 -2.0645
  967MOL0     H30517  -2.535   6.144   6.779 -3.3252 -1.7508 -0.0377
  967MOL0     H30518  -2.536   6.318   6.818  0.4635 -0.3811  0.3586
  967MOL0     H30519  -2.739   6.168   6.634  0.5653  0.5770 -0.9113
  967MOL0     H30520  -2.728   6.340   6.664  2.6006 -0.3503 -0.1043
  967MOL0     H30521  -2.774   6.129   6.884  0.1848 -0.1800  0.9556
  967MOL0     H30522  -2.765   6.312   6.891 -0.8115  2.5124 -2.0116
  967MOL0     H30523  -2.965   6.291   6.714 -0.2088 -0.7797 -1.1581
  967MOL0     H30524  -2.990   6.279   6.890  3.2157  1.2518 -0.0403
  967MOL0     H30525  -3.121   6.110   6.771 -0.4981  3.6850  0.8203
  967MOL0     H30526  -2.996   6.045   6.883  2.3586 -1.3132 -1.0621
  967MOL0     H30527  -2.085   6.376   6.370  0.7029 -0.1199 -1.9408
  967MOL0     H30528  -1.892   6.394   6.242 -0.9290  0.7812  0.5091
  967MOL0     H30529  -1.522   6.584   6.126  0.2229  1.5161 -0.8581
  967MOL0     H30530  -1.348   6.620   5.969  1.4499  1.1849  0.4581
  967MOL0     H30531   0.726   6.451   5.924 -1.3894 -0.9428  2.5669
  967MOL0     H30532   0.935   6.543   5.912 -0.6275  1.0222 -1.6081
  967MOL0     H30533   1.265   6.737   6.388 -0.6796 -1.1150 -0.6998
  967MOL0     H30534   1.462   6.864   6.420 -1.2239 -2.6674  0.0528
  967MOL0     H30535   1.658   7.074   6.056 -2.2576 -1.8116  0.1641
  967MOL0     H30536   1.542   7.171   6.153 -0.6987 -1.2839  2.2988
  967MOL0     H30537   1.717   7.234   6.308  0.2955 -0.0372  0.6522
  967MOL0     H30538   1.794   7.256   6.151  1.7176 -0.6410  0.9888
  967MOL0     H30539   1.923   7.049   6.195 -0.8613 -2.2085  1.8013
  967MOL0     H30540   1.827   7.039   6.354  0.1598  0.9098  1.0412
  967MOL0     H30541   2.001   7.273   6.299  0.3781 -0.8545 -2.5129
  967MOL0     H30542   2.049   7.130   6.400 -1.7606 -1.2798  1.1810
  967MOL0     H30543   1.792   7.357   6.641  0.6112  1.6750 -0.0443
  967MOL0     H30544   1.427   7.028   6.022  2.3970 -3.7419 -2.1520
  967MOL0     H30545   1.221   6.922   5.990 -1.8259  1.2401  0.5437
  968MOL0     O30546   5.970   4.758  10.165 -0.1435 -0.6633 -0.1176
  968MOL0     C30547   6.013   4.871  10.148  0.1573  0.3237 -0.1406
  968MOL0     O30548   5.936   4.980  10.108 -0.0992 -0.0361  0.5533
  968MOL0     C30549   5.805   4.967  10.070  0.7073 -0.1923 -0.2573
  968MOL0     C30550   5.772   5.038   9.957  1.4624  0.7516 -0.2277
  968MOL0     C30551   5.642   5.028   9.909  0.1813  0.0788 -0.1208
  968MOL0     C30552   5.534   4.960   9.968 -0.2766 -0.2441  0.2293
  968MOL0     O30553   5.419   4.960   9.902 -0.1559 -0.1371  0.5042
  968MOL0     C30554   5.316   4.894   9.965 -0.7389  0.4698  0.3158
  968MOL0     C30555   5.180   4.915   9.897 -0.0418 -0.2799 -0.4379
  968MOL0     C30556   5.057   4.864   9.974  0.1431  0.8315 -0.7656
  968MOL0     C30557   5.033   4.936  10.105 -0.1475 -1.1949  0.1531
  968MOL0     C30558   4.915   4.873  10.176 -0.8383  0.4611  1.0613
  968MOL0     C30559   4.921   4.900  10.329 -0.1741 -0.0989  0.1771
  968MOL0     C30560   4.780   4.888  10.388 -0.4954 -0.8090 -0.8873
  968MOL0     C30561   4.805   4.926  10.541  0.2272 -0.5463 -0.5603
  968MOL0     N30562   4.680   4.964  10.603  0.2543  0.0407  0.1019
  968MOL0     C30563   4.562   4.897  10.599 -0.1320 -0.1839  0.4583
  968MOL0     C30564   4.501   4.936  10.719  0.2493  0.2629 -0.0282
  968MOL0     C30565   4.367   4.878  10.765  0.0120 -0.0783  0.7270
  968MOL0     C30566   4.267   4.991  10.756 -0.3200  0.1040 -0.2066
  968MOL0     C30567   4.118   4.941  10.794 -0.4356 -0.3135  0.8553
  968MOL0     C30568   4.011   5.050  10.803 -0.0282 -0.1615 -0.4233
  968MOL0     O30569   3.879   4.993  10.840 -0.0063  0.5341  0.2489
  968MOL0     C30570   3.803   5.047  10.935  0.3139  0.6316 -0.3238
  968MOL0     C30571   3.808   5.173  11.000 -0.9065 -0.6764 -0.2200
  968MOL0     C30572   3.698   5.229  11.070  0.7791 -0.6098 -0.0701
  968MOL0     C30573   3.716   5.377  11.111 -0.0085  0.3745 -0.5897
  968MOL0     C30574   3.592   5.141  11.099 -0.3282 -0.7847  0.4995
  968MOL0     C30575   3.469   5.196  11.167 -0.3528 -0.4411 -0.1271
  968MOL0     O30576   3.386   5.103  11.220  0.2502  0.2558 -0.4318
  968MOL0     C30577   3.290   5.124  11.312 -0.1571  0.9212  0.1177
  968MOL0     C30578   3.251   5.236  11.387  0.2407 -0.2607  0.0622
  968MOL0     C30579   3.167   5.229  11.501 -0.1104  0.3106 -0.4145
  968MOL0     C30580   3.115   5.101  11.535 -0.4319  0.5490 -0.5949
  968MOL0     O30581   3.029   5.093  11.638  0.4710 -0.4790  0.9426
  968MOL0     C30582   3.091   5.089  11.769 -0.3385 -0.0574  0.5760
  968MOL0     C30583   3.065   4.953  11.837 -0.1216  0.6111  0.0632
  968MOL0     C30584   3.058   4.956  11.992 -0.3875  0.1769  0.6805
  968MOL0     C30585   2.989   5.075  12.065  0.3174  0.2299 -0.6065
  968MOL0     C30586   2.837   5.081  12.046 -0.1007  0.1870  0.3355
  968MOL0     C30587   2.778   4.963  12.120  1.6072 -0.0512  0.8832
  968MOL0     C30588   2.622   4.977  12.094  0.2203 -0.0655 -0.0858
  968MOL0     C30589   2.543   4.854  12.134  0.2872  0.0262 -0.5074
  968MOL0    Cl30590   2.368   4.850  12.081 -0.5149  0.2574  0.1918
  968MOL0     C30591   3.158   4.986  11.469 -0.0537  0.4228  0.4407
  968MOL0     C30592   3.239   5.000  11.352 -0.5018 -0.2050 -0.5213
  968MOL0     O30593   3.454   5.320  11.175 -0.1198  0.2748  0.0404
  968MOL0     C30594   3.596   5.011  11.045 -0.5358 -0.8265  0.3526
  968MOL0     C30595   3.697   4.973  10.961 -0.3169 -0.1652  0.1954
  968MOL0     N30596   4.575   5.040  10.773  0.0497 -0.0642 -0.1002
  968MOL0     N30597   4.681   5.059  10.703 -0.1580  0.1793  0.1690
  968MOL0     C30598   5.573   4.887  10.082  0.1247 -0.3271 -0.4912
  968MOL0     C30599   5.703   4.893  10.141  0.0333  0.7338 -0.4936
  968MOL0     C30600   6.156   4.911  10.152 -0.3121  0.3259 -0.3261
  968MOL0     C30601   6.254   4.806  10.181 -1.3305 -0.2276 -0.2716
  968MOL0     C30602   6.390   4.832  10.187  0.0249 -0.7679  0.5621
  968MOL0     C30603   6.438   4.964  10.167  0.3479 -0.0272 -0.1185
  968MOL0     O30604   6.571   4.992  10.157 -0.3148 -0.5332 -0.3051
  968MOL0     C30605   6.666   4.894  10.205 -0.1332 -0.1165  0.4944
  968MOL0     C30606   6.818   4.936  10.199 -0.4635  0.7655 -0.5641
  968MOL0     C30607   6.909   4.821  10.234 -0.3936  0.1083  0.1453
  968MOL0     C30608   7.052   4.872  10.201  0.0514 -0.2718 -0.2345
  968MOL0     C30609   7.149   4.843  10.310  0.2608 -0.6560  0.3666
  968MOL0     C30610   7.232   4.834  10.399 -1.1094 -0.9691  1.4873
  968MOL0     C30611   6.345   5.066  10.129  0.1928 -0.3725  1.1462
  968MOL0     C30612   6.208   5.038  10.134  0.2223 -0.6743  0.4382
  968MOL0     H30613   5.847   5.106   9.919  1.5780  1.0889  0.5873
  968MOL0     H30614   5.613   5.087   9.822  1.2801  1.6936  0.5675
  968MOL0     H30615   5.335   4.787   9.969 -0.6334  0.5159  1.1971
  968MOL0     H30616   5.309   4.921  10.071 -2.2281  3.7200 -0.4583
  968MOL0     H30617   5.165   5.022   9.883 -2.4906 -0.6563 -1.0640
  968MOL0     H30618   5.179   4.866   9.799 -0.4786  1.2936 -1.2479
  968MOL0     H30619   4.961   4.874   9.922 -0.3652  0.8898  0.1691
  968MOL0     H30620   5.082   4.763  10.007  0.1380  1.4393  1.2026
  968MOL0     H30621   5.119   4.932  10.173 -0.4604 -1.2357  0.5523
  968MOL0     H30622   5.020   5.044  10.100 -2.9264 -1.2489  2.9422
  968MOL0     H30623   4.825   4.905  10.122  0.3775 -0.3838 -1.6372
  968MOL0     H30624   4.921   4.764  10.164  1.7927  0.5974  0.6480
  968MOL0     H30625   4.983   4.823  10.375 -0.6460 -0.2644  0.5432
  968MOL0     H30626   4.960   4.999  10.354  0.8437 -0.4318 -0.0520
  968MOL0     H30627   4.707   4.954  10.340  1.1885  1.5628 -0.3792
  968MOL0     H30628   4.738   4.787  10.382 -0.6146 -0.7919 -0.3485
  968MOL0     H30629   4.867   5.016  10.541  1.0724 -1.0444 -2.9009
  968MOL0     H30630   4.852   4.841  10.590  2.3800 -0.6366 -2.5889
  968MOL0     H30631   4.521   4.823  10.531 -3.0435  2.2806 -0.6768
  968MOL0     H30632   4.333   4.796  10.702  1.1205 -1.6171  2.0702
  968MOL0     H30633   4.384   4.836  10.865  2.2339 -1.6723 -0.2622
  968MOL0     H30634   4.265   5.041  10.659 -2.4624 -0.6049 -0.5723
  968MOL0     H30635   4.292   5.071  10.826  2.0294  0.4333 -1.3046
  968MOL0     H30636   4.120   4.892  10.891 -0.7298 -3.4329 -0.5734
  968MOL0     H30637   4.089   4.865  10.720  0.2337 -1.3975  1.6759
  968MOL0     H30638   4.004   5.089  10.701  1.5433 -4.6004 -2.4488
  968MOL0     H30639   4.039   5.123  10.880  0.0078 -0.6639  0.0386
  968MOL0     H30640   3.893   5.239  10.984  0.3133 -1.5339  2.1665
  968MOL0     H30641   3.817   5.411  11.086 -0.4885 -0.2314 -3.7856
  968MOL0     H30642   3.642   5.439  11.059 -1.1645 -0.4935 -0.0351
  968MOL0     H30643   3.706   5.401  11.218  0.3955  2.1549 -0.9164
  968MOL0     H30644   3.294   5.330  11.354 -1.1162  0.3014 -0.1766
  968MOL0     H30645   3.133   5.319  11.551  2.2926  0.7503  0.5649
  968MOL0     H30646   3.200   5.099  11.761 -0.7294  3.0998 -3.2920
  968MOL0     H30647   3.066   5.183  11.819  2.5775  1.5008 -0.6568
  968MOL0     H30648   2.978   4.905  11.790 -0.0903  2.8523 -2.5756
  968MOL0     H30649   3.150   4.890  11.811  0.1246  1.8228 -2.4330
  968MOL0     H30650   3.161   4.951  12.028 -0.9759 -2.9176  2.3461
  968MOL0     H30651   3.009   4.861  12.015 -1.3063 -0.0663 -1.9798
  968MOL0     H30652   3.018   5.065  12.170  1.9422 -3.4920 -1.2676
  968MOL0     H30653   3.045   5.165  12.034  1.4565 -0.2111  0.0929
  968MOL0     H30654   2.807   5.071  11.941 -0.3322 -0.8061  0.4900
  968MOL0     H30655   2.792   5.170  12.090 -1.7707 -0.8200  0.7574
  968MOL0     H30656   2.810   4.862  12.095 -1.1414 -1.0148  0.8937
  968MOL0     H30657   2.801   4.971  12.227 -0.3367 -1.1560  1.4211
  968MOL0     H30658   2.617   4.981  11.985 -0.3847  0.7143 -0.0392
  968MOL0     H30659   2.578   5.063  12.145  0.4713  0.1142 -0.1677
  968MOL0     H30660   2.551   4.844  12.242 -2.9112  1.6221 -0.0181
  968MOL0     H30661   2.594   4.771  12.084 -1.0349 -0.8682 -0.4233
  968MOL0     H30662   3.131   4.887  11.504 -0.7462  0.0050 -1.1760
  968MOL0     H30663   3.261   4.908  11.300  0.5095 -0.1731 -0.1812
  968MOL0     H30664   3.515   4.944  11.072 -1.8069 -0.1960 -1.6951
  968MOL0     H30665   3.700   4.877  10.909  4.6113  1.1408 -2.5867
  968MOL0     H30666   5.506   4.822  10.138 -0.2596  1.7383  1.5750
  968MOL0     H30667   5.722   4.830  10.228 -0.7589  2.9154  1.3782
  968MOL0     H30668   6.224   4.703  10.194 -0.2970 -0.5430 -0.3083
  968MOL0     H30669   6.465   4.755  10.202  1.6247  0.9292  1.5140
  968MOL0     H30670   6.643   4.862  10.307 -0.2035  1.6046  1.0421
  968MOL0     H30671   6.663   4.804  10.143  0.7705 -0.5015  0.9885
  968MOL0     H30672   6.825   5.016  10.273  0.1529  0.4230 -0.2433
  968MOL0     H30673   6.844   4.984  10.105  1.5805  1.1671  0.1529
  968MOL0     H30674   6.881   4.744  10.162  0.0240 -1.1027  1.2342
  968MOL0     H30675   6.893   4.789  10.337  0.6739  0.0751  0.3164
  968MOL0     H30676   7.049   4.981  10.197  2.4543 -0.0589  1.8111
  968MOL0     H30677   7.082   4.829  10.105  1.6801  1.4045 -0.5266
  968MOL0     H30678   7.303   4.825  10.479 -0.5978 -2.1625  0.9340
  968MOL0     H30679   6.374   5.169  10.111 -1.0438 -0.3873 -1.2221
  968MOL0     H30680   6.140   5.121  10.116 -0.7864 -1.3314  1.1553
  969MOL0     O30681   4.340   6.165   8.746 -0.2460 -0.2235  0.2471
  969MOL0     C30682   4.344   6.133   8.627 -0.0370  0.1185 -0.3031
  969MOL0     O30683   4.232   6.133   8.539 -0.2142 -0.0764 -0.2431
  969MOL0     C30684   4.110   6.152   8.589  0.9779  0.2135 -0.8902
  969MOL0     C30685   4.066   6.275   8.616 -0.0063  0.1170  0.8318
  969MOL0     C30686   3.940   6.298   8.674 -0.4083  0.5030  0.6213
  969MOL0     C30687   3.875   6.192   8.723  0.4312  0.0693  0.2728
  969MOL0     O30688   3.749   6.201   8.796 -0.8428 -0.3747  0.0647
  969MOL0     C30689   3.687   6.331   8.810  0.7349  0.4146  0.1559
  969MOL0     C30690   3.554   6.319   8.890  0.3147  0.1146 -0.1406
  969MOL0     C30691   3.574   6.296   9.038 -0.6910  0.3329 -0.2519
  969MOL0     C30692   3.676   6.386   9.098  0.1846 -0.6158 -0.2707
  969MOL0     C30693   3.636   6.432   9.235 -0.0727 -0.9693 -0.2599
  969MOL0     C30694   3.536   6.547   9.240 -0.2267  0.2582 -1.3775
  969MOL0     C30695   3.493   6.582   9.393 -0.1565  0.4282  0.8567
  969MOL0     C30696   3.427   6.477   9.477 -1.4290  0.9156  0.1240
  969MOL0     N30697   3.326   6.409   9.398  0.4222 -0.5527  0.5338
  969MOL0     C30698   3.191   6.452   9.400 -0.2348  0.2213 -0.9648
  969MOL0     C30699   3.132   6.347   9.345  0.2214  0.4226 -0.2853
  969MOL0     C30700   2.987   6.334   9.312  0.2263 -1.3253  0.1316
  969MOL0     C30701   2.905   6.283   9.429 -0.4790 -0.0788 -0.4019
  969MOL0     C30702   2.766   6.206   9.407 -0.1208  0.0531 -0.3824
  969MOL0     C30703   2.655   6.305   9.358 -0.2780  0.2802 -0.5298
  969MOL0     O30704   2.541   6.227   9.327  0.5543 -0.8814  0.1223
  969MOL0     C30705   2.411   6.284   9.320  0.0266  0.2344 -0.0287
  969MOL0     C30706   2.389   6.423   9.305 -0.8864  1.2994  0.5259
  969MOL0     C30707   2.259   6.474   9.273  1.0530  0.3546  0.0698
  969MOL0     C30708   2.248   6.625   9.254 -0.1936  0.5091  0.3566
  969MOL0     C30709   2.146   6.383   9.278 -0.4906  0.8799  0.4885
  969MOL0     C30710   2.001   6.408   9.260 -0.2013  0.5591  0.2091
  969MOL0     O30711   1.915   6.306   9.301  0.0151 -0.2291  0.2114
  969MOL0     C30712   1.778   6.323   9.327  0.0166  0.7390 -0.2631
  969MOL0     C30713   1.716   6.201   9.353 -0.0723  0.0516  0.6532
  969MOL0     C30714   1.581   6.203   9.379  0.0663 -0.2660 -0.3598
  969MOL0     C30715   1.512   6.324   9.383  0.8462  0.3432  0.1671
  969MOL0     O30716   1.375   6.309   9.404  0.1083  0.4887  0.2026
  969MOL0     C30717   1.284   6.390   9.329  0.4280  0.8085  0.3019
  969MOL0     C30718   1.151   6.317   9.310  0.1534  0.5672 -0.4397
  969MOL0     C30719   1.059   6.389   9.209  0.0676 -0.2329 -0.3536
  969MOL0     C30720   0.912   6.342   9.238 -0.1713  0.1853  0.3814
  969MOL0     C30721   0.799   6.424   9.187 -0.5566 -0.5703  0.3073
  969MOL0     C30722   0.660   6.365   9.204 -0.7671 -1.0176  0.4941
  969MOL0     C30723   0.545   6.468   9.187 -0.0733 -0.0234  1.0995
  969MOL0     C30724   0.536   6.534   9.045  0.5109  0.4703 -0.3140
  969MOL0    Cl30725   0.398   6.644   9.048  0.1370 -0.0441  0.1259
  969MOL0     C30726   1.570   6.437   9.356 -0.1333 -0.1461 -0.7783
  969MOL0     C30727   1.708   6.441   9.332  0.6849  0.4380 -0.3461
  969MOL0     O30728   1.969   6.519   9.226 -0.0665 -0.8361 -0.1671
  969MOL0     C30729   2.176   6.245   9.292  0.2001 -0.5766 -0.7928
  969MOL0     C30730   2.302   6.197   9.314  0.1254 -0.7904  0.3345
  969MOL0     N30731   3.224   6.244   9.310 -0.0050  0.3700  0.5558
  969MOL0     N30732   3.334   6.294   9.326 -0.2519  0.5408 -0.3814
  969MOL0     C30733   3.906   6.058   8.691 -1.3991  0.2560  0.9465
  969MOL0     C30734   4.027   6.036   8.624 -0.4749 -0.9059  0.0711
  969MOL0     C30735   4.478   6.109   8.572  0.7011 -0.3610  0.5155
  969MOL0     C30736   4.591   6.114   8.649 -0.6926 -0.2840 -0.4672
  969MOL0     C30737   4.721   6.098   8.591 -0.4516  0.1124 -0.6235
  969MOL0     C30738   4.729   6.064   8.459  0.3678 -0.1004  0.4413
  969MOL0     O30739   4.844   6.029   8.404 -0.2060 -0.1211 -0.5202
  969MOL0     C30740   4.963   5.993   8.485  0.5042  0.6638 -0.6500
  969MOL0     C30741   5.084   5.975   8.392 -0.5446 -0.0157 -0.1862
  969MOL0     C30742   5.195   5.914   8.468 -0.5945 -0.3318 -0.0167
  969MOL0     C30743   5.313   5.868   8.381 -0.2290 -0.0810 -0.1797
  969MOL0     C30744   5.442   5.860   8.455  0.6222 -0.0279  0.2472
  969MOL0     C30745   5.552   5.856   8.507  0.1782 -0.3750  0.6758
  969MOL0     C30746   4.615   6.036   8.382 -0.2564  0.4863 -0.4506
  969MOL0     C30747   4.495   6.068   8.439  0.0339 -0.3661 -0.4608
  969MOL0     H30748   4.128   6.362   8.596  1.9880 -0.9841  1.9528
  969MOL0     H30749   3.904   6.399   8.695  3.8896  3.0769 -2.6572
  969MOL0     H30750   3.761   6.400   8.852  1.6641 -1.3230  1.4851
  969MOL0     H30751   3.666   6.374   8.712  2.7435  0.3665 -0.3348
  969MOL0     H30752   3.495   6.408   8.868 -0.3185 -0.3638 -0.4179
  969MOL0     H30753   3.495   6.238   8.845 -1.3344  1.1167  0.1366
  969MOL0     H30754   3.480   6.316   9.090 -1.1137  0.4239 -1.0212
  969MOL0     H30755   3.594   6.191   9.061 -1.9825  0.1416  0.1149
  969MOL0     H30756   3.768   6.328   9.108 -0.1913 -1.4493 -1.3934
  969MOL0     H30757   3.696   6.474   9.036  2.1202 -0.1368  0.9675
  969MOL0     H30758   3.592   6.351   9.295  1.8987 -0.5663  1.8960
  969MOL0     H30759   3.730   6.467   9.279  1.3136 -0.5773 -3.2767
  969MOL0     H30760   3.572   6.640   9.197  2.8575 -0.5675 -0.7812
  969MOL0     H30761   3.451   6.510   9.182 -0.9574 -2.0749  0.9604
  969MOL0     H30762   3.582   6.623   9.441  1.4519 -0.2061 -1.4166
  969MOL0     H30763   3.425   6.668   9.382 -0.1695  0.0909 -3.4383
  969MOL0     H30764   3.380   6.523   9.565 -2.2103  1.9125 -0.7757
  969MOL0     H30765   3.503   6.404   9.506  0.6454  2.4114 -1.2571
  969MOL0     H30766   3.146   6.538   9.448 -0.0570 -0.6803  0.9460
  969MOL0     H30767   2.943   6.429   9.281  0.0610 -0.3727  2.9642
  969MOL0     H30768   2.974   6.258   9.234 -1.1298  1.4201 -2.5350
  969MOL0     H30769   2.892   6.361   9.505  0.7302 -0.9415  0.7355
  969MOL0     H30770   2.968   6.208   9.477 -2.7008 -0.4476  2.1983
  969MOL0     H30771   2.731   6.160   9.500  1.0342 -1.2241 -0.5505
  969MOL0     H30772   2.779   6.127   9.333 -0.4815 -1.5847  1.2228
  969MOL0     H30773   2.690   6.355   9.267 -3.1948  2.5517 -0.5617
  969MOL0     H30774   2.640   6.380   9.436 -1.2862 -2.2519  1.8671
  969MOL0     H30775   2.473   6.492   9.298 -1.0885  1.4069 -1.2802
  969MOL0     H30776   2.185   6.674   9.329  0.1460  0.1331  0.8947
  969MOL0     H30777   2.345   6.676   9.256 -0.2415  0.5746  1.9381
  969MOL0     H30778   2.212   6.654   9.155  0.6087  1.3557  0.3048
  969MOL0     H30779   1.781   6.114   9.353  2.0298  1.5294 -0.1948
  969MOL0     H30780   1.535   6.108   9.404  3.2025 -0.7519  4.8291
  969MOL0     H30781   1.263   6.487   9.376  1.7153  2.3776 -2.1771
  969MOL0     H30782   1.322   6.417   9.231  0.7511  0.0287  0.2043
  969MOL0     H30783   1.179   6.217   9.278  0.2103  0.7612 -1.0059
  969MOL0     H30784   1.096   6.313   9.405  1.5060 -0.8735  0.3229
  969MOL0     H30785   1.091   6.363   9.108 -2.1289 -0.3514 -1.0788
  969MOL0     H30786   1.071   6.497   9.222  2.1319 -0.6614  2.1331
  969MOL0     H30787   0.903   6.237   9.205 -0.5770  0.1012  0.7481
  969MOL0     H30788   0.898   6.330   9.346 -0.2355 -1.9075  0.1964
  969MOL0     H30789   0.814   6.450   9.082 -1.6432  0.8178  0.4559
  969MOL0     H30790   0.810   6.519   9.241 -0.2609 -0.7472  0.5600
  969MOL0     H30791   0.643   6.271   9.151 -0.3254  0.4722 -2.4471
  969MOL0     H30792   0.661   6.336   9.310  1.1723 -1.1089  0.4944
  969MOL0     H30793   0.558   6.545   9.264  1.1713  1.9068 -0.9092
  969MOL0     H30794   0.449   6.422   9.208  0.2964  0.0565  3.2053
  969MOL0     H30795   0.528   6.460   8.965  0.0978  0.7816 -0.5673
  969MOL0     H30796   0.627   6.582   9.010  1.5913 -1.1244  0.2216
  969MOL0     H30797   1.524   6.536   9.358  2.7065  1.3899 -3.2448
  969MOL0     H30798   1.753   6.539   9.327 -0.8354  1.3071  1.5986
  969MOL0     H30799   2.102   6.166   9.302  0.8729 -1.0141  1.1704
  969MOL0     H30800   2.321   6.093   9.337 -1.1818 -0.6633  2.2192
  969MOL0     H30801   3.850   5.972   8.727  1.1729 -1.8935  0.1695
  969MOL0     H30802   4.064   5.934   8.615  0.4291 -0.4380 -2.3339
  969MOL0     H30803   4.571   6.130   8.755 -2.3899 -1.4816 -0.5677
  969MOL0     H30804   4.797   6.109   8.668 -1.9850  0.2458  0.9563
  969MOL0     H30805   4.977   6.077   8.554 -0.7215 -0.8543  1.5822
  969MOL0     H30806   4.941   5.906   8.548 -1.3712  2.3779  1.2535
  969MOL0     H30807   5.102   6.067   8.337 -2.2001 -0.6467 -1.9232
  969MOL0     H30808   5.047   5.913   8.310  2.4036 -0.3171 -1.3730
  969MOL0     H30809   5.156   5.832   8.528  0.0459 -0.1275  0.6906
  969MOL0     H30810   5.232   5.989   8.538  0.5773  1.6784 -2.5923
  969MOL0     H30811   5.323   5.942   8.300  0.2356 -1.3981 -1.3644
  969MOL0     H30812   5.286   5.772   8.336 -0.0316 -0.3687  0.3193
  969MOL0     H30813   5.654   5.874   8.535  1.0835 -0.0332 -2.3946
  969MOL0     H30814   4.635   6.006   8.280 -1.0463  1.6574 -0.9726
  969MOL0     H30815   4.404   6.052   8.383 -1.5175  3.4641  0.5800
  970MOL0     O30816  10.757   7.995   4.868  0.0076 -0.5605  0.3640
  970MOL0     C30817  10.717   8.004   4.752 -0.0507 -0.2235  0.7645
  970MOL0     O30818  10.581   8.000   4.718  0.1417 -0.5668  0.6129
  970MOL0     C30819  10.486   7.983   4.823  0.5331  0.3849 -0.5673
  970MOL0     C30820  10.484   8.079   4.924  0.3501  0.3424  0.1512
  970MOL0     C30821  10.399   8.070   5.030  1.4046 -1.3023  0.0195
  970MOL0     C30822  10.293   7.974   5.030 -1.2382  0.2870 -0.4888
  970MOL0     O30823  10.206   7.960   5.137  0.1947  0.1867  0.2177
  970MOL0     C30824  10.144   8.084   5.171 -0.3035 -0.1066 -0.4062
  970MOL0     C30825   9.998   8.058   5.206 -0.1761  0.3129 -0.1030
  970MOL0     C30826   9.992   7.974   5.339 -1.1342  0.1878  0.8300
  970MOL0     C30827   9.877   7.874   5.338 -0.5036  1.1490  0.3881
  970MOL0     C30828   9.922   7.751   5.418  0.0879  0.8005  0.1479
  970MOL0     C30829   9.810   7.671   5.464  0.2351  0.0864 -0.6652
  970MOL0     C30830   9.862   7.551   5.562  0.4641 -0.3763  0.6159
  970MOL0     C30831   9.745   7.479   5.636  0.0863 -0.3591 -0.6794
  970MOL0     N30832   9.659   7.560   5.730  0.0050  0.5367 -0.5602
  970MOL0     C30833   9.525   7.552   5.728 -0.1016  0.1296  0.6340
  970MOL0     C30834   9.486   7.643   5.821 -0.1716  0.0935  0.8792
  970MOL0     C30835   9.348   7.676   5.838  0.2377 -0.0026 -0.6705
  970MOL0     C30836   9.258   7.581   5.911 -0.3230 -0.1126  0.0495
  970MOL0     C30837   9.113   7.620   5.889 -0.9509  0.3129  0.7426
  970MOL0     C30838   9.007   7.512   5.950 -0.8522  0.7798  0.3319
  970MOL0     O30839   8.945   7.574   6.065 -0.6337 -0.0133  0.0805
  970MOL0     C30840   8.809   7.600   6.074 -0.3354  0.7495 -0.0064
  970MOL0     C30841   8.764   7.629   6.211  0.4138  0.1674  0.5078
  970MOL0     C30842   8.629   7.628   6.246  0.1712  0.2038 -0.1879
  970MOL0     C30843   8.599   7.652   6.393 -0.9852  0.0465  0.2525
  970MOL0     C30844   8.528   7.608   6.147 -0.2353 -0.0132  0.4475
  970MOL0     C30845   8.383   7.634   6.168 -0.4110  0.2261  0.0509
  970MOL0     O30846   8.306   7.528   6.184  0.2803  0.0887  0.3119
  970MOL0     C30847   8.174   7.542   6.215  0.0117 -0.1537 -0.6424
  970MOL0     C30848   8.139   7.599   6.342  0.8086  0.0773  0.0079
  970MOL0     C30849   8.004   7.603   6.384 -0.6839  0.5359 -0.1613
  970MOL0     C30850   7.902   7.558   6.303 -0.1579 -0.9491  0.5164
  970MOL0     O30851   7.775   7.572   6.358  0.0769  0.3617  0.7699
  970MOL0     C30852   7.666   7.558   6.274  0.0819  0.4456  0.0989
  970MOL0     C30853   7.546   7.615   6.351 -0.3680 -0.5671  0.4875
  970MOL0     C30854   7.419   7.578   6.275 -0.3020 -0.4217 -0.1830
  970MOL0     C30855   7.290   7.620   6.343  0.7573  0.4238 -0.3100
  970MOL0     C30856   7.167   7.607   6.250  0.0506 -0.2783  0.1044
  970MOL0     C30857   7.030   7.638   6.304 -0.4355  0.9929  0.2006
  970MOL0     C30858   7.014   7.786   6.352 -0.5428  0.2807 -0.0760
  970MOL0     C30859   6.866   7.809   6.389 -0.1918  0.5600  0.5427
  970MOL0    Cl30860   6.771   7.848   6.248  0.1770  0.1254  0.0789
  970MOL0     C30861   7.931   7.499   6.183  0.0493 -0.2954 -0.1001
  970MOL0     C30862   8.065   7.498   6.138 -0.2891  0.1409  0.3296
  970MOL0     O30863   8.342   7.748   6.164 -0.7206 -0.5909  0.1880
  970MOL0     C30864   8.570   7.568   6.019  0.1672 -0.0099 -0.3436
  970MOL0     C30865   8.707   7.560   5.983 -0.4139 -0.4626  0.5677
  970MOL0     N30866   9.597   7.702   5.871  0.4463 -0.2126 -0.7822
  970MOL0     N30867   9.704   7.644   5.830  0.1229 -0.6733  0.0267
  970MOL0     C30868  10.300   7.869   4.939  0.0742 -0.0481  0.5722
  970MOL0     C30869  10.399   7.874   4.837  0.8008  0.1464 -0.1542
  970MOL0     C30870  10.816   8.036   4.647  1.4811 -0.4029  0.3519
  970MOL0     C30871  10.772   8.036   4.514  0.6131 -0.1708  0.7785
  970MOL0     C30872  10.865   8.066   4.405 -0.6195  0.0605 -0.1778
  970MOL0     C30873  11.003   8.076   4.434  0.1591 -0.1508  0.2878
  970MOL0     O30874  11.078   8.084   4.322 -0.4096 -0.5949  0.0055
  970MOL0     C30875  11.206   8.151   4.326  0.0482  0.0004 -0.2437
  970MOL0     C30876  11.294   8.086   4.216 -0.9243  1.1032  0.1149
  970MOL0     C30877  11.437   8.141   4.212  0.9473  0.0615 -0.1160
  970MOL0     C30878  11.535   8.123   4.332  1.4301 -0.3315  0.2275
  970MOL0     C30879  11.516   7.992   4.400  0.0649 -0.0460 -0.3796
  970MOL0     C30880  11.493   7.889   4.456  0.3121 -0.5041 -1.1951
  970MOL0     C30881  11.047   8.065   4.570 -0.1406  0.4476  0.6354
  970MOL0     C30882  10.952   8.045   4.673  0.5411 -0.2553 -0.1330
  970MOL0     H30883  10.542   8.166   4.894 -2.5321  1.8030 -1.6626
  970MOL0     H30884  10.403   8.146   5.107  1.7004 -0.6196 -0.6503
  970MOL0     H30885  10.195   8.134   5.253 -0.7951  0.5580 -0.4915
  970MOL0     H30886  10.151   8.150   5.084 -0.1069 -0.3948 -0.6137
  970MOL0     H30887   9.935   8.146   5.220  1.1290  0.9753  2.1804
  970MOL0     H30888   9.961   7.999   5.122 -0.7059  1.9540 -1.0553
  970MOL0     H30889  10.085   7.920   5.357 -0.3022  1.9087  2.0403
  970MOL0     H30890   9.970   8.044   5.420  0.1847  1.1864  0.3629
  970MOL0     H30891   9.787   7.921   5.379 -0.8451  0.4267  0.4838
  970MOL0     H30892   9.854   7.849   5.234  5.4653 -0.4728 -0.9513
  970MOL0     H30893   9.979   7.680   5.356 -1.5257  0.5822 -1.1806
  970MOL0     H30894   9.977   7.795   5.501  0.5963 -0.8381  0.7171
  970MOL0     H30895   9.743   7.739   5.517 -0.1899 -0.4569 -0.4868
  970MOL0     H30896   9.748   7.630   5.384  2.0240  0.7612 -2.4823
  970MOL0     H30897   9.909   7.474   5.500 -0.1959 -0.7053  0.5116
  970MOL0     H30898   9.927   7.598   5.636 -0.2635  0.0470  0.9952
  970MOL0     H30899   9.786   7.393   5.690  0.0827 -0.1680 -0.3714
  970MOL0     H30900   9.683   7.440   5.555  0.9847  0.9231 -2.0367
  970MOL0     H30901   9.466   7.493   5.658  2.0526 -0.2488 -0.9675
  970MOL0     H30902   9.338   7.774   5.887 -0.4395 -0.9037  1.0579
  970MOL0     H30903   9.312   7.698   5.737 -0.0938 -1.0077 -0.7765
  970MOL0     H30904   9.283   7.591   6.017 -2.1916  0.1973  0.4947
  970MOL0     H30905   9.271   7.477   5.879 -1.6787 -0.4915  0.6449
  970MOL0     H30906   9.103   7.625   5.780 -2.6116 -0.3289  0.8384
  970MOL0     H30907   9.093   7.722   5.924  0.9585 -0.4294  4.4736
  970MOL0     H30908   9.068   7.428   5.986  0.5261  1.3528 -0.5767
  970MOL0     H30909   8.944   7.481   5.865  1.1529 -2.7347 -0.0640
  970MOL0     H30910   8.845   7.649   6.282  1.7355 -3.2498  0.1598
  970MOL0     H30911   8.495   7.685   6.398 -1.4548 -0.9219 -1.8550
  970MOL0     H30912   8.602   7.558   6.449 -3.4048  0.4068  1.0860
  970MOL0     H30913   8.673   7.718   6.439  1.7408 -3.9570  2.2930
  970MOL0     H30914   8.222   7.624   6.408  0.3606  3.2655 -0.4697
  970MOL0     H30915   7.973   7.636   6.483 -0.4931 -0.4606  0.2453
  970MOL0     H30916   7.690   7.608   6.179  1.0708  0.8478  0.5525
  970MOL0     H30917   7.636   7.453   6.268 -0.1264  0.4448  1.0111
  970MOL0     H30918   7.562   7.587   6.456  1.8156  2.2921  1.0221
  970MOL0     H30919   7.559   7.723   6.354 -0.1925 -0.5639 -0.1933
  970MOL0     H30920   7.412   7.471   6.256 -0.2679 -0.8206  1.8434
  970MOL0     H30921   7.421   7.625   6.176  1.3907 -0.2940 -0.1269
  970MOL0     H30922   7.266   7.561   6.432 -1.1220  2.3145  0.5041
  970MOL0     H30923   7.293   7.723   6.378 -0.3699 -0.2940  2.0604
  970MOL0     H30924   7.162   7.501   6.220 -1.3150  0.3092 -1.9313
  970MOL0     H30925   7.183   7.667   6.160  0.4877 -0.8704 -0.2239
  970MOL0     H30926   6.972   7.608   6.215  2.0943 -0.8819 -0.9499
  970MOL0     H30927   7.013   7.571   6.389  0.7094  0.6324  0.1575
  970MOL0     H30928   7.060   7.853   6.280 -0.1120 -1.0440 -1.0638
  970MOL0     H30929   7.073   7.793   6.444 -0.8865 -1.8601  0.3653
  970MOL0     H30930   6.860   7.895   6.456 -0.1172  2.0869 -1.3167
  970MOL0     H30931   6.831   7.719   6.440 -0.8402  2.1220  3.0613
  970MOL0     H30932   7.848   7.458   6.125 -1.2590  1.0751  0.7149
  970MOL0     H30933   8.092   7.454   6.042 -0.8343  1.7473 -0.5894
  970MOL0     H30934   8.497   7.546   5.942  2.1188 -2.4558 -1.6397
  970MOL0     H30935   8.728   7.516   5.886 -0.7997 -1.3106  0.8665
  970MOL0     H30936  10.241   7.779   4.927  0.4581 -0.5086  1.8886
  970MOL0     H30937  10.388   7.802   4.757  0.8101 -0.8030  0.6749
  970MOL0     H30938  10.669   8.015   4.488  0.1484 -0.9032  2.9547
  970MOL0     H30939  10.833   8.061   4.302  0.9519  1.1845 -0.7513
  970MOL0     H30940  11.195   8.260   4.318  2.9274  0.5628  1.8795
  970MOL0     H30941  11.245   8.136   4.427  2.1502  1.0804 -0.8532
  970MOL0     H30942  11.254   8.117   4.118  0.3253  1.2068 -0.3719
  970MOL0     H30943  11.285   7.977   4.217 -2.8817  1.1604 -2.0585
  970MOL0     H30944  11.436   8.248   4.189 -1.6883  0.5338  1.7618
  970MOL0     H30945  11.473   8.099   4.118 -0.6639  0.2618 -0.8550
  970MOL0     H30946  11.509   8.201   4.405  2.3931 -1.0420  1.3844
  970MOL0     H30947  11.640   8.140   4.305  2.0714  1.4018  3.2611
  970MOL0     H30948  11.466   7.795   4.499  0.6462 -0.4056 -0.7634
  970MOL0     H30949  11.153   8.064   4.594 -0.1256  0.2530  0.5637
  970MOL0     H30950  10.993   8.041   4.773  1.9482  4.5053 -0.2759
  971MOL0     O30951   6.289   1.113   8.944  0.0216 -0.1912  0.1025
  971MOL0     C30952   6.296   1.065   9.057 -0.2535 -0.1259 -0.2121
  971MOL0     O30953   6.196   1.065   9.150  0.0938  0.1974  0.1540
  971MOL0     C30954   6.077   1.115   9.102 -1.0881  0.2620 -0.2885
  971MOL0     C30955   5.965   1.035   9.076 -0.0950 -0.0874  0.5170
  971MOL0     C30956   5.851   1.099   9.028 -0.1327  0.2386 -0.0442
  971MOL0     C30957   5.839   1.242   9.013 -0.5440  0.8426  0.1755
  971MOL0     O30958   5.741   1.301   8.942 -0.0845 -0.0175  0.5365
  971MOL0     C30959   5.606   1.294   9.011 -0.4751 -0.2704 -0.3108
  971MOL0     C30960   5.529   1.412   8.964  0.6583  0.5025 -0.2023
  971MOL0     C30961   5.394   1.415   9.035  0.0357  0.8322 -0.0418
  971MOL0     C30962   5.325   1.537   8.996  0.3451  0.1174 -0.0367
  971MOL0     C30963   5.168   1.520   8.996  0.4897 -0.8925  0.5939
  971MOL0     C30964   5.100   1.659   8.985  0.1898  0.4621  1.0152
  971MOL0     C30965   4.953   1.654   9.014  0.0167  0.4367 -0.2016
  971MOL0     C30966   4.906   1.656   9.166  0.1204  0.7954 -0.1094
  971MOL0     N30967   4.780   1.718   9.176  0.6243 -0.2488 -0.2800
  971MOL0     C30968   4.668   1.666   9.237  0.2988 -0.0081  0.4629
  971MOL0     C30969   4.568   1.762   9.225 -0.3348  0.2741  0.1562
  971MOL0     C30970   4.424   1.758   9.268 -0.4288 -0.1443 -0.3895
  971MOL0     C30971   4.343   1.676   9.161  0.4491  0.0531 -0.5035
  971MOL0     C30972   4.196   1.641   9.207  0.1726 -0.4837  0.2588
  971MOL0     C30973   4.096   1.714   9.120 -0.3736 -0.3309  0.0928
  971MOL0     O30974   4.107   1.854   9.114 -0.0543  0.3663 -0.1157
  971MOL0     C30975   4.114   1.931   9.224 -0.1880  0.2644  0.3128
  971MOL0     C30976   4.164   2.060   9.204 -0.4725  0.1941  0.1950
  971MOL0     C30977   4.179   2.135   9.321 -0.4546 -0.0220  0.6101
  971MOL0     C30978   4.264   2.274   9.299  0.2135  0.3428  0.2830
  971MOL0     C30979   4.121   2.106   9.448  0.6914  0.9237 -0.9755
  971MOL0     C30980   4.137   2.190   9.579 -0.0846 -0.3054  0.3298
  971MOL0     O30981   4.066   2.148   9.686  0.2458  0.7950  0.0854
  971MOL0     C30982   4.098   2.200   9.808  0.5282  0.3743  0.0433
  971MOL0     C30983   4.079   2.339   9.836 -0.3468  1.6333 -0.1365
  971MOL0     C30984   4.112   2.383   9.967  0.0135 -0.0600  0.3575
  971MOL0     C30985   4.152   2.304  10.075 -0.0913 -0.7931 -0.1738
  971MOL0     O30986   4.172   2.363  10.198 -0.2698  0.1909 -0.2555
  971MOL0     C30987   4.193   2.274  10.319 -0.6032 -0.2090  1.2127
  971MOL0     C30988   4.201   2.358  10.441  0.7448  0.2249  0.3825
  971MOL0     C30989   4.062   2.416  10.471  0.2280  0.7752 -0.3068
  971MOL0     C30990   4.006   2.348  10.586  0.0940 -0.5867 -0.0902
  971MOL0     C30991   3.867   2.394  10.638 -0.7077  0.0913  0.3209
  971MOL0     C30992   3.756   2.319  10.563 -0.4458 -1.1431  0.2980
  971MOL0     C30993   3.620   2.361  10.608 -0.2550  0.2185  0.5616
  971MOL0     C30994   3.590   2.303  10.747  1.0474  0.2636  0.3157
  971MOL0    Cl30995   3.421   2.297  10.770  0.4010  0.3880 -0.4878
  971MOL0     C30996   4.184   2.172  10.044 -0.9396  0.0232 -0.1247
  971MOL0     C30997   4.158   2.126   9.912  0.1883 -0.2089 -0.3919
  971MOL0     O30998   4.222   2.274   9.585 -1.0153  0.4577  0.0676
  971MOL0     C30999   4.062   1.981   9.458 -0.3158 -0.7598  0.2955
  971MOL0     C31000   4.064   1.892   9.351  0.6118  0.4042  0.1296
  971MOL0     N31001   4.632   1.868   9.163  0.5432 -0.0590  0.1985
  971MOL0     N31002   4.752   1.843   9.132  0.7044 -0.3327 -0.8885
  971MOL0     C31003   5.952   1.317   9.046 -0.1360 -0.1747 -0.3118
  971MOL0     C31004   6.067   1.255   9.092  0.6151 -0.3023  0.4393
  971MOL0     C31005   6.429   1.007   9.089  0.2439  0.8798  0.5238
  971MOL0     C31006   6.448   0.961   9.217 -0.5234  0.7074  0.3701
  971MOL0     C31007   6.562   0.882   9.251 -0.5807 -1.5119  0.6263
  971MOL0     C31008   6.668   0.860   9.159  0.1454 -0.8235  0.3423
  971MOL0     O31009   6.788   0.796   9.186  0.6401  0.0366  1.0590
  971MOL0     C31010   6.808   0.770   9.325  0.1914  0.0155  0.9039
  971MOL0     C31011   6.936   0.690   9.349  0.4179 -0.8370  0.0317
  971MOL0     C31012   7.071   0.760   9.339 -0.3649 -0.4972 -0.2517
  971MOL0     C31013   7.140   0.752   9.196  0.8112 -0.2387 -0.1843
  971MOL0     C31014   7.065   0.842   9.098  0.3194  0.3958  0.2986
  971MOL0     C31015   7.012   0.909   9.012 -0.9225  0.5626 -0.0012
  971MOL0     C31016   6.647   0.917   9.033 -0.3549  0.5840  0.3949
  971MOL0     C31017   6.531   0.987   8.993  0.1352  1.0811  0.6222
  971MOL0     H31018   5.960   0.926   9.076 -2.9707 -0.0566 -1.0098
  971MOL0     H31019   5.773   1.038   8.984 -0.5883 -1.1773  2.5493
  971MOL0     H31020   5.548   1.205   8.987 -0.1543 -0.5625 -0.0020
  971MOL0     H31021   5.628   1.289   9.118 -1.1147  0.3397 -0.1403
  971MOL0     H31022   5.582   1.507   8.973 -0.7151  1.4393 -1.4019
  971MOL0     H31023   5.507   1.403   8.857  0.4747 -3.8584  0.0502
  971MOL0     H31024   5.337   1.329   8.997 -0.2297  0.4189  1.2237
  971MOL0     H31025   5.404   1.386   9.141 -0.9211 -1.8481 -0.5909
  971MOL0     H31026   5.351   1.604   9.079  0.4452  0.6765 -0.5076
  971MOL0     H31027   5.364   1.583   8.905  0.8103 -0.1468  0.0280
  971MOL0     H31028   5.143   1.463   8.906  2.4721  3.8037 -3.3371
  971MOL0     H31029   5.141   1.473   9.091 -0.3251 -1.2085  0.2191
  971MOL0     H31030   5.149   1.731   9.051  1.2212  0.3023  0.4359
  971MOL0     H31031   5.111   1.696   8.883 -1.7693  0.2244  0.6746
  971MOL0     H31032   4.901   1.737   8.966 -0.5814  0.0039 -0.3088
  971MOL0     H31033   4.907   1.565   8.970 -0.0453  0.0495  0.6152
  971MOL0     H31034   4.986   1.709   9.220 -0.7629  2.0807 -0.0371
  971MOL0     H31035   4.907   1.555   9.208  0.6413 -0.4962 -2.9680
  971MOL0     H31036   4.660   1.568   9.281  1.5876 -0.2896  0.0964
  971MOL0     H31037   4.430   1.707   9.364  0.4028 -1.3780 -1.0651
  971MOL0     H31038   4.387   1.859   9.288 -1.4228 -0.5120 -0.3487
  971MOL0     H31039   4.396   1.581   9.151  0.4660 -0.0300  0.2621
  971MOL0     H31040   4.336   1.719   9.061 -0.0269 -0.6401 -0.7745
  971MOL0     H31041   4.185   1.663   9.314  3.2477 -0.3666  0.6250
  971MOL0     H31042   4.183   1.534   9.188  0.6086 -0.0166 -3.2820
  971MOL0     H31043   3.996   1.685   9.153 -0.9716  3.2248  1.9052
  971MOL0     H31044   4.109   1.672   9.020  0.8331  1.4556 -0.5447
  971MOL0     H31045   4.201   2.099   9.110 -1.2532 -0.8043 -0.5554
  971MOL0     H31046   4.198   2.356   9.328 -0.3008 -0.4709  1.4823
  971MOL0     H31047   4.362   2.280   9.347  1.0125  3.9935 -1.4875
  971MOL0     H31048   4.290   2.283   9.193 -1.5923  0.4752 -0.1851
  971MOL0     H31049   4.044   2.399   9.752  0.6388  1.1460 -0.9155
  971MOL0     H31050   4.108   2.491   9.976  0.8563 -0.0519  0.6291
  971MOL0     H31051   4.123   2.190  10.317 -1.3392  0.3545 -1.9251
  971MOL0     H31052   4.290   2.225  10.303 -0.0603  1.4201 -1.1940
  971MOL0     H31053   4.226   2.291  10.523 -0.8067 -1.3166 -0.3292
  971MOL0     H31054   4.274   2.439  10.445 -1.1776  2.1650 -0.8998
  971MOL0     H31055   3.992   2.410  10.387 -0.3293 -0.1963  0.2064
  971MOL0     H31056   4.065   2.521  10.503 -1.0777  1.2290 -1.5544
  971MOL0     H31057   4.017   2.244  10.554  4.7504  0.1130 -1.5628
  971MOL0     H31058   4.074   2.375  10.667 -1.4040 -1.4847  1.5369
  971MOL0     H31059   3.854   2.502  10.630 -0.4827  0.0389 -1.0125
  971MOL0     H31060   3.867   2.369  10.744  1.1734 -1.4308  0.0183
  971MOL0     H31061   3.763   2.355  10.460 -1.0772 -0.5224  0.4634
  971MOL0     H31062   3.771   2.211  10.564 -0.9967 -1.2296  1.7092
  971MOL0     H31063   3.545   2.320  10.539  0.1433  2.4385 -1.3216
  971MOL0     H31064   3.617   2.470  10.611 -0.9931  0.1856  1.4253
  971MOL0     H31065   3.632   2.367  10.826  0.7000 -2.0399  2.4900
  971MOL0     H31066   3.629   2.202  10.759 -1.8421 -1.1037 -0.9766
  971MOL0     H31067   4.230   2.103  10.114  0.7431  1.6830  0.4773
  971MOL0     H31068   4.180   2.020   9.901 -0.1149 -0.0213 -3.5959
  971MOL0     H31069   4.011   1.944   9.547 -1.9269  0.8366  0.0973
  971MOL0     H31070   4.022   1.796   9.380 -0.7463  1.4608  1.8875
  971MOL0     H31071   5.953   1.424   9.032  0.2344 -0.2375 -0.7643
  971MOL0     H31072   6.150   1.322   9.115  0.2294  0.1070  0.6573
  971MOL0     H31073   6.386   0.997   9.299 -0.3567  0.0984  0.7719
  971MOL0     H31074   6.568   0.845   9.353 -0.2618 -3.1351  0.0472
  971MOL0     H31075   6.815   0.867   9.375  2.0936 -0.2961  1.3053
  971MOL0     H31076   6.721   0.712   9.358 -2.3403  3.5728  1.0534
  971MOL0     H31077   6.945   0.608   9.277  1.1801 -0.8046  0.0831
  971MOL0     H31078   6.924   0.638   9.444  2.8194 -2.4494 -0.4774
  971MOL0     H31079   7.133   0.706   9.412  0.5419 -2.1351 -2.1391
  971MOL0     H31080   7.046   0.861   9.373 -1.2041 -0.8559  0.2190
  971MOL0     H31081   7.144   0.647   9.167 -1.9855 -0.8277  1.2215
  971MOL0     H31082   7.237   0.800   9.186  0.4574  1.4941  3.1809
  971MOL0     H31083   6.970   0.965   8.932 -0.2345 -0.2268 -0.9452
  971MOL0     H31084   6.726   0.917   8.959  0.5153  0.1627  1.2937
  971MOL0     H31085   6.527   1.008   8.887  1.0334 -1.3467  0.0330
  972MOL0     O31086   7.359   6.425  11.206 -0.3175  0.4467  0.0992
  972MOL0     C31087   7.378   6.543  11.217  0.4032 -0.2380 -0.4700
  972MOL0     O31088   7.288   6.635  11.247  0.2343 -0.5732  0.2673
  972MOL0     C31089   7.154   6.609  11.264 -0.4236 -0.1585  0.2192
  972MOL0     C31090   7.073   6.536  11.174  0.6701  0.8257  0.4515
  972MOL0     C31091   6.937   6.506  11.199  0.0481 -0.5790  0.1212
  972MOL0     C31092   6.885   6.553  11.325 -0.1142 -0.2302  0.0075
  972MOL0     O31093   6.760   6.522  11.376  0.0827  0.3622  0.0706
  972MOL0     C31094   6.665   6.472  11.279 -0.1716  0.3415  0.4504
  972MOL0     C31095   6.531   6.418  11.336 -0.1046 -0.0791 -0.1728
  972MOL0     C31096   6.446   6.355  11.227  0.7259  0.2899 -0.2799
  972MOL0     C31097   6.312   6.313  11.284 -0.8524 -0.5773  0.2785
  972MOL0     C31098   6.203   6.328  11.185 -0.5763  0.4654  0.2311
  972MOL0     C31099   6.067   6.318  11.250 -0.3413 -0.7471 -0.0417
  972MOL0     C31100   5.951   6.281  11.163 -0.8663  0.2767 -0.0358
  972MOL0     C31101   5.848   6.202  11.247  0.7239 -0.3381 -0.0930
  972MOL0     N31102   5.722   6.206  11.173  0.0435 -0.2364  0.3593
  972MOL0     C31103   5.690   6.133  11.057  0.0132 -0.8195  0.4051
  972MOL0     C31104   5.549   6.150  11.030  0.0883 -0.4371 -1.1291
  972MOL0     C31105   5.451   6.072  10.947 -1.3791  0.5086  1.0949
  972MOL0     C31106   5.317   6.043  11.011  0.5175 -0.1882  0.0999
  972MOL0     C31107   5.245   5.927  10.934 -0.2787 -0.9618 -0.7608
  972MOL0     C31108   5.118   5.895  11.015  0.4361 -0.2836 -0.3129
  972MOL0     O31109   5.042   6.026  11.034 -1.3082 -0.3482 -0.4668
  972MOL0     C31110   4.911   6.025  11.066 -0.1428 -0.6762  0.0184
  972MOL0     C31111   4.856   6.152  11.073 -0.0140 -0.5381 -0.4100
  972MOL0     C31112   4.721   6.176  11.111  0.1686  0.6580 -0.0051
  972MOL0     C31113   4.676   6.320  11.129 -0.5606 -0.7204 -0.5161
  972MOL0     C31114   4.634   6.060  11.128 -1.3129  0.4452 -0.0422
  972MOL0     C31115   4.492   6.067  11.172 -0.7409 -0.1331 -0.0612
  972MOL0     O31116   4.423   6.184  11.144  0.0052 -0.3454  0.1506
  972MOL0     C31117   4.300   6.182  11.206 -0.4887 -0.1147 -0.0731
  972MOL0     C31118   4.196   6.174  11.112  0.2529 -0.3949 -0.7663
  972MOL0     C31119   4.061   6.172  11.163 -0.2876 -0.8245 -0.0667
  972MOL0     C31120   4.034   6.188  11.304  0.0649 -0.5395 -0.3064
  972MOL0     O31121   3.914   6.199  11.362  0.0953 -0.0810  0.2525
  972MOL0     C31122   3.789   6.172  11.284 -0.2592 -0.6288  0.1326
  972MOL0     C31123   3.656   6.163  11.363 -0.7503  0.1085 -0.2881
  972MOL0     C31124   3.545   6.130  11.265  0.5860  0.2589 -0.4523
  972MOL0     C31125   3.405   6.156  11.326 -0.3238 -0.1478 -0.1756
  972MOL0     C31126   3.302   6.086  11.228  0.0297 -0.9293 -0.4125
  972MOL0     C31127   3.165   6.069  11.291 -0.0151  0.3386  0.8308
  972MOL0     C31128   3.068   5.996  11.200  0.0840 -0.8262 -0.0938
  972MOL0     C31129   2.940   5.999  11.267 -0.1485 -0.1108 -0.1327
  972MOL0    Cl31130   2.817   5.971  11.144  0.5312  0.2437 -0.1226
  972MOL0     C31131   4.147   6.194  11.392 -0.2117  0.2814  0.0340
  972MOL0     C31132   4.277   6.185  11.342 -0.8980  0.7070  1.0031
  972MOL0     O31133   4.446   5.974  11.231 -0.3573  0.0627 -0.2395
  972MOL0     C31134   4.698   5.931  11.129  0.8068 -0.6049 -0.6946
  972MOL0     C31135   4.830   5.915  11.092 -0.4677 -0.6761  0.2720
  972MOL0     N31136   5.505   6.246  11.124 -0.5589 -0.9740 -0.8119
  972MOL0     N31137   5.607   6.280  11.204  0.4077  0.7529  0.0444
  972MOL0     C31138   6.957   6.631  11.410  0.1671  0.4357 -0.4583
  972MOL0     C31139   7.093   6.661  11.379 -0.2376 -0.0241 -0.2926
  972MOL0     C31140   7.517   6.597  11.211 -0.2648  0.3085  0.4458
  972MOL0     C31141   7.532   6.738  11.228 -0.2828  0.5800  0.2161
  972MOL0     C31142   7.663   6.797  11.223  1.3537 -0.4994 -0.0230
  972MOL0     C31143   7.777   6.717  11.202 -0.5930  0.0244 -0.0371
  972MOL0     O31144   7.909   6.754  11.202 -0.3860 -0.1546 -0.4161
  972MOL0     C31145   7.938   6.881  11.249  0.1438  0.3170 -0.1116
  972MOL0     C31146   8.088   6.900  11.273  0.5666  0.0375 -0.4355
  972MOL0     C31147   8.158   6.782  11.337 -0.9862 -1.3341  0.4359
  972MOL0     C31148   8.303   6.777  11.301 -0.6775  0.2709 -0.8605
  972MOL0     C31149   8.358   6.644  11.351  0.1776  0.1305  0.7197
  972MOL0     C31150   8.391   6.537  11.403  0.6655  0.0727 -0.3405
  972MOL0     C31151   7.756   6.582  11.182 -0.7387  0.4058  0.5003
  972MOL0     C31152   7.626   6.521  11.189 -0.1480  0.2728 -0.2044
  972MOL0     H31153   7.116   6.502  11.080  1.2261 -0.3594  1.1203
  972MOL0     H31154   6.878   6.447  11.129  0.5193  1.6039 -2.2781
  972MOL0     H31155   6.642   6.543  11.199 -0.1487 -0.5013 -0.3246
  972MOL0     H31156   6.714   6.387  11.231 -2.0562 -0.5276 -0.0348
  972MOL0     H31157   6.550   6.350  11.420 -0.8268 -0.6351 -0.4533
  972MOL0     H31158   6.477   6.508  11.369 -0.7738 -0.5818  0.1123
  972MOL0     H31159   6.430   6.427  11.146  1.5667  0.3828 -0.3767
  972MOL0     H31160   6.497   6.267  11.186 -2.0086 -1.0993 -0.9606
  972MOL0     H31161   6.326   6.211  11.320 -0.8568 -1.1669 -1.3044
  972MOL0     H31162   6.295   6.374  11.374 -0.1843 -0.7774  0.5502
  972MOL0     H31163   6.194   6.428  11.141 -0.5986  1.3547  2.1354
  972MOL0     H31164   6.201   6.251  11.108 -1.5319  1.9466 -1.3157
  972MOL0     H31165   6.072   6.245  11.331 -0.0558  0.9106  1.4837
  972MOL0     H31166   6.047   6.414  11.298  1.3166 -0.2098 -0.3508
  972MOL0     H31167   5.918   6.371  11.111  1.7731  1.4013  0.0791
  972MOL0     H31168   5.988   6.212  11.086 -0.3498 -0.2754  0.6897
  972MOL0     H31169   5.841   6.244  11.348  0.1931 -0.5118 -0.0560
  972MOL0     H31170   5.874   6.096  11.248 -3.4153 -1.5110  0.5434
  972MOL0     H31171   5.751   6.059  11.007 -2.3041  0.2046 -4.5520
  972MOL0     H31172   5.427   6.131  10.857  2.6591 -1.2637 -1.3952
  972MOL0     H31173   5.506   5.982  10.921 -0.9624  1.5969 -2.2995
  972MOL0     H31174   5.263   6.139  11.004  5.2272  2.7091 -0.9105
  972MOL0     H31175   5.322   6.021  11.118 -3.0608 -1.1225  0.2041
  972MOL0     H31176   5.302   5.834  10.923  1.0652 -0.1876 -0.5235
  972MOL0     H31177   5.205   5.953  10.836  1.2733  3.9440 -0.3790
  972MOL0     H31178   5.150   5.860  11.114 -0.8427  4.0522  1.8863
  972MOL0     H31179   5.057   5.819  10.967 -0.4758 -1.1779  2.1087
  972MOL0     H31180   4.914   6.240  11.046  0.5573 -0.7865 -0.0066
  972MOL0     H31181   4.603   6.354  11.054  0.3653  0.7420 -0.7907
  972MOL0     H31182   4.638   6.340  11.230 -1.5709  0.4642 -1.1119
  972MOL0     H31183   4.764   6.384  11.116  0.4235 -1.9054  0.1003
  972MOL0     H31184   4.215   6.170  11.005 -0.7465 -1.4528 -0.9192
  972MOL0     H31185   3.981   6.161  11.091 -2.0391 -0.8265  1.7644
  972MOL0     H31186   3.782   6.259  11.218 -1.3397 -1.4271 -0.8354
  972MOL0     H31187   3.791   6.083  11.221 -0.4742  0.3048 -1.2450
  972MOL0     H31188   3.673   6.091  11.443  0.9494  2.0100  1.1878
  972MOL0     H31189   3.644   6.256  11.419 -1.4334  0.0272 -0.2860
  972MOL0     H31190   3.555   6.027  11.229 -0.3384 -0.4260  1.1666
  972MOL0     H31191   3.568   6.193  11.178  1.0055  0.1520 -0.4198
  972MOL0     H31192   3.401   6.110  11.425 -0.8220  1.7202  0.7134
  972MOL0     H31193   3.380   6.262  11.335 -0.9560 -0.4001  1.1994
  972MOL0     H31194   3.336   5.988  11.195  0.8813 -0.2590 -1.6155
  972MOL0     H31195   3.288   6.154  11.143  1.7552  1.3143  0.9852
  972MOL0     H31196   3.196   6.009  11.377  8.8976 -0.1422 -1.6897
  972MOL0     H31197   3.132   6.168  11.321  0.2582  1.1917 -1.4774
  972MOL0     H31198   3.093   5.890  11.185 -0.3951 -1.2056  1.5678
  972MOL0     H31199   3.069   6.054  11.108 -1.1563 -1.0239 -0.2505
  972MOL0     H31200   2.928   6.096  11.316  2.2883  0.2829 -0.1950
  972MOL0     H31201   2.951   5.929  11.350 -1.5101  1.6394  1.6292
  972MOL0     H31202   4.126   6.199  11.498 -0.5291  0.4556 -0.0355
  972MOL0     H31203   4.353   6.191  11.419 -0.6408  0.8942  0.7371
  972MOL0     H31204   4.650   5.835  11.140  2.0937 -0.9948  2.5597
  972MOL0     H31205   4.879   5.818  11.091 -0.5262 -0.7047 -0.5331
  972MOL0     H31206   6.907   6.670  11.498 -2.5626 -1.3626 -1.0918
  972MOL0     H31207   7.159   6.717  11.445  1.6415  1.9674 -3.5476
  972MOL0     H31208   7.444   6.801  11.238 -0.1745  1.4941 -3.1687
  972MOL0     H31209   7.662   6.904  11.241 -2.6422 -0.2366 -0.9155
  972MOL0     H31210   7.911   6.956  11.174  2.3927  1.4425  0.1016
  972MOL0     H31211   7.885   6.908  11.340  2.5996 -0.1707  1.5571
  972MOL0     H31212   8.113   6.993  11.324  2.0401 -0.3384 -0.4253
  972MOL0     H31213   8.136   6.918  11.176 -2.7777  4.7213 -1.5845
  972MOL0     H31214   8.109   6.689  11.308  3.7018 -3.3165 -2.2235
  972MOL0     H31215   8.154   6.788  11.446  0.9341 -5.8702  0.9711
  972MOL0     H31216   8.363   6.858  11.345 -0.5509  1.0452 -2.4083
  972MOL0     H31217   8.315   6.776  11.192 -0.0441 -0.1497 -0.7925
  972MOL0     H31218   8.425   6.442  11.439 -0.5196 -0.0852  0.3979
  972MOL0     H31219   7.845   6.524  11.160 -0.6943 -0.2177  2.1997
  972MOL0     H31220   7.623   6.415  11.164  1.3902 -0.0026  0.6911
  973MOL0     O31221   3.646   1.774   4.154  0.1499  0.3019 -0.1322
  973MOL0     C31222   3.639   1.867   4.238  0.1481 -0.0128 -0.2131
  973MOL0     O31223   3.534   1.898   4.321  0.4956 -0.1496  0.0478
  973MOL0     C31224   3.414   1.826   4.305  0.0742  0.0424 -0.3960
  973MOL0     C31225   3.374   1.749   4.412  0.2717 -0.1277  0.1384
  973MOL0     C31226   3.264   1.664   4.404  0.8851 -0.6571 -0.9927
  973MOL0     C31227   3.198   1.651   4.282  0.1074  0.8992 -0.3186
  973MOL0     O31228   3.094   1.561   4.277 -1.2060 -0.3152 -0.2032
  973MOL0     C31229   2.979   1.610   4.206 -0.6623 -0.4465 -0.7193
  973MOL0     C31230   2.860   1.583   4.293  0.5547 -0.3981 -0.7124
  973MOL0     C31231   2.725   1.601   4.222 -1.0034 -0.1457  0.7462
  973MOL0     C31232   2.621   1.603   4.327 -0.0403 -0.5168 -0.1208
  973MOL0     C31233   2.486   1.632   4.259 -0.1946  0.0820 -0.3871
  973MOL0     C31234   2.364   1.621   4.358  0.4086 -0.0671 -0.2950
  973MOL0     C31235   2.227   1.632   4.279  0.2512 -0.1516 -0.5141
  973MOL0     C31236   2.101   1.627   4.374 -0.6642  0.0645 -0.4068
  973MOL0     N31237   1.988   1.691   4.312 -0.0496 -0.5915 -0.0187
  973MOL0     C31238   1.900   1.774   4.369  0.3344  1.1937  0.3304
  973MOL0     C31239   1.800   1.795   4.279 -0.0266 -0.5794  0.1807
  973MOL0     C31240   1.680   1.875   4.299 -0.2280 -0.4546  0.2153
  973MOL0     C31241   1.662   1.982   4.199 -0.1693  0.7055 -0.7786
  973MOL0     C31242   1.546   2.077   4.237 -0.4487 -0.0428 -0.2148
  973MOL0     C31243   1.522   2.192   4.138 -0.3855 -0.2200 -0.4496
  973MOL0     O31244   1.412   2.274   4.169 -0.1703  0.4584  0.1763
  973MOL0     C31245   1.401   2.384   4.087 -0.4607 -0.3645  0.4682
  973MOL0     C31246   1.454   2.417   3.958 -0.7244  0.2197 -0.5542
  973MOL0     C31247   1.409   2.527   3.889 -0.0260  0.3684 -0.6800
  973MOL0     C31248   1.457   2.534   3.747  0.3057  0.0537  0.0831
  973MOL0     C31249   1.317   2.620   3.942 -0.3271  0.4292  0.2526
  973MOL0     C31250   1.267   2.741   3.864  0.2399 -0.1989 -0.1186
  973MOL0     O31251   1.163   2.808   3.922 -0.5490  0.0229  0.5951
  973MOL0     C31252   1.107   2.919   3.859 -0.1347  0.1963 -0.4413
  973MOL0     C31253   1.072   2.927   3.723  0.5211  0.0028 -0.1009
  973MOL0     C31254   1.044   3.054   3.669  0.4927  0.8386  0.0874
  973MOL0     C31255   1.026   3.169   3.752  0.1127  0.7671  0.3013
  973MOL0     O31256   0.986   3.286   3.699 -0.0324  0.6924 -0.2202
  973MOL0     C31257   0.852   3.328   3.736  0.2749 -1.0814 -0.0605
  973MOL0     C31258   0.839   3.470   3.670  0.5149 -0.7384  0.1990
  973MOL0     C31259   0.716   3.544   3.717 -0.0545  0.9019  0.9511
  973MOL0     C31260   0.584   3.471   3.683 -0.5003 -0.0766  0.1917
  973MOL0     C31261   0.463   3.560   3.721 -0.2766 -0.8933  0.4715
  973MOL0     C31262   0.337   3.537   3.640  0.5724 -0.7292 -0.2717
  973MOL0     C31263   0.225   3.613   3.710 -0.1765  0.3906 -0.1356
  973MOL0     C31264   0.128   3.666   3.602  0.1731  0.1239 -0.2944
  973MOL0    Cl31265   0.063   3.537   3.498 -0.2687  0.2494 -0.0125
  973MOL0     C31266   1.052   3.150   3.888  0.1415  0.9448 -0.2448
  973MOL0     C31267   1.093   3.026   3.944 -0.0528 -0.5016 -0.2203
  973MOL0     O31268   1.327   2.786   3.768 -0.3430 -0.1579 -0.5568
  973MOL0     C31269   1.282   2.598   4.077 -0.7849 -0.1864 -0.9408
  973MOL0     C31270   1.321   2.480   4.145  0.8560 -0.1720  0.4811
  973MOL0     N31271   1.840   1.729   4.164 -0.2773 -0.2915  0.4333
  973MOL0     N31272   1.936   1.652   4.192  0.2381 -0.1355 -0.0370
  973MOL0     C31273   3.244   1.725   4.175 -0.3897 -0.3040  0.5169
  973MOL0     C31274   3.359   1.807   4.175  0.1920 -0.3010 -0.0635
  973MOL0     C31275   3.762   1.949   4.274 -0.2174 -0.5136  0.7978
  973MOL0     C31276   3.889   1.899   4.265 -0.1834 -0.0647  0.8595
  973MOL0     C31277   3.999   1.975   4.295  0.4712  0.5428  0.0928
  973MOL0     C31278   3.992   2.098   4.340 -0.5625  0.1709  0.0051
  973MOL0     O31279   4.110   2.162   4.376 -0.0402  0.0741 -0.8407
  973MOL0     C31280   4.101   2.301   4.394 -0.1151  0.1912 -0.6821
  973MOL0     C31281   4.233   2.373   4.425 -0.0110 -0.3471 -0.7259
  973MOL0     C31282   4.353   2.305   4.373 -0.2290  0.2866  0.4564
  973MOL0     C31283   4.484   2.367   4.433  1.5339  0.1819 -0.3237
  973MOL0     C31284   4.507   2.492   4.359 -0.7426 -0.6119  0.2205
  973MOL0     C31285   4.519   2.593   4.288 -0.2067  0.0487 -0.0516
  973MOL0     C31286   3.867   2.159   4.350 -0.7949  0.5658  0.3015
  973MOL0     C31287   3.754   2.086   4.319  0.3581  0.0981 -0.7329
  973MOL0     H31288   3.421   1.764   4.509 -1.1363  3.4314  0.4097
  973MOL0     H31289   3.230   1.609   4.491  2.1205 -1.0357 -0.7281
  973MOL0     H31290   2.985   1.714   4.175  0.4319 -0.6052 -1.0650
  973MOL0     H31291   2.980   1.544   4.119  0.2778  1.1790 -1.9959
  973MOL0     H31292   2.859   1.478   4.324 -0.8952  0.3732  2.2106
  973MOL0     H31293   2.869   1.643   4.384 -0.5349  0.9528 -1.4564
  973MOL0     H31294   2.731   1.694   4.163 -0.6030  0.1292  1.2120
  973MOL0     H31295   2.708   1.516   4.155  0.7358 -0.3686  0.5355
  973MOL0     H31296   2.613   1.511   4.385 -0.1373 -0.6311 -0.3159
  973MOL0     H31297   2.648   1.687   4.393  0.5617 -0.6119 -0.2389
  973MOL0     H31298   2.486   1.728   4.209 -0.6009  0.4437  0.2925
  973MOL0     H31299   2.462   1.552   4.188  1.1422 -1.0996  0.4259
  973MOL0     H31300   2.372   1.527   4.412  1.4840  0.7339  1.0111
  973MOL0     H31301   2.358   1.699   4.436 -4.7414  0.2204 -0.6687
  973MOL0     H31302   2.232   1.726   4.223 -1.4566 -0.7094 -1.6603
  973MOL0     H31303   2.218   1.551   4.206 -0.3156 -0.4108 -0.1648
  973MOL0     H31304   2.128   1.672   4.470 -0.1950  1.2448 -1.0676
  973MOL0     H31305   2.078   1.522   4.397  2.2570 -0.9890 -1.7514
  973MOL0     H31306   1.924   1.811   4.468 -0.7690  0.9378  0.7124
  973MOL0     H31307   1.605   1.795   4.296  1.4016 -2.0911 -2.9444
  973MOL0     H31308   1.692   1.913   4.400  2.3066 -0.5916  0.0169
  973MOL0     H31309   1.638   1.932   4.104 -2.3934 -0.7967  0.4679
  973MOL0     H31310   1.755   2.039   4.200 -0.8259  1.8181 -1.1387
  973MOL0     H31311   1.566   2.117   4.337 -0.0967  1.7353 -0.9466
  973MOL0     H31312   1.459   2.012   4.249 -0.2778 -0.1673  0.3490
  973MOL0     H31313   1.510   2.140   4.042 -2.0253  0.3444 -0.5757
  973MOL0     H31314   1.618   2.240   4.117 -0.1418 -0.6101 -0.2435
  973MOL0     H31315   1.508   2.338   3.906 -2.7514 -0.1294 -2.2695
  973MOL0     H31316   1.528   2.618   3.741  3.1338 -2.0187  1.8719
  973MOL0     H31317   1.514   2.448   3.712 -0.2399 -0.3299  0.1221
  973MOL0     H31318   1.376   2.550   3.676  0.3247 -0.4376 -0.0496
  973MOL0     H31319   1.089   2.843   3.657  1.0094  0.6514 -0.8153
  973MOL0     H31320   1.022   3.050   3.562 -0.5483  1.1709  0.2828
  973MOL0     H31321   0.780   3.258   3.692  0.3469 -0.3078 -1.4850
  973MOL0     H31322   0.853   3.351   3.843  2.0711  1.7143 -0.5544
  973MOL0     H31323   0.931   3.522   3.698  0.4217 -1.1857  1.4347
  973MOL0     H31324   0.831   3.462   3.561 -1.1835 -0.1702  0.2536
  973MOL0     H31325   0.715   3.638   3.661  0.9161  0.6564  0.5074
  973MOL0     H31326   0.724   3.572   3.822  1.7041  1.9463  0.5668
  973MOL0     H31327   0.580   3.447   3.576 -0.4713 -1.4596  0.4843
  973MOL0     H31328   0.578   3.373   3.732 -0.4233 -0.1690  0.0172
  973MOL0     H31329   0.490   3.664   3.700  3.0730 -2.0189 -1.5929
  973MOL0     H31330   0.457   3.557   3.830 -1.3544  1.2038  0.5293
  973MOL0     H31331   0.342   3.571   3.536 -2.8281 -1.7080 -0.9035
  973MOL0     H31332   0.312   3.431   3.634 -1.7848 -0.1947 -1.2200
  973MOL0     H31333   0.270   3.690   3.775  1.5845 -1.2611  0.7015
  973MOL0     H31334   0.177   3.553   3.788  0.1318 -0.2745 -0.4594
  973MOL0     H31335   0.169   3.751   3.548  2.4391  1.2809  2.9301
  973MOL0     H31336   0.047   3.717   3.655  0.0698 -2.2673  2.0664
  973MOL0     H31337   1.048   3.235   3.955  2.4624  0.1127  1.0572
  973MOL0     H31338   1.095   3.021   4.053  1.8750  0.5942 -0.1700
  973MOL0     H31339   1.219   2.669   4.128  0.0418  0.8107 -1.2647
  973MOL0     H31340   1.268   2.452   4.235  2.0514 -1.4473  0.8411
  973MOL0     H31341   3.189   1.710   4.083 -1.0959 -2.4105  1.2267
  973MOL0     H31342   3.393   1.862   4.089 -2.9028  0.7373 -0.7527
  973MOL0     H31343   3.908   1.796   4.236  0.6579 -0.5460  2.9646
  973MOL0     H31344   4.091   1.918   4.295  1.0276  1.4178 -1.1591
  973MOL0     H31345   4.051   2.335   4.303 -3.7863  1.7390  1.6948
  973MOL0     H31346   4.032   2.326   4.475 -0.2357  0.0389 -0.7390
  973MOL0     H31347   4.249   2.378   4.533  2.1174 -2.7436 -0.8358
  973MOL0     H31348   4.225   2.479   4.397  2.4573  0.0288 -0.2123
  973MOL0     H31349   4.348   2.310   4.264 -0.1065  0.2463  0.4492
  973MOL0     H31350   4.351   2.200   4.406 -0.0298  0.2663  0.4038
  973MOL0     H31351   4.560   2.296   4.399  1.5279 -0.1947  0.4211
  973MOL0     H31352   4.473   2.388   4.540 -0.6322 -1.4622 -0.1623
  973MOL0     H31353   4.544   2.664   4.211  0.5918  0.4213  0.5402
  973MOL0     H31354   3.849   2.265   4.366 -2.7033  0.7925 -2.6053
  973MOL0     H31355   3.650   2.118   4.316  0.4263  0.3875 -0.1064
  974MOL0     O31356   2.920   4.387  10.413 -0.1621  0.2899  0.5691
  974MOL0     C31357   2.856   4.493  10.398  0.6895 -0.4321 -0.2674
  974MOL0     O31358   2.902   4.616  10.417 -0.1748  0.1648  0.4509
  974MOL0     C31359   3.035   4.621  10.449  0.0457 -0.5042  0.4352
  974MOL0     C31360   3.078   4.625  10.585 -0.0555 -0.5228 -0.1306
  974MOL0     C31361   3.214   4.606  10.610 -0.7672  0.4222 -0.3933
  974MOL0     C31362   3.307   4.600  10.506  0.1429  0.2349 -1.0924
  974MOL0     O31363   3.443   4.619  10.528  0.0979 -0.8350 -0.0860
  974MOL0     C31364   3.546   4.581  10.434 -0.4650 -0.1407 -0.2399
  974MOL0     C31365   3.666   4.583  10.522  0.9959  0.7179  0.1885
  974MOL0     C31366   3.788   4.548  10.435 -0.5653 -0.9452 -1.1555
  974MOL0     C31367   3.914   4.584  10.524 -0.2057  0.4378  0.0918
  974MOL0     C31368   4.043   4.522  10.456  0.7587  0.0218 -0.6758
  974MOL0     C31369   4.074   4.599  10.325 -0.5495  0.0901 -0.5631
  974MOL0     C31370   4.229   4.594  10.295  0.7237  0.1696  0.1095
  974MOL0     C31371   4.274   4.683  10.174  1.0230  0.1574  0.1426
  974MOL0     N31372   4.417   4.687  10.144  1.0528  0.0882  0.2808
  974MOL0     C31373   4.490   4.583  10.097  0.0432 -0.2370 -0.2491
  974MOL0     C31374   4.622   4.624  10.097  0.3178 -0.2533  0.0615
  974MOL0     C31375   4.738   4.545  10.056 -0.1148  0.1168 -0.3388
  974MOL0     C31376   4.787   4.582   9.912  0.0844 -0.0006 -0.5222
  974MOL0     C31377   4.709   4.527   9.792  0.4251 -0.2905 -0.0329
  974MOL0     C31378   4.712   4.376   9.772 -0.9940 -0.3922  0.0184
  974MOL0     O31379   4.667   4.291   9.880  1.1175  0.3791 -0.0686
  974MOL0     C31380   4.530   4.293   9.915  0.2586  0.1019 -0.3665
  974MOL0     C31381   4.490   4.202  10.010 -0.2115  0.4318 -0.7417
  974MOL0     C31382   4.369   4.193  10.076  0.2002 -0.4371  1.2968
  974MOL0     C31383   4.364   4.118  10.199  1.0436  0.0128 -0.4983
  974MOL0     C31384   4.268   4.280  10.028 -0.4283  0.1924 -0.8037
  974MOL0     C31385   4.120   4.266  10.059  0.6712  0.1818 -0.3497
  974MOL0     O31386   4.038   4.372  10.012  0.0973  0.2052  0.8692
  974MOL0     C31387   3.899   4.376  10.040 -0.8563 -0.2134  0.1080
  974MOL0     C31388   3.823   4.298  10.127 -0.7992  1.0114 -0.0270
  974MOL0     C31389   3.684   4.307  10.130 -0.0150 -0.1080 -0.0835
  974MOL0     C31390   3.616   4.398  10.041  0.0476 -0.1526 -0.4004
  974MOL0     O31391   3.480   4.414  10.024 -0.0615  0.1657 -0.0055
  974MOL0     C31392   3.402   4.319  10.096  0.1804  0.2970  0.4865
  974MOL0     C31393   3.251   4.349  10.082  0.4710  0.0064 -0.0602
  974MOL0     C31394   3.162   4.287  10.195 -0.0562 -0.3140  0.0588
  974MOL0     C31395   3.078   4.157  10.165 -0.1481  0.7891  0.2745
  974MOL0     C31396   2.951   4.177  10.085  0.4845  0.3754 -0.8020
  974MOL0     C31397   2.866   4.048  10.091 -0.2476 -0.3495  0.0440
  974MOL0     C31398   2.716   4.063  10.065  1.0505  0.7833  0.1671
  974MOL0     C31399   2.642   3.962  10.155 -0.3754 -0.4400 -0.4207
  974MOL0    Cl31400   2.462   3.960  10.133  0.0400  0.1516 -0.0851
  974MOL0     C31401   3.699   4.480   9.961  0.2861  0.0540 -0.4499
  974MOL0     C31402   3.834   4.465   9.958  0.1755  0.2865  0.3743
  974MOL0     O31403   4.079   4.158  10.108 -0.7801 -0.3094 -0.5785
  974MOL0     C31404   4.295   4.369   9.925  1.6694 -0.2282 -0.5156
  974MOL0     C31405   4.422   4.374   9.867  0.6045  0.2662 -0.5154
  974MOL0     N31406   4.620   4.752  10.143 -0.4968 -0.8127  0.1249
  974MOL0     N31407   4.495   4.793  10.160 -0.0448  0.1473  0.1276
  974MOL0     C31408   3.265   4.594  10.371 -0.1546 -0.2202  0.2521
  974MOL0     C31409   3.127   4.609  10.347 -0.3424 -0.4267 -0.0769
  974MOL0     C31410   2.718   4.475  10.339  0.2864 -0.4870  0.4352
  974MOL0     C31411   2.652   4.352  10.342  0.3702  0.2986  0.5477
  974MOL0     C31412   2.525   4.333  10.278  0.7221  0.2466  0.2573
  974MOL0     C31413   2.461   4.440  10.214 -0.1510  0.1090  0.4044
  974MOL0     O31414   2.348   4.423  10.130 -0.1167 -0.6468 -0.3339
  974MOL0     C31415   2.271   4.294  10.132 -0.8791  0.4042 -0.3362
  974MOL0     C31416   2.160   4.301  10.235 -0.2112  0.3387 -0.1499
  974MOL0     C31417   2.074   4.431  10.208  0.4868  0.5636 -0.9708
  974MOL0     C31418   1.973   4.400  10.095 -0.3102 -0.3102  0.0703
  974MOL0     C31419   1.895   4.524  10.073 -0.0724 -0.4658 -0.0717
  974MOL0     C31420   1.819   4.619  10.062 -0.6853  0.0114  1.1847
  974MOL0     C31421   2.520   4.573  10.213 -0.5509  0.5944 -0.8838
  974MOL0     C31422   2.645   4.586  10.287 -0.7426 -0.2608  0.4818
  974MOL0     H31423   3.012   4.636  10.670  3.1490  3.7602  2.1913
  974MOL0     H31424   3.263   4.626  10.705 -1.9618 -0.4542  0.4513
  974MOL0     H31425   3.524   4.483  10.391  0.5904 -0.8954  0.8748
  974MOL0     H31426   3.554   4.656  10.355  1.6863  2.8270  2.5171
  974MOL0     H31427   3.677   4.682  10.567  1.4811  0.4613  0.6459
  974MOL0     H31428   3.648   4.502  10.593 -0.0221 -0.0215 -0.8631
  974MOL0     H31429   3.795   4.439  10.425 -0.1845 -1.2208  1.4058
  974MOL0     H31430   3.789   4.600  10.338  0.9655 -1.5729 -1.5076
  974MOL0     H31431   3.929   4.688  10.555 -0.4325 -0.0756  2.0603
  974MOL0     H31432   3.897   4.531  10.618  0.8225  3.0407  1.8625
  974MOL0     H31433   4.133   4.525  10.517  1.6052 -1.6781 -1.7478
  974MOL0     H31434   4.020   4.418  10.429 -0.7134 -0.0553  0.7555
  974MOL0     H31435   4.025   4.564  10.233 -1.9376  0.6584 -0.0596
  974MOL0     H31436   4.049   4.705  10.330  2.6107  1.0208 -1.8991
  974MOL0     H31437   4.285   4.621  10.386  0.5088  1.6601 -0.1734
  974MOL0     H31438   4.239   4.491  10.261  0.8073 -0.6881  2.5061
  974MOL0     H31439   4.240   4.782  10.204  1.8842  0.2532  0.8508
  974MOL0     H31440   4.223   4.653  10.082  1.2870 -0.3959  0.1709
  974MOL0     H31441   4.443   4.486  10.086 -0.9136  0.1822  0.0704
  974MOL0     H31442   4.821   4.567  10.123  1.2368 -1.0477 -1.5515
  974MOL0     H31443   4.715   4.441  10.079  0.9918  0.1149  0.8698
  974MOL0     H31444   4.894   4.558   9.906  0.1305  0.1933 -0.5053
  974MOL0     H31445   4.779   4.691   9.900  1.8623  0.1723 -0.4161
  974MOL0     H31446   4.744   4.573   9.700  1.1493 -0.3945  0.1837
  974MOL0     H31447   4.606   4.562   9.806  0.6538 -0.0991  1.3971
  974MOL0     H31448   4.818   4.351   9.761 -0.4783  1.3352  0.7490
  974MOL0     H31449   4.660   4.349   9.680 -0.6724 -0.4944 -0.1329
  974MOL0     H31450   4.568   4.138  10.051 -1.2229  1.9919  4.2719
  974MOL0     H31451   4.438   4.159  10.267 -0.5161  0.8463  0.7749
  974MOL0     H31452   4.271   4.146  10.249  0.4878 -0.5191 -1.2077
  974MOL0     H31453   4.375   4.009  10.194  0.1648 -0.0950 -0.3273
  974MOL0     H31454   3.867   4.216  10.184  1.0020  0.9308 -1.4447
  974MOL0     H31455   3.636   4.234  10.194  1.1544 -0.5977  0.2798
  974MOL0     H31456   3.434   4.216  10.079 -0.5272 -0.2526  2.2847
  974MOL0     H31457   3.418   4.352  10.199 -1.4489  3.1366 -0.0685
  974MOL0     H31458   3.236   4.457  10.089 -1.9022 -0.2820  0.1662
  974MOL0     H31459   3.209   4.320   9.986  4.4086 -0.1174 -1.9656
  974MOL0     H31460   3.091   4.369  10.216  0.3205 -0.1013  0.5268
  974MOL0     H31461   3.227   4.267  10.281  3.3113  0.9692 -2.0280
  974MOL0     H31462   3.141   4.091  10.105 -1.0652 -0.2276  0.3948
  974MOL0     H31463   3.066   4.103  10.259  3.7029 -2.5472 -0.8311
  974MOL0     H31464   2.962   4.204   9.979 -1.6324  1.5586 -0.7719
  974MOL0     H31465   2.903   4.263  10.133  1.5105 -0.3765  1.7766
  974MOL0     H31466   2.906   3.986  10.010  1.0818  1.9050 -1.1004
  974MOL0     H31467   2.875   4.007  10.192 -0.6917 -0.3930  0.0694
  974MOL0     H31468   2.690   4.049   9.960 -3.5725  1.7295  0.9391
  974MOL0     H31469   2.693   4.167  10.088 -1.2633  0.4808 -0.4773
  974MOL0     H31470   2.662   3.990  10.259  2.1208 -2.5629 -0.2269
  974MOL0     H31471   2.678   3.862  10.129 -0.7301 -0.1815 -1.9943
  974MOL0     H31472   3.651   4.564   9.912  0.8723  0.3832 -0.4717
  974MOL0     H31473   3.885   4.534   9.891 -0.1837  0.6366  0.4559
  974MOL0     H31474   4.222   4.435   9.878  1.2853  0.8458  1.4858
  974MOL0     H31475   4.438   4.435   9.779  0.4422  0.7839 -0.1948
  974MOL0     H31476   3.333   4.581  10.288  0.6422 -2.3983  1.1510
  974MOL0     H31477   3.084   4.604  10.247 -2.1958  0.4583  0.6237
  974MOL0     H31478   2.694   4.263  10.386  1.4682 -0.6968 -2.3243
  974MOL0     H31479   2.485   4.234  10.297 -2.0404  1.3765  0.7025
  974MOL0     H31480   2.229   4.288  10.031 -2.5722 -0.9119  0.4037
  974MOL0     H31481   2.333   4.210  10.164 -0.2557  1.9904  3.0787
  974MOL0     H31482   2.197   4.299  10.338  0.7492 -0.0262 -0.4867
  974MOL0     H31483   2.100   4.210  10.219  0.5157 -0.2670  0.4808
  974MOL0     H31484   2.137   4.519  10.196 -0.9280  1.8365  0.4751
  974MOL0     H31485   2.008   4.442  10.295  0.6861 -0.5335 -0.6640
  974MOL0     H31486   1.902   4.324  10.128 -0.1286  0.0558  1.3519
  974MOL0     H31487   2.024   4.384   9.999 -0.7741  2.5696 -0.7432
  974MOL0     H31488   1.769   4.713  10.052  0.8861  0.8710  1.0968
  974MOL0     H31489   2.474   4.659  10.167  0.1380  0.8871 -1.0402
  974MOL0     H31490   2.687   4.686  10.297 -1.8025  0.2194  0.2174
  975MOL0     O31491   4.619   2.734   8.281  0.1984  0.4486 -0.9175
  975MOL0     C31492   4.707   2.732   8.192  0.4262  0.0963 -0.2625
  975MOL0     O31493   4.695   2.780   8.065 -0.1422 -0.2639  0.7517
  975MOL0     C31494   4.584   2.851   8.034  0.3432  0.2514  0.9366
  975MOL0     C31495   4.592   2.992   8.009  0.0186 -0.0175  0.1651
  975MOL0     C31496   4.477   3.073   8.005 -0.7978  0.5577 -0.1343
  975MOL0     C31497   4.349   3.025   8.027 -0.2131  0.4270 -0.5939
  975MOL0     O31498   4.240   3.104   8.011  0.5354 -0.9234 -0.0509
  975MOL0     C31499   4.129   3.059   7.935  0.1238 -0.7797  0.7102
  975MOL0     C31500   4.035   3.182   7.927 -0.2493  0.2038 -0.4699
  975MOL0     C31501   3.892   3.159   7.872 -0.2496 -0.3608  0.3890
  975MOL0     C31502   3.788   3.142   7.977  0.4083 -0.5088  0.2291
  975MOL0     C31503   3.645   3.105   7.928  0.0799 -0.7274  0.2055
  975MOL0     C31504   3.550   3.209   7.878  0.6913 -0.3824  0.1235
  975MOL0     C31505   3.408   3.160   7.869  0.0115 -0.1516  0.0778
  975MOL0     C31506   3.323   3.220   7.757 -0.0150 -0.7611  0.1688
  975MOL0     N31507   3.188   3.165   7.731  0.5182 -0.6233 -0.0494
  975MOL0     C31508   3.090   3.242   7.663  0.2085  0.1344 -0.5491
  975MOL0     C31509   2.976   3.162   7.657 -0.3259 -0.3054  0.1898
  975MOL0     C31510   2.867   3.195   7.563  0.3238  0.9703 -0.3723
  975MOL0     C31511   2.733   3.222   7.632 -0.0537  0.7126  0.6174
  975MOL0     C31512   2.624   3.237   7.525 -0.2505 -0.7360 -0.0676
  975MOL0     C31513   2.486   3.260   7.583 -0.2281  0.5617  0.9130
  975MOL0     O31514   2.401   3.310   7.480  0.2707  0.0223  0.7678
  975MOL0     C31515   2.273   3.332   7.519  0.4884 -1.0308  0.0918
  975MOL0     C31516   2.195   3.413   7.438  0.6276 -0.1018 -0.0951
  975MOL0     C31517   2.069   3.457   7.464  0.7102 -0.3120  0.2379
  975MOL0     C31518   1.993   3.531   7.352  0.7044 -0.0759  0.4211
  975MOL0     C31519   1.998   3.405   7.579  0.0945  0.0522 -0.2868
  975MOL0     C31520   1.857   3.447   7.611  0.6644 -0.0013 -0.2205
  975MOL0     O31521   1.806   3.374   7.717  0.3992  0.4491 -0.4115
  975MOL0     C31522   1.671   3.394   7.742 -0.2092 -0.2352  0.0484
  975MOL0     C31523   1.572   3.324   7.675 -0.5787 -1.1372  0.1381
  975MOL0     C31524   1.439   3.329   7.720  0.5247 -0.1444 -1.0402
  975MOL0     C31525   1.405   3.420   7.824  0.3908  0.0254  0.0706
  975MOL0     O31526   1.272   3.430   7.862  0.4749 -0.4581  0.5458
  975MOL0     C31527   1.241   3.479   7.991 -0.2832 -0.4934 -0.4504
  975MOL0     C31528   1.191   3.619   7.988  0.2655  0.0763 -0.1346
  975MOL0     C31529   1.195   3.687   8.125  0.1895  0.1209 -0.0868
  975MOL0     C31530   1.147   3.831   8.114  0.1049 -0.4548 -0.8626
  975MOL0     C31531   1.176   3.899   8.245 -0.5342 -0.4323 -0.7013
  975MOL0     C31532   1.066   4.000   8.273 -0.5119  0.0285 -0.4607
  975MOL0     C31533   1.094   4.092   8.388  0.8434 -0.1972 -0.2187
  975MOL0     C31534   0.972   4.168   8.430  0.6448  0.2815  0.1591
  975MOL0    Cl31535   0.915   4.263   8.296  0.0976  0.4010 -0.3314
  975MOL0     C31536   1.502   3.492   7.890  0.6464  0.5966 -0.7714
  975MOL0     C31537   1.634   3.481   7.842  0.9483  0.0560 -0.3521
  975MOL0     O31538   1.799   3.543   7.565 -0.2243 -0.7142  0.0762
  975MOL0     C31539   2.071   3.311   7.658 -0.6982  0.1753 -0.3816
  975MOL0     C31540   2.206   3.279   7.633  1.0913 -0.8767 -0.6419
  975MOL0     N31541   3.016   3.041   7.716  0.3328  0.4271 -0.5860
  975MOL0     N31542   3.137   3.038   7.751  0.6248 -0.2611 -0.1440
  975MOL0     C31543   4.341   2.880   8.040 -0.8315  0.7394 -0.2801
  975MOL0     C31544   4.455   2.800   8.048 -0.3892 -0.0616 -0.5220
  975MOL0     C31545   4.821   2.653   8.229 -0.1274 -0.2422  0.8912
  975MOL0     C31546   4.862   2.630   8.365 -0.5858  0.5136 -0.0936
  975MOL0     C31547   4.969   2.551   8.395  0.1989  0.6276  0.0311
  975MOL0     C31548   5.040   2.486   8.300  0.1435  0.7534 -0.0187
  975MOL0     O31549   5.145   2.403   8.343  0.9060  0.7507  0.1421
  975MOL0     C31550   5.211   2.309   8.244  0.7697  0.0715  0.2489
  975MOL0     C31551   5.286   2.215   8.335 -0.4468  0.4708  0.0504
  975MOL0     C31552   5.276   2.073   8.273  0.7853 -1.0188 -0.2561
  975MOL0     C31553   5.335   1.969   8.357  0.0439 -0.8340  0.8561
  975MOL0     C31554   5.481   1.979   8.343  1.5577  0.5298 -0.3982
  975MOL0     C31555   5.597   2.003   8.332  0.5239  0.1812  0.2405
  975MOL0     C31556   5.002   2.502   8.165  0.3132  0.1538  0.1612
  975MOL0     C31557   4.894   2.583   8.128  0.7244 -0.3957 -0.3735
  975MOL0     H31558   4.686   3.046   7.999 -1.1559  2.1451  0.2300
  975MOL0     H31559   4.484   3.175   7.967  1.4431  0.3643 -0.3655
  975MOL0     H31560   4.165   3.022   7.839  0.1070  0.5629  0.1603
  975MOL0     H31561   4.071   2.978   7.979  0.7307 -0.8220  1.4424
  975MOL0     H31562   4.036   3.236   8.022  1.4231 -0.9865  0.2369
  975MOL0     H31563   4.084   3.241   7.848  1.2004  0.7062  0.7531
  975MOL0     H31564   3.862   3.244   7.809  1.0301 -0.3569 -0.2444
  975MOL0     H31565   3.896   3.075   7.803  0.0907 -0.6954  0.8135
  975MOL0     H31566   3.828   3.067   8.045  0.2502  1.3700  2.5135
  975MOL0     H31567   3.779   3.237   8.030  0.2201 -0.2083 -0.3331
  975MOL0     H31568   3.649   3.021   7.859  1.4077 -0.6253  0.1458
  975MOL0     H31569   3.594   3.065   8.016 -1.0439  1.7557  0.7838
  975MOL0     H31570   3.554   3.291   7.949  0.9296 -1.8877  1.9199
  975MOL0     H31571   3.595   3.243   7.784  1.0883 -0.7263  0.1892
  975MOL0     H31572   3.403   3.054   7.844 -2.4093 -0.1922  0.5351
  975MOL0     H31573   3.359   3.191   7.962  3.3920  1.2715  1.5529
  975MOL0     H31574   3.375   3.203   7.662 -1.0540 -1.7299 -0.2564
  975MOL0     H31575   3.316   3.327   7.777 -1.8595 -0.6738 -0.7440
  975MOL0     H31576   3.098   3.344   7.627 -2.8820  1.2615  1.4673
  975MOL0     H31577   2.889   3.274   7.491 -0.8569  1.6873  0.0291
  975MOL0     H31578   2.870   3.114   7.489 -1.2601  0.1845  0.3682
  975MOL0     H31579   2.747   3.306   7.700 -3.2637  0.1460  2.1755
  975MOL0     H31580   2.717   3.133   7.693 -0.4023 -0.6848 -1.4064
  975MOL0     H31581   2.618   3.149   7.460  2.2568 -1.5394  0.6652
  975MOL0     H31582   2.652   3.330   7.474  0.8613 -0.5316  0.8647
  975MOL0     H31583   2.494   3.332   7.665  0.3855 -0.5850  1.8859
  975MOL0     H31584   2.440   3.171   7.626  2.3058 -0.4179  1.7590
  975MOL0     H31585   2.237   3.449   7.345  2.4636  1.3202  1.1873
  975MOL0     H31586   2.062   3.552   7.269  1.1376  0.1963  0.8437
  975MOL0     H31587   1.901   3.482   7.320 -0.8580  0.7384  3.3892
  975MOL0     H31588   1.982   3.631   7.392 -0.1254  0.1815 -0.4190
  975MOL0     H31589   1.594   3.241   7.607  0.3436 -1.1611  0.4563
  975MOL0     H31590   1.356   3.276   7.674 -1.4505  0.7790  1.2658
  975MOL0     H31591   1.163   3.421   8.039 -0.2452 -0.4135 -0.2886
  975MOL0     H31592   1.329   3.464   8.055 -0.1535 -0.9024 -0.7221
  975MOL0     H31593   1.245   3.680   7.915  0.5586 -0.8923 -0.7438
  975MOL0     H31594   1.088   3.615   7.951  0.7581 -0.2564 -1.5195
  975MOL0     H31595   1.297   3.691   8.166 -0.7104  1.4313  2.2326
  975MOL0     H31596   1.136   3.628   8.196  1.5331  0.2234  1.1602
  975MOL0     H31597   1.193   3.885   8.031 -3.2315  1.9351 -1.3694
  975MOL0     H31598   1.040   3.831   8.088 -0.2696 -0.4304  0.5869
  975MOL0     H31599   1.276   3.944   8.245 -0.6043 -0.2364  0.4310
  975MOL0     H31600   1.176   3.837   8.336 -2.4909  0.7773  0.1775
  975MOL0     H31601   1.065   4.056   8.179 -0.4492 -2.3241 -1.9604
  975MOL0     H31602   0.973   3.945   8.289 -0.4700 -0.4514 -1.7111
  975MOL0     H31603   1.183   4.154   8.380  0.4863  1.0617  3.5579
  975MOL0     H31604   1.116   4.028   8.474  1.3070 -1.6294 -1.3637
  975MOL0     H31605   1.000   4.240   8.508  1.3518  2.5443 -2.0801
  975MOL0     H31606   0.897   4.100   8.471  3.3490 -1.0457  3.3747
  975MOL0     H31607   1.470   3.566   7.963 -0.4689 -1.0959  0.5335
  975MOL0     H31608   1.710   3.549   7.878  3.8459 -1.6793 -2.7326
  975MOL0     H31609   2.024   3.258   7.741  1.6068 -1.4167 -0.0081
  975MOL0     H31610   2.240   3.209   7.709 -5.0655 -2.0824  1.6100
  975MOL0     H31611   4.247   2.835   8.069  0.3979 -0.6359  1.8125
  975MOL0     H31612   4.445   2.692   8.057  0.8163 -0.2725 -1.3961
  975MOL0     H31613   4.811   2.683   8.444 -0.0893 -2.6577  2.5602
  975MOL0     H31614   4.996   2.543   8.500  0.2615  1.3713  0.0779
  975MOL0     H31615   5.138   2.255   8.183  2.3340 -2.7159  0.7047
  975MOL0     H31616   5.273   2.361   8.171  2.5683 -2.2323  0.0192
  975MOL0     H31617   5.246   2.216   8.437  0.2615 -3.4728  0.5508
  975MOL0     H31618   5.389   2.251   8.339  0.0440 -0.7940 -0.5477
  975MOL0     H31619   5.325   2.066   8.175 -1.2851  0.0970 -1.4254
  975MOL0     H31620   5.174   2.049   8.245  1.6062 -0.4195 -4.4254
  975MOL0     H31621   5.306   1.869   8.322  0.6096 -0.8248  0.3393
  975MOL0     H31622   5.301   1.979   8.460  0.7129  1.2894  0.9114
  975MOL0     H31623   5.703   2.006   8.321  0.4151 -0.7583 -1.4006
  975MOL0     H31624   5.038   2.434   8.089  0.7101  2.6205 -2.0378
  975MOL0     H31625   4.873   2.592   8.022 -0.1998  0.6674 -0.1265
  976MOL0     O31626   7.828   4.718   9.840  0.1309 -0.8082  0.5144
  976MOL0     C31627   7.789   4.612   9.893  0.1562  0.0564  0.0237
  976MOL0     O31628   7.863   4.547   9.989  1.3372  0.3345 -0.5669
  976MOL0     C31629   7.994   4.560  10.005  0.0659  0.4197  0.6158
  976MOL0     C31630   8.080   4.451   9.998  0.3108 -0.2781 -0.5034
  976MOL0     C31631   8.224   4.480   9.994 -0.4486 -0.2822 -1.0143
  976MOL0     C31632   8.285   4.607  10.008 -0.1560 -0.9546 -0.1656
  976MOL0     O31633   8.418   4.629  10.023  0.7909 -0.2939 -0.1699
  976MOL0     C31634   8.502   4.518   9.998 -0.1244  1.1994 -0.0472
  976MOL0     C31635   8.648   4.579   9.973  0.7765 -0.3758  0.3059
  976MOL0     C31636   8.744   4.476   9.935 -0.3302  0.2208  0.5221
  976MOL0     C31637   8.882   4.546   9.897  0.6934 -0.2287 -0.0282
  976MOL0     C31638   8.978   4.439   9.859 -0.6630  1.0537  1.1651
  976MOL0     C31639   9.104   4.504   9.803  0.0314  0.0832  1.1777
  976MOL0     C31640   9.083   4.547   9.658 -0.5203  0.7859  0.1025
  976MOL0     C31641   9.109   4.691   9.626  0.9604 -0.8740 -0.0276
  976MOL0     N31642   9.248   4.717   9.610 -0.4615 -0.1630 -0.4448
  976MOL0     C31643   9.328   4.656   9.515 -1.4830  0.0339 -0.1735
  976MOL0     C31644   9.451   4.716   9.528  0.2090 -0.0177 -0.4410
  976MOL0     C31645   9.573   4.676   9.448 -0.5789  0.3223 -0.4644
  976MOL0     C31646   9.528   4.643   9.308  0.2975  0.3421  1.2281
  976MOL0     C31647   9.622   4.676   9.194 -0.9032 -0.8390  0.5376
  976MOL0     C31648   9.541   4.667   9.057 -0.8490  0.0159 -0.1958
  976MOL0     O31649   9.475   4.536   9.037  0.6001 -0.3612  0.3338
  976MOL0     C31650   9.359   4.528   8.965  0.2250 -0.0657 -0.2785
  976MOL0     C31651   9.280   4.413   8.986 -0.2874 -0.1816 -0.1931
  976MOL0     C31652   9.167   4.377   8.910  0.3955 -0.4806  0.7594
  976MOL0     C31653   9.107   4.240   8.930 -0.1005 -0.1812  0.2095
  976MOL0     C31654   9.129   4.470   8.814 -0.7597  0.4080  0.7037
  976MOL0     C31655   9.015   4.449   8.723  0.4789  0.7180 -0.6701
  976MOL0     O31656   8.898   4.374   8.768 -0.7035  0.0112  0.5593
  976MOL0     C31657   8.794   4.330   8.688 -0.4709  0.4592 -0.4148
  976MOL0     C31658   8.742   4.411   8.588  0.2811  0.7926 -0.7048
  976MOL0     C31659   8.622   4.381   8.515  0.4566 -0.5329 -0.7276
  976MOL0     C31660   8.557   4.265   8.557 -0.2780 -0.6421 -0.1956
  976MOL0     O31661   8.437   4.246   8.513 -0.9323 -0.4318  0.4277
  976MOL0     C31662   8.327   4.202   8.593  0.6100 -0.6273  0.5442
  976MOL0     C31663   8.203   4.192   8.514 -0.2098  1.0859  0.8855
  976MOL0     C31664   8.078   4.164   8.599  0.3201 -0.0169  0.4440
  976MOL0     C31665   7.965   4.123   8.499 -0.1838  0.4867  0.2436
  976MOL0     C31666   7.830   4.082   8.578 -0.1045 -0.6063  0.5312
  976MOL0     C31667   7.747   4.000   8.485  0.0537  0.7916  0.1571
  976MOL0     C31668   7.686   4.088   8.381  0.2882 -0.6651  0.0485
  976MOL0     C31669   7.576   4.022   8.308  0.1751  0.2890 -0.1740
  976MOL0    Cl31670   7.502   4.156   8.211 -0.1233  0.0930 -0.1739
  976MOL0     C31671   8.611   4.181   8.654  0.7528 -0.6519 -0.5887
  976MOL0     C31672   8.729   4.211   8.721 -0.6462  0.0276  0.1766
  976MOL0     O31673   9.032   4.482   8.607  0.8658 -0.4551  0.2716
  976MOL0     C31674   9.208   4.589   8.790  0.2916 -0.9256 -0.9875
  976MOL0     C31675   9.321   4.611   8.863  0.0411  0.6156 -0.3500
  976MOL0     N31676   9.444   4.812   9.629  0.0001  0.1505 -0.8486
  976MOL0     N31677   9.328   4.804   9.682  0.4301  0.6192  0.6531
  976MOL0     C31678   8.193   4.708  10.030 -0.6003 -0.5247 -1.0029
  976MOL0     C31679   8.057   4.690  10.025 -0.1364  0.1229  1.0985
  976MOL0     C31680   7.666   4.551   9.841 -0.1091 -0.6027 -0.3857
  976MOL0     C31681   7.658   4.414   9.848 -0.6366  0.1955 -0.3130
  976MOL0     C31682   7.536   4.354   9.822 -0.3840  0.1226 -0.1549
  976MOL0     C31683   7.422   4.425   9.781 -0.3575  0.6713  0.3195
  976MOL0     O31684   7.305   4.356   9.751 -0.2810  0.1729 -0.7368
  976MOL0     C31685   7.182   4.422   9.719 -0.0276  0.4236 -0.4845
  976MOL0     C31686   7.069   4.322   9.681 -0.5091  0.5087 -0.3926
  976MOL0     C31687   6.932   4.393   9.664  0.4391 -0.5377 -1.1748
  976MOL0     C31688   6.808   4.305   9.644 -0.4266  0.3981 -0.6676
  976MOL0     C31689   6.688   4.390   9.611 -0.0585  0.3350  0.4148
  976MOL0     C31690   6.582   4.445   9.595  0.1986  0.3221  0.0986
  976MOL0     C31691   7.431   4.564   9.766 -0.6187  0.3181  0.0391
  976MOL0     C31692   7.553   4.624   9.798 -0.2390 -0.4740 -0.4196
  976MOL0     H31693   8.046   4.349   9.986  1.2145 -0.5178 -1.1264
  976MOL0     H31694   8.290   4.394   9.994 -1.0456 -0.9822  3.5175
  976MOL0     H31695   8.498   4.453  10.085 -0.0936  2.3759  0.8666
  976MOL0     H31696   8.471   4.462   9.909 -0.4647  0.7136  0.3732
  976MOL0     H31697   8.646   4.654   9.893  0.6759  0.7495  1.3497
  976MOL0     H31698   8.683   4.633  10.061  1.6666 -1.6232  0.7340
  976MOL0     H31699   8.754   4.403  10.015  1.7212  1.1877  1.2068
  976MOL0     H31700   8.719   4.417   9.846 -1.5976  1.8850 -0.2886
  976MOL0     H31701   8.872   4.612   9.810  1.1672  1.2089  0.9646
  976MOL0     H31702   8.927   4.603   9.979 -0.6982 -0.1108  0.6900
  976MOL0     H31703   8.995   4.372   9.943  2.1302 -1.2749 -1.0287
  976MOL0     H31704   8.924   4.377   9.786 -0.3777  0.8715  1.1062
  976MOL0     H31705   9.128   4.584   9.874 -1.3807 -0.5037  2.3513
  976MOL0     H31706   9.189   4.436   9.811  0.6915  0.4675 -1.5459
  976MOL0     H31707   9.156   4.490   9.600 -0.7723  0.2539  0.3026
  976MOL0     H31708   8.985   4.515   9.623 -0.3043 -1.0599  1.0550
  976MOL0     H31709   9.071   4.754   9.707  2.8878  1.6643 -0.9597
  976MOL0     H31710   9.060   4.712   9.530  2.7831  1.5368 -0.5163
  976MOL0     H31711   9.301   4.581   9.441 -0.5720  0.1463 -0.6270
  976MOL0     H31712   9.645   4.759   9.446 -0.9772  0.7125  0.7623
  976MOL0     H31713   9.624   4.591   9.494 -1.2327  1.3992  2.4621
  976MOL0     H31714   9.445   4.710   9.281  0.2957 -0.3256 -0.5307
  976MOL0     H31715   9.495   4.539   9.301 -1.2242  0.7379  2.0939
  976MOL0     H31716   9.703   4.603   9.192  0.4402  0.6009  0.2343
  976MOL0     H31717   9.675   4.770   9.210  1.6165 -2.0283 -0.4271
  976MOL0     H31718   9.609   4.674   8.971 -3.3923 -0.4891 -2.3859
  976MOL0     H31719   9.478   4.756   9.048  1.0679  1.3440 -1.3057
  976MOL0     H31720   9.315   4.342   9.060  2.7106 -0.0587 -1.3292
  976MOL0     H31721   9.160   4.188   9.011  2.3649  1.5350 -0.1967
  976MOL0     H31722   8.999   4.248   8.945 -0.3837  0.8090 -1.9637
  976MOL0     H31723   9.122   4.183   8.838  1.0491  3.4816 -2.0756
  976MOL0     H31724   8.801   4.497   8.554 -0.8628  0.3474 -4.2478
  976MOL0     H31725   8.574   4.445   8.442  1.4313 -1.0338 -1.8438
  976MOL0     H31726   8.334   4.106   8.645 -1.7840 -1.2000 -0.0505
  976MOL0     H31727   8.304   4.279   8.667 -0.9390 -0.5324  0.0134
  976MOL0     H31728   8.197   4.283   8.452 -0.8803  0.8691  0.6233
  976MOL0     H31729   8.211   4.112   8.440 -1.4684  1.0799  0.7444
  976MOL0     H31730   8.060   4.253   8.661 -1.4463 -0.4871  0.6710
  976MOL0     H31731   8.113   4.091   8.672  1.6926 -1.9590 -2.0091
  976MOL0     H31732   7.944   4.197   8.421 -4.2139  0.2300  0.8320
  976MOL0     H31733   8.001   4.029   8.457  1.4318  0.8691  0.7316
  976MOL0     H31734   7.784   4.173   8.618 -0.9422 -0.3081 -1.0151
  976MOL0     H31735   7.855   4.015   8.661  2.4801 -0.5911 -0.1343
  976MOL0     H31736   7.807   3.919   8.442  0.7833 -1.1516  4.3037
  976MOL0     H31737   7.674   3.945   8.545  0.8450 -1.2573 -0.6719
  976MOL0     H31738   7.744   4.124   8.296 -0.7168 -0.7157 -0.6792
  976MOL0     H31739   7.656   4.179   8.432  1.0886 -0.7497  0.6889
  976MOL0     H31740   7.494   3.992   8.374 -1.1510  0.5131 -1.6547
  976MOL0     H31741   7.614   3.938   8.249 -1.9557  1.1758 -3.0426
  976MOL0     H31742   8.548   4.107   8.702 -1.9578 -0.9724 -4.1725
  976MOL0     H31743   8.772   4.150   8.799  2.1955  1.8434  0.1949
  976MOL0     H31744   9.180   4.661   8.714  0.6461 -0.8370 -1.0391
  976MOL0     H31745   9.374   4.700   8.829  1.0763 -0.5756 -2.0241
  976MOL0     H31746   8.223   4.812  10.043 -0.2455 -0.9027  1.8540
  976MOL0     H31747   7.987   4.772  10.041 -0.9231 -0.3825  0.3091
  976MOL0     H31748   7.747   4.356   9.872 -1.4082 -1.5775 -1.5274
  976MOL0     H31749   7.527   4.246   9.834 -1.4152  0.2363  0.1885
  976MOL0     H31750   7.158   4.493   9.799  1.5550  0.8211 -0.3401
  976MOL0     H31751   7.203   4.490   9.636  0.6547  0.7816 -0.0286
  976MOL0     H31752   7.053   4.259   9.769 -0.5238  2.2902  0.9340
  976MOL0     H31753   7.112   4.269   9.596  2.9260  2.7275 -0.2075
  976MOL0     H31754   6.944   4.457   9.576 -0.5126  0.0787 -0.8730
  976MOL0     H31755   6.909   4.450   9.754 -0.7333 -0.4395 -1.5230
  976MOL0     H31756   6.787   4.235   9.725  0.2833  1.6555  0.6668
  976MOL0     H31757   6.812   4.254   9.548  0.2376 -0.4852 -0.1908
  976MOL0     H31758   6.484   4.485   9.580 -1.3432 -2.3815  1.9699
  976MOL0     H31759   7.349   4.628   9.734 -1.5964 -0.1943  1.4099
  976MOL0     H31760   7.556   4.733   9.802 -1.9836 -0.4071 -0.2654
  977MOL0     O31761   8.681   1.414  10.632 -0.3768  0.2492  0.8946
  977MOL0     C31762   8.611   1.310  10.645 -0.3315 -0.1985 -1.4305
  977MOL0     O31763   8.647   1.192  10.701 -0.5551  0.1823  0.1315
  977MOL0     C31764   8.760   1.184  10.771 -0.3876  0.1616  1.0735
  977MOL0     C31765   8.848   1.079  10.728  0.2771 -0.4616  0.4047
  977MOL0     C31766   8.965   1.040  10.808  0.0742 -0.8654 -0.3383
  977MOL0     C31767   8.985   1.103  10.931  0.0441 -0.1998  0.1666
  977MOL0     O31768   9.097   1.063  11.000 -1.0101  0.3801  0.0139
  977MOL0     C31769   9.115   1.102  11.138  0.3154 -0.1713  0.3763
  977MOL0     C31770   9.248   1.038  11.181 -0.3314  0.2426 -0.0716
  977MOL0     C31771   9.368   1.093  11.101  0.0220 -0.7689 -1.0315
  977MOL0     C31772   9.484   1.080  11.193 -0.8097  0.6005 -0.1187
  977MOL0     C31773   9.619   1.110  11.133 -0.1171  0.1059 -0.1840
  977MOL0     C31774   9.725   1.067  11.241  0.6781  0.1060  0.7287
  977MOL0     C31775   9.864   1.144  11.236  0.8456 -0.6481 -0.4080
  977MOL0     C31776   9.841   1.301  11.249 -0.6165 -0.0360 -0.4963
  977MOL0     N31777   9.750   1.334  11.363  0.3019 -0.0158  0.1545
  977MOL0     C31778   9.744   1.268  11.490 -0.2253  0.3409 -0.0154
  977MOL0     C31779   9.659   1.342  11.556  0.2152 -0.7923  0.3068
  977MOL0     C31780   9.628   1.334  11.698  0.9572 -0.7478 -0.3132
  977MOL0     C31781   9.705   1.441  11.771  0.3912  0.6973 -0.3126
  977MOL0     C31782   9.676   1.584  11.754  0.3520 -0.2158 -0.4433
  977MOL0     C31783   9.528   1.633  11.741  0.2956 -0.3902 -0.1131
  977MOL0     O31784   9.453   1.582  11.856 -0.2940 -0.6935 -0.9105
  977MOL0     C31785   9.323   1.578  11.861 -0.1720 -0.2408  0.2050
  977MOL0     C31786   9.260   1.486  11.946  0.3879  0.1497 -0.0694
  977MOL0     C31787   9.116   1.472  11.943  0.0390 -0.5955  0.2327
  977MOL0     C31788   9.057   1.376  12.043  0.1469  0.6147  0.5918
  977MOL0     C31789   9.039   1.546  11.844 -0.0085 -0.2503  1.0411
  977MOL0     C31790   8.888   1.540  11.843 -0.4963  0.2559  0.2562
  977MOL0     O31791   8.828   1.600  11.738 -0.1740  0.3092 -0.4379
  977MOL0     C31792   8.691   1.620  11.740 -0.6080  0.2858  1.6880
  977MOL0     C31793   8.643   1.728  11.813 -0.3867 -0.6080 -0.2559
  977MOL0     C31794   8.508   1.740  11.818 -0.4377 -0.2734  0.0086
  977MOL0     C31795   8.417   1.651  11.755 -0.1017  0.4118  0.3775
  977MOL0     O31796   8.285   1.667  11.771 -0.2355 -0.0890 -0.3441
  977MOL0     C31797   8.226   1.792  11.725 -0.3404 -0.2486  0.0658
  977MOL0     C31798   8.075   1.760  11.715  0.4403 -0.0241  0.3070
  977MOL0     C31799   7.990   1.887  11.672 -0.7875 -0.3368  0.5310
  977MOL0     C31800   7.845   1.855  11.627 -1.5102 -0.0847 -0.2692
  977MOL0     C31801   7.789   1.972  11.555 -1.1261 -0.0065  0.2380
  977MOL0     C31802   7.654   1.945  11.492 -0.1358  0.1752  0.2509
  977MOL0     C31803   7.591   2.066  11.423 -0.2509 -0.0510 -0.1218
  977MOL0     C31804   7.454   2.029  11.366  0.0641 -0.6829 -0.0017
  977MOL0    Cl31805   7.393   2.152  11.253  0.1751 -0.3241  0.0626
  977MOL0     C31806   8.465   1.541  11.684 -0.0081  0.5952 -0.0921
  977MOL0     C31807   8.603   1.525  11.680  0.0902 -0.5638 -0.1494
  977MOL0     O31808   8.825   1.486  11.933 -0.0210 -0.7795 -0.6373
  977MOL0     C31809   9.104   1.624  11.753  0.5165 -0.1168 -0.5090
  977MOL0     C31810   9.247   1.639  11.772  0.3354  0.3081  0.8933
  977MOL0     N31811   9.612   1.450  11.475  0.0858 -0.6463 -0.0324
  977MOL0     N31812   9.670   1.441  11.362  0.4610 -0.1012 -0.0818
  977MOL0     C31813   8.906   1.214  10.964 -0.1618  0.0402 -1.2963
  977MOL0     C31814   8.787   1.236  10.889 -0.0904 -0.0530 -1.1832
  977MOL0     C31815   8.482   1.317  10.584 -0.1113  0.2633  0.0293
  977MOL0     C31816   8.419   1.199  10.530 -0.4712 -0.2123 -0.2960
  977MOL0     C31817   8.287   1.202  10.475  0.7421  0.1677 -0.4650
  977MOL0     C31818   8.218   1.325  10.462  0.3850  1.1571 -0.4852
  977MOL0     O31819   8.093   1.345  10.412  0.5777 -0.4008 -0.0462
  977MOL0     C31820   8.019   1.229  10.367 -0.1573 -0.3120  0.4503
  977MOL0     C31821   7.903   1.283  10.281 -0.2052  0.3965 -0.5035
  977MOL0     C31822   7.942   1.387  10.171 -0.0540  0.1987 -0.2844
  977MOL0     C31823   7.911   1.532  10.216 -0.3425 -0.1683 -0.4229
  977MOL0     C31824   7.796   1.578  10.140  0.0670  0.3386 -0.1186
  977MOL0     C31825   7.714   1.609  10.053  0.0027 -0.3669 -0.4241
  977MOL0     C31826   8.275   1.440  10.511 -0.2095 -0.1288 -0.6191
  977MOL0     C31827   8.406   1.435  10.557  0.5607  0.3450 -1.0610
  977MOL0     H31828   8.826   1.031  10.633  0.8872  2.0116 -1.0872
  977MOL0     H31829   9.039   0.968  10.773 -0.2746 -1.7920  0.7826
  977MOL0     H31830   9.112   1.211  11.146 -0.1373 -0.2806  1.9613
  977MOL0     H31831   9.034   1.058  11.196 -1.1115  3.2134  1.2091
  977MOL0     H31832   9.255   1.057  11.288 -2.2953  0.1723  0.1040
  977MOL0     H31833   9.246   0.929  11.168  0.4396 -0.4280  4.0436
  977MOL0     H31834   9.374   1.040  11.005 -2.9403  0.6809 -2.1599
  977MOL0     H31835   9.356   1.199  11.074 -0.9427 -0.8991 -1.1512
  977MOL0     H31836   9.484   1.143  11.282  1.5277 -0.4485  0.6952
  977MOL0     H31837   9.494   0.977  11.230 -2.3857  1.0324  1.6512
  977MOL0     H31838   9.634   1.057  11.039  0.7349  1.3320 -0.7547
  977MOL0     H31839   9.622   1.217  11.112  1.3060  0.2794  0.7550
  977MOL0     H31840   9.683   1.078  11.341 -0.3337  0.2335  0.2958
  977MOL0     H31841   9.742   0.959  11.227 -1.1609 -0.4600  2.5376
  977MOL0     H31842   9.927   1.111  11.319  1.7884  0.5344 -0.6268
  977MOL0     H31843   9.908   1.116  11.140  1.2120  0.8516 -0.7120
  977MOL0     H31844   9.806   1.329  11.149 -0.6089 -3.0418 -1.4454
  977MOL0     H31845   9.936   1.350  11.273 -0.4816 -0.8082  0.6240
  977MOL0     H31846   9.802   1.181  11.519  2.1268  2.0289  0.6869
  977MOL0     H31847   9.521   1.348  11.714  1.0959 -0.5420  0.4994
  977MOL0     H31848   9.650   1.234  11.736  0.9654  0.4494  3.2255
  977MOL0     H31849   9.810   1.426  11.743  0.1458 -1.2487 -0.3230
  977MOL0     H31850   9.703   1.429  11.880 -2.0862 -0.3354 -0.4084
  977MOL0     H31851   9.733   1.626  11.670 -0.0659  0.7910 -0.2297
  977MOL0     H31852   9.719   1.638  11.838 -0.7240  0.0441 -0.0465
  977MOL0     H31853   9.481   1.612  11.644 -0.3782 -0.5693  0.2452
  977MOL0     H31854   9.530   1.742  11.742  1.8976 -0.3484  2.6870
  977MOL0     H31855   9.319   1.428  12.016 -1.2531  0.8656  2.0289
  977MOL0     H31856   9.015   1.287  11.997  3.2279 -1.0589  0.7578
  977MOL0     H31857   9.130   1.356  12.122 -0.3238 -0.2113  0.8343
  977MOL0     H31858   8.971   1.411  12.101 -1.6648 -2.5189 -0.0284
  977MOL0     H31859   8.703   1.796  11.872 -1.9405 -0.3429  1.1085
  977MOL0     H31860   8.471   1.806  11.895 -0.8852 -2.3199  1.6628
  977MOL0     H31861   8.240   1.864  11.806 -0.1204  1.3554 -1.3338
  977MOL0     H31862   8.267   1.825  11.629  0.3395  1.9842  1.0623
  977MOL0     H31863   8.063   1.685  11.637 -0.7452  0.4189  0.0468
  977MOL0     H31864   8.040   1.722  11.811  1.9654  1.6845  1.6239
  977MOL0     H31865   8.046   1.922  11.584  0.2887 -1.7083  0.6267
  977MOL0     H31866   7.991   1.962  11.751  1.1832 -1.9922  2.1909
  977MOL0     H31867   7.852   1.770  11.557  0.7292 -2.1150  2.2176
  977MOL0     H31868   7.796   1.820  11.718 -1.2328  4.1381  1.7395
  977MOL0     H31869   7.851   1.980  11.465 -0.5416  0.5275  0.6790
  977MOL0     H31870   7.795   2.067  11.608 -0.3991  1.2101 -1.9089
  977MOL0     H31871   7.673   1.866  11.418  0.2876  0.2226  0.3048
  977MOL0     H31872   7.583   1.917  11.571 -1.1043  0.1682 -0.6042
  977MOL0     H31873   7.660   2.087  11.341  1.0838 -1.4213  0.5914
  977MOL0     H31874   7.598   2.152  11.491 -0.1847  1.0384 -1.4608
  977MOL0     H31875   7.384   2.027  11.450 -2.8308 -2.2293 -2.2817
  977MOL0     H31876   7.461   1.930  11.321  0.4380 -1.3233  1.4036
  977MOL0     H31877   8.396   1.476  11.631 -0.1996  0.2296  0.6080
  977MOL0     H31878   8.653   1.445  11.627  0.4642 -1.4723  1.5064
  977MOL0     H31879   9.054   1.684  11.678 -0.1590 -1.0975 -0.8674
  977MOL0     H31880   9.285   1.723  11.715 -1.0997 -0.9100 -2.1291
  977MOL0     H31881   8.926   1.269  11.055  1.9199 -0.3297 -1.4684
  977MOL0     H31882   8.719   1.311  10.927 -0.5034 -0.6330 -0.7533
  977MOL0     H31883   8.470   1.103  10.537 -0.2500 -0.2635 -1.9931
  977MOL0     H31884   8.241   1.108  10.447  1.7801 -1.9757  4.0249
  977MOL0     H31885   8.078   1.163  10.302 -1.2537  1.1840 -2.2600
  977MOL0     H31886   7.972   1.173  10.448 -2.6949  0.0274 -0.6893
  977MOL0     H31887   7.817   1.315  10.340 -1.0251 -3.7513  0.9077
  977MOL0     H31888   7.861   1.195  10.230 -0.8328 -0.4776  1.4448
  977MOL0     H31889   7.893   1.372  10.074 -0.9780 -0.7093  0.3063
  977MOL0     H31890   8.049   1.381  10.149 -0.4340 -0.8914 -2.0218
  977MOL0     H31891   8.002   1.580  10.180  0.8084 -1.2533  0.9231
  977MOL0     H31892   7.898   1.552  10.323 -0.9764 -0.6457 -0.4010
  977MOL0     H31893   7.656   1.646   9.972  0.0834  0.6427 -0.0299
  977MOL0     H31894   8.208   1.525  10.503 -1.5393 -1.1174 -0.4441
  977MOL0     H31895   8.453   1.526  10.594  0.3261  1.0056 -2.3307
  978MOL0     O31896   7.837   1.830   9.421  0.1849 -0.3801  0.3302
  978MOL0     C31897   7.916   1.922   9.392  0.5919 -0.6233 -0.8734
  978MOL0     O31898   7.884   2.041   9.337 -0.2931  0.1986  0.0373
  978MOL0     C31899   7.754   2.080   9.328 -0.1027  0.4885 -0.5588
  978MOL0     C31900   7.660   2.072   9.439 -0.3212 -0.1229 -0.7417
  978MOL0     C31901   7.531   2.128   9.421  0.2377  1.2744 -0.4498
  978MOL0     C31902   7.486   2.181   9.306  0.1833 -0.5845  0.4466
  978MOL0     O31903   7.362   2.224   9.317 -0.7559 -0.3208  0.4390
  978MOL0     C31904   7.292   2.292   9.213 -0.6547 -0.3211  0.2761
  978MOL0     C31905   7.160   2.355   9.255 -0.1742  0.6794  0.4599
  978MOL0     C31906   7.054   2.239   9.270  0.8562  1.0879  0.0812
  978MOL0     C31907   6.913   2.281   9.299  0.7202  0.8057 -0.9024
  978MOL0     C31908   6.818   2.157   9.279  0.7410  0.3630 -0.2904
  978MOL0     C31909   6.815   2.049   9.394 -0.8252 -0.2930 -0.1541
  978MOL0     C31910   6.709   1.932   9.392 -0.1114 -1.1194  0.7713
  978MOL0     C31911   6.682   1.877   9.533 -0.2862  1.4122 -0.3506
  978MOL0     N31912   6.654   1.980   9.631 -0.0691  1.0653 -0.7677
  978MOL0     C31913   6.545   2.064   9.624  0.6737  0.9262 -0.7922
  978MOL0     C31914   6.549   2.131   9.742  0.0924  0.5183  0.2962
  978MOL0     C31915   6.454   2.236   9.788  0.1163 -0.3995 -0.2026
  978MOL0     C31916   6.463   2.365   9.706  0.0329  0.0101 -0.2313
  978MOL0     C31917   6.347   2.448   9.745 -1.1145  0.3576  0.4777
  978MOL0     C31918   6.368   2.588   9.700 -0.6399 -0.2832  0.5900
  978MOL0     O31919   6.252   2.658   9.730  0.2996  0.6165 -0.7184
  978MOL0     C31920   6.134   2.652   9.658  0.5025 -0.0401 -0.0695
  978MOL0     C31921   6.115   2.587   9.540 -0.6615  0.6052  0.4674
  978MOL0     C31922   5.993   2.582   9.465 -0.5088 -0.1667  0.1031
  978MOL0     C31923   5.981   2.495   9.343 -0.7133  0.0771  0.3389
  978MOL0     C31924   5.885   2.659   9.514 -0.0254 -0.3001  0.8875
  978MOL0     C31925   5.754   2.674   9.450 -0.3796 -0.0530  0.6160
  978MOL0     O31926   5.663   2.758   9.522  0.1148  0.0149  0.0599
  978MOL0     C31927   5.538   2.799   9.489  0.2006  0.0016  0.1722
  978MOL0     C31928   5.467   2.872   9.583  1.1405 -0.1029 -0.3465
  978MOL0     C31929   5.341   2.924   9.556 -0.1420 -0.0607 -0.3513
  978MOL0     C31930   5.281   2.901   9.426 -0.8979 -0.3424 -0.6842
  978MOL0     O31931   5.163   2.952   9.382 -0.2692  0.7987 -0.4783
  978MOL0     C31932   5.078   3.015   9.476 -0.4834 -0.3386 -0.1482
  978MOL0     C31933   4.939   3.011   9.417 -0.4167  0.6380 -0.0102
  978MOL0     C31934   4.834   3.088   9.497 -0.7740  1.2583 -0.5764
  978MOL0     C31935   4.687   3.059   9.443 -0.2476  0.6688 -0.2767
  978MOL0     C31936   4.656   3.099   9.290  0.3075 -0.2755 -0.2098
  978MOL0     C31937   4.501   3.084   9.258  0.5250 -0.1057  0.1355
  978MOL0     C31938   4.424   3.191   9.345  0.2488 -0.1409  0.2482
  978MOL0     C31939   4.276   3.183   9.313  0.0690  0.1257 -0.1813
  978MOL0    Cl31940   4.169   3.280   9.423 -0.0405 -0.0691 -0.1689
  978MOL0     C31941   5.351   2.822   9.336 -0.3864  0.4191  0.9338
  978MOL0     C31942   5.478   2.774   9.364 -0.9148 -0.3055  0.0653
  978MOL0     O31943   5.735   2.627   9.337 -0.2819  0.1139 -0.2047
  978MOL0     C31944   5.899   2.722   9.640 -0.3646 -0.4849  0.0232
  978MOL0     C31945   6.020   2.717   9.708  0.0793  0.0743 -0.5268
  978MOL0     N31946   6.659   2.088   9.813 -0.7350  0.2037  0.5090
  978MOL0     N31947   6.724   2.000   9.742 -0.0323 -1.0527 -0.2172
  978MOL0     C31948   7.572   2.179   9.199  1.1518 -0.0163 -0.0026
  978MOL0     C31949   7.706   2.132   9.212  0.8006  0.2016  0.6586
  978MOL0     C31950   8.058   1.889   9.409  0.6760  0.6924  0.1640
  978MOL0     C31951   8.088   1.759   9.454 -0.6410  1.0769 -0.2659
  978MOL0     C31952   8.222   1.728   9.473 -0.6398  0.1506  0.0104
  978MOL0     C31953   8.328   1.812   9.445 -0.3551  0.2190 -0.2832
  978MOL0     O31954   8.463   1.781   9.455  0.2095 -0.4473  0.0442
  978MOL0     C31955   8.494   1.647   9.483 -0.7972 -0.2478 -0.1712
  978MOL0     C31956   8.651   1.621   9.485  1.4559 -0.8106 -1.1738
  978MOL0     C31957   8.729   1.713   9.578 -0.1532 -0.3681  0.4834
  978MOL0     C31958   8.874   1.670   9.579 -0.0576  0.6098  0.2294
  978MOL0     C31959   8.902   1.546   9.647 -0.5018  0.4804  1.0020
  978MOL0     C31960   8.937   1.439   9.690 -0.0012  0.3982 -0.3104
  978MOL0     C31961   8.291   1.937   9.401 -0.6299 -0.2171  0.5404
  978MOL0     C31962   8.160   1.980   9.379  0.4858  0.6766 -0.5061
  978MOL0     H31963   7.699   2.034   9.533  2.0358  1.6624 -0.9064
  978MOL0     H31964   7.466   2.127   9.508 -1.6289 -1.8334 -1.7238
  978MOL0     H31965   7.353   2.382   9.198  1.5293 -1.2954  2.5701
  978MOL0     H31966   7.277   2.244   9.116  0.5115  0.6272 -0.4015
  978MOL0     H31967   7.172   2.397   9.355 -2.5676  1.0490  0.6393
  978MOL0     H31968   7.122   2.431   9.187  1.5416 -0.9238 -2.5429
  978MOL0     H31969   7.035   2.189   9.175 -2.3513  1.5694  0.3635
  978MOL0     H31970   7.097   2.159   9.332 -1.5879 -1.1727 -0.9602
  978MOL0     H31971   6.915   2.309   9.404 -1.4918 -0.4966 -0.4518
  978MOL0     H31972   6.894   2.374   9.244  1.9143  0.5639 -1.7644
  978MOL0     H31973   6.721   2.208   9.286  0.3353 -0.3847 -0.2804
  978MOL0     H31974   6.830   2.104   9.184 -0.0604  1.6330 -1.1261
  978MOL0     H31975   6.911   1.997   9.393  0.0911  1.0504  3.5988
  978MOL0     H31976   6.817   2.106   9.487  2.6196 -0.0865 -0.2406
  978MOL0     H31977   6.618   1.979   9.353  1.9985  2.8232  0.0629
  978MOL0     H31978   6.756   1.862   9.321  2.0449 -0.2612  1.2618
  978MOL0     H31979   6.771   1.822   9.567  0.6743  2.7093 -0.6733
  978MOL0     H31980   6.600   1.808   9.515  0.9010  0.0768 -0.8412
  978MOL0     H31981   6.465   2.079   9.552  1.0618  0.5953 -1.3037
  978MOL0     H31982   6.353   2.192   9.786  0.5754 -1.4655 -0.6771
  978MOL0     H31983   6.472   2.259   9.893 -0.5825 -0.7524  0.0029
  978MOL0     H31984   6.450   2.342   9.600 -0.2019 -0.7157 -0.0494
  978MOL0     H31985   6.558   2.412   9.736 -0.2502 -0.1451  0.9334
  978MOL0     H31986   6.331   2.451   9.854  0.7352  2.2201  0.7695
  978MOL0     H31987   6.257   2.415   9.693  0.0359 -1.2753 -0.5280
  978MOL0     H31988   6.395   2.598   9.594  0.3125 -0.0529  0.8467
  978MOL0     H31989   6.454   2.629   9.752 -0.2957 -2.5041  1.8825
  978MOL0     H31990   6.202   2.536   9.500 -1.2466 -3.0895  3.3704
  978MOL0     H31991   6.073   2.440   9.321 -0.5728  0.7932 -0.9825
  978MOL0     H31992   5.894   2.431   9.355 -1.5744  0.7836 -1.7273
  978MOL0     H31993   5.955   2.552   9.254  0.9247 -0.4795 -0.5454
  978MOL0     H31994   5.505   2.877   9.685 -2.6578  0.9103  1.2060
  978MOL0     H31995   5.283   2.974   9.633 -2.0870 -1.5062 -0.7996
  978MOL0     H31996   5.091   2.976   9.578  1.2191  1.5614  0.4265
  978MOL0     H31997   5.118   3.117   9.473  1.5929 -1.1104 -1.3809
  978MOL0     H31998   4.959   3.045   9.316  3.2635 -0.0165  0.3633
  978MOL0     H31999   4.909   2.905   9.418  1.8778 -0.1328 -2.5151
  978MOL0     H32000   4.868   3.191   9.485  0.4843  1.1135  1.3239
  978MOL0     H32001   4.845   3.063   9.603 -3.4909 -0.3481 -0.5935
  978MOL0     H32002   4.668   2.952   9.455  1.6425  0.2735 -0.4289
  978MOL0     H32003   4.625   3.117   9.513 -1.7929 -0.5690 -0.5868
  978MOL0     H32004   4.704   3.027   9.224  3.5164 -1.0378  2.6849
  978MOL0     H32005   4.688   3.201   9.268 -1.6156  0.1994 -1.0190
  978MOL0     H32006   4.482   3.094   9.151  1.3791 -1.2002 -0.1344
  978MOL0     H32007   4.469   2.981   9.271  1.7082 -0.6713 -1.2435
  978MOL0     H32008   4.455   3.296   9.341 -0.6134  0.1098 -0.0953
  978MOL0     H32009   4.438   3.151   9.446 -2.7923 -2.4847 -0.0928
  978MOL0     H32010   4.244   3.080   9.297 -0.0934  0.4098 -1.7771
  978MOL0     H32011   4.261   3.224   9.213 -2.0748 -1.1484 -0.4394
  978MOL0     H32012   5.306   2.799   9.240  1.2373  1.8708 -0.2312
  978MOL0     H32013   5.528   2.721   9.284 -2.6113 -0.1045 -1.1825
  978MOL0     H32014   5.821   2.781   9.688 -1.3135 -0.3459 -1.6208
  978MOL0     H32015   6.037   2.780   9.795  1.7183 -1.4195  0.2878
  978MOL0     H32016   7.539   2.222   9.105  0.8073  0.6002  0.3915
  978MOL0     H32017   7.766   2.145   9.122 -0.2985 -0.1759 -0.1373
  978MOL0     H32018   8.016   1.687   9.490  0.5066 -0.2754 -0.5930
  978MOL0     H32019   8.245   1.628   9.509  2.1070  0.6124 -0.1738
  978MOL0     H32020   8.450   1.629   9.582  2.2944  2.5057  1.9086
  978MOL0     H32021   8.438   1.579   9.417 -0.1680 -2.8475  1.7887
  978MOL0     H32022   8.680   1.645   9.382  0.8095  2.8380 -0.6570
  978MOL0     H32023   8.664   1.516   9.510  1.7121 -0.5830 -0.3150
  978MOL0     H32024   8.682   1.699   9.676 -1.0711  2.0065  0.4452
  978MOL0     H32025   8.711   1.813   9.539 -0.3500 -0.6478 -0.1631
  978MOL0     H32026   8.942   1.743   9.625  0.1160  0.4230  0.2726
  978MOL0     H32027   8.910   1.668   9.476 -0.1745  3.6316  0.0478
  978MOL0     H32028   8.964   1.338   9.713  0.5067  0.0255 -2.3717
  978MOL0     H32029   8.383   1.992   9.386 -0.1043 -1.2469 -0.1702
  978MOL0     H32030   8.138   2.085   9.357  0.0838  0.4332 -1.3462
  979MOL0     O32031   1.415   8.350   0.076  0.7158 -0.0635 -0.3293
  979MOL0     C32032   1.415   8.397  -0.037  0.4747  0.2442 -0.7128
  979MOL0     O32033   1.317   8.455  -0.105  0.0741 -0.2303 -0.9204
  979MOL0     C32034   1.180   8.447  -0.076 -0.4425 -0.1117 -1.2340
  979MOL0     C32035   1.109   8.401   0.050 -0.4532 -0.9407  0.5425
  979MOL0     C32036   0.974   8.427   0.046  0.2541 -0.3927 -0.0283
  979MOL0     C32037   0.903   8.470  -0.063  0.6108  0.4211 -0.1480
  979MOL0     O32038   0.766   8.499  -0.061  0.2902  0.0155  0.2787
  979MOL0     C32039   0.703   8.556   0.062 -0.5530  0.1076  0.1633
  979MOL0     C32040   0.588   8.641   0.018  0.0050 -0.5560 -0.4013
  979MOL0     C32041   0.475   8.565  -0.053 -0.4612  0.4636 -0.1059
  979MOL0     C32042   0.359   8.653  -0.082  0.0998  0.8187  0.5125
  979MOL0     C32043   0.241   8.590  -0.165  0.9906 -0.6150 -0.2702
  979MOL0     C32044   0.110   8.657  -0.139  0.0702 -0.1569  0.2198
  979MOL0     C32045  -0.004   8.614  -0.230  0.4959  0.3621 -0.3052
  979MOL0     C32046  -0.042   8.469  -0.203  0.0748 -0.5234  0.5452
  979MOL0     N32047  -0.087   8.447  -0.065  0.0752  0.2226  0.4374
  979MOL0     C32048  -0.096   8.325   0.002  0.2635  0.0913 -0.3262
  979MOL0     C32049  -0.178   8.343   0.107  0.1080 -0.4417  0.3323
  979MOL0     C32050  -0.215   8.241   0.208 -0.5105  0.2598  0.2008
  979MOL0     C32051  -0.333   8.272   0.292 -0.2377  0.2827 -0.2022
  979MOL0     C32052  -0.460   8.278   0.206  1.0906  0.0439  0.0070
  979MOL0     C32053  -0.586   8.309   0.291  0.0976  0.1451 -0.1454
  979MOL0     O32054  -0.693   8.245   0.219  0.7193  0.4477  0.2831
  979MOL0     C32055  -0.830   8.264   0.249 -0.8499 -0.1642  0.0994
  979MOL0     C32056  -0.868   8.245   0.381  0.3698 -0.5299  0.6870
  979MOL0     C32057  -1.005   8.257   0.416  0.0826  0.5367  0.3410
  979MOL0     C32058  -1.045   8.237   0.558  0.1595  0.1108  0.7445
  979MOL0     C32059  -1.102   8.286   0.312  0.2057 -0.1098 -1.1512
  979MOL0     C32060  -1.244   8.332   0.341  0.5948  0.5241 -0.2329
  979MOL0     O32061  -1.294   8.405   0.229 -0.2538  0.2924 -0.4715
  979MOL0     C32062  -1.428   8.427   0.210 -0.6148  0.0160 -0.2266
  979MOL0     C32063  -1.534   8.414   0.303 -0.4601  0.1372  0.1444
  979MOL0     C32064  -1.667   8.441   0.265  0.8750 -0.2728  0.0836
  979MOL0     C32065  -1.703   8.486   0.132  0.0628 -0.1400  0.3021
  979MOL0     O32066  -1.830   8.510   0.082  0.5697 -0.1269 -0.1125
  979MOL0     C32067  -1.944   8.468   0.153 -0.2611  0.3878 -0.5047
  979MOL0     C32068  -1.951   8.314   0.125  0.8942 -0.1769  0.4158
  979MOL0     C32069  -1.969   8.297  -0.026 -0.0041 -0.3454 -0.0073
  979MOL0     C32070  -2.002   8.156  -0.063  0.7140 -0.2385  0.5714
  979MOL0     C32071  -2.073   8.129  -0.200 -0.0373  0.1968 -0.0596
  979MOL0     C32072  -2.106   7.985  -0.212 -0.0238  0.3399 -0.0222
  979MOL0     C32073  -2.215   7.966  -0.318 -0.0066 -0.1127  0.1930
  979MOL0     C32074  -2.364   8.005  -0.272 -0.4172 -0.6489  0.0309
  979MOL0    Cl32075  -2.490   7.991  -0.392  0.2522  0.0088 -0.0960
  979MOL0     C32076  -1.600   8.489   0.039 -0.4669  0.9648  0.6122
  979MOL0     C32077  -1.470   8.459   0.071 -0.1211  0.1194  0.4272
  979MOL0     O32078  -1.290   8.326   0.454  0.1965 -0.5329  0.5381
  979MOL0     C32079  -1.055   8.301   0.182 -0.4421  0.1887  0.4980
  979MOL0     C32080  -0.922   8.296   0.149 -0.1304  0.1504  0.3819
  979MOL0     N32081  -0.216   8.482   0.109 -0.0582  0.1804 -0.4813
  979MOL0     N32082  -0.157   8.533   0.006 -0.2441 -0.1975 -0.3789
  979MOL0     C32083   0.968   8.494  -0.181 -0.4027  0.0289 -1.0376
  979MOL0     C32084   1.101   8.485  -0.187 -0.1599 -0.0560  0.6587
  979MOL0     C32085   1.550   8.381  -0.099 -0.4274 -0.5048 -0.5516
  979MOL0     C32086   1.563   8.387  -0.238 -0.1494 -0.1321 -0.2428
  979MOL0     C32087   1.690   8.380  -0.293  0.7113  0.4595 -0.1310
  979MOL0     C32088   1.797   8.360  -0.215  0.2533 -0.3052  0.1973
  979MOL0     O32089   1.919   8.333  -0.268 -0.6527  0.1126  0.7421
  979MOL0     C32090   1.938   8.271  -0.396 -0.8681 -0.0612 -0.4294
  979MOL0     C32091   2.039   8.161  -0.370  0.4420  0.4999  0.7769
  979MOL0     C32092   2.178   8.212  -0.377 -0.0741 -0.2419 -0.3712
  979MOL0     C32093   2.214   8.259  -0.515 -0.1938  0.5943 -0.1591
  979MOL0     C32094   2.230   8.146  -0.613  0.8687  0.3147 -1.1677
  979MOL0     C32095   2.223   8.037  -0.670 -0.9162  0.1944 -0.4759
  979MOL0     C32096   1.789   8.351  -0.077  0.9377 -0.0799 -0.1520
  979MOL0     C32097   1.663   8.371  -0.017  1.1709 -0.4362 -0.0030
  979MOL0     H32098   1.157   8.365   0.141  0.6404 -1.1676 -0.0975
  979MOL0     H32099   0.930   8.411   0.144  0.9158 -3.4852 -0.1328
  979MOL0     H32100   0.668   8.481   0.133 -1.7505  1.1529  0.7053
  979MOL0     H32101   0.784   8.610   0.111  0.1415 -0.6000 -0.1805
  979MOL0     H32102   0.553   8.693   0.107 -2.1079 -2.6267  0.0666
  979MOL0     H32103   0.632   8.717  -0.047  1.1311 -0.3350  0.5805
  979MOL0     H32104   0.526   8.524  -0.142  3.4354  0.4914  1.8886
  979MOL0     H32105   0.439   8.480   0.005  0.3691 -0.7155 -1.2387
  979MOL0     H32106   0.315   8.690   0.011 -0.5128 -0.3586  0.7093
  979MOL0     H32107   0.387   8.739  -0.143 -3.9317  3.0925  1.5239
  979MOL0     H32108   0.272   8.598  -0.270 -1.5983  2.5277 -0.9460
  979MOL0     H32109   0.236   8.484  -0.139  1.0173 -0.1808  1.6480
  979MOL0     H32110   0.071   8.655  -0.036 -1.5832  1.2832 -0.3226
  979MOL0     H32111   0.130   8.761  -0.166  3.2548 -0.2550  1.7778
  979MOL0     H32112  -0.098   8.669  -0.219 -3.0609 -5.1517  0.8947
  979MOL0     H32113   0.029   8.611  -0.335  2.1473 -6.4510 -0.0664
  979MOL0     H32114   0.043   8.401  -0.218 -0.2023 -0.8710  0.5277
  979MOL0     H32115  -0.127   8.451  -0.269 -2.0408  1.0329  2.6814
  979MOL0     H32116  -0.044   8.233  -0.023  0.4737 -0.2360  1.2053
  979MOL0     H32117  -0.244   8.153   0.150 -1.9177  0.8152  0.0251
  979MOL0     H32118  -0.127   8.207   0.264  1.6244 -0.2065 -3.1308
  979MOL0     H32119  -0.314   8.371   0.334 -2.7818  1.3932 -1.4400
  979MOL0     H32120  -0.342   8.194   0.369 -3.8485 -1.1528 -1.8576
  979MOL0     H32121  -0.466   8.179   0.161  4.6711 -0.1826 -0.2892
  979MOL0     H32122  -0.460   8.354   0.127  1.9807 -1.3761 -1.4329
  979MOL0     H32123  -0.602   8.417   0.301  3.0834  0.6596  0.0057
  979MOL0     H32124  -0.584   8.264   0.391 -1.5844 -1.0121 -0.5935
  979MOL0     H32125  -0.794   8.217   0.455  1.1823 -0.2035  0.0180
  979MOL0     H32126  -1.136   8.178   0.571  1.0609 -1.1012  1.8452
  979MOL0     H32127  -0.966   8.183   0.610 -0.0412 -0.6048  0.3204
  979MOL0     H32128  -1.049   8.336   0.606 -0.9944  0.1798  0.5398
  979MOL0     H32129  -1.514   8.388   0.407 -0.3653  1.0269  0.3610
  979MOL0     H32130  -1.742   8.427   0.342  0.7081  4.4613  1.0863
  979MOL0     H32131  -1.937   8.494   0.259  0.1659 -1.0486 -0.1609
  979MOL0     H32132  -2.033   8.517   0.112 -0.6743 -0.2797 -0.4166
  979MOL0     H32133  -1.866   8.256   0.161  0.5519  0.4305  2.2883
  979MOL0     H32134  -2.036   8.276   0.182  0.2142 -0.7286 -0.9099
  979MOL0     H32135  -1.880   8.324  -0.083  1.0056 -0.3700  1.4919
  979MOL0     H32136  -2.054   8.363  -0.046 -0.7670 -1.0598  0.7668
  979MOL0     H32137  -1.911   8.095  -0.062  0.2643 -1.0788 -1.9532
  979MOL0     H32138  -2.076   8.113   0.006  0.1937 -0.5393 -0.1692
  979MOL0     H32139  -2.007   8.162  -0.282  2.6768  0.6551  2.1511
  979MOL0     H32140  -2.160   8.194  -0.197 -0.6066 -0.6013  1.1848
  979MOL0     H32141  -2.015   7.933  -0.243 -0.7017  0.6509 -2.7740
  979MOL0     H32142  -2.130   7.948  -0.112  3.0717 -0.5305  0.5023
  979MOL0     H32143  -2.222   7.857  -0.325 -0.3783  0.0163 -3.0325
  979MOL0     H32144  -2.179   8.000  -0.416  0.0191  0.8854  0.5422
  979MOL0     H32145  -2.367   8.108  -0.235 -1.0473 -0.7297  0.2219
  979MOL0     H32146  -2.395   7.935  -0.194 -0.4085  1.1917  1.7933
  979MOL0     H32147  -1.632   8.522  -0.059  1.1361  0.1681 -0.2130
  979MOL0     H32148  -1.402   8.465  -0.013  1.0982  2.9449  1.4971
  979MOL0     H32149  -1.126   8.320   0.102  1.4073  0.5481 -1.1035
  979MOL0     H32150  -0.897   8.311   0.044 -0.3055 -0.6176  0.2187
  979MOL0     H32151   0.910   8.518  -0.269 -1.3569  0.5887 -0.2731
  979MOL0     H32152   1.149   8.506  -0.282  1.7087 -0.3379  1.4868
  979MOL0     H32153   1.475   8.400  -0.300 -0.7137  0.5315  0.6679
  979MOL0     H32154   1.682   8.375  -0.401  1.5933 -1.3449 -0.1488
  979MOL0     H32155   1.839   8.238  -0.430 -0.1538 -2.3550 -0.4293
  979MOL0     H32156   1.973   8.347  -0.466 -0.6314 -0.4322 -0.7190
  979MOL0     H32157   2.028   8.075  -0.437 -0.5540  1.5187 -0.4237
  979MOL0     H32158   2.030   8.114  -0.272  3.0870 -2.0854 -0.0441
  979MOL0     H32159   2.244   8.129  -0.353  1.0955  0.3566 -1.4345
  979MOL0     H32160   2.189   8.293  -0.304 -1.7702  0.2255 -0.5733
  979MOL0     H32161   2.320   8.284  -0.503  0.2394 -0.8255 -0.8548
  979MOL0     H32162   2.158   8.348  -0.547  1.1752  1.8797  0.8605
  979MOL0     H32163   2.223   7.942  -0.721 -1.2396  0.2612 -0.6032
  979MOL0     H32164   1.878   8.319  -0.025  0.2193  0.8940  1.7551
  979MOL0     H32165   1.652   8.364   0.091 -2.8104  0.5375 -0.2203
  980MOL0     O32166   6.164   5.690  10.611 -0.1229  0.8508  0.7106
  980MOL0     C32167   6.278   5.714  10.649  0.5910 -0.2920  0.6342
  980MOL0     O32168   6.306   5.741  10.781 -0.6447 -0.2795 -0.2268
  980MOL0     C32169   6.214   5.754  10.878  0.0431  0.6483 -0.0313
  980MOL0     C32170   6.216   5.669  10.986 -0.1457 -0.0976  0.3008
  980MOL0     C32171   6.109   5.659  11.069 -0.2952 -0.3844  0.3413
  980MOL0     C32172   5.996   5.741  11.037  0.4347 -0.5528 -0.4701
  980MOL0     O32173   5.875   5.747  11.100  0.3140  1.0229  0.3246
  980MOL0     C32174   5.837   5.651  11.198 -0.1475  0.3014 -0.1465
  980MOL0     C32175   5.697   5.685  11.246  0.0115  0.0403 -0.2517
  980MOL0     C32176   5.687   5.834  11.293  0.6846 -0.2938 -0.8581
  980MOL0     C32177   5.544   5.859  11.337 -0.8308  0.2072  0.5629
  980MOL0     C32178   5.551   5.992  11.413  0.3122  0.2338  0.2540
  980MOL0     C32179   5.400   6.024  11.444 -0.1770  0.6447  0.7121
  980MOL0     C32180   5.388   6.098  11.578  0.2922  1.1742  0.2868
  980MOL0     C32181   5.434   6.246  11.569  0.4078 -0.4046  0.8437
  980MOL0     N32182   5.371   6.323  11.672  0.0698  0.0535  0.0894
  980MOL0     C32183   5.236   6.355  11.662 -0.8688  0.8060  0.7690
  980MOL0     C32184   5.204   6.422  11.773  0.0673  0.1858  0.1094
  980MOL0     C32185   5.076   6.498  11.795 -0.0908  0.5133  0.7223
  980MOL0     C32186   5.077   6.623  11.704 -0.4643  0.2458 -0.1734
  980MOL0     C32187   4.956   6.708  11.724  0.7126  0.3017 -0.8481
  980MOL0     C32188   4.985   6.854  11.696  1.3540  0.6174  0.2338
  980MOL0     O32189   4.866   6.923  11.662  0.3520  0.7858  0.0431
  980MOL0     C32190   4.771   6.955  11.755 -0.1444  0.1437  0.5715
  980MOL0     C32191   4.792   6.962  11.892  0.1260 -0.1178 -0.9139
  980MOL0     C32192   4.693   7.000  11.983 -0.6336  0.4952  0.1431
  980MOL0     C32193   4.733   6.989  12.132 -0.3131  0.3963  0.5390
  980MOL0     C32194   4.569   7.048  11.925 -0.1254 -0.1024  0.2516
  980MOL0     C32195   4.459   7.092  12.010 -0.6931 -0.1860 -0.2233
  980MOL0     O32196   4.349   7.137  11.940 -0.4921 -0.6124  0.7131
  980MOL0     C32197   4.226   7.166  11.995 -1.0685  0.2698 -0.0453
  980MOL0     C32198   4.192   7.123  12.122  0.9583 -0.9732 -0.2684
  980MOL0     C32199   4.072   7.161  12.185  0.0808  0.1769  0.2239
  980MOL0     C32200   3.977   7.241  12.112 -0.6298  0.4907  0.3182
  980MOL0     O32201   3.864   7.265  12.182  0.4481  0.3151 -0.0965
  980MOL0     C32202   3.751   7.315  12.109 -0.7154  0.4639 -0.3307
  980MOL0     C32203   3.632   7.312  12.208 -0.0834  0.2318  0.4203
  980MOL0     C32204   3.561   7.184  12.246 -0.7224  0.7067  0.7667
  980MOL0     C32205   3.443   7.188  12.331  0.7005  0.4970  0.5648
  980MOL0     C32206   3.376   7.048  12.331  0.4735 -0.2961 -0.0027
  980MOL0     C32207   3.252   7.043  12.427  0.2447 -0.5470 -0.2575
  980MOL0     C32208   3.150   7.152  12.381 -0.8938 -0.4397 -0.3028
  980MOL0     C32209   3.013   7.117  12.452 -0.0170 -0.2194 -0.5032
  980MOL0    Cl32210   2.900   7.255  12.432  0.4057 -0.3646 -0.1291
  980MOL0     C32211   4.011   7.279  11.975  0.2972  0.3385  0.4557
  980MOL0     C32212   4.135   7.240  11.919 -0.1999 -0.6383  0.0899
  980MOL0     O32213   4.478   7.102  12.133  0.1948 -0.3225  0.0684
  980MOL0     C32214   4.549   7.044  11.785 -0.2243  0.0214  0.9892
  980MOL0     C32215   4.651   6.997  11.705  0.2838  0.5538 -0.2268
  980MOL0     N32216   5.325   6.431  11.844  0.6071 -0.2013 -0.0657
  980MOL0     N32217   5.426   6.379  11.780  0.7857 -0.0221  0.3332
  980MOL0     C32218   5.998   5.832  10.932 -0.4693 -0.7107  0.6778
  980MOL0     C32219   6.116   5.848  10.857 -0.0462 -1.4762  0.0763
  980MOL0     C32220   6.392   5.706  10.555  0.5801  0.0453 -0.2898
  980MOL0     C32221   6.521   5.691  10.609 -0.3247  0.1064  1.1511
  980MOL0     C32222   6.633   5.687  10.526 -0.6903  0.4130  0.7850
  980MOL0     C32223   6.619   5.716  10.389  0.4680  1.2414  0.2132
  980MOL0     O32224   6.730   5.732  10.310  0.0633  0.8007 -0.0938
  980MOL0     C32225   6.708   5.744  10.179 -0.1393  0.2698  0.9520
  980MOL0     C32226   6.840   5.781  10.107 -0.8573  0.0645  0.2415
  980MOL0     C32227   6.845   5.695   9.976 -0.1246  0.1009  0.6052
  980MOL0     C32228   6.947   5.747   9.872 -0.7020 -0.1763  0.3209
  980MOL0     C32229   6.927   5.682   9.740 -0.1121  0.1330  0.1209
  980MOL0     C32230   6.909   5.632   9.633 -0.3722  0.3789  0.1071
  980MOL0     C32231   6.486   5.712  10.338  0.0119  0.0644 -0.0475
  980MOL0     C32232   6.371   5.716  10.417 -0.4086  0.5839  0.0991
  980MOL0     H32233   6.306   5.611  11.003  1.1238  0.6055 -3.2587
  980MOL0     H32234   6.119   5.599  11.159  1.4786  0.0569  0.4826
  980MOL0     H32235   5.841   5.551  11.153  0.7273  0.8949 -1.4403
  980MOL0     H32236   5.905   5.645  11.284  1.5355  0.4162 -1.4374
  980MOL0     H32237   5.629   5.671  11.162  0.3266 -0.9062 -0.3602
  980MOL0     H32238   5.665   5.620  11.328 -0.1245  1.7966  1.1550
  980MOL0     H32239   5.764   5.860  11.366  1.0106 -0.1555 -1.2413
  980MOL0     H32240   5.704   5.897  11.205 -1.9320 -2.2802 -2.9553
  980MOL0     H32241   5.489   5.875  11.244  0.5742 -0.7237 -0.4750
  980MOL0     H32242   5.504   5.782  11.403  1.1826  1.3444  3.2884
  980MOL0     H32243   5.602   5.994  11.510  0.0313  0.1507  0.4038
  980MOL0     H32244   5.591   6.073  11.351  3.0872  0.9475  2.7208
  980MOL0     H32245   5.357   6.080  11.360  0.0732  0.1315  0.2360
  980MOL0     H32246   5.333   5.938  11.446 -0.8960  1.1998  2.5247
  980MOL0     H32247   5.283   6.090  11.610  0.3619  0.0739  0.2749
  980MOL0     H32248   5.442   6.039  11.652  2.3485  0.0810 -1.9330
  980MOL0     H32249   5.414   6.291  11.471  0.2026  0.5504  1.3142
  980MOL0     H32250   5.543   6.248  11.578  0.4108 -1.2986  1.1032
  980MOL0     H32251   5.175   6.328  11.577  1.5696 -0.4202 -0.7227
  980MOL0     H32252   4.987   6.436  11.782  0.2878  0.1177 -0.0195
  980MOL0     H32253   5.073   6.541  11.896 -2.2822  1.8397  0.1512
  980MOL0     H32254   5.088   6.594  11.599  0.6846  0.5799 -0.1578
  980MOL0     H32255   5.161   6.685  11.737  0.4781 -1.3947  0.6189
  980MOL0     H32256   4.912   6.705  11.824  2.6508  2.5525  0.1592
  980MOL0     H32257   4.883   6.669  11.652  0.6554  0.7450 -1.0372
  980MOL0     H32258   5.052   6.852  11.610  1.3884 -0.5719  0.2595
  980MOL0     H32259   5.028   6.893  11.789 -0.3998 -1.1030  1.8993
  980MOL0     H32260   4.880   6.919  11.938 -0.4312  1.8874  2.2925
  980MOL0     H32261   4.716   7.088  12.177  0.2504  1.2323 -1.0117
  980MOL0     H32262   4.685   6.910  12.191  2.6337 -3.2208 -1.4760
  980MOL0     H32263   4.842   6.983  12.128 -0.1865  1.4238  1.6758
  980MOL0     H32264   4.255   7.054  12.178  1.3611 -0.5369 -0.1720
  980MOL0     H32265   4.050   7.121  12.284 -0.3630 -0.3896 -0.0956
  980MOL0     H32266   3.760   7.415  12.068 -1.0856  0.1498 -1.2091
  980MOL0     H32267   3.733   7.254  12.020  0.9739 -0.1604 -0.2956
  980MOL0     H32268   3.655   7.367  12.300 -0.2863 -0.5774  0.9670
  980MOL0     H32269   3.547   7.366  12.165 -1.1114 -1.0450  0.8011
  980MOL0     H32270   3.639   7.114  12.278  1.3321  2.5314 -0.0098
  980MOL0     H32271   3.528   7.143  12.150 -0.1975  1.4991  0.2401
  980MOL0     H32272   3.459   7.231  12.431  2.0730 -0.7147  0.9070
  980MOL0     H32273   3.372   7.251  12.276  0.5416 -0.0644  0.1221
  980MOL0     H32274   3.444   6.964  12.350  0.3068 -1.5304 -3.9447
  980MOL0     H32275   3.343   7.024  12.230  0.1349 -1.0384  0.2710
  980MOL0     H32276   3.211   6.942  12.430 -0.8213 -0.0923  1.2374
  980MOL0     H32277   3.284   7.067  12.528  1.4229  1.3863 -1.0225
  980MOL0     H32278   3.148   7.160  12.272 -0.1223  2.1385 -0.1912
  980MOL0     H32279   3.178   7.254  12.410 -2.8094  0.5128 -1.6135
  980MOL0     H32280   3.039   7.101  12.557  1.7252  3.0831 -0.3186
  980MOL0     H32281   2.962   7.027  12.415 -3.6517  1.5275 -0.1656
  980MOL0     H32282   3.955   7.346  11.910  0.0734  0.1874  0.4915
  980MOL0     H32283   4.168   7.264  11.818  1.7047  1.8038  1.1831
  980MOL0     H32284   4.465   7.085  11.730  1.0198  1.7795  0.3130
  980MOL0     H32285   4.629   7.007  11.599 -0.8792  0.5932 -0.0008
  980MOL0     H32286   5.917   5.905  10.923 -1.4586 -1.8408  0.0751
  980MOL0     H32287   6.118   5.926  10.782 -0.6227  0.1436  1.6626
  980MOL0     H32288   6.538   5.692  10.716 -1.2902  2.0426  1.3228
  980MOL0     H32289   6.725   5.679  10.583 -1.4263 -0.7149  1.8832
  980MOL0     H32290   6.658   5.657  10.136 -0.4880  1.5875 -1.5029
  980MOL0     H32291   6.641   5.830  10.169  1.0845  1.1697  0.1009
  980MOL0     H32292   6.926   5.740  10.160  2.5451 -0.6167 -4.9652
  980MOL0     H32293   6.861   5.888  10.102 -3.4861  0.7934  2.6841
  980MOL0     H32294   6.747   5.688   9.928  0.6469  0.8336 -1.1665
  980MOL0     H32295   6.874   5.595  10.009  1.0269  0.9686  2.3749
  980MOL0     H32296   7.048   5.743   9.914 -0.5859 -0.8169 -0.0006
  980MOL0     H32297   6.926   5.854   9.863  1.4017  0.1760 -1.2677
  980MOL0     H32298   6.874   5.598   9.538  3.5207 -1.3659 -0.9141
  980MOL0     H32299   6.467   5.735  10.233  1.7808 -0.8140 -0.5961
  980MOL0     H32300   6.277   5.728  10.364 -1.4933 -0.6906  1.6469
  981MOL0     O32301   9.721   7.586   4.971 -0.3886 -0.0986 -0.4632
  981MOL0     C32302   9.773   7.578   4.863  0.8499 -0.1083  0.2023
  981MOL0     O32303   9.716   7.617   4.749  0.5763  0.3476  0.2550
  981MOL0     C32304   9.581   7.635   4.739  0.0808 -0.6429  0.4238
  981MOL0     C32305   9.511   7.545   4.660 -0.1685  0.8428 -0.1840
  981MOL0     C32306   9.379   7.561   4.640  0.0954 -0.2848  0.1676
  981MOL0     C32307   9.308   7.655   4.710 -0.2304  0.0216 -0.3606
  981MOL0     O32308   9.172   7.637   4.688 -0.2682  0.3144 -0.9854
  981MOL0     C32309   9.108   7.753   4.624  0.1452 -0.1295 -1.0886
  981MOL0     C32310   8.967   7.728   4.639 -0.0195  0.0453  0.2167
  981MOL0     C32311   8.907   7.774   4.773 -0.6663  0.5523  0.8302
  981MOL0     C32312   8.754   7.770   4.779  0.4407 -0.4164 -0.7719
  981MOL0     C32313   8.701   7.835   4.910  0.5510  0.2679 -0.5231
  981MOL0     C32314   8.550   7.815   4.915  0.2457  0.0872  0.4191
  981MOL0     C32315   8.476   7.893   5.030  0.6721  0.4469  0.9002
  981MOL0     C32316   8.486   7.830   5.161  0.1962  0.2460 -0.2777
  981MOL0     N32317   8.446   7.686   5.181 -0.1286 -0.0421  0.4820
  981MOL0     C32318   8.323   7.625   5.172  0.5076  0.1718 -0.5549
  981MOL0     C32319   8.343   7.495   5.207  0.0697 -0.6854  0.4769
  981MOL0     C32320   8.235   7.392   5.226 -0.1506 -0.2388 -0.2927
  981MOL0     C32321   8.241   7.326   5.369  0.0791  0.9402 -0.3165
  981MOL0     C32322   8.155   7.200   5.388 -0.3300 -0.3894  0.0604
  981MOL0     C32323   8.003   7.214   5.350 -0.4176 -0.1727 -0.5166
  981MOL0     O32324   7.955   7.322   5.426 -0.6433 -0.2203  0.7747
  981MOL0     C32325   7.827   7.342   5.408  0.3213  0.3321  0.2153
  981MOL0     C32326   7.774   7.415   5.299 -0.5853 -0.4158 -0.3441
  981MOL0     C32327   7.633   7.431   5.274  0.0047 -0.1688 -0.2052
  981MOL0     C32328   7.586   7.503   5.149  0.2851 -0.0596 -0.1451
  981MOL0     C32329   7.540   7.365   5.359  0.6459  0.7084 -0.1310
  981MOL0     C32330   7.393   7.377   5.348 -1.1816  1.5480 -0.0427
  981MOL0     O32331   7.320   7.310   5.447  0.2211  0.3100  0.1738
  981MOL0     C32332   7.185   7.300   5.435 -0.6719  0.6139 -0.9335
  981MOL0     C32333   7.123   7.179   5.402 -0.8432  0.6112  0.0621
  981MOL0     C32334   6.987   7.173   5.381 -0.2518  0.3105  0.1893
  981MOL0     C32335   6.902   7.279   5.411 -0.1813 -0.4444 -0.3124
  981MOL0     O32336   6.766   7.273   5.385  0.1397  0.5968  0.0896
  981MOL0     C32337   6.694   7.164   5.335 -0.2083  0.0347 -0.0733
  981MOL0     C32338   6.550   7.187   5.284  0.2520  0.1699  0.4118
  981MOL0     C32339   6.479   7.055   5.251  0.2508 -0.3476 -0.9071
  981MOL0     C32340   6.339   7.065   5.201  1.4312 -0.3287  0.4869
  981MOL0     C32341   6.275   6.931   5.155 -0.2220  0.6404 -0.5184
  981MOL0     C32342   6.267   6.818   5.267  0.4053  0.0495 -0.2722
  981MOL0     C32343   6.173   6.842   5.381  0.8968  0.3291  0.2343
  981MOL0     C32344   6.039   6.898   5.336  0.7538  0.5658 -0.1887
  981MOL0    Cl32345   5.950   6.768   5.260  0.5600  0.1183 -0.1406
  981MOL0     C32346   6.964   7.402   5.453  0.1151  0.0225 -1.0661
  981MOL0     C32347   7.102   7.409   5.470  0.0529 -0.2929 -0.1625
  981MOL0     O32348   7.341   7.425   5.248 -0.3623  0.2438 -0.2225
  981MOL0     C32349   7.595   7.279   5.458  0.3241  0.0644  0.3334
  981MOL0     C32350   7.731   7.271   5.482 -0.4239  0.6709 -0.9858
  981MOL0     N32351   8.481   7.471   5.223 -0.7297  0.1671  0.1738
  981MOL0     N32352   8.541   7.593   5.204  0.3748  0.1303  0.8213
  981MOL0     C32353   9.374   7.739   4.796 -0.3644 -0.8180 -0.3852
  981MOL0     C32354   9.512   7.735   4.811 -0.1065 -0.7844  0.5810
  981MOL0     C32355   9.917   7.541   4.865  0.3141  0.3542  0.8653
  981MOL0     C32356   9.990   7.564   4.748  0.5051 -0.2992 -0.4149
  981MOL0     C32357  10.125   7.540   4.735  0.1073 -0.5002  0.1065
  981MOL0     C32358  10.199   7.498   4.840 -0.0034 -0.5975 -0.1746
  981MOL0     O32359  10.325   7.472   4.810  0.1041  0.2912 -0.0814
  981MOL0     C32360  10.422   7.485   4.920  0.3726 -0.1099  0.0479
  981MOL0     C32361  10.557   7.486   4.852 -0.1423  0.1619 -0.3816
  981MOL0     C32362  10.657   7.466   4.967  0.0860  0.1125 -0.4818
  981MOL0     C32363  10.793   7.471   4.897 -0.2759  0.4855  0.1675
  981MOL0     C32364  10.907   7.492   4.992 -0.4544 -0.7494  0.3553
  981MOL0     C32365  10.998   7.482   5.067  0.0785 -0.6918  0.4835
  981MOL0     C32366  10.134   7.477   4.962 -0.3072  0.7928 -0.5586
  981MOL0     C32367   9.998   7.502   4.975  0.1931 -0.7110  1.1067
  981MOL0     H32368   9.572   7.467   4.616 -2.0144 -0.3231 -0.7522
  981MOL0     H32369   9.337   7.480   4.581 -2.0957  1.6162 -1.0423
  981MOL0     H32370   9.135   7.850   4.666 -1.1607  0.3274 -1.2648
  981MOL0     H32371   9.140   7.753   4.519 -1.7438 -0.7316 -1.7159
  981MOL0     H32372   8.920   7.783   4.557 -1.0488  2.3585  2.2431
  981MOL0     H32373   8.938   7.626   4.612 -2.4009  0.7051  0.0685
  981MOL0     H32374   8.951   7.713   4.853  0.9560 -0.0361 -0.4373
  981MOL0     H32375   8.926   7.878   4.799 -1.8666  0.4610  2.1921
  981MOL0     H32376   8.717   7.833   4.698  1.8489  0.4335 -0.7767
  981MOL0     H32377   8.713   7.670   4.762  0.2404 -0.5181  0.2514
  981MOL0     H32378   8.750   7.796   5.000  1.9039 -0.2544 -1.4428
  981MOL0     H32379   8.726   7.941   4.918 -2.4780  0.8905  4.4905
  981MOL0     H32380   8.501   7.828   4.818  0.7714 -2.9397 -0.3816
  981MOL0     H32381   8.530   7.709   4.935  0.0152 -0.5337 -2.5901
  981MOL0     H32382   8.517   7.994   5.043  1.9145  0.0728  0.1342
  981MOL0     H32383   8.371   7.903   5.001  0.7300  0.1832  0.5912
  981MOL0     H32384   8.423   7.890   5.227  2.1357 -0.0643  1.9705
  981MOL0     H32385   8.590   7.841   5.195 -0.5328  1.3958  1.7522
  981MOL0     H32386   8.230   7.669   5.140 -1.1123 -1.2997  1.8480
  981MOL0     H32387   8.135   7.424   5.194  0.7846  0.6141 -2.5637
  981MOL0     H32388   8.264   7.311   5.158  0.3016 -0.9982  0.7940
  981MOL0     H32389   8.216   7.408   5.437  1.0052  0.7414  0.2786
  981MOL0     H32390   8.346   7.298   5.381  0.1686  1.1555 -0.5939
  981MOL0     H32391   8.176   7.155   5.486 -0.2338 -1.9586 -0.6413
  981MOL0     H32392   8.188   7.135   5.306 -0.3919  1.5220 -1.5488
  981MOL0     H32393   7.935   7.130   5.364 -0.3912 -0.4455 -1.8663
  981MOL0     H32394   7.992   7.240   5.244 -1.1310 -0.4254 -0.5038
  981MOL0     H32395   7.839   7.467   5.229  2.4659 -1.5239  1.4787
  981MOL0     H32396   7.523   7.441   5.084  0.0031 -2.3163  2.0892
  981MOL0     H32397   7.526   7.587   5.184  0.8752  0.2808  0.0647
  981MOL0     H32398   7.676   7.542   5.101  0.3619  1.0265  0.8418
  981MOL0     H32399   7.178   7.092   5.366  0.5118  1.7881 -0.8609
  981MOL0     H32400   6.944   7.083   5.339 -0.8863  0.3501  0.7289
  981MOL0     H32401   6.737   7.129   5.241 -1.3045 -0.6008 -0.3652
  981MOL0     H32402   6.699   7.075   5.398  0.6381 -0.5933 -0.9960
  981MOL0     H32403   6.501   7.237   5.368  0.5995 -0.7339  1.1640
  981MOL0     H32404   6.554   7.252   5.196 -1.0113  1.3837  1.2138
  981MOL0     H32405   6.478   6.999   5.345  1.7273 -0.7584 -1.1116
  981MOL0     H32406   6.535   7.001   5.174 -0.7989 -0.3312 -1.6994
  981MOL0     H32407   6.275   7.111   5.276  1.0181  2.7566 -1.6016
  981MOL0     H32408   6.336   7.134   5.117  0.5958  0.2847  1.0072
  981MOL0     H32409   6.328   6.888   5.070 -0.2369  2.4724 -1.4951
  981MOL0     H32410   6.173   6.948   5.122  0.1327  1.3967 -1.2731
  981MOL0     H32411   6.242   6.731   5.206 -0.1343  0.1245 -0.1635
  981MOL0     H32412   6.366   6.804   5.309  0.2451  1.1516  0.5119
  981MOL0     H32413   6.209   6.902   5.465  1.1684 -1.9740  1.8712
  981MOL0     H32414   6.164   6.747   5.436  2.2820  0.8287  1.3850
  981MOL0     H32415   6.039   6.990   5.277 -1.1126  1.4053  1.0099
  981MOL0     H32416   5.979   6.927   5.422 -1.1314 -1.9624 -0.5349
  981MOL0     H32417   6.895   7.481   5.482 -0.9435 -1.0992 -0.4369
  981MOL0     H32418   7.139   7.501   5.513 -0.5269 -0.8849  1.6968
  981MOL0     H32419   7.535   7.216   5.522 -0.1936 -0.9305 -1.0843
  981MOL0     H32420   7.774   7.205   5.557 -1.4908  1.3096  0.2305
  981MOL0     H32421   9.313   7.809   4.852 -1.8270 -1.4424 -1.1180
  981MOL0     H32422   9.557   7.805   4.880 -0.4068 -0.8671  0.8640
  981MOL0     H32423   9.945   7.596   4.654 -0.6483 -2.5591 -0.6863
  981MOL0     H32424  10.175   7.536   4.639 -4.1578  1.9092 -2.5691
  981MOL0     H32425  10.402   7.571   4.984  2.4343  0.6687 -0.2930
  981MOL0     H32426  10.409   7.400   4.987  0.4242  0.6965  1.0979
  981MOL0     H32427  10.567   7.580   4.797 -2.4748  0.4083 -0.4816
  981MOL0     H32428  10.558   7.401   4.783  0.0696 -0.6280  0.5665
  981MOL0     H32429  10.643   7.371   5.021  2.9837 -0.5409 -0.7374
  981MOL0     H32430  10.648   7.549   5.038  4.2580  0.2353  0.1898
  981MOL0     H32431  10.797   7.561   4.835  0.9649  0.6840  0.5023
  981MOL0     H32432  10.809   7.385   4.830  0.2005 -0.8470  1.9272
  981MOL0     H32433  11.088   7.462   5.121 -0.7143 -0.5451  1.9283
  981MOL0     H32434  10.190   7.454   5.052 -2.1180  2.4702  1.0941
  981MOL0     H32435   9.958   7.490   5.075 -3.2155 -0.5125 -0.1348
  982MOL0     O32436  10.337   5.970   9.934  0.4637  0.1242 -0.7024
  982MOL0     C32437  10.384   6.078   9.897  0.1526 -0.1040  0.1141
  982MOL0     O32438  10.307   6.184   9.854  0.5251  0.1411  0.0909
  982MOL0     C32439  10.171   6.177   9.844 -0.3733  0.8990 -0.2258
  982MOL0     C32440  10.090   6.159   9.961  0.2180  0.1075 -0.6556
  982MOL0     C32441   9.948   6.164   9.946 -0.2405  0.8977 -0.1109
  982MOL0     C32442   9.885   6.166   9.820 -1.2118  0.2964  0.6048
  982MOL0     O32443   9.748   6.165   9.811 -0.4980 -0.2882 -0.2081
  982MOL0     C32444   9.693   6.084   9.709 -0.0680 -0.4945  0.1014
  982MOL0     C32445   9.541   6.072   9.729  0.1269  0.0682  0.0745
  982MOL0     C32446   9.483   5.934   9.669  0.3012 -0.2730 -0.2605
  982MOL0     C32447   9.477   5.830   9.781  0.2285 -0.1913 -0.8646
  982MOL0     C32448   9.436   5.687   9.732 -0.1810 -0.3982 -0.4077
  982MOL0     C32449   9.408   5.587   9.846  0.4809 -0.9701  0.3945
  982MOL0     C32450   9.388   5.445   9.794  1.1497 -0.4235  0.6394
  982MOL0     C32451   9.318   5.351   9.894 -0.1909 -0.8978  0.4649
  982MOL0     N32452   9.173   5.346   9.864  0.2033 -0.2752  0.6499
  982MOL0     C32453   9.113   5.300   9.749  0.0029  0.0513 -0.1699
  982MOL0     C32454   8.980   5.328   9.764  0.0802  0.1324  0.2644
  982MOL0     C32455   8.859   5.293   9.677 -0.2213 -0.6206  0.2568
  982MOL0     C32456   8.847   5.146   9.689  0.1308 -0.5536  0.1042
  982MOL0     C32457   8.747   5.100   9.586 -0.5368  0.0122 -0.6949
  982MOL0     C32458   8.753   4.941   9.560 -0.5513 -0.0237  0.0513
  982MOL0     O32459   8.692   4.919   9.434  0.2997  0.5255 -0.2879
  982MOL0     C32460   8.629   4.803   9.411  0.4335 -0.5825  0.2046
  982MOL0     C32461   8.629   4.690   9.502  0.4519  0.4477  0.2303
  982MOL0     C32462   8.538   4.585   9.474 -0.7035  0.1816 -0.0903
  982MOL0     C32463   8.553   4.474   9.582 -0.7425  0.0547 -0.5870
  982MOL0     C32464   8.468   4.579   9.352  0.3071 -0.4070  0.7926
  982MOL0     C32465   8.382   4.466   9.300  1.0570  0.2105 -0.2634
  982MOL0     O32466   8.347   4.460   9.169  0.2622  0.2239  0.1606
  982MOL0     C32467   8.278   4.345   9.137  0.8220 -1.4465 -0.2474
  982MOL0     C32468   8.140   4.342   9.154 -0.6279 -0.0181 -0.0218
  982MOL0     C32469   8.060   4.240   9.109 -0.6835 -0.3008 -0.0774
  982MOL0     C32470   8.116   4.120   9.061 -0.5060  0.0934  0.0929
  982MOL0     O32471   8.046   3.999   9.044  0.7015 -0.4381  0.3311
  982MOL0     C32472   7.910   3.990   9.086 -0.1171 -0.0127 -0.2285
  982MOL0     C32473   7.824   4.021   8.972 -1.3198 -0.1734  0.4118
  982MOL0     C32474   7.689   3.950   8.975  0.8824  0.0562  0.7036
  982MOL0     C32475   7.635   3.930   8.836  0.0464  0.2457 -0.0443
  982MOL0     C32476   7.489   3.867   8.836 -0.6756 -0.3659  0.1888
  982MOL0     C32477   7.426   3.870   8.694 -0.1673  0.2727  0.0969
  982MOL0     C32478   7.282   3.819   8.693  0.4230  0.3012 -0.4348
  982MOL0     C32479   7.239   3.770   8.558  0.0015  0.2279  0.3633
  982MOL0    Cl32480   7.067   3.734   8.546 -0.1418  0.1556  0.2159
  982MOL0     C32481   8.262   4.126   9.055 -0.2740  0.4040 -0.6540
  982MOL0     C32482   8.340   4.233   9.094  0.6335 -0.3332  0.1902
  982MOL0     O32483   8.365   4.381   9.380 -0.7220  0.1364  0.3611
  982MOL0     C32484   8.471   4.693   9.267  0.8969  0.4903 -0.0630
  982MOL0     C32485   8.554   4.806   9.296  0.4206  0.1500 -0.1256
  982MOL0     N32486   8.955   5.383   9.893 -0.6354  0.3385 -0.5587
  982MOL0     N32487   9.076   5.397   9.937  0.7614  0.0161 -0.2179
  982MOL0     C32488   9.967   6.190   9.705 -0.5174 -0.0084  0.6807
  982MOL0     C32489  10.105   6.200   9.719 -0.3121 -0.8939 -0.0579
  982MOL0     C32490  10.531   6.100   9.916  0.1634 -0.0063 -0.5256
  982MOL0     C32491  10.586   6.222   9.881 -0.8388  0.2772 -0.1786
  982MOL0     C32492  10.722   6.251   9.898  0.3120 -0.6970 -0.3271
  982MOL0     C32493  10.809   6.150   9.946  0.8886  0.5697 -0.5183
  982MOL0     O32494  10.943   6.156   9.959 -0.2394 -0.3063  0.6078
  982MOL0     C32495  11.011   6.215   9.841 -0.1801 -0.1622 -0.6568
  982MOL0     C32496  11.157   6.160   9.853  0.0571  0.6347 -0.4119
  982MOL0     C32497  11.166   6.002   9.854 -0.5329  0.1232 -0.2736
  982MOL0     C32498  11.310   5.959   9.882 -0.5096  1.1515 -0.8151
  982MOL0     C32499  11.398   6.023   9.792 -0.3182 -0.1771  0.0784
  982MOL0     C32500  11.477   6.085   9.720 -0.4742  0.4529  0.4764
  982MOL0     C32501  10.754   6.020   9.971 -0.1375 -0.3955  0.5767
  982MOL0     C32502  10.618   5.995   9.951  0.8127 -0.0287  0.2175
  982MOL0     H32503  10.130   6.158  10.062  0.0143  0.4691 -0.5679
  982MOL0     H32504   9.885   6.160  10.034 -0.0816 -0.5333 -0.0314
  982MOL0     H32505   9.712   6.152   9.625 -1.9134  0.1186  0.1362
  982MOL0     H32506   9.738   5.985   9.704 -1.4701 -1.1445 -0.2733
  982MOL0     H32507   9.509   6.089   9.833  1.9898 -2.0916  1.0827
  982MOL0     H32508   9.498   6.161   9.682  1.0614  0.4476 -0.0730
  982MOL0     H32509   9.389   5.941   9.613  1.0485  1.6384 -1.3736
  982MOL0     H32510   9.555   5.913   9.589  0.3413  1.1309 -0.6175
  982MOL0     H32511   9.572   5.825   9.834  0.1422  2.5114 -0.3018
  982MOL0     H32512   9.404   5.863   9.855  1.2264 -0.0658  0.0950
  982MOL0     H32513   9.342   5.685   9.677 -0.2378  0.7749 -0.3730
  982MOL0     H32514   9.519   5.641   9.678  0.4575  1.9515 -1.5506
  982MOL0     H32515   9.490   5.590   9.919 -0.3169 -0.0007  1.2848
  982MOL0     H32516   9.322   5.630   9.898  1.7610 -0.4254  2.1409
  982MOL0     H32517   9.342   5.441   9.695  1.2200  1.6005  0.4748
  982MOL0     H32518   9.489   5.405   9.779  0.7670 -1.2949  0.3506
  982MOL0     H32519   9.319   5.390   9.997 -1.4169 -1.0599  0.5436
  982MOL0     H32520   9.369   5.254   9.891 -0.5316 -1.1475  1.9504
  982MOL0     H32521   9.148   5.264   9.653 -1.4664  2.5253 -1.7461
  982MOL0     H32522   8.775   5.355   9.710 -1.4698 -0.4105 -2.9197
  982MOL0     H32523   8.877   5.312   9.570 -3.8292  0.2381 -0.3274
  982MOL0     H32524   8.808   5.126   9.790  0.4422 -0.2099  0.2931
  982MOL0     H32525   8.943   5.094   9.690  0.8722  0.6414 -2.1450
  982MOL0     H32526   8.762   5.146   9.488 -2.1499 -0.0442 -0.9895
  982MOL0     H32527   8.644   5.121   9.619 -0.0633  0.3622  0.6147
  982MOL0     H32528   8.697   4.891   9.639 -0.5821 -1.5615 -0.8988
  982MOL0     H32529   8.853   4.898   9.558  0.4510  1.6541  4.4593
  982MOL0     H32530   8.697   4.690   9.586  0.9998  2.3415 -0.1656
  982MOL0     H32531   8.556   4.373   9.539  0.0575  0.6112 -1.8885
  982MOL0     H32532   8.646   4.468   9.638 -1.8915 -0.3835  1.3932
  982MOL0     H32533   8.474   4.476   9.658  1.0361  3.1122  1.3770
  982MOL0     H32534   8.101   4.431   9.202  0.3254  0.8130 -0.7251
  982MOL0     H32535   7.956   4.250   9.139 -0.6559  0.3269 -0.1845
  982MOL0     H32536   7.888   3.885   9.105  2.1246 -0.6105 -0.7105
  982MOL0     H32537   7.892   4.041   9.181  0.8651 -1.4825  0.7853
  982MOL0     H32538   7.810   4.129   8.965  0.6064  0.0364 -4.7450
  982MOL0     H32539   7.860   3.989   8.873  1.5762  0.2696  1.2455
  982MOL0     H32540   7.615   4.005   9.035  0.4053 -0.6426  0.7749
  982MOL0     H32541   7.690   3.850   9.020 -1.3038  0.7367  2.4718
  982MOL0     H32542   7.620   4.025   8.784 -2.2330  0.5765  1.0931
  982MOL0     H32543   7.699   3.861   8.779  1.1618  0.8293  0.4808
  982MOL0     H32544   7.424   3.925   8.902 -0.6551  2.0774 -1.7814
  982MOL0     H32545   7.499   3.765   8.873 -1.7452 -0.1949  1.0049
  982MOL0     H32546   7.426   3.975   8.663  0.7384  0.2934  0.1534
  982MOL0     H32547   7.483   3.813   8.620 -1.0058  1.9171 -1.9111
  982MOL0     H32548   7.223   3.904   8.727 -1.4248 -1.0684 -0.0474
  982MOL0     H32549   7.262   3.738   8.763  1.4212  0.8448  0.5055
  982MOL0     H32550   7.296   3.683   8.524 -1.2527 -0.7128  0.5816
  982MOL0     H32551   7.265   3.843   8.481  2.2846  0.4385  1.2432
  982MOL0     H32552   8.323   4.036   9.055  2.1969  1.7865  3.7199
  982MOL0     H32553   8.447   4.233   9.077  0.0279 -2.0985 -6.0225
  982MOL0     H32554   8.417   4.685   9.173  0.7696 -0.5296  0.0881
  982MOL0     H32555   8.553   4.898   9.239  1.2156  0.1620 -0.1302
  982MOL0     H32556   9.918   6.181   9.609  0.3049 -1.4053  0.3567
  982MOL0     H32557  10.174   6.219   9.637 -0.1828  2.4772  0.6882
  982MOL0     H32558  10.535   6.301   9.828  2.3863  1.3468 -1.9588
  982MOL0     H32559  10.764   6.349   9.877 -1.6672 -0.0502 -1.4520
  982MOL0     H32560  10.960   6.197   9.746  1.9432  0.4375 -1.9969
  982MOL0     H32561  11.010   6.324   9.853  3.0069 -0.3872  5.1350
  982MOL0     H32562  11.191   6.199   9.949 -0.4216 -1.7003  0.7764
  982MOL0     H32563  11.210   6.203   9.768 -0.5165  0.5572 -0.8170
  982MOL0     H32564  11.133   5.966   9.757 -0.0331  0.6588 -0.6499
  982MOL0     H32565  11.104   5.957   9.933  1.5461  1.0777  2.0404
  982MOL0     H32566  11.327   5.851   9.888 -0.7650  1.1769  0.6240
  982MOL0     H32567  11.350   5.998   9.976  1.5177 -2.3168 -0.0832
  982MOL0     H32568  11.554   6.133   9.663 -1.3748 -1.6322 -2.7769
  982MOL0     H32569  10.821   5.941  10.002 -1.3945 -0.6275  2.9559
  982MOL0     H32570  10.581   5.896   9.976 -1.3185 -0.0971 -2.5486
  983MOL0     O32571   1.986   8.840   3.864  0.5835 -0.0161  0.0857
  983MOL0     C32572   1.941   8.930   3.932  0.8969 -0.3551 -0.0409
  983MOL0     O32573   1.807   8.966   3.946  0.5122  0.1094  0.2824
  983MOL0     C32574   1.711   8.923   3.859 -0.1654 -0.5995 -0.3362
  983MOL0     C32575   1.579   8.909   3.916  0.0935 -0.4936  0.3069
  983MOL0     C32576   1.482   8.856   3.829  0.2469 -0.1813  0.6375
  983MOL0     C32577   1.510   8.829   3.694  0.3693  0.0747  0.5017
  983MOL0     O32578   1.428   8.774   3.595 -0.3474 -0.1719  0.1641
  983MOL0     C32579   1.291   8.781   3.623 -0.8929  0.4105  0.4703
  983MOL0     C32580   1.214   8.764   3.495 -0.5260  0.2011  0.0347
  983MOL0     C32581   1.233   8.630   3.420 -0.4376 -0.2200  0.2091
  983MOL0     C32582   1.143   8.634   3.292 -0.4854 -0.1952  0.4933
  983MOL0     C32583   0.998   8.587   3.296 -0.2026 -0.4846  0.9927
  983MOL0     C32584   0.929   8.580   3.156 -0.2509 -0.0306 -0.1874
  983MOL0     C32585   0.812   8.482   3.167  0.1271  0.3146 -0.5126
  983MOL0     C32586   0.726   8.488   3.041 -0.2962 -0.0908  0.3728
  983MOL0     N32587   0.610   8.393   3.035 -0.3513 -0.7437 -0.6956
  983MOL0     C32588   0.524   8.377   2.923 -0.0321 -1.2268 -1.0226
  983MOL0     C32589   0.442   8.281   2.963  0.5106  0.1037  0.1986
  983MOL0     C32590   0.316   8.247   2.883  0.0835 -0.5674  0.1120
  983MOL0     C32591   0.208   8.358   2.907  0.0214  0.1577  0.1160
  983MOL0     C32592   0.090   8.347   2.823  0.1122  0.4407  0.1663
  983MOL0     C32593  -0.030   8.454   2.846 -0.6162  0.2984 -0.4928
  983MOL0     O32594  -0.143   8.417   2.769 -0.5961 -0.0530 -0.1866
  983MOL0     C32595  -0.255   8.502   2.744 -0.0140 -0.0183 -0.9734
  983MOL0     C32596  -0.291   8.604   2.829  0.6339 -0.2328  0.1234
  983MOL0     C32597  -0.410   8.675   2.821  0.2948  0.0986  0.7538
  983MOL0     C32598  -0.453   8.756   2.934 -0.1513  0.9493  0.0025
  983MOL0     C32599  -0.497   8.650   2.714  0.5757  0.1437  0.7319
  983MOL0     C32600  -0.634   8.722   2.700 -0.6661  0.5496  0.2738
  983MOL0     O32601  -0.743   8.657   2.642 -0.0699 -0.0308 -0.1571
  983MOL0     C32602  -0.856   8.733   2.637  0.0818 -0.2545 -0.2155
  983MOL0     C32603  -0.937   8.744   2.751  0.8115 -0.5932  0.1756
  983MOL0     C32604  -1.055   8.824   2.742  0.3983  0.6241  0.5180
  983MOL0     C32605  -1.076   8.904   2.630  0.2946 -0.2205  0.4143
  983MOL0     O32606  -1.181   8.992   2.617 -0.0898  0.2455  0.3247
  983MOL0     C32607  -1.222   9.052   2.743 -0.5235  0.3379  1.2312
  983MOL0     C32608  -1.330   9.159   2.733 -0.3878 -0.4125  0.6162
  983MOL0     C32609  -1.469   9.089   2.710  1.3219 -0.9434  0.2808
  983MOL0     C32610  -1.580   9.196   2.690  0.3629  0.3974 -0.2999
  983MOL0     C32611  -1.725   9.138   2.681 -0.4929  0.2157  1.1520
  983MOL0     C32612  -1.844   9.240   2.690  0.3762 -0.1444  0.9968
  983MOL0     C32613  -1.829   9.371   2.605 -0.2665 -0.4635 -0.8896
  983MOL0     C32614  -1.962   9.441   2.567  0.1960 -0.5342 -0.1854
  983MOL0    Cl32615  -2.050   9.499   2.712 -0.6831  0.5982 -0.2397
  983MOL0     C32616  -0.976   8.913   2.527  0.0690  0.1331 -0.4181
  983MOL0     C32617  -0.869   8.822   2.528  0.3873  0.7963  0.2851
  983MOL0     O32618  -0.626   8.836   2.729  0.0391 -0.0442  0.0481
  983MOL0     C32619  -0.454   8.560   2.617 -0.5073  0.2599 -0.6132
  983MOL0     C32620  -0.342   8.470   2.642 -0.1529 -0.4576 -0.3883
  983MOL0     N32621   0.488   8.231   3.082 -0.2852 -0.8355 -0.0055
  983MOL0     N32622   0.592   8.289   3.123 -0.8199 -0.1934  1.1717
  983MOL0     C32623   1.641   8.840   3.648 -0.3878  0.0776  0.3129
  983MOL0     C32624   1.742   8.897   3.727  0.4367 -0.5501 -0.1689
  983MOL0     C32625   2.043   8.988   4.030  0.6317  0.7473 -1.1029
  983MOL0     C32626   2.178   8.956   4.018  0.6942  0.1828  0.3812
  983MOL0     C32627   2.276   8.994   4.105 -0.2537  0.2246 -0.9132
  983MOL0     C32628   2.236   9.073   4.215 -0.5724 -0.2370  0.2709
  983MOL0     O32629   2.322   9.145   4.291  0.2428 -0.7227 -0.1099
  983MOL0     C32630   2.459   9.140   4.253 -0.1591  0.1655 -0.0040
  983MOL0     C32631   2.541   9.211   4.349 -0.7209 -0.3757  0.5099
  983MOL0     C32632   2.513   9.360   4.354 -0.6740  1.0217 -0.3097
  983MOL0     C32633   2.574   9.433   4.478 -0.3886 -0.9824 -0.8220
  983MOL0     C32634   2.478   9.525   4.531  0.4528 -0.3501  1.2241
  983MOL0     C32635   2.411   9.617   4.572  0.3484 -0.3728  0.0723
  983MOL0     C32636   2.101   9.109   4.232  0.3696 -0.2352 -0.2677
  983MOL0     C32637   2.003   9.062   4.140  0.4635  0.8499  0.2267
  983MOL0     H32638   1.565   8.928   4.021  3.1201 -2.1047  1.1403
  983MOL0     H32639   1.380   8.853   3.865  1.0459 -0.7790  3.0704
  983MOL0     H32640   1.258   8.700   3.689 -1.3192  1.5268  1.6772
  983MOL0     H32641   1.272   8.878   3.669  1.5629 -0.0626  2.7395
  983MOL0     H32642   1.109   8.789   3.510 -0.4751  1.9522 -2.0900
  983MOL0     H32643   1.257   8.835   3.424  1.3775 -1.5491 -0.6569
  983MOL0     H32644   1.337   8.631   3.387 -0.2346 -3.0446  0.5819
  983MOL0     H32645   1.228   8.540   3.482  4.2445 -1.5621 -0.9239
  983MOL0     H32646   1.154   8.731   3.242 -0.8069 -0.1999  0.4080
  983MOL0     H32647   1.188   8.560   3.225  0.8735 -1.2497  2.4745
  983MOL0     H32648   1.016   8.482   3.324  0.0117 -0.9930 -0.9098
  983MOL0     H32649   0.946   8.634   3.380  0.3585  2.5671 -0.2574
  983MOL0     H32650   0.902   8.683   3.132 -1.0920  0.0875  1.1270
  983MOL0     H32651   0.994   8.529   3.084  0.2149  0.5659 -0.1971
  983MOL0     H32652   0.855   8.382   3.182  0.5708 -0.0219 -3.3801
  983MOL0     H32653   0.746   8.501   3.252  0.8098 -4.5106  1.4385
  983MOL0     H32654   0.798   8.456   2.965  1.7590 -0.0621  2.2039
  983MOL0     H32655   0.697   8.593   3.029 -0.4217  0.0971  2.0935
  983MOL0     H32656   0.526   8.440   2.835 -1.5234  1.8649  0.9730
  983MOL0     H32657   0.345   8.236   2.778  2.1595 -1.2437  0.7048
  983MOL0     H32658   0.279   8.146   2.900 -1.2934  0.1076  1.2742
  983MOL0     H32659   0.249   8.457   2.884  0.7494 -0.7844 -3.0931
  983MOL0     H32660   0.178   8.373   3.011 -2.0821 -1.6600 -0.1692
  983MOL0     H32661   0.046   8.249   2.844 -2.9386  1.3901 -1.2331
  983MOL0     H32662   0.112   8.341   2.716  0.5697  1.9645  0.1606
  983MOL0     H32663   0.006   8.553   2.818  0.6854 -0.5734 -2.0840
  983MOL0     H32664  -0.064   8.466   2.949  0.9179  2.4652 -0.1727
  983MOL0     H32665  -0.232   8.623   2.919  2.7326 -1.3336 -0.9526
  983MOL0     H32666  -0.387   8.721   3.014  1.3763 -1.0174 -1.9805
  983MOL0     H32667  -0.425   8.859   2.912 -0.6214  1.3411  1.1693
  983MOL0     H32668  -0.559   8.743   2.955 -0.6329  1.2266 -2.1184
  983MOL0     H32669  -0.899   8.678   2.828  0.7802 -1.8969 -0.8936
  983MOL0     H32670  -1.131   8.817   2.819  1.0510 -0.3302  1.0993
  983MOL0     H32671  -1.252   8.976   2.815  1.4450 -0.7011  1.0450
  983MOL0     H32672  -1.130   9.101   2.777 -0.3697  2.1496 -1.4629
  983MOL0     H32673  -1.321   9.217   2.825  2.5807 -2.1088  1.5028
  983MOL0     H32674  -1.302   9.217   2.645 -0.2103 -2.4910 -0.7870
  983MOL0     H32675  -1.487   9.022   2.794  0.7845  1.9280  2.5788
  983MOL0     H32676  -1.467   9.032   2.616  2.5371 -0.5266  0.0355
  983MOL0     H32677  -1.576   9.255   2.782  0.3404 -1.8615  1.2572
  983MOL0     H32678  -1.560   9.259   2.604 -0.9180  2.2875  0.7083
  983MOL0     H32679  -1.738   9.056   2.752 -2.0182 -1.4926 -0.9647
  983MOL0     H32680  -1.724   9.105   2.577  2.1335  1.0015  0.8609
  983MOL0     H32681  -1.932   9.180   2.664  2.1568 -2.9374  1.0026
  983MOL0     H32682  -1.850   9.282   2.791 -0.9462  0.6137  0.6336
  983MOL0     H32683  -1.788   9.340   2.508  2.1088 -0.2636 -0.0253
  983MOL0     H32684  -1.754   9.442   2.642 -1.6436  0.3537  0.4678
  983MOL0     H32685  -2.032   9.379   2.510  0.4646 -0.2328 -0.8534
  983MOL0     H32686  -1.941   9.527   2.503 -1.2353 -0.1286 -0.1318
  983MOL0     H32687  -0.994   8.979   2.443  1.3140  0.8092 -0.1797
  983MOL0     H32688  -0.805   8.818   2.441 -0.8935  1.0690 -0.7053
  983MOL0     H32689  -0.506   8.539   2.525  3.0491 -2.3112 -2.2852
  983MOL0     H32690  -0.327   8.382   2.581  0.7075 -2.7046  2.8520
  983MOL0     H32691   1.669   8.811   3.547 -2.2920  0.4848 -0.3891
  983MOL0     H32692   1.842   8.906   3.684  0.2953  0.5516 -0.2845
  983MOL0     H32693   2.198   8.905   3.924 -0.7798  3.3788 -1.8793
  983MOL0     H32694   2.382   8.981   4.085 -0.0820 -1.2845  0.7321
  983MOL0     H32695   2.504   9.041   4.254  0.7771  0.5575 -0.9393
  983MOL0     H32696   2.480   9.177   4.152  1.5068 -0.6291  0.0242
  983MOL0     H32697   2.648   9.200   4.329 -1.1249 -3.3754 -0.5237
  983MOL0     H32698   2.524   9.169   4.449 -2.0125  1.6049  1.1860
  983MOL0     H32699   2.404   9.367   4.358 -1.1646 -3.7204 -0.5325
  983MOL0     H32700   2.553   9.403   4.262  0.7220  3.0161  1.1204
  983MOL0     H32701   2.656   9.501   4.452 -1.4098  1.3641  1.6686
  983MOL0     H32702   2.618   9.361   4.548 -0.2355 -0.0347  0.0757
  983MOL0     H32703   2.351   9.697   4.610  3.7374  2.1801  0.4837
  983MOL0     H32704   2.079   9.182   4.309 -2.1009 -1.2664  0.0888
  983MOL0     H32705   1.902   9.097   4.153 -0.2090 -1.0629  0.5522
  984MOL0     O32706   0.457   3.949   3.701  0.6686 -0.3690 -0.0460
  984MOL0     C32707   0.476   4.066   3.667 -0.4214  0.3048  0.5905
  984MOL0     O32708   0.430   4.125   3.551  0.0367 -0.8450  0.2804
  984MOL0     C32709   0.344   4.056   3.467  0.3849  0.1732  0.1392
  984MOL0     C32710   0.216   4.032   3.488  0.0511  0.8684 -0.0321
  984MOL0     C32711   0.141   3.967   3.394  1.0315  1.0255  0.2747
  984MOL0     C32712   0.187   3.937   3.267 -0.1834  0.5603  0.4746
  984MOL0     O32713   0.118   3.867   3.172 -0.8764 -0.6668 -0.5788
  984MOL0     C32714  -0.012   3.807   3.189 -0.4092  0.5993  0.0765
  984MOL0     C32715  -0.113   3.920   3.193  0.0174 -0.3343 -0.7677
  984MOL0     C32716  -0.251   3.869   3.179  0.2864  0.4236 -0.3020
  984MOL0     C32717  -0.295   3.775   3.292 -0.2878  0.1065  0.1263
  984MOL0     C32718  -0.442   3.746   3.276 -0.4472 -0.3728  0.0453
  984MOL0     C32719  -0.491   3.659   3.394  0.7307  0.4880  0.4114
  984MOL0     C32720  -0.633   3.625   3.365  0.2944 -0.5684  0.2866
  984MOL0     C32721  -0.642   3.532   3.244  0.3869  1.2892  0.2948
  984MOL0     N32722  -0.770   3.459   3.213  0.3804  0.6596  0.2063
  984MOL0     C32723  -0.853   3.379   3.295 -0.5928  0.0261  0.4805
  984MOL0     C32724  -0.961   3.337   3.227  0.2670  0.2407 -0.2849
  984MOL0     C32725  -1.087   3.275   3.272  0.3365  0.0092  0.1913
  984MOL0     C32726  -1.207   3.378   3.264  0.1498 -0.3073  0.2281
  984MOL0     C32727  -1.336   3.287   3.281 -0.2884 -0.3012  0.1699
  984MOL0     C32728  -1.459   3.380   3.292 -0.8424  0.3468  0.6178
  984MOL0     O32729  -1.479   3.454   3.174 -0.0687 -0.4689  0.4783
  984MOL0     C32730  -1.589   3.534   3.169  0.3244  0.5497 -0.2511
  984MOL0     C32731  -1.671   3.566   3.283 -0.6304  0.1692  0.0347
  984MOL0     C32732  -1.793   3.648   3.268 -0.0982  0.5934  0.9270
  984MOL0     C32733  -1.874   3.664   3.394 -0.1839  0.2044  0.3279
  984MOL0     C32734  -1.828   3.689   3.135 -1.1821  0.3341  0.4665
  984MOL0     C32735  -1.950   3.760   3.097 -0.4834 -0.1860 -0.7967
  984MOL0     O32736  -1.985   3.762   2.970 -0.5633 -0.8177 -0.5896
  984MOL0     C32737  -2.100   3.836   2.943  0.9998  0.5308 -0.0957
  984MOL0     C32738  -2.095   3.948   2.863  0.0710  0.0638 -0.3889
  984MOL0     C32739  -2.205   4.026   2.841  0.3244 -0.0267  0.4102
  984MOL0     C32740  -2.333   3.983   2.889  0.0308 -0.4756  0.2849
  984MOL0     O32741  -2.449   4.047   2.870  0.3366  0.3062 -0.3049
  984MOL0     C32742  -2.460   4.142   2.768 -0.0281  1.0895  0.4662
  984MOL0     C32743  -2.608   4.191   2.741 -0.6064 -0.9090 -0.4017
  984MOL0     C32744  -2.706   4.073   2.701  0.7977  0.2215 -0.1361
  984MOL0     C32745  -2.852   4.103   2.669 -0.8029 -0.2583  0.2803
  984MOL0     C32746  -2.944   3.980   2.662  0.9345  0.0713  0.3360
  984MOL0     C32747  -3.085   4.032   2.626 -0.8557  0.5957 -0.0392
  984MOL0     C32748  -3.189   3.919   2.603  0.2753  0.7953  0.6389
  984MOL0     C32749  -3.166   3.839   2.469  0.2611 -0.2979  0.7746
  984MOL0    Cl32750  -3.302   3.722   2.471  0.1110  0.5191  0.4562
  984MOL0     C32751  -2.337   3.876   2.982  0.1418  0.1052  0.2607
  984MOL0     C32752  -2.221   3.799   3.003  0.6908  0.2196  0.1529
  984MOL0     O32753  -2.010   3.821   3.189  0.1543  0.0425  0.7477
  984MOL0     C32754  -1.746   3.650   3.025 -0.0320 -0.5392 -0.5220
  984MOL0     C32755  -1.632   3.572   3.041  0.1012 -0.0524 -0.6655
  984MOL0     N32756  -0.947   3.397   3.097  0.0599  0.3717  0.5086
  984MOL0     N32757  -0.846   3.478   3.098  0.2436 -0.3250  0.2965
  984MOL0     C32758   0.323   3.965   3.242  0.0140 -1.0083  0.0458
  984MOL0     C32759   0.394   4.039   3.340  0.6466 -0.6831  0.3851
  984MOL0     C32760   0.570   4.151   3.743 -0.3552 -0.9961 -0.3457
  984MOL0     C32761   0.668   4.094   3.825  0.2025  0.7863  0.1188
  984MOL0     C32762   0.762   4.172   3.894  0.0184  0.0590  0.1906
  984MOL0     C32763   0.772   4.305   3.865 -0.4083  1.3810  0.1153
  984MOL0     O32764   0.870   4.381   3.924 -0.1230  0.6670  0.3653
  984MOL0     C32765   0.860   4.516   3.926 -0.1290 -0.1541 -0.5031
  984MOL0     C32766   0.989   4.586   3.980 -0.0500  0.5069  0.0996
  984MOL0     C32767   1.043   4.523   4.107 -0.3995  0.1647  0.0557
  984MOL0     C32768   1.148   4.614   4.160  0.0365 -0.2347  0.6974
  984MOL0     C32769   1.192   4.581   4.288 -0.4713  0.9934  0.0992
  984MOL0     C32770   1.215   4.575   4.404 -0.4181 -0.2316  0.4191
  984MOL0     C32771   0.675   4.362   3.785  0.4818 -0.3394 -0.2030
  984MOL0     C32772   0.577   4.284   3.714 -0.0895  0.0919 -0.8601
  984MOL0     H32773   0.179   4.070   3.583  1.0674 -1.0349  1.1784
  984MOL0     H32774   0.042   3.930   3.418  0.6110  1.6443 -0.4750
  984MOL0     H32775  -0.026   3.742   3.103 -0.2581  1.3561 -0.5303
  984MOL0     H32776  -0.015   3.750   3.282 -0.0487 -0.6304 -0.6486
  984MOL0     H32777  -0.104   3.982   3.283 -1.9789 -1.1641  0.0611
  984MOL0     H32778  -0.087   3.981   3.105  2.8007  0.5652  0.5477
  984MOL0     H32779  -0.322   3.953   3.180 -3.5437 -2.5245  0.7380
  984MOL0     H32780  -0.266   3.810   3.089  0.3721 -0.8616  0.4973
  984MOL0     H32781  -0.236   3.683   3.292  2.5380  1.7846 -1.0198
  984MOL0     H32782  -0.274   3.818   3.390 -2.4389  1.5389  0.0324
  984MOL0     H32783  -0.501   3.837   3.266 -0.9140 -0.5672  0.9560
  984MOL0     H32784  -0.436   3.694   3.179  1.9182  0.1052 -0.1390
  984MOL0     H32785  -0.425   3.574   3.413  0.3624 -0.2398 -1.3113
  984MOL0     H32786  -0.488   3.729   3.477 -0.0686  0.2086  0.6882
  984MOL0     H32787  -0.674   3.581   3.457 -0.4732  1.7315  1.1211
  984MOL0     H32788  -0.689   3.716   3.340 -1.4675 -1.6596  0.1384
  984MOL0     H32789  -0.561   3.460   3.261  0.1695  1.4799  2.5121
  984MOL0     H32790  -0.617   3.587   3.153  1.6233  0.2834 -0.0082
  984MOL0     H32791  -0.833   3.348   3.397 -0.6140 -1.2375  0.1079
  984MOL0     H32792  -1.092   3.193   3.201  1.3052 -0.2515  0.4035
  984MOL0     H32793  -1.088   3.232   3.373  0.5038  1.2620  0.7592
  984MOL0     H32794  -1.199   3.441   3.174 -2.4344 -0.9648 -0.5464
  984MOL0     H32795  -1.198   3.458   3.338 -1.7050  0.7045 -0.5550
  984MOL0     H32796  -1.321   3.236   3.377  3.7930 -0.6349 -0.4738
  984MOL0     H32797  -1.342   3.213   3.200  4.6522  0.2467 -1.0306
  984MOL0     H32798  -1.442   3.452   3.373 -2.4583  0.5074  0.8644
  984MOL0     H32799  -1.540   3.308   3.307 -0.5996 -0.1051 -0.2279
  984MOL0     H32800  -1.634   3.539   3.381  0.7357  0.1459 -0.4621
  984MOL0     H32801  -1.876   3.770   3.420 -1.8197  0.3082 -0.0858
  984MOL0     H32802  -1.980   3.638   3.380  0.0614  0.0066 -1.2869
  984MOL0     H32803  -1.834   3.608   3.479 -2.4231 -2.3561 -0.1575
  984MOL0     H32804  -1.997   3.960   2.818  1.4824  0.1083  2.4498
  984MOL0     H32805  -2.193   4.113   2.777  0.7509  0.1841  0.7734
  984MOL0     H32806  -2.402   4.233   2.791  2.6990 -0.0267 -1.3983
  984MOL0     H32807  -2.417   4.100   2.677 -2.3390 -1.2093  0.3315
  984MOL0     H32808  -2.644   4.232   2.835  0.7693 -1.0703  0.2270
  984MOL0     H32809  -2.612   4.273   2.668 -1.1773  2.4037  3.0389
  984MOL0     H32810  -2.694   4.003   2.785  1.4082  1.9210  1.2418
  984MOL0     H32811  -2.677   4.026   2.606 -1.9740  1.7941 -1.9075
  984MOL0     H32812  -2.896   4.164   2.748  0.4866 -0.4927  1.2049
  984MOL0     H32813  -2.856   4.162   2.577  0.6389  0.9701  0.9445
  984MOL0     H32814  -2.948   3.930   2.759 -0.8942  2.7699  1.7892
  984MOL0     H32815  -2.910   3.916   2.581 -2.4524  0.1602 -1.3274
  984MOL0     H32816  -3.118   4.088   2.714  0.1190  2.6651 -0.9330
  984MOL0     H32817  -3.088   4.092   2.535 -0.5745 -0.1588 -0.5510
  984MOL0     H32818  -3.291   3.960   2.608  0.3708  1.1159  0.0984
  984MOL0     H32819  -3.198   3.846   2.684 -0.2223  0.6974  0.5010
  984MOL0     H32820  -3.068   3.794   2.455  0.9081  1.6870 -1.6936
  984MOL0     H32821  -3.185   3.901   2.381  2.0177 -0.5600  0.1820
  984MOL0     H32822  -2.434   3.846   3.022 -0.1095  0.1931 -0.2671
  984MOL0     H32823  -2.248   3.717   3.069 -2.1732 -1.1485 -2.4345
  984MOL0     H32824  -1.782   3.674   2.925 -1.4675  1.4796  0.4024
  984MOL0     H32825  -1.593   3.541   2.944 -2.0235 -2.9108 -0.7475
  984MOL0     H32826   0.362   3.938   3.144 -0.9682  3.7425 -1.9531
  984MOL0     H32827   0.482   4.088   3.300 -0.8977  3.4360  1.5192
  984MOL0     H32828   0.666   3.992   3.861 -1.2232  1.7650  3.1515
  984MOL0     H32829   0.840   4.126   3.955  1.1040  2.7055  0.9683
  984MOL0     H32830   0.851   4.548   3.822 -0.7208  0.6563 -0.2170
  984MOL0     H32831   0.766   4.541   3.977 -0.2553 -1.3204 -0.1321
  984MOL0     H32832   0.981   4.695   3.985  1.4500  0.5998  0.6706
  984MOL0     H32833   1.055   4.578   3.893  0.2215  0.9265  0.2662
  984MOL0     H32834   1.076   4.420   4.092 -2.3728 -0.8976  2.2494
  984MOL0     H32835   0.965   4.520   4.183 -0.8159  1.9225 -0.2507
  984MOL0     H32836   1.111   4.716   4.166  1.3793  0.2357  1.3900
  984MOL0     H32837   1.225   4.609   4.081  0.2031  2.2208  0.6377
  984MOL0     H32838   1.232   4.578   4.510 -0.8004  0.3949  0.4645
  984MOL0     H32839   0.660   4.466   3.757 -2.8237 -0.4460  0.7074
  984MOL0     H32840   0.496   4.327   3.656 -1.7418 -0.5769  0.8515
  985MOL0     O32841   2.654   2.317   6.008  0.9692  0.1618  0.4046
  985MOL0     C32842   2.711   2.295   5.898  0.1024  0.0370 -0.5351
  985MOL0     O32843   2.657   2.261   5.780  0.0800 -0.2230 -0.0327
  985MOL0     C32844   2.528   2.220   5.785  0.2278  0.1720 -0.3525
  985MOL0     C32845   2.444   2.279   5.693  0.1347  0.4288 -0.1194
  985MOL0     C32846   2.313   2.228   5.686 -0.3830 -0.3384  0.4644
  985MOL0     C32847   2.269   2.137   5.781  0.0102  0.1203 -0.6028
  985MOL0     O32848   2.144   2.083   5.774 -0.1403  0.2892 -0.0736
  985MOL0     C32849   2.036   2.171   5.726 -1.1064  1.3417  0.1868
  985MOL0     C32850   1.898   2.111   5.769  0.8960  0.3441 -0.6409
  985MOL0     C32851   1.781   2.156   5.685 -0.0025 -0.1409  0.3819
  985MOL0     C32852   1.664   2.065   5.717  0.4832  0.0800 -0.5282
  985MOL0     C32853   1.539   2.128   5.662 -0.7442  0.6186  0.7935
  985MOL0     C32854   1.422   2.039   5.694  0.0028 -0.8853 -0.2784
  985MOL0     C32855   1.307   2.064   5.597  0.1757  0.8839  0.6281
  985MOL0     C32856   1.191   1.979   5.645 -0.0835 -0.0064  1.6144
  985MOL0     N32857   1.080   1.959   5.552  0.0455  0.1262 -0.0745
  985MOL0     C32858   0.983   2.049   5.524 -1.1903 -0.0548  0.0746
  985MOL0     C32859   0.898   1.973   5.447  0.2132  1.0583 -0.6561
  985MOL0     C32860   0.773   2.021   5.377  0.1951  0.0958  0.4919
  985MOL0     C32861   0.645   2.005   5.449  0.3432 -0.0990 -0.5108
  985MOL0     C32862   0.621   1.847   5.448 -0.5388 -0.1644 -0.3723
  985MOL0     C32863   0.484   1.813   5.516  0.0692  0.1832  0.5468
  985MOL0     O32864   0.375   1.874   5.448  0.6067 -0.6987  0.0859
  985MOL0     C32865   0.263   1.895   5.521 -0.4315 -0.1627 -0.6578
  985MOL0     C32866   0.210   2.018   5.505  0.8482 -0.2487  0.0754
  985MOL0     C32867   0.093   2.053   5.575  0.2224  0.3116 -0.1510
  985MOL0     C32868   0.029   2.181   5.536 -0.7372 -0.5890  0.5107
  985MOL0     C32869   0.037   1.959   5.672 -0.5173 -0.2170 -0.1334
  985MOL0     C32870  -0.082   1.984   5.759  0.2829  1.3102  0.3405
  985MOL0     O32871  -0.117   1.887   5.850  0.1254 -0.9507 -0.8998
  985MOL0     C32872  -0.224   1.897   5.931  1.1840  0.0175 -0.7626
  985MOL0     C32873  -0.270   1.768   5.973 -0.0037 -0.1061 -0.0056
  985MOL0     C32874  -0.376   1.766   6.065  0.0000 -0.9575 -0.6241
  985MOL0     C32875  -0.442   1.887   6.115 -0.0974  0.7037  0.5285
  985MOL0     O32876  -0.563   1.872   6.177  0.2701 -0.0796  0.0572
  985MOL0     C32877  -0.656   1.979   6.168 -0.1796 -0.7665  0.2722
  985MOL0     C32878  -0.799   1.951   6.219 -0.7357 -0.1569 -0.0861
  985MOL0     C32879  -0.887   2.075   6.202  0.6286 -0.6417 -0.0385
  985MOL0     C32880  -1.032   2.032   6.217 -0.2369 -0.3903 -0.5395
  985MOL0     C32881  -1.138   2.146   6.213 -0.4014  1.0726 -0.7198
  985MOL0     C32882  -1.273   2.095   6.267 -1.4061  0.4183  0.5403
  985MOL0     C32883  -1.363   2.216   6.266 -0.0809  0.1354  0.1170
  985MOL0     C32884  -1.481   2.201   6.351 -0.3478 -0.0742 -0.1783
  985MOL0    Cl32885  -1.583   2.060   6.303  0.1131  0.0661  0.1127
  985MOL0     C32886  -0.393   2.012   6.068  0.5370  0.3201 -0.4385
  985MOL0     C32887  -0.283   2.011   5.984  0.2679  0.3861 -0.1417
  985MOL0     O32888  -0.144   2.077   5.728  0.2748 -0.2847 -0.1982
  985MOL0     C32889   0.099   1.828   5.688 -0.8003 -0.8710  0.0452
  985MOL0     C32890   0.205   1.798   5.608 -0.4146  0.8637  0.3238
  985MOL0     N32891   0.952   1.842   5.426 -0.6540  0.3431  0.1042
  985MOL0     N32892   1.063   1.839   5.488  0.0533  0.2871 -0.0137
  985MOL0     C32893   2.346   2.086   5.877  0.0415  0.7735 -0.3700
  985MOL0     C32894   2.479   2.127   5.884  0.1721  1.1748  1.1708
  985MOL0     C32895   2.851   2.330   5.903 -0.1272  0.2626 -0.3084
  985MOL0     C32896   2.929   2.330   5.787 -0.4131 -0.0927  0.3267
  985MOL0     C32897   3.071   2.339   5.789  0.0324  0.4530 -0.1758
  985MOL0     C32898   3.150   2.346   5.912 -0.9229  0.6833  0.0251
  985MOL0     O32899   3.286   2.371   5.916  0.5347  0.1294 -1.1758
  985MOL0     C32900   3.359   2.381   5.794 -0.1948  0.4646 -0.5929
  985MOL0     C32901   3.500   2.434   5.825 -0.6035 -0.0947 -0.2861
  985MOL0     C32902   3.588   2.327   5.896 -0.7657  0.0745 -0.2024
  985MOL0     C32903   3.738   2.357   5.883  0.4872  0.0245  0.3091
  985MOL0     C32904   3.783   2.474   5.956 -0.3928 -0.3672  1.1822
  985MOL0     C32905   3.799   2.569   6.022  0.4456  0.3493  0.2271
  985MOL0     C32906   3.072   2.363   6.034  0.3237 -0.3805 -0.8899
  985MOL0     C32907   2.926   2.356   6.026  0.5948 -0.6075 -0.0528
  985MOL0     H32908   2.472   2.354   5.620 -0.3807  1.2161  0.4719
  985MOL0     H32909   2.252   2.253   5.600  0.4445 -2.1782 -0.7331
  985MOL0     H32910   2.037   2.272   5.767 -2.2129  1.0197  1.0688
  985MOL0     H32911   2.042   2.186   5.617 -2.6208  0.8034  0.0021
  985MOL0     H32912   1.888   2.002   5.759 -0.7579  0.6591 -3.6773
  985MOL0     H32913   1.884   2.130   5.875 -0.6538  0.7755 -0.9120
  985MOL0     H32914   1.760   2.264   5.687  2.6576  0.5164 -1.5621
  985MOL0     H32915   1.818   2.134   5.585  0.7010  3.9977 -0.4893
  985MOL0     H32916   1.676   1.963   5.680 -0.8026 -0.3658  0.1968
  985MOL0     H32917   1.653   2.061   5.826 -0.7153 -0.9968 -0.6693
  985MOL0     H32918   1.517   2.227   5.703 -2.2388  0.6529 -0.0490
  985MOL0     H32919   1.552   2.132   5.554 -0.6666 -1.6959  0.6772
  985MOL0     H32920   1.446   1.932   5.696 -0.1484 -0.9149  0.6319
  985MOL0     H32921   1.390   2.069   5.795  0.6503 -3.4263  0.7622
  985MOL0     H32922   1.285   2.171   5.602 -0.8863  0.8603 -2.0488
  985MOL0     H32923   1.337   2.042   5.494 -3.0425  3.6208 -1.0895
  985MOL0     H32924   1.156   2.019   5.741  0.1540  0.2505  1.5953
  985MOL0     H32925   1.226   1.880   5.678 -3.7712 -1.3478  2.0857
  985MOL0     H32926   0.968   2.150   5.560 -2.6124  0.5306 -1.9364
  985MOL0     H32927   0.792   2.128   5.358  2.6767 -0.7916 -3.2356
  985MOL0     H32928   0.764   1.966   5.283 -1.5672 -1.2194  1.3926
  985MOL0     H32929   0.563   2.051   5.392 -2.3616 -2.6860  1.0334
  985MOL0     H32930   0.656   2.060   5.542  1.6521 -0.8375 -0.2064
  985MOL0     H32931   0.695   1.794   5.507 -1.6729  0.2424  1.4808
  985MOL0     H32932   0.619   1.804   5.347 -1.3971 -1.3209  0.1176
  985MOL0     H32933   0.493   1.845   5.621  1.1119  0.7464  0.2999
  985MOL0     H32934   0.475   1.704   5.516 -1.4790  0.2884  1.1793
  985MOL0     H32935   0.266   2.095   5.452  1.8956  1.0926  2.9100
  985MOL0     H32936   0.083   2.226   5.453 -1.0481  0.2702  0.7696
  985MOL0     H32937  -0.068   2.149   5.499 -0.5143 -2.2736  1.2690
  985MOL0     H32938   0.016   2.258   5.612 -0.9240 -0.0461 -0.0675
  985MOL0     H32939  -0.214   1.679   5.947  0.5113  0.0583  0.5302
  985MOL0     H32940  -0.400   1.665   6.097  1.0312 -1.0007  0.0882
  985MOL0     H32941  -0.613   2.060   6.228  0.4944 -2.4086  2.0882
  985MOL0     H32942  -0.674   2.001   6.062 -2.8114  1.8086  1.1279
  985MOL0     H32943  -0.850   1.877   6.157 -0.0671  0.2941 -1.2100
  985MOL0     H32944  -0.788   1.919   6.323  0.2848  1.1190  0.2231
  985MOL0     H32945  -0.883   2.123   6.104 -0.2666  1.5388  0.9151
  985MOL0     H32946  -0.869   2.148   6.281  1.0460  0.0475 -0.7494
  985MOL0     H32947  -1.045   1.957   6.138 -2.5741  2.1527 -2.7706
  985MOL0     H32948  -1.043   1.978   6.312 -2.1498  0.2206 -0.3791
  985MOL0     H32949  -1.138   2.184   6.110 -0.9847 -0.7356 -1.4270
  985MOL0     H32950  -1.098   2.227   6.275 -1.7039  0.8780  0.4032
  985MOL0     H32951  -1.309   2.012   6.204  1.6616 -2.3390  2.1459
  985MOL0     H32952  -1.259   2.060   6.369  2.0349 -0.8508 -0.2502
  985MOL0     H32953  -1.397   2.238   6.164 -0.1791 -0.8052 -0.0616
  985MOL0     H32954  -1.311   2.307   6.299 -0.4923  0.8830 -1.2356
  985MOL0     H32955  -1.541   2.290   6.333 -0.2356  0.0747  0.1789
  985MOL0     H32956  -1.446   2.194   6.454 -2.1279 -0.1150  0.4469
  985MOL0     H32957  -0.429   2.105   6.110 -0.0505 -1.0654  2.4097
  985MOL0     H32958  -0.245   2.108   5.953 -2.6801  1.4671 -0.7514
  985MOL0     H32959   0.053   1.748   5.746  0.9461 -2.8707 -1.1988
  985MOL0     H32960   0.249   1.700   5.618 -0.5676  0.6705 -0.7704
  985MOL0     H32961   2.319   2.015   5.955 -1.0641 -1.9557 -3.0212
  985MOL0     H32962   2.546   2.077   5.953 -2.5767 -0.5020  2.8274
  985MOL0     H32963   2.884   2.323   5.689 -0.5833  1.6015  0.2627
  985MOL0     H32964   3.118   2.349   5.692  3.1873  0.3942  1.2269
  985MOL0     H32965   3.359   2.284   5.744 -0.5099  1.5875 -2.9235
  985MOL0     H32966   3.319   2.457   5.726 -0.8805  0.3020 -0.3848
  985MOL0     H32967   3.495   2.510   5.902  1.0617 -0.9741  0.7530
  985MOL0     H32968   3.550   2.478   5.738 -0.2381  0.1426  0.0439
  985MOL0     H32969   3.568   2.237   5.837 -1.8559  0.2364 -0.0943
  985MOL0     H32970   3.559   2.314   6.000  0.0335 -0.6709 -0.0578
  985MOL0     H32971   3.760   2.387   5.780 -1.0643  0.5422  0.1029
  985MOL0     H32972   3.799   2.270   5.909  1.0595  0.9889  2.4123
  985MOL0     H32973   3.830   2.657   6.074 -3.4175  0.1602  3.2856
  985MOL0     H32974   3.141   2.377   6.116  3.2339  1.4432 -3.3989
  985MOL0     H32975   2.864   2.376   6.113  1.2511 -0.0078  0.2953
  986MOL0     O32976   1.317   7.390   6.101 -0.6593 -0.2258 -0.1525
  986MOL0     C32977   1.325   7.411   5.978 -0.3050  0.1817  0.4255
  986MOL0     O32978   1.232   7.383   5.884  0.1131  0.7320 -0.3425
  986MOL0     C32979   1.121   7.317   5.928  0.6861 -0.3501  0.1703
  986MOL0     C32980   0.997   7.370   5.888  0.7176  0.1406  0.7694
  986MOL0     C32981   0.878   7.295   5.917  0.3846  0.0963  1.0717
  986MOL0     C32982   0.883   7.179   5.994 -0.3736 -0.1633 -0.6331
  986MOL0     O32983   0.772   7.100   6.013 -0.0019  0.0858 -0.0051
  986MOL0     C32984   0.655   7.108   5.940  0.7887  0.0513 -0.2217
  986MOL0     C32985   0.533   7.150   6.033 -0.1687  0.6479  0.4054
  986MOL0     C32986   0.404   7.087   5.997  0.1656 -0.1762 -0.1120
  986MOL0     C32987   0.306   7.131   6.105  0.2934 -0.0554 -0.2664
  986MOL0     C32988   0.168   7.067   6.079 -0.0472 -0.5648  0.2552
  986MOL0     C32989   0.062   7.120   6.172  0.6349 -0.3968  0.1490
  986MOL0     C32990  -0.059   7.027   6.180 -0.2127  0.2577 -0.3767
  986MOL0     C32991  -0.117   6.990   6.048  0.7471 -0.2008 -0.2122
  986MOL0     N32992  -0.234   6.894   6.053 -0.1743  0.0464 -0.4406
  986MOL0     C32993  -0.224   6.767   6.107 -0.0474  0.4675  0.4100
  986MOL0     C32994  -0.350   6.714   6.093  0.1826 -0.6366  0.2028
  986MOL0     C32995  -0.389   6.579   6.145 -0.3861  0.5865  0.5154
  986MOL0     C32996  -0.498   6.587   6.246  0.6083 -0.7138  0.4896
  986MOL0     C32997  -0.592   6.470   6.225  0.3008 -0.1039 -0.3008
  986MOL0     C32998  -0.686   6.445   6.345 -0.9657 -0.0032 -0.2069
  986MOL0     O32999  -0.775   6.550   6.360 -0.2700 -0.2130  0.8774
  986MOL0     C33000  -0.886   6.524   6.439 -0.4145  0.3606 -0.1329
  986MOL0     C33001  -0.999   6.609   6.423 -0.5889 -0.1418 -0.2110
  986MOL0     C33002  -1.107   6.599   6.512 -0.0048  0.2950  0.4681
  986MOL0     C33003  -1.218   6.700   6.507  0.5099  1.0449  0.2950
  986MOL0     C33004  -1.111   6.493   6.606 -0.4496 -0.1030 -0.0353
  986MOL0     C33005  -1.230   6.474   6.701 -0.2855 -0.0002 -0.8092
  986MOL0     O33006  -1.357   6.482   6.654  0.0187  0.2634  0.1235
  986MOL0     C33007  -1.460   6.453   6.746 -0.2458 -0.3809  0.4993
  986MOL0     C33008  -1.506   6.541   6.833  0.0994  0.1738  0.4184
  986MOL0     C33009  -1.615   6.520   6.917 -0.0480 -0.8818 -0.2095
  986MOL0     C33010  -1.675   6.391   6.920  0.2411 -0.1646 -0.1632
  986MOL0     O33011  -1.784   6.370   7.010  0.1846  0.1658 -0.1132
  986MOL0     C33012  -1.853   6.242   6.989 -0.3327 -0.8608 -0.1608
  986MOL0     C33013  -1.980   6.261   7.054 -0.7713  0.4173  0.0327
  986MOL0     C33014  -2.066   6.140   7.023 -0.4596  0.3200  0.6201
  986MOL0     C33015  -2.211   6.159   7.077 -0.9152 -0.8708 -0.1087
  986MOL0     C33016  -2.300   6.049   7.026  0.9370 -0.2952  0.6666
  986MOL0     C33017  -2.436   6.057   7.099  0.2258 -0.3205 -0.4839
  986MOL0     C33018  -2.526   5.937   7.059  0.1829 -0.9350  0.6583
  986MOL0     C33019  -2.634   5.922   7.161  0.2295 -0.4390  0.0654
  986MOL0    Cl33020  -2.572   5.845   7.301 -0.3578  0.3601  0.4447
  986MOL0     C33021  -1.627   6.295   6.825 -0.4492 -0.2986  0.1908
  986MOL0     C33022  -1.516   6.327   6.739 -0.1956 -0.0121 -0.0615
  986MOL0     O33023  -1.202   6.468   6.821 -0.0677 -0.0005  0.1047
  986MOL0     C33024  -1.007   6.400   6.611  0.9700 -1.0828 -0.0091
  986MOL0     C33025  -0.899   6.414   6.526 -0.4444 -0.1364  0.2435
  986MOL0     N33026  -0.434   6.817   6.042 -0.5316  1.3505 -0.1264
  986MOL0     N33027  -0.365   6.919   6.016  0.2328  0.1420 -0.3451
  986MOL0     C33028   1.007   7.137   6.039 -0.7867 -0.2032  0.4454
  986MOL0     C33029   1.130   7.196   5.998 -0.1522  0.0499 -0.9077
  986MOL0     C33030   1.453   7.467   5.923 -0.3181 -0.0955 -0.0261
  986MOL0     C33031   1.470   7.501   5.785  0.5593 -0.5263 -0.8101
  986MOL0     C33032   1.579   7.579   5.748 -0.1382  0.7900  0.8838
  986MOL0     C33033   1.690   7.597   5.834 -0.1839  0.5406  0.3373
  986MOL0     O33034   1.806   7.660   5.783  0.1807  0.2956 -0.2704
  986MOL0     C33035   1.837   7.779   5.846  0.5576 -0.2535  0.0956
  986MOL0     C33036   1.714   7.869   5.860  0.1481 -0.1330 -0.6208
  986MOL0     C33037   1.766   7.999   5.929 -0.8225  0.6912  0.7007
  986MOL0     C33038   1.657   8.094   5.934  0.5244  0.2163  0.9666
  986MOL0     C33039   1.710   8.218   5.987 -0.0746 -0.5543  0.7293
  986MOL0     C33040   1.788   8.295   6.049 -0.2286 -0.1811  1.0240
  986MOL0     C33041   1.677   7.556   5.964  0.2436 -0.0845  0.9306
  986MOL0     C33042   1.566   7.485   6.007 -0.3971  0.8575  0.2397
  986MOL0     H33043   0.990   7.454   5.819  1.5003 -0.6141 -0.2670
  986MOL0     H33044   0.781   7.338   5.892  0.8744  0.8168  0.3752
  986MOL0     H33045   0.656   7.188   5.866 -0.0272 -0.9480 -1.3491
  986MOL0     H33046   0.638   7.011   5.892 -2.4078  0.0968  0.5995
  986MOL0     H33047   0.561   7.137   6.138 -2.6491  0.6934  1.1320
  986MOL0     H33048   0.522   7.259   6.027  1.8061  0.7994 -1.3857
  986MOL0     H33049   0.365   7.135   5.906  3.1864  5.1864  0.9921
  986MOL0     H33050   0.414   6.979   5.986 -4.9542 -0.7405 -2.1976
  986MOL0     H33051   0.342   7.100   6.203  0.4969 -1.3712 -0.7434
  986MOL0     H33052   0.301   7.240   6.100  2.7606  0.3224  2.4546
  986MOL0     H33053   0.142   7.083   5.973 -1.2323  0.3980  0.6537
  986MOL0     H33054   0.188   6.962   6.099  1.8377 -0.1179  0.9300
  986MOL0     H33055   0.101   7.136   6.272  0.6964 -1.3034  0.2777
  986MOL0     H33056   0.019   7.207   6.122 -2.9424 -1.1102  1.6216
  986MOL0     H33057  -0.034   6.930   6.222 -3.0924 -0.9218 -1.1180
  986MOL0     H33058  -0.135   7.060   6.252  0.6551 -0.1984  0.7818
  986MOL0     H33059  -0.044   6.931   5.993 -0.1176 -1.9717  0.4768
  986MOL0     H33060  -0.141   7.082   5.993 -1.5002  0.1821  1.2762
  986MOL0     H33061  -0.138   6.718   6.152  0.2215  0.7662  0.2282
  986MOL0     H33062  -0.424   6.520   6.060  0.0198 -1.0906  1.4722
  986MOL0     H33063  -0.300   6.532   6.187  0.4300  1.2406 -0.4080
  986MOL0     H33064  -0.554   6.681   6.247  0.7616 -0.6048 -0.4523
  986MOL0     H33065  -0.447   6.581   6.343 -1.8124 -0.8147  1.8356
  986MOL0     H33066  -0.545   6.373   6.207 -1.0469 -1.0965  1.1560
  986MOL0     H33067  -0.668   6.481   6.147 -2.7210 -0.3776  2.3746
  986MOL0     H33068  -0.631   6.434   6.439 -0.9730  0.3560 -0.1573
  986MOL0     H33069  -0.739   6.353   6.322  0.5778 -0.4178 -2.3601
  986MOL0     H33070  -0.997   6.684   6.345  0.3033 -0.3435 -0.3948
  986MOL0     H33071  -1.254   6.732   6.605 -2.4285 -0.6381 -0.1069
  986MOL0     H33072  -1.184   6.790   6.454  3.6734  0.4599  1.1333
  986MOL0     H33073  -1.302   6.656   6.452  0.6427 -0.3728  1.1796
  986MOL0     H33074  -1.458   6.639   6.829  0.1949  0.0907 -1.2151
  986MOL0     H33075  -1.648   6.599   6.984 -0.4934  0.9918 -2.5027
  986MOL0     H33076  -1.870   6.230   6.882  1.9524  0.1195 -0.7073
  986MOL0     H33077  -1.792   6.157   7.022  0.1341 -0.4184  0.1325
  986MOL0     H33078  -1.976   6.289   7.159  0.3073  1.7700 -0.3411
  986MOL0     H33079  -2.031   6.340   6.997 -2.0351 -0.0658  0.4657
  986MOL0     H33080  -2.029   6.046   7.066 -0.2320  0.2878  0.3597
  986MOL0     H33081  -2.063   6.127   6.914 -1.8927 -3.3100  0.8571
  986MOL0     H33082  -2.200   6.154   7.185  1.9670  0.9252 -0.2118
  986MOL0     H33083  -2.246   6.260   7.051 -0.3590 -1.5306 -3.9878
  986MOL0     H33084  -2.258   5.951   7.049  2.3244 -0.2826 -1.5088
  986MOL0     H33085  -2.311   6.065   6.918 -1.4541  0.0518  0.9192
  986MOL0     H33086  -2.409   6.059   7.205 -0.9419  0.0747 -0.1740
  986MOL0     H33087  -2.488   6.147   7.064  0.5808  0.5612  1.1579
  986MOL0     H33088  -2.468   5.844   7.065  0.2467 -0.8349  1.7832
  986MOL0     H33089  -2.565   5.947   6.957  0.0173 -1.9695  0.5997
  986MOL0     H33090  -2.717   5.870   7.113 -0.2333 -0.0773  0.4652
  986MOL0     H33091  -2.665   6.023   7.189 -1.1824 -1.4974  2.6325
  986MOL0     H33092  -1.659   6.192   6.837  0.3523 -0.6346 -0.4370
  986MOL0     H33093  -1.488   6.254   6.664 -3.2104  0.3252 -1.7079
  986MOL0     H33094  -1.015   6.314   6.678  0.9607 -1.1879 -0.1437
  986MOL0     H33095  -0.822   6.338   6.536  0.6258  0.9739  0.8369
  986MOL0     H33096   1.004   7.046   6.098  0.0273 -2.1152 -2.2991
  986MOL0     H33097   1.223   7.156   6.037 -0.1741  1.1420  0.3258
  986MOL0     H33098   1.387   7.478   5.718 -0.4715  1.8867 -0.4616
  986MOL0     H33099   1.587   7.621   5.649  2.9395 -1.0743  0.1897
  986MOL0     H33100   1.888   7.753   5.940  2.2833  0.3158 -0.6391
  986MOL0     H33101   1.908   7.833   5.782  0.8878 -0.2089  0.4909
  986MOL0     H33102   1.643   7.820   5.927  0.6172 -0.2908 -0.2218
  986MOL0     H33103   1.673   7.896   5.763  1.6434  0.9652 -0.9922
  986MOL0     H33104   1.846   8.037   5.864  2.1335 -3.9269  1.1746
  986MOL0     H33105   1.811   7.977   6.026  2.6122  2.8322 -0.2299
  986MOL0     H33106   1.565   8.060   5.983 -1.0313  0.9938 -1.2695
  986MOL0     H33107   1.628   8.115   5.831  0.2258  1.9872  1.3886
  986MOL0     H33108   1.865   8.360   6.089  0.9932 -1.2914  0.5550
  986MOL0     H33109   1.754   7.569   6.040 -0.7669 -0.5603  2.0721
  986MOL0     H33110   1.564   7.456   6.112  1.1158  1.4462  0.4513
  987MOL0     O33111   8.768  10.101   2.168  0.0152  0.0810 -0.1124
  987MOL0     C33112   8.854  10.114   2.257  0.0227  0.1274  0.5108
  987MOL0     O33113   8.833  10.101   2.387  0.2231 -0.7732 -0.3072
  987MOL0     C33114   8.713  10.074   2.449  0.3598  0.6010  0.0733
  987MOL0     C33115   8.604   9.999   2.382 -1.2572  0.4063 -0.8908
  987MOL0     C33116   8.485   9.970   2.456 -0.5342  0.0202 -0.1967
  987MOL0     C33117   8.469  10.009   2.584  0.5661 -0.5460 -0.6397
  987MOL0     O33118   8.360   9.959   2.653 -0.0382 -0.3808  0.4215
  987MOL0     C33119   8.354   9.988   2.797  0.5162  0.3375 -0.1341
  987MOL0     C33120   8.214   9.975   2.858 -0.5370  0.4147 -0.0937
  987MOL0     C33121   8.111  10.071   2.790  0.2259 -0.1335  0.7961
  987MOL0     C33122   7.977  10.043   2.853 -0.4085 -0.2512 -0.1676
  987MOL0     C33123   7.856  10.127   2.800 -0.0032  0.4471  0.3164
  987MOL0     C33124   7.729  10.061   2.831  1.0883 -0.2186 -0.3881
  987MOL0     C33125   7.605  10.128   2.781 -0.1284 -0.3974 -0.3123
  987MOL0     C33126   7.563  10.250   2.873 -0.2366 -0.0552  0.1669
  987MOL0     N33127   7.417  10.277   2.853  0.1800 -0.4355  0.8316
  987MOL0     C33128   7.369  10.316   2.726 -0.3434  0.0729 -0.3248
  987MOL0     C33129   7.229  10.325   2.744  0.3823  0.1421 -0.6653
  987MOL0     C33130   7.146  10.386   2.631 -0.3827  0.1848 -0.0456
  987MOL0     C33131   7.013  10.319   2.612  0.2010 -0.6443  0.3246
  987MOL0     C33132   6.943  10.401   2.497 -0.4864  0.1522  0.2984
  987MOL0     C33133   6.803  10.349   2.488 -0.4791  1.2865 -0.2680
  987MOL0     O33134   6.725  10.395   2.599  0.1621  0.4493 -0.2971
  987MOL0     C33135   6.588  10.375   2.605  0.2670 -0.0695 -0.1383
  987MOL0     C33136   6.510  10.438   2.697 -0.3571  0.0586 -0.8217
  987MOL0     C33137   6.376  10.430   2.716  0.0550  0.2300 -0.6329
  987MOL0     C33138   6.312  10.515   2.828 -0.7227 -0.1850 -0.4665
  987MOL0     C33139   6.307  10.346   2.628 -0.3928 -1.0539 -0.3381
  987MOL0     C33140   6.168  10.305   2.629  0.7572 -0.9324 -0.0487
  987MOL0     O33141   6.125  10.194   2.560 -0.4387 -0.0236 -0.0386
  987MOL0     C33142   6.005  10.147   2.589 -0.5568 -0.3148  0.0858
  987MOL0     C33143   5.898  10.185   2.506 -0.4114  0.5221 -0.6754
  987MOL0     C33144   5.774  10.124   2.524  0.2913 -0.5512  0.1055
  987MOL0     C33145   5.756  10.023   2.623  0.7525  1.0206  0.8407
  987MOL0     O33146   5.630   9.972   2.650 -0.6788  0.0749 -0.6573
  987MOL0     C33147   5.509  10.044   2.601 -0.6292 -0.9181  0.0292
  987MOL0     C33148   5.379  10.009   2.677 -0.5379  0.0167  0.4339
  987MOL0     C33149   5.337   9.867   2.632 -0.3917 -1.0364  0.3121
  987MOL0     C33150   5.222   9.870   2.519 -0.0285 -0.2277  0.0366
  987MOL0     C33151   5.234   9.742   2.435  0.1774  0.6027  0.2406
  987MOL0     C33152   5.111   9.733   2.335  0.6302  0.0669  0.0013
  987MOL0     C33153   5.128   9.637   2.220 -0.6677  0.2574 -0.0698
  987MOL0     C33154   5.018   9.654   2.110 -0.5918 -0.4589  0.4201
  987MOL0    Cl33155   4.858   9.605   2.175  0.2682  0.1406 -0.2132
  987MOL0     C33156   5.863   9.987   2.705  0.4659  0.3859 -0.6929
  987MOL0     C33157   5.988  10.051   2.687  0.2882 -0.2986 -0.8737
  987MOL0     O33158   6.090  10.378   2.695 -0.3508  0.0182  0.2492
  987MOL0     C33159   6.380  10.290   2.526  0.1856  0.7265  0.5599
  987MOL0     C33160   6.517  10.291   2.516 -0.3864 -0.8817  0.1778
  987MOL0     N33161   7.197  10.295   2.882 -0.2856 -0.1261 -0.3238
  987MOL0     N33162   7.308  10.269   2.945 -0.4233  0.1631  0.9353
  987MOL0     C33163   8.570  10.086   2.651 -0.1028 -0.1213  0.4915
  987MOL0     C33164   8.691  10.105   2.582  0.3671  0.0926 -1.1577
  987MOL0     C33165   8.988  10.144   2.202  0.2215  0.3054 -0.7366
  987MOL0     C33166   9.017  10.112   2.071  0.0801  0.0607  0.3106
  987MOL0     C33167   9.152  10.124   2.027  0.1621  0.9814 -0.1946
  987MOL0     C33168   9.255  10.164   2.121  0.4421  0.7156  0.0994
  987MOL0     O33169   9.387  10.172   2.089  0.0865 -0.1421 -0.5993
  987MOL0     C33170   9.441  10.169   1.952  0.9010  0.2318 -0.3928
  987MOL0     C33171   9.571  10.237   1.944 -0.1926 -0.3082 -0.7176
  987MOL0     C33172   9.650  10.192   1.830 -0.2296 -1.2506 -0.6235
  987MOL0     C33173   9.774  10.275   1.831 -0.4769  0.1644  0.0698
  987MOL0     C33174   9.858  10.221   1.730 -0.5483 -0.4482  0.0084
  987MOL0     C33175   9.921  10.172   1.640  0.5454  0.2006  0.0303
  987MOL0     C33176   9.222  10.203   2.257 -0.3613  0.4485 -0.1435
  987MOL0     C33177   9.085  10.192   2.297  0.8096  0.5642 -0.5549
  987MOL0     H33178   8.607   9.963   2.279  1.0932  1.8531 -1.4018
  987MOL0     H33179   8.414   9.899   2.416  0.0872 -0.3451 -0.6772
  987MOL0     H33180   8.428   9.931   2.854  0.5915 -0.7171 -1.2509
  987MOL0     H33181   8.388  10.089   2.821  4.4360 -1.2080  1.7283
  987MOL0     H33182   8.183   9.871   2.851  1.0697 -0.0064 -2.0457
  987MOL0     H33183   8.224  10.007   2.962 -1.5629  1.8357 -0.3950
  987MOL0     H33184   8.137  10.174   2.813 -1.4054  0.6755 -0.7165
  987MOL0     H33185   8.109  10.059   2.681 -1.2532  2.0004  0.5225
  987MOL0     H33186   7.946   9.938   2.851  0.3226 -0.5345 -3.4677
  987MOL0     H33187   7.988  10.072   2.957 -1.2502  1.0342 -0.4050
  987MOL0     H33188   7.865  10.229   2.840  0.8297  0.7890 -0.7173
  987MOL0     H33189   7.868  10.129   2.692  0.7507 -2.2850  0.2880
  987MOL0     H33190   7.733   9.960   2.789  4.7860 -0.4620  0.2420
  987MOL0     H33191   7.734  10.050   2.939  3.6091 -2.1370 -0.6162
  987MOL0     H33192   7.605  10.158   2.676  0.4581  1.7642  0.2520
  987MOL0     H33193   7.522  10.056   2.784 -1.0462  0.4606 -2.7524
  987MOL0     H33194   7.631  10.335   2.859  1.6254 -1.3167  1.3067
  987MOL0     H33195   7.568  10.233   2.980  1.6134  0.4946  0.1914
  987MOL0     H33196   7.423  10.326   2.632  0.8528  1.4503  0.4638
  987MOL0     H33197   7.133  10.493   2.651  3.1138  0.6696  0.2932
  987MOL0     H33198   7.205  10.376   2.540 -1.1919  2.1042 -0.8320
  987MOL0     H33199   6.962  10.337   2.707  1.5704 -0.2221  0.9999
  987MOL0     H33200   7.028  10.213   2.593  0.6425 -0.3330 -1.2521
  987MOL0     H33201   6.992  10.381   2.401 -0.3549  2.1035 -0.0796
  987MOL0     H33202   6.953  10.507   2.520 -3.1463  0.6412 -0.4667
  987MOL0     H33203   6.806  10.240   2.488  1.2477  1.3064 -1.1429
  987MOL0     H33204   6.767  10.390   2.394 -1.4755  1.1224  0.0275
  987MOL0     H33205   6.568  10.507   2.758  1.3267 -2.4691  0.6600
  987MOL0     H33206   6.228  10.579   2.801  0.3788  1.6152  0.2023
  987MOL0     H33207   6.293  10.450   2.914 -1.4637  1.4382  0.6332
  987MOL0     H33208   6.381  10.594   2.860  1.5722 -2.3130  0.2412
  987MOL0     H33209   5.925  10.253   2.426  2.1819  1.3095  0.7305
  987MOL0     H33210   5.691  10.167   2.468 -2.2246 -3.5418  1.2539
  987MOL0     H33211   5.539  10.147   2.617  1.1313 -1.2642 -0.8161
  987MOL0     H33212   5.489  10.025   2.495  0.8094  0.8559 -0.6045
  987MOL0     H33213   5.398  10.015   2.785  0.3910  0.8843  0.2370
  987MOL0     H33214   5.301  10.080   2.649 -1.5838 -1.5090 -0.7020
  987MOL0     H33215   5.305   9.811   2.721 -0.2840 -2.3261 -0.4323
  987MOL0     H33216   5.427   9.820   2.591  1.3214  2.8580 -0.8144
  987MOL0     H33217   5.121   9.878   2.561 -0.2862  1.3629 -0.7732
  987MOL0     H33218   5.241   9.961   2.460  0.9505  1.7032  3.1243
  987MOL0     H33219   5.232   9.654   2.499 -1.4653 -1.7849 -2.8335
  987MOL0     H33220   5.328   9.736   2.381 -0.4543 -2.8909 -0.6894
  987MOL0     H33221   5.025   9.697   2.393  1.2526 -1.4767  0.0077
  987MOL0     H33222   5.087   9.833   2.297 -2.1257  0.6178  2.7821
  987MOL0     H33223   5.121   9.531   2.243 -1.7189 -0.1199 -1.9200
  987MOL0     H33224   5.224   9.652   2.168  2.2502 -2.9800  3.7763
  987MOL0     H33225   5.051   9.597   2.022 -1.3567  1.0688 -0.9228
  987MOL0     H33226   5.013   9.761   2.087 -1.2475 -0.2575  1.4512
  987MOL0     H33227   5.843   9.909   2.778 -3.5137  0.7717 -1.1610
  987MOL0     H33228   6.071  10.025   2.752 -0.2741 -0.6428 -0.2796
  987MOL0     H33229   6.330  10.236   2.445  2.4414 -0.1555 -0.3130
  987MOL0     H33230   6.572  10.228   2.447  2.6307  0.6511  1.0142
  987MOL0     H33231   8.557  10.134   2.747  1.5156 -1.9309  1.6981
  987MOL0     H33232   8.754  10.165   2.647  0.0303 -0.8448  0.0833
  987MOL0     H33233   8.943  10.082   1.998  0.1921 -0.3218  0.3539
  987MOL0     H33234   9.182  10.095   1.927  1.8103  1.7550  0.0423
  987MOL0     H33235   9.449  10.063   1.929 -3.2203 -0.3581  0.2021
  987MOL0     H33236   9.376  10.220   1.879 -0.4341 -1.5667 -0.5237
  987MOL0     H33237   9.630  10.202   2.030 -0.9431 -3.3827 -1.3214
  987MOL0     H33238   9.561  10.346   1.942  2.9701  0.1158  0.7009
  987MOL0     H33239   9.592  10.214   1.739 -0.8963 -0.6768 -0.0761
  987MOL0     H33240   9.670  10.087   1.852 -0.1842 -0.6273  2.8273
  987MOL0     H33241   9.824  10.263   1.928 -0.2633 -1.5791 -0.2304
  987MOL0     H33242   9.762  10.383   1.817 -0.9921  0.1199  0.1366
  987MOL0     H33243   9.972  10.116   1.564 -1.8493 -3.1962  0.6816
  987MOL0     H33244   9.306  10.234   2.318  0.3416 -1.0940 -0.2721
  987MOL0     H33245   9.062  10.211   2.401 -0.5709  0.2548 -0.7785
  988MOL0     O33246  10.687   5.668   3.257 -0.5885 -0.8375  0.4544
  988MOL0     C33247  10.712   5.559   3.204  0.6918  0.1283 -0.1599
  988MOL0     O33248  10.621   5.467   3.153 -0.2547 -0.6360  0.0408
  988MOL0     C33249  10.485   5.485   3.147 -0.1914 -0.2871 -0.5417
  988MOL0     C33250  10.402   5.563   3.237 -0.2571 -0.2331 -0.1477
  988MOL0     C33251  10.261   5.553   3.228 -0.4325 -1.0688  0.1957
  988MOL0     C33252  10.201   5.457   3.139 -0.0993 -0.2711 -0.7341
  988MOL0     O33253  10.065   5.432   3.147  0.2093 -0.0672  0.3559
  988MOL0     C33254  10.011   5.332   3.051 -0.0249 -1.0950 -0.3231
  988MOL0     C33255   9.858   5.315   3.059 -0.6547 -0.6043 -0.0485
  988MOL0     C33256   9.782   5.443   3.106 -0.4208  0.2179  0.3751
  988MOL0     C33257   9.633   5.409   3.131  0.2196 -0.7242 -0.0724
  988MOL0     C33258   9.543   5.520   3.183 -0.1958 -0.0628 -0.2876
  988MOL0     C33259   9.492   5.605   3.073  0.3424 -1.2398  0.0054
  988MOL0     C33260   9.406   5.731   3.106 -0.6292  0.3435 -0.1046
  988MOL0     C33261   9.334   5.749   3.237  0.8169  0.5570  0.3527
  988MOL0     N33262   9.258   5.878   3.235  0.1858  0.0646  0.5675
  988MOL0     C33263   9.150   5.903   3.167  0.9372 -0.0044  0.5751
  988MOL0     C33264   9.142   6.037   3.158 -0.4466 -0.3788 -0.5666
  988MOL0     C33265   9.034   6.115   3.099  0.5018  0.0501  0.1814
  988MOL0     C33266   8.891   6.107   3.167  0.6118 -0.7636  0.5543
  988MOL0     C33267   8.796   6.199   3.080 -0.5653  0.5528  0.4563
  988MOL0     C33268   8.664   6.179   3.150  0.4857 -0.4413  0.3886
  988MOL0     O33269   8.585   6.263   3.071 -0.0737  0.9425 -0.6781
  988MOL0     C33270   8.458   6.210   3.055  0.1046  0.0646 -1.1625
  988MOL0     C33271   8.426   6.112   2.959  0.0757  0.3664 -0.8101
  988MOL0     C33272   8.295   6.064   2.949  0.6504  0.0374  1.5630
  988MOL0     C33273   8.284   5.939   2.864 -0.0775 -0.2703 -0.7883
  988MOL0     C33274   8.191   6.111   3.034  0.2412  0.5124 -0.3115
  988MOL0     C33275   8.061   6.046   3.045  0.1479  0.3491  0.3159
  988MOL0     O33276   8.006   6.050   3.168  0.1883  0.6211  0.4042
  988MOL0     C33277   7.868   6.034   3.178 -0.1942 -0.4913  0.0725
  988MOL0     C33278   7.787   6.142   3.201 -0.2813 -0.4851  0.2455
  988MOL0     C33279   7.642   6.121   3.205 -0.5799  0.0831  0.4353
  988MOL0     C33280   7.588   5.996   3.210 -0.6425  0.2597 -0.0150
  988MOL0     O33281   7.456   5.973   3.246 -0.2000 -0.5391  0.2204
  988MOL0     C33282   7.425   5.859   3.322  0.0520  0.3717  0.3375
  988MOL0     C33283   7.292   5.886   3.378  0.6656  0.0678  0.6475
  988MOL0     C33284   7.243   5.760   3.462 -0.0432 -0.1332 -0.2783
  988MOL0     C33285   7.106   5.779   3.531 -0.0369  0.7106  0.0564
  988MOL0     C33286   6.990   5.779   3.432  1.0482  0.4610 -0.2947
  988MOL0     C33287   6.852   5.757   3.499  0.1939  0.4574  0.0357
  988MOL0     C33288   6.747   5.704   3.401 -0.2410  0.9730 -0.3311
  988MOL0     C33289   6.626   5.640   3.479 -0.5074  0.1312  0.3044
  988MOL0    Cl33290   6.651   5.472   3.535 -0.0397 -0.0926 -0.2727
  988MOL0     C33291   7.680   5.891   3.191  1.3662  0.8145 -0.8754
  988MOL0     C33292   7.818   5.906   3.170  0.5561 -0.6929  0.0095
  988MOL0     O33293   7.999   6.004   2.950  0.1595  0.3310  0.2711
  988MOL0     C33294   8.227   6.210   3.130 -0.0558 -0.6615  0.9001
  988MOL0     C33295   8.356   6.263   3.140 -0.3460  0.4158 -0.2837
  988MOL0     N33296   9.246   6.095   3.218  0.6332 -0.7817  0.2906
  988MOL0     N33297   9.319   5.998   3.255 -0.6127  0.2832 -0.2522
  988MOL0     C33298  10.288   5.392   3.045  1.0150  0.1103  0.1691
  988MOL0     C33299  10.423   5.400   3.058 -0.3196  0.6388 -0.1603
  988MOL0     C33300  10.855   5.512   3.212 -0.1415  0.2352 -0.5058
  988MOL0     C33301  10.890   5.377   3.204 -0.4785 -0.8279 -0.3885
  988MOL0     C33302  11.017   5.327   3.227 -0.0080  0.3052 -0.7690
  988MOL0     C33303  11.124   5.412   3.258  0.2431 -0.5271  1.1253
  988MOL0     O33304  11.237   5.338   3.266  0.3274 -0.4116 -0.2397
  988MOL0     C33305  11.360   5.405   3.289  0.3967  0.7342 -0.0836
  988MOL0     C33306  11.456   5.300   3.256  0.0013 -0.2620 -0.9408
  988MOL0     C33307  11.596   5.319   3.315  0.1920 -0.4880 -0.4322
  988MOL0     C33308  11.685   5.199   3.299 -0.0013  0.6247  0.1495
  988MOL0     C33309  11.659   5.111   3.416  0.3488  0.7597 -0.5863
  988MOL0     C33310  11.620   5.053   3.520  0.2070 -0.2127 -0.1408
  988MOL0     C33311  11.092   5.551   3.258 -0.2927  0.0965  0.6432
  988MOL0     C33312  10.963   5.602   3.230 -0.2220 -0.2185 -0.0491
  988MOL0     H33313  10.441   5.619   3.322  2.6028  0.3384 -1.7082
  988MOL0     H33314  10.201   5.619   3.290 -1.2404 -1.0787 -0.5533
  988MOL0     H33315  10.038   5.354   2.947 -0.2613 -0.1832 -0.1975
  988MOL0     H33316  10.059   5.236   3.069  0.3617 -0.8727 -0.1503
  988MOL0     H33317   9.823   5.292   2.958 -0.3781  2.1525 -0.8512
  988MOL0     H33318   9.829   5.229   3.120 -0.9137 -1.9011 -1.9021
  988MOL0     H33319   9.830   5.480   3.196  2.2867 -1.0017 -0.4457
  988MOL0     H33320   9.802   5.520   3.031  0.6821 -1.3072 -0.9936
  988MOL0     H33321   9.587   5.376   3.037 -0.1939  0.9856 -0.4983
  988MOL0     H33322   9.636   5.316   3.189  0.0098 -2.0620 -2.1095
  988MOL0     H33323   9.451   5.481   3.227 -1.0329 -0.6533 -2.4247
  988MOL0     H33324   9.594   5.576   3.262  2.1351 -1.3604 -0.7929
  988MOL0     H33325   9.575   5.625   3.005  0.5264 -1.6063  0.1207
  988MOL0     H33326   9.425   5.533   3.026  0.4505 -1.6590  0.4780
  988MOL0     H33327   9.469   5.819   3.092 -0.0622 -0.0689 -0.1556
  988MOL0     H33328   9.329   5.731   3.028 -0.9630 -0.3573  0.2153
  988MOL0     H33329   9.395   5.742   3.327  1.1819  1.8558  0.2249
  988MOL0     H33330   9.263   5.669   3.260 -0.4279  2.1015  2.1725
  988MOL0     H33331   9.081   5.829   3.129  1.3125 -0.5508  0.9491
  988MOL0     H33332   9.059   6.221   3.092  1.1124 -0.1769 -1.2606
  988MOL0     H33333   9.020   6.080   2.997  2.8815  0.0154 -0.1941
  988MOL0     H33334   8.896   6.140   3.271  1.6937  1.2387 -0.0883
  988MOL0     H33335   8.853   6.004   3.167 -1.3432 -0.0991 -0.5669
  988MOL0     H33336   8.806   6.158   2.979  1.2937 -2.5838  1.7644
  988MOL0     H33337   8.827   6.304   3.077  3.4187 -0.4912 -1.6036
  988MOL0     H33338   8.656   6.211   3.254  1.1407  0.2006  0.2462
  988MOL0     H33339   8.642   6.072   3.151  0.6712 -0.4825  1.8633
  988MOL0     H33340   8.510   6.075   2.900  0.3804 -1.2275  0.5573
  988MOL0     H33341   8.220   5.862   2.907  0.4865 -0.4789 -0.3132
  988MOL0     H33342   8.269   5.951   2.757  1.0463  1.7242 -0.7790
  988MOL0     H33343   8.381   5.887   2.863 -0.4820 -1.0585 -2.2933
  988MOL0     H33344   7.821   6.245   3.207 -1.3380 -0.2067  2.2220
  988MOL0     H33345   7.578   6.207   3.221 -2.7401 -1.6014  1.2089
  988MOL0     H33346   7.427   5.775   3.251  0.4600  0.2230  0.5238
  988MOL0     H33347   7.497   5.840   3.402  0.6464 -2.6873 -0.7849
  988MOL0     H33348   7.288   5.977   3.440  0.7103  2.5499 -2.7284
  988MOL0     H33349   7.221   5.902   3.297  1.3441  0.5342  0.1336
  988MOL0     H33350   7.313   5.747   3.545 -0.4705  0.5617  0.2075
  988MOL0     H33351   7.238   5.672   3.397  1.2469 -0.9204  0.6403
  988MOL0     H33352   7.094   5.694   3.600  0.2470  2.3979  2.3142
  988MOL0     H33353   7.104   5.870   3.592 -0.1317  2.2201 -2.1166
  988MOL0     H33354   7.003   5.696   3.362 -0.2523 -0.0474  0.0345
  988MOL0     H33355   6.991   5.875   3.380  2.5422  0.3167 -0.5588
  988MOL0     H33356   6.859   5.691   3.586 -0.8930 -0.2399 -0.3798
  988MOL0     H33357   6.819   5.856   3.533 -0.0000 -0.5494  3.1631
  988MOL0     H33358   6.780   5.619   3.341 -1.8811  0.8046 -1.0573
  988MOL0     H33359   6.724   5.783   3.329  0.7516  3.9630  2.4140
  988MOL0     H33360   6.535   5.630   3.419 -0.3549 -1.5805  0.2922
  988MOL0     H33361   6.622   5.709   3.564 -0.2876  1.1472 -0.4959
  988MOL0     H33362   7.643   5.788   3.191  1.6358  0.7101 -1.5244
  988MOL0     H33363   7.883   5.825   3.140  1.6701 -0.2926  1.2628
  988MOL0     H33364   8.157   6.245   3.205 -0.4473  0.1904  0.1547
  988MOL0     H33365   8.368   6.354   3.199 -0.0751  0.9591 -1.1650
  988MOL0     H33366  10.244   5.334   2.965  2.4838 -0.6099 -0.1609
  988MOL0     H33367  10.487   5.358   2.981 -1.0388 -1.4262  0.2795
  988MOL0     H33368  10.811   5.313   3.166 -2.6330  1.4581  0.0055
  988MOL0     H33369  11.030   5.220   3.215 -0.0002  0.2547 -0.3306
  988MOL0     H33370  11.366   5.502   3.239 -0.9539  0.3086 -1.1572
  988MOL0     H33371  11.360   5.426   3.396  0.2585  2.6363 -0.4130
  988MOL0     H33372  11.464   5.292   3.147 -4.2297 -1.1473 -1.3664
  988MOL0     H33373  11.414   5.212   3.306 -0.7021  1.2352  1.2374
  988MOL0     H33374  11.570   5.336   3.419  0.1407  0.2595 -0.5625
  988MOL0     H33375  11.643   5.410   3.277  2.3156 -1.3768 -0.1347
  988MOL0     H33376  11.791   5.226   3.295 -0.1382  1.1824  0.1255
  988MOL0     H33377  11.665   5.144   3.207 -0.0532  0.9994 -0.0652
  988MOL0     H33378  11.597   5.016   3.617 -1.1890  0.1686 -0.3082
  988MOL0     H33379  11.178   5.615   3.270  1.4819 -1.6977 -1.6070
  988MOL0     H33380  10.952   5.709   3.219  1.8689 -0.2318 -3.4395
  989MOL0     O33381   0.636   6.166  10.968 -0.7509 -0.4448  0.0673
  989MOL0     C33382   0.648   6.270  10.906 -0.3784 -0.0209  0.6069
  989MOL0     O33383   0.555   6.334  10.836 -0.0625 -0.0914  0.0660
  989MOL0     C33384   0.437   6.278  10.824  0.0525 -0.1057 -0.2049
  989MOL0     C33385   0.421   6.159  10.748  0.7916  0.6248 -0.2067
  989MOL0     C33386   0.295   6.100  10.743 -0.0262 -0.2049  0.1139
  989MOL0     C33387   0.187   6.171  10.791  0.1994  0.5322  0.0201
  989MOL0     O33388   0.066   6.103  10.768  0.1696 -0.7991  0.3906
  989MOL0     C33389  -0.053   6.143  10.831 -0.0624  0.7918  0.3821
  989MOL0     C33390  -0.142   6.232  10.739  1.2149  1.1423 -0.3980
  989MOL0     C33391  -0.281   6.265  10.804  0.4852  0.1745  0.1998
  989MOL0     C33392  -0.364   6.143  10.822  0.0657 -0.2986 -0.1880
  989MOL0     C33393  -0.517   6.182  10.850 -0.5729  0.8836 -0.2561
  989MOL0     C33394  -0.586   6.249  10.732 -0.0210  0.4724 -0.3087
  989MOL0     C33395  -0.738   6.259  10.752 -0.4206  0.8649 -0.0838
  989MOL0     C33396  -0.827   6.280  10.624 -0.4278  0.7269  0.7469
  989MOL0     N33397  -0.971   6.285  10.651 -0.1642  0.7779  0.0691
  989MOL0     C33398  -1.058   6.302  10.546 -0.0300 -1.1460 -0.6021
  989MOL0     C33399  -1.178   6.308  10.602  1.2493  0.0452 -1.0200
  989MOL0     C33400  -1.304   6.348  10.526 -0.3876 -0.2331  0.4073
  989MOL0     C33401  -1.339   6.260  10.400  0.8145 -0.2418 -0.4809
  989MOL0     C33402  -1.411   6.130  10.444 -0.3135 -0.4574 -0.5125
  989MOL0     C33403  -1.555   6.152  10.478 -1.0155 -0.1548  0.0555
  989MOL0     O33404  -1.625   6.168  10.357  0.4809 -0.5967 -0.1767
  989MOL0     C33405  -1.761   6.188  10.360  0.1717 -1.3350  0.1295
  989MOL0     C33406  -1.840   6.206  10.465  1.1365 -0.1264 -0.4932
  989MOL0     C33407  -1.984   6.217  10.457 -0.7488  0.4374  0.4585
  989MOL0     C33408  -2.057   6.252  10.573  0.8216  0.1741  0.1157
  989MOL0     C33409  -2.041   6.222  10.327 -0.7522 -0.5109  0.2958
  989MOL0     C33410  -2.185   6.218  10.299  0.4602  0.6676 -0.9688
  989MOL0     O33411  -2.225   6.257  10.174  0.3598 -0.3369 -0.3003
  989MOL0     C33412  -2.359   6.264  10.142 -0.4860  0.7566  0.3739
  989MOL0     C33413  -2.439   6.151  10.139 -0.6201 -0.2732  0.4820
  989MOL0     C33414  -2.569   6.161  10.089 -0.0078  0.6387  0.2706
  989MOL0     C33415  -2.622   6.282  10.044  0.5728 -0.1290 -0.5335
  989MOL0     O33416  -2.745   6.278   9.990  0.1208  0.6568  0.4646
  989MOL0     C33417  -2.770   6.365   9.881  0.7346  0.0812 -0.1649
  989MOL0     C33418  -2.918   6.369   9.849 -0.7665  0.2598  0.1362
  989MOL0     C33419  -2.955   6.254   9.748  0.1714 -1.3970 -0.2999
  989MOL0     C33420  -3.092   6.288   9.681 -0.1041 -0.8498 -0.4753
  989MOL0     C33421  -3.171   6.159   9.635 -0.1041  0.1730  0.1296
  989MOL0     C33422  -3.099   6.084   9.530  0.3162  1.0065 -0.0919
  989MOL0     C33423  -3.079   6.159   9.399 -0.1785  0.4004 -0.0714
  989MOL0     C33424  -3.042   6.066   9.289 -0.2705 -0.0004 -0.0716
  989MOL0    Cl33425  -2.875   6.047   9.272 -0.1458 -0.1033  0.0012
  989MOL0     C33426  -2.544   6.388  10.069  1.0577  0.5596  0.0374
  989MOL0     C33427  -2.417   6.388  10.107 -0.0293 -0.3654  0.5690
  989MOL0     O33428  -2.267   6.179  10.384 -0.3990 -0.4444  0.1979
  989MOL0     C33429  -1.952   6.208  10.215 -0.1789 -0.6615  0.1894
  989MOL0     C33430  -1.819   6.189  10.233  0.3033  0.2203  0.3615
  989MOL0     N33431  -1.162   6.295  10.743 -0.1702  0.2840 -0.0813
  989MOL0     N33432  -1.039   6.264  10.769  0.3959 -0.6278 -0.1477
  989MOL0     C33433   0.202   6.297  10.850 -0.1250  0.1963 -0.2571
  989MOL0     C33434   0.328   6.349  10.870  0.3551  0.2435 -0.4093
  989MOL0     C33435   0.783   6.332  10.913  0.1734 -1.2464  0.5575
  989MOL0     C33436   0.892   6.279  10.980  0.5043  0.2201  0.4221
  989MOL0     C33437   1.014   6.346  10.980  0.8746  0.3713 -0.2822
  989MOL0     C33438   1.036   6.469  10.909  0.0919  0.3153 -0.0550
  989MOL0     O33439   1.156   6.538  10.912  0.1540 -0.0988 -0.2151
  989MOL0     C33440   1.237   6.484  10.802 -0.0855  0.4732 -0.5254
  989MOL0     C33441   1.311   6.361  10.852  0.2133 -0.7454 -0.4712
  989MOL0     C33442   1.435   6.327  10.759  0.4810 -0.6176 -0.4578
  989MOL0     C33443   1.394   6.249  10.640  0.7705 -0.7945 -0.2560
  989MOL0     C33444   1.504   6.240  10.540 -0.7337 -0.3406 -0.2834
  989MOL0     C33445   1.611   6.257  10.479  0.9075 -0.7135 -0.2477
  989MOL0     C33446   0.924   6.520  10.848 -0.3492  0.6208 -0.3178
  989MOL0     C33447   0.794   6.462  10.847  0.1739 -0.0518 -0.9080
  989MOL0     H33448   0.502   6.100  10.707 -1.4437 -2.5398 -0.3973
  989MOL0     H33449   0.274   6.011  10.684  0.3894 -1.2778  1.5424
  989MOL0     H33450  -0.103   6.048  10.847  1.7407 -0.3162 -0.2541
  989MOL0     H33451  -0.036   6.192  10.928 -0.1760  1.2814  0.1584
  989MOL0     H33452  -0.088   6.327  10.737  2.3520  0.5436 -3.1278
  989MOL0     H33453  -0.148   6.178  10.643  0.1385 -1.3164  0.9626
  989MOL0     H33454  -0.270   6.302  10.906 -0.5909  0.8145  0.1009
  989MOL0     H33455  -0.328   6.343  10.743 -0.6510  0.0703  0.9061
  989MOL0     H33456  -0.350   6.083  10.731 -1.6822 -1.2856  0.1638
  989MOL0     H33457  -0.328   6.088  10.909  0.7442 -0.1391 -0.3604
  989MOL0     H33458  -0.569   6.090  10.881 -1.9302  1.4459 -0.7892
  989MOL0     H33459  -0.526   6.237  10.944 -1.2371  2.1335 -1.0340
  989MOL0     H33460  -0.552   6.352  10.740  0.0453  0.4012  0.5048
  989MOL0     H33461  -0.557   6.205  10.637  1.3498 -0.2376  0.4085
  989MOL0     H33462  -0.770   6.165  10.797  2.1256  0.1612  0.3997
  989MOL0     H33463  -0.748   6.342  10.823 -0.6676  0.1177  0.7655
  989MOL0     H33464  -0.810   6.204  10.548 -1.0256 -1.4535  2.7011
  989MOL0     H33465  -0.796   6.377  10.584 -0.7674 -0.0099 -1.4503
  989MOL0     H33466  -1.036   6.328  10.443  1.6265 -0.2583 -0.0588
  989MOL0     H33467  -1.384   6.339  10.600  0.6926  0.4185  1.7046
  989MOL0     H33468  -1.300   6.451  10.489  1.8645 -1.1657 -2.2951
  989MOL0     H33469  -1.249   6.247  10.339  1.4643  0.7592  0.2208
  989MOL0     H33470  -1.415   6.310  10.340  1.7844  1.3311 -0.4653
  989MOL0     H33471  -1.363   6.090  10.534  4.1199  5.5397  0.4003
  989MOL0     H33472  -1.394   6.060  10.361  0.2278  1.1877 -1.8586
  989MOL0     H33473  -1.562   6.246  10.533 -0.3983  0.9443 -1.6676
  989MOL0     H33474  -1.587   6.060  10.529  0.7311 -0.0472  1.4371
  989MOL0     H33475  -1.791   6.233  10.558 -0.1890 -2.1276  0.8453
  989MOL0     H33476  -2.140   6.319  10.550 -0.4575 -2.3293 -3.4283
  989MOL0     H33477  -2.104   6.164  10.616 -1.3735  1.0222 -0.4124
  989MOL0     H33478  -1.987   6.299  10.643 -0.6755  0.2437  1.6371
  989MOL0     H33479  -2.393   6.065  10.188  0.4383  0.0157  0.0361
  989MOL0     H33480  -2.647   6.086  10.093 -0.2299  0.6630 -2.2276
  989MOL0     H33481  -2.736   6.468   9.893 -1.8319  1.1106 -0.9882
  989MOL0     H33482  -2.728   6.331   9.785  0.1472 -0.8910 -0.0957
  989MOL0     H33483  -2.972   6.361   9.944  2.4611 -3.0931  1.9121
  989MOL0     H33484  -2.948   6.466   9.807 -2.1806  0.0569  0.6271
  989MOL0     H33485  -2.963   6.162   9.807  0.4349 -1.4848 -0.3960
  989MOL0     H33486  -2.879   6.231   9.672 -1.6158 -0.5193 -2.4606
  989MOL0     H33487  -3.157   6.351   9.743 -0.0381  0.8238 -2.0155
  989MOL0     H33488  -3.059   6.352   9.599  1.5919 -2.3453 -1.0243
  989MOL0     H33489  -3.268   6.194   9.600 -0.0769  0.6947  0.5622
  989MOL0     H33490  -3.193   6.091   9.718  1.1416 -0.6354 -0.1672
  989MOL0     H33491  -2.997   6.058   9.561  0.1071 -0.5909 -0.6644
  989MOL0     H33492  -3.134   5.982   9.512  0.8195  1.2194 -2.6147
  989MOL0     H33493  -2.998   6.232   9.407 -1.5699  2.4100 -2.7660
  989MOL0     H33494  -3.176   6.200   9.368  0.3651  2.6686  1.0118
  989MOL0     H33495  -3.071   6.107   9.192 -0.5291  0.3803  0.1631
  989MOL0     H33496  -3.097   5.972   9.295  0.0075 -0.1465  0.2383
  989MOL0     H33497  -2.590   6.483  10.044 -0.1981  0.3715  1.4677
  989MOL0     H33498  -2.362   6.481  10.119  1.2725 -0.7326 -1.8957
  989MOL0     H33499  -1.993   6.207  10.115  0.3474 -0.7904 -0.0296
  989MOL0     H33500  -1.755   6.180  10.146  0.6057 -0.1753  0.6228
  989MOL0     H33501   0.121   6.342  10.906  0.8105 -0.6693  1.9147
  989MOL0     H33502   0.337   6.439  10.930 -0.4414  1.5014 -2.1195
  989MOL0     H33503   0.885   6.185  11.034 -1.9558  0.3940  0.5118
  989MOL0     H33504   1.105   6.316  11.031  3.4193  4.3684 -1.9850
  989MOL0     H33505   1.177   6.452  10.716 -0.6498 -0.3628  0.1644
  989MOL0     H33506   1.314   6.555  10.770  0.6848  0.0253  0.3000
  989MOL0     H33507   1.240   6.278  10.864 -0.9016  0.3994  1.3684
  989MOL0     H33508   1.343   6.386  10.953 -0.6211 -0.5614 -0.2470
  989MOL0     H33509   1.497   6.262  10.822 -1.6715 -3.4559 -1.0827
  989MOL0     H33510   1.496   6.415  10.736 -1.1801  1.9141  3.7123
  989MOL0     H33511   1.306   6.295  10.595  2.0264  1.8856 -0.1835
  989MOL0     H33512   1.373   6.145  10.666  1.7662 -1.2786 -1.3029
  989MOL0     H33513   1.712   6.283  10.453  1.0171 -1.6075 -0.7611
  989MOL0     H33514   0.940   6.609  10.788  1.4809  0.4886 -0.0906
  989MOL0     H33515   0.711   6.512  10.799  1.5135  3.1081 -0.1379
  990MOL0     O33516   7.484   3.021  11.144 -0.9468 -1.1271 -0.0935
  990MOL0     C33517   7.552   3.123  11.120  0.4323 -0.3766 -0.2506
  990MOL0     O33518   7.504   3.245  11.096  0.4502 -0.2107  0.4978
  990MOL0     C33519   7.368   3.259  11.088  0.5520  0.0086 -0.1717
  990MOL0     C33520   7.281   3.298  11.194 -0.1489  0.1145  0.0009
  990MOL0     C33521   7.145   3.309  11.161 -0.0222 -0.7172  0.5805
  990MOL0     C33522   7.092   3.281  11.035 -0.4396  0.7665 -0.9280
  990MOL0     O33523   6.956   3.308  11.021 -0.1116  0.3168 -0.4863
  990MOL0     C33524   6.888   3.245  10.916 -0.1122 -0.3499 -0.0698
  990MOL0     C33525   6.735   3.281  10.909  0.3633 -0.3934  0.6697
  990MOL0     C33526   6.653   3.205  11.010  0.2978 -0.2220  0.4712
  990MOL0     C33527   6.500   3.237  10.991  0.5533  0.2779 -0.4597
  990MOL0     C33528   6.414   3.190  11.115 -0.5468  0.0346  1.2808
  990MOL0     C33529   6.268   3.214  11.096 -0.9102 -0.1805 -0.0597
  990MOL0     C33530   6.182   3.151  11.199  0.1389  0.0811 -0.1950
  990MOL0     C33531   6.160   3.238  11.326 -0.4910 -0.1999 -0.1343
  990MOL0     N33532   6.083   3.175  11.426 -0.4972  0.0451  0.8045
  990MOL0     C33533   6.110   3.053  11.475 -0.8288  0.0777  0.1127
  990MOL0     C33534   6.024   3.038  11.577 -0.2593  0.7214  0.0442
  990MOL0     C33535   6.016   2.925  11.674  0.1845 -0.5241  1.2879
  990MOL0     C33536   6.016   2.791  11.596  0.0168 -0.4002 -0.5568
  990MOL0     C33537   6.007   2.670  11.699 -0.8776 -0.5681  1.1844
  990MOL0     C33538   6.124   2.655  11.798 -0.6754 -0.0748 -0.6024
  990MOL0     O33539   6.248   2.648  11.723 -0.5944  0.1032 -0.6048
  990MOL0     C33540   6.366   2.643  11.794 -0.5099 -0.4164  0.8017
  990MOL0     C33541   6.483   2.663  11.723 -0.2273  0.6479  0.0968
  990MOL0     C33542   6.602   2.661  11.789  0.6611  0.5298 -0.1454
  990MOL0     C33543   6.735   2.686  11.716 -0.1887  0.3236  0.1199
  990MOL0     C33544   6.597   2.638  11.937 -0.5240  0.5728 -0.7822
  990MOL0     C33545   6.719   2.639  12.035  0.0259  1.0973  0.3077
  990MOL0     O33546   6.691   2.607  12.166 -0.0910  0.3925 -0.2173
  990MOL0     C33547   6.794   2.622  12.249 -0.2783  0.0242  0.5060
  990MOL0     C33548   6.884   2.520  12.244  1.0198 -0.5349  0.3437
  990MOL0     C33549   6.992   2.513  12.326  0.0608 -0.3919  0.1516
  990MOL0     C33550   7.029   2.626  12.412  1.0541 -0.0889 -0.4116
  990MOL0     O33551   7.143   2.623  12.491  0.4042 -0.3317 -0.3163
  990MOL0     C33552   7.257   2.549  12.440 -0.2186 -0.2597  0.0375
  990MOL0     C33553   7.394   2.582  12.498  0.1191  0.7021  0.4691
  990MOL0     C33554   7.414   2.583  12.644 -0.6263  0.1545 -0.3246
  990MOL0     C33555   7.381   2.719  12.700 -0.5010  0.0482  0.0381
  990MOL0     C33556   7.376   2.707  12.855  0.2846 -0.5945  1.3676
  990MOL0     C33557   7.509   2.675  12.925 -0.2356  0.7105 -0.1523
  990MOL0     C33558   7.624   2.775  12.906  0.7147  0.8172  0.4387
  990MOL0     C33559   7.667   2.855  13.028 -0.3086  0.5239  1.0384
  990MOL0    Cl33560   7.533   2.941  13.096  0.1630 -0.0998 -0.1474
  990MOL0     C33561   6.947   2.741  12.410 -0.1204  0.4476  0.1334
  990MOL0     C33562   6.827   2.736  12.331 -1.3718 -0.0328 -0.3162
  990MOL0     O33563   6.825   2.683  11.991 -0.1307  0.5970 -0.1599
  990MOL0     C33564   6.478   2.622  12.000 -0.4787  0.3721  0.2239
  990MOL0     C33565   6.363   2.622  11.932 -0.1683  0.0461 -0.0011
  990MOL0     N33566   5.943   3.138  11.579 -0.1416 -0.9259 -0.7920
  990MOL0     N33567   5.981   3.230  11.488 -0.3947  0.0588 -0.1030
  990MOL0     C33568   7.173   3.244  10.941 -0.2923  0.2663 -0.3445
  990MOL0     C33569   7.307   3.229  10.968 -0.1637  0.1101 -0.1724
  990MOL0     C33570   7.696   3.111  11.134  0.3842 -0.5200  0.7722
  990MOL0     C33571   7.757   2.983  11.146 -0.6907 -0.1056  0.1796
  990MOL0     C33572   7.893   2.974  11.139 -0.5470  0.4172 -0.0962
  990MOL0     C33573   7.975   3.080  11.118  0.2430 -0.4664 -0.2705
  990MOL0     O33574   8.109   3.053  11.134 -0.0872 -0.5186 -0.1663
  990MOL0     C33575   8.214   3.145  11.115  0.2755  0.7136  0.1567
  990MOL0     C33576   8.354   3.107  11.178  0.6067 -0.3582  0.8392
  990MOL0     C33577   8.363   3.117  11.333 -0.3566 -0.0538  0.5835
  990MOL0     C33578   8.470   3.032  11.401 -0.5697  1.0000  0.0123
  990MOL0     C33579   8.596   3.075  11.347 -0.5290  0.1917 -0.6795
  990MOL0     C33580   8.716   3.103  11.312  0.4048 -0.5389 -0.3757
  990MOL0     C33581   7.916   3.205  11.095  0.1562 -0.4845  0.0612
  990MOL0     C33582   7.778   3.220  11.100 -0.3908  0.1733 -0.7191
  990MOL0     H33583   7.323   3.328  11.289 -1.2367 -2.2464  1.3317
  990MOL0     H33584   7.070   3.350  11.227 -1.6712 -0.1924 -1.4872
  990MOL0     H33585   6.918   3.288  10.820 -1.4367 -1.7818 -1.1887
  990MOL0     H33586   6.906   3.138  10.899 -2.2047 -1.3118  2.9572
  990MOL0     H33587   6.717   3.387  10.925  2.8722  1.0756 -4.2969
  990MOL0     H33588   6.689   3.265  10.811  0.1714  1.9649  0.3170
  990MOL0     H33589   6.662   3.099  10.988  1.2386 -0.2020  0.7088
  990MOL0     H33590   6.695   3.222  11.109  1.7840 -2.8935  0.3717
  990MOL0     H33591   6.483   3.345  10.991 -0.3427  0.1565  0.4716
  990MOL0     H33592   6.467   3.187  10.900 -0.3528 -0.9974  0.5350
  990MOL0     H33593   6.420   3.081  11.105 -0.3712  0.1984 -0.7817
  990MOL0     H33594   6.455   3.215  11.213 -1.3738 -1.9826  2.2105
  990MOL0     H33595   6.262   3.323  11.107 -1.3506 -0.3565  1.9061
  990MOL0     H33596   6.237   3.189  10.994 -1.2303  1.7060 -0.4612
  990MOL0     H33597   6.085   3.136  11.150  0.4982  0.8221 -1.1723
  990MOL0     H33598   6.231   3.058  11.230 -1.2276 -0.7907 -0.5736
  990MOL0     H33599   6.116   3.332  11.290  0.7728  1.3915  2.1813
  990MOL0     H33600   6.250   3.266  11.382 -0.0078 -0.4136 -0.8030
  990MOL0     H33601   6.198   2.997  11.447  0.2997  2.1207 -0.6728
  990MOL0     H33602   6.099   2.939  11.744 -0.4727  0.3894  1.9081
  990MOL0     H33603   5.924   2.932  11.732 -0.3016 -0.8050  0.5576
  990MOL0     H33604   6.103   2.780  11.530  0.7692 -4.1247  0.8137
  990MOL0     H33605   5.928   2.782  11.532 -1.6435  0.0418  1.5719
  990MOL0     H33606   6.008   2.583  11.632 -3.1510 -0.5581  1.0753
  990MOL0     H33607   5.912   2.674  11.753 -2.3130 -0.3201 -1.2322
  990MOL0     H33608   6.115   2.564  11.859 -3.0478  0.7769  0.4462
  990MOL0     H33609   6.128   2.743  11.862  1.8229 -1.3547  1.1749
  990MOL0     H33610   6.481   2.669  11.615  2.5461 -0.0656 -0.0688
  990MOL0     H33611   6.718   2.723  11.614 -0.1762  0.1116  0.0417
  990MOL0     H33612   6.772   2.771  11.775 -0.6566  1.4541 -1.1740
  990MOL0     H33613   6.794   2.595  11.703 -3.2452 -1.6568 -0.8467
  990MOL0     H33614   6.864   2.449  12.164 -0.8123  2.7073 -2.3642
  990MOL0     H33615   7.056   2.425  12.325  1.0861  0.3255  0.6165
  990MOL0     H33616   7.233   2.446  12.468 -0.3102 -0.0412  0.7643
  990MOL0     H33617   7.270   2.579  12.335  0.6252  0.9645  0.4744
  990MOL0     H33618   7.461   2.502  12.464  0.4567  0.7444  1.0130
  990MOL0     H33619   7.428   2.674  12.450  2.1364  0.5635  1.4956
  990MOL0     H33620   7.515   2.547  12.668 -1.8774 -1.2320  3.7146
  990MOL0     H33621   7.349   2.504  12.682 -0.1142 -0.6032 -0.9866
  990MOL0     H33622   7.450   2.799  12.670 -2.3011  1.0811 -1.5907
  990MOL0     H33623   7.285   2.758  12.666 -1.3073  1.5431  3.5584
  990MOL0     H33624   7.299   2.632  12.876  0.4825 -1.2811 -0.1841
  990MOL0     H33625   7.339   2.803  12.891  0.1466 -0.1546  0.0911
  990MOL0     H33626   7.477   2.656  13.028  0.1739  1.2556  0.0830
  990MOL0     H33627   7.544   2.577  12.894 -3.5115 -2.2117  4.2064
  990MOL0     H33628   7.595   2.843  12.825  0.9048  1.8255  1.1968
  990MOL0     H33629   7.709   2.718  12.868 -0.7879 -0.7265 -0.7627
  990MOL0     H33630   7.752   2.918  13.000  0.8047 -1.0482  0.7259
  990MOL0     H33631   7.714   2.785  13.099 -2.1474  1.1629  2.9861
  990MOL0     H33632   6.971   2.828  12.470 -0.1595  0.2357  0.4581
  990MOL0     H33633   6.746   2.804  12.356  0.6462  1.9577  1.3219
  990MOL0     H33634   6.479   2.610  12.108 -1.9115  1.8967  0.4465
  990MOL0     H33635   6.277   2.583  11.986 -0.0890 -2.2499 -1.3592
  990MOL0     H33636   7.134   3.227  10.842 -1.6970  0.8294  0.0937
  990MOL0     H33637   7.375   3.207  10.886  0.6770  2.8842 -0.3238
  990MOL0     H33638   7.696   2.894  11.156 -0.1793 -1.1188 -3.7805
  990MOL0     H33639   7.928   2.871  11.138 -1.7854 -0.0261 -2.4069
  990MOL0     H33640   8.232   3.156  11.007 -0.4663 -1.4976 -0.2341
  990MOL0     H33641   8.198   3.241  11.165  4.1539 -0.2669  3.9547
  990MOL0     H33642   8.428   3.171  11.128 -1.0897  0.5010 -0.6962
  990MOL0     H33643   8.376   3.005  11.144  1.1083  0.0671 -0.1866
  990MOL0     H33644   8.268   3.082  11.373  1.3183 -2.4034  2.8678
  990MOL0     H33645   8.373   3.221  11.365 -0.8796  0.4352 -0.8066
  990MOL0     H33646   8.455   2.926  11.375 -0.5887  0.5523  1.7285
  990MOL0     H33647   8.469   3.041  11.510  0.9058  0.9528  0.0483
  990MOL0     H33648   8.810   3.124  11.266 -0.5146 -0.3924 -2.2701
  990MOL0     H33649   7.969   3.297  11.072 -1.7422  0.1946 -2.0017
  990MOL0     H33650   7.732   3.318  11.085 -2.2229 -0.9426 -3.0542
  991MOL0     O33651   7.011   5.535   3.781 -0.2602 -0.1883 -0.3288
  991MOL0     C33652   7.025   5.478   3.887  0.3492  0.6752 -0.1559
  991MOL0     O33653   6.927   5.413   3.964  0.1938  0.0104 -0.2989
  991MOL0     C33654   6.797   5.433   3.941 -0.6117 -0.2227  0.4751
  991MOL0     C33655   6.709   5.345   4.003 -0.8116  0.5405  0.2020
  991MOL0     C33656   6.573   5.348   3.989 -0.6565  0.0069  0.3975
  991MOL0     C33657   6.518   5.450   3.916 -0.3816  0.1083  0.6226
  991MOL0     O33658   6.383   5.465   3.903  0.5563 -0.4030  0.3611
  991MOL0     C33659   6.334   5.428   3.773 -0.0733  0.3624 -0.0991
  991MOL0     C33660   6.189   5.467   3.762  0.6458  0.4674 -0.2543
  991MOL0     C33661   6.105   5.402   3.648 -0.3961  0.6591  0.2410
  991MOL0     C33662   6.098   5.479   3.523  0.5293 -0.4268 -0.4319
  991MOL0     C33663   6.018   5.407   3.403  0.5963  0.1442 -0.3675
  991MOL0     C33664   5.872   5.374   3.435  0.5295 -0.6067 -0.8379
  991MOL0     C33665   5.800   5.372   3.306  0.2142 -0.2176  0.3605
  991MOL0     C33666   5.807   5.222   3.262 -0.1603 -0.3402  0.1226
  991MOL0     N33667   5.723   5.191   3.148 -0.4694 -0.6079  0.1692
  991MOL0     C33668   5.580   5.192   3.147  0.0630  0.4009  0.7954
  991MOL0     C33669   5.554   5.125   3.032 -0.4701 -1.1210 -0.1278
  991MOL0     C33670   5.426   5.075   2.974 -0.2105  0.5912  0.4415
  991MOL0     C33671   5.308   5.173   2.978 -0.1486 -0.0636 -0.4916
  991MOL0     C33672   5.203   5.142   2.865 -0.1913 -0.1241  0.2992
  991MOL0     C33673   5.111   5.256   2.844 -0.3160 -0.6148  0.7218
  991MOL0     O33674   5.043   5.294   2.964 -0.1898 -0.3799  0.2140
  991MOL0     C33675   4.925   5.367   2.956 -0.2913  0.0463 -0.2126
  991MOL0     C33676   4.858   5.396   3.072  0.5746 -0.9891 -0.1954
  991MOL0     C33677   4.728   5.458   3.077 -0.0564  0.3845  0.2482
  991MOL0     C33678   4.663   5.459   3.213 -0.0530  0.6177  0.4358
  991MOL0     C33679   4.668   5.498   2.952 -0.1552 -0.6125 -0.4096
  991MOL0     C33680   4.523   5.546   2.950 -0.3621 -1.5539  1.1573
  991MOL0     O33681   4.458   5.578   3.064  0.2285 -0.2852 -0.1142
  991MOL0     C33682   4.320   5.579   3.072  0.8536 -0.1192 -0.7765
  991MOL0     C33683   4.241   5.477   3.011  0.3605 -0.3831 -0.4776
  991MOL0     C33684   4.104   5.484   2.998  0.4335  0.6179 -0.6894
  991MOL0     C33685   4.029   5.586   3.054  0.2854  0.0221 -0.5414
  991MOL0     O33686   3.894   5.597   3.065  0.3969 -0.1816 -0.3213
  991MOL0     C33687   3.816   5.530   2.958  0.4774 -0.1561 -0.7845
  991MOL0     C33688   3.672   5.576   2.979  0.4524 -0.3377  1.0711
  991MOL0     C33689   3.601   5.520   3.102  0.3195 -0.2925  0.4713
  991MOL0     C33690   3.494   5.623   3.142 -0.1978  0.4859 -0.2214
  991MOL0     C33691   3.408   5.556   3.251 -0.4420 -0.5852 -0.3000
  991MOL0     C33692   3.292   5.637   3.309 -0.7102 -0.0618 -0.1976
  991MOL0     C33693   3.345   5.767   3.380  0.9727 -1.0108 -0.0953
  991MOL0     C33694   3.239   5.828   3.477  0.0321  0.0092 -0.4591
  991MOL0    Cl33695   3.246   5.718   3.618 -0.3262 -0.6642 -0.3492
  991MOL0     C33696   4.100   5.687   3.123 -0.5177 -0.6000  1.3179
  991MOL0     C33697   4.244   5.680   3.134 -0.2972  0.5069  0.6618
  991MOL0     O33698   4.473   5.554   2.839 -0.0597  0.6139  0.4097
  991MOL0     C33699   4.746   5.477   2.831  0.5108 -0.3419  0.5893
  991MOL0     C33700   4.870   5.417   2.837 -0.1296 -0.0347  0.3784
  991MOL0     N33701   5.678   5.096   2.965  0.3058 -1.3231  0.4339
  991MOL0     N33702   5.775   5.144   3.032  0.0867  0.4221  0.9252
  991MOL0     C33703   6.604   5.534   3.846  0.4799  0.7288 -0.6101
  991MOL0     C33704   6.739   5.533   3.862  0.0527 -0.7945  0.3418
  991MOL0     C33705   7.161   5.454   3.944 -0.0464 -0.2557  0.0687
  991MOL0     C33706   7.274   5.502   3.875 -0.4144 -0.7519 -0.3807
  991MOL0     C33707   7.399   5.484   3.937 -0.3602  0.0934  0.5160
  991MOL0     C33708   7.417   5.417   4.063 -0.7342  0.3363  0.9891
  991MOL0     O33709   7.540   5.385   4.108  0.6022 -0.5104 -0.0960
  991MOL0     C33710   7.559   5.302   4.230  0.4588  0.5431 -0.3346
  991MOL0     C33711   7.706   5.265   4.243  0.3885 -0.3037  0.2888
  991MOL0     C33712   7.723   5.137   4.162 -0.0348  0.3463 -0.1854
  991MOL0     C33713   7.868   5.088   4.164  0.1672  0.1440 -0.4176
  991MOL0     C33714   7.924   5.066   4.300  0.2303  0.5822  0.5560
  991MOL0     C33715   7.976   5.061   4.411 -0.4124 -0.3733  0.0741
  991MOL0     C33716   7.300   5.402   4.141 -0.2343  0.8889 -0.0239
  991MOL0     C33717   7.178   5.413   4.078  0.9450 -0.0466  0.3333
  991MOL0     H33718   6.749   5.272   4.072  1.4819  0.9909 -0.5667
  991MOL0     H33719   6.508   5.281   4.045 -1.5452 -0.6482 -1.3572
  991MOL0     H33720   6.396   5.473   3.695 -0.6072  2.8478  0.8115
  991MOL0     H33721   6.342   5.320   3.765 -1.2126 -0.0554  2.8458
  991MOL0     H33722   6.139   5.440   3.855  0.1743 -1.4215 -1.0203
  991MOL0     H33723   6.193   5.575   3.744  0.0920  0.2632 -1.7266
  991MOL0     H33724   6.150   5.303   3.635  1.0804  1.4425 -0.9127
  991MOL0     H33725   6.002   5.385   3.681 -0.5149  1.8630  0.5215
  991MOL0     H33726   6.041   5.571   3.539 -2.2930 -2.2154  0.4668
  991MOL0     H33727   6.198   5.504   3.487 -0.0692  0.9549 -1.2562
  991MOL0     H33728   6.014   5.480   3.322  1.3225 -1.2284 -1.6863
  991MOL0     H33729   6.075   5.318   3.377 -0.4303 -0.7301  0.2484
  991MOL0     H33730   5.863   5.281   3.492 -3.0160  0.2744  0.3008
  991MOL0     H33731   5.828   5.450   3.500  0.3500  0.1219 -1.7911
  991MOL0     H33732   5.698   5.397   3.337  0.6639 -1.0377  2.6942
  991MOL0     H33733   5.831   5.449   3.235 -1.7825  0.1681 -0.1747
  991MOL0     H33734   5.779   5.147   3.336  1.0326 -3.9584 -2.7731
  991MOL0     H33735   5.910   5.203   3.229  0.3698  2.1609  0.1266
  991MOL0     H33736   5.508   5.227   3.220 -0.6078 -1.6594  1.2054
  991MOL0     H33737   5.449   5.040   2.873  2.0437 -1.1453  1.4849
  991MOL0     H33738   5.392   4.984   3.024 -0.9388 -0.2581 -1.4849
  991MOL0     H33739   5.341   5.277   2.969  0.5567 -0.2399  0.0581
  991MOL0     H33740   5.258   5.153   3.073  0.5005 -0.8336 -0.3080
  991MOL0     H33741   5.146   5.051   2.886  1.6795 -0.7196  3.3005
  991MOL0     H33742   5.260   5.137   2.771  0.3749 -1.8621  0.7042
  991MOL0     H33743   5.038   5.220   2.771  0.8122 -1.9741  0.2314
  991MOL0     H33744   5.171   5.342   2.813 -1.6002  0.5662  1.3574
  991MOL0     H33745   4.912   5.372   3.164 -1.2435 -1.4795  0.7999
  991MOL0     H33746   4.734   5.421   3.288 -0.4149 -3.7532 -1.1276
  991MOL0     H33747   4.646   5.563   3.240 -1.4543  0.6612 -0.5298
  991MOL0     H33748   4.582   5.386   3.218 -0.3974  1.0231  0.8616
  991MOL0     H33749   4.291   5.391   2.968  0.2776 -1.8427  2.1418
  991MOL0     H33750   4.050   5.408   2.942 -1.7064  3.6548 -3.0381
  991MOL0     H33751   3.858   5.558   2.861 -1.2710 -0.1920 -1.6096
  991MOL0     H33752   3.816   5.421   2.972  1.2497 -0.1861 -1.0006
  991MOL0     H33753   3.658   5.684   2.971 -1.6919 -0.6070  0.4368
  991MOL0     H33754   3.625   5.531   2.890 -0.0854  1.4765  0.3987
  991MOL0     H33755   3.661   5.524   3.194  0.5266  1.6762  0.3000
  991MOL0     H33756   3.574   5.416   3.085  1.7510 -0.8106  1.1174
  991MOL0     H33757   3.545   5.713   3.178  0.6148 -0.6339  1.5984
  991MOL0     H33758   3.430   5.648   3.057 -0.6227 -0.4512 -0.1978
  991MOL0     H33759   3.470   5.526   3.336 -1.3861 -2.7805 -0.3296
  991MOL0     H33760   3.360   5.470   3.203 -0.1993 -0.3895 -0.8905
  991MOL0     H33761   3.224   5.667   3.230  0.9176  1.1442 -1.2113
  991MOL0     H33762   3.239   5.575   3.382  0.4963  1.7439  2.3800
  991MOL0     H33763   3.364   5.852   3.315  2.7374 -0.7356  0.7274
  991MOL0     H33764   3.432   5.739   3.440  0.7569  0.0286  0.7302
  991MOL0     H33765   3.137   5.829   3.438  0.1508  0.8326 -0.7796
  991MOL0     H33766   3.255   5.932   3.508 -3.8697 -0.6892  5.9356
  991MOL0     H33767   4.048   5.772   3.166 -0.3472 -0.3752  1.0839
  991MOL0     H33768   4.293   5.765   3.180  1.3416  0.0751 -0.1892
  991MOL0     H33769   4.704   5.518   2.740 -1.9537  2.1685  2.6630
  991MOL0     H33770   4.921   5.412   2.741 -0.8871 -2.3218  0.0391
  991MOL0     H33771   6.548   5.618   3.808 -2.7653 -1.9746 -2.2819
  991MOL0     H33772   6.793   5.608   3.806 -0.4838  0.5251  1.5250
  991MOL0     H33773   7.268   5.564   3.786  1.6343  3.2137  1.9534
  991MOL0     H33774   7.487   5.522   3.885 -0.7842  0.1146 -0.1969
  991MOL0     H33775   7.530   5.348   4.325  0.6843 -1.0662  0.5525
  991MOL0     H33776   7.497   5.212   4.224 -0.0876  0.7532  1.4997
  991MOL0     H33777   7.726   5.250   4.350  3.4067  0.0765 -0.1367
  991MOL0     H33778   7.773   5.344   4.207  0.5265 -0.4896  0.1382
  991MOL0     H33779   7.683   5.136   4.060  0.4296 -2.4552 -0.4357
  991MOL0     H33780   7.660   5.067   4.217 -0.4281  1.4918  0.8525
  991MOL0     H33781   7.937   5.156   4.115  2.4931 -1.6229  0.2222
  991MOL0     H33782   7.862   4.992   4.112 -0.1322  1.1913 -2.4153
  991MOL0     H33783   8.026   5.037   4.503  0.9923 -2.0042 -1.0597
  991MOL0     H33784   7.303   5.372   4.245  1.8181  0.2937 -0.2117
  991MOL0     H33785   7.092   5.427   4.143  0.8148 -1.6290  0.5415
  992MOL0     O33786   1.411   6.336   3.412 -0.6305 -1.0889 -0.2664
  992MOL0     C33787   1.451   6.368   3.526  0.0945 -1.2765 -0.0714
  992MOL0     O33788   1.375   6.439   3.625  0.5305 -0.2527  0.0332
  992MOL0     C33789   1.247   6.455   3.591  0.5134  0.2851  0.5368
  992MOL0     C33790   1.150   6.348   3.594  0.0669  0.0287  0.5546
  992MOL0     C33791   1.019   6.366   3.548  0.6200  0.5219 -0.6227
  992MOL0     C33792   0.985   6.494   3.507  0.4346 -0.4786  0.1472
  992MOL0     O33793   0.856   6.527   3.470  0.1201 -0.8887  0.6832
  992MOL0     C33794   0.754   6.436   3.496  0.7259 -0.3421 -0.2295
  992MOL0     C33795   0.625   6.522   3.490 -0.0750  0.3926  0.2128
  992MOL0     C33796   0.498   6.438   3.490 -0.1422 -0.3512  0.1008
  992MOL0     C33797   0.472   6.350   3.368  0.5839 -0.1406  0.3274
  992MOL0     C33798   0.323   6.325   3.339 -0.1126 -0.1561  0.4160
  992MOL0     C33799   0.246   6.279   3.470  0.1319 -0.5550 -0.3433
  992MOL0     C33800   0.099   6.261   3.434  0.2717  0.6658  0.1649
  992MOL0     C33801   0.013   6.237   3.563  0.5737  0.1206  0.0921
  992MOL0     N33802  -0.128   6.190   3.536 -0.0396 -0.8016 -0.8949
  992MOL0     C33803  -0.161   6.098   3.433 -0.6835 -0.3805  0.2247
  992MOL0     C33804  -0.293   6.084   3.438 -0.1215  0.1245 -0.2907
  992MOL0     C33805  -0.367   5.990   3.348 -0.8735  0.6925  0.7740
  992MOL0     C33806  -0.519   6.037   3.330 -0.2139 -0.4562 -0.4676
  992MOL0     C33807  -0.590   6.028   3.466 -0.8408 -0.3719 -0.0199
  992MOL0     C33808  -0.735   5.991   3.450 -0.3715  0.6830  1.0590
  992MOL0     O33809  -0.774   5.961   3.585 -0.3538 -0.5988  0.1761
  992MOL0     C33810  -0.907   5.933   3.620 -0.7576 -0.5480  0.3158
  992MOL0     C33811  -0.998   5.894   3.519  0.3001 -0.3927  0.0663
  992MOL0     C33812  -1.135   5.867   3.543 -0.2821 -0.7414 -0.6149
  992MOL0     C33813  -1.222   5.833   3.422 -0.1843 -0.5460 -1.2940
  992MOL0     C33814  -1.181   5.872   3.681 -0.3090  0.0535  0.8226
  992MOL0     C33815  -1.318   5.827   3.722 -0.5772  0.6803 -0.5389
  992MOL0     O33816  -1.339   5.804   3.859 -0.0814 -0.5804 -0.2439
  992MOL0     C33817  -1.466   5.793   3.894  0.6828 -0.3818  0.0236
  992MOL0     C33818  -1.552   5.907   3.888  0.3857 -0.2493  0.6970
  992MOL0     C33819  -1.687   5.885   3.918  0.3063 -0.4925  0.3787
  992MOL0     C33820  -1.730   5.764   3.979 -0.4414  0.2336 -0.1020
  992MOL0     O33821  -1.862   5.732   3.996 -0.1846  0.1550  0.2736
  992MOL0     C33822  -1.957   5.830   3.949 -0.5680  0.4599 -0.1822
  992MOL0     C33823  -2.087   5.748   3.956 -0.3119 -0.4303 -1.0878
  992MOL0     C33824  -2.207   5.839   3.930  0.2745  0.9410 -0.8118
  992MOL0     C33825  -2.335   5.757   3.912  0.1364  0.2852  0.6259
  992MOL0     C33826  -2.449   5.859   3.913  0.7111 -0.2575 -0.6210
  992MOL0     C33827  -2.576   5.808   3.846  0.0228  0.4104  0.1191
  992MOL0     C33828  -2.689   5.914   3.845 -0.5642  0.4295 -0.9802
  992MOL0     C33829  -2.805   5.860   3.765  0.4754  0.1809 -0.3553
  992MOL0    Cl33830  -2.866   5.697   3.817 -0.4217 -0.1140  0.5390
  992MOL0     C33831  -1.640   5.659   3.987  0.7002  0.2510 -0.5293
  992MOL0     C33832  -1.504   5.680   3.961  0.1869  0.6048 -0.6359
  992MOL0     O33833  -1.406   5.812   3.636  0.0623  0.5223  0.4067
  992MOL0     C33834  -1.087   5.907   3.778 -0.0049 -0.8636  0.0906
  992MOL0     C33835  -0.949   5.944   3.749  0.0137 -0.8992  0.1232
  992MOL0     N33836  -0.332   6.153   3.549  0.1378  0.4801 -0.4172
  992MOL0     N33837  -0.238   6.215   3.610  0.7022  0.3241  0.4544
  992MOL0     C33838   1.083   6.593   3.510  0.0293 -0.3185 -0.5889
  992MOL0     C33839   1.214   6.579   3.560 -0.1251 -0.2225  0.3653
  992MOL0     C33840   1.586   6.331   3.571 -0.4892 -0.0889 -0.2660
  992MOL0     C33841   1.650   6.396   3.678 -0.9657  0.8320  0.3475
  992MOL0     C33842   1.777   6.350   3.717  0.4294 -0.7125 -0.2377
  992MOL0     C33843   1.843   6.241   3.658  0.7864 -0.4905  0.4494
  992MOL0     O33844   1.964   6.195   3.694  0.4298  0.7277 -0.0264
  992MOL0     C33845   2.050   6.275   3.774  0.5283  0.9903  0.1149
  992MOL0     C33846   2.178   6.194   3.793 -0.2674 -0.0551 -0.3001
  992MOL0     C33847   2.275   6.183   3.680 -0.5486 -0.2110  0.1701
  992MOL0     C33848   2.363   6.303   3.676  0.1116 -0.2420 -0.6140
  992MOL0     C33849   2.294   6.414   3.605 -0.5673 -0.6823 -0.1014
  992MOL0     C33850   2.243   6.506   3.558 -0.3373 -0.2222  0.0384
  992MOL0     C33851   1.779   6.174   3.555 -0.4198  0.2241  0.3876
  992MOL0     C33852   1.658   6.222   3.502  0.1490 -0.3328 -0.7870
  992MOL0     H33853   1.188   6.256   3.637 -0.9855  1.0424  3.9482
  992MOL0     H33854   0.943   6.294   3.576  0.0867 -0.0712 -3.2518
  992MOL0     H33855   0.756   6.347   3.432 -0.1989 -1.0583  0.6965
  992MOL0     H33856   0.756   6.392   3.596  0.4097 -2.8136 -1.2331
  992MOL0     H33857   0.628   6.583   3.581  0.8492  1.1718 -0.3224
  992MOL0     H33858   0.627   6.571   3.393  1.2784 -0.6481 -0.3193
  992MOL0     H33859   0.496   6.372   3.577 -3.7797 -1.7826 -0.8821
  992MOL0     H33860   0.418   6.512   3.500 -0.5282 -0.5628 -1.2385
  992MOL0     H33861   0.510   6.404   3.280 -1.3619 -2.6975 -2.2526
  992MOL0     H33862   0.531   6.258   3.373  0.9955 -0.0098 -1.3754
  992MOL0     H33863   0.275   6.416   3.301  1.2775 -0.6333 -2.7671
  992MOL0     H33864   0.304   6.255   3.257 -0.3345 -0.1033  0.4204
  992MOL0     H33865   0.292   6.190   3.515  1.2433 -0.2462 -0.8485
  992MOL0     H33866   0.262   6.346   3.555  0.2883 -2.6650  1.4022
  992MOL0     H33867   0.071   6.346   3.371  2.5056 -0.7995 -3.0733
  992MOL0     H33868   0.090   6.174   3.369 -1.0660  1.4283 -0.7153
  992MOL0     H33869  -0.004   6.333   3.614 -0.1706 -0.6890  1.4244
  992MOL0     H33870   0.069   6.176   3.634  0.3413  0.5905  0.7009
  992MOL0     H33871  -0.089   6.054   3.366 -0.7566  1.4165 -1.0969
  992MOL0     H33872  -0.326   5.991   3.247 -2.7593  1.9039 -0.0338
  992MOL0     H33873  -0.377   5.891   3.394 -2.2707  1.1986  1.6181
  992MOL0     H33874  -0.558   5.969   3.254  0.1783  1.8462 -2.8741
  992MOL0     H33875  -0.527   6.142   3.300 -3.7126 -1.0444 -2.0505
  992MOL0     H33876  -0.589   6.125   3.517 -0.5735  0.3332 -1.3243
  992MOL0     H33877  -0.539   5.957   3.532  1.7668 -0.4994 -2.0404
  992MOL0     H33878  -0.740   5.910   3.377  0.9680  1.5871 -0.0901
  992MOL0     H33879  -0.803   6.066   3.407  0.5133  1.4342  0.9391
  992MOL0     H33880  -0.967   5.886   3.416  3.4794 -3.6793  1.0564
  992MOL0     H33881  -1.308   5.900   3.428  2.0866  2.4097  2.7033
  992MOL0     H33882  -1.165   5.848   3.330 -0.3350  1.5317 -1.0788
  992MOL0     H33883  -1.258   5.729   3.422 -2.5225  0.0557  2.7773
  992MOL0     H33884  -1.521   5.998   3.837  1.2795 -1.1030 -0.3507
  992MOL0     H33885  -1.757   5.967   3.905 -4.0030 -3.8258  0.2845
  992MOL0     H33886  -1.961   5.914   4.019 -0.3283 -0.5108  1.0334
  992MOL0     H33887  -1.937   5.862   3.846 -0.2732  3.9089  0.8333
  992MOL0     H33888  -2.102   5.657   3.898  0.6692 -0.9713 -0.5272
  992MOL0     H33889  -2.100   5.714   4.060  1.3046 -0.2314 -0.7875
  992MOL0     H33890  -2.187   5.904   3.844 -0.0836  2.0689 -0.0542
  992MOL0     H33891  -2.227   5.904   4.015  1.5067  2.1163 -1.3870
  992MOL0     H33892  -2.325   5.684   3.830  1.1506 -2.6869  3.2158
  992MOL0     H33893  -2.339   5.691   3.999  4.2904  2.0039  2.3883
  992MOL0     H33894  -2.433   5.958   3.870  0.2854  1.1340  2.1790
  992MOL0     H33895  -2.466   5.885   4.018  1.4905  4.0498 -1.3843
  992MOL0     H33896  -2.555   5.768   3.747 -0.3533  1.2485 -0.3068
  992MOL0     H33897  -2.614   5.725   3.907  2.7907 -0.8920  0.2179
  992MOL0     H33898  -2.645   6.006   3.806 -0.1231  0.2175 -0.9916
  992MOL0     H33899  -2.727   5.937   3.945  0.9927  1.5154 -0.5953
  992MOL0     H33900  -2.778   5.848   3.660 -0.1002 -0.4123 -0.4433
  992MOL0     H33901  -2.877   5.942   3.767 -0.6025 -0.7388  1.9206
  992MOL0     H33902  -1.667   5.561   4.026  1.2158 -0.1702 -1.2014
  992MOL0     H33903  -1.432   5.600   3.976  1.4617  1.5256 -1.6469
  992MOL0     H33904  -1.126   5.913   3.879 -2.2255  0.6875 -0.7735
  992MOL0     H33905  -0.874   5.968   3.823 -0.2608 -0.7334  0.3515
  992MOL0     H33906   1.036   6.687   3.482  0.0359  0.4492  1.7576
  992MOL0     H33907   1.276   6.668   3.564 -0.4499 -0.0175  0.8032
  992MOL0     H33908   1.612   6.486   3.725  1.7576 -0.0654  4.8767
  992MOL0     H33909   1.829   6.405   3.794 -0.2400  0.9407 -0.9274
  992MOL0     H33910   2.076   6.365   3.717  0.0136  1.6994  0.9795
  992MOL0     H33911   2.011   6.302   3.872 -1.7031 -2.4096  0.3265
  992MOL0     H33912   2.152   6.090   3.815  2.5426 -0.1790  3.5062
  992MOL0     H33913   2.229   6.217   3.887  1.7621  0.3706 -1.4389
  992MOL0     H33914   2.223   6.177   3.584 -1.4184  1.8966  0.4426
  992MOL0     H33915   2.328   6.089   3.698 -0.1391 -0.0103  0.0490
  992MOL0     H33916   2.450   6.276   3.615 -0.3028  0.3261 -1.4758
  992MOL0     H33917   2.404   6.332   3.774  2.6738 -2.3986 -0.9447
  992MOL0     H33918   2.201   6.584   3.498  2.1681 -0.7809 -2.6940
  992MOL0     H33919   1.831   6.100   3.496  1.4772  1.6480  0.1747
  992MOL0     H33920   1.623   6.173   3.411  0.0326 -1.8426  0.0372
  993MOL0     O33921   5.732   8.119   3.086  0.1884  0.3130 -0.6453
  993MOL0     C33922   5.757   8.140   3.203 -0.2625 -0.1006  0.1136
  993MOL0     O33923   5.668   8.131   3.302  0.7255 -0.1452  0.0940
  993MOL0     C33924   5.540   8.084   3.271 -0.5292 -0.5963 -0.1240
  993MOL0     C33925   5.466   8.158   3.176 -0.0073 -0.0656 -0.1610
  993MOL0     C33926   5.333   8.119   3.151  0.2093  0.1736  0.0425
  993MOL0     C33927   5.276   8.001   3.205  0.8477  0.2030 -0.0601
  993MOL0     O33928   5.148   7.953   3.182  0.1300 -0.2886  0.4249
  993MOL0     C33929   5.048   8.044   3.221  0.3718  0.0468  0.0754
  993MOL0     C33930   4.916   8.011   3.162  0.0543  0.5195  0.1361
  993MOL0     C33931   4.850   7.893   3.237 -0.6351  0.5893  1.2122
  993MOL0     C33932   4.804   7.770   3.155  0.4855  0.5755 -0.7148
  993MOL0     C33933   4.670   7.790   3.092  0.1705  0.0290 -0.1553
  993MOL0     C33934   4.654   7.688   2.979 -0.6262 -0.1462 -0.3878
  993MOL0     C33935   4.529   7.718   2.899 -0.6381  0.0226  0.2545
  993MOL0     C33936   4.486   7.585   2.825  0.7085 -0.0699  0.2392
  993MOL0     N33937   4.354   7.588   2.746 -0.5625 -0.4267 -0.4334
  993MOL0     C33938   4.271   7.484   2.720  0.2282  0.6924 -0.1710
  993MOL0     C33939   4.195   7.523   2.618  0.2790  0.2898  0.2977
  993MOL0     C33940   4.103   7.418   2.553  0.0782 -0.3847 -0.8430
  993MOL0     C33941   3.965   7.392   2.629 -0.5988 -0.5343  0.0855
  993MOL0     C33942   3.874   7.300   2.550  0.6887 -0.3608 -0.9385
  993MOL0     C33943   3.731   7.293   2.601 -0.2852  0.0193 -0.1342
  993MOL0     O33944   3.660   7.175   2.571 -0.0825  0.2098 -0.0700
  993MOL0     C33945   3.536   7.206   2.535 -0.1963  0.1803  0.2408
  993MOL0     C33946   3.442   7.271   2.615  0.2048  0.2492 -0.1801
  993MOL0     C33947   3.309   7.294   2.580  0.3885 -0.1154  0.2665
  993MOL0     C33948   3.222   7.368   2.676  0.3332 -0.0737  0.1111
  993MOL0     C33949   3.262   7.244   2.449 -0.7547 -0.1537 -0.6156
  993MOL0     C33950   3.113   7.240   2.416  0.6310 -1.3575 -0.5933
  993MOL0     O33951   3.021   7.256   2.521  0.4749 -0.9066  0.1750
  993MOL0     C33952   2.887   7.273   2.499  0.1781  0.0331 -0.9632
  993MOL0     C33953   2.815   7.211   2.407 -0.1490  1.2060  0.1968
  993MOL0     C33954   2.676   7.220   2.398 -0.4522  0.6047 -0.2033
  993MOL0     C33955   2.604   7.299   2.487  0.5742  0.1258  0.1336
  993MOL0     O33956   2.468   7.299   2.478  0.0292  0.2467  0.3764
  993MOL0     C33957   2.375   7.349   2.579 -0.7613  0.9324 -0.1460
  993MOL0     C33958   2.235   7.333   2.508 -0.6221  0.0636 -0.1182
  993MOL0     C33959   2.191   7.462   2.442  0.2607  0.4893  0.7532
  993MOL0     C33960   2.080   7.441   2.338 -0.1816  1.2740 -0.2161
  993MOL0     C33961   1.960   7.357   2.391  0.1585 -0.0308  0.9544
  993MOL0     C33962   1.833   7.393   2.314 -0.6661  0.0570 -0.1775
  993MOL0     C33963   1.846   7.347   2.168 -0.5315  0.8534  0.2571
  993MOL0     C33964   1.726   7.352   2.084  0.1659 -0.1530  0.6523
  993MOL0    Cl33965   1.641   7.510   2.077  0.0144  0.8057  0.5175
  993MOL0     C33966   2.675   7.366   2.589  0.0690  0.2830  0.0547
  993MOL0     C33967   2.817   7.347   2.595 -0.0309  0.0872 -0.9763
  993MOL0     O33968   3.085   7.234   2.298 -0.3756  0.3701  0.2001
  993MOL0     C33969   3.359   7.187   2.363 -0.3493  0.0133  0.2320
  993MOL0     C33970   3.492   7.165   2.406  0.4229 -0.2825 -0.3112
  993MOL0     N33971   4.211   7.658   2.602  0.3017  0.0200 -0.5092
  993MOL0     N33972   4.306   7.691   2.680 -0.1145  0.3859  0.3734
  993MOL0     C33973   5.355   7.929   3.296 -0.5652  0.2115  0.7490
  993MOL0     C33974   5.485   7.967   3.334  0.5899  0.3324 -0.2729
  993MOL0     C33975   5.897   8.167   3.238  0.1576  0.0049 -0.0371
  993MOL0     C33976   5.997   8.179   3.140 -0.3511  0.2111  0.8337
  993MOL0     C33977   6.133   8.202   3.180 -0.1742  0.4549  0.4406
  993MOL0     C33978   6.166   8.219   3.317 -0.0834  0.9078  0.6632
  993MOL0     O33979   6.294   8.248   3.343  0.1345  0.4849  0.3987
  993MOL0     C33980   6.336   8.374   3.290 -0.8870  0.9283  0.2447
  993MOL0     C33981   6.373   8.471   3.400 -0.0111 -0.3311  0.0205
  993MOL0     C33982   6.504   8.441   3.474 -0.0750 -0.8352  0.3170
  993MOL0     C33983   6.556   8.559   3.547 -0.5997 -0.2207  1.0920
  993MOL0     C33984   6.643   8.645   3.461 -0.3421  0.2975 -0.5619
  993MOL0     C33985   6.698   8.727   3.394 -0.4426  0.6097 -0.9204
  993MOL0     C33986   6.066   8.216   3.413  0.1750 -0.4521 -0.0765
  993MOL0     C33987   5.933   8.182   3.373  0.5353 -0.4132 -0.3004
  993MOL0     H33988   5.506   8.244   3.124  0.2297  1.1671  1.9717
  993MOL0     H33989   5.270   8.186   3.093  1.3074  0.6555 -0.6304
  993MOL0     H33990   5.036   8.042   3.330 -0.8706  2.0718  0.0376
  993MOL0     H33991   5.069   8.150   3.200 -2.0778  0.9422  1.6333
  993MOL0     H33992   4.853   8.098   3.177 -3.0370 -1.2096 -1.6718
  993MOL0     H33993   4.917   7.991   3.054  0.4653 -0.3621  0.2881
  993MOL0     H33994   4.920   7.854   3.312 -0.9893 -2.9720 -0.0753
  993MOL0     H33995   4.771   7.937   3.297 -1.7509  1.1457 -0.5921
  993MOL0     H33996   4.887   7.750   3.087  0.9081  2.0169 -0.6559
  993MOL0     H33997   4.796   7.689   3.228  0.1881  0.8832 -0.3959
  993MOL0     H33998   4.592   7.788   3.168  0.5159  1.2688  0.2562
  993MOL0     H33999   4.677   7.888   3.044  3.5352  0.6831  1.3202
  993MOL0     H34000   4.743   7.698   2.916  0.0866  0.7821  0.7145
  993MOL0     H34001   4.639   7.589   3.022 -0.2207 -1.8222 -3.7669
  993MOL0     H34002   4.443   7.754   2.957 -0.4354 -1.0349  1.2345
  993MOL0     H34003   4.538   7.803   2.831  0.3438  0.5329  1.0061
  993MOL0     H34004   4.485   7.501   2.895 -1.5659  0.1142  0.4816
  993MOL0     H34005   4.564   7.582   2.748  0.6888  1.6891  0.1095
  993MOL0     H34006   4.285   7.383   2.759  1.1289  0.6845 -0.4883
  993MOL0     H34007   4.065   7.468   2.463 -0.3498 -0.7040 -0.8407
  993MOL0     H34008   4.160   7.328   2.530  1.6485 -0.8334  3.8507
  993MOL0     H34009   3.921   7.492   2.641  2.9259  1.5447 -2.4459
  993MOL0     H34010   3.993   7.345   2.724  0.5553  1.2094  0.6539
  993MOL0     H34011   3.928   7.205   2.552  0.0447 -0.8043 -2.5756
  993MOL0     H34012   3.873   7.328   2.444  1.2426 -0.2546 -0.9174
  993MOL0     H34013   3.682   7.384   2.564  2.0016  1.7057  0.7647
  993MOL0     H34014   3.738   7.311   2.709  0.4058  0.0881 -0.1849
  993MOL0     H34015   3.469   7.312   2.712  2.6962  1.4413 -1.2873
  993MOL0     H34016   3.145   7.310   2.728 -0.3831  0.6742 -0.0956
  993MOL0     H34017   3.288   7.418   2.748 -2.0332  0.4752  2.0054
  993MOL0     H34018   3.167   7.439   2.614  1.2847  0.9527  0.4122
  993MOL0     H34019   2.866   7.151   2.333  1.2820 -0.6660  2.5608
  993MOL0     H34020   2.618   7.168   2.323 -0.9450  0.7406  0.0762
  993MOL0     H34021   2.373   7.286   2.669 -0.0110  1.6644  0.3949
  993MOL0     H34022   2.398   7.450   2.613  0.0379 -0.2069  3.0845
  993MOL0     H34023   2.233   7.250   2.437  2.8158 -0.5645  0.3173
  993MOL0     H34024   2.162   7.309   2.585  0.5560  2.4034  1.8809
  993MOL0     H34025   2.278   7.505   2.392 -0.3029 -1.9759 -2.7102
  993MOL0     H34026   2.156   7.535   2.516  1.7154  1.8673  0.1352
  993MOL0     H34027   2.054   7.537   2.294  1.1875  0.5450 -2.8661
  993MOL0     H34028   2.113   7.375   2.257 -0.9059 -1.2786  1.4446
  993MOL0     H34029   1.963   7.379   2.498  0.0806  1.2567  0.7162
  993MOL0     H34030   1.985   7.252   2.379 -1.3515 -0.0904 -4.0615
  993MOL0     H34031   1.748   7.345   2.363 -1.0236  2.6308  1.9838
  993MOL0     H34032   1.815   7.501   2.320  0.4447  0.2427 -0.0244
  993MOL0     H34033   1.883   7.244   2.171 -0.7751  0.6536 -1.8865
  993MOL0     H34034   1.917   7.413   2.116 -1.6437  0.5210 -1.7916
  993MOL0     H34035   1.660   7.279   2.132  1.4020 -1.9974 -0.3001
  993MOL0     H34036   1.744   7.301   1.989  0.5403  0.2385  0.5119
  993MOL0     H34037   2.629   7.423   2.670 -0.1173  1.7308 -1.0337
  993MOL0     H34038   2.872   7.395   2.675 -0.3211 -0.4805 -0.4371
  993MOL0     H34039   3.326   7.153   2.265  0.4980  0.7891 -0.3290
  993MOL0     H34040   3.573   7.132   2.341  1.0298  0.3088  0.1149
  993MOL0     H34041   5.305   7.839   3.332 -0.9303  0.7446  1.6091
  993MOL0     H34042   5.543   7.915   3.410 -2.4215  1.4042  3.0074
  993MOL0     H34043   5.977   8.172   3.033  3.0664  1.3050  0.0101
  993MOL0     H34044   6.213   8.200   3.106  0.8700 -1.5445  1.5195
  993MOL0     H34045   6.424   8.368   3.224 -0.4163 -6.6219  0.7568
  993MOL0     H34046   6.248   8.423   3.246 -1.7059  0.6227  1.4963
  993MOL0     H34047   6.288   8.491   3.466  0.1677 -0.2936  0.2371
  993MOL0     H34048   6.399   8.567   3.355  1.4098 -0.3924  0.6675
  993MOL0     H34049   6.578   8.408   3.400  0.6479  1.4963 -0.1024
  993MOL0     H34050   6.482   8.364   3.548 -1.0316 -1.9892 -1.1093
  993MOL0     H34051   6.621   8.527   3.629  0.8698  0.4984  0.2356
  993MOL0     H34052   6.477   8.618   3.596 -1.1654  0.2759 -0.3684
  993MOL0     H34053   6.751   8.804   3.340  0.9680 -0.0008 -0.4434
  993MOL0     H34054   6.092   8.236   3.516 -0.1389  0.3178 -0.1408
  993MOL0     H34055   5.857   8.160   3.447  1.0238  0.2690  0.4209
  994MOL0     O34056  10.669   5.733   1.658 -0.1179  0.7960  0.9932
  994MOL0     C34057  10.723   5.831   1.613  0.1195 -0.4423 -0.4754
  994MOL0     O34058  10.661   5.935   1.542 -0.6244 -0.0032  0.6554
  994MOL0     C34059  10.526   5.931   1.506 -0.2296  1.1815  0.0784
  994MOL0     C34060  10.426   5.924   1.606 -0.6739  0.3858 -0.1759
  994MOL0     C34061  10.295   5.893   1.566  0.6687 -0.1330 -0.1875
  994MOL0     C34062  10.257   5.885   1.427  0.0152  0.1172 -0.4630
  994MOL0     O34063  10.127   5.859   1.382  0.4683 -0.6029  0.3248
  994MOL0     C34064  10.011   5.912   1.448  0.4180 -0.8694 -0.4533
  994MOL0     C34065   9.989   6.058   1.404  0.4480 -0.3686  0.0408
  994MOL0     C34066   9.836   6.091   1.398  0.7128 -0.0833  0.4625
  994MOL0     C34067   9.801   6.205   1.312 -0.3001 -0.0594  0.0645
  994MOL0     C34068   9.657   6.237   1.301 -0.4912  0.2608 -0.5823
  994MOL0     C34069   9.602   6.295   1.433  0.1094  0.7426  0.4224
  994MOL0     C34070   9.467   6.362   1.407 -0.4779 -1.0225 -0.1138
  994MOL0     C34071   9.363   6.280   1.329  0.4057  1.1129 -0.0387
  994MOL0     N34072   9.229   6.324   1.311 -0.0999  0.0815  0.4204
  994MOL0     C34073   9.150   6.334   1.419  0.3860  0.3464 -0.1237
  994MOL0     C34074   9.027   6.376   1.371 -0.7390 -0.5882 -0.5655
  994MOL0     C34075   8.896   6.397   1.448  0.2023 -0.0765 -0.4601
  994MOL0     C34076   8.838   6.540   1.446  0.1042 -0.2508 -0.6518
  994MOL0     C34077   8.710   6.551   1.533  0.2387 -0.7992 -0.8745
  994MOL0     C34078   8.591   6.497   1.467  0.0251  0.1076 -0.4332
  994MOL0     O34079   8.475   6.527   1.536 -0.3966  0.1391  0.3873
  994MOL0     C34080   8.352   6.511   1.469  0.0818  0.3839 -0.0747
  994MOL0     C34081   8.325   6.456   1.341 -0.4658 -0.4594  0.6299
  994MOL0     C34082   8.193   6.442   1.286 -0.4197 -0.4332 -0.1325
  994MOL0     C34083   8.182   6.380   1.151 -0.0109  0.3120 -0.1442
  994MOL0     C34084   8.084   6.478   1.375  0.2007  0.5523 -1.2470
  994MOL0     C34085   7.938   6.473   1.343  0.7292  0.4803 -0.0136
  994MOL0     O34086   7.854   6.524   1.430 -0.2568 -0.9972 -0.8642
  994MOL0     C34087   7.719   6.526   1.411  0.5677 -0.2649  0.4833
  994MOL0     C34088   7.651   6.576   1.296  0.1213  0.7248  0.1898
  994MOL0     C34089   7.516   6.572   1.286 -0.7469 -1.1612 -0.4978
  994MOL0     C34090   7.431   6.529   1.389  0.0632  0.2151 -0.5874
  994MOL0     O34091   7.292   6.545   1.374 -0.2516  0.4862  0.0082
  994MOL0     C34092   7.206   6.465   1.456  0.2721  0.1888 -0.5522
  994MOL0     C34093   7.177   6.543   1.582 -0.5080  0.0584 -0.3289
  994MOL0     C34094   7.072   6.477   1.674  0.1799 -0.6225  0.7851
  994MOL0     C34095   6.937   6.502   1.613  0.3737 -0.3147 -0.0423
  994MOL0     C34096   6.829   6.445   1.700 -0.1436  0.6613  0.3109
  994MOL0     C34097   6.684   6.470   1.648  0.3964 -0.3844 -0.2974
  994MOL0     C34098   6.652   6.612   1.601  1.3195 -0.1016 -0.0227
  994MOL0     C34099   6.502   6.647   1.587  0.0162 -0.2360 -0.1605
  994MOL0    Cl34100   6.405   6.626   1.745  0.4057 -0.0280  0.2586
  994MOL0     C34101   7.489   6.495   1.510 -0.0188 -0.1506  0.5012
  994MOL0     C34102   7.633   6.482   1.517  1.2313 -0.1814 -0.7643
  994MOL0     O34103   7.906   6.404   1.248 -0.3964  0.4254 -0.0793
  994MOL0     C34104   8.113   6.543   1.498 -0.3179 -0.0695 -0.2629
  994MOL0     C34105   8.243   6.553   1.543 -0.3521  0.5866 -0.2201
  994MOL0     N34106   9.043   6.399   1.233 -0.4693 -0.1944 -0.0703
  994MOL0     N34107   9.166   6.369   1.197 -0.8560  0.0874  0.3656
  994MOL0     C34108  10.357   5.879   1.331  0.3022  0.8400 -0.0294
  994MOL0     C34109  10.488   5.910   1.371  0.5931  0.3380  0.5136
  994MOL0     C34110  10.863   5.852   1.642  0.5583 -0.0576  0.2331
  994MOL0     C34111  10.924   5.756   1.718 -0.0544  1.0536 -0.0734
  994MOL0     C34112  11.056   5.772   1.756  0.1571  0.0223 -0.0527
  994MOL0     C34113  11.135   5.881   1.722  0.4209 -0.4884  0.3791
  994MOL0     O34114  11.262   5.880   1.771 -0.6636 -0.3954  0.1413
  994MOL0     C34115  11.346   5.986   1.726  0.3000  0.0420  0.3326
  994MOL0     C34116  11.449   6.008   1.831 -0.1004 -0.2740 -0.4994
  994MOL0     C34117  11.535   6.126   1.776 -0.4241 -0.3301 -0.7173
  994MOL0     C34118  11.656   6.149   1.870 -0.4644  0.8680  0.8821
  994MOL0     C34119  11.594   6.213   1.984  0.9152  0.2521 -0.1409
  994MOL0     C34120  11.543   6.260   2.084  0.6316 -0.1079 -0.7805
  994MOL0     C34121  11.067   5.979   1.642  0.5131  0.7319  0.1784
  994MOL0     C34122  10.935   5.964   1.598  0.2393  0.5898  0.7663
  994MOL0     H34123  10.456   5.931   1.710  1.9383 -0.4199 -0.8152
  994MOL0     H34124  10.217   5.867   1.637  0.1504 -2.6884 -1.5880
  994MOL0     H34125   9.929   5.851   1.410 -1.6470  1.2900  0.2353
  994MOL0     H34126  10.016   5.908   1.557  1.4433  1.8626 -0.3042
  994MOL0     H34127  10.048   6.132   1.459  2.2094 -0.0724 -2.1118
  994MOL0     H34128  10.016   6.064   1.298 -2.8907 -0.8772 -0.9688
  994MOL0     H34129   9.770   6.009   1.367 -2.2701  1.3564  2.4362
  994MOL0     H34130   9.804   6.115   1.500 -1.6117 -4.5598  1.0768
  994MOL0     H34131   9.847   6.295   1.354  0.5254 -1.2127  1.7267
  994MOL0     H34132   9.855   6.182   1.219 -0.7838 -2.2552  0.2796
  994MOL0     H34133   9.657   6.304   1.215  0.4097  1.1588  0.0950
  994MOL0     H34134   9.601   6.145   1.281 -1.1904  0.6264 -0.3579
  994MOL0     H34135   9.585   6.220   1.511 -0.0899 -0.2217 -0.5307
  994MOL0     H34136   9.671   6.374   1.467 -0.5507  1.0257  1.1407
  994MOL0     H34137   9.424   6.390   1.505 -0.4199  2.3297 -0.9107
  994MOL0     H34138   9.476   6.454   1.349  0.9186 -0.4176  1.0014
  994MOL0     H34139   9.355   6.197   1.400 -0.8853  1.2866  0.0550
  994MOL0     H34140   9.408   6.243   1.237 -2.2769 -2.4666 -0.1235
  994MOL0     H34141   9.171   6.303   1.521  0.6237 -1.4414 -0.6810
  994MOL0     H34142   8.819   6.327   1.416  1.9912 -0.8522 -3.4931
  994MOL0     H34143   8.922   6.379   1.553  2.2930 -2.6074 -1.2748
  994MOL0     H34144   8.817   6.579   1.346 -1.8108  0.1957 -0.1172
  994MOL0     H34145   8.926   6.594   1.482  1.1267 -1.6907 -0.8967
  994MOL0     H34146   8.697   6.659   1.544  0.1467 -0.9380  0.5465
  994MOL0     H34147   8.705   6.507   1.634 -1.9744 -0.9594 -0.9970
  994MOL0     H34148   8.592   6.388   1.466 -1.4281 -0.0726  3.3683
  994MOL0     H34149   8.585   6.535   1.364 -0.8451 -5.2781 -2.6937
  994MOL0     H34150   8.414   6.428   1.285 -0.2473  2.3611 -0.6178
  994MOL0     H34151   8.275   6.389   1.094  1.2244  0.1321  1.7458
  994MOL0     H34152   8.141   6.279   1.164 -3.2010  1.3202 -1.3458
  994MOL0     H34153   8.108   6.436   1.093  0.3872  1.5143  0.4790
  994MOL0     H34154   7.712   6.611   1.214 -2.3344  0.4560 -1.8616
  994MOL0     H34155   7.487   6.599   1.185  1.7954 -2.9126 -1.8008
  994MOL0     H34156   7.111   6.447   1.404  0.2455 -4.2527  0.6563
  994MOL0     H34157   7.260   6.373   1.478  0.1925 -0.0309 -1.2496
  994MOL0     H34158   7.266   6.554   1.644 -0.7503  1.2260 -0.1769
  994MOL0     H34159   7.155   6.647   1.557 -1.3879  0.1135  0.6374
  994MOL0     H34160   7.088   6.512   1.776 -0.7328 -0.3026  0.8262
  994MOL0     H34161   7.095   6.370   1.669 -1.4150 -0.9618 -0.1638
  994MOL0     H34162   6.928   6.610   1.620  0.6946 -0.1524 -1.8304
  994MOL0     H34163   6.935   6.473   1.508  0.2830  0.2316 -0.1932
  994MOL0     H34164   6.821   6.512   1.787 -0.6420  4.9911 -2.7359
  994MOL0     H34165   6.841   6.338   1.722 -2.4932  0.9396  3.9979
  994MOL0     H34166   6.669   6.406   1.561 -1.6001  1.6774 -1.5876
  994MOL0     H34167   6.610   6.451   1.726  0.1981  0.2155 -0.3306
  994MOL0     H34168   6.690   6.619   1.499 -3.5771  1.2177 -2.0418
  994MOL0     H34169   6.698   6.692   1.660 -0.6583  1.4997 -0.5263
  994MOL0     H34170   6.455   6.579   1.515 -2.6117  1.1068  0.1891
  994MOL0     H34171   6.498   6.751   1.556  3.5131  0.2711  0.5777
  994MOL0     H34172   7.438   6.465   1.600  0.5826 -0.9100  0.6088
  994MOL0     H34173   7.670   6.461   1.617 -2.1083  0.8828  0.8470
  994MOL0     H34174   8.036   6.576   1.567 -1.7115  1.3497 -2.3629
  994MOL0     H34175   8.266   6.583   1.645  3.7372  1.4574 -1.2122
  994MOL0     H34176  10.333   5.850   1.229 -1.3006  0.6015  0.3898
  994MOL0     H34177  10.551   5.918   1.283 -1.2776 -1.2990 -1.0621
  994MOL0     H34178  10.871   5.675   1.768 -1.0176  1.9737  0.4388
  994MOL0     H34179  11.100   5.692   1.815 -2.1703  0.5493  2.6618
  994MOL0     H34180  11.385   5.949   1.631  0.8348  2.8839 -0.6555
  994MOL0     H34181  11.300   6.085   1.714 -0.6762 -0.4109  0.2279
  994MOL0     H34182  11.506   5.916   1.846  1.8213  0.2994 -3.4094
  994MOL0     H34183  11.401   6.046   1.922  1.1069 -1.5349  0.7261
  994MOL0     H34184  11.476   6.217   1.768 -1.8514 -1.1117  0.3389
  994MOL0     H34185  11.583   6.098   1.682  0.9209  3.9876 -1.5340
  994MOL0     H34186  11.725   6.222   1.827  0.5495  1.1764  2.9136
  994MOL0     H34187  11.709   6.060   1.904  1.2111  1.6679  0.4804
  994MOL0     H34188  11.494   6.300   2.171  1.8655  1.3515 -0.7341
  994MOL0     H34189  11.120   6.070   1.617  0.4735  0.8756  0.6002
  994MOL0     H34190  10.896   6.057   1.556 -1.4389  0.3538  1.7398
  995MOL0     O34191   7.913   3.010   4.019 -0.3022  0.6491 -0.7629
  995MOL0     C34192   7.951   2.923   4.102  0.3223  0.2830 -0.0996
  995MOL0     O34193   7.881   2.822   4.148  0.2034  0.0061 -0.0035
  995MOL0     C34194   7.763   2.777   4.100  0.3589 -0.6218 -0.0244
  995MOL0     C34195   7.714   2.818   3.972  0.0674 -0.0059 -0.7922
  995MOL0     C34196   7.598   2.764   3.922  0.3580  0.4650 -0.6040
  995MOL0     C34197   7.522   2.661   3.988  0.0988  0.1564 -0.4469
  995MOL0     O34198   7.405   2.604   3.942 -0.0553 -0.1890  0.2485
  995MOL0     C34199   7.363   2.643   3.812  0.2918 -0.6370 -0.4364
  995MOL0     C34200   7.227   2.577   3.796  0.5484  0.0203 -0.6272
  995MOL0     C34201   7.183   2.537   3.655 -0.0223 -0.1969  0.3621
  995MOL0     C34202   7.053   2.456   3.650 -0.6554  1.1132  0.5006
  995MOL0     C34203   7.002   2.434   3.509  0.2802 -0.3329 -0.5446
  995MOL0     C34204   6.867   2.363   3.500 -0.9604 -0.2355 -0.5325
  995MOL0     C34205   6.827   2.351   3.358  1.2497 -0.5779 -0.2607
  995MOL0     C34206   6.675   2.338   3.318  0.4680  0.5445  0.6176
  995MOL0     N34207   6.606   2.462   3.351  0.9889  0.1461 -0.3158
  995MOL0     C34208   6.631   2.581   3.290  0.1203  0.5541  0.5187
  995MOL0     C34209   6.535   2.660   3.342 -0.7484 -0.2220  0.3093
  995MOL0     C34210   6.506   2.802   3.294  0.0305 -0.6281 -0.5975
  995MOL0     C34211   6.407   2.780   3.179  0.5212  0.3365  0.1550
  995MOL0     C34212   6.382   2.924   3.132 -0.1956 -0.6495 -1.0826
  995MOL0     C34213   6.277   2.937   3.032  0.5773  0.5401 -0.4838
  995MOL0     O34214   6.156   2.880   3.071 -0.5484 -0.2338 -0.4866
  995MOL0     C34215   6.031   2.927   3.035 -0.0419  0.4318  1.2638
  995MOL0     C34216   6.003   3.028   2.935  0.6257  0.2565  0.0015
  995MOL0     C34217   5.874   3.082   2.913  0.9705  0.1835  0.4522
  995MOL0     C34218   5.861   3.196   2.815  0.0264 -0.6723 -0.6068
  995MOL0     C34219   5.764   3.020   2.984  0.0153 -0.1438 -0.6514
  995MOL0     C34220   5.615   3.066   2.975 -0.1378  0.7634  0.1857
  995MOL0     O34221   5.526   3.008   3.065 -0.4531 -0.1777  0.0680
  995MOL0     C34222   5.394   2.985   3.031 -0.0081 -0.5744  0.1606
  995MOL0     C34223   5.344   2.968   2.902  0.4137 -0.1023  0.2708
  995MOL0     C34224   5.210   2.953   2.879 -0.3632 -0.5332 -0.6544
  995MOL0     C34225   5.118   2.957   2.990 -0.8106  0.3770  0.5068
  995MOL0     O34226   4.992   2.941   2.939 -0.7354  0.5713 -0.5373
  995MOL0     C34227   4.888   2.951   3.043 -0.0053 -0.3454 -0.6943
  995MOL0     C34228   4.757   2.931   2.968  0.1173  0.6540  0.3009
  995MOL0     C34229   4.640   2.981   3.059  0.3596 -0.5417 -0.0871
  995MOL0     C34230   4.627   2.913   3.193  0.1313 -0.7852  0.0274
  995MOL0     C34231   4.570   2.775   3.176 -0.1700 -0.5466 -0.2678
  995MOL0     C34232   4.563   2.694   3.310 -0.2799 -0.6915 -0.2858
  995MOL0     C34233   4.477   2.576   3.298  0.0451  0.5265 -0.2386
  995MOL0     C34234   4.433   2.508   3.419 -0.2773 -0.3494 -0.4049
  995MOL0    Cl34235   4.327   2.362   3.375  0.2731 -0.6236  0.2525
  995MOL0     C34236   5.164   2.964   3.119 -0.0808 -0.3237  0.0719
  995MOL0     C34237   5.305   2.977   3.139  0.2898  0.1702 -0.2370
  995MOL0     O34238   5.581   3.134   2.880  0.3913  0.2478 -0.3190
  995MOL0     C34239   5.797   2.916   3.080  0.2065 -0.6792 -0.1913
  995MOL0     C34240   5.926   2.875   3.101 -0.0376 -0.1244 -0.1955
  995MOL0     N34241   6.467   2.598   3.444  0.0485  0.1137 -0.7667
  995MOL0     N34242   6.502   2.473   3.446 -0.2204  0.5080  0.0204
  995MOL0     C34243   7.565   2.627   4.112 -0.5093 -0.2009 -0.5440
  995MOL0     C34244   7.685   2.685   4.172  0.5422 -0.3324 -0.3111
  995MOL0     C34245   8.084   2.935   4.159  0.4470  0.9679 -0.2957
  995MOL0     C34246   8.116   2.846   4.268  0.2162  0.0725  0.9073
  995MOL0     C34247   8.239   2.850   4.318 -0.2988  0.4266  0.4415
  995MOL0     C34248   8.341   2.940   4.271  0.0416  0.8640 -0.9959
  995MOL0     O34249   8.470   2.935   4.313 -0.0004  0.3354  0.0219
  995MOL0     C34250   8.577   2.986   4.236  0.3877 -0.4872 -0.9121
  995MOL0     C34251   8.718   2.948   4.285 -0.0259 -0.1578  0.2244
  995MOL0     C34252   8.755   3.047   4.399 -0.1613  0.4711  0.7588
  995MOL0     C34253   8.895   3.034   4.466 -0.6833 -0.4078  0.5958
  995MOL0     C34254   8.907   2.917   4.545  0.9595  0.4687  0.7215
  995MOL0     C34255   8.925   2.821   4.609  0.1824  0.2735  0.8145
  995MOL0     C34256   8.300   3.031   4.176  1.0062  0.0915  0.4519
  995MOL0     C34257   8.168   3.039   4.124 -0.5637  0.6190  0.5184
  995MOL0     H34258   7.763   2.897   3.916  2.2368  0.3021  1.3473
  995MOL0     H34259   7.566   2.811   3.830 -1.7626 -1.0737 -0.7209
  995MOL0     H34260   7.353   2.752   3.803  3.2199 -0.5006 -4.3443
  995MOL0     H34261   7.425   2.616   3.727  0.6104  0.5906 -0.6087
  995MOL0     H34262   7.240   2.483   3.850 -0.6622  0.8206  1.1677
  995MOL0     H34263   7.164   2.652   3.845  3.8722  2.5764  0.1398
  995MOL0     H34264   7.168   2.634   3.605  2.8535 -0.1306 -0.5125
  995MOL0     H34265   7.254   2.470   3.606  0.2216 -1.1837  1.9994
  995MOL0     H34266   7.066   2.356   3.693 -1.3522  2.1523  3.3908
  995MOL0     H34267   6.982   2.502   3.719  0.6101  2.0529  1.2107
  995MOL0     H34268   7.012   2.523   3.445  3.1258  1.0777  1.6445
  995MOL0     H34269   7.068   2.365   3.456  1.3413  1.6937 -1.9852
  995MOL0     H34270   6.882   2.258   3.527  2.4747  0.1867 -0.4237
  995MOL0     H34271   6.788   2.414   3.556  0.2101  0.7554  0.2689
  995MOL0     H34272   6.860   2.442   3.307  0.3275 -0.6949 -1.0911
  995MOL0     H34273   6.873   2.263   3.311 -0.8521 -1.1678 -1.3109
  995MOL0     H34274   6.627   2.254   3.370  1.3601 -3.7328 -4.5119
  995MOL0     H34275   6.661   2.310   3.213 -0.5021 -0.8095  1.0718
  995MOL0     H34276   6.720   2.599   3.231 -0.2505  0.1212 -0.1831
  995MOL0     H34277   6.471   2.863   3.378 -0.5014 -1.2551 -0.3478
  995MOL0     H34278   6.592   2.852   3.250 -0.1498  1.7224  1.5172
  995MOL0     H34279   6.317   2.730   3.213  0.1551  0.6762 -0.3004
  995MOL0     H34280   6.454   2.735   3.090 -2.6117 -0.5620 -1.1860
  995MOL0     H34281   6.473   2.967   3.088  1.7005 -1.7503  1.4858
  995MOL0     H34282   6.359   2.988   3.218 -0.9503 -0.3526 -1.4964
  995MOL0     H34283   6.306   2.892   2.937 -2.6418 -0.6903 -1.0199
  995MOL0     H34284   6.280   3.045   3.019  2.5937  0.3964 -1.5782
  995MOL0     H34285   6.082   3.067   2.870  1.0085 -2.6553 -1.4553
  995MOL0     H34286   5.951   3.255   2.830 -1.0922  0.8525  0.3052
  995MOL0     H34287   5.845   3.163   2.711 -0.2894  2.3175 -1.6008
  995MOL0     H34288   5.779   3.266   2.833  1.3289  1.6733 -3.0273
  995MOL0     H34289   5.418   2.963   2.823 -0.5325 -0.5031 -0.6162
  995MOL0     H34290   5.169   2.947   2.779 -2.3386  1.3416 -0.0234
  995MOL0     H34291   4.890   2.864   3.109 -0.2967  1.4360  1.8248
  995MOL0     H34292   4.885   3.042   3.104  0.6400 -1.5272  1.1769
  995MOL0     H34293   4.756   2.984   2.873  0.1679  0.3645  0.1381
  995MOL0     H34294   4.731   2.828   2.942  0.1617  1.1277 -1.7656
  995MOL0     H34295   4.546   2.970   3.004 -0.1135 -1.4543  0.8667
  995MOL0     H34296   4.664   3.085   3.086  3.1280 -0.7837 -1.2782
  995MOL0     H34297   4.720   2.916   3.251  1.3330 -1.8674 -1.7749
  995MOL0     H34298   4.558   2.978   3.249 -0.9491 -2.1218  0.2802
  995MOL0     H34299   4.637   2.721   3.108  1.2744  0.9145 -0.0658
  995MOL0     H34300   4.469   2.790   3.136 -0.5081 -1.1162  0.3445
  995MOL0     H34301   4.665   2.662   3.331 -0.2602 -0.1543  0.4788
  995MOL0     H34302   4.515   2.746   3.394  0.8655 -0.9769  0.5575
  995MOL0     H34303   4.539   2.504   3.242 -0.2642  1.5411 -1.9499
  995MOL0     H34304   4.386   2.599   3.242 -1.4983  0.4034  2.0764
  995MOL0     H34305   4.377   2.577   3.482  0.1294 -1.9287  1.8108
  995MOL0     H34306   4.513   2.493   3.492 -0.4215  2.5236  0.4840
  995MOL0     H34307   5.109   2.950   3.212  0.9097  1.5334  0.9765
  995MOL0     H34308   5.351   2.990   3.236 -1.3173 -0.1387  0.5984
  995MOL0     H34309   5.720   2.862   3.134  2.0064 -2.3424  0.8517
  995MOL0     H34310   5.949   2.794   3.170 -0.0620  1.6367  2.0222
  995MOL0     H34311   7.505   2.559   4.172 -2.0351 -0.6802 -2.4973
  995MOL0     H34312   7.730   2.659   4.267  0.8040 -1.4623 -0.7254
  995MOL0     H34313   8.044   2.784   4.321  0.9068 -0.8153  0.8295
  995MOL0     H34314   8.267   2.776   4.392 -1.8123  1.9203  2.6427
  995MOL0     H34315   8.574   2.936   4.139  3.5958 -1.9065 -0.3969
  995MOL0     H34316   8.559   3.094   4.230  0.9464 -0.1590  2.0545
  995MOL0     H34317   8.804   2.957   4.217  0.4632 -0.9835  0.7070
  995MOL0     H34318   8.723   2.845   4.321  0.5525 -0.7644 -1.5049
  995MOL0     H34319   8.689   3.033   4.485  1.0627 -3.1919  1.2763
  995MOL0     H34320   8.748   3.150   4.365  2.5434  0.7160  0.7043
  995MOL0     H34321   8.931   3.124   4.515 -0.0045  0.7707 -1.8948
  995MOL0     H34322   8.951   3.000   4.378  0.9157 -2.2817  2.2382
  995MOL0     H34323   8.955   2.742   4.674  0.3448  0.0540  0.4707
  995MOL0     H34324   8.364   3.105   4.130  1.4530  0.8993  2.2878
  995MOL0     H34325   8.147   3.116   4.051 -0.9570  1.0974  1.1185
  996MOL0     O34326  10.997  11.151   4.531  0.3810 -0.2876  0.7719
  996MOL0     C34327  11.043  11.093   4.629 -0.5652  0.8063  0.2007
  996MOL0     O34328  10.981  11.079   4.747 -0.1264 -0.2350 -0.8894
  996MOL0     C34329  10.881  11.160   4.786 -0.4592 -0.2362 -0.4000
  996MOL0     C34330  10.776  11.097   4.855  0.7162 -0.4199 -0.9537
  996MOL0     C34331  10.666  11.177   4.898  0.4180  0.1502  0.7493
  996MOL0     C34332  10.661  11.321   4.891 -0.2343 -0.1041 -0.6928
  996MOL0     O34333  10.552  11.392   4.931  0.3836  0.3504  0.4969
  996MOL0     C34334  10.557  11.523   4.989 -0.2213 -0.3567 -0.2460
  996MOL0     C34335  10.454  11.550   5.092 -1.3964  0.5785 -0.5791
  996MOL0     C34336  10.313  11.544   5.026 -0.2674  0.0335  0.0491
  996MOL0     C34337  10.220  11.497   5.138 -0.1818  0.2760 -0.1161
  996MOL0     C34338  10.076  11.534   5.108  0.1401  0.0493 -0.1545
  996MOL0     C34339   9.994  11.510   5.236 -0.2572 -0.1058  0.0876
  996MOL0     C34340   9.843  11.509   5.186 -0.7579 -0.2293 -0.1727
  996MOL0     C34341   9.752  11.476   5.302 -0.9315 -0.2692 -0.8049
  996MOL0     N34342   9.611  11.462   5.259  0.2282  0.4224  0.4892
  996MOL0     C34343   9.524  11.358   5.286 -0.4303  0.5422 -0.0415
  996MOL0     C34344   9.404  11.393   5.236  0.3172  0.1715  0.0112
  996MOL0     C34345   9.281  11.312   5.265 -0.0379 -0.3096 -0.7943
  996MOL0     C34346   9.148  11.382   5.265  0.3221 -0.2589 -0.2354
  996MOL0     C34347   9.038  11.320   5.348  0.4755 -0.0234  0.1043
  996MOL0     C34348   8.896  11.388   5.338 -0.0860  0.6293  1.3128
  996MOL0     O34349   8.863  11.386   5.199 -0.5262  0.3739  1.1386
  996MOL0     C34350   8.731  11.412   5.158  0.2522 -0.5931 -0.6907
  996MOL0     C34351   8.697  11.378   5.034 -0.1268 -0.1482 -1.1123
  996MOL0     C34352   8.567  11.405   4.986  0.5224 -0.2587 -0.3406
  996MOL0     C34353   8.534  11.369   4.845  1.2107 -0.2636 -0.3366
  996MOL0     C34354   8.470  11.459   5.062  0.8177 -0.7795 -0.5031
  996MOL0     C34355   8.327  11.484   5.021  0.6201  0.3418 -0.2574
  996MOL0     O34356   8.270  11.392   4.937 -0.1460 -0.5367 -0.3096
  996MOL0     C34357   8.134  11.386   4.914 -0.9435  0.0435  0.8557
  996MOL0     C34358   8.078  11.262   4.919 -0.3690  0.8497  0.0707
  996MOL0     C34359   7.936  11.256   4.904  0.7420 -0.7224  1.1096
  996MOL0     C34360   7.856  11.371   4.898  0.0537 -0.2870  1.3355
  996MOL0     O34361   7.722  11.351   4.874  0.7350  0.1568  0.3063
  996MOL0     C34362   7.632  11.456   4.825  0.0782 -0.3856 -0.3026
  996MOL0     C34363   7.494  11.399   4.784 -0.7563 -0.0507 -0.0851
  996MOL0     C34364   7.412  11.507   4.721 -0.7954  0.5293 -0.4086
  996MOL0     C34365   7.266  11.464   4.711 -0.9627 -0.2953 -0.2985
  996MOL0     C34366   7.178  11.556   4.622  0.3146 -0.4087 -0.0651
  996MOL0     C34367   7.028  11.522   4.633 -0.4324 -0.8294  0.4303
  996MOL0     C34368   6.995  11.400   4.545  1.0494  0.0304  0.0030
  996MOL0     C34369   6.996  11.429   4.392 -0.5494 -0.6309 -0.2568
  996MOL0    Cl34370   6.872  11.329   4.308 -0.1352 -0.8643  0.1678
  996MOL0     C34371   7.917  11.493   4.886 -0.3919  0.8053 -0.1319
  996MOL0     C34372   8.056  11.499   4.892  0.4197  0.3728 -0.5085
  996MOL0     O34373   8.277  11.586   5.063  0.0464 -0.1436 -0.1282
  996MOL0     C34374   8.510  11.497   5.189 -0.0655 -0.4752  0.1657
  996MOL0     C34375   8.641  11.478   5.230  0.2674  0.0033 -0.7021
  996MOL0     N34376   9.427  11.513   5.174  0.7290  0.2811  0.4971
  996MOL0     N34377   9.542  11.556   5.190  0.8421 -0.0294 -0.1017
  996MOL0     C34378  10.781  11.376   4.848  0.0775  0.3235 -0.3286
  996MOL0     C34379  10.891  11.302   4.793 -0.2951 -0.7622 -0.1103
  996MOL0     C34380  11.181  11.027   4.629  0.4319  0.5873 -0.1220
  996MOL0     C34381  11.216  10.951   4.738 -0.3484  0.0894 -0.1392
  996MOL0     C34382  11.330  10.876   4.729 -0.4142  0.6398  0.1677
  996MOL0     C34383  11.421  10.887   4.626  0.6608 -0.7888  0.2281
  996MOL0     O34384  11.533  10.803   4.633  0.3488 -0.3690 -0.7348
  996MOL0     C34385  11.575  10.751   4.509 -0.2382  0.5478  0.0704
  996MOL0     C34386  11.617  10.604   4.537  0.3777 -0.4447  0.9848
  996MOL0     C34387  11.728  10.585   4.647 -0.5181 -0.1133  0.2857
  996MOL0     C34388  11.784  10.442   4.651  0.0848 -1.2330 -0.6251
  996MOL0     C34389  11.686  10.342   4.696 -0.8330 -0.2411  0.1076
  996MOL0     C34390  11.613  10.246   4.719  0.5835 -0.2688  0.2901
  996MOL0     C34391  11.402  10.987   4.522  0.2031 -0.0402  0.0571
  996MOL0     C34392  11.272  11.049   4.522 -0.9427 -0.2395  0.1282
  996MOL0     H34393  10.773  10.989   4.861  2.1390 -0.4613 -0.6193
  996MOL0     H34394  10.583  11.130   4.950 -0.3262  0.0802 -0.4611
  996MOL0     H34395  10.657  11.530   5.034  0.3584  0.6692 -1.6247
  996MOL0     H34396  10.544  11.594   4.907  0.0918 -0.8682 -0.7542
  996MOL0     H34397  10.464  11.468   5.164  1.8724  1.5490  0.2263
  996MOL0     H34398  10.472  11.645   5.142 -1.9090  0.3692  0.0256
  996MOL0     H34399  10.292  11.646   4.992  1.2620  0.9121  1.5985
  996MOL0     H34400  10.305  11.474   4.941  0.1422 -0.6260  0.5435
  996MOL0     H34401  10.235  11.389   5.137  3.5538  0.6800 -0.4109
  996MOL0     H34402  10.255  11.546   5.229 -0.4400  1.8555 -0.8248
  996MOL0     H34403  10.078  11.636   5.069 -1.3754  0.6279  1.1920
  996MOL0     H34404  10.024  11.473   5.034 -2.5393  0.4563  1.2954
  996MOL0     H34405  10.009  11.408   5.271  0.3858 -0.1742 -0.3691
  996MOL0     H34406  10.009  11.585   5.314  1.6281 -0.7426  0.3731
  996MOL0     H34407   9.808  11.605   5.147 -0.4961  1.6639  3.7567
  996MOL0     H34408   9.822  11.434   5.108 -1.3829 -1.6300  1.2908
  996MOL0     H34409   9.763  11.547   5.385 -0.1132 -0.7086 -0.5254
  996MOL0     H34410   9.789  11.383   5.345 -0.6635  1.1046  2.2324
  996MOL0     H34411   9.551  11.268   5.341 -3.9205 -1.7530 -1.7638
  996MOL0     H34412   9.286  11.220   5.207 -2.9656  1.2094 -3.8114
  996MOL0     H34413   9.292  11.284   5.370  1.7126  1.8725 -0.3135
  996MOL0     H34414   9.118  11.390   5.161 -1.0298  0.8191  0.2121
  996MOL0     H34415   9.158  11.480   5.311  0.5344  0.3746 -1.5896
  996MOL0     H34416   9.072  11.317   5.452  1.5472 -0.8824 -0.2511
  996MOL0     H34417   9.022  11.218   5.314 -2.7404  0.4421 -0.0535
  996MOL0     H34418   8.906  11.486   5.387  0.2163 -0.4667  3.5945
  996MOL0     H34419   8.813  11.342   5.392 -0.2800  0.0628  0.5494
  996MOL0     H34420   8.779  11.326   4.985  0.0762  0.9606 -1.9946
  996MOL0     H34421   8.628  11.342   4.796  3.2856 -1.5091  3.8706
  996MOL0     H34422   8.471  11.281   4.832  3.0286 -1.6106 -0.3758
  996MOL0     H34423   8.490  11.454   4.792  1.3287 -0.5114 -0.8391
  996MOL0     H34424   8.144  11.179   4.940 -0.1829  0.4519 -1.9011
  996MOL0     H34425   7.898  11.154   4.902 -0.9732 -0.0980 -0.9774
  996MOL0     H34426   7.618  11.527   4.907  3.3989  0.6369 -0.4793
  996MOL0     H34427   7.678  11.508   4.741 -1.6351  0.1119 -0.9764
  996MOL0     H34428   7.510  11.313   4.719  4.0869  0.1619  0.4375
  996MOL0     H34429   7.435  11.361   4.868 -0.8243 -0.1539 -0.1793
  996MOL0     H34430   7.452  11.535   4.623 -0.5218  2.2812  0.1570
  996MOL0     H34431   7.406  11.601   4.777 -2.3968  1.1609 -1.5408
  996MOL0     H34432   7.261  11.367   4.661 -0.8833 -1.2931  1.5106
  996MOL0     H34433   7.222  11.446   4.810  0.2429  2.1341  0.7674
  996MOL0     H34434   7.208  11.576   4.519  1.3290  4.3164  0.9127
  996MOL0     H34435   7.187  11.652   4.674  3.0911 -1.7264  2.1702
  996MOL0     H34436   7.010  11.499   4.739 -1.1835  2.3027  1.0862
  996MOL0     H34437   6.962  11.606   4.608 -0.1065 -0.8132 -0.4068
  996MOL0     H34438   6.891  11.375   4.568  0.4195  1.9481 -0.5292
  996MOL0     H34439   7.050  11.312   4.580 -0.8823 -1.0240  0.4971
  996MOL0     H34440   7.099  11.415   4.357 -0.2413 -1.9809  1.0922
  996MOL0     H34441   6.977  11.533   4.368 -0.6844 -0.3354  1.0501
  996MOL0     H34442   7.861  11.586   4.877 -1.2236  0.1703 -1.8786
  996MOL0     H34443   8.096  11.600   4.888  0.4742  0.4457  1.2573
  996MOL0     H34444   8.438  11.545   5.253 -2.4830 -2.6990 -0.7128
  996MOL0     H34445   8.656  11.518   5.330 -1.6954 -0.5477 -0.1495
  996MOL0     H34446  10.786  11.485   4.851  1.6388  0.2928 -0.8002
  996MOL0     H34447  10.980  11.348   4.751  1.0117 -1.3099  1.9299
  996MOL0     H34448  11.142  10.939   4.817 -1.6999 -1.6027 -1.5570
  996MOL0     H34449  11.346  10.793   4.796 -0.2152 -0.5954 -1.3498
  996MOL0     H34450  11.498  10.761   4.432  1.3944 -0.7218 -1.7874
  996MOL0     H34451  11.658  10.815   4.479 -0.4788  0.1999 -1.3779
  996MOL0     H34452  11.658  10.561   4.445  0.0390 -1.0102  1.0942
  996MOL0     H34453  11.530  10.544   4.564 -0.6553 -0.8463 -2.7049
  996MOL0     H34454  11.670  10.600   4.739 -1.9807 -4.4391  0.2743
  996MOL0     H34455  11.818  10.642   4.624  0.1819 -1.3041  0.0403
  996MOL0     H34456  11.858  10.430   4.731 -0.3085 -1.1092 -0.2317
  996MOL0     H34457  11.824  10.408   4.556  0.8671 -1.1375 -0.3354
  996MOL0     H34458  11.555  10.160   4.743  0.1940 -0.6421 -1.7721
  996MOL0     H34459  11.487  11.013   4.458  0.0895  2.2138  0.7326
  996MOL0     H34460  11.252  11.129   4.451  0.9464  1.6614  1.5893
  997MOL0     O34461   4.608  11.237   6.772 -0.3132 -0.4469  0.6003
  997MOL0     C34462   4.657  11.219   6.655  0.5281  0.8950  0.1308
  997MOL0     O34463   4.575  11.190   6.544 -0.1479 -0.4213  0.3078
  997MOL0     C34464   4.440  11.167   6.545  0.3609 -0.0905 -0.3775
  997MOL0     C34465   4.392  11.053   6.609 -0.1864 -0.7101  0.0438
  997MOL0     C34466   4.255  11.031   6.616  0.8103 -0.5733 -0.1150
  997MOL0     C34467   4.162  11.126   6.573 -0.1177 -0.0985  0.8211
  997MOL0     O34468   4.028  11.099   6.556 -0.0811 -0.0942  0.2772
  997MOL0     C34469   3.963  11.006   6.640 -0.5315  0.2136 -0.5206
  997MOL0     C34470   3.809  11.030   6.631 -0.4863 -0.4495  0.0129
  997MOL0     C34471   3.769  11.173   6.668 -0.4727  0.3420 -0.2598
  997MOL0     C34472   3.620  11.183   6.673 -0.0057 -0.6381  0.6959
  997MOL0     C34473   3.576  11.320   6.724  0.0044 -0.2740 -0.0923
  997MOL0     C34474   3.435  11.330   6.769  0.0953  0.1222  0.5617
  997MOL0     C34475   3.327  11.347   6.659 -0.1562  0.3315  0.1080
  997MOL0     C34476   3.289  11.486   6.632  0.5604  0.5995  0.0243
  997MOL0     N34477   3.184  11.491   6.529 -0.0223 -0.0533 -0.6558
  997MOL0     C34478   3.053  11.444   6.540  0.4326  0.8660  0.0483
  997MOL0     C34479   3.004  11.469   6.416  0.5910  0.1531 -0.2442
  997MOL0     C34480   2.886  11.397   6.363 -0.0853 -0.7292  0.3842
  997MOL0     C34481   2.767  11.393   6.469  0.9395 -0.4117 -0.9199
  997MOL0     C34482   2.628  11.363   6.411 -0.2000  0.0123  0.9136
  997MOL0     C34483   2.528  11.348   6.525  0.0496 -0.5420 -0.0709
  997MOL0     O34484   2.400  11.335   6.456 -1.0602 -0.2333 -0.1185
  997MOL0     C34485   2.279  11.348   6.529 -0.5384  1.4852  1.2065
  997MOL0     C34486   2.169  11.361   6.445  0.0080  0.2054 -0.1069
  997MOL0     C34487   2.038  11.384   6.503  0.3119 -0.2382  0.0768
  997MOL0     C34488   1.921  11.423   6.407 -0.6627 -0.2044 -0.2238
  997MOL0     C34489   2.023  11.372   6.641 -0.4966  0.4198 -0.8743
  997MOL0     C34490   1.895  11.384   6.721 -0.1374 -0.5738 -0.4577
  997MOL0     O34491   1.888  11.313   6.844  0.8447  0.4843  0.0487
  997MOL0     C34492   1.782  11.326   6.943 -0.0784 -0.2627  0.0897
  997MOL0     C34493   1.650  11.390   6.927  0.2961  0.4284 -0.2789
  997MOL0     C34494   1.563  11.404   7.035  0.2960  0.2414  0.3515
  997MOL0     C34495   1.599  11.332   7.156 -0.1141  0.3396 -0.5227
  997MOL0     O34496   1.519  11.312   7.271 -0.5381  0.0410 -0.0670
  997MOL0     C34497   1.376  11.349   7.271 -0.7397 -0.4342  0.2561
  997MOL0     C34498   1.320  11.310   7.409  0.3679 -1.3830 -0.0493
  997MOL0     C34499   1.179  11.366   7.435  0.6178 -0.9587 -0.1490
  997MOL0     C34500   1.095  11.270   7.509  0.6609 -0.0805 -0.4472
  997MOL0     C34501   0.960  11.338   7.523 -0.8035 -0.2373 -0.2883
  997MOL0     C34502   0.851  11.248   7.581  0.1881 -0.3051 -0.3752
  997MOL0     C34503   0.723  11.315   7.649  0.4530  0.1140  0.3642
  997MOL0     C34504   0.642  11.390   7.548 -0.3525 -0.0786  0.9932
  997MOL0    Cl34505   0.527  11.500   7.625 -0.0249 -0.5828  0.2419
  997MOL0     C34506   1.718  11.260   7.164  0.4847 -0.4753 -0.4750
  997MOL0     C34507   1.814  11.265   7.063 -1.0820 -0.0563  0.7354
  997MOL0     O34508   1.797  11.438   6.665 -0.6679 -0.2010 -0.2889
  997MOL0     C34509   2.137  11.341   6.721  0.0721 -0.4180 -0.4065
  997MOL0     C34510   2.263  11.334   6.671 -0.5753  0.6074  0.6328
  997MOL0     N34511   3.100  11.533   6.339 -0.2126 -0.3030 -0.5614
  997MOL0     N34512   3.208  11.538   6.406  0.1573 -0.0177 -0.3400
  997MOL0     C34513   4.215  11.251   6.518 -0.2467 -0.2952  0.1722
  997MOL0     C34514   4.355  11.271   6.510 -0.7765 -1.0679 -0.7857
  997MOL0     C34515   4.802  11.239   6.630 -0.0989 -0.4335 -0.0180
  997MOL0     C34516   4.900  11.245   6.736 -0.2128 -0.3015  0.4282
  997MOL0     C34517   5.039  11.246   6.705  0.0720  0.0606 -0.3278
  997MOL0     C34518   5.082  11.265   6.574 -0.5866  0.2899  0.0431
  997MOL0     O34519   5.217  11.295   6.543  0.1453  0.1968 -0.1817
  997MOL0     C34520   5.306  11.187   6.576  0.1486  0.8286  0.6058
  997MOL0     C34521   5.439  11.239   6.639  0.3819  0.1704  0.1376
  997MOL0     C34522   5.415  11.282   6.779 -0.0229  0.4336 -0.6242
  997MOL0     C34523   5.536  11.292   6.874  0.1035  0.9200  0.7002
  997MOL0     C34524   5.613  11.413   6.856 -0.7136 -0.1162 -0.6778
  997MOL0     C34525   5.682  11.514   6.833  0.1731 -0.4902 -0.2498
  997MOL0     C34526   4.984  11.274   6.469  0.1287  0.0833 -0.5360
  997MOL0     C34527   4.847  11.255   6.496 -0.4582  0.3365  0.7639
  997MOL0     H34528   4.463  10.982   6.652  1.4533  0.7056 -0.2162
  997MOL0     H34529   4.229  10.933   6.656 -0.0981 -0.2019  0.2194
  997MOL0     H34530   3.981  10.905   6.601  1.6045 -0.5754  2.1893
  997MOL0     H34531   3.995  11.015   6.744 -0.3527 -1.8950 -0.3382
  997MOL0     H34532   3.781  11.007   6.528  1.0084 -0.6162 -0.3741
  997MOL0     H34533   3.769  10.952   6.697 -0.9108 -0.8926 -0.7611
  997MOL0     H34534   3.809  11.199   6.767  1.4554  1.8060 -1.3711
  997MOL0     H34535   3.817  11.250   6.607 -1.1505  2.7935  2.0819
  997MOL0     H34536   3.583  11.168   6.571  3.0158 -2.3337 -0.2781
  997MOL0     H34537   3.578  11.111   6.744 -1.2309 -0.0245  0.6236
  997MOL0     H34538   3.628  11.356   6.813  0.1094  3.4871 -1.4651
  997MOL0     H34539   3.595  11.393   6.644  2.6988  0.3946  1.0408
  997MOL0     H34540   3.423  11.239   6.828 -2.2903 -1.8215 -2.5711
  997MOL0     H34541   3.422  11.421   6.829 -2.9666  0.7636 -0.8455
  997MOL0     H34542   3.367  11.305   6.567 -0.7369  0.5643 -0.2530
  997MOL0     H34543   3.246  11.284   6.697  0.0298 -0.6693 -1.0984
  997MOL0     H34544   3.377  11.541   6.598  0.1098  2.1063  1.1932
  997MOL0     H34545   3.244  11.534   6.719 -2.8904 -3.5333  0.8781
  997MOL0     H34546   3.012  11.377   6.615  2.4721 -0.3745  0.1377
  997MOL0     H34547   2.840  11.443   6.275  0.4125 -0.5788  0.1995
  997MOL0     H34548   2.907  11.293   6.336 -1.5426 -0.8418 -0.4652
  997MOL0     H34549   2.756  11.489   6.520 -1.2939 -1.6543  1.1964
  997MOL0     H34550   2.781  11.320   6.550 -2.1816 -4.1170 -3.3684
  997MOL0     H34551   2.640  11.273   6.350 -3.5136  2.4405 -3.9448
  997MOL0     H34552   2.606  11.441   6.338  1.8015 -1.6727 -1.6600
  997MOL0     H34553   2.516  11.437   6.587 -0.3609 -2.3524  2.6288
  997MOL0     H34554   2.550  11.259   6.586  1.7143  0.8244  1.4292
  997MOL0     H34555   2.195  11.364   6.339 -0.5227 -1.0827 -0.3062
  997MOL0     H34556   1.830  11.366   6.428  0.2163 -1.1068  1.3142
  997MOL0     H34557   1.902  11.531   6.403  4.5010  0.9675 -1.8068
  997MOL0     H34558   1.960  11.381   6.314 -1.5621 -2.1052  0.2080
  997MOL0     H34559   1.624  11.449   6.839  1.0124 -0.8413 -1.3840
  997MOL0     H34560   1.474  11.466   7.023  0.9092  1.5455  2.0788
  997MOL0     H34561   1.368  11.457   7.252 -1.9534 -0.8411 -1.9199
  997MOL0     H34562   1.320  11.300   7.191  0.4475  0.0517 -0.9126
  997MOL0     H34563   1.325  11.202   7.424  0.0263 -1.2031  1.4717
  997MOL0     H34564   1.382  11.353   7.488 -1.4124  2.0442 -0.3360
  997MOL0     H34565   1.135  11.392   7.338  2.4865  3.4004 -0.0549
  997MOL0     H34566   1.191  11.463   7.483 -0.6200 -0.4835 -0.7422
  997MOL0     H34567   1.085  11.177   7.453 -1.3755 -0.0373 -0.2246
  997MOL0     H34568   1.139  11.258   7.608  1.8770 -0.4781 -1.0133
  997MOL0     H34569   0.918  11.383   7.432  4.6461  1.7971 -2.2056
  997MOL0     H34570   0.978  11.418   7.595 -0.5812  0.5161 -1.1638
  997MOL0     H34571   0.822  11.182   7.498  0.3808  0.7892 -1.3396
  997MOL0     H34572   0.897  11.188   7.660  0.6148  0.4652 -0.0310
  997MOL0     H34573   0.749  11.389   7.724 -3.0931  1.0824  0.8310
  997MOL0     H34574   0.656  11.236   7.687 -0.0487  0.2032 -0.3213
  997MOL0     H34575   0.598  11.315   7.481  1.9909  1.6481 -2.7626
  997MOL0     H34576   0.705  11.442   7.476  0.4537 -0.4673  1.4069
  997MOL0     H34577   1.729  11.211   7.261  0.9797  2.1051  0.8392
  997MOL0     H34578   1.904  11.205   7.072  0.4929  1.5392 -2.6842
  997MOL0     H34579   2.129  11.320   6.827 -0.3021 -4.9738 -1.1381
  997MOL0     H34580   2.342  11.301   6.737 -1.3390  0.2843  1.4051
  997MOL0     H34581   4.143  11.318   6.473 -0.2439  0.5585  1.4078
  997MOL0     H34582   4.402  11.354   6.459  0.1901 -2.7809 -2.8542
  997MOL0     H34583   4.866  11.243   6.839 -0.2964  0.1143  0.4091
  997MOL0     H34584   5.112  11.243   6.784 -0.4211 -0.4487  0.1210
  997MOL0     H34585   5.265  11.105   6.636  0.5390  0.9237  1.0073
  997MOL0     H34586   5.334  11.147   6.478 -0.5618 -0.0490  0.7428
  997MOL0     H34587   5.466  11.332   6.588 -0.5228  0.3690 -0.0109
  997MOL0     H34588   5.517  11.165   6.624  1.5259  1.6201 -1.5536
  997MOL0     H34589   5.350  11.207   6.825  0.0494 -0.1084 -1.3748
  997MOL0     H34590   5.355  11.373   6.784 -0.4166  0.0957  1.4859
  997MOL0     H34591   5.593  11.202   6.850 -0.0149 -0.1118  3.8142
  997MOL0     H34592   5.504  11.280   6.978  2.8402 -2.2954  1.3371
  997MOL0     H34593   5.727  11.608   6.808  0.8236 -1.0955 -1.3998
  997MOL0     H34594   5.025  11.271   6.369 -0.3663 -1.5667 -0.7074
  997MOL0     H34595   4.783  11.237   6.409  1.7940 -2.7923 -0.4393
  998MOL0     O34596   5.418   3.768   1.508  0.0898 -0.4084  0.3235
  998MOL0     C34597   5.473   3.775   1.614  0.6338  0.0491 -0.1343
  998MOL0     O34598   5.410   3.780   1.733  0.0152  0.2028  0.2305
  998MOL0     C34599   5.278   3.791   1.763  0.2283  0.5638 -0.6183
  998MOL0     C34600   5.253   3.789   1.903 -0.2068 -0.2967  0.6008
  998MOL0     C34601   5.129   3.817   1.956 -0.2320  0.4074  0.4987
  998MOL0     C34602   5.022   3.843   1.865  0.0629 -0.1209 -0.6863
  998MOL0     O34603   4.895   3.871   1.912  0.4448  0.4131 -0.0892
  998MOL0     C34604   4.858   3.889   2.051  0.0523  0.3388 -1.3099
  998MOL0     C34605   4.879   4.031   2.094  0.6206  0.5699  0.0205
  998MOL0     C34606   4.758   4.128   2.062 -0.6544  0.6319  0.3259
  998MOL0     C34607   4.666   4.138   2.186  0.0109  0.3998  0.2175
  998MOL0     C34608   4.723   4.223   2.298  0.4094 -0.3052 -0.7782
  998MOL0     C34609   4.630   4.251   2.415 -0.3029  0.0959 -0.1486
  998MOL0     C34610   4.594   4.124   2.493  0.7626 -0.4533  0.4535
  998MOL0     C34611   4.475   4.144   2.591 -0.7335  0.3192  0.5979
  998MOL0     N34612   4.502   4.229   2.709  0.0835  0.1167 -0.4751
  998MOL0     C34613   4.486   4.371   2.714 -0.3789  0.4435 -0.1474
  998MOL0     C34614   4.506   4.405   2.842 -0.8334  0.7883 -0.2648
  998MOL0     C34615   4.506   4.542   2.901 -1.1185 -0.4379 -0.7185
  998MOL0     C34616   4.385   4.577   2.972 -0.6322  0.2436 -0.6931
  998MOL0     C34617   4.253   4.588   2.890 -0.4196 -0.4171  0.1830
  998MOL0     C34618   4.140   4.620   2.981  0.1534  0.4745 -0.2880
  998MOL0     O34619   4.007   4.614   2.916 -0.6815 -0.3042  0.3227
  998MOL0     C34620   3.900   4.620   2.992  0.0184  0.9389 -0.4591
  998MOL0     C34621   3.897   4.588   3.132  0.0216  0.3237  0.9536
  998MOL0     C34622   3.791   4.594   3.207  0.5342  0.3647  0.4008
  998MOL0     C34623   3.802   4.536   3.345 -0.3243 -0.1399  1.3900
  998MOL0     C34624   3.663   4.618   3.147  0.2011 -0.0524 -0.2881
  998MOL0     C34625   3.532   4.621   3.218  0.2992  0.0234  0.5854
  998MOL0     O34626   3.420   4.583   3.146 -0.2654 -0.0313  0.4146
  998MOL0     C34627   3.290   4.603   3.193 -0.7026  1.1383  0.2810
  998MOL0     C34628   3.242   4.711   3.267 -0.3114  0.0356 -0.2766
  998MOL0     C34629   3.105   4.715   3.304  1.0037 -0.3349 -0.5374
  998MOL0     C34630   3.012   4.618   3.272  0.4902  0.4727 -0.4244
  998MOL0     O34631   2.879   4.638   3.306 -0.1267 -0.0202 -0.2978
  998MOL0     C34632   2.790   4.538   3.280  0.7635  0.0457 -0.7183
  998MOL0     C34633   2.646   4.585   3.309  0.2532 -0.0838  0.0688
  998MOL0     C34634   2.540   4.486   3.265  0.4437  0.0539 -1.1725
  998MOL0     C34635   2.399   4.539   3.283 -0.8075 -1.0926 -0.4313
  998MOL0     C34636   2.287   4.437   3.256  0.2957 -0.4040 -0.0052
  998MOL0     C34637   2.152   4.478   3.313  0.2973 -0.4093 -0.0475
  998MOL0     C34638   2.053   4.360   3.298 -0.1423  0.1992  0.3349
  998MOL0     C34639   1.926   4.387   3.372  0.1374  0.5026 -0.9727
  998MOL0    Cl34640   1.792   4.281   3.321 -0.3364  0.4564  0.0281
  998MOL0     C34641   3.064   4.502   3.211  0.5494 -0.0479 -0.3311
  998MOL0     C34642   3.197   4.502   3.156  0.9381  0.7218 -0.1682
  998MOL0     O34643   3.531   4.662   3.333 -0.1760 -0.2224  0.2667
  998MOL0     C34644   3.660   4.639   3.009 -0.0755  0.9026 -0.0380
  998MOL0     C34645   3.781   4.650   2.937  0.8682  0.7485 -0.0624
  998MOL0     N34646   4.532   4.284   2.916  0.5440  0.4770 -0.2339
  998MOL0     N34647   4.541   4.184   2.828  0.4078 -0.0129 -0.1260
  998MOL0     C34648   5.048   3.836   1.737 -0.2039 -0.4396  0.1948
  998MOL0     C34649   5.171   3.824   1.681 -0.0097  1.0361  0.2384
  998MOL0     C34650   5.624   3.780   1.623 -0.2769 -0.1077  0.1559
  998MOL0     C34651   5.707   3.744   1.517 -0.2313  0.4021 -0.1268
  998MOL0     C34652   5.847   3.739   1.531 -0.1661 -0.3903  1.2801
  998MOL0     C34653   5.901   3.770   1.655 -1.1116  0.5657  0.0938
  998MOL0     O34654   6.035   3.763   1.679  0.2406  0.3057  0.4823
  998MOL0     C34655   6.125   3.718   1.584  0.0992  1.4041  0.0266
  998MOL0     C34656   6.264   3.738   1.642 -0.4314 -0.3143  0.0147
  998MOL0     C34657   6.351   3.638   1.592 -1.2169 -0.3974  0.3597
  998MOL0     C34658   6.503   3.648   1.624 -0.4824 -0.6219 -0.0198
  998MOL0     C34659   6.529   3.725   1.750  0.1611  0.5100  0.4469
  998MOL0     C34660   6.569   3.784   1.850  0.8394  0.0457  0.1858
  998MOL0     C34661   5.818   3.802   1.763 -0.6539 -0.2971  0.0196
  998MOL0     C34662   5.684   3.812   1.748  1.0551  0.2458  0.0138
  998MOL0     H34663   5.333   3.778   1.975 -1.0048 -3.3363  1.2126
  998MOL0     H34664   5.125   3.815   2.065 -2.2311 -1.3788  0.4528
  998MOL0     H34665   4.759   3.845   2.060  0.9386 -1.5143 -0.0805
  998MOL0     H34666   4.915   3.825   2.119 -1.8266  0.7528  0.7736
  998MOL0     H34667   4.900   4.029   2.201 -2.2384 -0.3854  0.6513
  998MOL0     H34668   4.973   4.065   2.049  0.9933 -0.3052  0.1287
  998MOL0     H34669   4.805   4.222   2.030  0.1893  0.1236  0.0594
  998MOL0     H34670   4.696   4.084   1.983  0.7143 -0.2491 -0.2894
  998MOL0     H34671   4.571   4.177   2.150 -0.2533  0.6905  1.1998
  998MOL0     H34672   4.652   4.035   2.220  2.8994 -0.9275 -2.0979
  998MOL0     H34673   4.818   4.184   2.337  0.3986  1.9684  1.8610
  998MOL0     H34674   4.749   4.324   2.263 -2.0316  0.8789  0.5381
  998MOL0     H34675   4.678   4.315   2.489 -1.0258 -0.2357  0.6160
  998MOL0     H34676   4.534   4.295   2.388 -1.0128  0.0067  2.0848
  998MOL0     H34677   4.569   4.044   2.422 -0.8218  0.2291  0.2025
  998MOL0     H34678   4.690   4.100   2.540  1.8233 -0.3406 -1.5298
  998MOL0     H34679   4.439   4.046   2.624  0.0570 -0.1293  0.1498
  998MOL0     H34680   4.394   4.192   2.536  1.1201  2.6592 -0.2792
  998MOL0     H34681   4.464   4.443   2.635 -1.0814  1.1200  0.6366
  998MOL0     H34682   4.588   4.543   2.974 -2.0318  0.1816  0.3425
  998MOL0     H34683   4.524   4.625   2.832  1.3909 -1.2920 -1.2180
  998MOL0     H34684   4.408   4.674   3.018  2.7558 -0.7765 -0.0055
  998MOL0     H34685   4.371   4.505   3.053 -3.6700  2.7013  1.2294
  998MOL0     H34686   4.231   4.499   2.830 -1.7184 -0.0530  0.0793
  998MOL0     H34687   4.263   4.673   2.822 -0.6842 -2.7490 -3.0120
  998MOL0     H34688   4.151   4.717   3.031 -1.1118  0.5777 -0.1923
  998MOL0     H34689   4.153   4.547   3.062  1.2892  1.7280  0.7228
  998MOL0     H34690   3.985   4.544   3.178 -0.2015 -1.1779  0.0128
  998MOL0     H34691   3.743   4.448   3.371 -1.9446  0.3265 -0.4311
  998MOL0     H34692   3.905   4.504   3.357 -0.3815 -0.5954  0.7179
  998MOL0     H34693   3.776   4.617   3.414 -1.7470  1.8072 -1.2447
  998MOL0     H34694   3.306   4.795   3.292  1.1517 -1.6813  2.1991
  998MOL0     H34695   3.066   4.803   3.354 -2.0542 -3.4329  3.0590
  998MOL0     H34696   2.795   4.510   3.174 -0.7588 -3.2797 -0.0575
  998MOL0     H34697   2.816   4.451   3.341  0.5046  1.0221  0.8369
  998MOL0     H34698   2.637   4.608   3.415 -3.0622 -2.6420  0.5223
  998MOL0     H34699   2.629   4.676   3.252  0.3747  0.3329  0.6936
  998MOL0     H34700   2.542   4.391   3.320 -0.4576  0.4945 -0.3387
  998MOL0     H34701   2.550   4.458   3.160  1.8027 -1.5334 -0.6729
  998MOL0     H34702   2.389   4.587   3.380  0.5994  1.3199 -1.3901
  998MOL0     H34703   2.383   4.615   3.206  2.3648  2.8862  2.4384
  998MOL0     H34704   2.312   4.347   3.312 -0.0366 -0.6388 -0.2267
  998MOL0     H34705   2.294   4.411   3.150  0.6004  0.4429 -0.1986
  998MOL0     H34706   2.170   4.493   3.420 -0.7743  0.9291 -0.0238
  998MOL0     H34707   2.113   4.570   3.268 -0.4767 -0.8671 -0.3275
  998MOL0     H34708   2.096   4.263   3.324  1.1762  0.5519 -0.4217
  998MOL0     H34709   2.017   4.347   3.195  1.9221  1.4878 -0.6171
  998MOL0     H34710   1.893   4.491   3.370 -2.8382 -0.3125  0.1780
  998MOL0     H34711   1.945   4.374   3.479 -3.2738 -0.8979 -0.3967
  998MOL0     H34712   3.000   4.418   3.187 -0.3452  0.1401  1.2626
  998MOL0     H34713   3.227   4.409   3.108  1.3023  0.9103 -0.3125
  998MOL0     H34714   3.562   4.653   2.963 -1.0168 -2.5677  0.6127
  998MOL0     H34715   3.786   4.674   2.832  3.5338 -0.8204 -0.3815
  998MOL0     H34716   4.965   3.852   1.668 -0.0199 -0.9397 -0.1476
  998MOL0     H34717   5.178   3.831   1.572 -0.2161  0.9087  0.2162
  998MOL0     H34718   5.680   3.706   1.419  0.4686 -0.0466 -0.1540
  998MOL0     H34719   5.901   3.699   1.446 -2.0563 -0.6339  0.1382
  998MOL0     H34720   6.112   3.612   1.562  1.5279  0.7809  1.9419
  998MOL0     H34721   6.118   3.779   1.493 -0.2765  3.2180  1.2063
  998MOL0     H34722   6.253   3.735   1.751 -0.9940 -2.3958 -0.0592
  998MOL0     H34723   6.307   3.833   1.609  2.4922 -1.7449 -0.5100
  998MOL0     H34724   6.340   3.642   1.483 -0.8011 -3.1738  0.1326
  998MOL0     H34725   6.325   3.536   1.620  1.3078 -1.4796 -0.8837
  998MOL0     H34726   6.570   3.697   1.553  0.7606  0.1618  1.6002
  998MOL0     H34727   6.553   3.553   1.641 -1.5037 -0.8707  1.9132
  998MOL0     H34728   6.608   3.844   1.929  1.8074  0.7753 -0.8152
  998MOL0     H34729   5.844   3.821   1.866 -2.9117  1.1951  0.3856
  998MOL0     H34730   5.616   3.837   1.829 -0.4564  2.0405 -1.7097
  999MOL0     O34731   4.337   4.139   6.368  0.5491 -0.2102 -0.1371
  999MOL0     C34732   4.365   4.183   6.262  0.9503 -0.3868  0.2721
  999MOL0     O34733   4.286   4.229   6.163 -0.8262 -0.6624  0.5312
  999MOL0     C34734   4.155   4.237   6.175  0.2088 -0.2979 -0.9154
  999MOL0     C34735   4.074   4.170   6.267  0.8699 -0.5240 -0.1779
  999MOL0     C34736   3.933   4.191   6.263  0.3593 -1.0139 -0.6499
  999MOL0     C34737   3.871   4.283   6.172 -0.0765  0.8401  0.0227
  999MOL0     O34738   3.735   4.273   6.158  0.0466 -0.1124  0.1874
  999MOL0     C34739   3.683   4.394   6.107 -0.0745 -0.0802  0.3590
  999MOL0     C34740   3.531   4.364   6.094  0.6262 -0.4268 -0.1293
  999MOL0     C34741   3.466   4.305   6.224  0.2127  0.2028  0.1334
  999MOL0     C34742   3.311   4.312   6.214  0.2498 -0.3175 -1.2220
  999MOL0     C34743   3.246   4.239   6.095  0.6223  0.1503 -0.3190
  999MOL0     C34744   3.090   4.237   6.088  0.4529 -0.5403 -0.3153
  999MOL0     C34745   3.043   4.148   5.969 -0.4181  0.0812 -1.0868
  999MOL0     C34746   2.897   4.180   5.953 -0.6418  0.1030 -0.1866
  999MOL0     N34747   2.824   4.097   5.855  0.2807  0.3238 -0.1120
  999MOL0     C34748   2.836   4.092   5.714 -0.1615 -0.1479 -0.7250
  999MOL0     C34749   2.756   3.993   5.674  0.4539  1.1517 -0.0572
  999MOL0     C34750   2.752   3.938   5.538 -0.2497 -0.2337 -0.7039
  999MOL0     C34751   2.755   3.786   5.523  0.5424 -0.1384  0.0951
  999MOL0     C34752   2.744   3.731   5.381  0.0494 -0.8093  0.4029
  999MOL0     C34753   2.873   3.743   5.311  0.9550  0.0215 -0.0457
  999MOL0     O34754   2.961   3.647   5.369  0.4855 -0.0825  0.1265
  999MOL0     C34755   3.100   3.657   5.347 -0.1403  0.3193  0.5438
  999MOL0     C34756   3.172   3.756   5.279 -0.2936  0.7950  0.0394
  999MOL0     C34757   3.313   3.767   5.278 -0.0007 -0.1987  0.4371
  999MOL0     C34758   3.379   3.878   5.196 -0.5314 -0.3996 -0.2980
  999MOL0     C34759   3.389   3.669   5.345 -0.1454 -0.2627 -0.2919
  999MOL0     C34760   3.537   3.678   5.362  0.6394 -0.6840  0.6213
  999MOL0     O34761   3.590   3.795   5.384  0.2255  0.0071  0.1339
  999MOL0     C34762   3.723   3.799   5.373 -0.6711  0.3658  0.5554
  999MOL0     C34763   3.789   3.794   5.249 -0.4357 -0.1847  0.1918
  999MOL0     C34764   3.926   3.810   5.246  0.6412 -0.1611  0.0702
  999MOL0     C34765   4.010   3.831   5.355  0.3361 -0.1857 -0.5375
  999MOL0     O34766   4.146   3.839   5.341  0.3059  0.4558 -0.0664
  999MOL0     C34767   4.221   3.900   5.448 -0.5055  0.9937  0.2094
  999MOL0     C34768   4.362   3.921   5.397  0.1897  0.3298 -0.2223
  999MOL0     C34769   4.448   3.792   5.403  0.3904 -0.7116  0.4669
  999MOL0     C34770   4.589   3.820   5.350 -0.3650  0.5229 -0.1713
  999MOL0     C34771   4.658   3.688   5.317 -0.2846  0.5741  0.0277
  999MOL0     C34772   4.806   3.717   5.293  0.1784  0.6693  0.0468
  999MOL0     C34773   4.891   3.722   5.422 -0.1248  0.0221  0.4939
  999MOL0     C34774   5.044   3.709   5.398  0.8360  0.1535 -0.2021
  999MOL0    Cl34775   5.095   3.834   5.272 -0.2773 -0.1077 -0.7404
  999MOL0     C34776   3.948   3.844   5.483 -0.1127  0.0236 -0.7244
  999MOL0     C34777   3.806   3.824   5.481  0.1526 -0.6850 -0.1650
  999MOL0     O34778   3.598   3.575   5.342  0.1419 -0.3110  0.2383
  999MOL0     C34779   3.319   3.573   5.416  0.7282 -0.1838  0.2448
  999MOL0     C34780   3.177   3.558   5.412 -0.1638  0.0916 -0.1322
  999MOL0     N34781   2.697   3.938   5.789 -0.0648 -0.2814 -0.3387
  999MOL0     N34782   2.734   4.006   5.894  0.6060  0.5940  0.5099
  999MOL0     C34783   3.967   4.360   6.093  0.1653 -1.2627 -0.4373
  999MOL0     C34784   4.101   4.331   6.098 -0.6470 -1.4200 -0.2635
  999MOL0     C34785   4.508   4.200   6.221  0.0330 -1.6520  0.6500
  999MOL0     C34786   4.546   4.244   6.096 -0.3959  0.1190  0.4401
  999MOL0     C34787   4.679   4.272   6.064  0.6261 -0.2900 -0.5464
  999MOL0     C34788   4.782   4.244   6.166 -0.1157 -0.4678  0.0076
  999MOL0     O34789   4.910   4.276   6.150 -0.1168 -0.8613  0.5914
  999MOL0     C34790   4.944   4.332   6.018 -0.2964 -0.0739  0.7729
  999MOL0     C34791   5.104   4.345   6.030 -0.2962  0.1382 -0.0851
  999MOL0     C34792   5.170   4.210   6.019  0.1832  0.7514  0.1009
  999MOL0     C34793   5.320   4.224   6.026 -0.1214  1.0807  0.2117
  999MOL0     C34794   5.394   4.098   6.013  0.1265  0.1660 -0.5983
  999MOL0     C34795   5.461   3.997   6.001  1.0095 -0.3832  0.4917
  999MOL0     C34796   4.741   4.192   6.284 -0.5087 -0.1824 -0.0671
  999MOL0     C34797   4.602   4.174   6.315  0.2154  0.1713  0.1334
  999MOL0     H34798   4.112   4.086   6.324  1.1416 -0.5020 -0.3208
  999MOL0     H34799   3.869   4.129   6.325  0.6598  0.4137  1.1557
  999MOL0     H34800   3.697   4.484   6.167 -1.4929  0.2258  0.2528
  999MOL0     H34801   3.716   4.423   6.007 -1.1346  0.1056  0.0536
  999MOL0     H34802   3.485   4.461   6.071  1.3187 -0.4498 -1.7576
  999MOL0     H34803   3.516   4.291   6.014 -0.6497  0.6361 -0.8923
  999MOL0     H34804   3.498   4.201   6.235  0.0597 -0.1581 -2.3216
  999MOL0     H34805   3.496   4.358   6.314 -0.3221 -3.7764  2.9197
  999MOL0     H34806   3.273   4.257   6.301 -2.1681 -1.4943 -2.9070
  999MOL0     H34807   3.272   4.414   6.213  2.2474  0.5326  0.1651
  999MOL0     H34808   3.273   4.288   6.001  0.8330 -1.6974 -1.2504
  999MOL0     H34809   3.285   4.137   6.102  1.0540  0.4277  2.3133
  999MOL0     H34810   3.040   4.212   6.181  2.1417  0.2078  0.8368
  999MOL0     H34811   3.069   4.343   6.069  3.8073  0.2152 -0.4087
  999MOL0     H34812   3.109   4.160   5.882  1.2073 -0.1685  0.0710
  999MOL0     H34813   3.056   4.044   6.000  0.4301 -0.1077 -2.0151
  999MOL0     H34814   2.886   4.287   5.930  1.4459  0.4517  0.3084
  999MOL0     H34815   2.852   4.165   6.052 -0.6239  0.3823 -0.1344
  999MOL0     H34816   2.904   4.152   5.654  0.1061  0.0596 -0.2208
  999MOL0     H34817   2.675   3.989   5.479 -0.3410  1.7330  1.0003
  999MOL0     H34818   2.848   3.971   5.496 -0.6582  3.3212  0.8622
  999MOL0     H34819   2.680   3.735   5.585  1.8459 -0.4414  1.4893
  999MOL0     H34820   2.852   3.745   5.551 -0.7207 -4.6327 -1.2468
  999MOL0     H34821   2.662   3.764   5.318 -1.1129 -1.2059  1.6580
  999MOL0     H34822   2.733   3.623   5.398 -0.0661 -0.8088  0.3289
  999MOL0     H34823   2.912   3.845   5.304 -0.6656  0.5832 -2.2252
  999MOL0     H34824   2.848   3.723   5.206  1.4760  2.0623 -0.5909
  999MOL0     H34825   3.118   3.839   5.234 -0.1143  0.0908 -1.5325
  999MOL0     H34826   3.406   3.960   5.263 -3.6256  0.6208 -0.1215
  999MOL0     H34827   3.466   3.847   5.139  0.5433 -1.2310  1.7202
  999MOL0     H34828   3.305   3.921   5.126  0.3799 -0.7941 -1.5386
  999MOL0     H34829   3.721   3.788   5.164 -0.3971  1.9589 -0.0351
  999MOL0     H34830   3.983   3.801   5.154 -0.2593 -1.1775 -0.4127
  999MOL0     H34831   4.186   4.002   5.465 -3.4693  0.6370 -2.6947
  999MOL0     H34832   4.215   3.844   5.542 -3.8866  0.1119 -0.4129
  999MOL0     H34833   4.348   3.953   5.294 -0.4086 -1.9144 -0.8948
  999MOL0     H34834   4.409   4.003   5.452  1.3922 -0.0305 -0.6838
  999MOL0     H34835   4.395   3.719   5.341  1.3028 -0.0699 -1.1462
  999MOL0     H34836   4.461   3.764   5.508 -1.5568  1.7900  1.4865
  999MOL0     H34837   4.584   3.885   5.263  0.0562  0.2784 -0.3791
  999MOL0     H34838   4.646   3.872   5.427 -1.0625 -2.6499  2.7533
  999MOL0     H34839   4.612   3.657   5.222  0.8191  0.7194 -0.5747
  999MOL0     H34840   4.648   3.607   5.389 -0.6473  0.6242  0.0355
  999MOL0     H34841   4.857   3.646   5.227 -1.0777 -0.4825  0.2720
  999MOL0     H34842   4.822   3.818   5.253 -0.9820  0.9902  0.3529
  999MOL0     H34843   4.846   3.649   5.491 -0.2411 -0.5111 -0.1337
  999MOL0     H34844   4.880   3.824   5.459 -0.5086  0.9631 -2.0207
  999MOL0     H34845   5.049   3.614   5.343  0.3156  0.0130 -0.0157
  999MOL0     H34846   5.103   3.705   5.489  0.1609 -1.3480  0.2116
  999MOL0     H34847   3.998   3.851   5.579 -4.0368  3.9808  1.3844
  999MOL0     H34848   3.758   3.842   5.577  0.7345  0.3950 -0.0529
  999MOL0     H34849   3.375   3.507   5.482 -0.0810 -1.5250 -0.3689
  999MOL0     H34850   3.117   3.482   5.459 -1.6181 -1.3178 -3.8812
  999MOL0     H34851   3.939   4.446   6.031  2.5265 -0.6966 -0.8211
  999MOL0     H34852   4.174   4.386   6.040  2.0360 -1.9604  2.3751
  999MOL0     H34853   4.466   4.277   6.031  1.2591 -0.3087 -1.9210
  999MOL0     H34854   4.703   4.324   5.972 -1.6379 -2.4391 -2.4718
  999MOL0     H34855   4.921   4.279   5.925 -1.2347  2.9275 -0.8236
  999MOL0     H34856   4.903   4.431   5.998  0.9036  0.0124 -1.7390
  999MOL0     H34857   5.131   4.394   6.124 -0.7362  0.7184 -0.2589
  999MOL0     H34858   5.140   4.404   5.945  1.1004  0.0134  0.3918
  999MOL0     H34859   5.130   4.162   5.929  0.0234 -0.2839  0.7025
  999MOL0     H34860   5.134   4.151   6.104  3.4610  0.5163  1.4588
  999MOL0     H34861   5.347   4.253   6.129  2.1599  1.5488 -0.4526
  999MOL0     H34862   5.353   4.301   5.955 -1.3794  2.1288  0.7123
  999MOL0     H34863   5.530   3.914   6.006  2.3168  0.6627  0.3515
  999MOL0     H34864   4.816   4.177   6.361 -1.3843  1.3335  1.1244
  999MOL0     H34865   4.572   4.149   6.416 -0.3456  0.2816  0.0027
 1000MOL0     O34866   5.107  11.177   1.268  0.0173  1.0012  0.3749
 1000MOL0     C34867   5.150  11.288   1.240  0.5103 -1.1464  0.1736
 1000MOL0     O34868   5.066  11.403   1.223  0.0488  0.1839  0.0792
 1000MOL0     C34869   4.927  11.402   1.243  0.6104 -0.4577  0.1051
 1000MOL0     C34870   4.875  11.518   1.313  0.4796 -0.5345 -1.3349
 1000MOL0     C34871   4.739  11.529   1.319  0.2329  0.3783 -0.9725
 1000MOL0     C34872   4.656  11.444   1.250  0.3090  0.5705  0.0153
 1000MOL0     O34873   4.521  11.467   1.246 -0.1598  0.0194  0.0450
 1000MOL0     C34874   4.414  11.372   1.252 -1.0383 -0.7789 -0.3770
 1000MOL0     C34875   4.381  11.317   1.106  0.4994  0.3822 -0.0735
 1000MOL0     C34876   4.230  11.284   1.088  0.3768 -0.8332 -0.0754
 1000MOL0     C34877   4.175  11.307   0.949 -0.0210  0.0083 -0.2726
 1000MOL0     C34878   4.035  11.244   0.939  0.5914 -0.0246  0.3542
 1000MOL0     C34879   3.977  11.233   0.797  0.8257  0.3406 -1.0498
 1000MOL0     C34880   3.860  11.133   0.802 -0.7152  0.3092  0.1454
 1000MOL0     C34881   3.806  11.108   0.664  0.4412 -0.3908  0.4644
 1000MOL0     N34882   3.682  11.036   0.661  0.4431 -0.8120  0.5098
 1000MOL0     C34883   3.563  11.098   0.697  0.1264  0.1300 -0.2654
 1000MOL0     C34884   3.481  10.992   0.696 -0.5752  0.8211  0.3491
 1000MOL0     C34885   3.320  11.008   0.699 -0.8366  0.0560  0.4748
 1000MOL0     C34886   3.255  10.933   0.585  0.2669 -0.6224  0.4257
 1000MOL0     C34887   3.106  10.918   0.617 -0.3332  0.0375  1.2964
 1000MOL0     C34888   3.025  11.055   0.629  0.4595  0.3292  0.4584
 1000MOL0     O34889   2.885  11.016   0.645 -0.8151 -0.3832  0.4731
 1000MOL0     C34890   2.813  11.021   0.527 -2.0076  0.0304  0.1053
 1000MOL0     C34891   2.677  11.040   0.545  0.2151  0.0746 -0.8735
 1000MOL0     C34892   2.587  11.052   0.438  0.0563 -0.6972  0.1552
 1000MOL0     C34893   2.443  11.064   0.481  1.1320  0.4256 -0.4284
 1000MOL0     C34894   2.644  11.058   0.310  0.4416  0.2874  0.6160
 1000MOL0     C34895   2.552  11.086   0.191 -0.3755  0.0767  0.1443
 1000MOL0     O34896   2.620  11.140   0.082 -0.1592  0.3992 -0.4045
 1000MOL0     C34897   2.551  11.173  -0.035 -0.5510 -0.1286 -0.6912
 1000MOL0     C34898   2.416  11.221  -0.044 -0.3031  0.2004  0.5162
 1000MOL0     C34899   2.369  11.264  -0.168  0.1043 -0.5905 -0.1622
 1000MOL0     C34900   2.448  11.251  -0.284 -0.4010 -0.8693  0.9257
 1000MOL0     O34901   2.423  11.312  -0.407  0.2509 -0.1935  0.4294
 1000MOL0     C34902   2.331  11.421  -0.419 -0.7617 -0.4443 -0.1714
 1000MOL0     C34903   2.358  11.499  -0.548 -0.2920  0.6521  0.1123
 1000MOL0     C34904   2.363  11.412  -0.677 -0.1898  0.3846  0.2465
 1000MOL0     C34905   2.364  11.498  -0.798  0.7052  0.0331 -0.0785
 1000MOL0     C34906   2.391  11.418  -0.924  0.8753  0.5510  0.2223
 1000MOL0     C34907   2.406  11.496  -1.053 -0.1082  0.0988  0.0415
 1000MOL0     C34908   2.277  11.552  -1.083 -0.5214  0.6603  0.2839
 1000MOL0     C34909   2.271  11.599  -1.229 -0.5336 -0.2816  0.4417
 1000MOL0    Cl34910   2.262  11.443  -1.328 -0.3015 -0.1025  0.0382
 1000MOL0     C34911   2.575  11.183  -0.273 -0.7258  0.5348  0.3646
 1000MOL0     C34912   2.629  11.157  -0.152  0.4276 -0.7112  0.2461
 1000MOL0     O34913   2.441  11.045   0.195 -0.0106 -1.2089 -0.0720
 1000MOL0     C34914   2.781  11.034   0.290 -0.2176 -0.6152 -0.0460
 1000MOL0     C34915   2.864  11.001   0.403  0.2507 -0.6337 -0.0719
 1000MOL0     N34916   3.552  10.876   0.659 -0.3772 -0.1135 -0.8985
 1000MOL0     N34917   3.677  10.909   0.633 -0.8466  0.6419  0.5028
 1000MOL0     C34918   4.713  11.325   1.198  0.8491 -0.0588 -0.7786
 1000MOL0     C34919   4.848  11.308   1.195 -0.7685  0.3353  0.0688
 1000MOL0     C34920   5.293  11.313   1.198  0.5243  0.2963  0.2578
 1000MOL0     C34921   5.373  11.204   1.157 -0.4187  0.1370 -0.4270
 1000MOL0     C34922   5.516  11.222   1.137 -0.8101 -0.0062  0.2806
 1000MOL0     C34923   5.575  11.355   1.158  0.0364  0.3032  0.2855
 1000MOL0     O34924   5.705  11.372   1.118 -0.4908 -0.3176 -0.5293
 1000MOL0     C34925   5.759  11.505   1.127  0.2450  0.3304 -0.1496
 1000MOL0     C34926   5.908  11.507   1.087 -0.2122  0.7452 -0.3568
 1000MOL0     C34927   5.993  11.441   1.195  0.2524 -0.1558 -0.6452
 1000MOL0     C34928   6.137  11.429   1.146  0.5007  0.3592 -0.1617
 1000MOL0     C34929   6.235  11.378   1.244 -0.4510 -1.0169  0.1661
 1000MOL0     C34930   6.311  11.320   1.322  0.1035 -1.2924  0.2102
 1000MOL0     C34931   5.492  11.460   1.204  0.6803 -0.0832  0.2005
 1000MOL0     C34932   5.352  11.435   1.220 -0.9776 -0.3031 -0.3960
 1000MOL0     H34933   4.939  11.593   1.359 -1.9198  1.3695 -0.8968
 1000MOL0     H34934   4.698  11.610   1.378  1.0358 -1.2652  2.0538
 1000MOL0     H34935   4.448  11.288   1.314 -2.5672 -1.1862 -0.0591
 1000MOL0     H34936   4.328  11.421   1.298 -0.3392  0.4341 -0.3363
 1000MOL0     H34937   4.403  11.399   1.037 -1.2306 -1.2968 -2.7865
 1000MOL0     H34938   4.446  11.232   1.082  2.3871  1.8029 -0.2089
 1000MOL0     H34939   4.208  11.180   1.112 -0.4751 -0.7212 -0.3369
 1000MOL0     H34940   4.171  11.335   1.165 -3.4190 -1.4680 -2.3449
 1000MOL0     H34941   4.174  11.414   0.925  2.5483 -0.1330 -1.3670
 1000MOL0     H34942   4.238  11.256   0.875 -0.3927 -0.8011 -0.0407
 1000MOL0     H34943   4.043  11.144   0.981 -1.1034 -1.3510 -2.2167
 1000MOL0     H34944   3.964  11.294   1.006 -0.5003 -0.3597 -0.5309
 1000MOL0     H34945   3.945  11.330   0.758 -3.4995  1.1016  3.4695
 1000MOL0     H34946   4.063  11.188   0.745  0.5035 -0.2656 -1.0731
 1000MOL0     H34947   3.885  11.033   0.839 -1.6219  0.8169  2.3098
 1000MOL0     H34948   3.783  11.166   0.873  0.0007 -1.4391  1.8419
 1000MOL0     H34949   3.885  11.056   0.609  1.0815  0.3169  0.6972
 1000MOL0     H34950   3.793  11.202   0.610 -1.2636 -1.3747 -0.9513
 1000MOL0     H34951   3.527  11.200   0.706 -0.4567 -0.1104  0.1262
 1000MOL0     H34952   3.291  10.966   0.795  1.6073 -1.3963  0.6506
 1000MOL0     H34953   3.296  11.115   0.701 -0.7905  0.0649  2.7350
 1000MOL0     H34954   3.299  10.833   0.576  1.1159 -0.1071 -1.8905
 1000MOL0     H34955   3.266  10.989   0.491  3.7696  0.0229  1.0727
 1000MOL0     H34956   3.088  10.863   0.710 -2.0275 -0.1468  0.8952
 1000MOL0     H34957   3.061  10.851   0.543 -3.0048  0.7479  2.1533
 1000MOL0     H34958   3.040  11.134   0.555 -1.3015  0.6611  0.4030
 1000MOL0     H34959   3.045  11.101   0.726 -0.7586  1.2128  0.3212
 1000MOL0     H34960   2.645  11.033   0.648  0.9625  3.1588 -0.3321
 1000MOL0     H34961   2.405  11.146   0.418 -0.0615 -0.1747 -0.5138
 1000MOL0     H34962   2.395  10.973   0.444  0.5600  0.1199  1.0235
 1000MOL0     H34963   2.432  11.085   0.587  1.9653  0.6543 -0.3772
 1000MOL0     H34964   2.364  11.230   0.051  0.5593  1.2611  0.9061
 1000MOL0     H34965   2.268  11.302  -0.176  1.0950  1.9243 -2.4025
 1000MOL0     H34966   2.229  11.382  -0.423  0.2707 -3.4023 -0.2782
 1000MOL0     H34967   2.338  11.486  -0.331  3.5455 -0.3993 -0.3245
 1000MOL0     H34968   2.275  11.569  -0.560 -0.6605  0.3995  1.0572
 1000MOL0     H34969   2.454  11.550  -0.549 -0.9943  2.0371  0.0126
 1000MOL0     H34970   2.271  11.353  -0.683 -0.8554  1.5230 -1.6375
 1000MOL0     H34971   2.459  11.359  -0.675 -0.6827 -0.6065 -0.8884
 1000MOL0     H34972   2.274  11.560  -0.797  1.3506  0.9982  1.2662
 1000MOL0     H34973   2.447  11.567  -0.783  0.8788 -0.5154  1.7056
 1000MOL0     H34974   2.319  11.336  -0.937 -0.4412  1.6572  0.3661
 1000MOL0     H34975   2.486  11.364  -0.912  2.2452  2.7788 -0.0067
 1000MOL0     H34976   2.472  11.583  -1.043  1.8928 -1.2162 -0.9390
 1000MOL0     H34977   2.451  11.434  -1.131  0.3494 -0.0603  0.4243
 1000MOL0     H34978   2.256  11.637  -1.017 -2.9645 -1.0479  1.8622
 1000MOL0     H34979   2.200  11.475  -1.079 -1.5236  1.6790  1.7887
 1000MOL0     H34980   2.359  11.659  -1.254 -0.1626 -1.2659 -0.7096
 1000MOL0     H34981   2.180  11.658  -1.241 -0.2418 -0.1158 -1.1991
 1000MOL0     H34982   2.633  11.171  -0.365 -0.7006 -1.4200  0.6023
 1000MOL0     H34983   2.726  11.109  -0.158  0.2035 -1.0840 -0.6048
 1000MOL0     H34984   2.828  11.022   0.193 -2.9730 -0.4413 -1.5111
 1000MOL0     H34985   2.965  10.966   0.389  0.8810  0.4543  1.4470
 1000MOL0     H34986   4.649  11.249   1.154 -1.4282  0.3518  1.5833
 1000MOL0     H34987   4.896  11.228   1.140 -0.4239 -0.7337  1.8571
 1000MOL0     H34988   5.318  11.110   1.153  1.0290 -0.7294 -0.6351
 1000MOL0     H34989   5.573  11.133   1.111 -1.7085 -0.1814 -1.1532
 1000MOL0     H34990   5.691  11.573   1.074 -2.6944  1.1296  4.1132
 1000MOL0     H34991   5.751  11.539   1.231  1.0990 -1.3059  0.4874
 1000MOL0     H34992   5.941  11.611   1.074 -0.0591  0.8172  0.5534
 1000MOL0     H34993   5.932  11.451   0.996  0.5839 -1.3442  1.0660
 1000MOL0     H34994   5.952  11.344   1.221 -0.2044 -0.0098 -0.8178
 1000MOL0     H34995   6.003  11.500   1.287  0.5820 -1.4182  0.1489
 1000MOL0     H34996   6.171  11.524   1.102 -0.2606  0.4926 -0.4648
 1000MOL0     H34997   6.129  11.357   1.064 -0.2818 -1.3500  1.3622
 1000MOL0     H34998   6.371  11.271   1.396  0.9596  0.5919  0.8271
 1000MOL0     H34999   5.528  11.562   1.215  1.6000 -0.1684 -1.6270
 1000MOL0     H35000   5.289  11.519   1.246  1.5325  1.2392  1.1138
 1001MOL0     O35001   2.757  10.023   2.324 -0.4822 -0.4462 -0.0049
 1001MOL0     C35002   2.843  10.008   2.234  0.2008 -0.6229 -0.4575
 1001MOL0     O35003   2.815   9.996   2.105 -0.5563  0.0001 -0.4141
 1001MOL0     C35004   2.690  10.001   2.049  0.7370  0.5531 -0.7283
 1001MOL0     C35005   2.582   9.933   2.103  0.5056 -0.8539  0.7828
 1001MOL0     C35006   2.468   9.914   2.039  0.6700  0.2064  0.7562
 1001MOL0     C35007   2.452   9.969   1.903  0.8401 -0.2633 -0.9032
 1001MOL0     O35008   2.330   9.965   1.848  0.1063  0.0545 -0.4068
 1001MOL0     C35009   2.293  10.047   1.737 -0.6270 -0.0834  0.9995
 1001MOL0     C35010   2.145  10.038   1.720 -0.4458  0.4260  0.4296
 1001MOL0     C35011   2.077  10.119   1.824  0.6146 -0.2427  1.1272
 1001MOL0     C35012   1.924  10.100   1.803  0.4621  0.3428  0.6494
 1001MOL0     C35013   1.864  10.161   1.672  0.1431  0.8489 -0.3163
 1001MOL0     C35014   1.710  10.162   1.682 -0.2724  0.0872 -0.5502
 1001MOL0     C35015   1.665  10.216   1.555 -0.4935  0.4293  0.5131
 1001MOL0     C35016   1.509  10.227   1.552  0.1431 -0.0736 -0.3263
 1001MOL0     N35017   1.471  10.291   1.427 -0.0368  0.6540  0.0091
 1001MOL0     C35018   1.472  10.225   1.303 -0.1672  0.2078  0.1100
 1001MOL0     C35019   1.423  10.318   1.218  0.1794  0.6747  0.3818
 1001MOL0     C35020   1.410  10.287   1.068 -0.4431  0.2499  0.2409
 1001MOL0     C35021   1.282  10.202   1.030 -1.0521 -0.0039  0.6266
 1001MOL0     C35022   1.167  10.253   1.116  0.5008 -0.1468 -0.1154
 1001MOL0     C35023   1.137  10.400   1.078  0.3870 -0.2747  0.3602
 1001MOL0     O35024   1.006  10.447   1.094  0.0940  0.5189 -0.0785
 1001MOL0     C35025   0.960  10.417   1.221  0.3076  0.1302  0.4943
 1001MOL0     C35026   1.038  10.415   1.339 -0.0277 -1.1595 -0.2887
 1001MOL0     C35027   0.982  10.403   1.470  0.3906  0.1208 -0.3116
 1001MOL0     C35028   1.061  10.382   1.598  0.2263  0.2425 -1.3819
 1001MOL0     C35029   0.843  10.401   1.480  0.4947  0.0686  0.1375
 1001MOL0     C35030   0.771  10.418   1.605  0.2345  0.7761 -0.2577
 1001MOL0     O35031   0.695  10.303   1.638 -0.6410  0.1153 -0.1224
 1001MOL0     C35032   0.594  10.317   1.719  0.0744 -0.1413 -0.4023
 1001MOL0     C35033   0.554  10.221   1.805  0.4150  0.2147  0.1236
 1001MOL0     C35034   0.435  10.223   1.881 -0.0300  0.1490  0.4655
 1001MOL0     C35035   0.344  10.329   1.866 -0.3909 -0.5827 -0.2294
 1001MOL0     O35036   0.235  10.336   1.951 -0.3955  0.0677 -0.0525
 1001MOL0     C35037   0.124  10.420   1.907  0.0351  0.0436  0.2833
 1001MOL0     C35038   0.033  10.342   1.802 -0.4552 -0.2961 -0.0856
 1001MOL0     C35039  -0.048  10.230   1.857 -0.4032 -0.0238  0.1014
 1001MOL0     C35040  -0.172  10.199   1.775  0.0519  0.6415 -0.7687
 1001MOL0     C35041  -0.305  10.277   1.807  0.2314  0.8419  0.0858
 1001MOL0     C35042  -0.412  10.254   1.695  0.1024  0.1469  0.0502
 1001MOL0     C35043  -0.554  10.279   1.742 -0.0962 -0.5907 -0.2476
 1001MOL0     C35044  -0.652  10.232   1.640  0.4539  0.9282  0.2081
 1001MOL0    Cl35045  -0.826  10.256   1.691  0.2342  0.2137 -0.0422
 1001MOL0     C35046   0.385  10.433   1.776 -0.3471 -0.7535  0.3418
 1001MOL0     C35047   0.505  10.423   1.704  0.4721 -0.9523 -1.0040
 1001MOL0     O35048   0.778  10.521   1.673  0.3467  0.1532  0.4303
 1001MOL0     C35049   0.758  10.400   1.362 -0.2728 -0.5407 -0.5443
 1001MOL0     C35050   0.821  10.408   1.236  0.4084 -0.4652  0.0905
 1001MOL0     N35051   1.405  10.438   1.283 -0.4253 -0.0436 -0.3742
 1001MOL0     N35052   1.437  10.418   1.409  0.6761 -0.0264  0.2112
 1001MOL0     C35053   2.565  10.033   1.842  0.0886  0.7710 -0.4513
 1001MOL0     C35054   2.685  10.039   1.915  0.5531  0.1838  0.1006
 1001MOL0     C35055   2.988  10.015   2.260  0.0420 -0.3159 -0.2065
 1001MOL0     C35056   3.088  10.003   2.170  0.1827 -1.2802  0.3960
 1001MOL0     C35057   3.224  10.026   2.207  0.2660 -0.1672  0.3937
 1001MOL0     C35058   3.268  10.070   2.335  0.5890 -0.0603 -0.0547
 1001MOL0     O35059   3.405  10.100   2.361 -0.1698 -0.2092  0.0250
 1001MOL0     C35060   3.507  10.089   2.259  0.3761  0.2725  0.7058
 1001MOL0     C35061   3.641  10.115   2.315 -0.2440 -0.2561  0.2830
 1001MOL0     C35062   3.753  10.086   2.221  0.0600 -0.1196  0.0870
 1001MOL0     C35063   3.887  10.077   2.294 -0.4724  0.3189  0.3646
 1001MOL0     C35064   3.985  10.028   2.199 -0.5337 -0.0550  0.6034
 1001MOL0     C35065   4.064   9.991   2.109 -0.2273  0.4857 -0.5859
 1001MOL0     C35066   3.163  10.083   2.429 -0.3376  0.5702 -0.7225
 1001MOL0     C35067   3.033  10.054   2.393 -0.0623 -0.3193 -0.1577
 1001MOL0     H35068   2.600   9.887   2.199 -1.7380 -1.3265  1.0131
 1001MOL0     H35069   2.393   9.861   2.096  1.3688  0.1761  1.6775
 1001MOL0     H35070   2.317  10.154   1.746 -1.6010  0.1296  1.1064
 1001MOL0     H35071   2.347   9.996   1.656 -1.4264  0.1009  0.3338
 1001MOL0     H35072   2.124  10.079   1.621  0.3411  0.8456  0.4281
 1001MOL0     H35073   2.115   9.933   1.719  1.1326 -0.1140 -2.7726
 1001MOL0     H35074   2.111  10.098   1.926 -0.2287  2.2887  2.0018
 1001MOL0     H35075   2.104  10.223   1.803  1.0604 -0.3508  1.1488
 1001MOL0     H35076   1.912   9.992   1.811 -0.9327  0.4934  0.7751
 1001MOL0     H35077   1.879  10.147   1.891 -0.9832 -1.1247  0.7360
 1001MOL0     H35078   1.896  10.265   1.667  1.6712  0.4389  0.1551
 1001MOL0     H35079   1.901  10.102   1.587 -1.9861 -3.0475  1.1834
 1001MOL0     H35080   1.690  10.055   1.698 -2.9145  0.9013  2.7357
 1001MOL0     H35081   1.673  10.225   1.763 -0.4777  2.3439 -2.3008
 1001MOL0     H35082   1.721  10.308   1.538 -1.5178  0.5078 -3.5008
 1001MOL0     H35083   1.703  10.155   1.472  1.3410 -0.5569  1.9925
 1001MOL0     H35084   1.473  10.289   1.635 -0.5244 -1.2814  0.3067
 1001MOL0     H35085   1.468  10.126   1.558  0.5112 -0.1914  0.3939
 1001MOL0     H35086   1.501  10.123   1.278  1.3663  0.6368  0.0220
 1001MOL0     H35087   1.406  10.382   1.013  1.6061 -0.2822 -0.9370
 1001MOL0     H35088   1.500  10.234   1.036  0.2281  3.0543 -3.1329
 1001MOL0     H35089   1.310  10.099   1.056  0.1135  0.0400 -0.3770
 1001MOL0     H35090   1.255  10.204   0.924 -0.4342  3.4438  0.4205
 1001MOL0     H35091   1.197  10.240   1.221  0.8243  0.3255 -0.1446
 1001MOL0     H35092   1.084  10.185   1.101 -0.4248  0.2503  2.5987
 1001MOL0     H35093   1.149  10.415   0.971  1.0108  0.6641  0.5528
 1001MOL0     H35094   1.196  10.474   1.133 -1.0550  1.0415  0.2211
 1001MOL0     H35095   1.146  10.412   1.333  0.1917 -0.0560  2.1257
 1001MOL0     H35096   1.161  10.347   1.571  0.2757 -3.1498  2.3252
 1001MOL0     H35097   1.069  10.470   1.663  1.5538 -1.8889  1.5563
 1001MOL0     H35098   1.024  10.297   1.656 -0.4817  1.1933 -0.4082
 1001MOL0     H35099   0.617  10.138   1.834  1.8298  1.5904  1.1956
 1001MOL0     H35100   0.416  10.147   1.957 -3.4075  1.9242  1.6035
 1001MOL0     H35101   0.053  10.445   1.987 -1.2389  3.0636 -1.6014
 1001MOL0     H35102   0.144  10.519   1.866  0.6188 -0.0773  0.2723
 1001MOL0     H35103  -0.037  10.406   1.747  0.6396 -0.8906 -2.3054
 1001MOL0     H35104   0.102  10.295   1.731  0.6321  0.9343  0.1218
 1001MOL0     H35105  -0.075  10.246   1.962 -1.8731  2.5052 -0.5833
 1001MOL0     H35106   0.015  10.140   1.855 -0.1459  0.1430  0.5170
 1001MOL0     H35107  -0.148  10.216   1.670  0.8585 -0.8316 -0.8465
 1001MOL0     H35108  -0.191  10.093   1.791 -0.8731  0.4670 -2.7867
 1001MOL0     H35109  -0.300  10.385   1.824  0.4550  0.9452 -0.6521
 1001MOL0     H35110  -0.345  10.248   1.905 -1.4177  0.4101 -0.6813
 1001MOL0     H35111  -0.384  10.310   1.606  2.5119 -0.1330  0.5758
 1001MOL0     H35112  -0.406  10.149   1.667  0.8031  0.6384 -1.7531
 1001MOL0     H35113  -0.573  10.386   1.757  1.6116 -0.1468 -1.0150
 1001MOL0     H35114  -0.561  10.225   1.837 -2.0109  2.2685  1.3860
 1001MOL0     H35115  -0.636  10.125   1.630  2.0989  1.2499 -0.9819
 1001MOL0     H35116  -0.640  10.274   1.540  2.4720  0.7742  0.3444
 1001MOL0     H35117   0.326  10.522   1.757  1.5115  0.5642  0.5229
 1001MOL0     H35118   0.518  10.508   1.637 -3.5454  0.2399 -0.5091
 1001MOL0     H35119   0.650  10.400   1.373 -0.0455  1.4812  2.9439
 1001MOL0     H35120   0.751  10.401   1.154 -0.7941 -0.8080  1.1161
 1001MOL0     H35121   2.575  10.074   1.742  0.5447 -2.1007 -1.6903
 1001MOL0     H35122   2.780  10.077   1.881  0.7194  1.1458  1.5280
 1001MOL0     H35123   3.074   9.980   2.065  0.6017 -1.1271  0.3028
 1001MOL0     H35124   3.296  10.027   2.127  2.0582 -0.4096  1.9453
 1001MOL0     H35125   3.500   9.992   2.210  0.9535  1.2768 -1.4770
 1001MOL0     H35126   3.482  10.161   2.181  1.9977 -3.2558 -3.4421
 1001MOL0     H35127   3.664  10.044   2.395  3.9153  1.0873  0.5321
 1001MOL0     H35128   3.647  10.216   2.356 -2.0886  0.3794 -0.8733
 1001MOL0     H35129   3.755  10.166   2.146  1.3722 -0.7920 -0.6311
 1001MOL0     H35130   3.722   9.995   2.169 -2.3874  1.7689 -2.0488
 1001MOL0     H35131   3.878   9.995   2.365  1.6189 -1.1032 -0.9001
 1001MOL0     H35132   3.927  10.163   2.349  0.9780  0.0890 -0.2797
 1001MOL0     H35133   4.133   9.964   2.032  2.0422 -2.7434  2.2696
 1001MOL0     H35134   3.185  10.122   2.528 -2.5287  0.6767 -0.2204
 1001MOL0     H35135   2.954  10.057   2.468 -0.9402  2.3160 -1.0878
 1002MOL0     O35136   3.036   9.958   1.814  0.8026  0.5498 -0.0422
 1002MOL0     C35137   3.121   9.974   1.725 -0.3918  0.1278 -0.6230
 1002MOL0     O35138   3.102  10.025   1.602 -0.3091  0.2667  0.0367
 1002MOL0     C35139   2.982  10.064   1.564  0.4645  0.5561  0.7609
 1002MOL0     C35140   2.920  10.177   1.608  0.2513 -0.0958 -0.6574
 1002MOL0     C35141   2.790  10.215   1.570  0.2664  0.1376  0.5466
 1002MOL0     C35142   2.719  10.133   1.487 -0.0909  0.0615 -0.0294
 1002MOL0     O35143   2.594  10.159   1.451  0.4061  0.0447  0.5984
 1002MOL0     C35144   2.512  10.085   1.364  0.6917  0.2388 -0.3190
 1002MOL0     C35145   2.376  10.142   1.368 -0.3709  0.2974 -0.0128
 1002MOL0     C35146   2.273  10.064   1.282  0.2687  0.0568 -0.3041
 1002MOL0     C35147   2.144  10.129   1.309  1.3184  0.1199  0.0673
 1002MOL0     C35148   2.030  10.035   1.256  0.0374  0.2720  0.3681
 1002MOL0     C35149   1.896  10.097   1.268 -0.4312 -0.5904 -0.1661
 1002MOL0     C35150   1.779   9.998   1.237 -0.1176 -0.1682  0.1057
 1002MOL0     C35151   1.763   9.893   1.350  0.0122 -0.0707 -0.0989
 1002MOL0     N35152   1.628   9.830   1.343 -0.6334  0.1749  0.1946
 1002MOL0     C35153   1.569   9.776   1.226  0.3422  0.0910 -0.5494
 1002MOL0     C35154   1.449   9.735   1.274 -0.0362  0.1505  0.0291
 1002MOL0     C35155   1.346   9.677   1.181 -0.3959  0.3807 -0.3640
 1002MOL0     C35156   1.240   9.770   1.139 -0.4017  0.2454 -0.3146
 1002MOL0     C35157   1.150   9.708   1.037 -0.3587 -0.0105  0.4820
 1002MOL0     C35158   1.012   9.772   1.038  0.3415 -0.3188  0.5891
 1002MOL0     O35159   0.938   9.692   0.938  0.5648  0.2936  0.4288
 1002MOL0     C35160   0.803   9.690   0.947  0.3059 -0.7750  0.5472
 1002MOL0     C35161   0.746   9.618   0.837 -0.6164 -0.8220 -0.1988
 1002MOL0     C35162   0.601   9.623   0.832 -0.2564  0.5968  0.0484
 1002MOL0     C35163   0.554   9.569   0.699  0.5475  0.3747 -0.7034
 1002MOL0     C35164   0.516   9.673   0.930 -0.6287 -0.2770 -0.5951
 1002MOL0     C35165   0.364   9.684   0.928 -0.2222  0.0286 -0.2315
 1002MOL0     O35166   0.301   9.772   1.011  0.1302  0.6113  0.1977
 1002MOL0     C35167   0.176   9.759   1.046  0.5832  0.3078  0.3173
 1002MOL0     C35168   0.122   9.634   1.091  0.1019 -0.2975 -0.1478
 1002MOL0     C35169  -0.002   9.622   1.144  0.6032  0.4815  0.0894
 1002MOL0     C35170  -0.092   9.737   1.156 -0.0452 -1.2432 -0.5101
 1002MOL0     O35171  -0.219   9.749   1.212 -0.2674  0.2419 -0.0464
 1002MOL0     C35172  -0.274   9.626   1.265  0.2107  0.2917  0.5512
 1002MOL0     C35173  -0.327   9.531   1.159 -0.4206  0.0382 -0.5001
 1002MOL0     C35174  -0.460   9.583   1.093 -0.0993 -0.4569  0.1824
 1002MOL0     C35175  -0.574   9.598   1.185  0.1025 -0.0180 -0.3616
 1002MOL0     C35176  -0.717   9.575   1.139 -0.5497 -1.0546  0.1881
 1002MOL0     C35177  -0.759   9.666   1.028  0.0535  0.4760 -0.2771
 1002MOL0     C35178  -0.909   9.657   1.002 -0.0556 -0.3228 -0.7042
 1002MOL0     C35179  -0.967   9.757   0.903 -0.1175 -0.4248  0.9882
 1002MOL0    Cl35180  -1.149   9.745   0.897  0.0281 -0.0521  0.2449
 1002MOL0     C35181  -0.036   9.858   1.108 -0.7482 -0.5622 -0.3681
 1002MOL0     C35182   0.093   9.870   1.053  0.0319 -0.2859 -0.0485
 1002MOL0     O35183   0.306   9.613   0.848 -0.6235  0.4305  0.2138
 1002MOL0     C35184   0.582   9.735   1.039 -0.2388 -0.1376 -0.2432
 1002MOL0     C35185   0.723   9.741   1.048  0.6746 -0.2507 -0.2960
 1002MOL0     N35186   1.437   9.769   1.406 -0.6440 -0.1625  0.4134
 1002MOL0     N35187   1.541   9.822   1.447 -0.7220 -0.6997 -0.2662
 1002MOL0     C35188   2.780  10.009   1.451  0.3347  0.2606 -0.8708
 1002MOL0     C35189   2.909   9.977   1.482  0.1051 -0.9650  0.3547
 1002MOL0     C35190   3.262   9.938   1.761  0.1238 -0.4109 -0.8028
 1002MOL0     C35191   3.280   9.852   1.868  0.0038 -0.4178  0.0477
 1002MOL0     C35192   3.413   9.817   1.898 -0.4975  0.3151 -0.7222
 1002MOL0     C35193   3.520   9.868   1.822  0.6789  0.2996 -0.7057
 1002MOL0     O35194   3.655   9.840   1.836 -0.2914  0.7040 -0.3236
 1002MOL0     C35195   3.689   9.787   1.961  0.1566 -0.3707  0.5659
 1002MOL0     C35196   3.705   9.639   1.951  0.1361 -0.1040  0.3627
 1002MOL0     C35197   3.803   9.601   1.842 -1.2093  0.6695 -0.4310
 1002MOL0     C35198   3.952   9.594   1.888 -0.0025  0.2818 -0.1791
 1002MOL0     C35199   3.976   9.465   1.962  0.6160  0.6203  0.0678
 1002MOL0     C35200   4.008   9.353   1.999  0.3239  0.2215  0.3165
 1002MOL0     C35201   3.494   9.949   1.718 -0.2574  0.2930 -0.5846
 1002MOL0     C35202   3.361   9.981   1.680  0.0634 -0.4519 -0.8620
 1002MOL0     H35203   2.965  10.237   1.686 -2.4474  1.1598  0.0565
 1002MOL0     H35204   2.745  10.313   1.586  0.9182  1.1609 -3.0192
 1002MOL0     H35205   2.541  10.095   1.259 -0.9142 -0.9568 -0.9377
 1002MOL0     H35206   2.515   9.983   1.403 -0.1894  1.3012  2.8157
 1002MOL0     H35207   2.349  10.165   1.471  0.2687 -1.4881  0.6019
 1002MOL0     H35208   2.399  10.231   1.309  3.2257 -1.0776 -0.9835
 1002MOL0     H35209   2.301  10.083   1.178 -0.3519  2.2085 -0.1292
 1002MOL0     H35210   2.271   9.956   1.298 -1.2570 -0.0332 -0.9910
 1002MOL0     H35211   2.127  10.142   1.416 -2.2657 -0.9282 -0.2384
 1002MOL0     H35212   2.129  10.230   1.268 -1.9808  0.4387  1.7363
 1002MOL0     H35213   2.044  10.020   1.148 -0.6577  1.1958  0.1413
 1002MOL0     H35214   2.032   9.940   1.311  1.9992 -0.8218 -1.4160
 1002MOL0     H35215   1.889  10.136   1.370 -0.9275  2.1682 -1.1639
 1002MOL0     H35216   1.890  10.187   1.206  1.2737  0.9562  1.7474
 1002MOL0     H35217   1.686  10.055   1.233  0.2004  0.5789  2.0609
 1002MOL0     H35218   1.795   9.941   1.145 -0.4179 -2.3956  1.3647
 1002MOL0     H35219   1.774   9.942   1.447  0.1907 -2.6823  1.2935
 1002MOL0     H35220   1.834   9.810   1.347 -1.4306 -1.3472 -0.1980
 1002MOL0     H35221   1.606   9.758   1.126  0.3084  2.5483 -1.0730
 1002MOL0     H35222   1.389   9.651   1.084  0.0030  2.2085 -0.7193
 1002MOL0     H35223   1.307   9.589   1.234 -3.3129  1.6728 -0.1586
 1002MOL0     H35224   1.275   9.868   1.107 -0.5322  1.5287  3.0696
 1002MOL0     H35225   1.179   9.803   1.223 -0.9673  2.6495 -1.5924
 1002MOL0     H35226   1.133   9.600   1.047  0.9298 -0.3050 -0.2705
 1002MOL0     H35227   1.203   9.715   0.941  2.2551 -1.5350  1.7063
 1002MOL0     H35228   1.011   9.879   1.017 -3.9931 -0.0744  1.1913
 1002MOL0     H35229   0.973   9.755   1.138 -1.4162 -0.4899 -0.1012
 1002MOL0     H35230   0.807   9.577   0.757  1.2340 -1.6447  1.5398
 1002MOL0     H35231   0.489   9.481   0.707 -0.8850  1.4853  0.4600
 1002MOL0     H35232   0.488   9.641   0.650 -2.0848 -2.0156 -0.9694
 1002MOL0     H35233   0.636   9.547   0.630 -0.1794 -2.6895 -0.7769
 1002MOL0     H35234   0.184   9.546   1.077  2.6198  0.5804  3.7977
 1002MOL0     H35235  -0.018   9.520   1.177  1.0105  0.1364 -0.7296
 1002MOL0     H35236  -0.206   9.560   1.319  1.0094 -2.2977 -3.1650
 1002MOL0     H35237  -0.357   9.655   1.330 -0.8167 -0.3207 -0.4473
 1002MOL0     H35238  -0.252   9.523   1.079  0.9531  2.8782  0.4060
 1002MOL0     H35239  -0.345   9.431   1.200 -0.6838  0.5739  0.7214
 1002MOL0     H35240  -0.489   9.515   1.013 -0.4148  0.8317 -0.8375
 1002MOL0     H35241  -0.440   9.677   1.041 -2.1244  0.6451  1.2578
 1002MOL0     H35242  -0.545   9.523   1.260 -1.0275  0.8423  0.9809
 1002MOL0     H35243  -0.567   9.695   1.235 -0.4480 -0.7930  1.3142
 1002MOL0     H35244  -0.782   9.587   1.225 -0.1088  3.8175  0.1070
 1002MOL0     H35245  -0.726   9.469   1.111 -0.1419 -0.9443 -0.4043
 1002MOL0     H35246  -0.724   9.769   1.036  2.0855 -0.2292  0.9959
 1002MOL0     H35247  -0.710   9.633   0.936 -0.5367  0.3189 -0.5328
 1002MOL0     H35248  -0.962   9.656   1.097  1.2316 -3.3996  0.1116
 1002MOL0     H35249  -0.943   9.565   0.953 -2.7560 -0.0479  0.4794
 1002MOL0     H35250  -0.933   9.758   0.799  0.1259  0.4337  1.0653
 1002MOL0     H35251  -0.938   9.855   0.942  1.1860  0.5590 -2.1063
 1002MOL0     H35252  -0.097   9.948   1.100  0.0021 -0.0566 -0.4531
 1002MOL0     H35253   0.122   9.964   1.007  1.5042 -1.3824 -1.5018
 1002MOL0     H35254   0.529   9.785   1.119  1.2093 -0.9851  1.3224
 1002MOL0     H35255   0.767   9.805   1.123  0.8111 -1.6569  0.8596
 1002MOL0     H35256   2.720   9.935   1.398 -1.1049 -1.5246  2.8812
 1002MOL0     H35257   2.942   9.880   1.446 -2.1014 -0.9284 -2.0317
 1002MOL0     H35258   3.194   9.808   1.917 -2.3669  1.3156 -2.3071
 1002MOL0     H35259   3.419   9.755   1.987  0.5713  1.5475  0.1174
 1002MOL0     H35260   3.788   9.822   1.991  1.0778 -2.9485  0.7872
 1002MOL0     H35261   3.619   9.806   2.043 -0.1640 -0.2762  0.2727
 1002MOL0     H35262   3.611   9.592   1.923  0.3597  0.4301 -1.4876
 1002MOL0     H35263   3.742   9.595   2.044 -1.1040 -0.5164  0.6732
 1002MOL0     H35264   3.793   9.661   1.752  0.3721 -0.3083 -1.3075
 1002MOL0     H35265   3.770   9.501   1.812 -0.4287  0.6666 -1.3078
 1002MOL0     H35266   3.971   9.684   1.947 -2.6990  2.5385 -2.4505
 1002MOL0     H35267   4.025   9.588   1.807 -0.5985 -0.9550 -0.6438
 1002MOL0     H35268   4.035   9.255   2.033 -0.7792 -1.2969 -2.7471
 1002MOL0     H35269   3.579   9.993   1.667 -0.5094  3.1481  1.2542
 1002MOL0     H35270   3.340  10.034   1.587  1.3181  0.7199 -0.5125
 1003MOL0     O35271   4.049   9.965   0.816  0.6623  0.0104 -0.4032
 1003MOL0     C35272   4.021   9.970   0.698 -0.3785  0.1211  0.8900
 1003MOL0     O35273   4.112   9.947   0.598  0.5323  0.2733 -0.6177
 1003MOL0     C35274   4.244   9.911   0.629  0.3808 -0.4639 -0.0249
 1003MOL0     C35275   4.283   9.778   0.648  0.2197 -0.6595  0.0699
 1003MOL0     C35276   4.412   9.750   0.687 -0.8597  0.2611  0.0961
 1003MOL0     C35277   4.509   9.850   0.704  0.6559  0.1477  0.8462
 1003MOL0     O35278   4.631   9.830   0.759 -0.1936 -0.1779 -0.7121
 1003MOL0     C35279   4.657   9.707   0.834 -0.6847 -0.0038 -0.2902
 1003MOL0     C35280   4.780   9.741   0.920 -0.3909 -0.6926 -0.5184
 1003MOL0     C35281   4.806   9.641   1.022 -0.3793  0.1404  0.2835
 1003MOL0     C35282   4.862   9.506   0.972 -0.2576  0.9737 -0.0732
 1003MOL0     C35283   4.860   9.393   1.074  0.5184  0.3523 -0.4221
 1003MOL0     C35284   4.724   9.329   1.100  0.7529  0.6960 -0.4776
 1003MOL0     C35285   4.641   9.278   0.980 -0.2209 -0.4233  0.5677
 1003MOL0     C35286   4.720   9.194   0.875 -0.2029  0.0503 -0.0454
 1003MOL0     N35287   4.628   9.134   0.776  0.8408 -0.1412  0.0140
 1003MOL0     C35288   4.571   9.207   0.676  0.4692  0.2174  0.3837
 1003MOL0     C35289   4.471   9.125   0.634 -0.3374  0.5387 -0.7347
 1003MOL0     C35290   4.370   9.128   0.521 -0.8635  0.9945 -0.1297
 1003MOL0     C35291   4.300   9.260   0.509  0.3764 -1.0820  0.2246
 1003MOL0     C35292   4.226   9.294   0.645 -0.6513  0.0121  0.3170
 1003MOL0     C35293   4.119   9.398   0.618  0.2751 -0.3421 -0.4871
 1003MOL0     O35294   4.153   9.493   0.519 -0.2903  0.2559  0.5674
 1003MOL0     C35295   4.052   9.537   0.437  0.1226  0.0638 -0.2499
 1003MOL0     C35296   4.095   9.560   0.306  0.1220  0.9984 -1.1959
 1003MOL0     C35297   4.009   9.620   0.210  0.3964 -0.3113 -0.2444
 1003MOL0     C35298   4.062   9.637   0.062 -0.0774 -0.1713 -0.6123
 1003MOL0     C35299   3.877   9.672   0.249 -0.0283  0.7889  0.0091
 1003MOL0     C35300   3.780   9.743   0.168 -0.2148  0.1338 -0.1871
 1003MOL0     O35301   3.652   9.764   0.233  0.1450  0.8664 -0.0098
 1003MOL0     C35302   3.547   9.825   0.176 -0.0764 -0.2961 -0.1439
 1003MOL0     C35303   3.418   9.786   0.208 -0.7168  0.6698 -0.6453
 1003MOL0     C35304   3.311   9.849   0.164  0.8193 -0.1622 -0.6493
 1003MOL0     C35305   3.321   9.960   0.082 -0.1246 -0.7033 -0.0350
 1003MOL0     O35306   3.208  10.019   0.037 -0.0528  0.0362  0.3168
 1003MOL0     C35307   3.132   9.941  -0.060  0.6103  0.1026 -0.5219
 1003MOL0     C35308   3.018  10.036  -0.100 -0.0632  0.1897  0.0550
 1003MOL0     C35309   2.928   9.961  -0.202  0.2245 -0.1774 -0.7249
 1003MOL0     C35310   2.791  10.016  -0.202  1.2189 -0.2177  0.5799
 1003MOL0     C35311   2.688   9.945  -0.292 -0.0897  0.9158  1.1615
 1003MOL0     C35312   2.546   9.997  -0.263 -0.3398  0.4014  0.2703
 1003MOL0     C35313   2.440   9.897  -0.317 -0.6674  0.6380  0.2919
 1003MOL0     C35314   2.428   9.903  -0.475  0.0807  0.6550  0.1333
 1003MOL0    Cl35315   2.302   9.792  -0.522  0.2012  0.1667 -0.3839
 1003MOL0     C35316   3.450  10.009   0.047  0.2007 -0.2183 -0.7747
 1003MOL0     C35317   3.559   9.938   0.085 -0.2983 -0.4277 -0.3201
 1003MOL0     O35318   3.809   9.767   0.053  0.3532  0.2518 -0.5310
 1003MOL0     C35319   3.834   9.632   0.383  0.3597 -0.2591  1.2642
 1003MOL0     C35320   3.925   9.572   0.474  0.5630 -0.3379 -0.5762
 1003MOL0     N35321   4.487   9.004   0.692 -0.6295  0.0140  0.2353
 1003MOL0     N35322   4.575   9.010   0.786  0.8466  0.5247 -0.3041
 1003MOL0     C35323   4.472   9.981   0.672 -0.5356  0.4156  0.9000
 1003MOL0     C35324   4.343  10.014   0.631  0.4085  0.3732 -0.0402
 1003MOL0     C35325   3.879   9.998   0.667 -0.2626 -0.7980 -0.1394
 1003MOL0     C35326   3.810  10.068   0.764 -0.3613  0.9243  1.0049
 1003MOL0     C35327   3.676  10.104   0.736 -0.6166  0.2164 -0.5761
 1003MOL0     C35328   3.613  10.073   0.612 -0.1025 -0.4269 -0.3726
 1003MOL0     O35329   3.488  10.123   0.579  0.2816 -0.1483  0.0971
 1003MOL0     C35330   3.378  10.048   0.626 -0.0786 -0.1167  0.0917
 1003MOL0     C35331   3.244  10.108   0.591  0.1440  0.0019 -0.0908
 1003MOL0     C35332   3.254  10.172   0.448  0.3168  0.6385  0.7373
 1003MOL0     C35333   3.120  10.220   0.372  0.0111  0.0367 -0.1308
 1003MOL0     C35334   3.014  10.247   0.475 -0.3579  0.3892 -0.6426
 1003MOL0     C35335   2.936  10.247   0.566  0.2314  0.7652 -0.2700
 1003MOL0     C35336   3.682  10.010   0.511 -0.2942  0.0807 -0.2829
 1003MOL0     C35337   3.819   9.961   0.542  0.0566 -1.0643  0.2014
 1003MOL0     H35338   4.214   9.694   0.648  0.3066 -0.7409 -0.9010
 1003MOL0     H35339   4.439   9.646   0.705  2.5422  0.5722 -2.2619
 1003MOL0     H35340   4.572   9.675   0.894 -0.9649 -1.5242 -1.4361
 1003MOL0     H35341   4.687   9.633   0.760  1.3777 -1.7422  2.0970
 1003MOL0     H35342   4.872   9.763   0.865  0.3829  1.8810  1.6344
 1003MOL0     H35343   4.753   9.833   0.973 -1.9134  0.8397 -3.6351
 1003MOL0     H35344   4.871   9.674   1.103 -2.0817 -1.7303  2.5634
 1003MOL0     H35345   4.713   9.622   1.076 -1.1271  1.6338 -0.4005
 1003MOL0     H35346   4.809   9.475   0.882  0.0312  2.6371 -0.8469
 1003MOL0     H35347   4.963   9.523   0.933  1.2329 -2.6218  1.6544
 1003MOL0     H35348   4.925   9.309   1.048  1.1093  0.6442  0.0740
 1003MOL0     H35349   4.889   9.430   1.173 -2.6008 -3.6570  2.3075
 1003MOL0     H35350   4.726   9.248   1.173  1.4990  1.0302 -0.1167
 1003MOL0     H35351   4.655   9.405   1.136  1.8875  0.8905  1.4023
 1003MOL0     H35352   4.556   9.220   1.019 -2.7716  3.3343  1.2154
 1003MOL0     H35353   4.607   9.371   0.933 -0.1753  0.7213  2.6582
 1003MOL0     H35354   4.776   9.106   0.909  1.3647  0.8775 -0.3924
 1003MOL0     H35355   4.795   9.255   0.824  0.0452  2.8172  3.2698
 1003MOL0     H35356   4.593   9.303   0.631  1.8995 -0.4434 -0.4006
 1003MOL0     H35357   4.425   9.106   0.429  2.8590  1.3895  1.8238
 1003MOL0     H35358   4.297   9.047   0.532 -2.8157  2.8050  0.9253
 1003MOL0     H35359   4.214   9.257   0.441  0.3557  3.7551 -0.3136
 1003MOL0     H35360   4.366   9.340   0.476 -0.1496 -0.8401 -0.2679
 1003MOL0     H35361   4.299   9.341   0.712 -0.3894  1.4586 -0.9196
 1003MOL0     H35362   4.171   9.208   0.685 -2.9485  1.7230  1.0523
 1003MOL0     H35363   4.098   9.455   0.709 -1.3124 -0.5348 -0.6904
 1003MOL0     H35364   4.028   9.341   0.595 -0.1941  0.3363 -0.3635
 1003MOL0     H35365   4.199   9.541   0.283 -0.1734 -4.3675  0.6905
 1003MOL0     H35366   4.166   9.605   0.055 -0.1790 -0.1928 -2.7541
 1003MOL0     H35367   4.001   9.585  -0.013 -1.3505 -1.2529  1.0793
 1003MOL0     H35368   4.060   9.743   0.035  3.3319  0.0738 -0.3203
 1003MOL0     H35369   3.411   9.701   0.276  1.2673  1.1386  0.2022
 1003MOL0     H35370   3.219   9.809   0.206  0.9773 -0.5089 -0.6250
 1003MOL0     H35371   3.192   9.918  -0.149  0.2669  2.2535 -1.3576
 1003MOL0     H35372   3.101   9.849  -0.009  2.7536  0.3898  1.4915
 1003MOL0     H35373   2.965  10.070  -0.010 -0.0230 -0.5689  0.3782
 1003MOL0     H35374   3.062  10.123  -0.149  1.9699 -1.3072 -0.8962
 1003MOL0     H35375   2.920   9.859  -0.163 -1.1819  0.1796 -0.0179
 1003MOL0     H35376   2.968   9.977  -0.303 -2.9612  1.4921 -1.8650
 1003MOL0     H35377   2.761  10.009  -0.097 -0.0397  0.9102  0.3240
 1003MOL0     H35378   2.787  10.123  -0.226  3.0223  0.0616  1.3311
 1003MOL0     H35379   2.687   9.837  -0.272 -2.6453  0.9623  1.5982
 1003MOL0     H35380   2.704   9.962  -0.399 -1.7952 -0.1178  0.6987
 1003MOL0     H35381   2.543   9.994  -0.154  1.1063 -0.7110  0.3208
 1003MOL0     H35382   2.527  10.095  -0.307 -1.9127 -0.4927 -1.1536
 1003MOL0     H35383   2.345   9.919  -0.268 -1.3627 -1.8810  0.2035
 1003MOL0     H35384   2.478   9.796  -0.297  2.4949  1.3258 -1.4655
 1003MOL0     H35385   2.520   9.869  -0.523 -1.0226  0.5060 -2.0234
 1003MOL0     H35386   2.414  10.003  -0.517 -2.3292 -0.0942 -1.0389
 1003MOL0     H35387   3.471  10.094  -0.017 -3.6877  1.6140  0.0565
 1003MOL0     H35388   3.654   9.978   0.050 -0.4861  0.6254  0.3399
 1003MOL0     H35389   3.735   9.653   0.423  1.6951  4.3403  2.7995
 1003MOL0     H35390   3.891   9.557   0.575  1.8959  0.0311 -0.0422
 1003MOL0     H35391   4.553  10.054   0.671  0.6189 -0.7552 -1.8291
 1003MOL0     H35392   4.313  10.117   0.614 -2.4322 -0.8637 -4.2685
 1003MOL0     H35393   3.854  10.101   0.857  2.3947  2.5257 -0.7225
 1003MOL0     H35394   3.611  10.165   0.798 -0.1760 -2.7349  3.1588
 1003MOL0     H35395   3.384   9.946   0.585 -0.8342 -1.3988  2.9604
 1003MOL0     H35396   3.384  10.040   0.734  0.8285 -1.4660 -0.0340
 1003MOL0     H35397   3.220  10.185   0.666 -0.1539 -1.7219  1.6459
 1003MOL0     H35398   3.171  10.027   0.597  2.2271 -2.0879 -1.4963
 1003MOL0     H35399   3.298  10.100   0.379 -3.3783 -0.4359 -0.7572
 1003MOL0     H35400   3.324  10.256   0.454  2.9599 -1.5227  1.5892
 1003MOL0     H35401   3.089  10.137   0.307  2.7212 -0.1424 -1.3328
 1003MOL0     H35402   3.128  10.316   0.319 -2.2041 -0.1302 -0.8782
 1003MOL0     H35403   2.857  10.261   0.637  0.2590  1.8025 -0.4294
 1003MOL0     H35404   3.622   9.997   0.421 -2.2672  0.2504  0.9528
 1003MOL0     H35405   3.880   9.916   0.465  3.1962 -1.1236  2.5450
 1004MOL0     O35406   4.358   8.462   5.373  0.7747 -0.9881  0.1067
 1004MOL0     C35407   4.407   8.486   5.480 -0.1364  0.1528  0.1385
 1004MOL0     O35408   4.343   8.510   5.596  0.2094 -0.2151  0.5838
 1004MOL0     C35409   4.208   8.542   5.576 -0.7760  0.4019 -0.5493
 1004MOL0     C35410   4.107   8.453   5.613 -0.4964  0.2596  0.4373
 1004MOL0     C35411   3.967   8.487   5.593  0.3949 -0.1749  0.5515
 1004MOL0     C35412   3.932   8.616   5.543  0.4277 -0.4404 -1.0813
 1004MOL0     O35413   3.799   8.659   5.530  0.1877 -0.2712  0.3918
 1004MOL0     C35414   3.694   8.563   5.507  0.2021 -0.5235  0.4096
 1004MOL0     C35415   3.552   8.631   5.487  0.4041  0.3885 -0.1479
 1004MOL0     C35416   3.552   8.721   5.361  0.5531 -0.7586 -1.0285
 1004MOL0     C35417   3.414   8.804   5.357 -0.9008  1.2501  0.9974
 1004MOL0     C35418   3.284   8.720   5.347 -0.2979 -0.3631 -0.2788
 1004MOL0     C35419   3.166   8.805   5.309  0.0451  0.3386  0.5593
 1004MOL0     C35420   3.036   8.725   5.293  0.3749  0.1702 -0.0998
 1004MOL0     C35421   2.919   8.813   5.244  0.3891 -0.1571  0.3053
 1004MOL0     N35422   2.793   8.742   5.246 -0.3695 -0.4166  0.3714
 1004MOL0     C35423   2.717   8.716   5.360  0.6465 -0.6318  1.0450
 1004MOL0     C35424   2.604   8.655   5.301  0.3969 -0.0315  1.0146
 1004MOL0     C35425   2.488   8.603   5.376  0.0971  0.8092 -0.1691
 1004MOL0     C35426   2.366   8.565   5.300  1.4041 -0.9520  0.3233
 1004MOL0     C35427   2.247   8.528   5.393 -0.0126 -0.8370 -0.4502
 1004MOL0     C35428   2.165   8.644   5.457 -0.2975 -0.6266  0.4205
 1004MOL0     O35429   2.078   8.588   5.550 -0.1336  0.1924 -0.7812
 1004MOL0     C35430   1.949   8.556   5.522  0.0335  0.4743 -0.1053
 1004MOL0     C35431   1.862   8.528   5.628  0.0355  0.0720 -0.6202
 1004MOL0     C35432   1.723   8.500   5.610  0.1939 -0.5873  0.0117
 1004MOL0     C35433   1.632   8.483   5.732 -0.3258  0.6341  0.0212
 1004MOL0     C35434   1.668   8.492   5.473 -0.6718 -0.0858  0.0312
 1004MOL0     C35435   1.524   8.449   5.439  0.0565 -0.4720  0.6573
 1004MOL0     O35436   1.502   8.466   5.303 -0.3672  0.3594 -0.7208
 1004MOL0     C35437   1.384   8.473   5.246  0.1431 -0.4923  0.0348
 1004MOL0     C35438   1.273   8.531   5.302  0.4631 -0.8776  0.9452
 1004MOL0     C35439   1.151   8.523   5.232 -0.4360 -0.2302 -0.0523
 1004MOL0     C35440   1.139   8.483   5.098 -0.0835  0.1874  0.0357
 1004MOL0     O35441   1.018   8.492   5.041 -0.3003 -0.2391  0.0527
 1004MOL0     C35442   1.001   8.472   4.905 -0.5356  0.1332  0.1623
 1004MOL0     C35443   0.868   8.528   4.872 -0.1994  0.0635 -0.2399
 1004MOL0     C35444   0.819   8.463   4.743 -0.5247  0.2406 -1.2704
 1004MOL0     C35445   0.680   8.506   4.699  0.3287 -0.6480  0.4017
 1004MOL0     C35446   0.626   8.438   4.570 -1.1634  0.0510 -0.0098
 1004MOL0     C35447   0.489   8.367   4.600  0.1152  0.4234 -0.8450
 1004MOL0     C35448   0.501   8.242   4.682 -0.1461 -0.2130 -1.1176
 1004MOL0     C35449   0.392   8.135   4.643 -0.4116 -0.4328 -0.3118
 1004MOL0    Cl35450   0.237   8.196   4.690 -0.0869  0.3050  0.2739
 1004MOL0     C35451   1.255   8.431   5.036 -0.3553  1.0555  0.3119
 1004MOL0     C35452   1.376   8.430   5.110  0.4249 -0.0527  0.1594
 1004MOL0     O35453   1.446   8.400   5.522 -0.0054  0.0479  0.2519
 1004MOL0     C35454   1.760   8.530   5.373 -0.7817  0.5641  0.4110
 1004MOL0     C35455   1.895   8.562   5.393 -0.7159 -0.7990 -0.5032
 1004MOL0     N35456   2.609   8.661   5.166 -0.3336 -0.0578  0.1208
 1004MOL0     N35457   2.724   8.711   5.132  0.1785  0.0617  0.1858
 1004MOL0     C35458   4.028   8.704   5.522 -1.4705  0.1246 -0.6559
 1004MOL0     C35459   4.168   8.675   5.534 -0.0529  0.6599 -1.1088
 1004MOL0     C35460   4.551   8.484   5.490 -0.0311  0.9336  0.0345
 1004MOL0     C35461   4.626   8.478   5.371  0.0786 -0.6748 -0.7300
 1004MOL0     C35462   4.766   8.480   5.376  0.5543  0.7797 -0.7468
 1004MOL0     C35463   4.833   8.490   5.503 -0.3650 -0.2129  0.2883
 1004MOL0     O35464   4.972   8.499   5.519 -0.2955 -0.2070  0.0133
 1004MOL0     C35465   5.065   8.476   5.410  0.6278  0.4187 -0.6584
 1004MOL0     C35466   5.205   8.469   5.459 -0.8992  0.0329  0.3997
 1004MOL0     C35467   5.244   8.358   5.554 -0.3940  0.2463  0.0987
 1004MOL0     C35468   5.395   8.335   5.579 -0.1083  0.0428  0.3023
 1004MOL0     C35469   5.445   8.214   5.518 -0.4620  0.2331 -0.0009
 1004MOL0     C35470   5.503   8.115   5.479 -0.7580  0.1944  0.1297
 1004MOL0     C35471   4.761   8.493   5.622 -0.1372  0.1841 -0.3851
 1004MOL0     C35472   4.619   8.487   5.618 -0.0233 -0.5722  0.7956
 1004MOL0     H35473   4.142   8.358   5.653  3.2172  0.2612 -2.2664
 1004MOL0     H35474   3.895   8.408   5.609 -0.1404  0.6596  2.5325
 1004MOL0     H35475   3.717   8.524   5.407 -0.9743  0.4991 -0.2908
 1004MOL0     H35476   3.692   8.480   5.579  0.9061 -0.9617 -0.0674
 1004MOL0     H35477   3.468   8.562   5.474 -0.4876  1.4548 -0.1912
 1004MOL0     H35478   3.530   8.686   5.579 -2.1135 -2.0893  0.8945
 1004MOL0     H35479   3.622   8.802   5.386  0.5029 -0.6976 -1.0863
 1004MOL0     H35480   3.565   8.663   5.269 -1.6116 -3.2152  0.1003
 1004MOL0     H35481   3.413   8.856   5.453  3.1705  0.2047  1.7858
 1004MOL0     H35482   3.426   8.873   5.273  4.3207 -2.0447 -1.4720
 1004MOL0     H35483   3.289   8.633   5.281 -1.1902 -0.6513  0.0055
 1004MOL0     H35484   3.258   8.671   5.442 -0.0775 -3.0779 -1.5251
 1004MOL0     H35485   3.153   8.879   5.389  0.3989  0.2115  0.7373
 1004MOL0     H35486   3.185   8.857   5.215  2.8515 -1.2363  0.1594
 1004MOL0     H35487   3.043   8.646   5.218  3.9473  0.5814 -0.3746
 1004MOL0     H35488   3.009   8.680   5.389  2.3884  1.3847  1.1157
 1004MOL0     H35489   2.938   8.843   5.140 -0.3714 -1.3329 -0.2040
 1004MOL0     H35490   2.902   8.910   5.292  2.0765 -0.5381  1.7743
 1004MOL0     H35491   2.735   8.745   5.463 -2.3118  3.4500  0.6440
 1004MOL0     H35492   2.530   8.513   5.422 -0.6749  0.5192 -0.0133
 1004MOL0     H35493   2.479   8.681   5.452  1.2845  1.6014 -0.8228
 1004MOL0     H35494   2.385   8.471   5.248  0.4695 -0.6773 -0.5512
 1004MOL0     H35495   2.337   8.640   5.225  3.6289  0.0732  0.4046
 1004MOL0     H35496   2.285   8.470   5.478 -0.6997 -0.2801  0.2478
 1004MOL0     H35497   2.172   8.480   5.330 -1.3529  0.3772  0.1663
 1004MOL0     H35498   2.107   8.701   5.384  1.9556 -0.3479 -1.2778
 1004MOL0     H35499   2.241   8.718   5.486 -1.2957  2.0313 -2.9850
 1004MOL0     H35500   1.902   8.532   5.729 -1.6464 -0.8571  0.1304
 1004MOL0     H35501   1.679   8.502   5.829 -3.0703  2.1320  1.1776
 1004MOL0     H35502   1.546   8.549   5.734  0.2907  1.4338  1.6637
 1004MOL0     H35503   1.604   8.377   5.729  0.4465  0.4176  0.0969
 1004MOL0     H35504   1.268   8.563   5.406 -0.9693  1.3720  0.2457
 1004MOL0     H35505   1.056   8.557   5.273 -0.0913 -0.7646  1.2336
 1004MOL0     H35506   1.088   8.513   4.853  0.0410 -0.4431  0.6525
 1004MOL0     H35507   1.001   8.364   4.890 -0.4436  0.2853 -0.9671
 1004MOL0     H35508   0.787   8.504   4.941  0.6499 -1.1497  0.3738
 1004MOL0     H35509   0.885   8.635   4.863  0.6752  0.3859  3.6590
 1004MOL0     H35510   0.824   8.354   4.754 -1.1065  0.2431 -0.9074
 1004MOL0     H35511   0.891   8.483   4.663 -1.3980 -0.3905 -2.2410
 1004MOL0     H35512   0.609   8.485   4.780 -0.3021 -0.3900 -0.0790
 1004MOL0     H35513   0.674   8.614   4.682 -0.5227 -0.6521  0.6380
 1004MOL0     H35514   0.701   8.371   4.527 -1.5202 -0.1246 -0.3648
 1004MOL0     H35515   0.615   8.518   4.496  2.3693  0.4334 -0.2948
 1004MOL0     H35516   0.417   8.436   4.645  1.8020  2.9599 -1.8067
 1004MOL0     H35517   0.445   8.346   4.502 -0.8880 -1.3889 -0.0548
 1004MOL0     H35518   0.498   8.265   4.789  1.6346 -0.6375 -0.9444
 1004MOL0     H35519   0.596   8.196   4.655 -0.3920 -0.8428 -0.9344
 1004MOL0     H35520   0.417   8.039   4.688 -1.3097 -0.0061  1.1840
 1004MOL0     H35521   0.402   8.134   4.534  0.9000  0.6806 -0.2379
 1004MOL0     H35522   1.242   8.398   4.933 -2.5378  1.3379  0.4494
 1004MOL0     H35523   1.471   8.390   5.073 -1.6814 -2.4515 -3.2624
 1004MOL0     H35524   1.721   8.537   5.272  0.2617 -2.2438 -0.3054
 1004MOL0     H35525   1.941   8.593   5.300 -3.1342  1.1683 -1.1627
 1004MOL0     H35526   4.001   8.800   5.482 -1.3251  1.6863  2.6272
 1004MOL0     H35527   4.244   8.751   5.518 -0.1052  0.3373 -3.0441
 1004MOL0     H35528   4.582   8.457   5.274 -1.1185 -1.5248 -0.0398
 1004MOL0     H35529   4.827   8.457   5.289  0.3741 -0.0484 -0.6581
 1004MOL0     H35530   5.035   8.387   5.355  0.7015 -1.0315  1.5345
 1004MOL0     H35531   5.069   8.567   5.348 -0.5964  3.9255  3.8582
 1004MOL0     H35532   5.230   8.562   5.512  2.9745  1.0480 -2.6905
 1004MOL0     H35533   5.275   8.465   5.375 -1.4874  0.4003 -0.1141
 1004MOL0     H35534   5.197   8.266   5.519 -0.5778  0.3198  0.1507
 1004MOL0     H35535   5.190   8.395   5.642 -0.9417  0.4134 -0.3004
 1004MOL0     H35536   5.413   8.336   5.687 -1.3130  0.7929  0.5138
 1004MOL0     H35537   5.444   8.421   5.532 -2.4119  1.7873  0.9117
 1004MOL0     H35538   5.556   8.032   5.438 -0.2397 -0.9778  2.9706
 1004MOL0     H35539   4.812   8.497   5.718 -0.9851 -0.3198  0.0955
 1004MOL0     H35540   4.572   8.478   5.716  1.4847  0.7582  1.6737
 1005MOL0     O35541   9.006   0.807   5.402  0.3640  0.5528 -0.2527
 1005MOL0     C35542   9.034   0.927   5.404 -0.5902  0.5402 -0.8886
 1005MOL0     O35543   8.946   1.031   5.426  0.8415  0.3088  0.0560
 1005MOL0     C35544   8.811   1.004   5.449  0.1152 -0.0456  0.8863
 1005MOL0     C35545   8.738   1.071   5.554 -0.6408  0.0679  0.4021
 1005MOL0     C35546   8.609   1.039   5.595 -0.7609  0.0988  0.3832
 1005MOL0     C35547   8.537   0.948   5.515 -0.0309  0.0732  0.1238
 1005MOL0     O35548   8.404   0.948   5.561  0.1020  0.4660  0.7604
 1005MOL0     C35549   8.302   0.883   5.481 -0.1066 -0.8512 -0.1324
 1005MOL0     C35550   8.169   0.901   5.546  0.0230  0.0749  0.8095
 1005MOL0     C35551   8.067   0.919   5.437  0.8039  0.5774  0.0230
 1005MOL0     C35552   7.926   0.928   5.490  0.0014 -0.3527 -0.0298
 1005MOL0     C35553   7.817   0.948   5.380 -0.4720  0.1736  0.5356
 1005MOL0     C35554   7.681   0.954   5.433  0.0500  0.0829  0.1651
 1005MOL0     C35555   7.577   0.963   5.324  0.1220  0.8083  0.1022
 1005MOL0     C35556   7.546   0.825   5.265  0.6105 -0.0328 -0.0731
 1005MOL0     N35557   7.435   0.836   5.167 -0.1041 -0.6498  0.8456
 1005MOL0     C35558   7.435   0.807   5.028  1.1405  0.4468 -0.5244
 1005MOL0     C35559   7.305   0.794   4.993  0.1591  0.0865 -0.1801
 1005MOL0     C35560   7.238   0.773   4.859  0.7085  0.6966 -0.4745
 1005MOL0     C35561   7.088   0.815   4.844 -0.3337 -0.5419  0.9031
 1005MOL0     C35562   6.991   0.715   4.912 -0.7252 -0.5263  1.0534
 1005MOL0     C35563   6.849   0.750   4.881 -0.5861  0.2758  0.0651
 1005MOL0     O35564   6.756   0.676   4.967 -0.2970 -0.4651 -0.0641
 1005MOL0     C35565   6.624   0.711   4.972 -0.3352  0.4090  0.2725
 1005MOL0     C35566   6.540   0.662   5.071  0.3590 -0.0953  0.5604
 1005MOL0     C35567   6.403   0.701   5.079 -1.0916  0.4190 -0.5332
 1005MOL0     C35568   6.327   0.637   5.198  0.7914  0.1094 -0.0081
 1005MOL0     C35569   6.347   0.791   4.991  0.0643 -0.3990  0.1286
 1005MOL0     C35570   6.203   0.850   5.002  0.6412  0.6202  0.1435
 1005MOL0     O35571   6.098   0.782   5.062  0.9274  0.8174 -0.1769
 1005MOL0     C35572   5.974   0.844   5.065  0.2371 -0.8693  0.4079
 1005MOL0     C35573   5.896   0.842   4.950 -0.4210  0.5837  0.4658
 1005MOL0     C35574   5.772   0.905   4.945 -0.6800 -0.1731 -0.8799
 1005MOL0     C35575   5.725   0.971   5.063  0.5722  0.6930  0.3490
 1005MOL0     O35576   5.597   1.026   5.062 -0.3392 -0.1755 -0.0569
 1005MOL0     C35577   5.527   1.060   5.184 -0.0668  0.1648  0.4839
 1005MOL0     C35578   5.386   1.110   5.145  0.4084 -0.3574 -0.1532
 1005MOL0     C35579   5.283   1.002   5.115  0.5540 -0.5441  0.7893
 1005MOL0     C35580   5.240   0.918   5.237 -0.8452 -0.9806  0.2589
 1005MOL0     C35581   5.145   0.801   5.209  0.9360  0.0173  0.1646
 1005MOL0     C35582   5.028   0.847   5.128  1.0899  0.4689  0.4096
 1005MOL0     C35583   4.946   0.944   5.203  0.5248 -0.0887 -0.0009
 1005MOL0     C35584   4.801   0.941   5.167  0.2413  0.4691  0.0904
 1005MOL0    Cl35585   4.727   0.783   5.223  0.3610 -0.1672  0.0811
 1005MOL0     C35586   5.810   0.989   5.169 -0.0695  0.6415  0.0166
 1005MOL0     C35587   5.933   0.917   5.179  0.5806  0.8347  0.1991
 1005MOL0     O35588   6.180   0.951   4.933 -0.2050 -0.3160 -0.2914
 1005MOL0     C35589   6.433   0.850   4.896  0.5782 -0.1829  0.0698
 1005MOL0     C35590   6.566   0.810   4.882  0.1089  0.2441 -0.9602
 1005MOL0     N35591   7.229   0.803   5.112  0.5353 -0.4861  0.8922
 1005MOL0     N35592   7.308   0.821   5.211  0.5075  0.1092 -0.1469
 1005MOL0     C35593   8.596   0.891   5.400 -0.7528  0.8202  0.3310
 1005MOL0     C35594   8.726   0.915   5.368 -0.8179  0.0575 -0.6989
 1005MOL0     C35595   9.183   0.964   5.394 -0.7451  0.0113  0.3029
 1005MOL0     C35596   9.274   0.868   5.355 -0.3111  0.1761  0.4194
 1005MOL0     C35597   9.410   0.896   5.341 -0.4924  0.4279  0.2480
 1005MOL0     C35598   9.450   1.021   5.362  0.9729 -0.1765 -0.3992
 1005MOL0     O35599   9.587   1.049   5.357  0.0424  0.2972 -0.6010
 1005MOL0     C35600   9.635   1.132   5.464 -0.0668  0.4179 -0.7008
 1005MOL0     C35601   9.743   1.058   5.543 -0.1033  0.4540 -0.4739
 1005MOL0     C35602   9.808   1.147   5.656  0.1398 -0.3577  0.5532
 1005MOL0     C35603   9.887   1.059   5.747 -1.1314  0.6251 -0.2812
 1005MOL0     C35604   9.996   0.990   5.672  0.1431  0.4378  0.0744
 1005MOL0     C35605  10.088   0.937   5.612  0.0275  1.1638 -0.2329
 1005MOL0     C35606   9.356   1.124   5.392 -0.7506  0.3399 -0.3072
 1005MOL0     C35607   9.228   1.092   5.411  0.8470 -0.0081  0.1713
 1005MOL0     H35608   8.776   1.162   5.600 -2.6086  0.1580  1.9612
 1005MOL0     H35609   8.555   1.089   5.675  0.9305  0.5509  1.2701
 1005MOL0     H35610   8.303   0.927   5.380  0.6849  2.4656  1.1720
 1005MOL0     H35611   8.319   0.777   5.461  1.1170 -0.7752  0.4103
 1005MOL0     H35612   8.140   0.827   5.622 -0.4608  0.7984  1.3508
 1005MOL0     H35613   8.184   0.997   5.597 -1.2031 -0.0316  1.4068
 1005MOL0     H35614   8.096   1.013   5.388  1.2881  0.0276 -0.7607
 1005MOL0     H35615   8.064   0.834   5.369 -0.5877  1.3250 -0.9150
 1005MOL0     H35616   7.902   0.835   5.542 -1.2484  0.4017  0.7709
 1005MOL0     H35617   7.923   1.010   5.562  0.6226 -0.9318  0.6744
 1005MOL0     H35618   7.851   1.032   5.319  1.9120 -0.9900  0.1485
 1005MOL0     H35619   7.826   0.863   5.312  2.1740  0.5611  0.3036
 1005MOL0     H35620   7.649   0.869   5.493 -2.3154 -1.0733 -2.4829
 1005MOL0     H35621   7.678   1.045   5.495  2.4928  0.8262 -0.6993
 1005MOL0     H35622   7.489   1.007   5.372  0.7203  1.4874  0.6162
 1005MOL0     H35623   7.611   1.031   5.245  4.2137 -2.2434 -1.1049
 1005MOL0     H35624   7.516   0.765   5.352 -0.3962  0.9610  0.2876
 1005MOL0     H35625   7.631   0.776   5.217 -1.5518 -2.5798 -1.6281
 1005MOL0     H35626   7.518   0.807   4.958  2.3151  0.1097  0.8474
 1005MOL0     H35627   7.296   0.802   4.771 -0.3529  0.6200 -1.2274
 1005MOL0     H35628   7.225   0.664   4.850  0.0406  0.4397  2.5529
 1005MOL0     H35629   7.072   0.800   4.737 -1.6210 -0.6862  1.1027
 1005MOL0     H35630   7.086   0.920   4.876 -0.6059 -0.7349  1.5175
 1005MOL0     H35631   6.998   0.724   5.021 -0.3421 -1.9438  1.1621
 1005MOL0     H35632   7.008   0.613   4.877  0.7621  0.3658 -0.9916
 1005MOL0     H35633   6.824   0.744   4.774 -0.6168 -0.4741  0.1046
 1005MOL0     H35634   6.831   0.854   4.908 -0.1361 -0.3723  3.1750
 1005MOL0     H35635   6.589   0.592   5.138  0.2519 -1.9299 -1.1634
 1005MOL0     H35636   6.322   0.717   5.272 -0.1640  0.5426 -0.5234
 1005MOL0     H35637   6.220   0.621   5.183 -0.2235  1.7734  4.1580
 1005MOL0     H35638   6.366   0.540   5.231 -0.7476  0.2755  2.5629
 1005MOL0     H35639   5.934   0.788   4.864 -1.9715 -0.9247  0.6886
 1005MOL0     H35640   5.724   0.912   4.848  0.0151  0.4594 -1.1929
 1005MOL0     H35641   5.527   0.964   5.236  2.5192 -0.3028 -0.2302
 1005MOL0     H35642   5.578   1.136   5.244  1.4468 -1.7327  1.6840
 1005MOL0     H35643   5.351   1.180   5.221 -0.0645 -0.2910 -0.4242
 1005MOL0     H35644   5.387   1.173   5.056 -1.9131 -2.1500 -1.5876
 1005MOL0     H35645   5.327   0.939   5.036  1.1789 -2.9023  2.8972
 1005MOL0     H35646   5.200   1.059   5.073 -0.1151 -3.2738 -1.9816
 1005MOL0     H35647   5.333   0.880   5.279 -0.3392 -1.5689 -1.3189
 1005MOL0     H35648   5.204   0.988   5.313 -1.2687 -0.5040 -0.3693
 1005MOL0     H35649   5.112   0.744   5.297  0.9820  1.5944  1.2347
 1005MOL0     H35650   5.203   0.731   5.148  0.5215 -0.8124  0.6988
 1005MOL0     H35651   5.061   0.894   5.035  1.9632  1.2035  1.0718
 1005MOL0     H35652   4.977   0.758   5.090  1.7032 -0.5381  1.8312
 1005MOL0     H35653   4.983   1.044   5.177 -0.4410 -0.1655 -1.8439
 1005MOL0     H35654   4.963   0.924   5.309 -1.9005 -1.5705  0.1835
 1005MOL0     H35655   4.788   0.954   5.059 -0.1282  1.5783  0.2523
 1005MOL0     H35656   4.749   1.031   5.201  2.4229  1.4178  1.1248
 1005MOL0     H35657   5.786   1.057   5.250  1.5821 -0.2616  1.3334
 1005MOL0     H35658   5.994   0.917   5.269  0.4941  0.7204  0.2580
 1005MOL0     H35659   6.388   0.922   4.828 -2.2061 -2.5940 -0.8492
 1005MOL0     H35660   6.615   0.848   4.794 -1.2044 -1.4254 -2.4892
 1005MOL0     H35661   8.528   0.829   5.342 -0.2398  0.2215  0.3564
 1005MOL0     H35662   8.774   0.855   5.291  1.3659 -0.9609  1.3114
 1005MOL0     H35663   9.243   0.768   5.328  2.3398 -1.2344  2.1475
 1005MOL0     H35664   9.483   0.820   5.315  2.3687  2.8195  0.7675
 1005MOL0     H35665   9.675   1.224   5.421 -0.1337  0.0712 -1.5048
 1005MOL0     H35666   9.548   1.151   5.528 -1.1675 -2.0005 -1.3812
 1005MOL0     H35667   9.818   1.021   5.472 -1.2104 -1.4700 -0.7044
 1005MOL0     H35668   9.703   0.969   5.593  1.1587  0.6589  0.9706
 1005MOL0     H35669   9.742   1.212   5.714 -0.6652  0.5560 -1.2962
 1005MOL0     H35670   9.869   1.227   5.612 -1.7938  1.1048  0.4200
 1005MOL0     H35671   9.824   0.992   5.807 -0.3141  0.3163  0.2600
 1005MOL0     H35672   9.934   1.125   5.821  1.6695 -0.5033 -0.9110
 1005MOL0     H35673  10.174   0.908   5.555  1.2140  3.9014 -0.0269
 1005MOL0     H35674   9.392   1.226   5.392  0.0666  0.1283 -2.8771
 1005MOL0     H35675   9.148   1.162   5.432  0.0685 -1.1205  1.0400
 1006MOL0     O35676   6.617   6.150   3.829 -0.3136 -0.1037  0.1146
 1006MOL0     C35677   6.677   6.044   3.839  0.6240  0.2106  0.1997
 1006MOL0     O35678   6.621   5.920   3.841 -0.0810 -0.5227  0.5690
 1006MOL0     C35679   6.483   5.910   3.847 -0.2529  0.3821 -0.5953
 1006MOL0     C35680   6.415   5.909   3.968 -0.7246 -0.1633 -0.1549
 1006MOL0     C35681   6.277   5.900   3.981  0.8395 -0.0272 -0.4928
 1006MOL0     C35682   6.201   5.882   3.866  0.3878 -0.1886 -0.1168
 1006MOL0     O35683   6.067   5.879   3.892  0.0230  0.2328  0.2785
 1006MOL0     C35684   5.983   5.847   3.787 -0.2062  0.2989  0.4358
 1006MOL0     C35685   5.843   5.802   3.843 -0.2885  0.3899 -0.0609
 1006MOL0     C35686   5.827   5.651   3.821 -0.3619 -0.2090  0.1661
 1006MOL0     C35687   5.702   5.602   3.902  0.9981  0.7152  0.2983
 1006MOL0     C35688   5.694   5.451   3.919  1.0583  0.3452  0.4282
 1006MOL0     C35689   5.653   5.388   3.781  0.1296  0.7048  0.2150
 1006MOL0     C35690   5.656   5.234   3.788 -0.4561 -0.7124  1.4101
 1006MOL0     C35691   5.623   5.168   3.654  0.7556 -0.0445  0.4054
 1006MOL0     N35692   5.493   5.212   3.598 -0.6445  0.1055 -0.2245
 1006MOL0     C35693   5.370   5.220   3.655  0.0787 -0.0455 -1.0164
 1006MOL0     C35694   5.288   5.269   3.558  0.8895 -0.2450 -1.0737
 1006MOL0     C35695   5.144   5.301   3.562 -0.4752  0.1333 -0.5227
 1006MOL0     C35696   5.070   5.278   3.427 -0.2700 -0.2024  0.2270
 1006MOL0     C35697   4.921   5.244   3.444 -0.5227  1.1275  0.2418
 1006MOL0     C35698   4.852   5.338   3.542  0.6650  0.6763 -0.1371
 1006MOL0     O35699   4.729   5.268   3.586 -0.2547 -0.0200  0.5514
 1006MOL0     C35700   4.631   5.343   3.639 -0.3973  0.9095  0.1269
 1006MOL0     C35701   4.650   5.472   3.689  0.4749 -0.0261 -0.4578
 1006MOL0     C35702   4.539   5.546   3.742  0.5668  0.0710  0.1877
 1006MOL0     C35703   4.553   5.690   3.778  0.7571  0.1967  0.2846
 1006MOL0     C35704   4.408   5.487   3.744 -0.7599  0.0651 -0.1356
 1006MOL0     C35705   4.297   5.551   3.817  0.7536  0.3417  0.1471
 1006MOL0     O35706   4.255   5.498   3.935  0.0518 -0.0432 -0.9494
 1006MOL0     C35707   4.137   5.553   3.994  0.1797 -0.0458 -0.2395
 1006MOL0     C35708   4.023   5.460   4.005 -0.1328 -0.5475  0.3536
 1006MOL0     C35709   3.906   5.504   4.058 -0.7624  0.4064  0.4341
 1006MOL0     C35710   3.897   5.634   4.107  1.0090 -1.0399  0.8108
 1006MOL0     O35711   3.779   5.663   4.167 -0.4933 -0.7979  0.0531
 1006MOL0     C35712   3.771   5.765   4.274  0.3209 -0.0367  0.2538
 1006MOL0     C35713   3.621   5.790   4.305  0.5105  0.0273  0.5192
 1006MOL0     C35714   3.593   5.884   4.417  0.5762 -0.2399 -0.4583
 1006MOL0     C35715   3.625   5.821   4.558 -0.4239 -0.0290  0.1951
 1006MOL0     C35716   3.605   5.936   4.662 -1.1653  0.2870 -0.1660
 1006MOL0     C35717   3.669   5.885   4.796  1.0046 -1.5765 -0.3202
 1006MOL0     C35718   3.822   5.886   4.797 -0.8818  0.3945  0.3546
 1006MOL0     C35719   3.867   5.815   4.926 -0.0187  0.3848  0.4924
 1006MOL0    Cl35720   4.052   5.803   4.917  0.0720  0.2727 -0.0357
 1006MOL0     C35721   4.005   5.728   4.095  0.5783 -0.3095 -0.2810
 1006MOL0     C35722   4.127   5.688   4.036  0.5472 -0.3685  0.8443
 1006MOL0     O35723   4.243   5.644   3.763 -0.4026  0.3958  0.4674
 1006MOL0     C35724   4.392   5.351   3.711 -0.3835  0.7622 -0.5543
 1006MOL0     C35725   4.499   5.289   3.655 -0.1685  0.3101 -0.7222
 1006MOL0     N35726   5.366   5.294   3.445  0.8508  0.1945  0.3937
 1006MOL0     N35727   5.491   5.268   3.479 -0.1687 -0.5138  0.5486
 1006MOL0     C35728   6.263   5.875   3.740  0.3893 -0.3119  0.7729
 1006MOL0     C35729   6.404   5.901   3.731 -0.6483 -0.5661  0.4664
 1006MOL0     C35730   6.821   6.051   3.867 -0.0169  0.3452  0.0922
 1006MOL0     C35731   6.891   5.931   3.873 -0.5008 -0.5643  0.0228
 1006MOL0     C35732   7.030   5.934   3.887 -0.7581 -0.6681 -0.3954
 1006MOL0     C35733   7.102   6.054   3.892 -0.3775 -1.0484  0.4432
 1006MOL0     O35734   7.237   6.047   3.895 -0.4321  1.2465 -0.2857
 1006MOL0     C35735   7.315   6.160   3.861  0.1095 -0.6859  0.0518
 1006MOL0     C35736   7.339   6.149   3.718 -0.8545 -0.7541 -0.4570
 1006MOL0     C35737   7.455   6.240   3.674 -0.0883  0.2105 -0.0589
 1006MOL0     C35738   7.471   6.245   3.523  0.0271  0.0506 -0.4893
 1006MOL0     C35739   7.567   6.351   3.490 -0.0380 -0.3496 -0.6370
 1006MOL0     C35740   7.647   6.443   3.466  0.0825 -0.1150 -0.4074
 1006MOL0     C35741   7.026   6.171   3.900 -1.2386 -0.9767 -0.2046
 1006MOL0     C35742   6.885   6.172   3.886  0.2757  0.0888  0.3736
 1006MOL0     H35743   6.468   5.908   4.063 -0.0090  0.1607 -0.5478
 1006MOL0     H35744   6.229   5.925   4.075 -0.8465 -0.0552 -1.3006
 1006MOL0     H35745   5.959   5.934   3.726 -0.3156  1.1295  1.6230
 1006MOL0     H35746   6.019   5.772   3.716 -1.6088 -0.4724  0.5004
 1006MOL0     H35747   5.849   5.808   3.952  2.0449 -1.9541  0.0623
 1006MOL0     H35748   5.758   5.847   3.793 -0.0479 -0.4850 -1.3040
 1006MOL0     H35749   5.818   5.627   3.715 -0.4941 -0.0851  0.1484
 1006MOL0     H35750   5.915   5.602   3.863 -0.9601  1.2725  3.5552
 1006MOL0     H35751   5.717   5.645   4.002  0.7074 -1.2277  1.2140
 1006MOL0     H35752   5.610   5.628   3.849  0.2059 -3.1390 -0.5075
 1006MOL0     H35753   5.789   5.406   3.950  1.8072 -0.1882 -2.3154
 1006MOL0     H35754   5.614   5.430   3.991  0.6703 -0.7758 -0.3059
 1006MOL0     H35755   5.554   5.422   3.749  0.4214 -1.1059 -3.0941
 1006MOL0     H35756   5.718   5.412   3.697  0.7499 -0.2153  0.4230
 1006MOL0     H35757   5.760   5.214   3.815  0.6309  2.9221  0.4704
 1006MOL0     H35758   5.583   5.205   3.864 -0.8998 -0.8625  0.9301
 1006MOL0     H35759   5.608   5.060   3.661 -0.3540 -0.3744 -4.1937
 1006MOL0     H35760   5.696   5.186   3.574 -0.3917  0.8233 -0.4794
 1006MOL0     H35761   5.341   5.202   3.758  0.9082 -1.6624 -1.0384
 1006MOL0     H35762   5.104   5.234   3.639 -2.5267  0.9358 -0.8237
 1006MOL0     H35763   5.135   5.407   3.588 -3.1432 -0.3222  0.8036
 1006MOL0     H35764   5.116   5.197   3.370  2.6408 -0.5236  2.7907
 1006MOL0     H35765   5.082   5.362   3.358 -1.0108 -0.0818  0.2367
 1006MOL0     H35766   4.915   5.139   3.475  1.9696  0.4747 -1.2183
 1006MOL0     H35767   4.886   5.252   3.341  4.3797 -2.0280 -2.0581
 1006MOL0     H35768   4.824   5.433   3.497 -1.2255  1.9987  3.3998
 1006MOL0     H35769   4.906   5.362   3.634 -1.8478  1.9656  1.1299
 1006MOL0     H35770   4.745   5.524   3.689 -0.0689  1.1473 -3.6498
 1006MOL0     H35771   4.655   5.709   3.811  0.9043  0.3601 -0.2572
 1006MOL0     H35772   4.531   5.760   3.696 -0.7132 -0.0219  0.4704
 1006MOL0     H35773   4.479   5.722   3.852 -0.9888 -2.6401 -0.0746
 1006MOL0     H35774   4.033   5.361   3.961 -0.0497  1.2054 -4.0630
 1006MOL0     H35775   3.818   5.441   4.065 -1.3315  1.2191  0.7184
 1006MOL0     H35776   3.814   5.725   4.366 -0.1489 -1.2186 -0.0235
 1006MOL0     H35777   3.823   5.857   4.245  0.0819 -0.0910 -0.3646
 1006MOL0     H35778   3.585   5.838   4.213  1.1207  0.3518  0.4446
 1006MOL0     H35779   3.571   5.694   4.291 -0.8204  1.0594 -2.8875
 1006MOL0     H35780   3.485   5.903   4.413 -0.1713 -3.2073  1.9538
 1006MOL0     H35781   3.644   5.979   4.400  1.5079 -0.7332 -0.4765
 1006MOL0     H35782   3.556   5.738   4.578 -2.6811  1.4896 -0.8380
 1006MOL0     H35783   3.724   5.776   4.555  0.0671  1.0532 -0.2946
 1006MOL0     H35784   3.499   5.958   4.681 -2.1235 -4.5583  1.3304
 1006MOL0     H35785   3.656   6.028   4.633  2.9468 -1.4172  1.0185
 1006MOL0     H35786   3.632   5.956   4.871 -2.1858 -0.7677 -2.4569
 1006MOL0     H35787   3.626   5.789   4.823 -1.9118 -0.3872 -0.4179
 1006MOL0     H35788   3.852   5.991   4.784  0.3826 -0.2186 -2.3284
 1006MOL0     H35789   3.864   5.833   4.712 -0.8386 -0.9314  1.1785
 1006MOL0     H35790   3.821   5.716   4.924 -0.0171  0.3200 -3.1199
 1006MOL0     H35791   3.827   5.867   5.013  0.4403  1.3115  0.1761
 1006MOL0     H35792   4.003   5.833   4.123  2.0226  0.2381 -2.0262
 1006MOL0     H35793   4.199   5.767   4.017 -0.8468  0.4946 -1.3239
 1006MOL0     H35794   4.301   5.295   3.732  1.3568 -1.3651  2.0441
 1006MOL0     H35795   4.496   5.184   3.630  0.4759 -0.3957  1.8948
 1006MOL0     H35796   6.215   5.860   3.644  2.2722  0.1911 -0.2957
 1006MOL0     H35797   6.460   5.921   3.641  2.2517  0.8199  2.4207
 1006MOL0     H35798   6.852   5.830   3.862  3.2174 -2.3171  1.4493
 1006MOL0     H35799   7.083   5.840   3.899  1.9429  0.4171 -2.6292
 1006MOL0     H35800   7.273   6.259   3.882  0.9455  0.1805 -2.0511
 1006MOL0     H35801   7.408   6.152   3.919 -0.7400 -3.4304  1.1909
 1006MOL0     H35802   7.248   6.190   3.674 -0.2017 -0.7279 -1.8489
 1006MOL0     H35803   7.358   6.048   3.681 -2.1523 -0.7582 -1.1616
 1006MOL0     H35804   7.549   6.210   3.721 -0.1342  0.3617  0.1315
 1006MOL0     H35805   7.440   6.341   3.711 -1.0535  0.2132 -0.4271
 1006MOL0     H35806   7.381   6.268   3.465  0.2336 -0.6462 -1.1073
 1006MOL0     H35807   7.507   6.146   3.492  3.1422  1.5088 -2.0017
 1006MOL0     H35808   7.716   6.523   3.449 -0.7949  0.5415 -0.9774
 1006MOL0     H35809   7.068   6.270   3.917 -2.2617 -0.4422 -0.6936
 1006MOL0     H35810   6.836   6.269   3.892 -1.6929 -0.9010  1.3334
 1007MOL0     O35811   8.351   4.652   2.841  0.3011 -0.0006 -0.0736
 1007MOL0     C35812   8.458   4.598   2.825 -0.2164  1.1250 -0.2535
 1007MOL0     O35813   8.487   4.511   2.723  0.0485 -0.4849 -0.1610
 1007MOL0     C35814   8.385   4.476   2.637  0.4574  0.5790 -0.4865
 1007MOL0     C35815   8.398   4.499   2.505 -0.4718  1.1183  0.2959
 1007MOL0     C35816   8.299   4.447   2.409 -0.3401  0.6065 -0.0640
 1007MOL0     C35817   8.185   4.381   2.455  0.1063  0.7923 -1.3668
 1007MOL0     O35818   8.085   4.352   2.367 -0.4124 -0.1061  0.1908
 1007MOL0     C35819   8.008   4.237   2.404 -0.7858 -0.1833  1.5334
 1007MOL0     C35820   7.859   4.287   2.379 -0.1139  0.2761 -0.1797
 1007MOL0     C35821   7.749   4.175   2.387  0.1079  0.4909  0.0675
 1007MOL0     C35822   7.797   4.026   2.356  0.5832  0.5415 -0.1287
 1007MOL0     C35823   7.672   3.931   2.312  0.0281  0.3515  0.1036
 1007MOL0     C35824   7.705   3.779   2.321 -0.0545 -0.5816  0.7848
 1007MOL0     C35825   7.604   3.693   2.266  0.4536  0.2928 -0.1996
 1007MOL0     C35826   7.642   3.549   2.264 -0.8723  0.0309  0.8823
 1007MOL0     N35827   7.531   3.457   2.211 -0.1715 -0.3222  0.0842
 1007MOL0     C35828   7.508   3.437   2.080 -0.0596  0.2987  0.1428
 1007MOL0     C35829   7.413   3.330   2.085 -0.1213 -0.4521 -0.0664
 1007MOL0     C35830   7.347   3.280   1.965 -0.4703 -0.4738  0.2941
 1007MOL0     C35831   7.230   3.184   1.988  0.4310  0.1213 -0.7078
 1007MOL0     C35832   7.194   3.125   1.852  0.1500 -0.8199  0.0555
 1007MOL0     C35833   7.045   3.080   1.859 -0.2129 -0.2646 -0.0486
 1007MOL0     O35834   6.955   3.189   1.885 -0.1057 -0.2117 -0.0941
 1007MOL0     C35835   6.830   3.175   1.837  0.2218  0.0177 -0.0793
 1007MOL0     C35836   6.720   3.156   1.918  0.0749  0.5343 -0.0760
 1007MOL0     C35837   6.588   3.168   1.870 -0.1401  0.0973 -0.0160
 1007MOL0     C35838   6.477   3.136   1.970 -0.9453  0.3173 -0.1125
 1007MOL0     C35839   6.569   3.206   1.732  0.0911 -0.8594 -0.1273
 1007MOL0     C35840   6.432   3.236   1.682  1.1296 -0.0963 -0.5601
 1007MOL0     O35841   6.333   3.275   1.770 -0.0966 -1.1959 -0.3243
 1007MOL0     C35842   6.201   3.270   1.742 -0.1016 -0.3076  0.9124
 1007MOL0     C35843   6.139   3.153   1.698  0.2308 -0.3243  0.0094
 1007MOL0     C35844   6.008   3.158   1.659  0.0099 -0.3265 -0.2926
 1007MOL0     C35845   5.924   3.271   1.669 -0.6876 -0.5919 -0.2166
 1007MOL0     O35846   5.794   3.258   1.627 -0.4278  0.1085  0.5543
 1007MOL0     C35847   5.715   3.377   1.608 -0.1350 -0.0457 -0.1466
 1007MOL0     C35848   5.571   3.338   1.571 -0.6627 -0.7759 -1.3592
 1007MOL0     C35849   5.455   3.433   1.576  0.1827  0.4645 -0.2336
 1007MOL0     C35850   5.325   3.354   1.573 -0.0312 -0.4827  0.9598
 1007MOL0     C35851   5.214   3.454   1.581  0.1705  0.5520 -0.7232
 1007MOL0     C35852   5.078   3.372   1.560  0.4833  0.2433  1.0396
 1007MOL0     C35853   4.951   3.462   1.539  0.1086  0.8877  0.2341
 1007MOL0     C35854   4.879   3.510   1.666  1.2377 -0.0922  0.8050
 1007MOL0    Cl35855   4.753   3.399   1.715 -0.0412 -0.2269 -0.1918
 1007MOL0     C35856   5.987   3.386   1.727  1.1725 -0.5644  0.5426
 1007MOL0     C35857   6.120   3.390   1.749 -0.1576  0.2473  0.6661
 1007MOL0     O35858   6.411   3.209   1.558 -0.7317  0.7936 -0.1169
 1007MOL0     C35859   6.682   3.214   1.650  0.6495 -0.6441 -0.6023
 1007MOL0     C35860   6.811   3.202   1.706  0.9654 -0.1512  0.4230
 1007MOL0     N35861   7.377   3.307   2.218  0.0910  0.3357  0.1700
 1007MOL0     N35862   7.450   3.379   2.293  1.4085  0.2932  0.3056
 1007MOL0     C35863   8.173   4.368   2.597  0.2020 -0.2612 -1.1394
 1007MOL0     C35864   8.274   4.404   2.686 -0.6923 -0.2997  0.1656
 1007MOL0     C35865   8.573   4.634   2.910  0.2044 -0.0245  0.6651
 1007MOL0     C35866   8.561   4.748   2.989  0.1971 -0.6607  0.0312
 1007MOL0     C35867   8.662   4.785   3.073 -0.5394 -0.2582  0.6471
 1007MOL0     C35868   8.785   4.718   3.076 -0.0858 -0.3423  0.3146
 1007MOL0     O35869   8.876   4.752   3.172 -0.3147  0.9061  0.6608
 1007MOL0     C35870   9.012   4.740   3.108  0.4958 -0.5077  0.0705
 1007MOL0     C35871   9.127   4.820   3.186 -0.2359 -0.0318 -0.4758
 1007MOL0     C35872   9.129   4.779   3.336  0.5731 -0.1187  0.4742
 1007MOL0     C35873   9.155   4.635   3.361 -0.4799 -0.0963  0.4072
 1007MOL0     C35874   9.278   4.580   3.300 -0.0100  0.2366  0.2734
 1007MOL0     C35875   9.383   4.547   3.242 -0.1809  0.9936  0.4972
 1007MOL0     C35876   8.802   4.612   2.992  0.4970  0.0907  0.2015
 1007MOL0     C35877   8.694   4.560   2.917  0.5726 -0.1610 -0.6466
 1007MOL0     H35878   8.489   4.544   2.468  0.7486 -0.4321  1.2561
 1007MOL0     H35879   8.322   4.453   2.303 -0.8734  2.5327 -0.1044
 1007MOL0     H35880   8.046   4.158   2.337 -2.8074 -0.3236  0.4686
 1007MOL0     H35881   8.015   4.199   2.506 -0.0252 -0.5471  1.3502
 1007MOL0     H35882   7.836   4.358   2.459  1.3950  0.4212  0.1537
 1007MOL0     H35883   7.863   4.339   2.283  1.7129  2.3616  0.9422
 1007MOL0     H35884   7.697   4.181   2.483 -0.0465  0.4675 -0.0127
 1007MOL0     H35885   7.668   4.197   2.316 -1.0324  1.9596  1.7356
 1007MOL0     H35886   7.860   4.018   2.266 -1.3781  0.2197 -1.5444
 1007MOL0     H35887   7.846   3.989   2.446 -2.1445 -1.4471  0.6620
 1007MOL0     H35888   7.592   3.960   2.380  1.1036  2.7779  0.4253
 1007MOL0     H35889   7.644   3.957   2.210 -0.7137 -1.1807 -0.1059
 1007MOL0     H35890   7.804   3.766   2.276  1.1959 -1.5725  3.5814
 1007MOL0     H35891   7.718   3.758   2.428 -0.2127  0.8714  1.1181
 1007MOL0     H35892   7.516   3.715   2.328  0.9169 -2.3566  1.5743
 1007MOL0     H35893   7.580   3.716   2.162  0.7127 -1.7815 -0.7708
 1007MOL0     H35894   7.682   3.527   2.363  4.0242 -3.2108 -1.4398
 1007MOL0     H35895   7.731   3.541   2.201 -3.1787 -0.4148 -2.5732
 1007MOL0     H35896   7.559   3.469   1.990  0.6760  1.0314  0.8029
 1007MOL0     H35897   7.323   3.372   1.912  0.9312  2.7863  4.6291
 1007MOL0     H35898   7.420   3.228   1.902 -2.5611  0.6495 -3.2847
 1007MOL0     H35899   7.148   3.246   2.025 -0.0341 -1.5097  1.1091
 1007MOL0     H35900   7.258   3.106   2.059 -0.6516 -2.0037 -2.5236
 1007MOL0     H35901   7.264   3.044   1.832  0.0295 -0.4937 -1.8772
 1007MOL0     H35902   7.208   3.207   1.781  1.1292  0.1694  1.3367
 1007MOL0     H35903   7.045   2.998   1.932 -3.2451 -0.3555 -0.0254
 1007MOL0     H35904   7.022   3.033   1.763  0.5623 -0.7863  0.0039
 1007MOL0     H35905   6.719   3.144   2.026  0.9906  1.2419  0.0270
 1007MOL0     H35906   6.438   3.228   2.016 -0.1180  0.2397  0.7854
 1007MOL0     H35907   6.398   3.081   1.919  1.8029 -2.8993 -1.2583
 1007MOL0     H35908   6.515   3.071   2.049 -4.0540 -0.3442  0.9886
 1007MOL0     H35909   6.196   3.061   1.707  0.0339 -0.2956  2.1844
 1007MOL0     H35910   5.971   3.060   1.630  3.1366 -1.8334  0.3924
 1007MOL0     H35911   5.704   3.433   1.702  0.0356 -0.0269 -0.1376
 1007MOL0     H35912   5.763   3.441   1.533  2.2130 -1.5372 -0.0113
 1007MOL0     H35913   5.580   3.296   1.471  0.9224 -2.1031 -0.7172
 1007MOL0     H35914   5.544   3.254   1.635  0.4705 -0.3197 -0.2250
 1007MOL0     H35915   5.468   3.507   1.497  1.0889 -0.4155 -0.9476
 1007MOL0     H35916   5.459   3.489   1.669 -0.9177  0.9627 -0.4709
 1007MOL0     H35917   5.314   3.297   1.480 -1.2182  2.0094 -0.5287
 1007MOL0     H35918   5.321   3.278   1.652 -2.2009  1.6603  3.0881
 1007MOL0     H35919   5.224   3.533   1.506  2.0607  0.0439 -1.0497
 1007MOL0     H35920   5.213   3.502   1.679 -0.6044 -0.4926 -0.2053
 1007MOL0     H35921   5.085   3.309   1.471 -0.4094 -2.3752  2.6867
 1007MOL0     H35922   5.066   3.309   1.649  1.8511 -0.9016  0.4658
 1007MOL0     H35923   4.883   3.403   1.478  2.0712 -2.1118  0.7490
 1007MOL0     H35924   4.978   3.559   1.495  2.2005  1.0468  1.7274
 1007MOL0     H35925   4.826   3.600   1.636  0.6873 -0.3298  1.0640
 1007MOL0     H35926   4.947   3.528   1.750  0.6654 -0.8479  1.4426
 1007MOL0     H35927   5.934   3.481   1.722  1.9880 -0.1634 -2.7641
 1007MOL0     H35928   6.181   3.477   1.768  3.1570 -1.9444  1.0153
 1007MOL0     H35929   6.663   3.246   1.547 -1.3628 -0.4010 -0.1936
 1007MOL0     H35930   6.894   3.230   1.642 -0.7656 -0.5164 -2.0786
 1007MOL0     H35931   8.088   4.320   2.644 -0.9697  0.7398 -2.1364
 1007MOL0     H35932   8.268   4.385   2.792 -0.7387 -2.2821 -0.1580
 1007MOL0     H35933   8.466   4.800   2.991  0.0199 -0.7514 -2.3713
 1007MOL0     H35934   8.650   4.870   3.140  1.7275  0.6928 -0.0364
 1007MOL0     H35935   9.041   4.635   3.112 -0.5570 -0.8199 -0.2453
 1007MOL0     H35936   9.010   4.773   3.004  0.6599 -0.0295  0.2148
 1007MOL0     H35937   9.112   4.928   3.176  1.4120  0.0048 -4.6110
 1007MOL0     H35938   9.226   4.802   3.142  0.3466 -2.4211  1.5478
 1007MOL0     H35939   9.041   4.816   3.389  0.8775  0.9431  0.2704
 1007MOL0     H35940   9.208   4.827   3.395  0.4927  2.4792 -1.3401
 1007MOL0     H35941   9.072   4.577   3.320 -0.5219 -0.5813  1.1323
 1007MOL0     H35942   9.154   4.610   3.468 -0.3480  0.9996  0.6717
 1007MOL0     H35943   9.471   4.512   3.191 -1.5842 -0.8858 -0.7776
 1007MOL0     H35944   8.890   4.552   2.973  1.6735  1.8403 -0.1025
 1007MOL0     H35945   8.699   4.474   2.852 -2.8797  1.3248 -3.1665
 1008MOL0     O35946   6.322   2.966   0.616  0.0718  0.5005 -0.2645
 1008MOL0     C35947   6.346   2.960   0.738 -0.5898  0.1286 -0.2523
 1008MOL0     O35948   6.259   2.946   0.838  0.2907 -0.0048 -0.3704
 1008MOL0     C35949   6.130   2.925   0.813 -0.0198 -0.6501  0.2313
 1008MOL0     C35950   6.057   2.815   0.855  0.3652 -0.7168  0.4565
 1008MOL0     C35951   5.915   2.802   0.823 -0.6187  0.3012  0.0654
 1008MOL0     C35952   5.844   2.904   0.764  0.2831 -0.8435  0.5120
 1008MOL0     O35953   5.715   2.902   0.723  0.0697  0.0722 -0.6413
 1008MOL0     C35954   5.628   2.805   0.779 -0.4879 -0.4248 -0.0969
 1008MOL0     C35955   5.475   2.840   0.752 -0.6143  0.2383 -0.5009
 1008MOL0     C35956   5.420   2.975   0.790  0.2076  0.8708  0.1825
 1008MOL0     C35957   5.265   2.981   0.764 -0.3095 -0.0225 -0.4780
 1008MOL0     C35958   5.204   3.119   0.783  0.1982 -0.1549  0.0142
 1008MOL0     C35959   5.190   3.174   0.921  0.1805 -0.8537 -0.0495
 1008MOL0     C35960   5.085   3.105   1.014 -0.2481 -0.2881  0.1646
 1008MOL0     C35961   4.942   3.102   0.956  0.0701 -0.8218 -0.4272
 1008MOL0     N35962   4.881   3.233   0.936  0.3583 -0.0721 -0.4914
 1008MOL0     C35963   4.865   3.306   0.820  1.3846  0.4540 -1.3025
 1008MOL0     C35964   4.792   3.415   0.867  0.1160  0.4787 -0.0953
 1008MOL0     C35965   4.744   3.542   0.804  0.3010  0.1856  0.4934
 1008MOL0     C35966   4.602   3.554   0.752 -0.7945 -0.0232 -0.8801
 1008MOL0     C35967   4.586   3.686   0.683 -0.1479 -0.4558 -0.1561
 1008MOL0     C35968   4.453   3.705   0.624  0.1591 -0.5143 -0.6081
 1008MOL0     O35969   4.358   3.673   0.725  0.1575  0.9140 -0.2168
 1008MOL0     C35970   4.226   3.669   0.685 -1.2457  1.3202 -0.0458
 1008MOL0     C35971   4.148   3.578   0.760  0.8167 -1.0982 -0.1460
 1008MOL0     C35972   4.008   3.588   0.755  0.2068 -0.5512  1.0645
 1008MOL0     C35973   3.920   3.505   0.850 -1.0425 -0.7879  1.2838
 1008MOL0     C35974   3.943   3.662   0.653 -0.0606 -0.4229 -0.2288
 1008MOL0     C35975   3.798   3.675   0.623  0.5752  0.3834  0.0659
 1008MOL0     O35976   3.723   3.569   0.677  0.7862 -0.2291 -0.1963
 1008MOL0     C35977   3.590   3.566   0.650  0.6914  0.1316  0.2617
 1008MOL0     C35978   3.510   3.684   0.658  0.7372  0.2792  0.6320
 1008MOL0     C35979   3.375   3.671   0.636 -0.0994  0.3125  0.1938
 1008MOL0     C35980   3.313   3.542   0.630 -0.4009 -0.3034 -0.2823
 1008MOL0     O35981   3.178   3.550   0.621  0.4008  0.5181  0.0707
 1008MOL0     C35982   3.110   3.428   0.661 -0.3587  0.6777  0.1719
 1008MOL0     C35983   2.959   3.444   0.663 -1.4004 -0.3605  0.7074
 1008MOL0     C35984   2.903   3.456   0.517  0.1458  0.4191 -0.1905
 1008MOL0     C35985   2.917   3.337   0.427  0.2696  0.2202  0.4214
 1008MOL0     C35986   2.847   3.359   0.293  0.7251  0.4108 -0.5284
 1008MOL0     C35987   2.854   3.498   0.233 -0.2207 -0.9837 -0.0585
 1008MOL0     C35988   2.994   3.535   0.175 -0.1871  0.2482 -0.6319
 1008MOL0     C35989   3.047   3.449   0.056  0.0214  0.0328  0.4518
 1008MOL0    Cl35990   2.961   3.489  -0.098  0.6163 -0.2619 -0.1176
 1008MOL0     C35991   3.391   3.423   0.628 -0.1406 -0.9184 -0.1334
 1008MOL0     C35992   3.533   3.439   0.638  1.3829  0.5309 -0.1922
 1008MOL0     O35993   3.760   3.757   0.537 -0.1591  0.7472  0.3214
 1008MOL0     C35994   4.035   3.735   0.562 -0.5797 -1.0738 -0.5066
 1008MOL0     C35995   4.174   3.737   0.581  0.4087  0.5140  0.7700
 1008MOL0     N35996   4.773   3.397   1.007 -0.3838  0.7014 -0.2299
 1008MOL0     N35997   4.833   3.293   1.047  0.2052  0.6489 -0.7732
 1008MOL0     C35998   5.918   3.023   0.732 -0.1973 -0.0098 -0.1281
 1008MOL0     C35999   6.052   3.028   0.757  0.2173  0.0104  1.0687
 1008MOL0     C36000   6.488   2.997   0.779  0.4271 -0.1833  0.3762
 1008MOL0     C36001   6.588   2.983   0.677 -0.6016  0.3545  0.2663
 1008MOL0     C36002   6.719   3.011   0.703 -0.0062  0.7393 -0.3236
 1008MOL0     C36003   6.753   3.053   0.829 -0.0515 -0.0801 -0.7704
 1008MOL0     O36004   6.881   3.086   0.853 -0.9650  1.3097  1.0317
 1008MOL0     C36005   6.981   2.979   0.828 -0.5025 -0.1076 -0.5638
 1008MOL0     C36006   7.103   3.002   0.909 -0.2450  0.1767  0.0132
 1008MOL0     C36007   7.216   2.905   0.866  0.2426  0.5961 -0.4947
 1008MOL0     C36008   7.359   2.943   0.920  0.2547 -0.7464 -1.0937
 1008MOL0     C36009   7.367   2.989   1.060 -1.0061 -0.1529  0.6191
 1008MOL0     C36010   7.378   3.030   1.172  0.0032  0.2006 -0.0226
 1008MOL0     C36011   6.660   3.070   0.930  0.6527 -0.8071 -0.4759
 1008MOL0     C36012   6.523   3.045   0.906 -0.2578  0.5153 -0.3820
 1008MOL0     H36013   6.124   2.740   0.896  4.2744  1.3161 -1.6260
 1008MOL0     H36014   5.858   2.714   0.850 -1.5671  0.6453 -0.7700
 1008MOL0     H36015   5.653   2.708   0.733 -1.3901  0.0791 -1.7375
 1008MOL0     H36016   5.643   2.787   0.886  0.0596  1.5932  0.2107
 1008MOL0     H36017   5.450   2.825   0.646 -1.8644 -2.5617  0.1168
 1008MOL0     H36018   5.416   2.762   0.799  0.7279 -0.1994  0.5074
 1008MOL0     H36019   5.441   3.007   0.892 -0.8209  2.5960 -0.0912
 1008MOL0     H36020   5.463   3.049   0.721 -1.0694 -0.1455 -1.8166
 1008MOL0     H36021   5.244   2.937   0.666  1.7056  0.8996 -1.3552
 1008MOL0     H36022   5.214   2.913   0.834 -1.6675  0.9289 -0.4928
 1008MOL0     H36023   5.273   3.190   0.736 -0.5936 -1.4192 -3.3883
 1008MOL0     H36024   5.110   3.124   0.726  0.0290 -2.5942 -0.0417
 1008MOL0     H36025   5.290   3.166   0.964  0.5528  2.8538  0.0373
 1008MOL0     H36026   5.169   3.281   0.916 -0.2553 -0.9991 -2.9759
 1008MOL0     H36027   5.129   3.006   1.029  3.1315  0.7991 -1.4212
 1008MOL0     H36028   5.081   3.155   1.112  0.0404  0.9208 -0.4194
 1008MOL0     H36029   4.883   3.034   1.019  1.1280 -0.5810  0.8812
 1008MOL0     H36030   4.959   3.053   0.860 -1.1404 -1.8453 -0.1499
 1008MOL0     H36031   4.902   3.287   0.720  3.9891 -1.2762 -0.1210
 1008MOL0     H36032   4.758   3.621   0.879  3.1472 -1.0655  1.4439
 1008MOL0     H36033   4.811   3.558   0.719 -0.4294 -2.2009 -0.6106
 1008MOL0     H36034   4.535   3.542   0.838  0.4950  0.1458  0.1951
 1008MOL0     H36035   4.581   3.476   0.679  0.3213  0.0451 -1.2991
 1008MOL0     H36036   4.662   3.687   0.603  1.0617  0.1874  0.9603
 1008MOL0     H36037   4.613   3.759   0.760  0.5877 -0.1854 -0.6530
 1008MOL0     H36038   4.449   3.628   0.547  0.4863 -0.7082 -0.4315
 1008MOL0     H36039   4.447   3.812   0.599 -0.2985  0.0665  1.7635
 1008MOL0     H36040   4.200   3.511   0.828 -0.5417  0.3040  2.4621
 1008MOL0     H36041   3.846   3.577   0.886 -0.5013 -0.1224  1.0953
 1008MOL0     H36042   3.873   3.417   0.805  0.9381 -1.6776  0.8153
 1008MOL0     H36043   3.981   3.461   0.929 -0.4673 -1.9263  0.2462
 1008MOL0     H36044   3.557   3.781   0.667  2.6922 -0.0719 -3.4640
 1008MOL0     H36045   3.305   3.755   0.646  0.7124  1.0456 -0.1823
 1008MOL0     H36046   3.139   3.346   0.594 -2.3703  0.4370 -0.5038
 1008MOL0     H36047   3.134   3.400   0.764 -1.6776 -3.8176 -0.4981
 1008MOL0     H36048   2.921   3.357   0.717  2.1176 -2.2840  0.3839
 1008MOL0     H36049   2.951   3.540   0.713 -1.9494  0.1930 -0.4126
 1008MOL0     H36050   2.963   3.538   0.478  2.6488 -0.0240  2.3984
 1008MOL0     H36051   2.798   3.488   0.522 -1.0762 -3.0840 -0.5343
 1008MOL0     H36052   3.021   3.316   0.397 -0.6842  0.2871 -3.5387
 1008MOL0     H36053   2.868   3.254   0.479 -0.9880  0.5661 -0.1748
 1008MOL0     H36054   2.747   3.326   0.323  0.6360  0.5206 -0.7060
 1008MOL0     H36055   2.880   3.286   0.219  0.5064  0.6190 -0.8339
 1008MOL0     H36056   2.775   3.503   0.157 -0.2897  0.1742  0.0759
 1008MOL0     H36057   2.817   3.571   0.306  0.5766  0.3320 -0.9321
 1008MOL0     H36058   3.064   3.532   0.260 -1.5355 -0.4245  0.5030
 1008MOL0     H36059   2.996   3.637   0.134  0.2509  0.5622  0.1410
 1008MOL0     H36060   3.044   3.343   0.083  0.0248 -0.8650 -2.6275
 1008MOL0     H36061   3.152   3.472   0.034 -0.0470 -0.0181  0.0695
 1008MOL0     H36062   3.346   3.325   0.621 -0.5822 -0.8281  1.2192
 1008MOL0     H36063   3.589   3.346   0.631 -0.4887 -0.9453  2.5122
 1008MOL0     H36064   3.995   3.801   0.485 -0.5295  0.8405  1.0303
 1008MOL0     H36065   4.245   3.796   0.525  3.7165 -2.2508  1.6923
 1008MOL0     H36066   5.876   3.114   0.690  0.0532  0.7229  1.1619
 1008MOL0     H36067   6.104   3.121   0.734  0.6048 -0.2655  0.8086
 1008MOL0     H36068   6.561   2.942   0.581 -1.4532 -0.0903  0.6854
 1008MOL0     H36069   6.798   2.999   0.629 -0.1931  1.2182 -0.6055
 1008MOL0     H36070   6.948   2.876   0.844 -1.9326  0.5144  0.7472
 1008MOL0     H36071   7.002   2.986   0.721 -3.3958 -0.3715 -1.2269
 1008MOL0     H36072   7.089   2.996   1.018 -0.7490  0.0232 -0.0614
 1008MOL0     H36073   7.147   3.101   0.894  1.1292  0.4007  4.2376
 1008MOL0     H36074   7.234   2.898   0.758  0.4177 -0.4430 -0.4116
 1008MOL0     H36075   7.204   2.810   0.917  0.3093  0.0577 -1.4517
 1008MOL0     H36076   7.402   3.020   0.856  0.9529  0.1268  0.3658
 1008MOL0     H36077   7.426   2.857   0.911  1.7584  0.2157  0.2640
 1008MOL0     H36078   7.403   3.092   1.256 -0.3709  1.8718 -1.1104
 1008MOL0     H36079   6.678   3.115   1.027 -1.2920 -0.0711 -0.4157
 1008MOL0     H36080   6.448   3.082   0.975 -0.4506  2.5377 -1.6012
 1009MOL0     O36081   2.983   2.031  10.845 -0.4242  0.3247 -0.8162
 1009MOL0     C36082   2.977   1.940  10.757 -0.6850  0.0942 -0.4132
 1009MOL0     O36083   2.870   1.897  10.685 -0.1514  0.1723  0.2730
 1009MOL0     C36084   2.741   1.938  10.711  0.2205 -0.0209  0.0801
 1009MOL0     C36085   2.699   2.061  10.763 -0.0205  0.5300 -0.4628
 1009MOL0     C36086   2.561   2.085  10.779  0.9423 -0.7071  0.0554
 1009MOL0     C36087   2.464   1.992  10.757  0.7917  0.1136  0.4136
 1009MOL0     O36088   2.331   2.019  10.773  0.2149 -0.3887 -0.4755
 1009MOL0     C36089   2.229   1.949  10.703 -0.7040 -0.5235  0.6996
 1009MOL0     C36090   2.089   1.993  10.723  0.4705 -0.7913 -0.1268
 1009MOL0     C36091   1.999   1.964  10.602 -0.2311  0.4623 -0.4415
 1009MOL0     C36092   1.864   2.040  10.606 -0.7336  0.0251  0.2570
 1009MOL0     C36093   1.767   1.988  10.707 -0.1993 -0.0585 -0.0136
 1009MOL0     C36094   1.644   2.074  10.721  0.1100 -0.2780 -0.1818
 1009MOL0     C36095   1.554   2.001  10.824 -0.1488  0.3714  0.3748
 1009MOL0     C36096   1.476   1.886  10.762  0.1315  0.9151 -0.5815
 1009MOL0     N36097   1.421   1.811  10.875  0.2316  0.4550  0.1241
 1009MOL0     C36098   1.313   1.860  10.950 -1.3482  0.5398 -0.7320
 1009MOL0     C36099   1.295   1.767  11.042 -0.4788 -0.0965 -0.3970
 1009MOL0     C36100   1.182   1.747  11.132 -0.1388 -0.2095  0.2765
 1009MOL0     C36101   1.100   1.624  11.088  0.1241  0.0495 -0.1784
 1009MOL0     C36102   1.029   1.673  10.954 -0.1587  0.1891  0.1672
 1009MOL0     C36103   0.931   1.567  10.896  0.1653  0.1232  0.3315
 1009MOL0     O36104   0.895   1.596  10.758  0.2015  0.8176 -0.1996
 1009MOL0     C36105   0.767   1.641  10.740  0.0789 -1.1222 -0.1763
 1009MOL0     C36106   0.725   1.773  10.739  0.8351  0.4486 -0.2404
 1009MOL0     C36107   0.590   1.794  10.696 -0.0478  0.0155 -0.2235
 1009MOL0     C36108   0.539   1.942  10.699 -0.5799  0.7003  0.1421
 1009MOL0     C36109   0.498   1.690  10.670 -0.3429 -0.1109 -0.4934
 1009MOL0     C36110   0.357   1.715  10.627 -0.2751 -0.4663 -0.6432
 1009MOL0     O36111   0.335   1.818  10.538  0.3577 -0.4699  0.9015
 1009MOL0     C36112   0.199   1.843  10.510  0.1730 -0.7288 -0.6374
 1009MOL0     C36113   0.139   1.794  10.399 -0.2426  0.6253  0.5295
 1009MOL0     C36114   0.007   1.821  10.375 -0.7584  0.1746  0.7392
 1009MOL0     C36115  -0.068   1.882  10.465 -0.1871 -0.3169  0.5062
 1009MOL0     O36116  -0.204   1.895  10.422 -0.5350 -0.0952 -0.1642
 1009MOL0     C36117  -0.305   1.934  10.518  0.0670 -0.3903  0.5726
 1009MOL0     C36118  -0.361   1.805  10.575  0.5037 -0.3962  0.2235
 1009MOL0     C36119  -0.460   1.813  10.686  0.1847  0.1200 -1.3505
 1009MOL0     C36120  -0.423   1.738  10.808 -0.4510 -0.4680  0.1993
 1009MOL0     C36121  -0.531   1.756  10.919 -0.4039 -0.0949 -0.4252
 1009MOL0     C36122  -0.665   1.700  10.882  1.2104  0.9689 -0.1115
 1009MOL0     C36123  -0.774   1.741  10.985  0.8226 -0.1667 -0.5775
 1009MOL0     C36124  -0.910   1.673  10.945 -0.2284 -1.0487 -0.1128
 1009MOL0    Cl36125  -0.997   1.759  10.819 -0.0552 -0.4368 -0.1736
 1009MOL0     C36126  -0.015   1.940  10.579 -0.1635 -0.1154  0.2644
 1009MOL0     C36127   0.124   1.921  10.601 -0.0575 -0.7878 -0.1517
 1009MOL0     O36128   0.271   1.643  10.678  0.2893  0.1205 -0.5857
 1009MOL0     C36129   0.542   1.560  10.702  0.1666 -0.3750 -0.8723
 1009MOL0     C36130   0.673   1.541  10.730 -0.0786  0.5273 -0.2186
 1009MOL0     N36131   1.396   1.673  11.027  0.5984  0.8648 -0.0631
 1009MOL0     N36132   1.471   1.706  10.933 -0.5125  0.0824  0.0843
 1009MOL0     C36133   2.503   1.867  10.712 -0.2709  0.5941 -0.1016
 1009MOL0     C36134   2.638   1.841  10.695 -0.1744  0.6565  0.3743
 1009MOL0     C36135   3.112   1.884  10.725  0.5861 -0.1783 -0.6927
 1009MOL0     C36136   3.230   1.966  10.740 -1.0332 -0.8990 -0.2955
 1009MOL0     C36137   3.353   1.905  10.724  0.0697 -0.4220  0.3722
 1009MOL0     C36138   3.369   1.765  10.700 -0.0701 -0.6581  1.1991
 1009MOL0     O36139   3.502   1.722  10.701 -0.1599 -0.1650 -0.0337
 1009MOL0     C36140   3.518   1.584  10.653  0.4878 -0.1544 -0.5549
 1009MOL0     C36141   3.669   1.542  10.633  0.1991  0.3139 -0.0325
 1009MOL0     C36142   3.740   1.614  10.519  0.9770 -0.0356  0.5683
 1009MOL0     C36143   3.894   1.620  10.543  0.1775  0.4643 -0.4680
 1009MOL0     C36144   3.943   1.485  10.541 -0.6227  0.0860 -0.3488
 1009MOL0     C36145   3.997   1.378  10.520  0.7547  0.0249  0.0528
 1009MOL0     C36146   3.253   1.689  10.675  0.3372 -0.5223  0.2594
 1009MOL0     C36147   3.128   1.746  10.696 -0.3744  0.2822 -0.5966
 1009MOL0     H36148   2.772   2.135  10.794  1.4884 -0.8435 -0.5819
 1009MOL0     H36149   2.519   2.179  10.816 -1.4044 -2.0327  1.0217
 1009MOL0     H36150   2.253   1.954  10.596 -0.2903  1.3847  0.8406
 1009MOL0     H36151   2.227   1.845  10.737 -1.0088 -0.7239  0.0862
 1009MOL0     H36152   2.043   1.958  10.815 -0.3958  0.5904 -0.0076
 1009MOL0     H36153   2.097   2.102  10.732 -1.1904 -0.7354  0.9723
 1009MOL0     H36154   2.061   1.983  10.515  1.9900  1.1490  1.2001
 1009MOL0     H36155   1.980   1.856  10.599 -3.4048  0.7957  2.0558
 1009MOL0     H36156   1.896   2.143  10.625 -0.6059  0.4808 -2.1229
 1009MOL0     H36157   1.825   2.045  10.504  0.7174 -1.0028 -0.3695
 1009MOL0     H36158   1.750   1.886  10.671 -1.4578 -0.0437  0.4762
 1009MOL0     H36159   1.813   1.984  10.807 -0.8016 -2.5043  0.2221
 1009MOL0     H36160   1.664   2.179  10.745  3.4209 -0.9546  0.4603
 1009MOL0     H36161   1.577   2.073  10.634 -1.2379 -2.3209  0.8019
 1009MOL0     H36162   1.618   1.954  10.899  1.7198  0.8788 -0.8127
 1009MOL0     H36163   1.486   2.072  10.873  1.2407  2.3378 -0.3885
 1009MOL0     H36164   1.537   1.827  10.694 -0.9218  0.1536 -0.8799
 1009MOL0     H36165   1.390   1.925  10.707  0.0283  1.2644 -0.1802
 1009MOL0     H36166   1.243   1.943  10.941 -2.3559 -0.3201 -1.1096
 1009MOL0     H36167   1.234   1.740  11.228  2.8939 -1.3509 -1.3054
 1009MOL0     H36168   1.114   1.833  11.137 -0.5379 -0.5097  0.0322
 1009MOL0     H36169   1.027   1.585  11.161  0.3275  2.5837  1.4860
 1009MOL0     H36170   1.162   1.537  11.064 -0.0564 -0.6049  1.5482
 1009MOL0     H36171   1.102   1.675  10.872 -1.1266 -3.2082 -0.9615
 1009MOL0     H36172   0.998   1.778  10.963  0.5003  0.3606  0.4975
 1009MOL0     H36173   0.844   1.565  10.962 -0.3894  0.1048 -0.3892
 1009MOL0     H36174   0.980   1.469  10.901  0.1637  0.0633 -0.7016
 1009MOL0     H36175   0.787   1.859  10.761 -0.5128  1.8475 -1.6391
 1009MOL0     H36176   0.594   2.003  10.771 -0.6069 -1.0577  1.7378
 1009MOL0     H36177   0.549   1.983  10.599  0.7445 -0.6713 -0.3291
 1009MOL0     H36178   0.431   1.947  10.720 -1.4336 -4.1974 -1.6126
 1009MOL0     H36179   0.199   1.738  10.329 -2.8228 -0.3823 -1.0167
 1009MOL0     H36180  -0.044   1.779  10.289 -0.1175  0.8763 -0.0025
 1009MOL0     H36181  -0.267   2.000  10.596 -0.5796  0.8518 -0.1380
 1009MOL0     H36182  -0.380   1.985  10.456 -0.6220 -2.5865 -0.5106
 1009MOL0     H36183  -0.404   1.756  10.487 -1.4396 -0.1740  1.0051
 1009MOL0     H36184  -0.278   1.748  10.619  0.3633  0.4887  1.6979
 1009MOL0     H36185  -0.549   1.762  10.650 -0.5685 -0.1707  0.7866
 1009MOL0     H36186  -0.491   1.915  10.708  0.3521 -0.5286  2.6087
 1009MOL0     H36187  -0.414   1.634  10.777 -0.5455  0.5150 -3.7419
 1009MOL0     H36188  -0.331   1.778  10.852 -0.9716 -1.8875  2.7769
 1009MOL0     H36189  -0.544   1.863  10.935  2.3409  0.2347 -0.0641
 1009MOL0     H36190  -0.485   1.713  11.008  1.7167  0.7967 -1.0400
 1009MOL0     H36191  -0.698   1.750  10.791  1.6324 -0.3107 -0.9887
 1009MOL0     H36192  -0.661   1.591  10.873  1.4940  1.0720 -1.5138
 1009MOL0     H36193  -0.789   1.848  10.994 -0.4637 -0.4850  1.7044
 1009MOL0     H36194  -0.738   1.708  11.083 -1.2734  0.1184  0.3405
 1009MOL0     H36195  -0.968   1.662  11.037  2.5665 -2.6353  1.5756
 1009MOL0     H36196  -0.887   1.571  10.914 -1.0518 -0.9680 -1.0284
 1009MOL0     H36197  -0.073   1.998  10.651 -0.0529  0.8942 -0.4519
 1009MOL0     H36198   0.165   1.956  10.696 -0.7795  3.0905 -1.1055
 1009MOL0     H36199   0.474   1.476  10.709  0.3416 -0.3576  2.3602
 1009MOL0     H36200   0.705   1.438  10.744  1.7087  0.8141 -1.7722
 1009MOL0     H36201   2.434   1.784  10.703  1.7986 -0.9278 -5.9208
 1009MOL0     H36202   2.661   1.738  10.669 -0.8049  0.7600 -0.6231
 1009MOL0     H36203   3.220   2.072  10.763  0.1936 -0.9897  0.7897
 1009MOL0     H36204   3.435   1.971  10.752 -0.0505 -1.0408  2.3498
 1009MOL0     H36205   3.473   1.527  10.735 -1.2016  0.2320 -1.1719
 1009MOL0     H36206   3.453   1.557  10.569 -0.4232 -3.0385  0.9350
 1009MOL0     H36207   3.650   1.438  10.607 -2.4544  0.9963 -1.2327
 1009MOL0     H36208   3.723   1.551  10.728 -1.1545 -0.4431  0.8345
 1009MOL0     H36209   3.699   1.714  10.502 -0.6473 -0.8416 -0.4225
 1009MOL0     H36210   3.710   1.559  10.430  0.3535  2.0116 -0.5558
 1009MOL0     H36211   3.915   1.652  10.646 -0.9859 -5.0938  1.8721
 1009MOL0     H36212   3.935   1.688  10.468 -0.0059  1.4973  0.3392
 1009MOL0     H36213   4.023   1.276  10.503 -2.4570 -1.1686  1.3617
 1009MOL0     H36214   3.240   1.585  10.646 -0.9878  0.0071 -1.1276
 1009MOL0     H36215   3.038   1.686  10.687  0.7519 -1.9172  1.7434
 1010MOL0     O36216   5.979   1.601  10.580  0.2384 -0.4697 -0.4766
 1010MOL0     C36217   6.061   1.688  10.621  0.9557 -0.4904  0.4720
 1010MOL0     O36218   6.053   1.827  10.602  1.1716 -0.1396 -0.1278
 1010MOL0     C36219   5.957   1.888  10.523 -0.2923  0.5466 -1.0597
 1010MOL0     C36220   5.953   1.840  10.392  0.1773 -0.2007 -0.4456
 1010MOL0     C36221   5.879   1.912  10.297  0.3480 -0.2195  0.3722
 1010MOL0     C36222   5.805   2.023  10.344  0.9258  0.0210  0.4332
 1010MOL0     O36223   5.724   2.101  10.256 -0.7782 -0.3548  0.2476
 1010MOL0     C36224   5.715   2.060  10.125  0.3906  0.1807  0.4130
 1010MOL0     C36225   5.605   2.142  10.061  0.3038 -0.1900  0.1058
 1010MOL0     C36226   5.474   2.104  10.139 -0.1537 -0.1039 -0.4820
 1010MOL0     C36227   5.352   2.140  10.059  0.0153  0.0009  0.0453
 1010MOL0     C36228   5.225   2.130  10.149  0.2857  0.3265 -0.2085
 1010MOL0     C36229   5.095   2.135  10.070  0.0579 -0.1600 -0.6712
 1010MOL0     C36230   4.980   2.179  10.156  0.6382 -0.1002 -0.0886
 1010MOL0     C36231   4.909   2.066  10.224  0.0312  0.0113 -0.0441
 1010MOL0     N36232   4.810   2.106  10.319 -0.1561 -0.5972  0.1703
 1010MOL0     C36233   4.822   2.193  10.425 -0.2737 -0.0136 -0.0067
 1010MOL0     C36234   4.696   2.232  10.461  0.2212  0.4723 -0.3670
 1010MOL0     C36235   4.667   2.349  10.558 -0.2826  0.1479  0.6408
 1010MOL0     C36236   4.740   2.345  10.694 -1.5398 -0.7373  0.2264
 1010MOL0     C36237   4.733   2.213  10.766  0.1623  0.7742 -0.0938
 1010MOL0     C36238   4.592   2.147  10.770 -0.8749  0.5530  0.2294
 1010MOL0     O36239   4.496   2.223  10.840 -0.0100  0.2454  0.0434
 1010MOL0     C36240   4.363   2.177  10.831  0.3159  0.3097 -0.2550
 1010MOL0     C36241   4.306   2.065  10.777 -0.3244  0.2087  0.1513
 1010MOL0     C36242   4.168   2.041  10.784  0.2301  0.9101  0.1556
 1010MOL0     C36243   4.110   1.921  10.712  0.4705  0.6121  0.5289
 1010MOL0     C36244   4.091   2.119  10.871 -0.6688 -0.2690 -0.4365
 1010MOL0     C36245   3.945   2.096  10.890 -0.3692 -0.4264 -0.3903
 1010MOL0     O36246   3.898   2.111  11.020  0.1869  0.7887  0.1747
 1010MOL0     C36247   3.761   2.107  11.031  0.9549 -0.5303  0.2897
 1010MOL0     C36248   3.691   2.211  11.102  0.2082  0.3737  0.4786
 1010MOL0     C36249   3.559   2.208  11.126 -0.7599  0.0124  0.2346
 1010MOL0     C36250   3.477   2.109  11.077  0.6785 -0.0270  0.1904
 1010MOL0     O36251   3.340   2.100  11.107  0.2561  0.1950 -0.1606
 1010MOL0     C36252   3.269   2.218  11.141  0.1605  0.2189 -0.5459
 1010MOL0     C36253   3.122   2.188  11.148  1.0154  0.1621  0.3613
 1010MOL0     C36254   3.041   2.317  11.120  1.0131 -0.1786  1.2297
 1010MOL0     C36255   2.890   2.288  11.127 -1.1011 -0.9513 -0.9869
 1010MOL0     C36256   2.806   2.419  11.099  0.2660  0.2392 -0.7193
 1010MOL0     C36257   2.661   2.387  11.069 -0.7790 -0.3895  0.2096
 1010MOL0     C36258   2.603   2.266  11.152  0.3887 -0.0318 -0.3289
 1010MOL0     C36259   2.491   2.312  11.251 -0.1278 -0.0354  0.0875
 1010MOL0    Cl36260   2.422   2.176  11.349  0.1717 -0.0427  0.0247
 1010MOL0     C36261   3.538   2.000  11.011 -0.3307 -0.5437  0.0229
 1010MOL0     C36262   3.680   2.000  10.991 -0.0308 -0.5574 -0.1053
 1010MOL0     O36263   3.879   2.064  10.789  0.1171  0.7448 -0.0027
 1010MOL0     C36264   4.153   2.230  10.945 -0.5994 -0.0013  0.6525
 1010MOL0     C36265   4.285   2.264  10.913  0.0486 -0.0364 -0.1502
 1010MOL0     N36266   4.605   2.169  10.381 -0.7936  0.5405 -0.0682
 1010MOL0     N36267   4.669   2.091  10.299  0.3416  1.1731  0.6428
 1010MOL0     C36268   5.813   2.069  10.472 -0.3239  0.6389 -0.6879
 1010MOL0     C36269   5.892   2.003  10.570  0.2239 -0.9402  0.0494
 1010MOL0     C36270   6.169   1.652  10.714 -0.7015  0.6761 -0.4173
 1010MOL0     C36271   6.159   1.533  10.786 -0.1292 -0.7189 -0.9187
 1010MOL0     C36272   6.261   1.504  10.883  0.2355  0.1272  0.4036
 1010MOL0     C36273   6.379   1.583  10.894 -0.3817  0.0626  1.0155
 1010MOL0     O36274   6.477   1.544  10.978 -0.2076 -0.8527  0.1441
 1010MOL0     C36275   6.468   1.585  11.109  0.0913  0.3292 -0.3818
 1010MOL0     C36276   6.611   1.620  11.164  0.5845  0.0365 -0.0077
 1010MOL0     C36277   6.709   1.708  11.083  0.4521 -0.9129  0.4179
 1010MOL0     C36278   6.703   1.858  11.118 -0.4729  0.2878 -0.4451
 1010MOL0     C36279   6.624   1.939  11.026  0.2925 -0.3822 -0.2338
 1010MOL0     C36280   6.568   2.019  10.956  1.2476 -0.0336  0.0283
 1010MOL0     C36281   6.391   1.693  10.809  0.0298 -0.1386 -0.0276
 1010MOL0     C36282   6.286   1.730  10.723 -0.3114 -0.9720 -0.1784
 1010MOL0     H36283   6.016   1.757  10.364 -0.0996 -1.0278  1.2552
 1010MOL0     H36284   5.867   1.877  10.195 -5.0456  1.0596  0.2402
 1010MOL0     H36285   5.810   2.078  10.073 -0.9418  2.4384 -1.4581
 1010MOL0     H36286   5.694   1.954  10.106 -0.6889  0.7422 -1.9920
 1010MOL0     H36287   5.627   2.249  10.060 -1.1678  0.1622  1.5716
 1010MOL0     H36288   5.569   2.111   9.962 -2.7696 -1.3092  1.4442
 1010MOL0     H36289   5.476   1.996  10.154  0.6258 -0.1327 -0.7363
 1010MOL0     H36290   5.481   2.159  10.233  0.3968  0.7358 -0.9951
 1010MOL0     H36291   5.363   2.239  10.015 -0.4444 -0.4840 -1.2278
 1010MOL0     H36292   5.347   2.069   9.976 -1.1196  0.9742 -0.7560
 1010MOL0     H36293   5.224   2.039  10.208 -1.0883  0.9999  0.8744
 1010MOL0     H36294   5.225   2.211  10.223 -1.1281  1.4251 -1.3558
 1010MOL0     H36295   5.102   2.203   9.984 -0.0135 -1.9964 -2.1860
 1010MOL0     H36296   5.076   2.035  10.031  0.0206 -0.5050  0.2263
 1010MOL0     H36297   5.010   2.258  10.225  0.9119 -0.0347 -0.2789
 1010MOL0     H36298   4.915   2.221  10.079  2.3334  0.4584 -1.2759
 1010MOL0     H36299   4.986   2.016  10.284 -1.8393 -3.3688 -0.2123
 1010MOL0     H36300   4.872   1.993  10.151  1.0264 -0.8937  0.3281
 1010MOL0     H36301   4.924   2.210  10.459  0.8732 -1.0305 -2.6594
 1010MOL0     H36302   4.679   2.445  10.508 -2.2137 -0.3243 -0.8561
 1010MOL0     H36303   4.559   2.349  10.579 -0.4345  0.4003 -0.1023
 1010MOL0     H36304   4.703   2.427  10.757 -0.7932  0.5909 -1.0066
 1010MOL0     H36305   4.844   2.356  10.663 -2.0414 -0.8337 -1.5946
 1010MOL0     H36306   4.772   2.223  10.868  0.6733 -2.7513  0.2028
 1010MOL0     H36307   4.795   2.142  10.712 -3.0514  0.0134 -3.1948
 1010MOL0     H36308   4.594   2.045  10.808 -2.5908  0.4632  0.1728
 1010MOL0     H36309   4.560   2.129  10.667 -1.1832  0.0692  0.4079
 1010MOL0     H36310   4.369   2.002  10.716 -0.9473 -0.6048  0.3285
 1010MOL0     H36311   4.019   1.944  10.656  0.3213  2.9118  1.5778
 1010MOL0     H36312   4.181   1.875  10.642  1.1303 -0.3544  1.7968
 1010MOL0     H36313   4.092   1.841  10.783  2.6451  0.5979  1.1472
 1010MOL0     H36314   3.751   2.298  11.127  0.6730  0.1229  0.2464
 1010MOL0     H36315   3.517   2.290  11.183 -1.2430  0.9119 -1.3711
 1010MOL0     H36316   3.301   2.260  11.237  0.0687  1.9375 -1.2287
 1010MOL0     H36317   3.302   2.288  11.065  2.3899 -1.4127 -1.1750
 1010MOL0     H36318   3.076   2.123  11.073 -1.1280  2.3789 -0.4041
 1010MOL0     H36319   3.102   2.141  11.245 -2.6646 -0.4152 -0.4989
 1010MOL0     H36320   3.068   2.339  11.017  0.2012 -0.7117  0.8937
 1010MOL0     H36321   3.073   2.401  11.183  2.8514 -1.7040  2.4535
 1010MOL0     H36322   2.858   2.216  11.051  3.4107 -0.3501 -3.8923
 1010MOL0     H36323   2.870   2.256  11.229 -0.1075 -0.7952 -0.7368
 1010MOL0     H36324   2.858   2.492  11.036  2.0035 -0.0530  0.3115
 1010MOL0     H36325   2.804   2.467  11.197  0.3240  0.4466 -0.8173
 1010MOL0     H36326   2.596   2.475  11.080  0.3002  0.3602  0.7319
 1010MOL0     H36327   2.651   2.349  10.967 -0.7521  2.3908 -0.9242
 1010MOL0     H36328   2.675   2.207  11.210  2.3230 -1.4454 -3.8625
 1010MOL0     H36329   2.573   2.186  11.084  1.0107 -1.1923  0.7110
 1010MOL0     H36330   2.408   2.356  11.195  1.0271 -0.8223 -2.3698
 1010MOL0     H36331   2.519   2.388  11.325 -1.2811 -1.9537  2.6446
 1010MOL0     H36332   3.486   1.911  10.977 -2.2094 -0.3844  2.2108
 1010MOL0     H36333   3.735   1.918  10.946  0.7833 -0.4717  0.6963
 1010MOL0     H36334   4.098   2.281  11.023  1.0768  0.5805  1.4945
 1010MOL0     H36335   4.332   2.356  10.944 -0.5148  0.4985 -0.8543
 1010MOL0     H36336   5.749   2.155  10.493  0.5697  1.3327 -0.7677
 1010MOL0     H36337   5.897   2.040  10.672 -2.9132  0.8994 -0.3102
 1010MOL0     H36338   6.066   1.477  10.785 -0.2605 -0.5038 -1.3873
 1010MOL0     H36339   6.253   1.419  10.950 -1.4410  0.9055  1.2438
 1010MOL0     H36340   6.405   1.674  11.115  1.1323  1.1390 -1.1204
 1010MOL0     H36341   6.418   1.504  11.165 -0.6928 -0.8266 -2.6340
 1010MOL0     H36342   6.659   1.522  11.172  0.8388 -0.1348 -2.9025
 1010MOL0     H36343   6.590   1.659  11.265  2.8285  1.8654 -0.1546
 1010MOL0     H36344   6.683   1.698  10.978  2.3254  2.5050 -0.5223
 1010MOL0     H36345   6.811   1.673  11.105  1.8229  1.9345 -0.8743
 1010MOL0     H36346   6.808   1.889  11.117 -0.1329 -0.8088 -1.0837
 1010MOL0     H36347   6.667   1.874  11.220  0.6310 -2.7876  0.5249
 1010MOL0     H36348   6.514   2.092  10.899  2.0056 -1.0321 -2.0592
 1010MOL0     H36349   6.486   1.746  10.817 -0.1052 -0.0202  0.9352
 1010MOL0     H36350   6.291   1.824  10.669  1.8626 -1.2277 -0.5080
 1011MOL0     O36351   8.761   8.089  10.341 -0.6862  0.5746 -1.1436
 1011MOL0     C36352   8.818   8.186  10.394 -0.0617  0.5022 -0.1878
 1011MOL0     O36353   8.759   8.312  10.418  0.3754 -0.9718  0.1226
 1011MOL0     C36354   8.632   8.328  10.377 -0.2716 -0.1494 -0.3281
 1011MOL0     C36355   8.607   8.338  10.239  0.3573  0.1645  0.3321
 1011MOL0     C36356   8.476   8.357  10.192  0.2391 -0.1423 -0.9201
 1011MOL0     C36357   8.366   8.369  10.277 -0.0214 -0.6808  0.6948
 1011MOL0     O36358   8.235   8.371  10.237 -0.0601 -0.3746  0.9005
 1011MOL0     C36359   8.199   8.398  10.102 -0.3422 -0.1796  1.1314
 1011MOL0     C36360   8.061   8.458  10.114  0.1523  0.6836 -0.1866
 1011MOL0     C36361   8.011   8.507   9.975  0.6657 -0.2228  0.1525
 1011MOL0     C36362   7.893   8.435   9.913  0.0126 -0.3010  0.4289
 1011MOL0     C36363   7.864   8.479   9.767  0.5538  0.0596 -0.5064
 1011MOL0     C36364   7.776   8.601   9.763 -1.0666 -1.0119 -0.2663
 1011MOL0     C36365   7.684   8.608   9.642 -0.7635 -0.1168  0.9525
 1011MOL0     C36366   7.606   8.741   9.633  0.6726 -0.0358 -0.6146
 1011MOL0     N36367   7.683   8.852   9.593  1.3099  0.3310 -0.8162
 1011MOL0     C36368   7.719   8.954   9.674 -0.1565  0.4910  0.8076
 1011MOL0     C36369   7.801   9.030   9.591  0.6653  0.2219 -0.2334
 1011MOL0     C36370   7.871   9.147   9.645 -0.1966 -0.1619  0.2180
 1011MOL0     C36371   7.780   9.254   9.685  0.4019 -0.9088  0.8688
 1011MOL0     C36372   7.837   9.393   9.738 -0.7119 -0.4741 -0.1014
 1011MOL0     C36373   7.721   9.490   9.776 -0.6628  0.0858  0.6220
 1011MOL0     O36374   7.619   9.428   9.861  0.0022 -0.8240  0.1852
 1011MOL0     C36375   7.513   9.510   9.890  0.4104  0.7979  0.5106
 1011MOL0     C36376   7.459   9.487  10.011  0.2648 -0.8742 -0.4062
 1011MOL0     C36377   7.339   9.556  10.060 -0.9994  0.0901 -0.0174
 1011MOL0     C36378   7.276   9.513  10.186  0.9429 -0.7862 -0.3457
 1011MOL0     C36379   7.277   9.661   9.972 -0.5906  0.4448 -0.0001
 1011MOL0     C36380   7.158   9.741   9.997  0.8132 -0.0877 -0.7283
 1011MOL0     O36381   7.117   9.826   9.907  0.5324 -0.2575  0.2483
 1011MOL0     C36382   7.004   9.908   9.914 -0.3777 -0.1651 -0.1882
 1011MOL0     C36383   7.014  10.025   9.843 -0.3958  0.0045  0.3541
 1011MOL0     C36384   6.909  10.106   9.837  0.5018 -0.3656 -0.7978
 1011MOL0     C36385   6.798  10.093   9.917  1.0659 -0.5090  0.5525
 1011MOL0     O36386   6.697  10.181   9.895  0.3334  0.1407 -0.0415
 1011MOL0     C36387   6.594  10.172   9.996 -1.0827  0.1196 -0.1901
 1011MOL0     C36388   6.491  10.270   9.944 -0.5377  0.9589 -0.3501
 1011MOL0     C36389   6.375  10.265  10.048 -0.1921  0.4484  0.3455
 1011MOL0     C36390   6.256  10.355  10.011  0.0174  0.6588  0.1490
 1011MOL0     C36391   6.141  10.349  10.117  0.7105  0.6080 -0.5717
 1011MOL0     C36392   6.033  10.454  10.110 -0.2705 -0.5506  0.6591
 1011MOL0     C36393   5.916  10.434  10.206 -0.5453 -0.1358 -0.0466
 1011MOL0     C36394   5.808  10.539  10.183 -0.0138 -0.1956 -0.3650
 1011MOL0    Cl36395   5.673  10.507  10.290 -0.1154 -0.1615 -0.2528
 1011MOL0     C36396   6.795   9.987  10.007  0.6255 -0.6629  0.4816
 1011MOL0     C36397   6.900   9.899  10.002 -0.9123  0.3560  0.5174
 1011MOL0     O36398   7.114   9.745  10.114 -0.2575 -0.1840  0.4497
 1011MOL0     C36399   7.339   9.678   9.849 -0.2058 -0.8765 -0.3542
 1011MOL0     C36400   7.455   9.608   9.810  0.0484 -0.1356 -0.1845
 1011MOL0     N36401   7.794   8.981   9.465 -0.2506 -0.5297 -0.9738
 1011MOL0     N36402   7.728   8.871   9.468 -0.3257  0.1916  0.4022
 1011MOL0     C36403   8.395   8.371  10.415 -0.4095  1.2135  0.5026
 1011MOL0     C36404   8.523   8.357  10.464  0.2056 -0.0328  0.0829
 1011MOL0     C36405   8.961   8.171  10.437 -0.3586 -0.1976 -0.1487
 1011MOL0     C36406   9.043   8.067  10.381  0.0467 -0.0055 -0.5126
 1011MOL0     C36407   9.177   8.068  10.402 -0.3250  0.0096 -0.7075
 1011MOL0     C36408   9.238   8.156  10.495  0.1843  0.3582  0.1158
 1011MOL0     O36409   9.372   8.131  10.506 -0.0644 -0.0623  0.5235
 1011MOL0     C36410   9.445   8.190  10.607  0.6043 -0.2861  0.6675
 1011MOL0     C36411   9.452   8.082  10.716  0.3129 -0.4558  0.4755
 1011MOL0     C36412   9.531   8.130  10.840 -0.7342 -0.1099  0.3686
 1011MOL0     C36413   9.678   8.135  10.815  0.0833  1.1160  0.1174
 1011MOL0     C36414   9.730   7.999  10.836 -0.6837 -0.1665 -0.5620
 1011MOL0     C36415   9.768   7.887  10.850  0.1403  0.0966 -0.1344
 1011MOL0     C36416   9.163   8.252  10.564  0.4916 -0.2659 -0.4464
 1011MOL0     C36417   9.020   8.260  10.538 -0.2155  0.4959 -0.6519
 1011MOL0     H36418   8.686   8.315  10.169 -1.9485  0.5608 -2.5861
 1011MOL0     H36419   8.452   8.359  10.086 -1.2196 -0.2864 -0.6086
 1011MOL0     H36420   8.261   8.476  10.058  1.0549 -2.5195 -1.3781
 1011MOL0     H36421   8.214   8.309  10.040 -1.3963  1.2351 -1.2754
 1011MOL0     H36422   8.004   8.370  10.147  2.1006  0.0525  1.6969
 1011MOL0     H36423   8.063   8.542  10.183  1.0127 -0.2674  0.9920
 1011MOL0     H36424   7.983   8.612   9.985  4.0703  0.6129  2.5736
 1011MOL0     H36425   8.094   8.508   9.904 -1.0852 -0.2540 -1.9956
 1011MOL0     H36426   7.907   8.328   9.899 -1.0420 -0.6715  1.8939
 1011MOL0     H36427   7.818   8.444   9.993 -0.0012  2.9566  0.2139
 1011MOL0     H36428   7.964   8.490   9.723  1.0699  0.4398  0.7138
 1011MOL0     H36429   7.815   8.398   9.712 -0.1750 -0.8030  1.3410
 1011MOL0     H36430   7.701   8.602   9.843 -2.0611 -3.3809 -1.0799
 1011MOL0     H36431   7.834   8.693   9.762  0.1248 -1.7390 -1.0974
 1011MOL0     H36432   7.725   8.589   9.542 -0.2137 -1.0095  1.3298
 1011MOL0     H36433   7.618   8.522   9.654  1.8100 -2.8179 -2.1744
 1011MOL0     H36434   7.550   8.748   9.726 -1.1760 -1.2072 -1.5752
 1011MOL0     H36435   7.529   8.726   9.557  0.7621  1.7733 -1.1164
 1011MOL0     H36436   7.707   8.978   9.779  1.7243 -0.6128  1.3038
 1011MOL0     H36437   7.913   9.116   9.741  1.3365 -0.2923 -0.4713
 1011MOL0     H36438   7.945   9.177   9.570 -0.5152  2.4897  0.8749
 1011MOL0     H36439   7.712   9.218   9.763  0.1625  0.8509  1.5387
 1011MOL0     H36440   7.728   9.289   9.596  2.5660  1.2123  0.3314
 1011MOL0     H36441   7.911   9.439   9.671  0.1218 -1.0023  0.4279
 1011MOL0     H36442   7.887   9.366   9.832 -1.4383  0.1693  0.4814
 1011MOL0     H36443   7.670   9.525   9.686  0.4137 -2.2202 -1.0130
 1011MOL0     H36444   7.760   9.583   9.820 -1.7102  0.4939  0.7031
 1011MOL0     H36445   7.497   9.399  10.063 -0.6096 -2.3397 -2.1313
 1011MOL0     H36446   7.342   9.435  10.226 -0.3116 -0.9473  1.5243
 1011MOL0     H36447   7.265   9.599  10.252 -3.1787 -2.1787  1.1317
 1011MOL0     H36448   7.176   9.469  10.177  0.3752 -0.1429  2.1642
 1011MOL0     H36449   7.110  10.034   9.792  0.4953  2.2591  2.2687
 1011MOL0     H36450   6.912  10.190   9.768 -1.2327  0.0047 -0.4655
 1011MOL0     H36451   6.551  10.073  10.014 -1.5210  0.4824  0.8838
 1011MOL0     H36452   6.625  10.201  10.097 -3.0743  1.4106  0.1114
 1011MOL0     H36453   6.534  10.371   9.945  1.7637  0.0755 -1.7162
 1011MOL0     H36454   6.462  10.245   9.842 -3.1088 -2.9936  1.1325
 1011MOL0     H36455   6.406  10.291  10.149 -2.3196 -0.9682  1.4399
 1011MOL0     H36456   6.346  10.160  10.061 -0.6589  0.5823  0.3909
 1011MOL0     H36457   6.292  10.459  10.006  3.3980 -0.2308  2.5208
 1011MOL0     H36458   6.220  10.320   9.914  1.6906 -0.2556 -0.1836
 1011MOL0     H36459   6.186  10.352  10.217 -0.8961  1.2124  0.1618
 1011MOL0     H36460   6.095  10.251  10.112 -0.5119  0.9312  2.1501
 1011MOL0     H36461   6.090  10.543  10.141  2.1355 -1.7965  0.0875
 1011MOL0     H36462   6.001  10.450  10.006  0.4652 -0.0410  0.4064
 1011MOL0     H36463   5.943  10.436  10.312 -2.5043 -0.6083  0.5019
 1011MOL0     H36464   5.882  10.334  10.178  0.6368  0.0430 -2.3620
 1011MOL0     H36465   5.783  10.537  10.077 -0.1293 -0.6147 -0.3314
 1011MOL0     H36466   5.838  10.643  10.196 -0.9738  0.1394 -0.7100
 1011MOL0     H36467   6.728   9.959  10.087  0.7434 -0.5086  0.6362
 1011MOL0     H36468   6.887   9.813  10.068 -1.3569  1.2793  1.6593
 1011MOL0     H36469   7.299   9.752   9.780  1.8084  0.5393 -0.1143
 1011MOL0     H36470   7.505   9.634   9.717  1.7783  1.7833  1.1690
 1011MOL0     H36471   8.316   8.387  10.487 -0.7078  1.4239  0.1321
 1011MOL0     H36472   8.537   8.382  10.568  0.1019 -0.3560  0.1755
 1011MOL0     H36473   8.995   8.000  10.312 -2.8626 -0.2021  1.5272
 1011MOL0     H36474   9.233   8.006  10.333 -1.5803 -1.8387 -0.1479
 1011MOL0     H36475   9.546   8.207  10.569  0.9095  0.5532  1.8159
 1011MOL0     H36476   9.410   8.288  10.642  1.6412 -0.3715  2.0566
 1011MOL0     H36477   9.492   7.992  10.669  2.6313  0.0412  1.3771
 1011MOL0     H36478   9.349   8.059  10.747  0.7805 -1.9587  0.9939
 1011MOL0     H36479   9.510   8.076  10.933 -3.5513  2.3524  1.3203
 1011MOL0     H36480   9.493   8.228  10.869 -0.5694 -0.2895  1.2231
 1011MOL0     H36481   9.727   8.205  10.883 -0.1435  2.6861 -1.2614
 1011MOL0     H36482   9.707   8.184  10.721  1.6934 -1.2544 -0.7237
 1011MOL0     H36483   9.782   7.781  10.861 -2.6758 -0.2744  0.7157
 1011MOL0     H36484   9.200   8.314  10.646 -1.2500  0.7795 -0.4152
 1011MOL0     H36485   8.963   8.328  10.600 -0.4904  0.1669 -0.5367
 1012MOL0     O36486   5.403   9.120   1.864  0.3701 -0.6647 -0.6234
 1012MOL0     C36487   5.436   9.181   1.965  0.2691  0.1715  0.3396
 1012MOL0     O36488   5.344   9.228   2.064 -0.2792  0.0500 -0.6999
 1012MOL0     C36489   5.203   9.200   2.065 -0.0998 -0.4082  1.3231
 1012MOL0     C36490   5.108   9.304   2.057 -0.5745  0.1592 -0.7412
 1012MOL0     C36491   4.966   9.278   2.057  0.4969  0.4938  0.3236
 1012MOL0     C36492   4.922   9.145   2.068 -0.1278  0.6481  0.5001
 1012MOL0     O36493   4.795   9.103   2.075 -0.0634  0.6120 -0.3008
 1012MOL0     C36494   4.706   9.167   1.974 -0.0262  0.2689  0.5597
 1012MOL0     C36495   4.592   9.232   2.041  0.0059 -0.0807 -0.6482
 1012MOL0     C36496   4.473   9.265   1.949  0.2416  0.0036 -0.9135
 1012MOL0     C36497   4.478   9.408   1.907  0.6079  0.2647 -0.6071
 1012MOL0     C36498   4.365   9.435   1.818  0.0572  0.5847 -0.3474
 1012MOL0     C36499   4.373   9.572   1.759  0.3490  0.1254 -0.2982
 1012MOL0     C36500   4.404   9.690   1.853 -0.6318  0.7655  0.0950
 1012MOL0     C36501   4.440   9.823   1.790  0.1994 -0.1601  0.2856
 1012MOL0     N36502   4.332   9.861   1.706  0.1729  0.0653  0.1027
 1012MOL0     C36503   4.315   9.844   1.569 -0.1771  0.1118  0.1097
 1012MOL0     C36504   4.198   9.903   1.543 -0.3825  0.2642  0.4801
 1012MOL0     C36505   4.137   9.906   1.406 -0.3170 -0.4173  0.1712
 1012MOL0     C36506   4.088   9.765   1.356 -0.0608 -0.2910  0.0578
 1012MOL0     C36507   3.936   9.747   1.364 -0.2987 -0.3439  0.3187
 1012MOL0     C36508   3.857   9.843   1.275  0.0116  0.4296 -0.3613
 1012MOL0     O36509   3.726   9.855   1.333 -0.0168  0.4605  0.1884
 1012MOL0     C36510   3.616   9.875   1.249 -0.3057  0.1830  0.0645
 1012MOL0     C36511   3.500   9.930   1.309  0.3804  0.3764 -0.4422
 1012MOL0     C36512   3.381   9.950   1.236 -1.3552  0.6214 -1.2247
 1012MOL0     C36513   3.267  10.014   1.322 -0.7321 -0.0796  0.0731
 1012MOL0     C36514   3.383   9.926   1.096  0.4691  0.5347 -0.1911
 1012MOL0     C36515   3.257   9.909   1.022  0.0402 -0.1822  0.0474
 1012MOL0     O36516   3.264   9.874   0.889 -0.4601  0.4479 -0.2487
 1012MOL0     C36517   3.147   9.859   0.830 -0.1249 -0.3156 -0.1357
 1012MOL0     C36518   3.046   9.966   0.830  0.0190 -0.0992 -0.4298
 1012MOL0     C36519   2.921   9.947   0.776 -0.2700  0.7598  0.2816
 1012MOL0     C36520   2.885   9.824   0.712 -0.6414  0.2500  0.0054
 1012MOL0     O36521   2.771   9.799   0.647 -0.1441  0.6346  0.2313
 1012MOL0     C36522   2.758   9.840   0.513 -0.0810 -0.2858  1.2159
 1012MOL0     C36523   2.629   9.789   0.441  0.7583  0.0205 -0.1265
 1012MOL0     C36524   2.500   9.782   0.525  0.5578 -0.1014 -0.1238
 1012MOL0     C36525   2.378   9.749   0.436 -0.3400  0.6880 -0.2794
 1012MOL0     C36526   2.261   9.717   0.526 -0.4787  0.4168 -0.3281
 1012MOL0     C36527   2.162   9.631   0.445  0.0307 -0.1510 -0.6552
 1012MOL0     C36528   2.035   9.617   0.522 -0.5282  0.5654  0.1218
 1012MOL0     C36529   1.922   9.561   0.424  0.4160 -0.1914  0.1202
 1012MOL0    Cl36530   1.859   9.676   0.304  0.2888  0.1048 -0.4318
 1012MOL0     C36531   2.986   9.725   0.704 -0.5022  0.1047  1.0722
 1012MOL0     C36532   3.116   9.741   0.761  0.3428 -0.1146 -0.1320
 1012MOL0     O36533   3.153   9.904   1.091 -0.2525  0.2208 -0.2393
 1012MOL0     C36534   3.510   9.883   1.038  0.3387  0.2378  0.3345
 1012MOL0     C36535   3.620   9.852   1.110  0.0111  0.2906  0.4488
 1012MOL0     N36536   4.141   9.943   1.662  0.0386  0.1390 -0.7917
 1012MOL0     N36537   4.230   9.925   1.759  0.0026 -0.8221  0.6135
 1012MOL0     C36538   5.015   9.035   2.065  0.2659  0.2741 -0.5890
 1012MOL0     C36539   5.149   9.068   2.058  0.0550 -1.0386 -0.3875
 1012MOL0     C36540   5.570   9.234   1.982  0.1129 -1.2196 -0.1483
 1012MOL0     C36541   5.669   9.220   1.881 -0.4470 -0.2746 -0.8549
 1012MOL0     C36542   5.799   9.271   1.905 -0.6332 -0.0313 -0.4952
 1012MOL0     C36543   5.833   9.332   2.020  0.2267 -1.0137 -0.0512
 1012MOL0     O36544   5.966   9.374   2.020 -0.2720 -0.7224  0.6102
 1012MOL0     C36545   6.018   9.441   2.132  0.1980 -0.4517 -0.3968
 1012MOL0     C36546   6.167   9.462   2.123  0.8850 -0.0227 -0.3994
 1012MOL0     C36547   6.208   9.587   2.060  0.6176 -1.0925  0.2141
 1012MOL0     C36548   6.332   9.658   2.106 -0.4987 -0.0955  0.4333
 1012MOL0     C36549   6.409   9.714   1.991 -0.2579  0.3769  0.0511
 1012MOL0     C36550   6.462   9.770   1.904  0.5932  0.7395  0.3982
 1012MOL0     C36551   5.728   9.354   2.118 -0.6715  0.1284 -0.6782
 1012MOL0     C36552   5.604   9.301   2.101 -0.1284  0.6226  0.0158
 1012MOL0     H36553   5.153   9.403   2.061  2.6375 -1.2118  1.8863
 1012MOL0     H36554   4.894   9.359   2.050  0.9681  0.8658 -0.4991
 1012MOL0     H36555   4.756   9.232   1.902 -0.6533 -0.0292 -0.1505
 1012MOL0     H36556   4.661   9.083   1.921  0.2466 -0.6889  1.8017
 1012MOL0     H36557   4.555   9.155   2.108 -1.6546  2.8363  2.0712
 1012MOL0     H36558   4.623   9.309   2.113 -0.1525 -0.4639 -0.1683
 1012MOL0     H36559   4.479   9.216   1.851 -0.3351  2.2831 -2.1732
 1012MOL0     H36560   4.382   9.244   2.006  0.7981 -1.6083 -0.5708
 1012MOL0     H36561   4.484   9.478   1.991  0.3335  0.5062 -0.7856
 1012MOL0     H36562   4.574   9.428   1.859 -0.2517 -2.1260 -3.6861
 1012MOL0     H36563   4.372   9.363   1.735 -0.2743  0.9050 -0.6532
 1012MOL0     H36564   4.267   9.423   1.864 -1.2036 -1.2296 -3.2493
 1012MOL0     H36565   4.438   9.566   1.672  1.7368 -0.3735  0.7335
 1012MOL0     H36566   4.273   9.591   1.720 -0.2025 -3.7066 -1.1503
 1012MOL0     H36567   4.324   9.692   1.928  1.4680  2.7034  2.4796
 1012MOL0     H36568   4.496   9.661   1.905 -1.5756 -4.0556 -0.5010
 1012MOL0     H36569   4.532   9.815   1.731  1.0115 -3.3647  1.7552
 1012MOL0     H36570   4.463   9.896   1.868  0.7705 -0.9318  0.8597
 1012MOL0     H36571   4.382   9.791   1.502 -0.2768 -0.8978  0.7909
 1012MOL0     H36572   4.060   9.983   1.414  0.1293  0.0646 -0.1143
 1012MOL0     H36573   4.208   9.948   1.334 -0.1271 -2.9249 -1.2180
 1012MOL0     H36574   4.136   9.695   1.425  1.0151 -0.6453 -1.0236
 1012MOL0     H36575   4.123   9.741   1.255  1.7635 -0.8953  0.7951
 1012MOL0     H36576   3.908   9.741   1.469 -1.0135 -1.8740  0.0730
 1012MOL0     H36577   3.916   9.647   1.323 -3.1633  0.7539 -1.2451
 1012MOL0     H36578   3.855   9.816   1.169 -1.7236  2.1553 -0.8324
 1012MOL0     H36579   3.905   9.941   1.280  0.8318  0.0153  3.9379
 1012MOL0     H36580   3.508   9.950   1.416  0.7162 -1.3564 -0.1168
 1012MOL0     H36581   3.220   9.931   1.376 -0.8407 -1.2836 -1.7966
 1012MOL0     H36582   3.305  10.083   1.399 -0.7089 -1.8060  1.7028
 1012MOL0     H36583   3.204  10.077   1.260 -2.3575 -1.8883 -0.1763
 1012MOL0     H36584   3.074  10.064   0.867  2.5465 -1.0338  0.3179
 1012MOL0     H36585   2.853  10.031   0.769  0.1225  1.0386 -0.2390
 1012MOL0     H36586   2.739   9.947   0.499 -2.0045 -0.8429 -1.0864
 1012MOL0     H36587   2.850   9.814   0.460 -0.3629 -0.6497  0.8933
 1012MOL0     H36588   2.616   9.850   0.351  1.5641 -0.7200 -0.7630
 1012MOL0     H36589   2.643   9.690   0.397  0.8993  0.1856 -0.4603
 1012MOL0     H36590   2.473   9.885   0.549 -2.4352 -1.0650  1.1749
 1012MOL0     H36591   2.509   9.729   0.621 -1.0780  0.2007  0.2276
 1012MOL0     H36592   2.357   9.833   0.369  2.1392  0.5284 -1.3676
 1012MOL0     H36593   2.415   9.662   0.382 -1.2124  0.1070  0.0391
 1012MOL0     H36594   2.212   9.805   0.571  0.4090 -0.7181  3.2179
 1012MOL0     H36595   2.289   9.654   0.611  3.5606  0.8167 -1.1784
 1012MOL0     H36596   2.146   9.672   0.345 -1.7431  0.6808 -0.0551
 1012MOL0     H36597   2.201   9.530   0.432  0.2487  0.0077 -1.3070
 1012MOL0     H36598   2.002   9.706   0.576  0.9487  0.8304  0.6391
 1012MOL0     H36599   2.056   9.535   0.591  0.4308 -1.5693 -2.5021
 1012MOL0     H36600   1.834   9.523   0.477  0.1107 -2.2311 -1.6959
 1012MOL0     H36601   1.958   9.467   0.381  1.1492 -0.5586  1.4760
 1012MOL0     H36602   2.973   9.636   0.644  0.4747  1.3544 -1.1013
 1012MOL0     H36603   3.190   9.661   0.758 -0.4013 -0.7861 -1.5074
 1012MOL0     H36604   3.521   9.863   0.932  3.1238  1.7948  0.2489
 1012MOL0     H36605   3.710   9.808   1.069  0.2423 -1.5690  2.7188
 1012MOL0     H36606   4.979   8.933   2.065  1.2626 -0.1015  0.9013
 1012MOL0     H36607   5.221   8.987   2.046  0.9918 -0.6718  2.0086
 1012MOL0     H36608   5.656   9.168   1.786 -0.0286 -0.9048 -0.5703
 1012MOL0     H36609   5.868   9.269   1.821 -2.9964 -2.1983 -2.5603
 1012MOL0     H36610   5.964   9.535   2.147  0.9547  0.0209 -0.5892
 1012MOL0     H36611   5.986   9.383   2.220 -0.4619  0.8583  0.2710
 1012MOL0     H36612   6.221   9.373   2.089  2.0537  0.2016  0.7947
 1012MOL0     H36613   6.211   9.478   2.222  0.3023 -0.5787 -0.0384
 1012MOL0     H36614   6.129   9.662   2.075  2.1783  0.4638  0.9199
 1012MOL0     H36615   6.215   9.582   1.951 -2.0835  3.5659 -0.4478
 1012MOL0     H36616   6.382   9.581   2.167 -0.7303  1.6601  3.0140
 1012MOL0     H36617   6.307   9.746   2.165  0.2922  0.9608 -0.7653
 1012MOL0     H36618   6.507   9.806   1.814 -1.8907 -2.1742 -2.2462
 1012MOL0     H36619   5.739   9.408   2.211 -1.5389 -2.3473  0.9620
 1012MOL0     H36620   5.524   9.324   2.171  0.5285 -0.9505  1.3501
 1013MOL0     O36621   2.272   3.985   3.182 -1.0669  0.2482  0.0763
 1013MOL0     C36622   2.353   3.922   3.255  0.8625 -0.0067 -0.5945
 1013MOL0     O36623   2.324   3.819   3.338 -0.8256  0.2961  0.4331
 1013MOL0     C36624   2.187   3.779   3.339  0.2505 -0.3598 -0.1395
 1013MOL0     C36625   2.147   3.655   3.295  0.3112  0.4570  0.3439
 1013MOL0     C36626   2.007   3.625   3.300 -0.0157  0.3407  0.2071
 1013MOL0     C36627   1.912   3.719   3.358 -1.4563  0.9522  0.1135
 1013MOL0     O36628   1.785   3.681   3.377 -0.4632  0.0195 -0.1892
 1013MOL0     C36629   1.719   3.742   3.487 -0.1589 -0.2120  0.2588
 1013MOL0     C36630   1.611   3.641   3.536  0.4487  0.4045 -0.2710
 1013MOL0     C36631   1.491   3.619   3.439 -0.6453 -0.1950 -0.3799
 1013MOL0     C36632   1.382   3.524   3.493  0.3080  0.2137  0.2923
 1013MOL0     C36633   1.291   3.478   3.380  0.1625 -0.1329 -0.6835
 1013MOL0     C36634   1.166   3.399   3.421 -0.0114  0.4681 -0.4677
 1013MOL0     C36635   1.097   3.352   3.299  0.3908  0.7186  1.2646
 1013MOL0     C36636   0.952   3.294   3.338  0.0377 -0.7985  0.3932
 1013MOL0     N36637   0.891   3.211   3.236 -0.2854 -0.2992 -0.6327
 1013MOL0     C36638   0.805   3.245   3.137  0.7942 -0.6763 -0.0789
 1013MOL0     C36639   0.778   3.129   3.072 -0.3974 -0.4756  0.2950
 1013MOL0     C36640   0.683   3.121   2.953  0.1153  0.5022 -0.2732
 1013MOL0     C36641   0.552   3.052   2.995  0.2209  0.1427 -0.5155
 1013MOL0     C36642   0.449   3.022   2.888 -0.0944  0.0819  0.2534
 1013MOL0     C36643   0.324   2.950   2.930  1.0761  0.0823 -0.0084
 1013MOL0     O36644   0.234   3.053   2.967 -0.2466  0.1236  0.0244
 1013MOL0     C36645   0.111   3.018   3.016  0.2597 -0.0073 -0.3479
 1013MOL0     C36646   0.094   2.919   3.111 -0.4855 -0.6349 -0.5910
 1013MOL0     C36647  -0.042   2.884   3.152 -0.6026 -0.1317 -0.1174
 1013MOL0     C36648  -0.056   2.778   3.260  0.2651 -0.0466  0.2216
 1013MOL0     C36649  -0.155   2.962   3.095 -0.4114 -0.1909 -0.2659
 1013MOL0     C36650  -0.302   2.941   3.135  0.5677  0.0618 -0.8315
 1013MOL0     O36651  -0.392   3.026   3.077  0.8558 -1.0329  0.4448
 1013MOL0     C36652  -0.527   2.993   3.087 -0.5202 -0.7029 -0.9017
 1013MOL0     C36653  -0.578   2.871   3.035  0.1016  0.2761  0.3592
 1013MOL0     C36654  -0.718   2.834   3.040 -0.0239  0.7139  0.0477
 1013MOL0     C36655  -0.810   2.931   3.097  0.3730 -0.7914  0.6798
 1013MOL0     O36656  -0.946   2.909   3.117  0.0125 -0.4385 -0.8264
 1013MOL0     C36657  -1.013   2.853   3.009  0.0558 -0.0919  0.3443
 1013MOL0     C36658  -1.059   2.972   2.913  0.3022  0.1295 -0.6265
 1013MOL0     C36659  -1.137   2.927   2.785 -0.1581  0.0689 -0.1661
 1013MOL0     C36660  -1.274   2.863   2.824 -0.1784 -0.1176  0.4481
 1013MOL0     C36661  -1.335   2.811   2.697  0.6719 -1.2215  0.0645
 1013MOL0     C36662  -1.447   2.719   2.725  0.9997  0.6615 -1.1829
 1013MOL0     C36663  -1.571   2.779   2.800  0.6182 -0.6983 -0.2569
 1013MOL0     C36664  -1.685   2.678   2.809  0.4355 -0.0136  0.0771
 1013MOL0    Cl36665  -1.748   2.642   2.645  0.3385 -0.0927  0.0287
 1013MOL0     C36666  -0.756   3.056   3.143 -0.4888  0.0681  0.6655
 1013MOL0     C36667  -0.620   3.084   3.134 -0.1554  0.4209  0.3978
 1013MOL0     O36668  -0.325   2.846   3.206 -0.2856  0.4983  0.9764
 1013MOL0     C36669  -0.127   3.043   2.987  0.2616 -0.9165  0.1890
 1013MOL0     C36670   0.006   3.079   2.958 -0.2277 -0.0900 -0.4570
 1013MOL0     N36671   0.850   3.030   3.129 -0.4501 -0.1232  0.7848
 1013MOL0     N36672   0.911   3.082   3.233  0.7410  0.4978  0.3189
 1013MOL0     C36673   1.960   3.844   3.396  0.0332 -0.0448 -0.4928
 1013MOL0     C36674   2.097   3.870   3.389  0.1774 -0.9201  0.2427
 1013MOL0     C36675   2.492   3.966   3.244 -0.8042  0.3695 -1.0000
 1013MOL0     C36676   2.531   4.100   3.208 -0.1802 -0.3913  0.6633
 1013MOL0     C36677   2.669   4.134   3.195 -0.7367 -0.0016 -0.0131
 1013MOL0     C36678   2.775   4.042   3.212 -0.5253 -0.2790  0.3557
 1013MOL0     O36679   2.909   4.079   3.207  0.9843 -0.2639  0.4528
 1013MOL0     C36680   2.972   4.038   3.088 -0.4781  0.4645  0.1475
 1013MOL0     C36681   3.079   3.939   3.128 -0.5081 -1.0043  0.3549
 1013MOL0     C36682   3.228   3.999   3.134 -0.0792  0.4185  0.0606
 1013MOL0     C36683   3.328   3.881   3.171  0.3225 -1.1323 -0.0259
 1013MOL0     C36684   3.328   3.777   3.065  0.5162 -0.6078 -0.9838
 1013MOL0     C36685   3.337   3.689   2.980 -0.2192  0.9058 -0.3558
 1013MOL0     C36686   2.737   3.908   3.233 -0.0141 -0.1074  0.0803
 1013MOL0     C36687   2.603   3.874   3.261  0.2726 -0.1381  0.0843
 1013MOL0     H36688   2.223   3.583   3.265  1.5553  0.9097  2.2242
 1013MOL0     H36689   1.964   3.541   3.246 -2.9567  2.1013 -0.4541
 1013MOL0     H36690   1.783   3.762   3.573  2.7375 -0.9412 -1.5815
 1013MOL0     H36691   1.670   3.833   3.451 -1.6893 -0.5686  1.3204
 1013MOL0     H36692   1.650   3.540   3.555 -0.3033  0.1745  0.0911
 1013MOL0     H36693   1.574   3.670   3.634  1.1454 -1.4655  0.6009
 1013MOL0     H36694   1.440   3.715   3.428  1.1939  1.3071  2.8329
 1013MOL0     H36695   1.522   3.575   3.344  0.1123  0.3387 -0.3924
 1013MOL0     H36696   1.429   3.440   3.545 -0.7685 -0.6179 -0.0376
 1013MOL0     H36697   1.328   3.583   3.568  1.4043  1.6202  0.0078
 1013MOL0     H36698   1.266   3.570   3.324  2.2477  0.4594 -0.7421
 1013MOL0     H36699   1.351   3.410   3.318  0.8213  0.4233 -0.6688
 1013MOL0     H36700   1.198   3.315   3.483 -0.7943 -0.2845 -1.0538
 1013MOL0     H36701   1.099   3.469   3.473  1.2048  1.1217  0.2647
 1013MOL0     H36702   1.074   3.437   3.235 -2.8562 -1.1869 -0.3656
 1013MOL0     H36703   1.156   3.271   3.257 -1.0883 -0.9097  2.1840
 1013MOL0     H36704   0.874   3.367   3.362 -1.0282 -1.3289 -1.3472
 1013MOL0     H36705   0.972   3.238   3.430  0.8760  0.8106  1.2362
 1013MOL0     H36706   0.766   3.342   3.108 -2.0046 -1.6769  0.0718
 1013MOL0     H36707   0.660   3.223   2.922  3.3358  0.9119 -1.8042
 1013MOL0     H36708   0.730   3.057   2.877  1.5913 -0.6572  1.5303
 1013MOL0     H36709   0.504   3.113   3.072  0.5436 -0.8133  0.4757
 1013MOL0     H36710   0.574   2.960   3.049 -1.7095  1.0720  2.0569
 1013MOL0     H36711   0.496   2.950   2.821  2.9087  1.7357  0.4134
 1013MOL0     H36712   0.427   3.119   2.844 -1.9285 -0.7910 -0.8792
 1013MOL0     H36713   0.348   2.883   3.012  0.7820 -0.3096 -0.2399
 1013MOL0     H36714   0.271   2.894   2.852  0.3224  2.4149 -1.2828
 1013MOL0     H36715   0.188   2.880   3.150 -0.0568  2.5141  1.8727
 1013MOL0     H36716  -0.111   2.820   3.345  0.3981 -0.3637  0.4656
 1013MOL0     H36717  -0.114   2.693   3.223 -1.3681  1.2297 -0.2932
 1013MOL0     H36718   0.037   2.738   3.301 -0.2359 -0.3319  1.1146
 1013MOL0     H36719  -0.501   2.812   2.988 -1.7306 -0.7516 -1.5296
 1013MOL0     H36720  -0.748   2.736   3.003  0.0348  0.3895  0.8439
 1013MOL0     H36721  -0.952   2.783   2.951  1.7302  0.4566  1.3999
 1013MOL0     H36722  -1.100   2.801   3.050  0.8627 -0.7440  1.2666
 1013MOL0     H36723  -1.134   3.029   2.968  1.6723  0.4775  0.9648
 1013MOL0     H36724  -0.973   3.030   2.881  0.9981 -0.6340 -0.2095
 1013MOL0     H36725  -1.077   2.846   2.742 -0.8287 -0.2808 -0.4696
 1013MOL0     H36726  -1.144   3.010   2.714 -0.8226  1.0702  1.0150
 1013MOL0     H36727  -1.268   2.781   2.896  2.3654  0.4996  1.0491
 1013MOL0     H36728  -1.341   2.937   2.870 -1.6121 -1.5295  0.7029
 1013MOL0     H36729  -1.256   2.752   2.649 -1.7162 -1.1558 -4.4697
 1013MOL0     H36730  -1.368   2.895   2.635  0.4500  0.0070  1.7480
 1013MOL0     H36731  -1.484   2.671   2.634 -1.9277  1.4207 -0.5099
 1013MOL0     H36732  -1.415   2.638   2.791  2.8630  2.3990  0.1434
 1013MOL0     H36733  -1.608   2.867   2.746  0.3715  0.3809  1.5679
 1013MOL0     H36734  -1.539   2.804   2.902  2.7337 -0.1008 -1.0064
 1013MOL0     H36735  -1.766   2.712   2.874  0.3892 -3.7781  2.2707
 1013MOL0     H36736  -1.648   2.588   2.859  1.2370  1.0321  1.4353
 1013MOL0     H36737  -0.824   3.121   3.197  1.0683  1.2031  1.3429
 1013MOL0     H36738  -0.574   3.175   3.171 -2.4889  2.2051 -0.8143
 1013MOL0     H36739  -0.206   3.090   2.930  0.8094 -0.3350 -0.1027
 1013MOL0     H36740   0.035   3.160   2.891  2.2065 -0.7148 -0.2760
 1013MOL0     H36741   1.892   3.912   3.448 -0.3359  0.0249 -1.0577
 1013MOL0     H36742   2.131   3.968   3.420  2.9593 -1.2090 -1.5894
 1013MOL0     H36743   2.447   4.165   3.190  1.0054  0.8338 -0.6799
 1013MOL0     H36744   2.696   4.234   3.165  1.3525  0.6657  3.4695
 1013MOL0     H36745   2.905   3.992   3.014  0.4266 -2.6282  1.0951
 1013MOL0     H36746   3.023   4.121   3.038 -0.1502 -1.6909 -3.4407
 1013MOL0     H36747   3.081   3.858   3.054  0.4125 -1.7953  1.2167
 1013MOL0     H36748   3.044   3.896   3.222 -0.1667  0.7064  1.2949
 1013MOL0     H36749   3.231   4.080   3.207 -0.3774  0.3282  0.1738
 1013MOL0     H36750   3.246   4.038   3.033 -0.0691 -2.7834 -1.2971
 1013MOL0     H36751   3.298   3.832   3.265 -1.6174  1.8717  1.1044
 1013MOL0     H36752   3.422   3.929   3.197  0.4312 -2.3125  1.9366
 1013MOL0     H36753   3.346   3.609   2.909 -0.8872  0.7511 -0.2681
 1013MOL0     H36754   2.820   3.838   3.239  0.8640  0.7796 -1.1240
 1013MOL0     H36755   2.585   3.770   3.285 -1.1932  0.2865  0.9621
 1014MOL0     O36756  10.037   1.094   0.252 -0.0526 -0.4296  0.9271
 1014MOL0     C36757  10.065   1.165   0.348 -0.1203  0.5331 -0.6272
 1014MOL0     O36758  10.009   1.156   0.474  0.7475 -0.4499 -0.5351
 1014MOL0     C36759   9.930   1.043   0.496  0.1527  0.6859 -1.1398
 1014MOL0     C36760   9.970   0.917   0.464  0.3217  0.1435  0.8062
 1014MOL0     C36761   9.890   0.803   0.500  0.2107 -0.6839 -0.2636
 1014MOL0     C36762   9.773   0.825   0.577 -0.7610 -0.1666  0.0727
 1014MOL0     O36763   9.687   0.723   0.613  0.1820  0.1370  0.1755
 1014MOL0     C36764   9.649   0.627   0.510  0.4644  1.0039  0.4107
 1014MOL0     C36765   9.536   0.548   0.563  0.0879  0.0339 -0.2566
 1014MOL0     C36766   9.404   0.622   0.573  0.4038 -0.5233  0.1502
 1014MOL0     C36767   9.294   0.527   0.625  0.3406 -0.0848 -0.1700
 1014MOL0     C36768   9.154   0.590   0.654  0.1874  0.3267 -0.0328
 1014MOL0     C36769   9.076   0.617   0.531  0.3759 -1.2241 -0.0224
 1014MOL0     C36770   8.956   0.709   0.580  0.1300  0.2728  0.5127
 1014MOL0     C36771   8.873   0.748   0.459  0.9552  0.6928 -0.1618
 1014MOL0     N36772   8.933   0.855   0.379 -0.2998 -0.1308  0.2940
 1014MOL0     C36773   8.936   0.990   0.408  0.1911  0.8153  1.0653
 1014MOL0     C36774   9.027   1.049   0.330 -0.5275  0.6724 -0.4495
 1014MOL0     C36775   9.065   1.193   0.340  0.4296 -0.7353 -0.6477
 1014MOL0     C36776   9.151   1.240   0.218 -0.7983  0.2853 -0.5683
 1014MOL0     C36777   9.218   1.372   0.226  0.4205 -1.1864  0.3380
 1014MOL0     C36778   9.291   1.418   0.101  0.4075 -0.0676 -0.1371
 1014MOL0     O36779   9.210   1.481   0.003  0.4399  0.5735  0.5599
 1014MOL0     C36780   9.260   1.484  -0.135  0.1949 -0.3306  0.6998
 1014MOL0     C36781   9.170   1.518  -0.231  0.5958 -0.2162  0.4682
 1014MOL0     C36782   9.207   1.524  -0.369  0.4305  0.3798 -0.2642
 1014MOL0     C36783   9.095   1.533  -0.478 -0.4003  0.4831 -0.2797
 1014MOL0     C36784   9.346   1.501  -0.403  0.1852 -0.2114  0.1369
 1014MOL0     C36785   9.402   1.494  -0.545 -0.2422 -0.0896  0.1070
 1014MOL0     O36786   9.522   1.427  -0.567 -0.1638  0.9045  0.1343
 1014MOL0     C36787   9.594   1.446  -0.678  0.6996  0.2795  0.4525
 1014MOL0     C36788   9.687   1.550  -0.679  0.1689 -0.7598 -0.3974
 1014MOL0     C36789   9.762   1.579  -0.790  0.6599  0.3171  0.0266
 1014MOL0     C36790   9.761   1.500  -0.906  0.0956 -0.7413 -0.1016
 1014MOL0     O36791   9.844   1.525  -1.017  0.7990  0.0149  0.2262
 1014MOL0     C36792   9.936   1.631  -1.005  0.1943  0.3801  0.0041
 1014MOL0     C36793  10.039   1.617  -1.120 -0.9569 -0.2096 -0.6890
 1014MOL0     C36794  10.157   1.712  -1.096  0.3256  0.0158 -0.7328
 1014MOL0     C36795  10.131   1.847  -1.166  0.8012  0.3503  0.5881
 1014MOL0     C36796  10.257   1.923  -1.190 -0.3490  0.1406 -0.8180
 1014MOL0     C36797  10.236   2.049  -1.272  0.2074  0.4624 -0.0639
 1014MOL0     C36798  10.369   2.115  -1.320  0.3090  0.3693 -0.0402
 1014MOL0     C36799  10.357   2.267  -1.336 -0.7364  0.4061  0.0019
 1014MOL0    Cl36800  10.375   2.344  -1.179 -0.0522 -0.2523 -0.3408
 1014MOL0     C36801   9.677   1.388  -0.900  0.3469 -0.5531  0.3201
 1014MOL0     C36802   9.593   1.359  -0.790  0.2230 -0.1471 -0.0570
 1014MOL0     O36803   9.336   1.535  -0.638  0.4224  0.2803  0.0401
 1014MOL0     C36804   9.435   1.479  -0.296  0.4199  0.3720 -0.3336
 1014MOL0     C36805   9.394   1.461  -0.164 -0.4499  0.3230 -0.4769
 1014MOL0     N36806   9.070   0.950   0.234  0.0832 -0.3362 -0.3691
 1014MOL0     N36807   9.006   0.834   0.269 -0.2075 -0.0303 -0.0610
 1014MOL0     C36808   9.738   0.951   0.615 -0.0520  0.7099 -0.2339
 1014MOL0     C36809   9.818   1.055   0.581  0.6676 -0.5444  0.2403
 1014MOL0     C36810  10.172   1.268   0.333 -0.2235  0.5864 -0.7299
 1014MOL0     C36811  10.231   1.294   0.212 -0.3359  0.5520  0.6057
 1014MOL0     C36812  10.332   1.390   0.197  0.7353 -0.3599 -0.3867
 1014MOL0     C36813  10.394   1.451   0.304 -0.7326  0.1311  0.9678
 1014MOL0     O36814  10.497   1.544   0.298 -0.3971  0.2330  0.0790
 1014MOL0     C36815  10.603   1.503   0.216 -0.6278  0.1985 -0.7274
 1014MOL0     C36816  10.728   1.569   0.278  0.6189 -0.4054 -0.7537
 1014MOL0     C36817  10.863   1.540   0.216  0.0978 -0.3468  0.4388
 1014MOL0     C36818  10.976   1.644   0.248 -0.0995 -0.5962  0.2821
 1014MOL0     C36819  10.976   1.684   0.391 -0.0280  0.3643  1.0585
 1014MOL0     C36820  10.989   1.708   0.506  0.0880 -0.3743 -0.5906
 1014MOL0     C36821  10.339   1.423   0.432 -0.0411  0.1263 -0.4271
 1014MOL0     C36822  10.230   1.331   0.449  0.3389  0.5569  0.5135
 1014MOL0     H36823  10.061   0.904   0.406  0.7698  2.3456  0.9040
 1014MOL0     H36824   9.919   0.704   0.468  3.1568  0.5053 -1.6201
 1014MOL0     H36825   9.613   0.673   0.418 -1.6581 -1.3562 -0.0584
 1014MOL0     H36826   9.740   0.569   0.493  0.3426  0.5427  1.2853
 1014MOL0     H36827   9.511   0.474   0.487 -1.4181  0.8849 -0.6281
 1014MOL0     H36828   9.555   0.504   0.662  0.9660  3.5440  1.2953
 1014MOL0     H36829   9.417   0.708   0.640 -1.4802  0.7311 -0.9771
 1014MOL0     H36830   9.371   0.667   0.479  0.8929 -2.6852 -1.1116
 1014MOL0     H36831   9.281   0.443   0.556 -1.6241 -0.5123  0.6627
 1014MOL0     H36832   9.341   0.491   0.716  0.4218  1.6733  0.5160
 1014MOL0     H36833   9.098   0.519   0.715  1.7472 -0.3922  0.6184
 1014MOL0     H36834   9.172   0.673   0.723  0.8982  1.2221 -1.2706
 1014MOL0     H36835   9.143   0.681   0.474  0.3641  0.9429  2.2404
 1014MOL0     H36836   9.051   0.527   0.473 -2.1962  0.8154 -2.3252
 1014MOL0     H36837   8.891   0.640   0.635  0.6964 -0.3428  0.4366
 1014MOL0     H36838   8.975   0.792   0.648  0.1476  1.6035 -1.0622
 1014MOL0     H36839   8.777   0.778   0.501 -0.2584  0.6617 -2.7201
 1014MOL0     H36840   8.846   0.661   0.398 -0.1719  1.9110 -1.4889
 1014MOL0     H36841   8.885   1.031   0.495 -0.1111  1.5840  0.5406
 1014MOL0     H36842   8.979   1.261   0.342  0.7633 -0.2027 -2.4049
 1014MOL0     H36843   9.127   1.213   0.427  3.1068 -2.7661 -1.9448
 1014MOL0     H36844   9.071   1.241   0.144  0.3371  1.9193 -1.8552
 1014MOL0     H36845   9.228   1.167   0.193  2.5107  2.2862  2.6862
 1014MOL0     H36846   9.284   1.392   0.311  0.0920  0.2784  0.2806
 1014MOL0     H36847   9.142   1.450   0.240  0.3062 -1.0086 -1.1620
 1014MOL0     H36848   9.349   1.332   0.066  0.6536 -0.2249  0.6376
 1014MOL0     H36849   9.358   1.496   0.138 -1.7362  2.4524 -1.2502
 1014MOL0     H36850   9.066   1.525  -0.203  0.0881 -3.1702 -0.4482
 1014MOL0     H36851   9.108   1.454  -0.551 -2.2809 -0.5606  0.4417
 1014MOL0     H36852   8.995   1.520  -0.434 -0.2493  0.5362  0.0808
 1014MOL0     H36853   9.102   1.630  -0.529  1.6969  0.4079 -0.1999
 1014MOL0     H36854   9.694   1.617  -0.595  0.1933 -0.1162 -0.9007
 1014MOL0     H36855   9.819   1.671  -0.793 -2.3970  2.5194  2.7677
 1014MOL0     H36856   9.891   1.731  -1.015 -2.5214 -0.6673  0.7605
 1014MOL0     H36857   9.999   1.626  -0.916 -0.2944 -1.4135  0.2717
 1014MOL0     H36858  10.055   1.509  -1.121 -2.2734 -0.4180 -1.4709
 1014MOL0     H36859   9.992   1.638  -1.216 -0.8928 -0.1018 -0.6966
 1014MOL0     H36860  10.247   1.665  -1.138  2.4523  1.4122  1.9397
 1014MOL0     H36861  10.174   1.729  -0.989  0.1656 -1.7666 -0.3890
 1014MOL0     H36862  10.076   1.835  -1.259 -0.2561  0.7306  1.1476
 1014MOL0     H36863  10.059   1.905  -1.107 -0.6934 -0.5729 -0.2535
 1014MOL0     H36864  10.330   1.857  -1.239 -2.6784 -0.7945 -3.3431
 1014MOL0     H36865  10.306   1.965  -1.102 -2.4949  2.7080 -0.7192
 1014MOL0     H36866  10.168   2.019  -1.353 -1.2385 -2.0124  1.8845
 1014MOL0     H36867  10.182   2.120  -1.209 -0.6133  0.2198 -0.4783
 1014MOL0     H36868  10.392   2.067  -1.415 -1.8577  1.2557 -1.0665
 1014MOL0     H36869  10.453   2.088  -1.254 -1.3952 -3.2152  0.8633
 1014MOL0     H36870  10.269   2.299  -1.393  0.1546  1.6091 -0.7434
 1014MOL0     H36871  10.444   2.303  -1.392 -0.6606  1.5797  0.8513
 1014MOL0     H36872   9.698   1.313  -0.976 -0.3568 -1.5445  1.0770
 1014MOL0     H36873   9.529   1.271  -0.796 -2.1353  1.4342  0.5583
 1014MOL0     H36874   9.542   1.472  -0.315  0.4854 -0.4931  0.3021
 1014MOL0     H36875   9.472   1.435  -0.093 -0.0403 -0.7137 -1.2804
 1014MOL0     H36876   9.654   0.970   0.681 -1.5951  0.1236 -1.9400
 1014MOL0     H36877   9.797   1.151   0.626 -1.5301 -0.5440 -0.6527
 1014MOL0     H36878  10.184   1.244   0.128  1.9966 -2.2196  0.8138
 1014MOL0     H36879  10.364   1.402   0.094 -2.6544 -1.7570 -1.7552
 1014MOL0     H36880  10.620   1.395   0.212  0.5403  0.2959  0.6508
 1014MOL0     H36881  10.591   1.537   0.113 -0.0896  0.4588 -0.7057
 1014MOL0     H36882  10.726   1.535   0.382  0.4520 -0.7963 -0.8823
 1014MOL0     H36883  10.712   1.677   0.270  0.7082 -0.0135  2.7444
 1014MOL0     H36884  10.852   1.538   0.107  1.6974  0.6174  0.2306
 1014MOL0     H36885  10.881   1.433   0.229 -0.8764 -0.8617 -1.8376
 1014MOL0     H36886  10.965   1.737   0.192  2.1644  0.7068  1.8240
 1014MOL0     H36887  11.071   1.600   0.216 -0.5157 -3.7313  2.8220
 1014MOL0     H36888  11.004   1.719   0.611 -1.2648 -4.0677  0.1465
 1014MOL0     H36889  10.389   1.473   0.514  1.8664 -1.6118 -0.4434
 1014MOL0     H36890  10.176   1.308   0.540  1.1269 -2.3946  0.3631
 1015MOL0     O36891   4.295   9.897   8.433  0.3153 -0.5509  0.3430
 1015MOL0     C36892   4.309   9.773   8.446  0.1797 -0.0403  0.6155
 1015MOL0     O36893   4.221   9.677   8.448 -0.3163  0.0258 -0.7493
 1015MOL0     C36894   4.083   9.695   8.463 -0.4205 -0.0593 -0.1604
 1015MOL0     C36895   4.015   9.573   8.474  0.0355  0.3265  0.2438
 1015MOL0     C36896   3.874   9.577   8.499 -0.0986 -1.0098 -0.6858
 1015MOL0     C36897   3.804   9.699   8.498  0.6679  0.4063  0.0289
 1015MOL0     O36898   3.680   9.719   8.544  0.2950  0.1795 -0.0633
 1015MOL0     C36899   3.570   9.666   8.468 -0.2195  0.5149  0.4466
 1015MOL0     C36900   3.427   9.699   8.524 -0.7869  0.4123 -0.1184
 1015MOL0     C36901   3.418   9.644   8.662  0.2920 -0.4294  0.1876
 1015MOL0     C36902   3.273   9.672   8.716  0.6849  0.6925  0.0376
 1015MOL0     C36903   3.170   9.558   8.664  0.0175  0.0295 -0.3736
 1015MOL0     C36904   3.027   9.590   8.711  0.2061 -0.1931 -0.1402
 1015MOL0     C36905   2.927   9.504   8.637  0.3250  0.2375 -1.2009
 1015MOL0     C36906   2.797   9.494   8.720  0.0923 -0.2430  0.7222
 1015MOL0     N36907   2.728   9.620   8.746  0.3211 -0.3337  0.2962
 1015MOL0     C36908   2.657   9.644   8.859 -0.0561 -0.3544  0.0068
 1015MOL0     C36909   2.637   9.780   8.866  0.0174 -0.1134 -0.4814
 1015MOL0     C36910   2.545   9.846   8.960 -0.0601 -0.6748  0.0280
 1015MOL0     C36911   2.618   9.891   9.092 -0.1227  0.6952  0.0673
 1015MOL0     C36912   2.554   9.999   9.166 -0.5101 -0.1434  0.4941
 1015MOL0     C36913   2.426   9.974   9.248  0.6537  0.0470 -0.3764
 1015MOL0     O36914   2.324   9.916   9.169  0.1445 -0.4720 -0.0497
 1015MOL0     C36915   2.244  10.000   9.093 -0.6163  0.2469  0.5549
 1015MOL0     C36916   2.128   9.944   9.039  0.4707  0.0053  0.0929
 1015MOL0     C36917   2.034  10.011   8.956  1.2829 -0.2608  0.2039
 1015MOL0     C36918   1.920   9.927   8.906  0.6876  0.3375  0.3067
 1015MOL0     C36919   2.042  10.149   8.950  0.4832  0.4279 -0.6650
 1015MOL0     C36920   1.942  10.239   8.890  0.3009  0.3867  0.2120
 1015MOL0     O36921   1.970  10.372   8.887 -0.2669  0.6778 -0.0164
 1015MOL0     C36922   1.879  10.465   8.862  1.6421 -0.8015 -0.0398
 1015MOL0     C36923   1.741  10.445   8.854 -0.1337  0.4374 -0.7270
 1015MOL0     C36924   1.656  10.535   8.806  0.8751 -0.5279 -0.1203
 1015MOL0     C36925   1.699  10.662   8.758 -0.4060  0.7506  0.3330
 1015MOL0     O36926   1.603  10.749   8.706 -0.1726  0.4937 -0.2673
 1015MOL0     C36927   1.656  10.879   8.670 -0.6441 -0.3109  0.2493
 1015MOL0     C36928   1.547  10.964   8.594 -0.0369  1.4137  0.5571
 1015MOL0     C36929   1.554  10.932   8.437  0.6509  0.1454 -0.1665
 1015MOL0     C36930   1.614  11.052   8.350  0.6715  0.3803 -0.2358
 1015MOL0     C36931   1.606  11.024   8.203  0.5831 -0.2877  0.3369
 1015MOL0     C36932   1.668  11.143   8.121  0.1166 -0.1079  0.4257
 1015MOL0     C36933   1.651  11.138   7.972  0.0229  0.2906  1.7571
 1015MOL0     C36934   1.714  11.248   7.894  0.3313 -0.0606  0.5477
 1015MOL0    Cl36935   1.885  11.235   7.887 -0.2030 -0.0384  0.1625
 1015MOL0     C36936   1.836  10.676   8.759  0.0614 -1.3768  0.6573
 1015MOL0     C36937   1.926  10.583   8.820 -0.1612 -0.5146  0.1791
 1015MOL0     O36938   1.861  10.188   8.808 -0.2498  0.5357 -0.2946
 1015MOL0     C36939   2.159  10.209   9.008  0.1110  0.0622 -0.1232
 1015MOL0     C36940   2.256  10.135   9.077 -0.2720 -0.6290  0.0765
 1015MOL0     N36941   2.707   9.834   8.755 -0.2776 -0.1656 -0.1434
 1015MOL0     N36942   2.758   9.745   8.687  0.8702 -0.4110  0.1234
 1015MOL0     C36943   3.874   9.815   8.487 -0.2779  0.1149 -0.8083
 1015MOL0     C36944   4.013   9.818   8.475  0.7859  0.2406 -0.2683
 1015MOL0     C36945   4.453   9.733   8.449 -1.1850  0.1968 -0.4012
 1015MOL0     C36946   4.565   9.822   8.437  0.0428  0.0134 -0.0198
 1015MOL0     C36947   4.702   9.775   8.438  0.4346 -0.0476  1.1439
 1015MOL0     C36948   4.732   9.642   8.454 -0.7906  0.2764 -0.4047
 1015MOL0     O36949   4.853   9.579   8.445  0.1475 -0.1628 -0.2564
 1015MOL0     C36950   4.969   9.660   8.468 -0.6221  0.4150  0.0029
 1015MOL0     C36951   5.095   9.576   8.453  0.4255  0.5929  0.2398
 1015MOL0     C36952   5.209   9.686   8.433  0.3190  0.2232 -0.0723
 1015MOL0     C36953   5.236   9.795   8.547  0.3809  0.1661  0.2682
 1015MOL0     C36954   5.234   9.731   8.677  0.7642 -0.6472 -0.4787
 1015MOL0     C36955   5.227   9.700   8.794  0.1062 -0.4249 -0.0941
 1015MOL0     C36956   4.627   9.556   8.475  0.2517  0.8848 -1.1092
 1015MOL0     C36957   4.486   9.592   8.475 -1.5077  0.8176 -0.0229
 1015MOL0     H36958   4.064   9.476   8.471 -1.2965 -0.3510 -0.2415
 1015MOL0     H36959   3.816   9.494   8.537  0.5067 -1.4263 -0.6483
 1015MOL0     H36960   3.575   9.710   8.368 -2.5526  1.1182  0.5308
 1015MOL0     H36961   3.577   9.557   8.464 -0.4081  0.5232 -0.4271
 1015MOL0     H36962   3.417   9.807   8.532  3.0381  0.8727  0.5304
 1015MOL0     H36963   3.346   9.653   8.467 -1.6373  1.5397  0.1506
 1015MOL0     H36964   3.431   9.535   8.669  0.2149 -0.5386 -1.0761
 1015MOL0     H36965   3.487   9.694   8.730  0.1261  1.3731 -0.9173
 1015MOL0     H36966   3.280   9.662   8.825  0.7115 -0.6847 -0.0726
 1015MOL0     H36967   3.237   9.770   8.683  1.4905  1.4909  1.4335
 1015MOL0     H36968   3.160   9.557   8.555  0.0251 -3.3440 -0.4437
 1015MOL0     H36969   3.184   9.456   8.699 -1.5242 -0.5166 -1.2215
 1015MOL0     H36970   3.027   9.562   8.817  0.7717 -0.9350 -0.3168
 1015MOL0     H36971   3.014   9.697   8.693 -0.5248 -0.1364  0.6547
 1015MOL0     H36972   2.903   9.536   8.535 -0.2735 -2.8528 -2.1099
 1015MOL0     H36973   2.963   9.401   8.638 -2.8941 -1.0974  2.0418
 1015MOL0     H36974   2.817   9.454   8.820 -2.8094 -0.2964  1.3912
 1015MOL0     H36975   2.722   9.429   8.673 -0.5279 -0.0482  1.4166
 1015MOL0     H36976   2.618   9.575   8.933 -0.4583 -1.5266 -1.2631
 1015MOL0     H36977   2.490   9.927   8.912 -1.3064 -0.9545  0.9487
 1015MOL0     H36978   2.460   9.781   8.985 -1.4282  0.7370 -0.7678
 1015MOL0     H36979   2.718   9.926   9.066  0.0063  1.3618  1.3704
 1015MOL0     H36980   2.623   9.804   9.159 -4.0324  1.9947  2.3283
 1015MOL0     H36981   2.535  10.082   9.098  2.4481  1.1252  1.0506
 1015MOL0     H36982   2.633  10.044   9.228  1.0247 -0.1265 -1.3764
 1015MOL0     H36983   2.383  10.063   9.294 -1.3612  0.1957 -2.3584
 1015MOL0     H36984   2.451   9.898   9.323  0.9113 -0.9546 -1.4308
 1015MOL0     H36985   2.122   9.837   9.056  0.5134  0.1711  1.2471
 1015MOL0     H36986   1.834   9.958   8.965  1.0983  0.2710  0.9421
 1015MOL0     H36987   1.904   9.941   8.798  3.0783 -1.5662 -0.4064
 1015MOL0     H36988   1.928   9.819   8.923 -1.0400 -0.0234 -0.9369
 1015MOL0     H36989   1.705  10.354   8.901 -0.3893  1.0109  0.2154
 1015MOL0     H36990   1.554  10.503   8.787  0.5190  1.6764 -2.7480
 1015MOL0     H36991   1.690  10.938   8.756  1.2739  0.3011 -0.8636
 1015MOL0     H36992   1.741  10.887   8.602 -0.3181  2.6699  0.8801
 1015MOL0     H36993   1.449  10.932   8.630 -0.7022  1.2065 -1.3219
 1015MOL0     H36994   1.563  11.071   8.611 -1.3536  2.0658 -1.8714
 1015MOL0     H36995   1.449  10.919   8.408  0.6174 -0.8785  0.3447
 1015MOL0     H36996   1.604  10.837   8.416  2.5148  1.3454 -1.5013
 1015MOL0     H36997   1.553  11.142   8.362 -3.2969 -1.9537 -1.1376
 1015MOL0     H36998   1.719  11.056   8.382  1.2060  0.3082 -1.9051
 1015MOL0     H36999   1.501  11.013   8.173  0.1070  3.1323  0.4261
 1015MOL0     H37000   1.662  10.931   8.189  1.6739  0.4498 -0.3753
 1015MOL0     H37001   1.635  11.243   8.148 -0.7143 -0.0923 -0.6153
 1015MOL0     H37002   1.774  11.129   8.145  0.4528 -2.6079 -1.9595
 1015MOL0     H37003   1.544  11.135   7.947  0.4902  1.4305 -0.6919
 1015MOL0     H37004   1.696  11.048   7.930 -1.1534 -0.1694  1.4537
 1015MOL0     H37005   1.682  11.349   7.922 -2.3946 -0.7679  0.2510
 1015MOL0     H37006   1.682  11.246   7.790  1.9146  2.4273 -0.0731
 1015MOL0     H37007   1.886  10.765   8.721  0.5980 -1.1426  1.8749
 1015MOL0     H37008   2.032  10.606   8.815 -0.6990  2.2299 -3.7294
 1015MOL0     H37009   2.191  10.310   8.984  1.5460 -0.4594 -0.5067
 1015MOL0     H37010   2.338  10.190   9.122  0.8790 -1.2042 -1.2403
 1015MOL0     H37011   3.831   9.912   8.510  0.9864  0.3479  0.7550
 1015MOL0     H37012   4.059   9.916   8.474 -0.3735  0.8506  1.5443
 1015MOL0     H37013   4.544   9.928   8.439 -0.2873 -0.0150 -1.0587
 1015MOL0     H37014   4.780   9.848   8.422 -0.4834  0.9118  0.9194
 1015MOL0     H37015   4.977   9.744   8.399  4.9555  0.6086  0.3972
 1015MOL0     H37016   4.972   9.702   8.569  0.9934  0.0858  0.1224
 1015MOL0     H37017   5.085   9.506   8.369  1.5002  1.2525 -0.4575
 1015MOL0     H37018   5.112   9.514   8.542 -1.7978 -0.4225  0.0413
 1015MOL0     H37019   5.185   9.740   8.341 -1.6373  1.6324  1.2010
 1015MOL0     H37020   5.302   9.630   8.418  0.5812  0.6457 -0.0376
 1015MOL0     H37021   5.164   9.876   8.557  0.7546  0.3447  1.7848
 1015MOL0     H37022   5.335   9.836   8.529  0.0727  0.4780 -0.7805
 1015MOL0     H37023   5.227   9.674   8.898 -1.3357  1.2827  0.3832
 1015MOL0     H37024   4.637   9.448   8.482 -0.7976  0.8034 -0.6100
 1015MOL0     H37025   4.405   9.522   8.487  0.1108 -0.7645  3.1275
 1016MOL0     O37026   9.882   0.976   6.301 -0.0306  0.5847 -0.2381
 1016MOL0     C37027   9.947   1.033   6.214 -0.5187  0.7996 -1.1569
 1016MOL0     O37028   9.890   1.124   6.128 -0.5519  0.1807  0.0902
 1016MOL0     C37029   9.760   1.163   6.140  0.7698  0.2344 -0.6940
 1016MOL0     C37030   9.719   1.232   6.256  0.4107 -0.3318 -0.1252
 1016MOL0     C37031   9.585   1.275   6.275  0.6511 -0.2712  0.9709
 1016MOL0     C37032   9.491   1.247   6.171  0.0796  1.0231 -0.9041
 1016MOL0     O37033   9.367   1.289   6.201  0.6199 -0.6903 -0.2762
 1016MOL0     C37034   9.255   1.228   6.138 -0.4845 -0.3921  0.0996
 1016MOL0     C37035   9.123   1.280   6.199 -0.1469 -0.6829  0.1378
 1016MOL0     C37036   8.997   1.215   6.148 -0.7182  0.1958 -0.2868
 1016MOL0     C37037   8.873   1.260   6.235  0.1161 -0.2816 -0.0303
 1016MOL0     C37038   8.761   1.156   6.203  0.3724  0.7755 -0.2778
 1016MOL0     C37039   8.637   1.189   6.286  0.4995 -0.1698 -0.0332
 1016MOL0     C37040   8.546   1.066   6.290  0.0902 -1.1970  0.6498
 1016MOL0     C37041   8.422   1.083   6.380 -0.0610 -0.0335  0.3664
 1016MOL0     N37042   8.312   0.994   6.332 -0.2826  0.4511  0.0338
 1016MOL0     C37043   8.211   1.027   6.246 -0.1325 -0.2541 -0.3120
 1016MOL0     C37044   8.142   0.918   6.229 -0.0459  0.1461 -0.3983
 1016MOL0     C37045   8.015   0.914   6.146 -1.1620  0.2135  0.7687
 1016MOL0     C37046   7.899   0.910   6.248 -0.0154 -0.4209  0.5363
 1016MOL0     C37047   7.764   0.941   6.184 -0.9662 -0.1294 -0.2938
 1016MOL0     C37048   7.647   0.917   6.283  0.3036  0.6302  0.4918
 1016MOL0     O37049   7.525   0.912   6.200 -0.2194 -0.1257  0.4492
 1016MOL0     C37050   7.409   0.855   6.252 -0.8242 -0.0485  0.3771
 1016MOL0     C37051   7.293   0.883   6.192  0.1882  0.5236  0.2212
 1016MOL0     C37052   7.160   0.853   6.238 -0.6840  0.4536  0.0401
 1016MOL0     C37053   7.035   0.898   6.153  0.5877  0.0009 -0.0196
 1016MOL0     C37054   7.164   0.772   6.348  0.2205 -0.6474  0.0712
 1016MOL0     C37055   7.048   0.704   6.400 -0.3265 -1.1836 -0.9322
 1016MOL0     O37056   7.062   0.626   6.509 -0.2893  0.2241 -0.3594
 1016MOL0     C37057   6.955   0.555   6.557  0.2684 -0.3635  0.2197
 1016MOL0     C37058   6.891   0.458   6.475  0.5844  0.3297 -0.5000
 1016MOL0     C37059   6.796   0.370   6.529 -0.8295  0.3413  0.2331
 1016MOL0     C37060   6.771   0.374   6.667  0.4796 -0.3360  0.3638
 1016MOL0     O37061   6.675   0.279   6.696 -0.3836 -0.3998 -0.6988
 1016MOL0     C37062   6.640   0.257   6.832 -0.2037 -0.4379 -0.0069
 1016MOL0     C37063   6.512   0.191   6.849 -0.2236  0.7088  0.1674
 1016MOL0     C37064   6.403   0.259   6.783 -0.3236  0.1197  0.1431
 1016MOL0     C37065   6.271   0.184   6.816  0.8696 -0.3916  0.2192
 1016MOL0     C37066   6.161   0.238   6.710  0.0436  0.2709  0.2386
 1016MOL0     C37067   6.023   0.172   6.718  0.2531 -0.9424 -1.1226
 1016MOL0     C37068   6.028   0.034   6.641 -0.8891  0.4882 -0.5722
 1016MOL0     C37069   5.890  -0.035   6.652  0.5590 -0.3103 -0.3117
 1016MOL0    Cl37070   5.774   0.022   6.515  0.2726  0.2883  0.4835
 1016MOL0     C37071   6.826   0.472   6.740 -0.9069 -0.1554 -0.6180
 1016MOL0     C37072   6.914   0.563   6.690 -0.9043  0.6526  0.6971
 1016MOL0     O37073   6.938   0.717   6.343  0.7432  0.0661  0.7213
 1016MOL0     C37074   7.284   0.751   6.416  0.6049 -0.1327 -0.7971
 1016MOL0     C37075   7.405   0.775   6.364  0.0073 -0.7752 -0.4999
 1016MOL0     N37076   8.207   0.810   6.291  0.2054 -0.1039  0.9012
 1016MOL0     N37077   8.316   0.855   6.345  0.2114 -0.1395  0.2473
 1016MOL0     C37078   9.527   1.160   6.061 -0.0813 -0.1337  0.9247
 1016MOL0     C37079   9.666   1.137   6.038  0.8607  0.5806 -0.1322
 1016MOL0     C37080  10.088   0.985   6.182  0.8153  0.5858  0.3429
 1016MOL0     C37081  10.166   1.063   6.095 -0.7242 -0.1934 -0.3328
 1016MOL0     C37082  10.299   1.029   6.056 -0.3243  0.0893 -1.0631
 1016MOL0     C37083  10.364   0.926   6.125 -0.9680 -0.5921 -0.3231
 1016MOL0     O37084  10.494   0.895   6.103  0.1051  0.2983 -0.3609
 1016MOL0     C37085  10.569   0.966   6.010 -0.6063 -0.0262  0.1493
 1016MOL0     C37086  10.695   0.891   5.986 -0.6784  1.3584  0.1472
 1016MOL0     C37087  10.791   0.971   5.900  0.0160 -0.4896  0.7334
 1016MOL0     C37088  10.858   1.095   5.968  0.9187  0.1692  0.2775
 1016MOL0     C37089  10.930   1.076   6.096  0.1185  0.1816 -0.2818
 1016MOL0     C37090  10.979   1.037   6.201  0.1919 -1.0178 -0.4273
 1016MOL0     C37091  10.290   0.852   6.218 -0.1411  0.7456 -0.1056
 1016MOL0     C37092  10.153   0.865   6.234  0.0951  0.0394 -0.0145
 1016MOL0     H37093   9.776   1.239   6.348 -0.5439 -1.0918  0.5341
 1016MOL0     H37094   9.556   1.327   6.365 -1.6755  0.3066 -0.0332
 1016MOL0     H37095   9.270   1.246   6.031 -0.2407 -1.3269 -0.0316
 1016MOL0     H37096   9.253   1.119   6.150 -0.1045 -0.4815 -0.5825
 1016MOL0     H37097   9.135   1.263   6.307  1.2516  1.2845  0.3469
 1016MOL0     H37098   9.116   1.389   6.196 -0.0716 -0.6608  0.6076
 1016MOL0     H37099   8.970   1.247   6.046 -1.1313  2.7417  0.5522
 1016MOL0     H37100   9.013   1.109   6.169  5.4280  1.0015  0.7612
 1016MOL0     H37101   8.906   1.248   6.339  0.6905  0.4928 -0.1143
 1016MOL0     H37102   8.853   1.367   6.225  0.6336  0.1272  2.6470
 1016MOL0     H37103   8.736   1.154   6.096 -1.4824  0.6373  0.1259
 1016MOL0     H37104   8.798   1.058   6.234 -0.7644 -0.5979 -2.9316
 1016MOL0     H37105   8.663   1.217   6.389 -4.6690  1.1057  1.1920
 1016MOL0     H37106   8.574   1.267   6.243 -2.6250 -1.8746  1.1493
 1016MOL0     H37107   8.518   1.047   6.186 -1.2242 -1.5475  1.0592
 1016MOL0     H37108   8.602   0.978   6.323 -1.8145 -3.2890 -1.3510
 1016MOL0     H37109   8.392   1.187   6.362 -0.4021 -0.4024 -1.4412
 1016MOL0     H37110   8.463   1.075   6.481  2.7099 -0.8913 -0.7151
 1016MOL0     H37111   8.187   1.130   6.224  3.0865  0.9139  1.0472
 1016MOL0     H37112   8.020   1.000   6.078  2.1612  0.4727  1.2079
 1016MOL0     H37113   8.012   0.823   6.085  1.3951 -0.8367  2.0824
 1016MOL0     H37114   7.917   0.990   6.321 -0.2049 -0.6470  0.8335
 1016MOL0     H37115   7.893   0.817   6.305  2.6965  0.4573  2.4599
 1016MOL0     H37116   7.748   0.889   6.089 -0.3968 -1.0672  0.1059
 1016MOL0     H37117   7.759   1.044   6.148  0.2451  0.2466  0.5473
 1016MOL0     H37118   7.644   1.003   6.349  1.9903  1.7995 -0.8639
 1016MOL0     H37119   7.662   0.826   6.342  3.0018 -0.9812 -2.3943
 1016MOL0     H37120   7.295   0.940   6.100 -0.9020  2.2587  1.2105
 1016MOL0     H37121   7.067   0.968   6.074  0.8585  1.8002  1.6115
 1016MOL0     H37122   6.988   0.811   6.107  2.9314 -1.1559 -0.3623
 1016MOL0     H37123   6.971   0.946   6.227  1.6480  1.4144  0.0374
 1016MOL0     H37124   6.921   0.446   6.371 -0.5681  1.7435 -1.0332
 1016MOL0     H37125   6.756   0.289   6.468  1.8565 -1.9603  1.2841
 1016MOL0     H37126   6.716   0.193   6.877 -0.9239 -0.7318  0.8218
 1016MOL0     H37127   6.645   0.361   6.866  0.6777  1.1507 -4.3206
 1016MOL0     H37128   6.518   0.092   6.804  0.0171  0.3705  0.9151
 1016MOL0     H37129   6.504   0.192   6.959  0.5728  0.2889  0.2308
 1016MOL0     H37130   6.420   0.258   6.675  0.4745 -1.8477  0.2466
 1016MOL0     H37131   6.403   0.354   6.835  2.9617  1.3076 -1.7404
 1016MOL0     H37132   6.279   0.075   6.811 -0.5070 -0.5986  1.7481
 1016MOL0     H37133   6.239   0.197   6.919  0.9698  1.2961  0.0625
 1016MOL0     H37134   6.202   0.223   6.609 -0.4835 -2.0657  0.3090
 1016MOL0     H37135   6.142   0.344   6.729  0.3458  0.2954  0.4212
 1016MOL0     H37136   6.009   0.171   6.826  2.1638  1.5109 -0.7467
 1016MOL0     H37137   5.939   0.232   6.680 -0.6432 -2.0045 -0.8520
 1016MOL0     H37138   6.115  -0.020   6.680 -0.1894  1.7815 -0.2860
 1016MOL0     H37139   6.045   0.056   6.535  0.9776 -1.1803 -0.6836
 1016MOL0     H37140   5.841   0.003   6.742 -0.8185  1.7615 -1.8426
 1016MOL0     H37141   5.892  -0.144   6.659  0.2435 -0.2576  0.8848
 1016MOL0     H37142   6.807   0.483   6.847  3.9608  1.8073  0.2742
 1016MOL0     H37143   6.958   0.646   6.744 -0.0289  0.9637 -0.4495
 1016MOL0     H37144   7.283   0.696   6.510 -0.4849  0.0976 -0.6653
 1016MOL0     H37145   7.493   0.740   6.416  1.1010  0.0214 -1.7275
 1016MOL0     H37146   9.454   1.116   5.994 -0.2647  1.2312  0.1961
 1016MOL0     H37147   9.693   1.076   5.953  0.0471  1.1471 -0.8125
 1016MOL0     H37148  10.118   1.152   6.056  1.6017  1.3302  0.0989
 1016MOL0     H37149  10.357   1.079   5.979  3.1270  0.9399  1.8637
 1016MOL0     H37150  10.520   0.969   5.912  0.4195 -0.5198 -0.3922
 1016MOL0     H37151  10.571   1.067   6.051  1.7836 -0.5780  1.5739
 1016MOL0     H37152  10.682   0.789   5.949  1.1795  0.7601  1.0086
 1016MOL0     H37153  10.742   0.870   6.083 -1.1729  0.5374  0.2150
 1016MOL0     H37154  10.743   1.009   5.809  0.5139  2.0216  1.4165
 1016MOL0     H37155  10.862   0.893   5.872  0.0929 -0.5101  0.9790
 1016MOL0     H37156  10.786   1.172   5.996  2.0389  0.5035  2.4458
 1016MOL0     H37157  10.922   1.139   5.891  0.1997 -0.9406 -1.0056
 1016MOL0     H37158  11.034   1.008   6.289  0.6224  2.4633  0.5911
 1016MOL0     H37159  10.334   0.765   6.267 -2.2501  0.3062  1.1503
 1016MOL0     H37160  10.092   0.802   6.298 -1.2429 -1.4987 -2.6553
 1017MOL0     O37161   3.041  10.263   7.824  0.5327  0.1977  0.7514
 1017MOL0     C37162   3.119  10.223   7.914  0.1009  0.1131  0.4194
 1017MOL0     O37163   3.078  10.200   8.040  0.0741 -0.0417  0.1969
 1017MOL0     C37164   2.950  10.206   8.073 -1.0255  0.9357  0.1579
 1017MOL0     C37165   2.891  10.325   8.094  0.0452  0.5123  0.1678
 1017MOL0     C37166   2.762  10.340   8.143 -1.0287  0.0042  0.3088
 1017MOL0     C37167   2.686  10.224   8.156 -0.3246  0.8590  0.3853
 1017MOL0     O37168   2.549  10.217   8.166  0.0582  0.2551 -0.5188
 1017MOL0     C37169   2.484  10.334   8.222  0.4678 -0.0787  0.4863
 1017MOL0     C37170   2.339  10.293   8.258 -0.9977  0.1885  0.4418
 1017MOL0     C37171   2.261  10.414   8.318  0.4074  0.0658  0.3339
 1017MOL0     C37172   2.125  10.358   8.358  0.1815  0.0242 -0.4085
 1017MOL0     C37173   2.003  10.440   8.326  0.2724  0.9622 -0.1080
 1017MOL0     C37174   1.896  10.396   8.426 -0.2161 -0.2643  0.2032
 1017MOL0     C37175   1.751  10.431   8.388 -0.0447 -0.5773 -1.1240
 1017MOL0     C37176   1.654  10.362   8.482  0.5939 -0.4900 -0.0115
 1017MOL0     N37177   1.513  10.405   8.468  0.0044 -0.0534  0.7816
 1017MOL0     C37178   1.476  10.536   8.487 -0.0508 -0.8497 -0.0429
 1017MOL0     C37179   1.356  10.545   8.437 -0.3844 -0.2751  0.0718
 1017MOL0     C37180   1.266  10.662   8.441 -0.1171 -0.5730  0.7382
 1017MOL0     C37181   1.121  10.619   8.467  0.5498 -0.0423 -0.0243
 1017MOL0     C37182   1.019  10.732   8.450 -0.7255 -0.1861 -0.3049
 1017MOL0     C37183   0.874  10.683   8.474  0.2167 -0.7873 -0.2562
 1017MOL0     O37184   0.787  10.794   8.445  0.2717  0.2866 -0.0786
 1017MOL0     C37185   0.737  10.873   8.553  0.4078 -0.5761 -0.5108
 1017MOL0     C37186   0.609  10.927   8.532 -0.0479 -0.5911 -0.6291
 1017MOL0     C37187   0.553  11.006   8.628 -0.1659  0.1381 -0.7266
 1017MOL0     C37188   0.415  11.067   8.598  0.4627 -0.4199 -0.8788
 1017MOL0     C37189   0.619  11.024   8.751 -0.0248  0.5271  0.2144
 1017MOL0     C37190   0.573  11.104   8.871  0.9046  0.0990  0.8825
 1017MOL0     O37191   0.618  11.060   8.990 -1.3739 -0.3076  0.1320
 1017MOL0     C37192   0.575  11.134   9.094 -0.1597 -0.6688  0.2383
 1017MOL0     C37193   0.634  11.250   9.128 -0.7184  0.1177  0.3498
 1017MOL0     C37194   0.567  11.325   9.222 -0.0068  0.8052 -0.0630
 1017MOL0     C37195   0.449  11.288   9.290  0.3479  0.0878  0.0167
 1017MOL0     O37196   0.390  11.359   9.400  0.1510  0.1763  0.5358
 1017MOL0     C37197   0.361  11.494   9.364 -0.3789  1.0003 -0.0577
 1017MOL0     C37198   0.240  11.525   9.449  0.5746 -0.1910  0.4143
 1017MOL0     C37199   0.128  11.423   9.431 -0.4160 -0.1022  0.7051
 1017MOL0     C37200  -0.007  11.488   9.470 -0.8362  0.7244 -0.7340
 1017MOL0     C37201  -0.119  11.407   9.426  0.7389 -0.8192  0.3953
 1017MOL0     C37202  -0.128  11.255   9.470 -0.2276 -0.7077  0.4312
 1017MOL0     C37203  -0.273  11.223   9.515 -0.3896 -0.1003  0.8913
 1017MOL0     C37204  -0.277  11.087   9.584 -0.6159  0.3903  0.0349
 1017MOL0    Cl37205  -0.210  10.969   9.470  0.2366 -0.0288 -0.4732
 1017MOL0     C37206   0.392  11.165   9.241  0.5277 -0.9041 -0.2647
 1017MOL0     C37207   0.459  11.090   9.151 -0.3834 -0.4653 -0.7125
 1017MOL0     O37208   0.492  11.192   8.861  0.3756  0.4328  0.6486
 1017MOL0     C37209   0.742  10.958   8.773  0.6853 -0.7833 -0.1699
 1017MOL0     C37210   0.801  10.888   8.673  0.9020  0.4698  0.0244
 1017MOL0     N37211   1.314  10.424   8.378 -0.2500  0.0450  0.3553
 1017MOL0     N37212   1.415  10.346   8.393 -0.4076  0.0659  0.3601
 1017MOL0     C37213   2.751  10.097   8.138  0.7349 -0.2110 -0.3809
 1017MOL0     C37214   2.875  10.094   8.082 -1.0269 -0.2759 -0.3751
 1017MOL0     C37215   3.261  10.195   7.880 -0.5549 -0.5091 -0.1324
 1017MOL0     C37216   3.306  10.187   7.747  0.1008  0.5990  0.1535
 1017MOL0     C37217   3.440  10.160   7.720 -0.3419 -0.4289 -0.0871
 1017MOL0     C37218   3.536  10.160   7.826 -0.7615 -0.8242  0.4481
 1017MOL0     O37219   3.676  10.156   7.802 -0.4632  0.2665  0.1806
 1017MOL0     C37220   3.726  10.122   7.671  0.6889 -0.0027  0.6107
 1017MOL0     C37221   3.870  10.090   7.652 -0.0314 -0.1665  0.4375
 1017MOL0     C37222   3.918   9.962   7.706 -0.0944  0.8284 -0.1470
 1017MOL0     C37223   4.069   9.935   7.693 -0.3115  0.6312  0.6377
 1017MOL0     C37224   4.099   9.900   7.549  0.1821 -0.1323 -0.0443
 1017MOL0     C37225   4.121   9.892   7.433 -0.4915  0.4106  1.1383
 1017MOL0     C37226   3.485  10.174   7.952 -0.2606  0.5047  0.5336
 1017MOL0     C37227   3.353  10.180   7.986  0.1211 -0.3323 -0.7280
 1017MOL0     H37228   2.954  10.409   8.067  2.0730 -1.3241 -1.1368
 1017MOL0     H37229   2.711  10.435   8.152 -0.2716  0.4226  0.2144
 1017MOL0     H37230   2.540  10.372   8.308  0.4307 -1.6924  1.2586
 1017MOL0     H37231   2.480  10.412   8.146 -1.1288  1.2124  1.8229
 1017MOL0     H37232   2.278  10.255   8.175  1.5768 -2.9403 -0.2183
 1017MOL0     H37233   2.337  10.212   8.332 -1.0882 -2.0199 -1.8272
 1017MOL0     H37234   2.314  10.456   8.404  1.0702  1.0959 -0.5522
 1017MOL0     H37235   2.254  10.493   8.243 -0.4785  0.5180  0.8746
 1017MOL0     H37236   2.106  10.256   8.322 -2.3340 -0.4387  1.9273
 1017MOL0     H37237   2.126  10.346   8.466  1.9998 -0.4745 -0.4333
 1017MOL0     H37238   2.029  10.545   8.337  2.6051  0.8049 -2.7322
 1017MOL0     H37239   1.950  10.425   8.231 -2.7608  3.5960  1.0055
 1017MOL0     H37240   1.895  10.287   8.437 -0.7475 -0.1866  1.0510
 1017MOL0     H37241   1.913  10.429   8.529 -1.6987  0.1203  0.3608
 1017MOL0     H37242   1.730  10.538   8.391 -1.1473 -0.6705 -3.2404
 1017MOL0     H37243   1.732  10.397   8.285 -1.8273  2.1326 -1.7974
 1017MOL0     H37244   1.676  10.361   8.590  2.3818 -0.3234 -0.3372
 1017MOL0     H37245   1.654  10.254   8.465 -2.2464 -0.9769  2.2698
 1017MOL0     H37246   1.535  10.610   8.539  0.0517  1.3918 -3.1010
 1017MOL0     H37247   1.313  10.734   8.508  0.1765 -1.2491  1.2720
 1017MOL0     H37248   1.269  10.702   8.339  1.3803 -2.4631 -0.0170
 1017MOL0     H37249   1.119  10.579   8.569 -2.9485 -1.2734 -0.4321
 1017MOL0     H37250   1.086  10.542   8.398  0.1056 -0.4730  0.6677
 1017MOL0     H37251   1.024  10.766   8.346  0.4350 -2.4313 -1.0485
 1017MOL0     H37252   1.044  10.818   8.513 -0.8384 -1.1362  1.0731
 1017MOL0     H37253   0.866  10.646   8.577  0.7273  0.4822  0.2623
 1017MOL0     H37254   0.856  10.592   8.416  1.1955 -0.1260 -1.6567
 1017MOL0     H37255   0.557  10.924   8.436 -1.1290 -1.0339 -0.0465
 1017MOL0     H37256   0.421  11.176   8.604  1.9187 -0.5015 -0.5506
 1017MOL0     H37257   0.379  11.052   8.496  1.8651 -0.0809 -1.4525
 1017MOL0     H37258   0.339  11.029   8.667  0.7421  1.6956  0.6897
 1017MOL0     H37259   0.727  11.270   9.077 -1.0057 -1.4019 -0.8311
 1017MOL0     H37260   0.605  11.422   9.253  0.3050  1.9271 -3.4635
 1017MOL0     H37261   0.451  11.546   9.397  1.3624 -2.0392  0.2725
 1017MOL0     H37262   0.347  11.501   9.255  0.1724  0.6172 -0.1573
 1017MOL0     H37263   0.268  11.512   9.554  2.4170 -2.9429 -0.3090
 1017MOL0     H37264   0.203  11.628   9.441 -2.4891 -1.0202  2.0634
 1017MOL0     H37265   0.142  11.324   9.474 -0.1204  0.0942  1.0634
 1017MOL0     H37266   0.121  11.405   9.323  1.9467  1.9207  0.1229
 1017MOL0     H37267  -0.011  11.491   9.579  0.8425 -0.6963 -0.5754
 1017MOL0     H37268  -0.014  11.593   9.440  0.5886  0.8161 -0.8115
 1017MOL0     H37269  -0.121  11.404   9.317  2.4468 -1.1004  0.3540
 1017MOL0     H37270  -0.212  11.453   9.463  0.1511 -1.7360  0.0887
 1017MOL0     H37271  -0.099  11.185   9.390 -0.8844  0.4583 -0.8615
 1017MOL0     H37272  -0.058  11.247   9.554  3.2258  3.2442 -1.6804
 1017MOL0     H37273  -0.334  11.222   9.424  1.4547 -0.6341 -0.4000
 1017MOL0     H37274  -0.303  11.292   9.594 -0.8471  0.3956  0.2900
 1017MOL0     H37275  -0.382  11.065   9.607 -0.1028 -0.9689  1.2947
 1017MOL0     H37276  -0.230  11.087   9.683 -0.7696 -2.2277  0.1673
 1017MOL0     H37277   0.298  11.125   9.280 -0.5225  2.6109  1.2224
 1017MOL0     H37278   0.427  10.989   9.131  2.8985 -2.2343  1.9243
 1017MOL0     H37279   0.799  10.958   8.865  0.5252 -0.9699 -0.0718
 1017MOL0     H37280   0.891  10.831   8.695 -1.0540 -3.0618 -0.4496
 1017MOL0     H37281   2.697  10.003   8.133  0.7404 -0.1811 -1.1304
 1017MOL0     H37282   2.919   9.999   8.052  0.4268  0.8990 -2.1259
 1017MOL0     H37283   3.242  10.219   7.665 -1.3520  3.2606  2.1434
 1017MOL0     H37284   3.469  10.158   7.616  1.0405  0.3331  0.2549
 1017MOL0     H37285   3.673  10.035   7.631 -0.7937  0.5012  1.3819
 1017MOL0     H37286   3.704  10.207   7.605 -0.0214  1.0130  2.1034
 1017MOL0     H37287   3.942  10.164   7.685 -0.7130  0.2526  1.0249
 1017MOL0     H37288   3.885  10.089   7.544  1.3045  1.8878  0.5637
 1017MOL0     H37289   3.856   9.879   7.670 -0.8340  1.3097 -0.0220
 1017MOL0     H37290   3.912   9.966   7.816  1.4085  2.6753 -0.0797
 1017MOL0     H37291   4.093   9.852   7.760 -2.8191  0.6458  1.6573
 1017MOL0     H37292   4.123  10.026   7.724 -2.2221  1.3706  1.9906
 1017MOL0     H37293   4.154   9.896   7.331 -1.2427  1.5108  0.9172
 1017MOL0     H37294   3.546  10.186   8.041  0.0168 -0.3722  0.4680
 1017MOL0     H37295   3.317  10.192   8.087  2.4848 -0.4561  0.1685
 1018MOL0     O37296   9.905   2.286   4.422  0.4451 -0.9546 -0.4646
 1018MOL0     C37297   9.972   2.207   4.488 -0.0454 -0.5188  0.2527
 1018MOL0     O37298   9.925   2.128   4.590  0.0248  0.0041 -0.2749
 1018MOL0     C37299   9.789   2.146   4.634 -0.1596  0.1521  0.6163
 1018MOL0     C37300   9.759   2.135   4.770  0.3927  0.1739 -0.9350
 1018MOL0     C37301   9.630   2.150   4.823 -0.0819 -0.3691  0.0375
 1018MOL0     C37302   9.520   2.170   4.743 -0.2991  0.8605  0.5588
 1018MOL0     O37303   9.398   2.177   4.797  0.2028 -0.4197 -0.5833
 1018MOL0     C37304   9.311   2.079   4.752  0.6065  0.0343 -0.2531
 1018MOL0     C37305   9.166   2.087   4.817 -0.1722 -0.0119  0.2479
 1018MOL0     C37306   9.075   1.985   4.749  0.7299 -0.8394  0.5422
 1018MOL0     C37307   8.942   2.054   4.696 -0.6511  0.5915  1.5235
 1018MOL0     C37308   8.854   1.945   4.637  0.1731 -0.2134  0.4558
 1018MOL0     C37309   8.725   1.998   4.581  0.8720 -0.2110  0.1400
 1018MOL0     C37310   8.644   1.891   4.510 -0.5665 -0.0067  0.6366
 1018MOL0     C37311   8.492   1.928   4.489 -0.0749 -0.6276  0.0586
 1018MOL0     N37312   8.410   1.849   4.405  0.9316 -0.0306  0.4484
 1018MOL0     C37313   8.281   1.896   4.373 -0.5010 -0.1389  0.0801
 1018MOL0     C37314   8.245   1.802   4.280  0.1938  1.4603  0.0029
 1018MOL0     C37315   8.117   1.798   4.201 -0.4256 -0.3097 -0.3947
 1018MOL0     C37316   8.000   1.787   4.292  0.3686  0.0240 -0.3461
 1018MOL0     C37317   7.886   1.701   4.231 -0.5628 -0.3880  0.0122
 1018MOL0     C37318   7.751   1.735   4.305  0.3754 -0.7599  0.1479
 1018MOL0     O37319   7.658   1.647   4.245 -0.0412 -0.8178 -0.1463
 1018MOL0     C37320   7.532   1.688   4.233 -0.7738  0.1112 -0.1370
 1018MOL0     C37321   7.477   1.791   4.324 -0.0666  0.1509 -0.3057
 1018MOL0     C37322   7.340   1.835   4.310  0.6951  0.8923  0.0024
 1018MOL0     C37323   7.284   1.935   4.415 -1.0094  0.6196  0.3195
 1018MOL0     C37324   7.269   1.793   4.199 -0.2119 -0.7268  0.0997
 1018MOL0     C37325   7.140   1.847   4.148 -0.6312 -0.4779  0.6033
 1018MOL0     O37326   7.051   1.890   4.244  0.1059  0.6998  0.2912
 1018MOL0     C37327   6.912   1.901   4.219  0.6146 -0.4098  0.3743
 1018MOL0     C37328   6.835   1.986   4.298 -0.3148  0.2071 -0.2947
 1018MOL0     C37329   6.699   1.994   4.282  0.1761 -0.8332  0.0730
 1018MOL0     C37330   6.634   1.923   4.188 -0.1671  0.5948 -0.2261
 1018MOL0     O37331   6.500   1.945   4.180 -0.2063 -0.2563 -0.5076
 1018MOL0     C37332   6.425   1.854   4.101  1.1241  0.7304  0.3708
 1018MOL0     C37333   6.276   1.891   4.115  0.4879 -0.1140 -0.0752
 1018MOL0     C37334   6.206   1.805   4.000  0.2371  0.7568 -0.4829
 1018MOL0     C37335   6.069   1.758   4.053  0.0058 -0.5903  0.2638
 1018MOL0     C37336   6.086   1.635   4.142 -0.0095 -0.6322 -0.4764
 1018MOL0     C37337   5.950   1.580   4.188  0.3742 -0.2856  0.0390
 1018MOL0     C37338   5.960   1.422   4.203 -0.2185  0.5372 -0.3906
 1018MOL0     C37339   5.850   1.341   4.271 -0.0398 -0.5379  0.6090
 1018MOL0    Cl37340   5.720   1.298   4.173 -0.0754  0.3284  0.3946
 1018MOL0     C37341   6.711   1.832   4.107 -0.0473  0.1154  0.0545
 1018MOL0     C37342   6.848   1.819   4.124 -0.5588 -0.1671 -0.3603
 1018MOL0     O37343   7.127   1.862   4.025  0.2661 -0.5355  0.7658
 1018MOL0     C37344   7.327   1.699   4.113 -0.6645 -0.4591  0.4823
 1018MOL0     C37345   7.462   1.653   4.128 -0.4881  0.2070  1.2311
 1018MOL0     N37346   8.345   1.708   4.252  0.0785  0.8023 -0.3300
 1018MOL0     N37347   8.438   1.741   4.337  0.3026 -0.0854  0.4737
 1018MOL0     C37348   9.545   2.170   4.606  0.7770 -0.1340 -0.4317
 1018MOL0     C37349   9.673   2.156   4.555  0.5245 -0.5208  0.4597
 1018MOL0     C37350  10.118   2.192   4.449  0.1227  0.7351  0.9843
 1018MOL0     C37351  10.187   2.294   4.377  1.0571  0.4029 -0.0062
 1018MOL0     C37352  10.310   2.274   4.330  0.9177  0.3625  0.5365
 1018MOL0     C37353  10.382   2.164   4.365 -0.5268  0.9220 -0.5668
 1018MOL0     O37354  10.514   2.160   4.326 -0.3544 -0.8013 -0.0289
 1018MOL0     C37355  10.594   2.051   4.378 -0.7366  0.1029 -1.0316
 1018MOL0     C37356  10.736   2.061   4.325  0.5987 -0.3814 -0.2752
 1018MOL0     C37357  10.800   2.201   4.368 -0.8311  0.0597  0.3077
 1018MOL0     C37358  10.946   2.216   4.317  0.3098 -0.0833 -0.3292
 1018MOL0     C37359  11.037   2.109   4.359 -0.4380 -0.5788  0.3442
 1018MOL0     C37360  11.111   2.020   4.389  0.3182  0.7770  0.3529
 1018MOL0     C37361  10.321   2.065   4.438 -0.6541 -0.0266  0.3636
 1018MOL0     C37362  10.193   2.075   4.483 -0.1880 -0.6353 -0.3678
 1018MOL0     H37363   9.837   2.121   4.844  0.2159  1.3820 -0.5120
 1018MOL0     H37364   9.617   2.172   4.929 -1.3694  3.5031 -0.7639
 1018MOL0     H37365   9.302   2.072   4.643  0.7714 -0.9862 -0.2104
 1018MOL0     H37366   9.354   1.982   4.778  2.1728  0.2958 -1.6437
 1018MOL0     H37367   9.180   2.058   4.922  0.5080  0.2442  0.2294
 1018MOL0     H37368   9.125   2.188   4.811 -1.8022 -0.5869  0.9046
 1018MOL0     H37369   9.113   1.932   4.661 -1.8874  0.7220 -1.7040
 1018MOL0     H37370   9.044   1.907   4.819 -0.6452 -2.9495 -2.2028
 1018MOL0     H37371   8.884   2.095   4.779 -1.7814 -1.1049  1.6281
 1018MOL0     H37372   8.971   2.118   4.612  1.5048 -2.6173 -0.4123
 1018MOL0     H37373   8.903   1.897   4.552 -2.0948 -1.0089 -0.4833
 1018MOL0     H37374   8.830   1.870   4.714  0.1672 -2.2817 -1.4769
 1018MOL0     H37375   8.662   2.030   4.665 -1.9692 -2.4884 -0.9514
 1018MOL0     H37376   8.743   2.080   4.512 -4.2774  1.4131  0.2462
 1018MOL0     H37377   8.688   1.872   4.412  1.7207 -1.2700  1.8285
 1018MOL0     H37378   8.646   1.799   4.569 -0.2925  1.4473  3.0141
 1018MOL0     H37379   8.495   2.033   4.457  2.8764 -0.6361 -0.0136
 1018MOL0     H37380   8.440   1.927   4.585  0.3025  1.4374  0.3382
 1018MOL0     H37381   8.236   1.984   4.417  0.8260  0.5572  0.1045
 1018MOL0     H37382   8.112   1.892   4.144  0.6543  0.3115  0.5017
 1018MOL0     H37383   8.126   1.726   4.118  2.3830  0.1918 -0.6321
 1018MOL0     H37384   7.965   1.890   4.306 -0.2802 -0.2419  0.0192
 1018MOL0     H37385   8.027   1.740   4.387  1.6254  0.4227 -0.4833
 1018MOL0     H37386   7.909   1.596   4.249  0.7958 -0.0157  0.6591
 1018MOL0     H37387   7.880   1.721   4.124  0.2499  2.0701  0.3520
 1018MOL0     H37388   7.722   1.837   4.281 -0.6620 -1.3432 -1.1801
 1018MOL0     H37389   7.758   1.716   4.413  1.2289 -0.7849  0.0991
 1018MOL0     H37390   7.532   1.837   4.406 -1.0405  0.2479  0.3081
 1018MOL0     H37391   7.204   2.000   4.381 -1.0529  0.5980  0.3820
 1018MOL0     H37392   7.247   1.885   4.505  0.6800 -1.2863  0.0423
 1018MOL0     H37393   7.366   1.996   4.455 -0.1948  0.6570 -1.2945
 1018MOL0     H37394   6.895   2.040   4.369  0.1986  0.5809 -0.9975
 1018MOL0     H37395   6.641   2.070   4.332 -1.7111 -0.0907 -2.9828
 1018MOL0     H37396   6.460   1.855   3.997  0.5063 -0.4322  0.1344
 1018MOL0     H37397   6.427   1.750   4.134  0.8320  0.3294 -0.8110
 1018MOL0     H37398   6.246   1.855   4.214 -0.0362  1.7459  0.4884
 1018MOL0     H37399   6.251   1.997   4.110 -0.9785 -0.3002  1.9832
 1018MOL0     H37400   6.268   1.722   3.966  2.3671  1.1315  2.1349
 1018MOL0     H37401   6.183   1.877   3.921 -1.3281  0.6169 -0.1840
 1018MOL0     H37402   6.028   1.839   4.114  0.7292 -0.9120  1.2057
 1018MOL0     H37403   6.005   1.736   3.967  0.9157 -0.4037 -0.4614
 1018MOL0     H37404   6.135   1.660   4.237 -2.2456  1.8447  0.1352
 1018MOL0     H37405   6.151   1.558   4.099  0.0926 -1.9358  1.8075
 1018MOL0     H37406   5.917   1.621   4.284 -0.3668 -0.3437 -0.1829
 1018MOL0     H37407   5.863   1.597   4.124  0.7297  1.9108  0.0633
 1018MOL0     H37408   6.054   1.393   4.250 -1.1323 -0.6970  0.7845
 1018MOL0     H37409   5.972   1.381   4.102 -2.9677 -0.0606 -0.5495
 1018MOL0     H37410   5.807   1.403   4.350  0.1065  0.9313 -0.4230
 1018MOL0     H37411   5.892   1.258   4.329  0.7365  1.9153  3.8055
 1018MOL0     H37412   6.673   1.757   4.039 -0.9668 -1.3954  2.1330
 1018MOL0     H37413   6.892   1.739   4.066  2.1635 -0.9615  2.5592
 1018MOL0     H37414   7.277   1.651   4.030  0.8576 -2.0503  0.4102
 1018MOL0     H37415   7.516   1.582   4.066  1.2782  1.8927  0.7444
 1018MOL0     H37416   9.469   2.202   4.535  1.8691  2.0051 -0.7205
 1018MOL0     H37417   9.679   2.158   4.447 -0.1230 -1.4834  0.3981
 1018MOL0     H37418  10.143   2.384   4.336  1.7787 -0.8579 -3.9290
 1018MOL0     H37419  10.362   2.340   4.262 -1.3902  1.9450  0.1885
 1018MOL0     H37420  10.590   2.074   4.485 -2.5286  0.8541 -1.2378
 1018MOL0     H37421  10.557   1.950   4.357 -0.9423 -0.3396  1.1628
 1018MOL0     H37422  10.732   2.040   4.218  0.7053 -2.4988  0.0834
 1018MOL0     H37423  10.794   1.980   4.370 -0.0799 -0.4210  0.5685
 1018MOL0     H37424  10.801   2.214   4.477 -0.9054  2.1705  0.0889
 1018MOL0     H37425  10.739   2.281   4.327 -1.3802 -1.6867 -2.5208
 1018MOL0     H37426  10.972   2.319   4.346 -1.3753  0.2929 -0.0345
 1018MOL0     H37427  10.952   2.218   4.208  0.3273 -0.4251 -0.3348
 1018MOL0     H37428  11.172   1.935   4.416 -3.4444 -2.2507  0.1576
 1018MOL0     H37429  10.375   1.973   4.457 -2.2225 -1.2223 -0.6609
 1018MOL0     H37430  10.146   1.993   4.537 -3.0225  0.4945 -0.9297
 1019MOL0     O37431   3.971   2.301   8.527 -0.1477  0.8757 -0.2747
 1019MOL0     C37432   4.059   2.385   8.478  1.0829 -0.0821  0.3130
 1019MOL0     O37433   4.023   2.513   8.433 -0.2619 -0.1212  0.3604
 1019MOL0     C37434   3.901   2.571   8.470 -0.4334  0.3520 -0.6875
 1019MOL0     C37435   3.896   2.704   8.519  0.2851  0.4080  0.1462
 1019MOL0     C37436   3.779   2.773   8.545  0.3665 -0.4555 -0.4742
 1019MOL0     C37437   3.663   2.721   8.539  0.5703  0.4957 -0.4302
 1019MOL0     O37438   3.554   2.797   8.582 -0.4594  0.6710 -0.1242
 1019MOL0     C37439   3.415   2.772   8.542 -0.3774 -0.0557 -0.2787
 1019MOL0     C37440   3.328   2.683   8.631  0.0513  0.3289  1.4627
 1019MOL0     C37441   3.311   2.752   8.767  0.7859  0.5631 -0.2869
 1019MOL0     C37442   3.215   2.663   8.851 -0.4586 -0.3571 -0.0143
 1019MOL0     C37443   3.072   2.708   8.857 -0.0779  0.3960  0.1342
 1019MOL0     C37444   3.061   2.836   8.942 -0.3013 -1.0300 -0.2239
 1019MOL0     C37445   2.921   2.892   8.932  0.0870  0.3663  0.8682
 1019MOL0     C37446   2.890   2.999   9.038  0.2619 -0.2398  0.4091
 1019MOL0     N37447   2.768   3.073   9.009 -0.8035  0.4038 -0.4826
 1019MOL0     C37448   2.641   3.027   9.032 -0.5038  0.1858  0.1341
 1019MOL0     C37449   2.568   3.115   8.963 -0.2071  0.2504 -1.0503
 1019MOL0     C37450   2.429   3.085   8.927  0.2629  0.2585 -0.1587
 1019MOL0     C37451   2.323   3.166   9.010 -0.6427 -0.2533  0.2550
 1019MOL0     C37452   2.184   3.121   8.968  0.2149 -0.4523  0.1256
 1019MOL0     C37453   2.065   3.184   9.036  0.1850 -0.3710 -0.7375
 1019MOL0     O37454   1.951   3.145   8.969  0.0476  0.4106  0.4861
 1019MOL0     C37455   1.824   3.167   9.033  0.4289  0.7158  0.8086
 1019MOL0     C37456   1.809   3.203   9.171  0.2155 -1.5521  0.3868
 1019MOL0     C37457   1.682   3.214   9.226 -1.0311 -0.0214 -0.0768
 1019MOL0     C37458   1.676   3.274   9.366 -0.2765  0.3784  0.0671
 1019MOL0     C37459   1.569   3.195   9.146 -0.2125 -1.0073 -0.3677
 1019MOL0     C37460   1.418   3.211   9.190  0.3459 -0.2301  0.0729
 1019MOL0     O37461   1.326   3.201   9.088  0.3133 -0.7087  0.1899
 1019MOL0     C37462   1.192   3.184   9.099 -0.0276 -0.6173  0.3512
 1019MOL0     C37463   1.137   3.139   8.976 -0.2302  0.6080 -0.3800
 1019MOL0     C37464   0.999   3.138   8.963 -0.5116 -0.0972 -0.3843
 1019MOL0     C37465   0.919   3.180   9.065  0.9350  0.9497 -0.1043
 1019MOL0     O37466   0.787   3.172   9.036  0.5255  0.6875  0.3801
 1019MOL0     C37467   0.695   3.123   9.135 -0.8498 -0.9211 -0.3972
 1019MOL0     C37468   0.627   2.990   9.107 -0.2798 -0.8008 -0.6607
 1019MOL0     C37469   0.554   2.969   8.966 -0.6146 -0.3214 -0.2606
 1019MOL0     C37470   0.446   2.858   8.987 -0.1782 -0.3736 -0.0149
 1019MOL0     C37471   0.395   2.819   8.855  0.0178 -0.7437 -0.2199
 1019MOL0     C37472   0.258   2.752   8.864  0.3814  0.1433  0.9747
 1019MOL0     C37473   0.222   2.692   8.729  0.0042 -0.3483 -0.5570
 1019MOL0     C37474   0.074   2.664   8.723  0.2789 -0.1996 -0.6381
 1019MOL0    Cl37475  -0.008   2.827   8.672 -0.2407 -0.1575 -0.0310
 1019MOL0     C37476   0.972   3.232   9.182  0.2165  0.1317 -0.8001
 1019MOL0     C37477   1.105   3.229   9.199 -0.9555 -0.3604 -0.6125
 1019MOL0     O37478   1.387   3.208   9.312 -0.3174 -0.4762  0.4564
 1019MOL0     C37479   1.585   3.158   9.011 -0.7003  1.3817 -0.7993
 1019MOL0     C37480   1.713   3.147   8.951  0.1577  0.2327 -0.6911
 1019MOL0     N37481   2.646   3.220   8.924 -0.0105  0.2351 -0.4220
 1019MOL0     N37482   2.767   3.197   8.951 -0.8200  0.2758 -0.3229
 1019MOL0     C37483   3.658   2.584   8.481 -1.2274 -0.1183 -0.0162
 1019MOL0     C37484   3.780   2.513   8.448  0.0105 -0.5585 -0.6539
 1019MOL0     C37485   4.208   2.345   8.473 -0.2444  0.0125 -0.0420
 1019MOL0     C37486   4.248   2.211   8.486 -0.0542  0.7142  1.1194
 1019MOL0     C37487   4.381   2.173   8.484 -0.5655 -0.3223 -0.4182
 1019MOL0     C37488   4.484   2.265   8.467  0.0315 -0.0148 -0.2104
 1019MOL0     O37489   4.608   2.218   8.452 -0.5716  0.6990  0.0807
 1019MOL0     C37490   4.717   2.309   8.478  0.3512  0.1643  0.4521
 1019MOL0     C37491   4.854   2.240   8.464  0.3257 -0.2362  0.0433
 1019MOL0     C37492   4.863   2.104   8.531  0.2968 -0.4359  0.3838
 1019MOL0     C37493   4.999   2.038   8.521  0.0757  0.2540  0.4384
 1019MOL0     C37494   4.991   1.907   8.574  0.6424 -0.0754  0.7806
 1019MOL0     C37495   4.978   1.799   8.620  0.9270  0.0969  0.8016
 1019MOL0     C37496   4.445   2.399   8.465 -0.2126  0.7735 -0.3538
 1019MOL0     C37497   4.310   2.435   8.478  0.2086 -1.3138 -0.3652
 1019MOL0     H37498   3.995   2.744   8.537  0.1161 -0.1018  2.6016
 1019MOL0     H37499   3.783   2.872   8.587 -1.2696 -0.5957  0.0766
 1019MOL0     H37500   3.363   2.869   8.539  0.2823  0.2992 -0.3800
 1019MOL0     H37501   3.409   2.734   8.439 -2.9097 -3.6212  0.9622
 1019MOL0     H37502   3.236   2.680   8.572  0.9631  1.9662 -0.1712
 1019MOL0     H37503   3.372   2.583   8.633  2.3768  1.2377  0.0410
 1019MOL0     H37504   3.406   2.749   8.822  1.7102  2.2221 -1.6945
 1019MOL0     H37505   3.282   2.857   8.766  1.7115  0.8522  1.1147
 1019MOL0     H37506   3.217   2.560   8.815 -0.8231 -0.7453  1.0158
 1019MOL0     H37507   3.251   2.677   8.954  2.7112  0.6338 -1.1357
 1019MOL0     H37508   3.034   2.726   8.756 -1.3839  0.2445  0.5831
 1019MOL0     H37509   3.011   2.630   8.905  0.1163 -0.4468 -0.9554
 1019MOL0     H37510   3.087   2.813   9.046  2.6454 -1.9128 -1.0662
 1019MOL0     H37511   3.132   2.910   8.905 -3.9131  1.9507 -1.8666
 1019MOL0     H37512   2.908   2.949   8.840  0.0209 -0.2917  0.4666
 1019MOL0     H37513   2.846   2.813   8.931 -0.7257  1.0775  2.3054
 1019MOL0     H37514   2.965   3.078   9.027 -0.7651  0.5682 -1.2040
 1019MOL0     H37515   2.887   2.957   9.139 -1.1525  2.9834  1.8628
 1019MOL0     H37516   2.613   2.925   9.059  0.9719 -0.2568  0.0816
 1019MOL0     H37517   2.399   3.105   8.824 -1.6710 -0.3677  0.2523
 1019MOL0     H37518   2.409   2.981   8.952 -2.0759  0.7644  0.2491
 1019MOL0     H37519   2.336   3.273   8.992 -3.3795  0.4544  1.8322
 1019MOL0     H37520   2.342   3.141   9.114 -0.2012 -1.7288 -0.1578
 1019MOL0     H37521   2.179   3.012   8.979 -0.0452 -0.2608  2.2482
 1019MOL0     H37522   2.169   3.136   8.860  0.7864 -0.4876  0.0387
 1019MOL0     H37523   2.070   3.293   9.039  0.1009 -0.3794 -0.2156
 1019MOL0     H37524   2.049   3.146   9.137 -0.9842  0.3415 -0.6282
 1019MOL0     H37525   1.890   3.241   9.233 -1.3013  1.1832  0.8512
 1019MOL0     H37526   1.633   3.374   9.368 -3.8596 -1.0175  0.9719
 1019MOL0     H37527   1.611   3.212   9.429  0.6838 -1.1594 -0.3898
 1019MOL0     H37528   1.774   3.283   9.412 -0.0270  2.0124 -0.7304
 1019MOL0     H37529   1.192   3.104   8.889  1.3715  0.5556  0.6213
 1019MOL0     H37530   0.954   3.115   8.867 -1.2027  0.0089 -0.0921
 1019MOL0     H37531   0.740   3.109   9.234 -2.4787  0.6370  0.6327
 1019MOL0     H37532   0.620   3.202   9.142  0.9150  0.8540 -0.4353
 1019MOL0     H37533   0.698   2.907   9.115 -0.0040 -0.4594  0.5108
 1019MOL0     H37534   0.555   2.983   9.189 -0.2223 -0.3676 -0.5728
 1019MOL0     H37535   0.631   2.924   8.903  1.8667  0.1054  2.2673
 1019MOL0     H37536   0.510   3.062   8.929 -0.8188  0.1310  1.0651
 1019MOL0     H37537   0.493   2.770   9.032 -0.4972  0.6356  2.4791
 1019MOL0     H37538   0.368   2.890   9.058 -0.5049  0.5088 -0.7569
 1019MOL0     H37539   0.466   2.749   8.809  0.1856 -0.1973 -0.8073
 1019MOL0     H37540   0.379   2.909   8.795 -1.9359  0.1089  1.4606
 1019MOL0     H37541   0.255   2.676   8.943 -0.6849 -2.0671 -1.0280
 1019MOL0     H37542   0.174   2.816   8.890 -1.3987 -2.4161  2.0041
 1019MOL0     H37543   0.277   2.598   8.722 -1.2147 -1.0648 -0.6229
 1019MOL0     H37544   0.248   2.752   8.641 -0.0019 -0.4862 -0.6516
 1019MOL0     H37545   0.033   2.633   8.820  2.0714 -2.2427 -0.4646
 1019MOL0     H37546   0.051   2.598   8.639  0.3109  1.8624 -2.3657
 1019MOL0     H37547   0.898   3.274   9.250 -1.4349 -0.9372 -1.8664
 1019MOL0     H37548   1.155   3.268   9.287 -0.9988  5.1097 -2.6253
 1019MOL0     H37549   1.506   3.148   8.937 -0.9636  0.6495 -0.4243
 1019MOL0     H37550   1.731   3.110   8.851 -3.5018 -1.2165 -0.9895
 1019MOL0     H37551   3.558   2.542   8.474 -2.1092  1.3187  2.4171
 1019MOL0     H37552   3.773   2.415   8.402  2.7320 -1.2718  0.2339
 1019MOL0     H37553   4.181   2.127   8.499  2.4791 -1.3865  1.4235
 1019MOL0     H37554   4.404   2.066   8.480  1.0674  0.0259 -3.1046
 1019MOL0     H37555   4.719   2.394   8.409  3.4016  1.9222  2.4434
 1019MOL0     H37556   4.709   2.350   8.579  0.2376 -1.0441  0.9562
 1019MOL0     H37557   4.925   2.307   8.514  0.5224  0.8607 -1.6026
 1019MOL0     H37558   4.879   2.226   8.358  2.1866  2.1750  0.0742
 1019MOL0     H37559   4.791   2.042   8.476  3.7950 -4.9812  0.3029
 1019MOL0     H37560   4.831   2.125   8.634  0.6195  2.6053 -0.0471
 1019MOL0     H37561   5.079   2.096   8.569 -1.1735  0.6644  2.1247
 1019MOL0     H37562   5.018   2.031   8.414  2.8481  0.3142  0.8541
 1019MOL0     H37563   4.963   1.704   8.668 -0.2403 -0.4329 -0.5439
 1019MOL0     H37564   4.526   2.471   8.457  2.1048 -1.8010 -2.0735
 1019MOL0     H37565   4.285   2.540   8.487 -1.2722 -1.7416  0.6705
 1020MOL0     O37566   0.154   9.511   2.321 -0.3624 -0.4694 -0.3088
 1020MOL0     C37567   0.229   9.599   2.373  0.3751 -0.0150  0.0968
 1020MOL0     O37568   0.184   9.710   2.443 -0.1468 -0.1321 -0.5127
 1020MOL0     C37569   0.049   9.719   2.474 -0.6006 -0.6577  0.5377
 1020MOL0     C37570  -0.009   9.638   2.567  0.7561  0.0055  0.1025
 1020MOL0     C37571  -0.146   9.649   2.596 -0.2022  0.9661  0.3576
 1020MOL0     C37572  -0.220   9.757   2.548 -0.1485  0.1606  0.3607
 1020MOL0     O37573  -0.337   9.803   2.591  0.1813 -0.2908  0.0707
 1020MOL0     C37574  -0.415   9.731   2.688  0.0783  0.2707  0.9301
 1020MOL0     C37575  -0.560   9.757   2.657  0.2356  0.0487  0.1109
 1020MOL0     C37576  -0.651   9.641   2.690 -0.4476  0.6786 -0.1574
 1020MOL0     C37577  -0.797   9.687   2.668 -0.7428 -0.2561  0.2956
 1020MOL0     C37578  -0.894   9.567   2.681  0.7498  0.4179  0.1659
 1020MOL0     C37579  -0.926   9.535   2.831  0.1480 -0.5692 -0.2506
 1020MOL0     C37580  -1.056   9.455   2.830  0.3910  0.7288  0.2515
 1020MOL0     C37581  -1.191   9.526   2.832  0.2372  0.2760 -0.4765
 1020MOL0     N37582  -1.217   9.574   2.965 -0.9897 -0.9879 -0.7320
 1020MOL0     C37583  -1.181   9.695   3.011  0.4962 -0.2589 -0.0828
 1020MOL0     C37584  -1.236   9.689   3.135  0.1874  0.3284 -0.1930
 1020MOL0     C37585  -1.207   9.783   3.244  0.6440  0.1720  0.2483
 1020MOL0     C37586  -1.318   9.888   3.263  0.3828  0.2440  0.4847
 1020MOL0     C37587  -1.450   9.819   3.315 -0.4143 -0.0032 -0.0625
 1020MOL0     C37588  -1.556   9.923   3.354 -0.4116 -0.3655  0.2261
 1020MOL0     O37589  -1.497  10.002   3.453 -0.1259 -0.9632 -0.4079
 1020MOL0     C37590  -1.584  10.061   3.546 -0.0920  0.4688 -0.4216
 1020MOL0     C37591  -1.526  10.087   3.675  0.1320 -0.0996  1.3287
 1020MOL0     C37592  -1.602  10.132   3.780 -0.4658  0.2129 -0.1667
 1020MOL0     C37593  -1.536  10.179   3.907  0.5158 -0.0474 -0.4441
 1020MOL0     C37594  -1.745  10.148   3.753  0.4582 -0.3846  0.4691
 1020MOL0     C37595  -1.832  10.192   3.858  0.6516  0.0876  0.1588
 1020MOL0     O37596  -1.933  10.100   3.884  0.1206  0.2721  0.1033
 1020MOL0     C37597  -2.014  10.138   3.985 -0.3346  0.4494 -0.7870
 1020MOL0     C37598  -1.971  10.144   4.120  0.5399  0.1413  0.4552
 1020MOL0     C37599  -2.070  10.176   4.220 -0.2051 -0.9954  0.6416
 1020MOL0     C37600  -2.192  10.224   4.182  0.6311  0.8958 -0.3052
 1020MOL0     O37601  -2.283  10.270   4.281 -0.8683 -0.0698 -0.2066
 1020MOL0     C37602  -2.232  10.282   4.418 -0.1489 -0.2011 -0.6098
 1020MOL0     C37603  -2.354  10.303   4.511 -0.0811  0.0574 -0.2358
 1020MOL0     C37604  -2.315  10.256   4.657 -0.1638 -0.3426  0.9682
 1020MOL0     C37605  -2.391  10.129   4.688 -0.4000  0.3925  1.5811
 1020MOL0     C37606  -2.352  10.058   4.825  0.3304  0.3310  0.4857
 1020MOL0     C37607  -2.469   9.975   4.861  0.3677 -1.0033  0.2428
 1020MOL0     C37608  -2.439   9.878   4.984 -0.6382  0.2112 -0.2981
 1020MOL0     C37609  -2.554   9.780   5.006 -0.0957 -0.7503  0.4013
 1020MOL0    Cl37610  -2.705   9.856   5.006 -0.5533  0.0361 -0.4161
 1020MOL0     C37611  -2.235  10.216   4.044  0.0966 -0.2130  0.0627
 1020MOL0     C37612  -2.141  10.176   3.947  0.2064 -0.9147 -0.2926
 1020MOL0     O37613  -1.800  10.289   3.921  0.2313  0.4400 -1.0948
 1020MOL0     C37614  -1.797  10.138   3.623 -0.1453  0.5321  0.5616
 1020MOL0     C37615  -1.713  10.095   3.522  0.6816  0.0452 -0.3416
 1020MOL0     N37616  -1.320   9.577   3.150 -0.6197 -0.7105  0.1698
 1020MOL0     N37617  -1.302   9.512   3.045  0.4017  0.6778 -0.6252
 1020MOL0     C37618  -0.148   9.850   2.465  0.6148  0.2575  0.8049
 1020MOL0     C37619  -0.021   9.833   2.423  0.1407  0.1155  0.3601
 1020MOL0     C37620   0.371   9.600   2.326  0.6329  0.4109  0.3992
 1020MOL0     C37621   0.466   9.689   2.380  0.0808 -0.3241  0.0023
 1020MOL0     C37622   0.599   9.684   2.329  0.1244  0.2158  0.0311
 1020MOL0     C37623   0.649   9.593   2.231  0.4721 -0.7692 -0.2440
 1020MOL0     O37624   0.787   9.599   2.191  0.1148 -0.3237  0.1261
 1020MOL0     C37625   0.839   9.512   2.093 -0.2326  0.4267 -0.0919
 1020MOL0     C37626   0.977   9.562   2.034  0.6395 -0.7570  0.2805
 1020MOL0     C37627   0.959   9.677   1.936  0.4609 -0.2537 -0.1666
 1020MOL0     C37628   0.880   9.803   1.994 -0.3848 -0.0435 -0.0065
 1020MOL0     C37629   0.897   9.930   1.930 -0.5211 -0.0159 -0.3383
 1020MOL0     C37630   0.888  10.032   1.866  0.4410  0.4445 -0.9811
 1020MOL0     C37631   0.552   9.510   2.180  0.3627 -0.4009  0.2580
 1020MOL0     C37632   0.424   9.507   2.226  0.3035  0.1248 -0.3027
 1020MOL0     H37633   0.056   9.557   2.601  1.1267 -0.5316 -1.7577
 1020MOL0     H37634  -0.178   9.576   2.670  2.0792 -0.3304  0.1602
 1020MOL0     H37635  -0.393   9.626   2.664 -1.2619  0.5686 -2.0648
 1020MOL0     H37636  -0.388   9.759   2.790  2.2492  1.5649  0.0592
 1020MOL0     H37637  -0.583   9.846   2.717  0.6643  0.2883 -0.0787
 1020MOL0     H37638  -0.563   9.782   2.551  0.4301 -0.4120 -0.0054
 1020MOL0     H37639  -0.634   9.560   2.618 -0.4619  3.4064 -3.5290
 1020MOL0     H37640  -0.628   9.609   2.792 -0.9682  0.7731 -0.0072
 1020MOL0     H37641  -0.831   9.762   2.739 -2.4690 -1.4279  0.7669
 1020MOL0     H37642  -0.804   9.721   2.564  0.6804  1.4183  0.7059
 1020MOL0     H37643  -0.983   9.615   2.639  0.9544 -0.1708 -0.9837
 1020MOL0     H37644  -0.879   9.477   2.621 -1.5923  0.5690 -0.7390
 1020MOL0     H37645  -0.849   9.477   2.882  1.5742  0.9252 -0.6187
 1020MOL0     H37646  -0.944   9.634   2.874  0.2557 -0.3095 -0.7866
 1020MOL0     H37647  -1.063   9.393   2.740  1.0964  3.3072 -1.6888
 1020MOL0     H37648  -1.054   9.386   2.915  1.7131 -1.5830 -1.5494
 1020MOL0     H37649  -1.266   9.453   2.801  2.0362 -0.8113 -2.5902
 1020MOL0     H37650  -1.184   9.611   2.762 -1.8423  1.4489  0.6282
 1020MOL0     H37651  -1.124   9.774   2.962 -1.1466  1.9351  1.3313
 1020MOL0     H37652  -1.210   9.718   3.332 -1.3108 -0.1764 -0.0309
 1020MOL0     H37653  -1.108   9.825   3.224  0.7533 -0.2158 -0.0362
 1020MOL0     H37654  -1.334   9.945   3.171  0.4538  1.6664  1.3301
 1020MOL0     H37655  -1.292   9.965   3.337 -0.9447 -0.4935  1.7745
 1020MOL0     H37656  -1.427   9.751   3.397  0.5667 -1.1009 -1.1935
 1020MOL0     H37657  -1.494   9.759   3.235 -2.4374  0.1095  0.9185
 1020MOL0     H37658  -1.647   9.878   3.396  0.7890 -1.4835  1.7400
 1020MOL0     H37659  -1.586   9.984   3.269 -3.0612  0.7550  1.8266
 1020MOL0     H37660  -1.423  10.060   3.693  0.8831  0.6395 -1.4049
 1020MOL0     H37661  -1.528  10.287   3.920 -0.3549 -0.0136 -0.1118
 1020MOL0     H37662  -1.576  10.138   4.000  1.4536  1.0493  0.4743
 1020MOL0     H37663  -1.429  10.155   3.907  0.8709  1.4302 -1.6801
 1020MOL0     H37664  -1.875  10.101   4.145  0.2141  0.2647  2.0800
 1020MOL0     H37665  -2.023  10.172   4.318  2.8203  0.1071 -0.6145
 1020MOL0     H37666  -2.192  10.183   4.441 -0.6696 -0.5291 -1.0950
 1020MOL0     H37667  -2.160  10.364   4.430 -0.2823 -0.1668 -0.0061
 1020MOL0     H37668  -2.382  10.409   4.512  1.4175  0.4965 -1.5613
 1020MOL0     H37669  -2.440  10.246   4.477  0.8518 -1.1707 -0.5956
 1020MOL0     H37670  -2.329  10.341   4.724 -0.3102  0.6177 -0.2405
 1020MOL0     H37671  -2.209  10.229   4.661 -0.4979 -1.8470  0.2433
 1020MOL0     H37672  -2.496  10.161   4.691  0.9711  5.7478  2.5242
 1020MOL0     H37673  -2.378  10.059   4.605  0.0570  0.4050  1.6390
 1020MOL0     H37674  -2.338  10.132   4.904 -0.7517  0.6778  0.3722
 1020MOL0     H37675  -2.257  10.007   4.804 -0.7637 -1.1724 -1.1313
 1020MOL0     H37676  -2.558  10.036   4.874  1.1723  0.6628 -1.6122
 1020MOL0     H37677  -2.470   9.912   4.772 -0.1275  0.6957 -0.9960
 1020MOL0     H37678  -2.414   9.935   5.075  1.3792 -0.9619 -0.0437
 1020MOL0     H37679  -2.352   9.814   4.967 -0.9934  0.2069 -2.3602
 1020MOL0     H37680  -2.542   9.719   5.096  2.1777  2.1028  2.2283
 1020MOL0     H37681  -2.556   9.706   4.926  0.4099  0.5840 -0.8859
 1020MOL0     H37682  -2.339  10.243   4.029 -0.8336 -2.6597  1.4636
 1020MOL0     H37683  -2.164  10.174   3.841 -1.1111 -0.1757 -0.0491
 1020MOL0     H37684  -1.904  10.135   3.604  0.3012 -4.2036 -2.9971
 1020MOL0     H37685  -1.759  10.080   3.425  1.6808  1.8831 -1.1505
 1020MOL0     H37686  -0.209   9.936   2.438 -0.4870 -0.6563  0.2816
 1020MOL0     H37687   0.035   9.899   2.358  2.5020 -0.1249  2.0287
 1020MOL0     H37688   0.422   9.753   2.455  0.9574 -0.8118  0.9482
 1020MOL0     H37689   0.673   9.755   2.363 -0.7120  0.7331  0.8127
 1020MOL0     H37690   0.852   9.409   2.129  0.0367  0.5561  0.1795
 1020MOL0     H37691   0.772   9.499   2.008 -0.2205  1.3427 -0.2526
 1020MOL0     H37692   1.025   9.484   1.974  1.9827 -1.1806  1.8322
 1020MOL0     H37693   1.048   9.595   2.110  0.2296 -2.6338  1.5567
 1020MOL0     H37694   0.910   9.641   1.844  2.0975  1.0967 -1.6214
 1020MOL0     H37695   1.058   9.709   1.904  0.4521 -0.3671 -0.3079
 1020MOL0     H37696   0.935   9.811   2.088 -1.6478 -0.3742  0.7718
 1020MOL0     H37697   0.774   9.782   2.007 -0.8276  1.3929 -1.0738
 1020MOL0     H37698   0.861  10.122   1.813 -0.5705  1.2306  0.7741
 1020MOL0     H37699   0.580   9.440   2.102 -0.5594 -0.4184 -0.0691
 1020MOL0     H37700   0.356   9.451   2.163  0.2594  1.0789 -1.1235
 1021MOL0     O37701   0.967   9.691   8.624  0.0187 -0.8566 -0.5121
 1021MOL0     C37702   0.944   9.676   8.506 -0.5463  1.0788  0.2647
 1021MOL0     O37703   0.826   9.636   8.451  0.5584 -0.0274  0.5517
 1021MOL0     C37704   0.720   9.601   8.535  0.5635 -0.1857  0.0935
 1021MOL0     C37705   0.589   9.598   8.483 -0.7269 -0.2364  0.6844
 1021MOL0     C37706   0.476   9.558   8.557 -0.7106  0.3232  0.0123
 1021MOL0     C37707   0.490   9.505   8.681 -0.2010  0.5391  0.7361
 1021MOL0     O37708   0.393   9.446   8.762  0.0197  0.1806 -0.3474
 1021MOL0     C37709   0.256   9.493   8.743 -0.1865  0.0030 -0.6517
 1021MOL0     C37710   0.163   9.453   8.856 -1.0566  0.3222  0.5902
 1021MOL0     C37711   0.012   9.467   8.843  0.1188 -0.6189  0.6446
 1021MOL0     C37712  -0.059   9.383   8.955  0.4253 -0.5574  0.6713
 1021MOL0     C37713  -0.213   9.394   8.940 -0.3378 -0.7648 -0.1590
 1021MOL0     C37714  -0.285   9.301   9.035  0.5361 -0.2364 -0.6875
 1021MOL0     C37715  -0.445   9.319   9.032  0.8812  0.6082 -0.2604
 1021MOL0     C37716  -0.496   9.465   9.072  0.6069 -0.4432 -0.2233
 1021MOL0     N37717  -0.645   9.459   9.070 -0.7849 -0.3607  0.5177
 1021MOL0     C37718  -0.717   9.487   8.955  0.5400  0.5623  0.4515
 1021MOL0     C37719  -0.845   9.442   8.978 -0.0488 -0.3864 -0.5265
 1021MOL0     C37720  -0.957   9.447   8.872  0.4922  1.0400 -0.6994
 1021MOL0     C37721  -1.067   9.541   8.919  1.2480 -0.2254  0.5827
 1021MOL0     C37722  -1.186   9.545   8.819  0.4625  0.3515  0.2067
 1021MOL0     C37723  -1.280   9.656   8.871 -0.9400  0.0365 -0.3445
 1021MOL0     O37724  -1.323   9.648   9.013  0.0315 -0.2034 -0.2686
 1021MOL0     C37725  -1.440   9.592   9.053 -0.0515 -0.0954 -0.0870
 1021MOL0     C37726  -1.478   9.613   9.187 -0.1076 -0.6003  0.2800
 1021MOL0     C37727  -1.597   9.568   9.242 -0.3351 -0.3020 -0.4806
 1021MOL0     C37728  -1.626   9.602   9.377 -0.5019 -0.3842  0.2385
 1021MOL0     C37729  -1.681   9.495   9.159 -0.1075 -0.0815  0.4965
 1021MOL0     C37730  -1.798   9.434   9.211 -0.5513  0.9127 -0.2507
 1021MOL0     O37731  -1.916   9.474   9.158 -0.1119  0.2960 -0.1451
 1021MOL0     C37732  -2.024   9.441   9.235 -0.5942  0.1305  0.2390
 1021MOL0     C37733  -2.067   9.516   9.345 -0.0360 -0.6669 -0.5363
 1021MOL0     C37734  -2.178   9.466   9.424 -0.1617 -1.2645  0.2942
 1021MOL0     C37735  -2.231   9.339   9.383  0.3720 -0.1007 -0.2238
 1021MOL0     O37736  -2.331   9.282   9.460 -0.4912 -0.5504 -0.6711
 1021MOL0     C37737  -2.444   9.369   9.487 -0.2827 -0.6626 -0.4477
 1021MOL0     C37738  -2.532   9.411   9.371 -0.2887  0.0510  0.0489
 1021MOL0     C37739  -2.634   9.511   9.407  0.4404  0.0229 -1.0476
 1021MOL0     C37740  -2.748   9.520   9.304  0.0245 -0.6632  0.3176
 1021MOL0     C37741  -2.827   9.392   9.272  0.4204 -0.1455 -0.1466
 1021MOL0     C37742  -2.876   9.313   9.396 -0.8445  0.5964  0.0763
 1021MOL0     C37743  -2.988   9.391   9.468  0.4259 -0.5131  0.4730
 1021MOL0     C37744  -3.056   9.304   9.578  0.2153 -0.6502  0.4099
 1021MOL0    Cl37745  -2.937   9.277   9.715 -0.0821  0.3610  0.1557
 1021MOL0     C37746  -2.181   9.265   9.276 -0.1692 -0.3081  0.5681
 1021MOL0     C37747  -2.087   9.328   9.197 -0.2458  0.0364 -0.2898
 1021MOL0     O37748  -1.778   9.357   9.301 -0.0605  0.1524 -0.0028
 1021MOL0     C37749  -1.637   9.466   9.023 -0.0256 -0.5864  0.2743
 1021MOL0     C37750  -1.522   9.516   8.974 -0.3974 -0.0715  0.4672
 1021MOL0     N37751  -0.849   9.393   9.119 -0.2407  0.1871 -0.1561
 1021MOL0     N37752  -0.728   9.392   9.164 -0.6906 -0.5947  0.3839
 1021MOL0     C37753   0.618   9.500   8.729  0.8439  0.2777  0.3526
 1021MOL0     C37754   0.733   9.548   8.667  0.3371  0.0621  0.0874
 1021MOL0     C37755   1.050   9.693   8.416  0.0049 -0.2252  0.2038
 1021MOL0     C37756   1.030   9.695   8.280  0.3911  0.5506  0.0506
 1021MOL0     C37757   1.136   9.719   8.201 -0.0127 -0.1295 -0.5669
 1021MOL0     C37758   1.267   9.748   8.256  0.2272 -0.7760  0.5289
 1021MOL0     O37759   1.383   9.761   8.183  0.3950 -0.3209  0.9299
 1021MOL0     C37760   1.373   9.722   8.043 -0.0639  0.3175  0.1975
 1021MOL0     C37761   1.517   9.727   7.984 -0.3883 -0.5883  1.0633
 1021MOL0     C37762   1.626   9.658   8.065  0.6287  0.9458 -0.3034
 1021MOL0     C37763   1.747   9.612   7.981  0.4380 -0.3389  0.7709
 1021MOL0     C37764   1.841   9.573   8.085 -0.8989 -0.4536  0.2419
 1021MOL0     C37765   1.915   9.534   8.183 -0.5025  0.4812  0.7937
 1021MOL0     C37766   1.288   9.755   8.391 -0.0588 -0.5609 -0.5697
 1021MOL0     C37767   1.168   9.737   8.473 -1.0864 -0.0502  0.3205
 1021MOL0     H37768   0.582   9.637   8.382 -1.4961 -0.9463  0.4439
 1021MOL0     H37769   0.381   9.567   8.504 -0.9600 -0.7166  0.2601
 1021MOL0     H37770   0.255   9.601   8.730 -0.8862  0.0515 -0.2706
 1021MOL0     H37771   0.220   9.461   8.645 -1.2133 -2.3287  0.3935
 1021MOL0     H37772   0.168   9.344   8.867 -1.0271  0.3010  0.3530
 1021MOL0     H37773   0.195   9.496   8.952 -0.7880  1.2975  0.0639
 1021MOL0     H37774  -0.002   9.571   8.875  1.9030 -0.7460  2.0204
 1021MOL0     H37775  -0.028   9.454   8.743  0.9882 -0.3366  0.2486
 1021MOL0     H37776  -0.035   9.277   8.958 -1.4005 -1.0025  0.8753
 1021MOL0     H37777  -0.039   9.436   9.049 -2.0431  1.0643  0.3938
 1021MOL0     H37778  -0.230   9.500   8.961 -2.0210 -1.2684  1.2660
 1021MOL0     H37779  -0.237   9.378   8.834  0.1383  1.7356 -0.7139
 1021MOL0     H37780  -0.268   9.199   9.001 -1.7595 -0.3000 -1.8377
 1021MOL0     H37781  -0.248   9.321   9.137 -0.9445 -1.4240  0.1191
 1021MOL0     H37782  -0.485   9.291   8.934 -0.1431  1.1165 -0.0020
 1021MOL0     H37783  -0.479   9.248   9.107 -1.9857 -0.7163 -2.6175
 1021MOL0     H37784  -0.458   9.540   9.002  1.9143 -0.1621  0.7525
 1021MOL0     H37785  -0.465   9.496   9.172 -1.7271 -2.2138  1.1545
 1021MOL0     H37786  -0.677   9.522   8.860 -0.3290 -0.0939 -0.1788
 1021MOL0     H37787  -0.924   9.479   8.773  1.1108  0.0455 -0.8249
 1021MOL0     H37788  -1.001   9.348   8.857  2.0780  0.4651 -1.7901
 1021MOL0     H37789  -1.030   9.638   8.954 -1.0413  0.4919  1.1741
 1021MOL0     H37790  -1.106   9.510   9.016  0.7052  1.2278  0.8461
 1021MOL0     H37791  -1.249   9.455   8.811  0.9562  0.0632 -0.5035
 1021MOL0     H37792  -1.148   9.564   8.719 -0.2234  3.6593  0.4632
 1021MOL0     H37793  -1.366   9.645   8.804 -1.0753 -2.7468  0.1552
 1021MOL0     H37794  -1.235   9.753   8.852  0.5237 -1.1532 -3.8691
 1021MOL0     H37795  -1.416   9.679   9.246 -0.9658 -0.0766  0.6196
 1021MOL0     H37796  -1.733   9.621   9.392 -0.7786 -1.6269 -0.1046
 1021MOL0     H37797  -1.597   9.509   9.426  0.3936  0.0809  0.6156
 1021MOL0     H37798  -1.557   9.683   9.405 -1.7355  0.9702 -0.4924
 1021MOL0     H37799  -2.013   9.609   9.356  0.5432 -1.2765  3.3295
 1021MOL0     H37800  -2.211   9.527   9.508  1.5979 -0.6707  0.5838
 1021MOL0     H37801  -2.511   9.323   9.561 -2.8060  3.4116  0.1576
 1021MOL0     H37802  -2.418   9.461   9.539 -2.4502  0.5400 -1.3632
 1021MOL0     H37803  -2.463   9.456   9.298  1.4195  0.6887  1.9614
 1021MOL0     H37804  -2.581   9.322   9.331  0.1179 -0.4285  0.6014
 1021MOL0     H37805  -2.586   9.608   9.428 -0.0498  0.1768 -0.6079
 1021MOL0     H37806  -2.675   9.487   9.506 -0.2680  1.7065 -0.9015
 1021MOL0     H37807  -2.822   9.593   9.338 -1.8258 -2.2579 -0.1269
 1021MOL0     H37808  -2.696   9.553   9.214 -0.8788 -1.3242 -0.4683
 1021MOL0     H37809  -2.770   9.323   9.210  1.9800 -0.3460  1.4349
 1021MOL0     H37810  -2.914   9.429   9.217  0.2280 -0.8714 -0.3335
 1021MOL0     H37811  -2.927   9.220   9.366 -3.8347  1.9684  0.5108
 1021MOL0     H37812  -2.793   9.281   9.459 -0.6173  0.5229 -0.2601
 1021MOL0     H37813  -3.067   9.425   9.400  1.9544 -0.6666 -1.4809
 1021MOL0     H37814  -2.952   9.476   9.527 -0.3040 -0.9885  1.6357
 1021MOL0     H37815  -3.094   9.209   9.539  2.7562 -2.0628  1.1563
 1021MOL0     H37816  -3.139   9.360   9.622  1.2311 -1.3113  3.3973
 1021MOL0     H37817  -2.225   9.172   9.242 -2.0339  0.5632  0.4611
 1021MOL0     H37818  -2.053   9.279   9.107  4.4584  0.0041  1.2143
 1021MOL0     H37819  -1.709   9.410   8.964 -0.6200 -0.2158  0.6441
 1021MOL0     H37820  -1.507   9.496   8.868  1.5069  0.1726  0.6485
 1021MOL0     H37821   0.640   9.445   8.820 -1.0808 -1.4595 -0.1585
 1021MOL0     H37822   0.829   9.532   8.714  0.2779  1.3913  0.7103
 1021MOL0     H37823   0.934   9.683   8.232  1.9230 -1.0275 -2.8992
 1021MOL0     H37824   1.121   9.719   8.094 -3.8304 -2.3627 -0.1914
 1021MOL0     H37825   1.345   9.617   8.045  1.3592 -0.1004 -0.5790
 1021MOL0     H37826   1.310   9.785   7.979  2.3138  1.1360 -1.4966
 1021MOL0     H37827   1.546   9.832   7.975 -0.4267 -0.6835 -0.3512
 1021MOL0     H37828   1.506   9.679   7.886 -1.6461  0.4556  0.6602
 1021MOL0     H37829   1.585   9.572   8.117  0.4586  1.8008  1.0294
 1021MOL0     H37830   1.649   9.737   8.137  0.0309  1.5975 -0.8091
 1021MOL0     H37831   1.792   9.693   7.923  0.1993 -1.0882 -0.5103
 1021MOL0     H37832   1.727   9.529   7.912  4.4171 -0.3004 -0.6891
 1021MOL0     H37833   1.977   9.512   8.267  0.2925 -1.3899 -0.2084
 1021MOL0     H37834   1.386   9.788   8.425  0.4028  1.1404 -3.2238
 1021MOL0     H37835   1.178   9.761   8.579  1.8094 -1.2424  0.3991
 1022MOL0     O37836   3.547   4.865   8.671  0.4490 -0.1340 -0.5712
 1022MOL0     C37837   3.593   4.763   8.632 -0.4675  0.1493  1.3278
 1022MOL0     O37838   3.537   4.647   8.604  0.1146  0.2860  0.1741
 1022MOL0     C37839   3.401   4.635   8.617 -0.7474  0.0159  0.9714
 1022MOL0     C37840   3.341   4.628   8.746 -0.1961 -0.0750 -0.3002
 1022MOL0     C37841   3.209   4.595   8.752 -0.1394 -0.5452 -0.1742
 1022MOL0     C37842   3.136   4.554   8.637 -0.7328  0.2910 -0.1657
 1022MOL0     O37843   2.998   4.546   8.638 -0.1983 -0.0584  0.1351
 1022MOL0     C37844   2.942   4.457   8.735  0.5423 -0.3021 -0.2875
 1022MOL0     C37845   2.790   4.453   8.705  0.4254  0.1710  0.5717
 1022MOL0     C37846   2.700   4.556   8.771  0.4334  0.3153  0.2673
 1022MOL0     C37847   2.678   4.533   8.924 -0.0168  0.5980 -0.0305
 1022MOL0     C37848   2.737   4.642   9.025  0.7361 -0.0953 -0.3422
 1022MOL0     C37849   2.708   4.608   9.168 -0.3038 -0.1862 -0.0699
 1022MOL0     C37850   2.743   4.724   9.264  0.2965  0.5332  0.0460
 1022MOL0     C37851   2.627   4.837   9.266 -0.1113 -0.1899  0.0239
 1022MOL0     N37852   2.502   4.797   9.342  0.0321 -0.2287  0.1325
 1022MOL0     C37853   2.472   4.781   9.477 -0.4742 -0.8918 -0.2834
 1022MOL0     C37854   2.342   4.750   9.480 -0.1004  0.3978  0.8184
 1022MOL0     C37855   2.262   4.745   9.609 -0.5043 -0.5214 -0.1910
 1022MOL0     C37856   2.109   4.753   9.567 -0.2764  0.6973  0.4747
 1022MOL0     C37857   2.015   4.781   9.683  0.1621 -0.3379  0.1034
 1022MOL0     C37858   1.879   4.816   9.634 -0.6427 -0.1250 -0.2064
 1022MOL0     O37859   1.825   4.711   9.548 -0.2058  0.5209  0.4763
 1022MOL0     C37860   1.688   4.705   9.531  0.0270  0.1798 -0.3553
 1022MOL0     C37861   1.633   4.584   9.476  0.5883  0.0874 -0.5882
 1022MOL0     C37862   1.499   4.576   9.440  0.0443 -0.5879 -0.1303
 1022MOL0     C37863   1.453   4.445   9.385 -0.5356  0.0223  0.5009
 1022MOL0     C37864   1.409   4.682   9.453 -0.0452  0.8482 -0.5353
 1022MOL0     C37865   1.265   4.668   9.426  0.0317 -0.6650 -0.1495
 1022MOL0     O37866   1.185   4.740   9.513 -0.2879  0.5279 -0.0711
 1022MOL0     C37867   1.046   4.720   9.519  0.4817 -0.4427 -0.4382
 1022MOL0     C37868   0.980   4.822   9.583  0.5881  0.6090 -0.0306
 1022MOL0     C37869   0.847   4.814   9.612  0.2599  0.8046  0.0476
 1022MOL0     C37870   0.769   4.704   9.573  0.8060  1.0143 -0.1142
 1022MOL0     O37871   0.636   4.679   9.607  0.0185 -0.1573 -0.4310
 1022MOL0     C37872   0.569   4.758   9.704 -0.2990  0.1452  0.0510
 1022MOL0     C37873   0.433   4.703   9.715  0.7129 -0.3703  0.4215
 1022MOL0     C37874   0.344   4.807   9.789  0.2105 -0.3340  0.2156
 1022MOL0     C37875   0.214   4.729   9.833 -0.0147 -0.1963  0.2966
 1022MOL0     C37876   0.107   4.832   9.880  0.0679  0.3742 -0.0917
 1022MOL0     C37877  -0.014   4.755   9.928  0.4978  0.0899  0.3312
 1022MOL0     C37878  -0.139   4.848   9.947  0.1907 -0.1241  0.0471
 1022MOL0     C37879  -0.265   4.758   9.967  0.8440 -0.1140 -0.4280
 1022MOL0    Cl37880  -0.315   4.688   9.799 -0.1816  0.0351  0.0239
 1022MOL0     C37881   0.839   4.594   9.520 -0.3509 -0.0142 -0.0999
 1022MOL0     C37882   0.976   4.598   9.496 -0.8255 -0.0885  0.2762
 1022MOL0     O37883   1.220   4.615   9.323 -0.0116 -0.5490 -0.0279
 1022MOL0     C37884   1.460   4.790   9.523  0.6885 -0.4639 -0.0969
 1022MOL0     C37885   1.592   4.801   9.561 -0.2773  0.6975  0.3667
 1022MOL0     N37886   2.298   4.725   9.344  0.4470  0.4332  0.5363
 1022MOL0     N37887   2.395   4.766   9.266 -0.7947  0.1484 -0.8278
 1022MOL0     C37888   3.205   4.543   8.512 -0.4100  0.0407  0.1638
 1022MOL0     C37889   3.337   4.581   8.509  0.3407  0.1123  0.3884
 1022MOL0     C37890   3.738   4.777   8.598 -1.1796  0.1977 -0.1008
 1022MOL0     C37891   3.814   4.670   8.548 -0.1887 -0.2070 -0.2244
 1022MOL0     C37892   3.951   4.675   8.532 -0.5895 -0.1481 -0.1145
 1022MOL0     C37893   4.021   4.797   8.550  0.6290 -0.2841  1.3321
 1022MOL0     O37894   4.152   4.801   8.507 -0.1370  0.6748 -0.9066
 1022MOL0     C37895   4.239   4.908   8.536  0.0526  0.3409 -0.0324
 1022MOL0     C37896   4.281   4.978   8.409 -0.5755  0.1189 -0.0791
 1022MOL0     C37897   4.352   4.874   8.322 -0.6929 -0.9383  0.5316
 1022MOL0     C37898   4.428   4.933   8.208 -0.1478  0.2741 -0.3755
 1022MOL0     C37899   4.341   4.968   8.100  0.5650 -0.5144  0.1597
 1022MOL0     C37900   4.272   5.004   8.004 -0.7844  0.8532 -0.3559
 1022MOL0     C37901   3.950   4.909   8.604  0.7740  0.6807 -0.0611
 1022MOL0     C37902   3.814   4.899   8.626  0.3828  0.5963 -0.1138
 1022MOL0     H37903   3.391   4.659   8.837 -1.6701 -3.9924  2.0929
 1022MOL0     H37904   3.160   4.592   8.848  0.8930 -0.5508  0.3597
 1022MOL0     H37905   2.987   4.357   8.726 -0.0196 -0.7370  1.3633
 1022MOL0     H37906   2.969   4.498   8.833  0.5884  3.0817 -1.6023
 1022MOL0     H37907   2.776   4.457   8.597  0.7907 -1.1662  0.4513
 1022MOL0     H37908   2.753   4.353   8.731  1.0689  0.1695  1.5211
 1022MOL0     H37909   2.758   4.646   8.749  0.0524  0.8482  1.4018
 1022MOL0     H37910   2.603   4.562   8.720  0.5710  0.4245  0.0149
 1022MOL0     H37911   2.574   4.517   8.955  0.1737  0.9062  0.7836
 1022MOL0     H37912   2.733   4.444   8.956  1.7432  1.8284  0.4651
 1022MOL0     H37913   2.845   4.651   9.009  0.3605 -0.4289 -3.6902
 1022MOL0     H37914   2.699   4.743   9.003 -2.4639 -1.3203 -0.9932
 1022MOL0     H37915   2.603   4.577   9.169  0.7722 -4.5646 -0.8169
 1022MOL0     H37916   2.770   4.520   9.190  0.4061  0.3691  0.1910
 1022MOL0     H37917   2.751   4.683   9.365  0.3243  2.2780  0.7845
 1022MOL0     H37918   2.836   4.776   9.239  0.5023 -0.9814 -2.8162
 1022MOL0     H37919   2.602   4.873   9.166 -1.2536  2.3839  1.1545
 1022MOL0     H37920   2.660   4.930   9.313 -0.0963 -0.4093  0.4538
 1022MOL0     H37921   2.538   4.796   9.562 -0.1039 -0.8652 -0.5689
 1022MOL0     H37922   2.286   4.659   9.673 -0.3181  1.0595  1.9592
 1022MOL0     H37923   2.288   4.831   9.670  0.1253 -1.1991  0.5209
 1022MOL0     H37924   2.088   4.657   9.519  0.6283  0.8167 -0.1785
 1022MOL0     H37925   2.090   4.825   9.487  0.6277 -3.0180 -3.4413
 1022MOL0     H37926   2.060   4.845   9.759 -0.5775  0.6796 -0.2980
 1022MOL0     H37927   2.001   4.687   9.736  0.1465 -0.9239 -0.9072
 1022MOL0     H37928   1.890   4.902   9.566  1.7464 -0.0862  0.1529
 1022MOL0     H37929   1.817   4.857   9.714  1.8634  0.7962  1.3654
 1022MOL0     H37930   1.692   4.496   9.451  1.6094  0.4585  0.4801
 1022MOL0     H37931   1.365   4.414   9.440 -0.2322  1.0075  1.5761
 1022MOL0     H37932   1.429   4.454   9.278  1.1999  0.0981  0.0746
 1022MOL0     H37933   1.530   4.367   9.377 -0.2279  0.4220 -0.6669
 1022MOL0     H37934   1.032   4.908   9.625 -0.9318  2.0852 -0.9964
 1022MOL0     H37935   0.797   4.886   9.677 -0.5203 -1.4799  2.1832
 1022MOL0     H37936   0.614   4.770   9.803 -2.0740 -0.6205  1.0044
 1022MOL0     H37937   0.571   4.861   9.665 -0.4866 -0.0374 -0.4537
 1022MOL0     H37938   0.402   4.684   9.612  0.1897  1.8852  0.1140
 1022MOL0     H37939   0.439   4.609   9.771  0.1182 -0.7729 -0.1751
 1022MOL0     H37940   0.319   4.891   9.724  0.6467  1.4588  2.2167
 1022MOL0     H37941   0.392   4.850   9.878 -1.0466  0.1639  0.6856
 1022MOL0     H37942   0.170   4.672   9.751 -2.4238  0.2882  1.1512
 1022MOL0     H37943   0.235   4.646   9.900 -2.6358 -2.4261 -1.4505
 1022MOL0     H37944   0.069   4.902   9.805  2.0244  2.2275  0.5565
 1022MOL0     H37945   0.148   4.902   9.954 -2.2355  0.6070  1.0398
 1022MOL0     H37946  -0.043   4.693   9.842 -1.7977 -0.4569  1.4302
 1022MOL0     H37947   0.009   4.698  10.019 -0.7119  0.2864  0.7767
 1022MOL0     H37948  -0.155   4.902   9.854 -0.5827 -0.2742  0.0844
 1022MOL0     H37949  -0.125   4.918  10.030  0.0632 -2.4143  2.1161
 1022MOL0     H37950  -0.351   4.824   9.986  2.9841  2.2073  2.0218
 1022MOL0     H37951  -0.263   4.683  10.047 -3.2520 -0.5930 -0.5600
 1022MOL0     H37952   0.790   4.505   9.483 -0.1080  0.0920 -0.6842
 1022MOL0     H37953   1.024   4.510   9.454 -1.1692 -0.6254  0.9936
 1022MOL0     H37954   1.398   4.877   9.544  0.2283 -0.8047 -0.0252
 1022MOL0     H37955   1.621   4.897   9.602 -0.7761  1.3139 -0.6632
 1022MOL0     H37956   3.153   4.516   8.420  0.6761 -1.6041  0.0005
 1022MOL0     H37957   3.373   4.591   8.407 -3.3645 -0.0701 -1.0982
 1022MOL0     H37958   3.768   4.576   8.517 -1.5912  0.3563  0.0687
 1022MOL0     H37959   4.014   4.594   8.497 -0.9580  0.5386 -2.5682
 1022MOL0     H37960   4.191   4.985   8.598 -1.1176  0.8623 -1.5369
 1022MOL0     H37961   4.323   4.867   8.594  0.5632 -2.2095 -2.3821
 1022MOL0     H37962   4.351   5.061   8.426 -0.0618 -0.0188 -1.4105
 1022MOL0     H37963   4.189   5.014   8.361 -0.2751  0.2040 -0.5986
 1022MOL0     H37964   4.289   4.790   8.292 -1.8186  0.4426 -1.1666
 1022MOL0     H37965   4.433   4.852   8.392  1.0104  0.1727 -1.0146
 1022MOL0     H37966   4.499   4.857   8.174  0.3162  0.7864 -0.5723
 1022MOL0     H37967   4.479   5.023   8.244 -0.8382  0.4685  0.1416
 1022MOL0     H37968   4.215   5.042   7.921 -0.6967  1.2888 -0.2185
 1022MOL0     H37969   3.989   5.006   8.634  0.5755  0.3531  1.3125
 1022MOL0     H37970   3.752   4.979   8.667 -3.1000 -1.9508  0.0964
 1023MOL0     O37971   5.396   4.704   6.562 -0.7115  0.1937 -0.3206
 1023MOL0     C37972   5.420   4.647   6.457  1.0602  1.0982 -0.0440
 1023MOL0     O37973   5.331   4.615   6.367 -0.1034 -0.3994 -0.2701
 1023MOL0     C37974   5.200   4.654   6.377  0.9164  0.5237  1.1663
 1023MOL0     C37975   5.097   4.559   6.375 -0.1502  0.3921  0.1657
 1023MOL0     C37976   4.962   4.603   6.389 -0.3624 -0.1584  0.3362
 1023MOL0     C37977   4.935   4.739   6.390 -0.9013 -0.3247 -0.2820
 1023MOL0     O37978   4.809   4.763   6.420 -0.2677 -0.1938  0.7669
 1023MOL0     C37979   4.763   4.899   6.440  0.2793  0.2370  0.3845
 1023MOL0     C37980   4.613   4.878   6.482 -0.1899  0.0444  0.0936
 1023MOL0     C37981   4.529   5.015   6.507 -0.7271  0.4903  0.6191
 1023MOL0     C37982   4.388   4.985   6.463 -0.0454 -0.3808  0.3548
 1023MOL0     C37983   4.293   5.081   6.544  0.3214  0.9221  0.3537
 1023MOL0     C37984   4.148   5.092   6.470 -0.6869 -0.1250  0.2425
 1023MOL0     C37985   4.146   5.209   6.371  0.5266 -0.3974  0.2463
 1023MOL0     C37986   4.004   5.253   6.326  0.2107  0.5794 -0.4254
 1023MOL0     N37987   3.911   5.274   6.440  0.0126 -0.6713 -1.6828
 1023MOL0     C37988   3.815   5.181   6.474 -0.3983 -0.3134  0.3990
 1023MOL0     C37989   3.743   5.236   6.572  0.0172  0.5090 -0.0839
 1023MOL0     C37990   3.606   5.184   6.623 -0.3048  0.3335 -0.0276
 1023MOL0     C37991   3.479   5.225   6.533  0.0601  0.0244  0.6351
 1023MOL0     C37992   3.423   5.359   6.587  0.2916 -0.0472 -0.5757
 1023MOL0     C37993   3.279   5.379   6.532 -0.3059 -0.6639 -1.5760
 1023MOL0     O37994   3.304   5.417   6.398 -0.3407 -0.5874  0.1639
 1023MOL0     C37995   3.198   5.440   6.320  0.6226 -0.0838  0.2893
 1023MOL0     C37996   3.068   5.450   6.361 -0.1477 -0.3604  0.0294
 1023MOL0     C37997   2.957   5.470   6.282  0.1735 -1.1819 -0.3110
 1023MOL0     C37998   2.822   5.491   6.356 -0.2024 -0.6838  0.1887
 1023MOL0     C37999   2.975   5.495   6.143  0.1505  0.5381  0.5693
 1023MOL0     C38000   2.873   5.541   6.045 -0.4544 -0.0993 -0.0266
 1023MOL0     O38001   2.749   5.528   6.075  0.4883  0.0358 -0.1323
 1023MOL0     C38002   2.647   5.578   6.001 -0.4502 -0.8786 -0.6177
 1023MOL0     C38003   2.529   5.504   5.989 -0.2014 -0.5328 -0.5099
 1023MOL0     C38004   2.413   5.555   5.924  0.2612 -0.4349  0.5443
 1023MOL0     C38005   2.417   5.677   5.853 -1.4352  0.7229 -0.3911
 1023MOL0     O38006   2.328   5.732   5.766  0.0038  0.0868  0.2796
 1023MOL0     C38007   2.198   5.672   5.758 -0.4947 -0.4131 -0.0693
 1023MOL0     C38008   2.118   5.772   5.665  0.7367 -0.5368 -0.1931
 1023MOL0     C38009   1.980   5.725   5.629 -0.2193  0.2141  0.5006
 1023MOL0     C38010   1.945   5.796   5.501 -0.1089 -0.1048  0.0005
 1023MOL0     C38011   1.795   5.802   5.469 -1.0412 -0.9659  0.7234
 1023MOL0     C38012   1.750   5.662   5.427 -0.0549  0.1368 -0.2608
 1023MOL0     C38013   1.610   5.660   5.367  0.6504 -0.1724 -0.0092
 1023MOL0     C38014   1.502   5.713   5.456  0.4354  0.9483 -0.7259
 1023MOL0    Cl38015   1.359   5.695   5.348 -0.8280  0.2044 -0.0923
 1023MOL0     C38016   2.529   5.753   5.874 -1.1730  0.1336 -0.6383
 1023MOL0     C38017   2.651   5.710   5.948  0.2117 -0.4191  0.0197
 1023MOL0     O38018   2.910   5.593   5.942 -0.1226  0.5107 -0.9480
 1023MOL0     C38019   3.108   5.470   6.097  0.1167  0.5128 -0.3009
 1023MOL0     C38020   3.212   5.443   6.185 -0.3129 -0.6135  0.4021
 1023MOL0     N38021   3.799   5.359   6.610 -0.9077 -0.6987 -0.0359
 1023MOL0     N38022   3.896   5.388   6.528 -0.2344  0.7496  0.1303
 1023MOL0     C38023   5.040   4.834   6.383  0.6577 -0.3801 -1.0463
 1023MOL0     C38024   5.169   4.786   6.373  0.3957 -0.4736 -0.3227
 1023MOL0     C38025   5.565   4.604   6.431 -0.4098  0.2748  0.5838
 1023MOL0     C38026   5.652   4.590   6.541 -0.3634 -0.0194  0.4806
 1023MOL0     C38027   5.782   4.544   6.530 -0.9647 -0.6376 -0.3949
 1023MOL0     C38028   5.841   4.531   6.401 -0.5841  0.6001  0.3489
 1023MOL0     O38029   5.970   4.501   6.388 -0.3472  0.7140 -0.5699
 1023MOL0     C38030   6.038   4.543   6.267 -0.1897 -0.3255 -0.4836
 1023MOL0     C38031   6.190   4.503   6.268  0.0177 -0.2878  0.5220
 1023MOL0     C38032   6.259   4.532   6.136  0.6308  0.0930  0.4233
 1023MOL0     C38033   6.415   4.529   6.148 -0.1120 -0.3793 -0.1369
 1023MOL0     C38034   6.470   4.615   6.040 -0.5857 -0.0343 -1.0181
 1023MOL0     C38035   6.522   4.683   5.957  0.2897  0.0501 -0.5090
 1023MOL0     C38036   5.753   4.542   6.285 -0.5042  0.5158  0.5281
 1023MOL0     C38037   5.619   4.575   6.304  0.4728  0.7311 -0.5545
 1023MOL0     H38038   5.128   4.456   6.365 -1.7360 -0.5831  3.7552
 1023MOL0     H38039   4.889   4.523   6.398 -1.1307  0.4684 -0.1713
 1023MOL0     H38040   4.816   4.953   6.519 -0.5774  0.9039  0.5209
 1023MOL0     H38041   4.766   4.961   6.349 -1.5469  2.8624  1.9827
 1023MOL0     H38042   4.562   4.826   6.401 -0.7298  1.7221 -0.6963
 1023MOL0     H38043   4.612   4.819   6.574  1.6203 -1.0065 -0.5081
 1023MOL0     H38044   4.537   5.027   6.615  2.7545  1.5497  0.3644
 1023MOL0     H38045   4.563   5.099   6.446  0.3039 -1.2341 -1.3198
 1023MOL0     H38046   4.378   4.999   6.355  2.3687 -2.0598 -0.1718
 1023MOL0     H38047   4.358   4.881   6.483  3.0525 -0.7799  4.0783
 1023MOL0     H38048   4.279   5.034   6.642  1.7013  0.1691  0.1981
 1023MOL0     H38049   4.339   5.179   6.555  0.3813  0.7223  2.0945
 1023MOL0     H38050   4.120   5.000   6.417  0.0421  1.0107 -2.2759
 1023MOL0     H38051   4.080   5.119   6.552 -0.1302  0.4316  0.5233
 1023MOL0     H38052   4.205   5.293   6.411  0.5085  0.0770 -0.7025
 1023MOL0     H38053   4.200   5.186   6.279  1.3923  0.1936  0.5942
 1023MOL0     H38054   3.955   5.185   6.256  0.6548 -0.5539  0.3368
 1023MOL0     H38055   4.012   5.347   6.270 -0.1792  0.8465 -0.0380
 1023MOL0     H38056   3.806   5.082   6.431 -3.3315  0.4339 -0.9558
 1023MOL0     H38057   3.611   5.077   6.642  2.2522  0.4429  0.2993
 1023MOL0     H38058   3.584   5.228   6.720 -1.1322  3.1837 -1.3811
 1023MOL0     H38059   3.404   5.146   6.549  0.7407 -0.5497  1.0540
 1023MOL0     H38060   3.525   5.234   6.434  2.4614 -0.1812  1.6617
 1023MOL0     H38061   3.489   5.433   6.540  2.0991 -1.7098 -0.7546
 1023MOL0     H38062   3.426   5.367   6.696  0.7678  2.3932 -0.7133
 1023MOL0     H38063   3.225   5.452   6.593 -0.4069 -1.6935 -0.3641
 1023MOL0     H38064   3.210   5.295   6.549  0.4936 -1.0965 -0.2372
 1023MOL0     H38065   3.044   5.450   6.467  0.6238  0.0866  0.2090
 1023MOL0     H38066   2.820   5.444   6.454 -2.3081  2.5609  1.8746
 1023MOL0     H38067   2.820   5.600   6.370  3.6010 -0.1972 -1.6451
 1023MOL0     H38068   2.739   5.453   6.296  0.4439 -0.0911 -1.1348
 1023MOL0     H38069   2.516   5.404   6.029 -4.4390  0.4505  1.1127
 1023MOL0     H38070   2.317   5.509   5.903  0.5172 -0.3706 -0.8550
 1023MOL0     H38071   2.211   5.569   5.723 -0.5556 -0.8000  1.0121
 1023MOL0     H38072   2.151   5.665   5.856  1.1949  0.5829  0.8661
 1023MOL0     H38073   2.109   5.866   5.720 -0.9860 -1.2040  0.7306
 1023MOL0     H38074   2.186   5.801   5.585  1.1631  2.1143  1.0114
 1023MOL0     H38075   1.907   5.748   5.707 -0.2615 -1.9825  1.1861
 1023MOL0     H38076   1.972   5.618   5.608 -0.7896  0.2973  0.2733
 1023MOL0     H38077   1.977   5.901   5.501 -0.4767  0.0238 -1.2290
 1023MOL0     H38078   2.002   5.745   5.423  0.7582 -2.0643  1.8165
 1023MOL0     H38079   1.788   5.868   5.382 -0.1131 -1.6058  0.1481
 1023MOL0     H38080   1.747   5.855   5.552 -0.7928  2.1477 -1.0025
 1023MOL0     H38081   1.823   5.633   5.350  1.5286  0.4000  1.0685
 1023MOL0     H38082   1.754   5.596   5.513 -2.6557 -0.9665 -0.9028
 1023MOL0     H38083   1.595   5.552   5.352  1.6884 -0.1125 -1.8303
 1023MOL0     H38084   1.597   5.708   5.270 -2.7831  0.7234  0.7644
 1023MOL0     H38085   1.534   5.811   5.492 -0.9313  2.1112 -2.4677
 1023MOL0     H38086   1.485   5.639   5.535  0.7116 -2.3116 -3.4872
 1023MOL0     H38087   2.544   5.849   5.824 -0.5546  0.0128 -0.6941
 1023MOL0     H38088   2.738   5.773   5.935  1.7393 -3.0095 -4.5973
 1023MOL0     H38089   3.142   5.487   5.995 -0.0842 -1.5740 -0.7543
 1023MOL0     H38090   3.315   5.428   6.154  0.7326  0.1022  3.2689
 1023MOL0     H38091   5.020   4.940   6.398 -2.9180 -0.8580 -1.5348
 1023MOL0     H38092   5.238   4.868   6.360 -1.9993  2.0085  1.3653
 1023MOL0     H38093   5.608   4.617   6.637  0.4157  1.3546  0.4669
 1023MOL0     H38094   5.832   4.527   6.625 -1.1117  0.5359 -0.0850
 1023MOL0     H38095   5.996   4.487   6.183  0.6993 -1.6158 -0.1170
 1023MOL0     H38096   6.042   4.651   6.255 -0.7597  0.0325  1.9898
 1023MOL0     H38097   6.203   4.398   6.295 -1.0445  0.0297  2.4388
 1023MOL0     H38098   6.239   4.572   6.337  1.4888 -0.7267 -0.0588
 1023MOL0     H38099   6.228   4.630   6.099 -0.8540 -0.8502 -0.9402
 1023MOL0     H38100   6.220   4.459   6.065 -1.5370 -0.1258  1.7466
 1023MOL0     H38101   6.448   4.425   6.135 -1.1237 -0.5609 -1.4533
 1023MOL0     H38102   6.453   4.566   6.243 -3.5618  0.7111  0.9590
 1023MOL0     H38103   6.547   4.740   5.869  2.3762 -1.7062 -1.1684
 1023MOL0     H38104   5.774   4.508   6.184 -4.9392  2.6754 -1.3860
 1023MOL0     H38105   5.548   4.576   6.222 -0.7020  1.9532  0.4111
 1024MOL0     O38106   8.333   7.433   1.826 -0.3061 -0.5984 -1.0838
 1024MOL0     C38107   8.396   7.334   1.810 -0.3514 -0.9448 -0.2654
 1024MOL0     O38108   8.355   7.205   1.843  0.1738 -0.2835  0.1565
 1024MOL0     C38109   8.225   7.200   1.888 -0.4658 -0.1901 -0.2411
 1024MOL0     C38110   8.209   7.152   2.021  0.3671 -0.4431 -0.8080
 1024MOL0     C38111   8.087   7.130   2.074  0.1535  0.4746 -0.2715
 1024MOL0     C38112   7.973   7.152   1.996  0.6954  0.3302  0.2013
 1024MOL0     O38113   7.847   7.116   2.030  0.3281  0.0092  0.1919
 1024MOL0     C38114   7.829   6.993   2.113  0.4033  0.0141 -0.0146
 1024MOL0     C38115   7.685   6.942   2.140  1.5367 -0.3424  0.0260
 1024MOL0     C38116   7.594   7.054   2.188  0.7101 -0.0283 -0.3328
 1024MOL0     C38117   7.459   7.001   2.240 -0.2669 -0.0143 -0.2749
 1024MOL0     C38118   7.330   7.075   2.196  0.1190  0.2936  0.2481
 1024MOL0     C38119   7.201   6.991   2.194 -0.1021 -0.4719 -0.0404
 1024MOL0     C38120   7.080   7.077   2.179 -0.4096 -0.3890 -0.1202
 1024MOL0     C38121   7.022   7.137   2.304 -0.0892  0.0849 -0.1361
 1024MOL0     N38122   6.964   7.036   2.395 -0.0284  0.0788 -0.1210
 1024MOL0     C38123   6.883   6.927   2.370 -0.4440 -0.6368  0.4093
 1024MOL0     C38124   6.892   6.840   2.476 -1.2707 -0.4819  0.3350
 1024MOL0     C38125   6.829   6.712   2.506 -0.5994 -0.0857  0.2117
 1024MOL0     C38126   6.684   6.727   2.500 -0.1177 -0.3666  0.3153
 1024MOL0     C38127   6.610   6.600   2.539 -0.3744 -0.0906 -0.7715
 1024MOL0     C38128   6.460   6.608   2.532  0.0720  0.4673 -0.7098
 1024MOL0     O38129   6.396   6.483   2.579 -0.2805 -0.3906 -0.3684
 1024MOL0     C38130   6.265   6.479   2.538  0.4821 -0.3382  0.9113
 1024MOL0     C38131   6.210   6.354   2.487 -0.9262 -1.1499  0.0145
 1024MOL0     C38132   6.070   6.336   2.443 -0.4247  0.2964  0.9405
 1024MOL0     C38133   6.045   6.198   2.382  0.6584 -0.5575  0.2602
 1024MOL0     C38134   5.992   6.458   2.443  0.1960  0.3206  0.0726
 1024MOL0     C38135   5.851   6.446   2.403 -0.0647 -1.1954 -0.2462
 1024MOL0     O38136   5.799   6.547   2.332  0.4734 -0.8086 -0.1212
 1024MOL0     C38137   5.667   6.576   2.323  0.2138 -0.2193 -0.1153
 1024MOL0     C38138   5.594   6.617   2.437  0.4726  0.4588 -1.0090
 1024MOL0     C38139   5.452   6.623   2.438  0.6572  0.0790 -0.3767
 1024MOL0     C38140   5.384   6.598   2.318  0.4803 -0.0662 -1.0922
 1024MOL0     O38141   5.247   6.601   2.330 -0.3222  1.0268  0.1562
 1024MOL0     C38142   5.174   6.615   2.205 -0.5945  0.8561 -0.5563
 1024MOL0     C38143   5.026   6.626   2.241 -0.3890  0.3867  0.4680
 1024MOL0     C38144   4.968   6.507   2.320 -0.0021 -0.0954 -1.2358
 1024MOL0     C38145   4.933   6.389   2.220  0.1913 -0.3430  0.0052
 1024MOL0     C38146   5.025   6.268   2.208 -0.2162  0.6949 -0.0140
 1024MOL0     C38147   4.988   6.163   2.098 -0.3965 -0.7450 -0.4633
 1024MOL0     C38148   5.074   6.034   2.121  0.6853 -0.1355  0.0145
 1024MOL0     C38149   5.004   5.920   2.054  0.1038 -0.0864 -1.3118
 1024MOL0    Cl38150   5.013   5.949   1.878 -0.2141  0.3456  0.1172
 1024MOL0     C38151   5.461   6.570   2.202  0.1648 -0.5156 -0.5225
 1024MOL0     C38152   5.604   6.552   2.203 -0.3385 -0.4623  0.0625
 1024MOL0     O38153   5.787   6.356   2.453  0.3311 -0.1486 -0.3334
 1024MOL0     C38154   6.052   6.583   2.486  0.7214 -0.3443 -0.0789
 1024MOL0     C38155   6.179   6.590   2.543  0.3341 -0.0854 -0.5822
 1024MOL0     N38156   6.979   6.901   2.569  0.2684 -0.1007  0.5975
 1024MOL0     N38157   7.018   7.018   2.521  0.1627 -0.2262  0.3542
 1024MOL0     C38158   7.982   7.216   1.875  0.1530  0.4765  0.0990
 1024MOL0     C38159   8.108   7.236   1.816  0.1734 -0.1583 -0.7770
 1024MOL0     C38160   8.525   7.357   1.737 -1.1663 -0.3332 -0.6008
 1024MOL0     C38161   8.608   7.254   1.700 -0.0150  0.2427  0.0104
 1024MOL0     C38162   8.732   7.274   1.636  0.1471 -0.0949  0.0597
 1024MOL0     C38163   8.781   7.400   1.624  0.6504  0.0378  0.0310
 1024MOL0     O38164   8.908   7.426   1.567  0.3986 -0.0060  0.3974
 1024MOL0     C38165   8.960   7.337   1.468  0.2780  0.6207  0.0661
 1024MOL0     C38166   8.873   7.329   1.344 -0.4199  0.6378  0.4982
 1024MOL0     C38167   8.941   7.278   1.225  0.7946  0.7059  0.8102
 1024MOL0     C38168   8.845   7.243   1.116  0.0984  0.3004 -0.1568
 1024MOL0     C38169   8.931   7.215   1.002 -0.6864 -0.1164  0.7897
 1024MOL0     C38170   9.018   7.193   0.923  0.3817 -0.9233 -0.4978
 1024MOL0     C38171   8.706   7.511   1.675 -0.7003 -0.0405  0.8219
 1024MOL0     C38172   8.579   7.487   1.725 -0.4915 -0.0356 -0.3856
 1024MOL0     H38173   8.303   7.134   2.071  0.4354  0.7108 -0.4955
 1024MOL0     H38174   8.078   7.068   2.163 -0.4305  0.1498 -0.5493
 1024MOL0     H38175   7.888   6.917   2.062  1.7327  1.2034 -0.3134
 1024MOL0     H38176   7.873   7.010   2.212  1.9971 -2.1208 -0.2733
 1024MOL0     H38177   7.650   6.896   2.047  2.6842  0.9710 -1.0918
 1024MOL0     H38178   7.692   6.868   2.221 -1.4300  0.8181  1.4629
 1024MOL0     H38179   7.640   7.116   2.266  0.4611 -1.8472  1.3345
 1024MOL0     H38180   7.570   7.121   2.105 -3.0051 -0.4950  0.1866
 1024MOL0     H38181   7.453   6.898   2.205 -1.4183 -0.1433  0.2776
 1024MOL0     H38182   7.460   6.993   2.349 -3.2406  0.1262 -0.1688
 1024MOL0     H38183   7.317   7.162   2.260  1.3605  1.0087 -0.4233
 1024MOL0     H38184   7.356   7.106   2.094  4.8849 -1.4623  0.6434
 1024MOL0     H38185   7.215   6.929   2.104 -1.5855  0.0004 -0.6268
 1024MOL0     H38186   7.190   6.925   2.280  0.5370 -0.2116  0.2514
 1024MOL0     H38187   7.108   7.164   2.118  0.8094  0.4937  1.6180
 1024MOL0     H38188   7.005   7.016   2.128  1.4868 -1.2539 -2.0400
 1024MOL0     H38189   6.943   7.206   2.275 -1.1888 -0.8312  0.5760
 1024MOL0     H38190   7.095   7.195   2.361  0.5725  3.5581 -4.0829
 1024MOL0     H38191   6.848   6.893   2.273  2.1339 -0.9033 -0.5049
 1024MOL0     H38192   6.860   6.627   2.444 -0.0906  1.0136 -1.1015
 1024MOL0     H38193   6.847   6.696   2.612  0.8018 -0.0439 -0.0062
 1024MOL0     H38194   6.662   6.752   2.395  1.6839  2.6863  0.5620
 1024MOL0     H38195   6.638   6.811   2.554 -0.7399 -0.0245 -0.7082
 1024MOL0     H38196   6.638   6.587   2.644  0.7332  1.0359 -0.9133
 1024MOL0     H38197   6.646   6.517   2.478 -0.0342 -1.3485  1.0588
 1024MOL0     H38198   6.428   6.637   2.431 -0.0566 -0.5474 -0.9804
 1024MOL0     H38199   6.426   6.688   2.598 -2.0301 -1.0595  0.1565
 1024MOL0     H38200   6.282   6.275   2.466 -1.4096 -1.0915 -2.1059
 1024MOL0     H38201   6.007   6.130   2.459  0.3230  1.0259  1.5395
 1024MOL0     H38202   5.977   6.211   2.297 -1.8051  0.0305  2.1760
 1024MOL0     H38203   6.133   6.155   2.333  0.0170  0.8327 -2.2481
 1024MOL0     H38204   5.655   6.620   2.527 -0.2395  0.6988 -0.5291
 1024MOL0     H38205   5.401   6.630   2.533 -2.4331 -0.8024 -1.8149
 1024MOL0     H38206   5.204   6.707   2.156 -1.1296  1.8286  0.8644
 1024MOL0     H38207   5.194   6.531   2.137  0.2283  0.4661  0.1445
 1024MOL0     H38208   5.021   6.716   2.302 -3.3321 -0.5542  1.7873
 1024MOL0     H38209   4.968   6.633   2.148 -0.5065 -3.6364  0.0250
 1024MOL0     H38210   4.871   6.536   2.363 -0.0377 -0.3427 -1.1503
 1024MOL0     H38211   5.037   6.475   2.398 -2.0950 -0.5642  0.5212
 1024MOL0     H38212   4.833   6.357   2.252  0.0300  0.3882  0.2500
 1024MOL0     H38213   4.927   6.432   2.120 -1.1228 -1.5791 -0.4889
 1024MOL0     H38214   5.022   6.219   2.306  2.5855 -0.6468 -0.5105
 1024MOL0     H38215   5.129   6.300   2.197  0.4472 -0.7062  1.6794
 1024MOL0     H38216   4.881   6.142   2.102 -0.4233 -0.5202  0.3525
 1024MOL0     H38217   5.011   6.199   1.998  2.2609 -2.8605 -0.7503
 1024MOL0     H38218   5.084   6.013   2.228  2.3486 -2.2817 -0.4788
 1024MOL0     H38219   5.172   6.042   2.072 -0.7070 -1.2989 -3.2571
 1024MOL0     H38220   4.899   5.909   2.085  0.2753 -0.8309 -0.9611
 1024MOL0     H38221   5.059   5.828   2.076 -1.2830 -0.2922  1.9577
 1024MOL0     H38222   5.399   6.559   2.114 -0.0274 -3.0391 -0.1463
 1024MOL0     H38223   5.651   6.521   2.110 -0.8628 -1.4132  0.0974
 1024MOL0     H38224   5.991   6.672   2.472  1.7211  0.8010  2.3077
 1024MOL0     H38225   6.217   6.692   2.553 -2.7454  1.3812 -2.2875
 1024MOL0     H38226   7.886   7.227   1.824 -0.4784 -2.2236  0.5700
 1024MOL0     H38227   8.117   7.281   1.718  1.5752 -0.9043 -1.0367
 1024MOL0     H38228   8.564   7.158   1.727  0.4177  0.3745  1.2096
 1024MOL0     H38229   8.778   7.187   1.590  2.0148  0.3394  0.9961
 1024MOL0     H38230   9.061   7.373   1.447  1.4746 -0.8447  2.7832
 1024MOL0     H38231   8.970   7.236   1.510 -1.9230  0.4145  0.2389
 1024MOL0     H38232   8.825   7.422   1.314  0.0111  0.4760 -0.7406
 1024MOL0     H38233   8.796   7.257   1.371  1.8456 -2.7067 -1.3062
 1024MOL0     H38234   9.001   7.190   1.247 -1.1991 -0.9882 -0.2109
 1024MOL0     H38235   9.005   7.357   1.184  0.5783  0.0428 -0.8742
 1024MOL0     H38236   8.772   7.323   1.102  0.8863  0.9982 -0.3892
 1024MOL0     H38237   8.803   7.143   1.131  0.9541 -0.1657 -0.7665
 1024MOL0     H38238   9.092   7.175   0.848 -0.4245 -1.5286 -1.1679
 1024MOL0     H38239   8.724   7.616   1.658 -0.8816 -0.0085  0.8256
 1024MOL0     H38240   8.536   7.580   1.762 -0.5898 -0.9919  2.1014
  11.29710  11.29710  11.29710
